<event>
 8    1  0.5815007E-006  0.1440245E+04  0.7818608E-02  0.8448679E-01
         21   -1    0    0  503  502  0.00000000000E+00  0.00000000000E+00  0.17820646660E+04  0.17820646660E+04  0.00000000000E+00 0.  1.
         21   -1    0    0  501  503 -0.00000000000E+00 -0.00000000000E+00 -0.19553130993E+04  0.19553130993E+04  0.00000000000E+00 0.  1.
    9000010    2    1    2  501    0 -0.36546357549E+03 -0.92452110179E+03 -0.12904300259E+04  0.19146328736E+04  0.10061344325E+04 0.  0.
   -9000010    2    1    2    0  502  0.36546357549E+03  0.92452110179E+03  0.11171815927E+04  0.18227448917E+04  0.10421138790E+04 0.  0.
        -13    1    3    3    0    0 -0.45995643051E+03 -0.39098079225E+03 -0.12290772812E+04  0.13693271604E+04  0.10566000000E+00 0.  1.
          4    1    3    3  501    0  0.94492855023E+02 -0.53354030954E+03 -0.61352744672E+02  0.54530571318E+03  0.00000000000E+00 0.  1.
         13    1    4    4    0    0  0.55268477018E+03  0.91039778205E+02  0.61487907970E+03  0.83176017590E+03  0.10566000000E+00 0. -1.
         -4    1    4    4    0  502 -0.18722119469E+03  0.83348132358E+03  0.50230251295E+03  0.99098471584E+03  0.00000000000E+00 0. -1.
<mgrwt>
<rscale>  2 0.14337468E+04</rscale>
<asrwt>0</asrwt>
<pdfrwt beam="1">  1       21 0.27416380E+00 0.14402445E+04</pdfrwt>
<pdfrwt beam="2">  1       21 0.30081740E+00 0.14402445E+04</pdfrwt>
<totfact> 0.32607186E-01</totfact>
</mgrwt>
</event>
<event>
 8    1  0.5815007E-006  0.1076006E+04  0.7818608E-02  0.8709217E-01
         21   -1    0    0  501  502  0.00000000000E+00  0.00000000000E+00  0.15849237113E+04  0.15849237113E+04  0.00000000000E+00 0.  1.
         21   -1    0    0  502  503 -0.00000000000E+00 -0.00000000000E+00 -0.76152853834E+03  0.76152853834E+03  0.00000000000E+00 0.  1.
   -9000010    2    1    2    0  503 -0.38990275095E+03 -0.10495982736E+03  0.13965328470E+03  0.10715826049E+04  0.98272352099E+03 0.  0.
    9000010    2    1    2  501    0  0.38990275095E+03  0.10495982736E+03  0.68374188825E+03  0.12748696447E+04  0.99737100452E+03 0.  0.
        -13    1    4    4    0    0 -0.31581268010E+03 -0.89286635316E+02  0.31652953949E+03  0.45596130613E+03  0.10566000000E+00 0.  1.
          4    1    4    4  501    0  0.70571543105E+03  0.19424646268E+03  0.36721234876E+03  0.81890833856E+03  0.00000000000E+00 0.  1.
         13    1    3    3    0    0  0.25285860638E+03 -0.61704199883E+02 -0.21374939066E+03  0.33679919281E+03  0.10566000000E+00 0. -1.
         -4    1    3    3    0  503 -0.64276135733E+03 -0.43255627479E+02  0.35340267535E+03  0.73478341213E+03  0.00000000000E+00 0. -1.
<mgrwt>
<rscale>  2 0.10725995E+04</rscale>
<asrwt>0</asrwt>
<pdfrwt beam="1">  1       21 0.24383442E+00 0.10760063E+04</pdfrwt>
<pdfrwt beam="2">  1       21 0.11715824E+00 0.10760063E+04</pdfrwt>
<totfact> 0.17247217E+01</totfact>
</mgrwt>
</event>
<event>
 8    1  0.5815007E-006  0.1032910E+04  0.7818608E-02  0.8744432E-01
         21   -1    0    0  503  502  0.00000000000E+00  0.00000000000E+00  0.28515623225E+04  0.28515623225E+04  0.00000000000E+00 0. -1.
         21   -1    0    0  501  503 -0.00000000000E+00 -0.00000000000E+00 -0.37400858657E+03  0.37400858657E+03  0.00000000000E+00 0. -1.
    9000010    2    1    2  501    0 -0.20089515808E+03  0.17194076424E+03  0.12092408329E+04  0.15898687629E+04  0.99774585956E+03 0.  0.
   -9000010    2    1    2    0  502  0.20089515808E+03 -0.17194076424E+03  0.12683129029E+04  0.16357021461E+04  0.99848955933E+03 0.  0.
        -13    1    3    3    0    0  0.36049771431E+03  0.22453147106E+03  0.75316561419E+03  0.86465683198E+03  0.10566000000E+00 0.  1.
          4    1    3    3  501    0 -0.56139287238E+03 -0.52590706820E+02  0.45607521874E+03  0.72521193092E+03  0.00000000000E+00 0.  1.
         13    1    4    4    0    0  0.88820693253E+02 -0.59141241252E+03  0.76398398338E+03  0.97022126098E+03  0.10566000000E+00 0. -1.
         -4    1    4    4    0  502  0.11207446482E+03  0.41947164828E+03  0.50432891957E+03  0.66548088514E+03  0.00000000000E+00 0. -1.
<mgrwt>
<rscale>  2 0.10327306E+04</rscale>
<asrwt>0</asrwt>
<pdfrwt beam="1">  1       21 0.43870188E+00 0.10329104E+04</pdfrwt>
<pdfrwt beam="2">  1       21 0.57539785E-01 0.10329104E+04</pdfrwt>
<totfact> 0.43423950E+00</totfact>
</mgrwt>
</event>
<event>
 8    1  0.5815007E-006  0.1173468E+04  0.7818608E-02  0.8628214E-01
         21   -1    0    0  501  502  0.00000000000E+00  0.00000000000E+00  0.59451191573E+03  0.59451191573E+03  0.00000000000E+00 0.  1.
         21   -1    0    0  502  503 -0.00000000000E+00 -0.00000000000E+00 -0.24322230740E+04  0.24322230740E+04  0.00000000000E+00 0.  1.
   -9000010    2    1    2    0  503  0.16787604285E+03  0.57863258526E+03 -0.12663345373E+04  0.17215533627E+04  0.99857137239E+03 0.  0.
    9000010    2    1    2  501    0 -0.16787604285E+03 -0.57863258526E+03 -0.57137662102E+03  0.13051816271E+04  0.10069904677E+04 0.  0.
        -13    1    4    4    0    0 -0.26685682452E+03 -0.40995494848E+03 -0.84051270071E+03  0.97249022401E+03  0.10566000000E+00 0.  1.
          4    1    4    4  501    0  0.98980781666E+02 -0.16867763677E+03  0.26913607969E+03  0.33269140307E+03  0.00000000000E+00 0.  1.
         13    1    3    3    0    0 -0.25878146103E+03  0.44039902067E+03 -0.17216855546E+03  0.53903725719E+03  0.10566000000E+00 0. -1.
         -4    1    3    3    0  503  0.42665750388E+03  0.13823356458E+03 -0.10941659818E+04  0.11825161055E+04  0.00000000000E+00 0. -1.
<mgrwt>
<rscale>  2 0.11716599E+04</rscale>
<asrwt>0</asrwt>
<pdfrwt beam="1">  1       21 0.91463372E-01 0.11734683E+04</pdfrwt>
<pdfrwt beam="2">  1       21 0.37418816E+00 0.11734683E+04</pdfrwt>
<totfact> 0.38809458E+00</totfact>
</mgrwt>
</event>
<event>
 8    1  0.5815007E-006  0.1056181E+04  0.7818608E-02  0.8731652E-01
         21   -1    0    0  501  502  0.00000000000E+00  0.00000000000E+00  0.51168628968E+03  0.51168628968E+03  0.00000000000E+00 0. -1.
         21   -1    0    0  502  503 -0.00000000000E+00 -0.00000000000E+00 -0.21377955961E+04  0.21377955961E+04  0.00000000000E+00 0. -1.
   -9000010    2    1    2    0  503  0.29821365281E+03 -0.98291746389E+02 -0.98906299987E+03  0.14469844306E+04  0.10084273273E+04 0.  0.
    9000010    2    1    2  501    0 -0.29821365281E+03  0.98291746389E+02 -0.63704630650E+03  0.12024974552E+04  0.97035018573E+03 0.  0.
        -13    1    4    4    0    0 -0.52269122893E+03  0.36439754791E+03 -0.25687681753E+03  0.68700611662E+03  0.10566000000E+00 0.  1.
          4    1    4    4  501    0  0.22447757612E+03 -0.26610580152E+03 -0.38016948897E+03  0.51549133856E+03  0.00000000000E+00 0.  1.
         13    1    3    3    0    0 -0.95115272178E+02  0.53119818126E+02 -0.10186712941E+04  0.10244802813E+04  0.10566000000E+00 0. -1.
         -4    1    3    3    0  503  0.39332892499E+03 -0.15141156452E+03  0.29608294232E+02  0.42250414932E+03  0.00000000000E+00 0. -1.
<mgrwt>
<rscale>  2 0.10469885E+04</rscale>
<asrwt>0</asrwt>
<pdfrwt beam="1">  1       21 0.78720966E-01 0.10561810E+04</pdfrwt>
<pdfrwt beam="2">  1       21 0.32889164E+00 0.10561810E+04</pdfrwt>
<totfact> 0.12056632E+01</totfact>
</mgrwt>
</event>
<event>
 8    1  0.5815007E-006  0.1143215E+04  0.7818608E-02  0.8653550E-01
         21   -1    0    0  501  502  0.00000000000E+00  0.00000000000E+00  0.97000554707E+03  0.97000554707E+03  0.00000000000E+00 0.  1.
         21   -1    0    0  502  503 -0.00000000000E+00 -0.00000000000E+00 -0.14108007028E+04  0.14108007028E+04  0.00000000000E+00 0.  1.
   -9000010    2    1    2    0  503  0.50794645761E+03 -0.14372019350E+03  0.62982263366E+02  0.11449485439E+04  0.10140391042E+04 0.  0.
    9000010    2    1    2  501    0 -0.50794645761E+03  0.14372019350E+03 -0.50377741911E+03  0.12358577060E+04  0.99744046621E+03 0.  0.
        -13    1    4    4    0    0 -0.74291039239E+03 -0.72718322835E+02 -0.52976488787E+03  0.91534400811E+03  0.10566000000E+00 0.  1.
          4    1    4    4  501    0  0.23496393478E+03  0.21643851633E+03  0.25987468761E+02  0.32051369788E+03  0.00000000000E+00 0.  1.
         13    1    3    3    0    0  0.59933908437E+03  0.15879166907E+03  0.35518138484E+03  0.71454598139E+03  0.10566000000E+00 0. -1.
         -4    1    3    3    0  503 -0.91392626762E+02 -0.30251186256E+03 -0.29219912147E+03  0.43040256250E+03  0.00000000000E+00 0. -1.
<mgrwt>
<rscale>  2 0.11395228E+04</rscale>
<asrwt>0</asrwt>
<pdfrwt beam="1">  1       21 0.14923162E+00 0.11432149E+04</pdfrwt>
<pdfrwt beam="2">  1       21 0.21704626E+00 0.11432149E+04</pdfrwt>
<totfact> 0.13279239E+01</totfact>
</mgrwt>
</event>
<event>
 8    1  0.5815007E-006  0.1163130E+04  0.7818608E-02  0.8636571E-01
         21   -1    0    0  501  502  0.00000000000E+00  0.00000000000E+00  0.98520520680E+03  0.98520520680E+03  0.00000000000E+00 0.  1.
         21   -1    0    0  502  503 -0.00000000000E+00 -0.00000000000E+00 -0.13824508348E+04  0.13824508348E+04  0.00000000000E+00 0.  1.
   -9000010    2    1    2    0  503 -0.18749786575E+03  0.53946677235E+03 -0.57071769694E+02  0.11558024773E+04  0.10032159945E+04 0.  0.
    9000010    2    1    2  501    0  0.18749786575E+03 -0.53946677235E+03 -0.34017385826E+03  0.12118535642E+04  0.10132575976E+04 0.  0.
        -13    1    4    4    0    0  0.33413876287E+03 -0.79003200901E+03 -0.33672627310E+03  0.92151173746E+03  0.10566000000E+00 0.  1.
          4    1    4    4  501    0 -0.14664089713E+03  0.25056523666E+03 -0.34475851602E+01  0.29034182678E+03  0.00000000000E+00 0.  1.
         13    1    3    3    0    0 -0.51924622553E+03  0.27442633944E+03  0.24327433066E+03  0.63569557937E+03  0.10566000000E+00 0. -1.
         -4    1    3    3    0  503  0.33174835979E+03  0.26504043291E+03 -0.30034610035E+03  0.52010689795E+03  0.00000000000E+00 0. -1.
<mgrwt>
<rscale>  2 0.11609393E+04</rscale>
<asrwt>0</asrwt>
<pdfrwt beam="1">  1       21 0.15157003E+00 0.11631297E+04</pdfrwt>
<pdfrwt beam="2">  1       21 0.21268474E+00 0.11631297E+04</pdfrwt>
<totfact> 0.13603212E+01</totfact>
</mgrwt>
</event>
<event>
 8    1  0.5815007E-006  0.1066066E+04  0.7818608E-02  0.8724551E-01
         21   -1    0    0  503  502  0.00000000000E+00  0.00000000000E+00  0.57744473424E+03  0.57744473424E+03  0.00000000000E+00 0.  1.
         21   -1    0    0  501  503 -0.00000000000E+00 -0.00000000000E+00 -0.19035368860E+04  0.19035368860E+04  0.00000000000E+00 0.  1.
    9000010    2    1    2  501    0 -0.17038596275E+03  0.14511287647E+03 -0.78660790306E+03  0.13248580572E+04  0.10423088579E+04 0.  0.
   -9000010    2    1    2    0  502  0.17038596275E+03 -0.14511287647E+03 -0.53948424872E+03  0.11561235631E+04  0.99774210860E+03 0.  0.
        -13    1    3    3    0    0  0.11623485812E+03 -0.63395374741E+02  0.22050228274E+03  0.25719794641E+03  0.10566000000E+00 0.  1.
          4    1    3    3  501    0 -0.28662082087E+03  0.20850825122E+03 -0.10071101858E+04  0.10676601108E+04  0.00000000000E+00 0.  1.
         13    1    4    4    0    0 -0.27791981237E+03 -0.25269903722E+03  0.79859195781E+02  0.38402308242E+03  0.10566000000E+00 0. -1.
         -4    1    4    4    0  502  0.44830577512E+03  0.10758616074E+03 -0.61934344450E+03  0.77210048066E+03  0.00000000000E+00 0. -1.
<mgrwt>
<rscale>  2 0.10550127E+04</rscale>
<asrwt>0</asrwt>
<pdfrwt beam="1">  1       21 0.88837649E-01 0.10660661E+04</pdfrwt>
<pdfrwt beam="2">  1       21 0.29285184E+00 0.10660661E+04</pdfrwt>
<totfact> 0.15965926E+01</totfact>
</mgrwt>
</event>
<event>
 8    1  0.5815007E-006  0.1148479E+04  0.7818608E-02  0.8647338E-01
         21   -1    0    0  501  502  0.00000000000E+00  0.00000000000E+00  0.96927433198E+03  0.96927433198E+03  0.00000000000E+00 0. -1.
         21   -1    0    0  502  503 -0.00000000000E+00 -0.00000000000E+00 -0.17893595677E+04  0.17893595677E+04  0.00000000000E+00 0.  1.
   -9000010    2    1    2    0  503 -0.26010993293E+03  0.51751144834E+03 -0.10887865197E+04  0.15791410842E+04  0.98628353015E+03 0.  0.
    9000010    2    1    2  501    0  0.26010993293E+03 -0.51751144834E+03  0.26870128399E+03  0.11794928155E+04  0.99172962317E+03 0.  0.
        -13    1    4    4    0    0  0.42100885272E+03 -0.45267611084E+02  0.47790261772E+03  0.63850492078E+03  0.10566000000E+00 0.  1.
          4    1    4    4  501    0 -0.16089891979E+03 -0.47224383726E+03 -0.20920133373E+03  0.54098789473E+03  0.00000000000E+00 0.  1.
         13    1    3    3    0    0 -0.95673067636E+02  0.67047550389E+03 -0.11602563790E+04  0.13434603133E+04  0.10566000000E+00 0. -1.
         -4    1    3    3    0  503 -0.16443686530E+03 -0.15296405555E+03  0.71469859328E+02  0.23568077086E+03  0.00000000000E+00 0. -1.
<mgrwt>
<rscale>  2 0.11473018E+04</rscale>
<asrwt>0</asrwt>
<pdfrwt beam="1">  1       21 0.14911913E+00 0.11484785E+04</pdfrwt>
<pdfrwt beam="2">  1       21 0.27528609E+00 0.11484785E+04</pdfrwt>
<totfact> 0.49761176E+00</totfact>
</mgrwt>
</event>
<event>
 8    1  0.5815007E-006  0.1109033E+04  0.7818608E-02  0.8682072E-01
         21   -1    0    0  501  502  0.00000000000E+00  0.00000000000E+00  0.13885812220E+04  0.13885812220E+04  0.00000000000E+00 0. -1.
         21   -1    0    0  502  503 -0.00000000000E+00 -0.00000000000E+00 -0.87457549441E+03  0.87457549441E+03  0.00000000000E+00 0. -1.
   -9000010    2    1    2    0  503 -0.37336230174E+03  0.25848595855E+03  0.19523024015E+03  0.11260856036E+04  0.10118001487E+04 0.  0.
    9000010    2    1    2  501    0  0.37336230174E+03 -0.25848595855E+03  0.31877548746E+03  0.11370711128E+04  0.99252128697E+03 0.  0.
        -13    1    4    4    0    0  0.89058023493E+02  0.38040144199E+03  0.14292490794E+03  0.41600977042E+03  0.10566000000E+00 0.  1.
          4    1    4    4  501    0  0.28430427825E+03 -0.63888740054E+03  0.17585057951E+03  0.72106134241E+03  0.00000000000E+00 0.  1.
         13    1    3    3    0    0  0.12918279420E+03 -0.27488989519E+03 -0.12228786550E+03  0.32742477305E+03  0.10566000000E+00 0. -1.
         -4    1    3    3    0  503 -0.50254509594E+03  0.53337585374E+03  0.31751810565E+03  0.79866083053E+03  0.00000000000E+00 0. -1.
<mgrwt>
<rscale>  2 0.11046166E+04</rscale>
<asrwt>0</asrwt>
<pdfrwt beam="1">  1       21 0.21362788E+00 0.11090329E+04</pdfrwt>
<pdfrwt beam="2">  1       21 0.13455008E+00 0.11090329E+04</pdfrwt>
<totfact> 0.19384574E+01</totfact>
</mgrwt>
</event>
<event>
 8    1  0.5815007E-006  0.1108367E+04  0.7818608E-02  0.8679943E-01
         21   -1    0    0  501  502  0.00000000000E+00  0.00000000000E+00  0.24014427891E+04  0.24014427891E+04  0.00000000000E+00 0. -1.
         21   -1    0    0  502  503 -0.00000000000E+00 -0.00000000000E+00 -0.52008024015E+03  0.52008024015E+03  0.00000000000E+00 0. -1.
   -9000010    2    1    2    0  503  0.42579799204E+03 -0.12872693030E+03  0.73301072018E+03  0.13288270600E+04  0.10151857401E+04 0.  0.
    9000010    2    1    2  501    0 -0.42579799204E+03  0.12872693030E+03  0.11483518288E+04  0.15926959693E+04  0.10099970174E+04 0.  0.
        -13    1    4    4    0    0 -0.16411226637E+03  0.14180146223E+03 -0.15287559865E+03  0.26535156018E+03  0.10566000000E+00 0.  1.
          4    1    4    4  501    0 -0.26168572567E+03 -0.13074531922E+02  0.13012274275E+04  0.13273444091E+04  0.00000000000E+00 0.  1.
         13    1    3    3    0    0  0.63747809864E+03 -0.37732205882E+03  0.33219001211E+03  0.81185003395E+03  0.10566000000E+00 0. -1.
         -4    1    3    3    0  503 -0.21168010660E+03  0.24859512851E+03  0.40082070807E+03  0.51697702606E+03  0.00000000000E+00 0. -1.
<mgrwt>
<rscale>  2 0.11071771E+04</rscale>
<asrwt>0</asrwt>
<pdfrwt beam="1">  1       21 0.36945273E+00 0.11083667E+04</pdfrwt>
<pdfrwt beam="2">  1       21 0.80012346E-01 0.11083667E+04</pdfrwt>
<totfact> 0.59501217E+00</totfact>
</mgrwt>
</event>
<event>
 8    1  0.5815007E-006  0.1083821E+04  0.7818608E-02  0.8700850E-01
         21   -1    0    0  501  502  0.00000000000E+00  0.00000000000E+00  0.78411472462E+03  0.78411472462E+03  0.00000000000E+00 0.  1.
         21   -1    0    0  502  503 -0.00000000000E+00 -0.00000000000E+00 -0.16201630240E+04  0.16201630240E+04  0.00000000000E+00 0.  1.
   -9000010    2    1    2    0  503  0.29694888471E+03  0.29535773789E+03 -0.76175895910E+02  0.10806180495E+04  0.99323600836E+03 0.  0.
    9000010    2    1    2  501    0 -0.29694888471E+03 -0.29535773789E+03 -0.75987240343E+03  0.13236596991E+04  0.99962697845E+03 0.  0.
        -13    1    4    4    0    0 -0.16007629038E+03 -0.37976395000E+03 -0.97299553492E+03  0.10566765818E+04  0.10566000000E+00 0.  1.
          4    1    4    4  501    0 -0.13687259433E+03  0.84406212113E+02  0.21312313149E+03  0.26698311725E+03  0.00000000000E+00 0.  1.
         13    1    3    3    0    0 -0.96766335966E+02  0.40661219136E+03 -0.38480689672E+03  0.56813163692E+03  0.10566000000E+00 0. -1.
         -4    1    3    3    0  503  0.39371522068E+03 -0.11125445347E+03  0.30863100081E+03  0.51248641257E+03  0.00000000000E+00 0. -1.
<mgrwt>
<rscale>  2 0.10823455E+04</rscale>
<asrwt>0</asrwt>
<pdfrwt beam="1">  1       21 0.12063304E+00 0.10838214E+04</pdfrwt>
<pdfrwt beam="2">  1       21 0.24925585E+00 0.10838214E+04</pdfrwt>
<totfact> 0.14487844E+01</totfact>
</mgrwt>
</event>
<event>
 8    1  0.5815007E-006  0.1138962E+04  0.7818608E-02  0.8657703E-01
         21   -1    0    0  503  502  0.00000000000E+00  0.00000000000E+00  0.22456141590E+04  0.22456141590E+04  0.00000000000E+00 0. -1.
         21   -1    0    0  501  503 -0.00000000000E+00 -0.00000000000E+00 -0.62696759830E+03  0.62696759830E+03  0.00000000000E+00 0. -1.
    9000010    2    1    2  501    0 -0.19686114911E+03  0.45763454541E+03  0.36451254596E+03  0.11784491003E+04  0.10038372362E+04 0.  0.
   -9000010    2    1    2    0  502  0.19686114911E+03 -0.45763454541E+03  0.12541340147E+04  0.16941326570E+04  0.10242312450E+04 0.  0.
        -13    1    3    3    0    0  0.31332582685E+03  0.48501571559E+03  0.52525509622E+02  0.57980363785E+03  0.10566000000E+00 0.  1.
          4    1    3    3  501    0 -0.51018697596E+03 -0.27381170177E+02  0.31198703634E+03  0.59864546249E+03  0.00000000000E+00 0.  1.
         13    1    4    4    0    0  0.38652969012E+03 -0.71487862615E+03  0.97945982687E+03  0.12727129351E+04  0.10566000000E+00 0. -1.
         -4    1    4    4    0  502 -0.18966854100E+03  0.25724408074E+03  0.27467418787E+03  0.42141972190E+03  0.00000000000E+00 0. -1.
<mgrwt>
<rscale>  2 0.11343576E+04</rscale>
<asrwt>0</asrwt>
<pdfrwt beam="1">  1       21 0.34547910E+00 0.11389615E+04</pdfrwt>
<pdfrwt beam="2">  1       21 0.96456555E-01 0.11389615E+04</pdfrwt>
<totfact> 0.54232536E+00</totfact>
</mgrwt>
</event>
<event>
 8    1  0.5815007E-006  0.1093855E+04  0.7818608E-02  0.8699460E-01
         21   -1    0    0  501  502  0.00000000000E+00  0.00000000000E+00  0.83649537029E+03  0.83649537029E+03  0.00000000000E+00 0. -1.
         21   -1    0    0  502  503 -0.00000000000E+00 -0.00000000000E+00 -0.17334308863E+04  0.17334308863E+04  0.00000000000E+00 0. -1.
   -9000010    2    1    2    0  503  0.18201612282E+03 -0.28780161754E+03  0.12530169455E+03  0.11010081159E+04  0.10394992624E+04 0.  0.
    9000010    2    1    2  501    0 -0.18201612282E+03  0.28780161754E+03 -0.10222372106E+04  0.14689181407E+04  0.99839468623E+03 0.  0.
        -13    1    4    4    0    0 -0.31637444025E+03  0.36739718005E+03 -0.11621573954E+04  0.12592391739E+04  0.10566000000E+00 0.  1.
          4    1    4    4  501    0  0.13435831743E+03 -0.79595562512E+02  0.13992018477E+03  0.20967896685E+03  0.00000000000E+00 0.  1.
         13    1    3    3    0    0 -0.18605063386E+03  0.23859200261E+03  0.30948935738E+03  0.43281018422E+03  0.10566000000E+00 0. -1.
         -4    1    3    3    0  503  0.36806675669E+03 -0.52639362015E+03 -0.18418766282E+03  0.66819793164E+03  0.00000000000E+00 0. -1.
<mgrwt>
<rscale>  2 0.10839757E+04</rscale>
<asrwt>0</asrwt>
<pdfrwt beam="1">  1       21 0.12869160E+00 0.10938548E+04</pdfrwt>
<pdfrwt beam="2">  1       21 0.26668167E+00 0.10938548E+04</pdfrwt>
<totfact> 0.89993965E+00</totfact>
</mgrwt>
</event>
<event>
 8    1  0.5815007E-006  0.1083921E+04  0.7818608E-02  0.8702215E-01
         21   -1    0    0  501  502  0.00000000000E+00  0.00000000000E+00  0.83218700830E+03  0.83218700830E+03  0.00000000000E+00 0.  1.
         21   -1    0    0  502  503 -0.00000000000E+00 -0.00000000000E+00 -0.14440723432E+04  0.14440723432E+04  0.00000000000E+00 0.  1.
   -9000010    2    1    2    0  503  0.33768428989E+03  0.38150186346E+03 -0.51315641652E+03  0.11878515975E+04  0.94238397605E+03 0.  0.
    9000010    2    1    2  501    0 -0.33768428989E+03 -0.38150186346E+03 -0.98728918386E+02  0.10884077540E+04  0.95671818643E+03 0.  0.
        -13    1    4    4    0    0  0.11362710635E+03 -0.11891525848E+03 -0.43655270470E+03  0.46650855634E+03  0.10566000000E+00 0.  1.
          4    1    4    4  501    0 -0.45131139624E+03 -0.26258660498E+03  0.33782378631E+03  0.62189919769E+03  0.00000000000E+00 0.  1.
         13    1    3    3    0    0 -0.68616301777E+02  0.27964450547E+03 -0.67885398553E+03  0.73739541030E+03  0.10566000000E+00 0. -1.
         -4    1    3    3    0  503  0.40630059167E+03  0.10185735799E+03  0.16569756901E+03  0.45045618715E+03  0.00000000000E+00 0. -1.
<mgrwt>
<rscale>  2 0.10807491E+04</rscale>
<asrwt>0</asrwt>
<pdfrwt beam="1">  1       21 0.12802877E+00 0.10839207E+04</pdfrwt>
<pdfrwt beam="2">  1       21 0.22216497E+00 0.10839207E+04</pdfrwt>
<totfact> 0.19400218E+01</totfact>
</mgrwt>
</event>
<event>
 8    1  0.5815007E-006  0.1193965E+04  0.7818608E-02  0.8613464E-01
         21   -1    0    0  503  502  0.00000000000E+00  0.00000000000E+00  0.15547134741E+04  0.15547134741E+04  0.00000000000E+00 0.  1.
         21   -1    0    0  501  503 -0.00000000000E+00 -0.00000000000E+00 -0.12759969736E+04  0.12759969736E+04  0.00000000000E+00 0.  1.
    9000010    2    1    2  501    0  0.48483956322E+03  0.38591115635E+03 -0.62072492453E+03  0.13456788113E+04  0.10205661216E+04 0.  0.
   -9000010    2    1    2    0  502 -0.48483956322E+03 -0.38591115635E+03  0.89944142502E+03  0.14850316364E+04  0.10061447517E+04 0.  0.
        -13    1    3    3    0    0 -0.78251505970E+02 -0.27915940761E+03 -0.26918615286E+02  0.29116644047E+03  0.10566000000E+00 0.  1.
          4    1    3    3  501    0  0.56309106919E+03  0.66507056396E+03 -0.59380630924E+03  0.10545123708E+04  0.00000000000E+00 0.  1.
         13    1    4    4    0    0  0.18282630921E+03 -0.17250623542E+03  0.71837298989E+03  0.76108056365E+03  0.10566000000E+00 0. -1.
         -4    1    4    4    0  502 -0.66766587243E+03 -0.21340492094E+03  0.18106843513E+03  0.72395107271E+03  0.00000000000E+00 0. -1.
<mgrwt>
<rscale>  2 0.11908771E+04</rscale>
<asrwt>0</asrwt>
<pdfrwt beam="1">  1       21 0.23918669E+00 0.11939648E+04</pdfrwt>
<pdfrwt beam="2">  1       21 0.19630723E+00 0.11939648E+04</pdfrwt>
<totfact> 0.36255603E+00</totfact>
</mgrwt>
</event>
<event>
 8    1  0.5815007E-006  0.1067979E+04  0.7818608E-02  0.8714951E-01
         21   -1    0    0  503  502  0.00000000000E+00  0.00000000000E+00  0.76160626821E+03  0.76160626821E+03  0.00000000000E+00 0. -1.
         21   -1    0    0  501  503 -0.00000000000E+00 -0.00000000000E+00 -0.15787949844E+04  0.15787949844E+04  0.00000000000E+00 0. -1.
    9000010    2    1    2  501    0  0.20311161447E+03 -0.38422376691E+03 -0.12701866504E+03  0.10755055639E+04  0.97554920207E+03 0.  0.
   -9000010    2    1    2    0  502 -0.20311161447E+03  0.38422376691E+03 -0.69017005117E+03  0.12648956888E+04  0.96682168621E+03 0.  0.
        -13    1    3    3    0    0  0.15770837673E+03 -0.63370865615E+03  0.17991587972E+03  0.67736867946E+03  0.10566000000E+00 0.  1.
          4    1    3    3  501    0  0.45403237745E+02  0.24948488924E+03 -0.30693454477E+03  0.39813688441E+03  0.00000000000E+00 0.  1.
         13    1    4    4    0    0 -0.11495301405E+03  0.45752652710E+03  0.86668751376E+02  0.47964174346E+03  0.10566000000E+00 0. -1.
         -4    1    4    4    0  502 -0.88158600418E+02 -0.73302760183E+02 -0.77683880254E+03  0.78525394530E+03  0.00000000000E+00 0. -1.
<mgrwt>
<rscale>  2 0.10659815E+04</rscale>
<asrwt>0</asrwt>
<pdfrwt beam="1">  1       21 0.11717020E+00 0.10679787E+04</pdfrwt>
<pdfrwt beam="2">  1       21 0.24289153E+00 0.10679787E+04</pdfrwt>
<totfact> 0.17549735E+01</totfact>
</mgrwt>
</event>
<event>
 8    1  0.5815007E-006  0.1057158E+04  0.7818608E-02  0.8727429E-01
         21   -1    0    0  503  502  0.00000000000E+00  0.00000000000E+00  0.74473860344E+03  0.74473860344E+03  0.00000000000E+00 0.  1.
         21   -1    0    0  501  503 -0.00000000000E+00 -0.00000000000E+00 -0.14776666564E+04  0.14776666564E+04  0.00000000000E+00 0.  1.
    9000010    2    1    2  501    0  0.19042043666E+03 -0.13850404328E+03 -0.29192487128E+03  0.10967234569E+04  0.10306012312E+04 0.  0.
   -9000010    2    1    2    0  502 -0.19042043666E+03  0.13850404328E+03 -0.44100318168E+03  0.11256818029E+04  0.10085793982E+04 0.  0.
        -13    1    3    3    0    0  0.51024704751E+03 -0.38248384094E+03 -0.81878054201E+02  0.64292298528E+03  0.10566000000E+00 0.  1.
          4    1    3    3  501    0 -0.31982661085E+03  0.24397979766E+03 -0.21004681708E+03  0.45380047162E+03  0.00000000000E+00 0.  1.
         13    1    4    4    0    0  0.14449726050E+03  0.43511673474E+03 -0.49540603719E+03  0.67500606219E+03  0.10566000000E+00 0. -1.
         -4    1    4    4    0  502 -0.33491769716E+03 -0.29661269146E+03  0.54402855516E+02  0.45067574075E+03  0.00000000000E+00 0. -1.
<mgrwt>
<rscale>  2 0.10517520E+04</rscale>
<asrwt>0</asrwt>
<pdfrwt beam="1">  1       21 0.11457517E+00 0.10571576E+04</pdfrwt>
<pdfrwt beam="2">  1       21 0.22733333E+00 0.10571576E+04</pdfrwt>
<totfact> 0.24383838E+01</totfact>
</mgrwt>
</event>
<event>
 8    1  0.5815007E-006  0.1059862E+04  0.7818608E-02  0.8721111E-01
         21   -1    0    0  501  502  0.00000000000E+00  0.00000000000E+00  0.21618457643E+04  0.21618457643E+04  0.00000000000E+00 0.  1.
         21   -1    0    0  502  503 -0.00000000000E+00 -0.00000000000E+00 -0.52522620947E+03  0.52522620947E+03  0.00000000000E+00 0.  1.
   -9000010    2    1    2    0  503  0.30204820473E+03 -0.10864331792E+03  0.65688148544E+03  0.12437447623E+04  0.10061666161E+04 0.  0.
    9000010    2    1    2  501    0 -0.30204820473E+03  0.10864331792E+03  0.97973806934E+03  0.14433272114E+04  0.10100842867E+04 0.  0.
        -13    1    4    4    0    0  0.16934030545E+03 -0.15574254968E+03  0.85934667482E+03  0.88961148797E+03  0.10566000000E+00 0.  1.
          4    1    4    4  501    0 -0.47138851018E+03  0.26438586760E+03  0.12039139451E+03  0.55371572344E+03  0.00000000000E+00 0.  1.
         13    1    3    3    0    0  0.61067080605E+00 -0.34759094899E+03 -0.12740754779E+03  0.37020607117E+03  0.10566000000E+00 0. -1.
         -4    1    3    3    0  503  0.30143753392E+03  0.23894763107E+03  0.78428903324E+03  0.87353869113E+03  0.00000000000E+00 0. -1.
<mgrwt>
<rscale>  2 0.10589272E+04</rscale>
<asrwt>0</asrwt>
<pdfrwt beam="1">  1       21 0.33259165E+00 0.10598617E+04</pdfrwt>
<pdfrwt beam="2">  1       21 0.80804034E-01 0.10598617E+04</pdfrwt>
<totfact> 0.10645623E+01</totfact>
</mgrwt>
</event>
<event>
 8    1  0.5815007E-006  0.1015222E+04  0.7818608E-02  0.8762328E-01
         21   -1    0    0  501  502  0.00000000000E+00  0.00000000000E+00  0.16693617471E+04  0.16693617471E+04  0.00000000000E+00 0.  1.
         21   -1    0    0  502  503 -0.00000000000E+00 -0.00000000000E+00 -0.61500783044E+03  0.61500783044E+03  0.00000000000E+00 0.  1.
   -9000010    2    1    2    0  503 -0.13370991703E+03 -0.17970938542E+02  0.59932622576E+03  0.11718382213E+04  0.99790360032E+03 0.  0.
    9000010    2    1    2  501    0  0.13370991703E+03  0.17970938542E+02  0.45502769091E+03  0.11125313562E+04  0.10062179300E+04 0.  0.
        -13    1    4    4    0    0  0.11568181229E+03 -0.31775317136E+03 -0.18800866842E+03  0.38690648762E+03  0.10566000000E+00 0.  1.
          4    1    4    4  501    0  0.18028104739E+02  0.33572410990E+03  0.64303635933E+03  0.72562486861E+03  0.00000000000E+00 0.  1.
         13    1    3    3    0    0  0.31112914511E+03 -0.29447666278E+03  0.46265279259E+03  0.63052792762E+03  0.10566000000E+00 0. -1.
         -4    1    3    3    0  503 -0.44483906214E+03  0.27650572424E+03  0.13667343318E+03  0.54131029371E+03  0.00000000000E+00 0. -1.
<mgrwt>
<rscale>  2 0.10131558E+04</rscale>
<asrwt>0</asrwt>
<pdfrwt beam="1">  1       21 0.25682488E+00 0.10152221E+04</pdfrwt>
<pdfrwt beam="2">  1       21 0.94616590E-01 0.10152221E+04</pdfrwt>
<totfact> 0.24861976E+01</totfact>
</mgrwt>
</event>
<event>
 8    1  0.5815007E-006  0.1273730E+04  0.7818608E-02  0.8574719E-01
         21   -1    0    0  501  502  0.00000000000E+00  0.00000000000E+00  0.14262969816E+04  0.14262969816E+04  0.00000000000E+00 0.  1.
         21   -1    0    0  502  503 -0.00000000000E+00 -0.00000000000E+00 -0.10639145509E+04  0.10639145509E+04  0.00000000000E+00 0.  1.
   -9000010    2    1    2    0  503 -0.53400295401E+03 -0.23272497121E+03 -0.16239416160E+02  0.12738338783E+04  0.11327263411E+04 0.  0.
    9000010    2    1    2  501    0  0.53400295401E+03  0.23272497121E+03  0.37862184685E+03  0.12163776543E+04  0.99844881080E+03 0.  0.
        -13    1    4    4    0    0  0.15954041018E+03 -0.36812845457E+03  0.30617461121E+03  0.50469258491E+03  0.10566000000E+00 0.  1.
          4    1    4    4  501    0  0.37446254383E+03  0.60085342578E+03  0.72447235636E+02  0.71168506937E+03  0.00000000000E+00 0.  1.
         13    1    3    3    0    0  0.32407328889E+03 -0.23181771779E+03 -0.10252538116E+03  0.41142972158E+03  0.10566000000E+00 0. -1.
         -4    1    3    3    0  503 -0.85807624290E+03 -0.90725342447E+00  0.86285965002E+02  0.86240415670E+03  0.00000000000E+00 0. -1.
<mgrwt>
<rscale>  2 0.12432054E+04</rscale>
<asrwt>0</asrwt>
<pdfrwt beam="1">  1       21 0.21943030E+00 0.12737304E+04</pdfrwt>
<pdfrwt beam="2">  1       21 0.16367916E+00 0.12737304E+04</pdfrwt>
<totfact> 0.92723804E+00</totfact>
</mgrwt>
</event>
<event>
 8    1  0.5815007E-006  0.1019734E+04  0.7818608E-02  0.8757658E-01
         21   -1    0    0  503  502  0.00000000000E+00  0.00000000000E+00  0.15118359914E+04  0.15118359914E+04  0.00000000000E+00 0. -1.
         21   -1    0    0  501  503 -0.00000000000E+00 -0.00000000000E+00 -0.68447138987E+03  0.68447138987E+03  0.00000000000E+00 0. -1.
    9000010    2    1    2  501    0 -0.20932016521E+02 -0.14070500218E+03  0.37659588313E+03  0.10813858624E+04  0.10036607381E+04 0.  0.
   -9000010    2    1    2    0  502  0.20932016521E+02  0.14070500218E+03  0.45076871845E+03  0.11149215189E+04  0.10097630954E+04 0.  0.
        -13    1    3    3    0    0  0.18490038339E+03 -0.49289687752E+03  0.34801105971E+00  0.52643671597E+03  0.10566000000E+00 0.  1.
          4    1    3    3  501    0 -0.20583239991E+03  0.35219187534E+03  0.37624787207E+03  0.55494914645E+03  0.00000000000E+00 0.  1.
         13    1    4    4    0    0  0.45763102074E+03 -0.55160543033E+02  0.51450541331E+01  0.46097214601E+03  0.10566000000E+00 0. -1.
         -4    1    4    4    0  502 -0.43669900422E+03  0.19586554521E+03  0.44562366431E+03  0.65394937288E+03  0.00000000000E+00 0. -1.
<mgrwt>
<rscale>  2 0.10182201E+04</rscale>
<asrwt>0</asrwt>
<pdfrwt beam="1">  1       21 0.23259015E+00 0.10197341E+04</pdfrwt>
<pdfrwt beam="2">  1       21 0.10530329E+00 0.10197341E+04</pdfrwt>
<totfact> 0.28241469E+01</totfact>
</mgrwt>
</event>
<event>
 8    1  0.5815007E-006  0.1200450E+04  0.7818608E-02  0.8614642E-01
         21   -1    0    0  501  502  0.00000000000E+00  0.00000000000E+00  0.24134264057E+04  0.24134264057E+04  0.00000000000E+00 0.  1.
         21   -1    0    0  502  503 -0.00000000000E+00 -0.00000000000E+00 -0.59391323397E+03  0.59391323397E+03  0.00000000000E+00 0.  1.
   -9000010    2    1    2    0  503 -0.49851591771E+03 -0.32331857074E+03  0.62853702148E+03  0.13163325883E+04  0.99228003971E+03 0.  0.
    9000010    2    1    2  501    0  0.49851591771E+03  0.32331857074E+03  0.11909761502E+04  0.16910070514E+04  0.10430856336E+04 0.  0.
        -13    1    4    4    0    0  0.74095923424E+03  0.24192915746E+03  0.12047322572E+04  0.14348972530E+04  0.10566000000E+00 0.  1.
          4    1    4    4  501    0 -0.24244331654E+03  0.81389413282E+02 -0.13756106980E+02  0.25610979834E+03  0.00000000000E+00 0.  1.
         13    1    3    3    0    0 -0.54221327247E+03 -0.20375822075E+03 -0.90370712934E+02  0.58624186330E+03  0.10566000000E+00 0. -1.
         -4    1    3    3    0  503  0.43697354761E+02 -0.11956034999E+03  0.71890773441E+03  0.73009072498E+03  0.00000000000E+00 0. -1.
<mgrwt>
<rscale>  2 0.11893285E+04</rscale>
<asrwt>0</asrwt>
<pdfrwt beam="1">  1       21 0.37129636E+00 0.12004502E+04</pdfrwt>
<pdfrwt beam="2">  1       21 0.91371268E-01 0.12004502E+04</pdfrwt>
<totfact> 0.40549521E+00</totfact>
</mgrwt>
</event>
<event>
 8    1  0.5815007E-006  0.1314050E+04  0.7818608E-02  0.8527997E-01
         21   -1    0    0  503  502  0.00000000000E+00  0.00000000000E+00  0.15383928831E+04  0.15383928831E+04  0.00000000000E+00 0.  1.
         21   -1    0    0  501  503 -0.00000000000E+00 -0.00000000000E+00 -0.11913782169E+04  0.11913782169E+04  0.00000000000E+00 0.  1.
    9000010    2    1    2  501    0  0.83754720384E+03  0.84424192979E+02 -0.18664317174E+03  0.13114907682E+04  0.98821030075E+03 0.  0.
   -9000010    2    1    2    0  502 -0.83754720384E+03 -0.84424192979E+02  0.53365783800E+03  0.14182803318E+04  0.10090171696E+04 0.  0.
        -13    1    3    3    0    0  0.10071432449E+04 -0.10841680624E+03 -0.35664021920E+02  0.10135894896E+04  0.10566000000E+00 0.  1.
          4    1    3    3  501    0 -0.16959604111E+03  0.19284099922E+03 -0.15097914982E+03  0.29790127865E+03  0.00000000000E+00 0.  1.
         13    1    4    4    0    0 -0.28672854563E+03  0.36855711378E+03 -0.84458105597E+02  0.47453217780E+03  0.10566000000E+00 0. -1.
         -4    1    4    4    0  502 -0.55081865820E+03 -0.45298130676E+03  0.61811594360E+03  0.94374815403E+03  0.00000000000E+00 0. -1.
<mgrwt>
<rscale>  2 0.13100551E+04</rscale>
<asrwt>0</asrwt>
<pdfrwt beam="1">  1       21 0.23667583E+00 0.13140504E+04</pdfrwt>
<pdfrwt beam="2">  1       21 0.18328896E+00 0.13140504E+04</pdfrwt>
<totfact> 0.46915271E+00</totfact>
</mgrwt>
</event>
<event>
 8    1  0.5815007E-006  0.1554068E+04  0.7818608E-02  0.8383398E-01
         21   -1    0    0  503  502  0.00000000000E+00  0.00000000000E+00  0.76400497513E+03  0.76400497513E+03  0.00000000000E+00 0. -1.
         21   -1    0    0  501  503 -0.00000000000E+00 -0.00000000000E+00 -0.31246883680E+04  0.31246883680E+04  0.00000000000E+00 0. -1.
    9000010    2    1    2  501    0  0.11512271179E+04  0.25641400500E+03 -0.13722151773E+04  0.20731862918E+04  0.10119559718E+04 0.  0.
   -9000010    2    1    2    0  502 -0.11512271179E+04 -0.25641400500E+03 -0.98846821557E+03  0.18155070513E+04  0.96328833745E+03 0.  0.
        -13    1    3    3    0    0  0.12585954857E+04  0.27470769616E+03 -0.85856391432E+03  0.15481146344E+04  0.10566000000E+00 0.  1.
          4    1    3    3  501    0 -0.10736836777E+03 -0.18293691151E+02 -0.51365126296E+03  0.52507165746E+03  0.00000000000E+00 0.  1.
         13    1    4    4    0    0 -0.72638634387E+03 -0.54264840217E+03 -0.93176068060E+03  0.13001086055E+04  0.10566000000E+00 0. -1.
         -4    1    4    4    0  502 -0.42484077407E+03  0.28623439717E+03 -0.56707534970E+02  0.51539844583E+03  0.00000000000E+00 0. -1.
<mgrwt>
<rscale>  2 0.15461976E+04</rscale>
<asrwt>0</asrwt>
<pdfrwt beam="1">  1       21 0.11753923E+00 0.15540679E+04</pdfrwt>
<pdfrwt beam="2">  1       21 0.48072129E+00 0.15540679E+04</pdfrwt>
<totfact> 0.33816196E-01</totfact>
</mgrwt>
</event>
<event>
 8    1  0.5815007E-006  0.1240215E+04  0.7818608E-02  0.8579463E-01
         21   -1    0    0  503  502  0.00000000000E+00  0.00000000000E+00  0.88376049634E+03  0.88376049634E+03  0.00000000000E+00 0. -1.
         21   -1    0    0  501  503 -0.00000000000E+00 -0.00000000000E+00 -0.18016405259E+04  0.18016405259E+04  0.00000000000E+00 0. -1.
    9000010    2    1    2  501    0 -0.61446892914E+03  0.33106757918E+03 -0.17160616844E+03  0.12379698980E+04  0.10079399706E+04 0.  0.
   -9000010    2    1    2    0  502  0.61446892914E+03 -0.33106757918E+03 -0.74627386108E+03  0.14474311242E+04  0.10251606590E+04 0.  0.
        -13    1    3    3    0    0  0.23120037580E+02 -0.67317407255E+02 -0.43542736947E+03  0.44120649894E+03  0.10566000000E+00 0.  1.
          4    1    3    3  501    0 -0.63758896672E+03  0.39838498644E+03  0.26382120104E+03  0.79676339902E+03  0.00000000000E+00 0.  1.
         13    1    4    4    0    0 -0.22454394784E+03 -0.12206592369E+03  0.62903008031E+02  0.26320500342E+03  0.10566000000E+00 0. -1.
         -4    1    4    4    0  502  0.83901287698E+03 -0.20900165549E+03 -0.80917686911E+03  0.11842261208E+04  0.00000000000E+00 0. -1.
<mgrwt>
<rscale>  2 0.12366502E+04</rscale>
<asrwt>0</asrwt>
<pdfrwt beam="1">  1       21 0.13596315E+00 0.12402146E+04</pdfrwt>
<pdfrwt beam="2">  1       21 0.27717546E+00 0.12402146E+04</pdfrwt>
<totfact> 0.62505194E+00</totfact>
</mgrwt>
</event>
<event>
 8    1  0.5815007E-006  0.1178072E+04  0.7818608E-02  0.8635556E-01
         21   -1    0    0  501  502  0.00000000000E+00  0.00000000000E+00  0.17072269662E+04  0.17072269662E+04  0.00000000000E+00 0. -1.
         21   -1    0    0  502  503 -0.00000000000E+00 -0.00000000000E+00 -0.77697865903E+03  0.77697865903E+03  0.00000000000E+00 0. -1.
   -9000010    2    1    2    0  503 -0.35397287656E+03  0.36840447865E+03  0.36558485537E+03  0.12334931773E+04  0.10615245993E+04 0.  0.
    9000010    2    1    2  501    0  0.35397287656E+03 -0.36840447865E+03  0.56466345180E+03  0.12507124479E+04  0.99217849014E+03 0.  0.
        -13    1    4    4    0    0 -0.78645443746E+02  0.29688901431E+03  0.68135613024E+02  0.31459603552E+03  0.10566000000E+00 0.  1.
          4    1    4    4  501    0  0.43261832031E+03 -0.66529349296E+03  0.49652783878E+03  0.93611641237E+03  0.00000000000E+00 0.  1.
         13    1    3    3    0    0 -0.11664603818E+03 -0.34567890991E+03  0.31035832429E+03  0.47898069648E+03  0.10566000000E+00 0. -1.
         -4    1    3    3    0  503 -0.23732683838E+03  0.71408338856E+03  0.55226531073E+02  0.75451248085E+03  0.00000000000E+00 0. -1.
<mgrwt>
<rscale>  2 0.11622352E+04</rscale>
<asrwt>0</asrwt>
<pdfrwt beam="1">  1       21 0.26265030E+00 0.11780718E+04</pdfrwt>
<pdfrwt beam="2">  1       21 0.11953518E+00 0.11780718E+04</pdfrwt>
<totfact> 0.11651730E+01</totfact>
</mgrwt>
</event>
<event>
 8    1  0.5815007E-006  0.1152758E+04  0.7818608E-02  0.8650626E-01
         21   -1    0    0  503  502  0.00000000000E+00  0.00000000000E+00  0.88069776616E+03  0.88069776616E+03  0.00000000000E+00 0. -1.
         21   -1    0    0  501  503 -0.00000000000E+00 -0.00000000000E+00 -0.15088557986E+04  0.15088557986E+04  0.00000000000E+00 0. -1.
    9000010    2    1    2  501    0  0.44001798154E+03 -0.36657712976E+03 -0.52458183541E+03  0.12321516406E+04  0.95656518190E+03 0.  0.
   -9000010    2    1    2    0  502 -0.44001798154E+03  0.36657712976E+03 -0.10357619701E+03  0.11574019241E+04  0.10004281930E+04 0.  0.
        -13    1    3    3    0    0  0.50371069077E+03 -0.13972115902E+03 -0.74460371887E+03  0.90976984540E+03  0.10566000000E+00 0.  1.
          4    1    3    3  501    0 -0.63692709226E+02 -0.22685597074E+03  0.22002188346E+03  0.32238179519E+03  0.00000000000E+00 0.  1.
         13    1    4    4    0    0 -0.45903158563E+03  0.68343577405E+03 -0.14925732702E+03  0.83670318195E+03  0.10566000000E+00 0. -1.
         -4    1    4    4    0  502  0.19013604094E+02 -0.31685864429E+03  0.45681130017E+02  0.32069874219E+03  0.00000000000E+00 0. -1.
<mgrwt>
<rscale>  2 0.11431758E+04</rscale>
<asrwt>0</asrwt>
<pdfrwt beam="1">  1       21 0.13549196E+00 0.11527581E+04</pdfrwt>
<pdfrwt beam="2">  1       21 0.23213166E+00 0.11527581E+04</pdfrwt>
<totfact> 0.13660608E+01</totfact>
</mgrwt>
</event>
<event>
 8    1  0.5815007E-006  0.1062929E+04  0.7818608E-02  0.8724276E-01
         21   -1    0    0  503  502  0.00000000000E+00  0.00000000000E+00  0.84809727903E+03  0.84809727903E+03  0.00000000000E+00 0.  1.
         21   -1    0    0  501  503 -0.00000000000E+00 -0.00000000000E+00 -0.12980185805E+04  0.12980185805E+04  0.00000000000E+00 0.  1.
    9000010    2    1    2  501    0 -0.20224624009E+03  0.29573162096E+03 -0.16779506906E+03  0.10463827855E+04  0.96871100711E+03 0.  0.
   -9000010    2    1    2    0  502  0.20224624009E+03 -0.29573162096E+03 -0.28212623237E+03  0.10997330740E+04  0.10007281798E+04 0.  0.
        -13    1    3    3    0    0 -0.38080407055E+03  0.24924920798E+02 -0.46837063265E+03  0.60415565256E+03  0.10566000000E+00 0.  1.
          4    1    3    3  501    0  0.17855783046E+03  0.27080670016E+03  0.30057556359E+03  0.44222713293E+03  0.00000000000E+00 0.  1.
         13    1    4    4    0    0  0.32158069622E+03  0.21844274547E+03 -0.40117382795E+03  0.55863389499E+03  0.10566000000E+00 0. -1.
         -4    1    4    4    0  502 -0.11933445613E+03 -0.51417436642E+03  0.11904759558E+03  0.54109917901E+03  0.00000000000E+00 0. -1.
<mgrwt>
<rscale>  2 0.10553258E+04</rscale>
<asrwt>0</asrwt>
<pdfrwt beam="1">  1       21 0.13047651E+00 0.10629288E+04</pdfrwt>
<pdfrwt beam="2">  1       21 0.19969517E+00 0.10629288E+04</pdfrwt>
<totfact> 0.27421406E+01</totfact>
</mgrwt>
</event>
<event>
 8    1  0.5815007E-006  0.1034506E+04  0.7818608E-02  0.8742944E-01
         21   -1    0    0  503  502  0.00000000000E+00  0.00000000000E+00  0.85244970417E+03  0.85244970417E+03  0.00000000000E+00 0.  1.
         21   -1    0    0  501  503 -0.00000000000E+00 -0.00000000000E+00 -0.12838651566E+04  0.12838651566E+04  0.00000000000E+00 0.  1.
    9000010    2    1    2  501    0  0.29486197319E+03  0.14850145807E+02 -0.37630156222E+03  0.11003417054E+04  0.99095150886E+03 0.  0.
   -9000010    2    1    2    0  502 -0.29486197319E+03 -0.14850145807E+02 -0.55113890184E+02  0.10359731553E+04  0.99148309496E+03 0.  0.
        -13    1    3    3    0    0  0.62728013470E+03 -0.16268105607E+03 -0.16673954904E+03  0.66913943373E+03  0.10566000000E+00 0.  1.
          4    1    3    3  501    0 -0.33241816151E+03  0.17753120188E+03 -0.20956201318E+03  0.43120227169E+03  0.00000000000E+00 0.  1.
         13    1    4    4    0    0 -0.53767729388E+03 -0.10061242263E+03 -0.34617503017E+03  0.64734603931E+03  0.10566000000E+00 0. -1.
         -4    1    4    4    0  502  0.24281532069E+03  0.85762276823E+02  0.29106113999E+03  0.38862711601E+03  0.00000000000E+00 0. -1.
<mgrwt>
<rscale>  2 0.10343787E+04</rscale>
<asrwt>0</asrwt>
<pdfrwt beam="1">  1       21 0.13114611E+00 0.10345061E+04</pdfrwt>
<pdfrwt beam="2">  1       21 0.19751772E+00 0.10345061E+04</pdfrwt>
<totfact> 0.28277509E+01</totfact>
</mgrwt>
</event>
<event>
 8    1  0.5815007E-006  0.1014933E+04  0.7818608E-02  0.8763406E-01
         21   -1    0    0  501  502  0.00000000000E+00  0.00000000000E+00  0.12611267839E+04  0.12611267839E+04  0.00000000000E+00 0.  1.
         21   -1    0    0  502  503 -0.00000000000E+00 -0.00000000000E+00 -0.83013702827E+03  0.83013702827E+03  0.00000000000E+00 0.  1.
   -9000010    2    1    2    0  503 -0.14243180120E+03  0.34427208997E+01  0.41221840843E+02  0.10040621987E+04  0.99304732430E+03 0.  0.
    9000010    2    1    2  501    0  0.14243180120E+03 -0.34427208997E+01  0.38976791479E+03  0.10872016135E+04  0.10048829040E+04 0.  0.
        -13    1    4    4    0    0 -0.53664897195E+02 -0.48418776594E+03  0.25927703351E+03  0.55185351784E+03  0.10566000000E+00 0.  1.
          4    1    4    4  501    0  0.19609669839E+03  0.48074504504E+03  0.13049088128E+03  0.53534809568E+03  0.00000000000E+00 0.  1.
         13    1    3    3    0    0  0.36056037387E+03 -0.17830838735E+03 -0.15964522100E+03  0.43276352891E+03  0.10566000000E+00 0. -1.
         -4    1    3    3    0  503 -0.50299217507E+03  0.18175110825E+03  0.20086706184E+03  0.57129866975E+03  0.00000000000E+00 0. -1.
<mgrwt>
<rscale>  2 0.10119906E+04</rscale>
<asrwt>0</asrwt>
<pdfrwt beam="1">  1       21 0.19401951E+00 0.10149327E+04</pdfrwt>
<pdfrwt beam="2">  1       21 0.12771339E+00 0.10149327E+04</pdfrwt>
<totfact> 0.32664332E+01</totfact>
</mgrwt>
</event>
<event>
 8    1  0.5815007E-006  0.1240779E+04  0.7818608E-02  0.8577409E-01
         21   -1    0    0  501  502  0.00000000000E+00  0.00000000000E+00  0.11167851253E+04  0.11167851253E+04  0.00000000000E+00 0. -1.
         21   -1    0    0  502  503 -0.00000000000E+00 -0.00000000000E+00 -0.13881009959E+04  0.13881009959E+04  0.00000000000E+00 0. -1.
   -9000010    2    1    2    0  503 -0.72584824698E+03  0.43577221585E+02 -0.44285733627E+01  0.12407872392E+04  0.10053749096E+04 0.  0.
    9000010    2    1    2  501    0  0.72584824698E+03 -0.43577221585E+02 -0.26688729720E+03  0.12640988820E+04  0.99898073158E+03 0.  0.
        -13    1    4    4    0    0  0.75843758674E+03 -0.39181440679E+03 -0.31729530598E+03  0.91072631713E+03  0.10566000000E+00 0.  1.
          4    1    4    4  501    0 -0.32589339760E+02  0.34823718520E+03  0.50408008787E+02  0.35337256483E+03  0.00000000000E+00 0.  1.
         13    1    3    3    0    0 -0.11254861143E+02 -0.13752498099E+03  0.38363790206E+03  0.40769822584E+03  0.10566000000E+00 0. -1.
         -4    1    3    3    0  503 -0.71459338583E+03  0.18110220257E+03 -0.38806647542E+03  0.83308901337E+03  0.00000000000E+00 0. -1.
<mgrwt>
<rscale>  2 0.12394835E+04</rscale>
<asrwt>0</asrwt>
<pdfrwt beam="1">  1       21 0.17181310E+00 0.12407793E+04</pdfrwt>
<pdfrwt beam="2">  1       21 0.21355400E+00 0.12407793E+04</pdfrwt>
<totfact> 0.88268453E+00</totfact>
</mgrwt>
</event>
<event>
 8    1  0.5815007E-006  0.1097290E+04  0.7818608E-02  0.8697232E-01
         21   -1    0    0  501  502  0.00000000000E+00  0.00000000000E+00  0.24021733786E+04  0.24021733786E+04  0.00000000000E+00 0. -1.
         21   -1    0    0  502  503 -0.00000000000E+00 -0.00000000000E+00 -0.49531940523E+03  0.49531940523E+03  0.00000000000E+00 0. -1.
   -9000010    2    1    2    0  503 -0.24261885443E+03  0.10378790632E+03  0.73548215436E+03  0.13209769517E+04  0.10650869775E+04 0.  0.
    9000010    2    1    2  501    0  0.24261885443E+03 -0.10378790632E+03  0.11713718190E+04  0.15765158321E+04  0.10215940448E+04 0.  0.
        -13    1    4    4    0    0  0.36651428777E+03  0.16143311063E+03  0.12161339533E+04  0.12803808714E+04  0.10566000000E+00 0.  1.
          4    1    4    4  501    0 -0.12389543334E+03 -0.26522101695E+03 -0.44762134351E+02  0.29613496063E+03  0.00000000000E+00 0.  1.
         13    1    3    3    0    0  0.39351373072E+03  0.45350912467E+02  0.76973775039E+02  0.40352786117E+03  0.10566000000E+00 0. -1.
         -4    1    3    3    0  503 -0.63613258516E+03  0.58436993848E+02  0.65850837933E+03  0.91744909057E+03  0.00000000000E+00 0. -1.
<mgrwt>
<rscale>  2 0.10865938E+04</rscale>
<asrwt>0</asrwt>
<pdfrwt beam="1">  1       21 0.36956513E+00 0.10972903E+04</pdfrwt>
<pdfrwt beam="2">  1       21 0.76202987E-01 0.10972903E+04</pdfrwt>
<totfact> 0.67011235E+00</totfact>
</mgrwt>
</event>
<event>
 8    1  0.5815007E-006  0.1387567E+04  0.7818608E-02  0.8487371E-01
         21   -1    0    0  503  502  0.00000000000E+00  0.00000000000E+00  0.72371473393E+03  0.72371473393E+03  0.00000000000E+00 0.  1.
         21   -1    0    0  501  503 -0.00000000000E+00 -0.00000000000E+00 -0.25565280841E+04  0.25565280841E+04  0.00000000000E+00 0.  1.
    9000010    2    1    2  501    0  0.85134977865E+03 -0.36893218602E+03 -0.10594775353E+04  0.17458049877E+04  0.10317145941E+04 0.  0.
   -9000010    2    1    2    0  502 -0.85134977865E+03  0.36893218602E+03 -0.77333581489E+03  0.15344378304E+04  0.94633174375E+03 0.  0.
        -13    1    3    3    0    0  0.35177850304E+03 -0.25926412088E+03 -0.11465260204E+04  0.12269832624E+04  0.10566000000E+00 0.  1.
          4    1    3    3  501    0  0.49957127561E+03 -0.10966806514E+03  0.87048485046E+02  0.51882172533E+03  0.00000000000E+00 0.  1.
         13    1    4    4    0    0 -0.82438355188E+03  0.39189774438E+03 -0.97155237381E+03  0.13330814337E+04  0.10566000000E+00 0. -1.
         -4    1    4    4    0  502 -0.26966226767E+02 -0.22965558356E+02  0.19821655892E+03  0.20135639668E+03  0.00000000000E+00 0. -1.
<mgrwt>
<rscale>  2 0.13717343E+04</rscale>
<asrwt>0</asrwt>
<pdfrwt beam="1">  1       21 0.11134073E+00 0.13875671E+04</pdfrwt>
<pdfrwt beam="2">  1       21 0.39331202E+00 0.13875671E+04</pdfrwt>
<totfact> 0.16313743E+00</totfact>
</mgrwt>
</event>
<event>
 8    1  0.5815007E-006  0.1106934E+04  0.7818608E-02  0.8682696E-01
         21   -1    0    0  503  502  0.00000000000E+00  0.00000000000E+00  0.13006404391E+04  0.13006404391E+04  0.00000000000E+00 0. -1.
         21   -1    0    0  501  503 -0.00000000000E+00 -0.00000000000E+00 -0.95662233211E+03  0.95662233211E+03  0.00000000000E+00 0. -1.
    9000010    2    1    2  501    0  0.12644765348E+03  0.39221958954E+03 -0.11048869124E+02  0.10947761269E+04  0.10141930167E+04 0.  0.
   -9000010    2    1    2    0  502 -0.12644765348E+03 -0.39221958954E+03  0.35506697616E+03  0.11624866443E+04  0.10273643098E+04 0.  0.
        -13    1    3    3    0    0  0.65362462243E+02  0.69103419384E+03  0.20179502157E+03  0.72285665967E+03  0.10566000000E+00 0.  1.
          4    1    3    3  501    0  0.61085191239E+02 -0.29881460430E+03 -0.21284389070E+03  0.37191946728E+03  0.00000000000E+00 0.  1.
         13    1    4    4    0    0  0.82584691170E+02  0.27167621166E+03 -0.13183157158E+03  0.31306192618E+03  0.10566000000E+00 0. -1.
         -4    1    4    4    0  502 -0.20903234465E+03 -0.66389580120E+03  0.48689854774E+03  0.84942471812E+03  0.00000000000E+00 0. -1.
<mgrwt>
<rscale>  2 0.11038678E+04</rscale>
<asrwt>0</asrwt>
<pdfrwt beam="1">  1       21 0.20009853E+00 0.11069339E+04</pdfrwt>
<pdfrwt beam="2">  1       21 0.14717267E+00 0.11069339E+04</pdfrwt>
<totfact> 0.18852704E+01</totfact>
</mgrwt>
</event>
<event>
 8    1  0.5815007E-006  0.2075584E+04  0.7818608E-02  0.8139901E-01
         21   -1    0    0  501  502  0.00000000000E+00  0.00000000000E+00  0.17151022987E+04  0.17151022987E+04  0.00000000000E+00 0. -1.
         21   -1    0    0  502  503 -0.00000000000E+00 -0.00000000000E+00 -0.24979417398E+04  0.24979417398E+04  0.00000000000E+00 0. -1.
   -9000010    2    1    2    0  503  0.39595309146E+03 -0.17717286528E+04 -0.28687446754E+03  0.20790263590E+04  0.97172649001E+03 0.  0.
    9000010    2    1    2  501    0 -0.39595309146E+03  0.17717286528E+04 -0.49596497357E+03  0.21340176795E+04  0.10061058253E+04 0.  0.
        -13    1    4    4    0    0 -0.24690284951E+03  0.11625475945E+04  0.19112109155E+03  0.12037463227E+04  0.10566000000E+00 0.  1.
          4    1    4    4  501    0 -0.14905024194E+03  0.60918105826E+03 -0.68708606512E+03  0.93027135678E+03  0.00000000000E+00 0.  1.
         13    1    3    3    0    0  0.61054555788E+03 -0.12593039742E+04 -0.49691079154E+03  0.14851036070E+04  0.10566000000E+00 0. -1.
         -4    1    3    3    0  503 -0.21459246642E+03 -0.51242467860E+03  0.21003632400E+03  0.59392275195E+03  0.00000000000E+00 0. -1.
<mgrwt>
<rscale>  2 0.20714607E+04</rscale>
<asrwt>0</asrwt>
<pdfrwt beam="1">  1       21 0.26386189E+00 0.20755843E+04</pdfrwt>
<pdfrwt beam="2">  1       21 0.38429873E+00 0.20755843E+04</pdfrwt>
<totfact> 0.90353894E-02</totfact>
</mgrwt>
</event>
<event>
 8    1  0.5815007E-006  0.1072291E+04  0.7818608E-02  0.8710142E-01
         21   -1    0    0  503  502  0.00000000000E+00  0.00000000000E+00  0.68565345110E+03  0.68565345110E+03  0.00000000000E+00 0.  1.
         21   -1    0    0  501  503 -0.00000000000E+00 -0.00000000000E+00 -0.16817276142E+04  0.16817276142E+04  0.00000000000E+00 0.  1.
    9000010    2    1    2  501    0 -0.33462632525E+03  0.15634211914E+03 -0.58646390016E+03  0.12195188511E+04  0.10034284659E+04 0.  0.
   -9000010    2    1    2    0  502  0.33462632525E+03 -0.15634211914E+03 -0.40961026293E+03  0.11478622142E+04  0.10066724689E+04 0.  0.
        -13    1    3    3    0    0 -0.45644413640E+03 -0.33027170206E+03 -0.36410210827E+03  0.67081368743E+03  0.10566000000E+00 0.  1.
          4    1    3    3  501    0  0.12181781115E+03  0.48661382120E+03 -0.22236179189E+03  0.54870516363E+03  0.00000000000E+00 0.  1.
         13    1    4    4    0    0  0.51346228997E+03  0.13506831541E+03  0.93966758356E+02  0.53918154260E+03  0.10566000000E+00 0. -1.
         -4    1    4    4    0  502 -0.17883596471E+03 -0.29141043455E+03 -0.50357702129E+03  0.60868067163E+03  0.00000000000E+00 0. -1.
<mgrwt>
<rscale>  2 0.10715285E+04</rscale>
<asrwt>0</asrwt>
<pdfrwt beam="1">  1       21 0.10548515E+00 0.10722906E+04</pdfrwt>
<pdfrwt beam="2">  1       21 0.25872732E+00 0.10722906E+04</pdfrwt>
<totfact> 0.17898219E+01</totfact>
</mgrwt>
</event>
<event>
 8    1  0.5815007E-006  0.1045330E+04  0.7818608E-02  0.8739285E-01
         21   -1    0    0  503  502  0.00000000000E+00  0.00000000000E+00  0.17309400866E+04  0.17309400866E+04  0.00000000000E+00 0. -1.
         21   -1    0    0  501  503 -0.00000000000E+00 -0.00000000000E+00 -0.61493828757E+03  0.61493828757E+03  0.00000000000E+00 0. -1.
    9000010    2    1    2  501    0 -0.99665877990E+02 -0.10006914089E+03  0.57154223527E+03  0.11913750371E+04  0.10357445786E+04 0.  0.
   -9000010    2    1    2    0  502  0.99665877990E+02  0.10006914089E+03  0.54445956377E+03  0.11545033371E+04  0.10082135779E+04 0.  0.
        -13    1    3    3    0    0  0.18007916555E+02 -0.56171952442E+03  0.37716514499E+03  0.67683577546E+03  0.10566000000E+00 0.  1.
          4    1    3    3  501    0 -0.11767379454E+03  0.46165038353E+03  0.19437709028E+03  0.51453926163E+03  0.00000000000E+00 0.  1.
         13    1    4    4    0    0  0.29363704967E+03 -0.38847756738E+03  0.20236264476E+03  0.52734067590E+03  0.10566000000E+00 0. -1.
         -4    1    4    4    0  502 -0.19397117168E+03  0.48854670827E+03  0.34209691901E+03  0.62716266120E+03  0.00000000000E+00 0. -1.
<mgrwt>
<rscale>  2 0.10384439E+04</rscale>
<asrwt>0</asrwt>
<pdfrwt beam="1">  1       21 0.26629847E+00 0.10453296E+04</pdfrwt>
<pdfrwt beam="2">  1       21 0.94605891E-01 0.10453296E+04</pdfrwt>
<totfact> 0.21110305E+01</totfact>
</mgrwt>
</event>
<event>
 8    1  0.5815007E-006  0.1143399E+04  0.7818608E-02  0.8655946E-01
         21   -1    0    0  503  502  0.00000000000E+00  0.00000000000E+00  0.41393892129E+03  0.41393892129E+03  0.00000000000E+00 0.  1.
         21   -1    0    0  501  503 -0.00000000000E+00 -0.00000000000E+00 -0.31695688071E+04  0.31695688071E+04  0.00000000000E+00 0.  1.
    9000010    2    1    2  501    0  0.35330955927E+03  0.39168887883E+03 -0.10667394065E+04  0.15439706461E+04  0.98369943190E+03 0.  0.
   -9000010    2    1    2    0  502 -0.35330955927E+03 -0.39168887883E+03 -0.16888904793E+04  0.20395370823E+04  0.10144518896E+04 0.  0.
        -13    1    3    3    0    0  0.49456154541E+03  0.74028096212E+02 -0.91177443061E+02  0.50831547144E+03  0.10566000000E+00 0.  1.
          4    1    3    3  501    0 -0.14125198614E+03  0.31766078261E+03 -0.97556196341E+03  0.10356551747E+04  0.00000000000E+00 0.  1.
         13    1    4    4    0    0 -0.29097383996E+03 -0.71579496649E+03 -0.91115209448E+03  0.11946657943E+04  0.10566000000E+00 0. -1.
         -4    1    4    4    0  502 -0.62335719313E+02  0.32410608766E+03 -0.77773838485E+03  0.84487128797E+03  0.00000000000E+00 0. -1.
<mgrwt>
<rscale>  2 0.11365386E+04</rscale>
<asrwt>0</asrwt>
<pdfrwt beam="1">  1       21 0.63682914E-01 0.11433986E+04</pdfrwt>
<pdfrwt beam="2">  1       21 0.48762595E+00 0.11433986E+04</pdfrwt>
<totfact> 0.15364131E+00</totfact>
</mgrwt>
</event>
<event>
 8    1  0.5815007E-006  0.1314928E+04  0.7818608E-02  0.8541063E-01
         21   -1    0    0  503  502  0.00000000000E+00  0.00000000000E+00  0.11329164086E+04  0.11329164086E+04  0.00000000000E+00 0.  1.
         21   -1    0    0  501  503 -0.00000000000E+00 -0.00000000000E+00 -0.14354443605E+04  0.14354443605E+04  0.00000000000E+00 0.  1.
    9000010    2    1    2  501    0  0.47668098908E+03 -0.47337151887E+03 -0.28009068211E+03  0.12532410618E+04  0.10202239993E+04 0.  0.
   -9000010    2    1    2    0  502 -0.47668098908E+03  0.47337151887E+03 -0.22437269755E+02  0.13151197073E+04  0.11303676628E+04 0.  0.
        -13    1    3    3    0    0  0.89053929290E+02 -0.72565538181E+03 -0.40128040274E+02  0.73219984038E+03  0.10566000000E+00 0.  1.
          4    1    3    3  501    0  0.38762705979E+03  0.25228386294E+03 -0.23996264184E+03  0.52104122146E+03  0.00000000000E+00 0.  1.
         13    1    4    4    0    0 -0.26642561079E+03 -0.31892706412E+03  0.20647418026E+03  0.46403521051E+03  0.10566000000E+00 0. -1.
         -4    1    4    4    0  502 -0.21025537830E+03  0.79229858299E+03 -0.22891145001E+03  0.85108449678E+03  0.00000000000E+00 0. -1.
<mgrwt>
<rscale>  2 0.12909326E+04</rscale>
<asrwt>0</asrwt>
<pdfrwt beam="1">  1       21 0.17429483E+00 0.13149283E+04</pdfrwt>
<pdfrwt beam="2">  1       21 0.22083759E+00 0.13149283E+04</pdfrwt>
<totfact> 0.73038846E+00</totfact>
</mgrwt>
</event>
<event>
 8    1  0.5815007E-006  0.1126627E+04  0.7818608E-02  0.8665587E-01
         21   -1    0    0  501  502  0.00000000000E+00  0.00000000000E+00  0.17339568810E+04  0.17339568810E+04  0.00000000000E+00 0.  1.
         21   -1    0    0  502  503 -0.00000000000E+00 -0.00000000000E+00 -0.74608201249E+03  0.74608201249E+03  0.00000000000E+00 0.  1.
   -9000010    2    1    2    0  503  0.64550601488E+02 -0.51710087098E+03  0.29655704784E+03  0.11650044946E+04  0.99886400419E+03 0.  0.
    9000010    2    1    2  501    0 -0.64550601488E+02  0.51710087098E+03  0.69131782068E+03  0.13150343989E+04  0.98986617791E+03 0.  0.
        -13    1    4    4    0    0 -0.93035846456E+02 -0.27564905207E+03  0.33994006105E+03  0.44743415706E+03  0.10566000000E+00 0.  1.
          4    1    4    4  501    0  0.28485244968E+02  0.79274992305E+03  0.35137775963E+03  0.86760024184E+03  0.00000000000E+00 0.  1.
         13    1    3    3    0    0  0.42950392926E+03 -0.21178797461E+03 -0.16066157383E+03  0.50511377323E+03  0.10566000000E+00 0. -1.
         -4    1    3    3    0  503 -0.36495332777E+03 -0.30531289637E+03  0.45721862166E+03  0.65989072136E+03  0.00000000000E+00 0. -1.
<mgrwt>
<rscale>  2 0.11246297E+04</rscale>
<asrwt>0</asrwt>
<pdfrwt beam="1">  1       21 0.26676259E+00 0.11266274E+04</pdfrwt>
<pdfrwt beam="2">  1       21 0.11478185E+00 0.11266274E+04</pdfrwt>
<totfact> 0.12312887E+01</totfact>
</mgrwt>
</event>
<event>
 8    1  0.5815007E-006  0.1014423E+04  0.7818608E-02  0.8771910E-01
         21   -1    0    0  503  502  0.00000000000E+00  0.00000000000E+00  0.60922011130E+03  0.60922011130E+03  0.00000000000E+00 0. -1.
         21   -1    0    0  501  503 -0.00000000000E+00 -0.00000000000E+00 -0.16178626654E+04  0.16178626654E+04  0.00000000000E+00 0. -1.
    9000010    2    1    2  501    0 -0.13434521230E+03  0.16353703984E+03 -0.56833622917E+03  0.11627810453E+04  0.99209913332E+03 0.  0.
   -9000010    2    1    2    0  502  0.13434521230E+03 -0.16353703984E+03 -0.44030632495E+03  0.10643017315E+04  0.94555566539E+03 0.  0.
        -13    1    3    3    0    0  0.24355421014E+03  0.14870240719E+03  0.17075611764E+03  0.33254882658E+03  0.10566000000E+00 0.  1.
          4    1    3    3  501    0 -0.37789942244E+03  0.14834632654E+02 -0.73909234682E+03  0.83023221868E+03  0.00000000000E+00 0.  1.
         13    1    4    4    0    0 -0.22091211919E+03 -0.45153981213E+03 -0.15833502754E+03  0.52702975101E+03  0.10566000000E+00 0. -1.
         -4    1    4    4    0  502  0.35525733148E+03  0.28800277229E+03 -0.28197129741E+03  0.53727198046E+03  0.00000000000E+00 0. -1.
<mgrwt>
<rscale>  2 0.10028590E+04</rscale>
<asrwt>0</asrwt>
<pdfrwt beam="1">  1       21 0.93726174E-01 0.10144228E+04</pdfrwt>
<pdfrwt beam="2">  1       21 0.24890194E+00 0.10144228E+04</pdfrwt>
<totfact> 0.29076773E+01</totfact>
</mgrwt>
</event>
<event>
 8    1  0.5815007E-006  0.1031359E+04  0.7818608E-02  0.8748656E-01
         21   -1    0    0  503  502  0.00000000000E+00  0.00000000000E+00  0.46013671456E+03  0.46013671456E+03  0.00000000000E+00 0.  1.
         21   -1    0    0  501  503 -0.00000000000E+00 -0.00000000000E+00 -0.22973815392E+04  0.22973815392E+04  0.00000000000E+00 0.  1.
    9000010    2    1    2  501    0 -0.97740749331E+02  0.12603262439E+03 -0.10239443145E+04  0.14440650307E+04  0.10056959665E+04 0.  0.
   -9000010    2    1    2    0  502  0.97740749331E+02 -0.12603262439E+03 -0.81330051012E+03  0.13134532231E+04  0.10189524882E+04 0.  0.
        -13    1    3    3    0    0  0.41090384541E+03 -0.62727603426E+02 -0.20954125866E+03  0.46549357961E+03  0.10566000000E+00 0.  1.
          4    1    3    3  501    0 -0.50864459474E+03  0.18876022782E+03 -0.81440305589E+03  0.97857145105E+03  0.00000000000E+00 0.  1.
         13    1    4    4    0    0 -0.30584554641E+03 -0.37089277149E+03 -0.66121500809E+03  0.81750121974E+03  0.10566000000E+00 0. -1.
         -4    1    4    4    0  502  0.40358629574E+03  0.24486014709E+03 -0.15208550204E+03  0.49595200340E+03  0.00000000000E+00 0. -1.
<mgrwt>
<rscale>  2 0.10280697E+04</rscale>
<asrwt>0</asrwt>
<pdfrwt beam="1">  1       21 0.70790263E-01 0.10313591E+04</pdfrwt>
<pdfrwt beam="2">  1       21 0.35344332E+00 0.10313591E+04</pdfrwt>
<totfact> 0.10520464E+01</totfact>
</mgrwt>
</event>
<event>
 8    1  0.5815007E-006  0.1237180E+04  0.7818608E-02  0.8582666E-01
         21   -1    0    0  501  502  0.00000000000E+00  0.00000000000E+00  0.17830352854E+04  0.17830352854E+04  0.00000000000E+00 0. -1.
         21   -1    0    0  502  503 -0.00000000000E+00 -0.00000000000E+00 -0.85738448656E+03  0.85738448656E+03  0.00000000000E+00 0. -1.
   -9000010    2    1    2    0  503  0.69379909068E+03  0.14277960624E+03  0.61860814328E+03  0.13657084383E+04  0.99032333577E+03 0.  0.
    9000010    2    1    2  501    0 -0.69379909068E+03 -0.14277960624E+03  0.30704265560E+03  0.12747113337E+04  0.10143325873E+04 0.  0.
        -13    1    4    4    0    0 -0.45531077021E+03  0.39368693954E+03  0.33141030445E+03  0.68711724247E+03  0.10566000000E+00 0.  1.
          4    1    4    4  501    0 -0.23848832047E+03 -0.53646654577E+03 -0.24367648851E+02  0.58759409122E+03  0.00000000000E+00 0.  1.
         13    1    3    3    0    0  0.30097041479E+03 -0.42663717097E+03  0.31891380909E+03  0.61180756372E+03  0.10566000000E+00 0. -1.
         -4    1    3    3    0  503  0.39282867589E+03  0.56941677721E+03  0.29969433419E+03  0.75390087460E+03  0.00000000000E+00 0. -1.
<mgrwt>
<rscale>  2 0.12322486E+04</rscale>
<asrwt>0</asrwt>
<pdfrwt beam="1">  1       21 0.27431312E+00 0.12371798E+04</pdfrwt>
<pdfrwt beam="2">  1       21 0.13190531E+00 0.12371798E+04</pdfrwt>
<totfact> 0.71659409E+00</totfact>
</mgrwt>
</event>
<event>
 8    1  0.5815007E-006  0.1098784E+04  0.7818608E-02  0.8695241E-01
         21   -1    0    0  503  502  0.00000000000E+00  0.00000000000E+00  0.99142237285E+03  0.99142237285E+03  0.00000000000E+00 0.  1.
         21   -1    0    0  501  503 -0.00000000000E+00 -0.00000000000E+00 -0.11932951114E+04  0.11932951114E+04  0.00000000000E+00 0.  1.
    9000010    2    1    2  501    0 -0.16933376579E+03  0.42158029461E+03 -0.23402325830E+03  0.10854627825E+04  0.95763181747E+03 0.  0.
   -9000010    2    1    2    0  502  0.16933376579E+03 -0.42158029461E+03  0.32150519773E+02  0.10992547017E+04  0.10004615806E+04 0.  0.
        -13    1    3    3    0    0  0.14800302862E+03 -0.24630461057E+03  0.53131325214E+02  0.29222218696E+03  0.10566000000E+00 0.  1.
          4    1    3    3  501    0 -0.31733679441E+03  0.66788490518E+03 -0.28715458351E+03  0.79324059559E+03  0.00000000000E+00 0.  1.
         13    1    4    4    0    0 -0.22890020033E+03 -0.48011848727E+03 -0.26948333695E+03  0.59626365275E+03  0.10566000000E+00 0. -1.
         -4    1    4    4    0  502  0.39823396612E+03  0.58538192657E+02  0.30163385672E+03  0.50299104892E+03  0.00000000000E+00 0. -1.
<mgrwt>
<rscale>  2 0.10889406E+04</rscale>
<asrwt>0</asrwt>
<pdfrwt beam="1">  1       21 0.15252652E+00 0.10987844E+04</pdfrwt>
<pdfrwt beam="2">  1       21 0.18358386E+00 0.10987844E+04</pdfrwt>
<totfact> 0.22887217E+01</totfact>
</mgrwt>
</event>
<event>
 8    1  0.5815007E-006  0.1041730E+04  0.7818608E-02  0.8745275E-01
         21   -1    0    0  503  502  0.00000000000E+00  0.00000000000E+00  0.14604064333E+04  0.14604064333E+04  0.00000000000E+00 0. -1.
         21   -1    0    0  501  503 -0.00000000000E+00 -0.00000000000E+00 -0.71542295619E+03  0.71542295619E+03  0.00000000000E+00 0. -1.
    9000010    2    1    2  501    0  0.69925273126E+02 -0.11774838106E+03  0.37016630585E+03  0.10687203975E+04  0.99316965772E+03 0.  0.
   -9000010    2    1    2    0  502 -0.69925273126E+02  0.11774838106E+03  0.37481717127E+03  0.11071089920E+04  0.10326897807E+04 0.  0.
        -13    1    3    3    0    0 -0.80408881161E+02 -0.25512401825E+03  0.66134448149E+03  0.71339357105E+03  0.10566000000E+00 0.  1.
          4    1    3    3  501    0  0.15033415429E+03  0.13737563719E+03 -0.29117817564E+03  0.35532682647E+03  0.00000000000E+00 0.  1.
         13    1    4    4    0    0  0.43567750915E+03 -0.14956256532E+03  0.94661969113E+02  0.47026030290E+03  0.10566000000E+00 0. -1.
         -4    1    4    4    0  502 -0.50560278227E+03  0.26731094638E+03  0.28015520215E+03  0.63684868909E+03  0.00000000000E+00 0. -1.
<mgrwt>
<rscale>  2 0.10317984E+04</rscale>
<asrwt>0</asrwt>
<pdfrwt beam="1">  1       21 0.22467791E+00 0.10417305E+04</pdfrwt>
<pdfrwt beam="2">  1       21 0.11006507E+00 0.10417305E+04</pdfrwt>
<totfact> 0.28581262E+01</totfact>
</mgrwt>
</event>
<event>
 8    1  0.5815007E-006  0.1072549E+04  0.7818608E-02  0.8716042E-01
         21   -1    0    0  503  502  0.00000000000E+00  0.00000000000E+00  0.10292703570E+04  0.10292703570E+04  0.00000000000E+00 0.  1.
         21   -1    0    0  501  503 -0.00000000000E+00 -0.00000000000E+00 -0.11226587307E+04  0.11226587307E+04  0.00000000000E+00 0.  1.
    9000010    2    1    2  501    0 -0.96757048156E+02  0.19803899634E+03 -0.24140963940E+03  0.10692145800E+04  0.10180175999E+04 0.  0.
   -9000010    2    1    2    0  502  0.96757048156E+02 -0.19803899634E+03  0.14802126574E+03  0.10827145077E+04  0.10496566294E+04 0.  0.
        -13    1    3    3    0    0 -0.26697166251E+03  0.34659168459E+03  0.26723455463E+03  0.51265386252E+03  0.10566000000E+00 0.  1.
          4    1    3    3  501    0  0.17021461435E+03 -0.14855268825E+03 -0.50864419402E+03  0.55656071748E+03  0.00000000000E+00 0.  1.
         13    1    4    4    0    0  0.21109172853E+03 -0.60727106374E+03  0.13871921903E+03  0.65770882281E+03  0.10566000000E+00 0. -1.
         -4    1    4    4    0  502 -0.11433468038E+03  0.40923206740E+03  0.93020467153E+01  0.42500568490E+03  0.00000000000E+00 0. -1.
<mgrwt>
<rscale>  2 0.10647276E+04</rscale>
<asrwt>0</asrwt>
<pdfrwt beam="1">  1       21 0.15834929E+00 0.10725486E+04</pdfrwt>
<pdfrwt beam="2">  1       21 0.17271673E+00 0.10725486E+04</pdfrwt>
<totfact> 0.25133834E+01</totfact>
</mgrwt>
</event>
<event>
 8    1  0.5815007E-006  0.1309201E+04  0.7818608E-02  0.8530689E-01
         21   -1    0    0  503  502  0.00000000000E+00  0.00000000000E+00  0.12415032588E+04  0.12415032588E+04  0.00000000000E+00 0.  1.
         21   -1    0    0  501  503 -0.00000000000E+00 -0.00000000000E+00 -0.13722829636E+04  0.13722829636E+04  0.00000000000E+00 0.  1.
    9000010    2    1    2  501    0  0.53869632230E+03 -0.65669760317E+03 -0.14195990973E+03  0.13045372693E+04  0.97990785351E+03 0.  0.
   -9000010    2    1    2    0  502 -0.53869632230E+03  0.65669760317E+03  0.11180204958E+02  0.13092489531E+04  0.99627423666E+03 0.  0.
        -13    1    3    3    0    0  0.18126919499E+03 -0.73556441350E+03 -0.40001131113E+03  0.85669281989E+03  0.10566000000E+00 0.  1.
          4    1    3    3  501    0  0.35742712731E+03  0.78866810329E+02  0.25805140139E+03  0.44784444941E+03  0.00000000000E+00 0.  1.
         13    1    4    4    0    0 -0.69526588686E+03  0.40439570865E+03 -0.31892748931E+03  0.86524291225E+03  0.10566000000E+00 0. -1.
         -4    1    4    4    0  502  0.15656956456E+03  0.25230189452E+03  0.33010769426E+03  0.44400604088E+03  0.00000000000E+00 0. -1.
<mgrwt>
<rscale>  2 0.13060874E+04</rscale>
<asrwt>0</asrwt>
<pdfrwt beam="1">  1       21 0.19100050E+00 0.13092012E+04</pdfrwt>
<pdfrwt beam="2">  1       21 0.21112045E+00 0.13092012E+04</pdfrwt>
<totfact> 0.63372025E+00</totfact>
</mgrwt>
</event>
<event>
 8    1  0.5815007E-006  0.1118703E+04  0.7818608E-02  0.8679144E-01
         21   -1    0    0  501  502  0.00000000000E+00  0.00000000000E+00  0.11953933437E+04  0.11953933437E+04  0.00000000000E+00 0. -1.
         21   -1    0    0  502  503 -0.00000000000E+00 -0.00000000000E+00 -0.12206831386E+04  0.12206831386E+04  0.00000000000E+00 0.  1.
   -9000010    2    1    2    0  503 -0.27082585461E+03 -0.43103777807E+03 -0.51625647997E+03  0.11943786119E+04  0.94914661971E+03 0.  0.
    9000010    2    1    2  501    0  0.27082585461E+03  0.43103777807E+03  0.49096668507E+03  0.12216978705E+04  0.99617126600E+03 0.  0.
        -13    1    4    4    0    0  0.34524186828E+03  0.65087330086E+03  0.68842638164E+02  0.73997791952E+03  0.10566000000E+00 0.  1.
          4    1    4    4  501    0 -0.74416013664E+02 -0.21983552279E+03  0.42212404691E+03  0.48171995095E+03  0.00000000000E+00 0.  1.
         13    1    3    3    0    0  0.23236955014E+03  0.15648448268E+03 -0.32530377470E+02  0.28203056178E+03  0.10566000000E+00 0. -1.
         -4    1    3    3    0  503 -0.50319540476E+03 -0.58752226076E+03 -0.48372610250E+03  0.91234805009E+03  0.00000000000E+00 0. -1.
<mgrwt>
<rscale>  2 0.11081394E+04</rscale>
<asrwt>0</asrwt>
<pdfrwt beam="1">  1       21 0.18390667E+00 0.11187034E+04</pdfrwt>
<pdfrwt beam="2">  1       21 0.18779741E+00 0.11187034E+04</pdfrwt>
<totfact> 0.11447552E+01</totfact>
</mgrwt>
</event>
<event>
 8    1  0.5815007E-006  0.1066367E+04  0.7818608E-02  0.8723093E-01
         21   -1    0    0  501  502  0.00000000000E+00  0.00000000000E+00  0.10328370475E+04  0.10328370475E+04  0.00000000000E+00 0.  1.
         21   -1    0    0  502  503 -0.00000000000E+00 -0.00000000000E+00 -0.10619376792E+04  0.10619376792E+04  0.00000000000E+00 0.  1.
   -9000010    2    1    2    0  503 -0.27969561750E+03  0.69766056422E+00 -0.45121331666E+01  0.10663767498E+04  0.10290329869E+04 0.  0.
    9000010    2    1    2  501    0  0.27969561750E+03 -0.69766056422E+00 -0.24588498556E+02  0.10283979768E+04  0.98932688193E+03 0.  0.
        -13    1    4    4    0    0  0.35955651412E+03  0.39129565773E+03 -0.22959283365E+03  0.57888345894E+03  0.10566000000E+00 0.  1.
          4    1    4    4  501    0 -0.79860896624E+02 -0.39199331829E+03  0.20500433509E+03  0.44951451790E+03  0.00000000000E+00 0.  1.
         13    1    3    3    0    0  0.39110526230E+03 -0.21311605683E+02  0.40106137302E+02  0.39373344301E+03  0.10566000000E+00 0. -1.
         -4    1    3    3    0  503 -0.67080087980E+03  0.22009266247E+02 -0.44618270469E+02  0.67264330681E+03  0.00000000000E+00 0. -1.
<mgrwt>
<rscale>  2 0.10566699E+04</rscale>
<asrwt>0</asrwt>
<pdfrwt beam="1">  1       21 0.15889801E+00 0.10663672E+04</pdfrwt>
<pdfrwt beam="2">  1       21 0.16337503E+00 0.10663672E+04</pdfrwt>
<totfact> 0.29842450E+01</totfact>
</mgrwt>
</event>
<event>
 8    1  0.5815007E-006  0.1082620E+04  0.7818608E-02  0.8701194E-01
         21   -1    0    0  503  502  0.00000000000E+00  0.00000000000E+00  0.15948523181E+04  0.15948523181E+04  0.00000000000E+00 0.  1.
         21   -1    0    0  501  503 -0.00000000000E+00 -0.00000000000E+00 -0.77559442482E+03  0.77559442482E+03  0.00000000000E+00 0.  1.
    9000010    2    1    2  501    0  0.88522401301E+02 -0.38795082351E+03  0.13162460884E+03  0.10879081776E+04  0.10039308284E+04 0.  0.
   -9000010    2    1    2    0  502 -0.88522401301E+02  0.38795082351E+03  0.68763328446E+03  0.12825385654E+04  0.10068384085E+04 0.  0.
        -13    1    3    3    0    0  0.38633499506E+03 -0.42816641968E+03 -0.22722216113E+03  0.61984766921E+03  0.10566000000E+00 0.  1.
          4    1    3    3  501    0 -0.29781259376E+03  0.40215596164E+02  0.35884676997E+03  0.46806050837E+03  0.00000000000E+00 0.  1.
         13    1    4    4    0    0 -0.17998721408E+03  0.10268517693E+03  0.89469126758E+03  0.91837471560E+03  0.10566000000E+00 0. -1.
         -4    1    4    4    0  502  0.91464812780E+02  0.28526564658E+03 -0.20705798312E+03  0.36416384976E+03  0.00000000000E+00 0. -1.
<mgrwt>
<rscale>  2 0.10819433E+04</rscale>
<asrwt>0</asrwt>
<pdfrwt beam="1">  1       21 0.24536189E+00 0.10826198E+04</pdfrwt>
<pdfrwt beam="2">  1       21 0.11932222E+00 0.10826198E+04</pdfrwt>
<totfact> 0.15952040E+01</totfact>
</mgrwt>
</event>
<event>
 8    1  0.5815007E-006  0.1186573E+04  0.7818608E-02  0.8651674E-01
         21   -1    0    0  501  502  0.00000000000E+00  0.00000000000E+00  0.16850281622E+04  0.16850281622E+04  0.00000000000E+00 0.  1.
         21   -1    0    0  502  503 -0.00000000000E+00 -0.00000000000E+00 -0.92590834233E+03  0.92590834233E+03  0.00000000000E+00 0. -1.
   -9000010    2    1    2    0  503  0.25328250054E+03  0.57789594793E+03 -0.25609580269E+03  0.10493286614E+04  0.79836697561E+03 0.  0.
    9000010    2    1    2  501    0 -0.25328250054E+03 -0.57789594793E+03  0.10152156225E+04  0.15616078431E+04  0.10049082265E+04 0.  0.
        -13    1    4    4    0    0  0.28225076604E+03 -0.58143053402E+03  0.62400768404E+03  0.89839443549E+03  0.10566000000E+00 0.  1.
          4    1    4    4  501    0 -0.53553326658E+03  0.35345860879E+01  0.39120793849E+03  0.66321340762E+03  0.00000000000E+00 0.  1.
         13    1    3    3    0    0  0.39153564528E+03  0.71208204923E+03 -0.14060578186E+03  0.82470055379E+03  0.10566000000E+00 0. -1.
         -4    1    3    3    0  503 -0.13825314474E+03 -0.13418610130E+03 -0.11549002084E+03  0.22462810760E+03  0.00000000000E+00 0. -1.
<mgrwt>
<rscale>  2 0.11418656E+04</rscale>
<asrwt>0</asrwt>
<pdfrwt beam="1">  1       21 0.25923510E+00 0.11865733E+04</pdfrwt>
<pdfrwt beam="2">  1       21 0.14244744E+00 0.11865733E+04</pdfrwt>
<totfact> 0.73994397E+00</totfact>
</mgrwt>
</event>
<event>
 8    1  0.5815007E-006  0.1005550E+04  0.7818608E-02  0.8780145E-01
         21   -1    0    0  501  502  0.00000000000E+00  0.00000000000E+00  0.28164010317E+03  0.28164010317E+03  0.00000000000E+00 0. -1.
         21   -1    0    0  502  503 -0.00000000000E+00 -0.00000000000E+00 -0.34315080284E+04  0.34315080284E+04  0.00000000000E+00 0. -1.
   -9000010    2    1    2    0  503  0.24175757639E+02  0.12072553839E+03 -0.16241229286E+04  0.19102108387E+04  0.99798348596E+03 0.  0.
    9000010    2    1    2  501    0 -0.24175757639E+02 -0.12072553839E+03 -0.15257449966E+04  0.18029372928E+04  0.95264157180E+03 0.  0.
        -13    1    4    4    0    0  0.26987570122E+03  0.14463956141E+03 -0.13230118424E+04  0.13579815327E+04  0.10566000000E+00 0.  1.
          4    1    4    4  501    0 -0.29405145886E+03 -0.26536509980E+03 -0.20273315417E+03  0.44495576011E+03  0.00000000000E+00 0.  1.
         13    1    3    3    0    0  0.12273651389E+03 -0.41527981816E+03 -0.94466584809E+03  0.10391896626E+04  0.10566000000E+00 0. -1.
         -4    1    3    3    0  503 -0.98560756251E+02  0.53600535655E+03 -0.67945708051E+03  0.87102117608E+03  0.00000000000E+00 0. -1.
<mgrwt>
<rscale>  2 0.99410976E+03</rscale>
<asrwt>0</asrwt>
<pdfrwt beam="1">  1       21 0.43329249E-01 0.10055497E+04</pdfrwt>
<pdfrwt beam="2">  1       21 0.52792428E+00 0.10055497E+04</pdfrwt>
<totfact> 0.19539995E+00</totfact>
</mgrwt>
</event>
<event>
 8    1  0.5815007E-006  0.1086247E+04  0.7818608E-02  0.8701889E-01
         21   -1    0    0  501  502  0.00000000000E+00  0.00000000000E+00  0.21963483961E+04  0.21963483961E+04  0.00000000000E+00 0. -1.
         21   -1    0    0  502  503 -0.00000000000E+00 -0.00000000000E+00 -0.58933613951E+03  0.58933613951E+03  0.00000000000E+00 0.  1.
   -9000010    2    1    2    0  503  0.19365881438E+03  0.38773808787E+03  0.35812092385E+03  0.11437583707E+04  0.99603617064E+03 0.  0.
    9000010    2    1    2  501    0 -0.19365881438E+03 -0.38773808787E+03  0.12488913328E+04  0.16419261649E+04  0.97383130415E+03 0.  0.
        -13    1    4    4    0    0  0.34486791653E+03 -0.25659839946E+03  0.87040265788E+03  0.97076125616E+03  0.10566000000E+00 0.  1.
          4    1    4    4  501    0 -0.53852673091E+03 -0.13113968841E+03  0.37848867488E+03  0.67116490879E+03  0.00000000000E+00 0.  1.
         13    1    3    3    0    0  0.11784235789E+03 -0.20809776490E+03  0.47504353106E+03  0.53184383858E+03  0.10566000000E+00 0. -1.
         -4    1    3    3    0  503  0.75816456488E+02  0.59583585277E+03 -0.11692260721E+03  0.61191453210E+03  0.00000000000E+00 0. -1.
<mgrwt>
<rscale>  2 0.10811300E+04</rscale>
<asrwt>0</asrwt>
<pdfrwt beam="1">  1       21 0.33789975E+00 0.10862470E+04</pdfrwt>
<pdfrwt beam="2">  1       21 0.90667100E-01 0.10862470E+04</pdfrwt>
<totfact> 0.72642833E+00</totfact>
</mgrwt>
</event>
<event>
 8    1  0.5815007E-006  0.1103916E+04  0.7818608E-02  0.8687601E-01
         21   -1    0    0  503  502  0.00000000000E+00  0.00000000000E+00  0.10132096477E+04  0.10132096477E+04  0.00000000000E+00 0. -1.
         21   -1    0    0  501  503 -0.00000000000E+00 -0.00000000000E+00 -0.16396676717E+04  0.16396676717E+04  0.00000000000E+00 0. -1.
    9000010    2    1    2  501    0  0.40801948252E+03  0.28372127584E+02 -0.10199804331E+04  0.15029939678E+04  0.10253516020E+04 0.  0.
   -9000010    2    1    2    0  502 -0.40801948252E+03 -0.28372127584E+02  0.39352240912E+03  0.11498833516E+04  0.10000434791E+04 0.  0.
        -13    1    3    3    0    0 -0.12150367505E+03  0.31153551057E+03 -0.18021327034E+02  0.33487653962E+03  0.10566000000E+00 0.  1.
          4    1    3    3  501    0  0.52952315757E+03 -0.28316338299E+03 -0.10019591060E+04  0.11681174282E+04  0.00000000000E+00 0.  1.
         13    1    4    4    0    0 -0.47755312105E+03 -0.15458308585E+03 -0.19909958759E+03  0.53999404700E+03  0.10566000000E+00 0. -1.
         -4    1    4    4    0  502  0.69533638534E+02  0.12621095827E+03  0.59262199671E+03  0.60988930459E+03  0.00000000000E+00 0. -1.
<mgrwt>
<rscale>  2 0.10980022E+04</rscale>
<asrwt>0</asrwt>
<pdfrwt beam="1">  1       21 0.15587841E+00 0.11039161E+04</pdfrwt>
<pdfrwt beam="2">  1       21 0.25225656E+00 0.11039161E+04</pdfrwt>
<totfact> 0.64166366E+00</totfact>
</mgrwt>
</event>
<event>
 8    1  0.5815007E-006  0.1057866E+04  0.7818608E-02  0.8723314E-01
         21   -1    0    0  501  502  0.00000000000E+00  0.00000000000E+00  0.98637139351E+03  0.98637139351E+03  0.00000000000E+00 0. -1.
         21   -1    0    0  502  503 -0.00000000000E+00 -0.00000000000E+00 -0.11323638973E+04  0.11323638973E+04  0.00000000000E+00 0. -1.
   -9000010    2    1    2    0  503 -0.29088442802E+03  0.14328169270E+03 -0.13583254823E+03  0.10608201585E+04  0.10008723862E+04 0.  0.
    9000010    2    1    2  501    0  0.29088442802E+03 -0.14328169270E+03 -0.10159955539E+02  0.10579151323E+04  0.10069447892E+04 0.  0.
        -13    1    4    4    0    0  0.60808536696E+03 -0.32757473182E+03 -0.18817748604E+02  0.69096102441E+03  0.10566000000E+00 0.  1.
          4    1    4    4  501    0 -0.31720093893E+03  0.18429303911E+03  0.86577930643E+01  0.36695410790E+03  0.00000000000E+00 0.  1.
         13    1    3    3    0    0  0.34146486885E+03  0.23274130346E+03 -0.63534266350E+02  0.41809494754E+03  0.10566000000E+00 0. -1.
         -4    1    3    3    0  503 -0.63234929687E+03 -0.89459610759E+02 -0.72298281880E+02  0.64272521094E+03  0.00000000000E+00 0. -1.
<mgrwt>
<rscale>  2 0.10564188E+04</rscale>
<asrwt>0</asrwt>
<pdfrwt beam="1">  1       21 0.15174945E+00 0.10578663E+04</pdfrwt>
<pdfrwt beam="2">  1       21 0.17420983E+00 0.10578663E+04</pdfrwt>
<totfact> 0.27995066E+01</totfact>
</mgrwt>
</event>
<event>
 8    1  0.5815007E-006  0.1141233E+04  0.7818608E-02  0.8654450E-01
         21   -1    0    0  503  502  0.00000000000E+00  0.00000000000E+00  0.90848379330E+03  0.90848379330E+03  0.00000000000E+00 0.  1.
         21   -1    0    0  501  503 -0.00000000000E+00 -0.00000000000E+00 -0.16481153801E+04  0.16481153801E+04  0.00000000000E+00 0.  1.
    9000010    2    1    2  501    0 -0.53471177364E+03 -0.11854761072E+03 -0.84435452467E+03  0.14105712990E+04  0.98833527172E+03 0.  0.
   -9000010    2    1    2    0  502  0.53471177364E+03  0.11854761072E+03  0.10472293790E+03  0.11460278744E+04  0.10012206441E+04 0.  0.
        -13    1    3    3    0    0 -0.77805997576E+03  0.60140265329E+02 -0.40980439928E+03  0.88143850280E+03  0.10566000000E+00 0.  1.
          4    1    3    3  501    0  0.24334820212E+03 -0.17868787605E+03 -0.43455012539E+03  0.52913279619E+03  0.00000000000E+00 0.  1.
         13    1    4    4    0    0 -0.83629023492E+02  0.28883147331E+03 -0.26922962477E+03  0.40361124311E+03  0.10566000000E+00 0. -1.
         -4    1    4    4    0  502  0.61834079714E+03 -0.17028386259E+03  0.37395256267E+03  0.74241663127E+03  0.00000000000E+00 0. -1.
<mgrwt>
<rscale>  2 0.11384007E+04</rscale>
<asrwt>0</asrwt>
<pdfrwt beam="1">  1       21 0.13976674E+00 0.11412331E+04</pdfrwt>
<pdfrwt beam="2">  1       21 0.25355621E+00 0.11412331E+04</pdfrwt>
<totfact> 0.86954227E+00</totfact>
</mgrwt>
</event>
<event>
 8    1  0.5815007E-006  0.1124721E+04  0.7818608E-02  0.8666872E-01
         21   -1    0    0  503  502  0.00000000000E+00  0.00000000000E+00  0.95377243416E+03  0.95377243416E+03  0.00000000000E+00 0. -1.
         21   -1    0    0  501  503 -0.00000000000E+00 -0.00000000000E+00 -0.13505354138E+04  0.13505354138E+04  0.00000000000E+00 0. -1.
    9000010    2    1    2  501    0 -0.15733507562E+02 -0.50352793614E+03 -0.21446227830E+02  0.11249255707E+04  0.10055892169E+04 0.  0.
   -9000010    2    1    2    0  502  0.15733507562E+02  0.50352793614E+03 -0.37531675181E+03  0.11793822773E+04  0.99814426111E+03 0.  0.
        -13    1    3    3    0    0 -0.37688927505E+03 -0.61761027747E+03 -0.12038220329E+03  0.73347110817E+03  0.10566000000E+00 0.  1.
          4    1    3    3  501    0  0.36115576748E+03  0.11408234133E+03  0.98935975462E+02  0.39145446253E+03  0.00000000000E+00 0.  1.
         13    1    4    4    0    0  0.19582637091E+03  0.73426832709E+03 -0.44207534702E+03  0.87916356118E+03  0.10566000000E+00 0. -1.
         -4    1    4    4    0  502 -0.18009286335E+03 -0.23074039095E+03  0.66758595209E+02  0.30021871607E+03  0.00000000000E+00 0. -1.
<mgrwt>
<rscale>  2 0.11230546E+04</rscale>
<asrwt>0</asrwt>
<pdfrwt beam="1">  1       21 0.14673422E+00 0.11247211E+04</pdfrwt>
<pdfrwt beam="2">  1       21 0.20777468E+00 0.11247211E+04</pdfrwt>
<totfact> 0.16527270E+01</totfact>
</mgrwt>
</event>
<event>
 8    1  0.5815007E-006  0.1084159E+04  0.7818608E-02  0.8703730E-01
         21   -1    0    0  503  502  0.00000000000E+00  0.00000000000E+00  0.44647783068E+03  0.44647783068E+03  0.00000000000E+00 0. -1.
         21   -1    0    0  501  503 -0.00000000000E+00 -0.00000000000E+00 -0.25952786222E+04  0.25952786222E+04  0.00000000000E+00 0. -1.
    9000010    2    1    2  501    0 -0.36999347524E+03  0.18503895890E+03 -0.97957303677E+03  0.14611519423E+04  0.10021312669E+04 0.  0.
   -9000010    2    1    2    0  502  0.36999347524E+03 -0.18503895890E+03 -0.11692277548E+04  0.15806045106E+04  0.97983799091E+03 0.  0.
        -13    1    3    3    0    0  0.28498144820E+03  0.19461639020E+03 -0.63083997757E+03  0.71906123078E+03  0.10566000000E+00 0.  1.
          4    1    3    3  501    0 -0.65497492343E+03 -0.95774312939E+01 -0.34873305920E+03  0.74209071150E+03  0.00000000000E+00 0.  1.
         13    1    4    4    0    0  0.29621741216E+03 -0.25267817501E+01  0.87241002930E+02  0.30880761592E+03  0.10566000000E+00 0. -1.
         -4    1    4    4    0  502  0.73776063077E+02 -0.18251217715E+03 -0.12564687577E+04  0.12717968947E+04  0.00000000000E+00 0. -1.
<mgrwt>
<rscale>  2 0.10789793E+04</rscale>
<asrwt>0</asrwt>
<pdfrwt beam="1">  1       21 0.68688897E-01 0.10841594E+04</pdfrwt>
<pdfrwt beam="2">  1       21 0.39927363E+00 0.10841594E+04</pdfrwt>
<totfact> 0.53357050E+00</totfact>
</mgrwt>
</event>
<event>
 8    1  0.5815007E-006  0.1096770E+04  0.7818608E-02  0.8688763E-01
         21   -1    0    0  501  502  0.00000000000E+00  0.00000000000E+00  0.57326989459E+03  0.57326989459E+03  0.00000000000E+00 0.  1.
         21   -1    0    0  502  503 -0.00000000000E+00 -0.00000000000E+00 -0.20973861200E+04  0.20973861200E+04  0.00000000000E+00 0.  1.
   -9000010    2    1    2    0  503 -0.39579070799E+03 -0.31680393861E+02 -0.74786785277E+03  0.13269796255E+04  0.10217214246E+04 0.  0.
    9000010    2    1    2  501    0  0.39579070799E+03  0.31680393861E+02 -0.77624837263E+03  0.13436763891E+04  0.10223750636E+04 0.  0.
        -13    1    4    4    0    0  0.57066415749E+03  0.14929573964E+03 -0.55184458828E+02  0.59244589135E+03  0.10566000000E+00 0.  1.
          4    1    4    4  501    0 -0.17487344950E+03 -0.11761534578E+03 -0.72106391380E+03  0.75123049771E+03  0.00000000000E+00 0.  1.
         13    1    3    3    0    0 -0.30951988112E+03 -0.45043485346E+03 -0.71250049059E+03  0.89797053085E+03  0.10566000000E+00 0. -1.
         -4    1    3    3    0  503 -0.86270826872E+02  0.41875445959E+03 -0.35367362184E+02  0.42900909467E+03  0.00000000000E+00 0. -1.
<mgrwt>
<rscale>  2 0.10966178E+04</rscale>
<asrwt>0</asrwt>
<pdfrwt beam="1">  1       21 0.88195369E-01 0.10967701E+04</pdfrwt>
<pdfrwt beam="2">  1       21 0.32267479E+00 0.10967701E+04</pdfrwt>
<totfact> 0.99545755E+00</totfact>
</mgrwt>
</event>
<event>
 8    1  0.5815007E-006  0.1021043E+04  0.7818608E-02  0.8758274E-01
         21   -1    0    0  501  502  0.00000000000E+00  0.00000000000E+00  0.95499408584E+03  0.95499408584E+03  0.00000000000E+00 0. -1.
         21   -1    0    0  502  503 -0.00000000000E+00 -0.00000000000E+00 -0.10821245451E+04  0.10821245451E+04  0.00000000000E+00 0. -1.
   -9000010    2    1    2    0  503 -0.24473454713E+03  0.36154457943E+02  0.79549115398E+01  0.10071785140E+04  0.97629049729E+03 0.  0.
    9000010    2    1    2  501    0  0.24473454713E+03 -0.36154457943E+02 -0.13508537081E+03  0.10299401169E+04  0.99061922234E+03 0.  0.
        -13    1    4    4    0    0  0.55865193169E+03  0.86103895795E+01 -0.33845298913E+03  0.65323545266E+03  0.10566000000E+00 0.  1.
          4    1    4    4  501    0 -0.31391738457E+03 -0.44764847523E+02  0.20336761832E+03  0.37670466428E+03  0.00000000000E+00 0.  1.
         13    1    3    3    0    0  0.33447098166E+03  0.93573009276E+02 -0.18560051478E+03  0.39379475350E+03  0.10566000000E+00 0. -1.
         -4    1    3    3    0  503 -0.57920552878E+03 -0.57418551333E+02  0.19355542632E+03  0.61338376052E+03  0.00000000000E+00 0. -1.
<mgrwt>
<rscale>  2 0.10175511E+04</rscale>
<asrwt>0</asrwt>
<pdfrwt beam="1">  1       21 0.14692217E+00 0.10210429E+04</pdfrwt>
<pdfrwt beam="2">  1       21 0.16648070E+00 0.10210429E+04</pdfrwt>
<totfact> 0.36186472E+01</totfact>
</mgrwt>
</event>
<event>
 8    1  0.5815007E-006  0.1356541E+04  0.7818608E-02  0.8510440E-01
         21   -1    0    0  501  502  0.00000000000E+00  0.00000000000E+00  0.24077428991E+04  0.24077428991E+04  0.00000000000E+00 0.  1.
         21   -1    0    0  502  503 -0.00000000000E+00 -0.00000000000E+00 -0.72103385365E+03  0.72103385365E+03  0.00000000000E+00 0.  1.
   -9000010    2    1    2    0  503 -0.62622013345E+03  0.48732871929E+03  0.91807249578E+03  0.16380053791E+04  0.11002561421E+04 0.  0.
    9000010    2    1    2  501    0  0.62622013345E+03 -0.48732871929E+03  0.76863654970E+03  0.14907713737E+04  0.10009776256E+04 0.  0.
        -13    1    4    4    0    0 -0.53519514337E+02 -0.35690747918E+03  0.70962107236E+03  0.79612145091E+03  0.10566000000E+00 0.  1.
          4    1    4    4  501    0  0.67973964778E+03 -0.13042124011E+03  0.59015477337E+02  0.69464992277E+03  0.00000000000E+00 0.  1.
         13    1    3    3    0    0 -0.39254215976E+03 -0.11707864913E+03 -0.10873812372E+03  0.42381688025E+03  0.10566000000E+00 0. -1.
         -4    1    3    3    0  503 -0.23367797368E+03  0.60440736842E+03  0.10268106195E+04  0.12141884988E+04  0.00000000000E+00 0. -1.
<mgrwt>
<rscale>  2 0.13362921E+04</rscale>
<asrwt>0</asrwt>
<pdfrwt beam="1">  1       21 0.37042198E+00 0.13565414E+04</pdfrwt>
<pdfrwt beam="2">  1       21 0.11092829E+00 0.13565414E+04</pdfrwt>
<totfact> 0.23966777E+00</totfact>
</mgrwt>
</event>
<event>
 8    1  0.5815007E-006  0.1204354E+04  0.7818608E-02  0.8611292E-01
         21   -1    0    0  503  502  0.00000000000E+00  0.00000000000E+00  0.21209189417E+04  0.21209189417E+04  0.00000000000E+00 0.  1.
         21   -1    0    0  501  503 -0.00000000000E+00 -0.00000000000E+00 -0.72640748105E+03  0.72640748105E+03  0.00000000000E+00 0.  1.
    9000010    2    1    2  501    0 -0.43343131034E+03  0.51406337759E+03  0.11154521238E+04  0.16110649519E+04  0.94824732110E+03 0.  0.
   -9000010    2    1    2    0  502  0.43343131034E+03 -0.51406337759E+03  0.27905933684E+03  0.12362614708E+04  0.99917188398E+03 0.  0.
        -13    1    3    3    0    0 -0.40492824382E+03 -0.14881479235E+03  0.71800338364E+03  0.83764049278E+03  0.10566000000E+00 0.  1.
          4    1    3    3  501    0 -0.28503066516E+02  0.66287816994E+03  0.39744874015E+03  0.77342445916E+03  0.00000000000E+00 0.  1.
         13    1    4    4    0    0  0.20774004583E+03  0.28923804400E+03  0.17050909030E+03  0.39482646033E+03  0.10566000000E+00 0. -1.
         -4    1    4    4    0  502  0.22569126451E+03 -0.80330142159E+03  0.10855024654E+03  0.84143501046E+03  0.00000000000E+00 0. -1.
<mgrwt>
<rscale>  2 0.11937391E+04</rscale>
<asrwt>0</asrwt>
<pdfrwt beam="1">  1       21 0.32629522E+00 0.12043539E+04</pdfrwt>
<pdfrwt beam="2">  1       21 0.11175500E+00 0.12043539E+04</pdfrwt>
<totfact> 0.49333847E+00</totfact>
</mgrwt>
</event>
<event>
 8    1  0.5815007E-006  0.1253651E+04  0.7818608E-02  0.8569576E-01
         21   -1    0    0  501  502  0.00000000000E+00  0.00000000000E+00  0.83070594140E+03  0.83070594140E+03  0.00000000000E+00 0.  1.
         21   -1    0    0  502  503 -0.00000000000E+00 -0.00000000000E+00 -0.22030630663E+04  0.22030630663E+04  0.00000000000E+00 0.  1.
   -9000010    2    1    2    0  503 -0.29012067050E+03  0.68111247888E+03 -0.12709602255E+04  0.17760240249E+04  0.99540807207E+03 0.  0.
    9000010    2    1    2  501    0  0.29012067050E+03 -0.68111247888E+03 -0.10139689949E+03  0.12577449829E+04  0.10117098884E+04 0.  0.
        -13    1    4    4    0    0  0.54034342795E+03 -0.39039665090E+03  0.27428591741E+03  0.72084210533E+03  0.10566000000E+00 0.  1.
          4    1    4    4  501    0 -0.25022275745E+03 -0.29071582797E+03 -0.37568281691E+03  0.53690287753E+03  0.00000000000E+00 0.  1.
         13    1    3    3    0    0 -0.44201988232E+03  0.70447717155E+02 -0.99078267149E+03  0.10871958290E+04  0.10566000000E+00 0. -1.
         -4    1    3    3    0  503  0.15189921182E+03  0.61066476172E+03 -0.28017755397E+03  0.68882819593E+03  0.00000000000E+00 0. -1.
<mgrwt>
<rscale>  2 0.12503586E+04</rscale>
<asrwt>0</asrwt>
<pdfrwt beam="1">  1       21 0.12780091E+00 0.12536511E+04</pdfrwt>
<pdfrwt beam="2">  1       21 0.33893278E+00 0.12536511E+04</pdfrwt>
<totfact> 0.27331100E+00</totfact>
</mgrwt>
</event>
<event>
 8    1  0.5815007E-006  0.1126578E+04  0.7818608E-02  0.8664383E-01
         21   -1    0    0  503  502  0.00000000000E+00  0.00000000000E+00  0.65328770304E+03  0.65328770304E+03  0.00000000000E+00 0.  1.
         21   -1    0    0  501  503 -0.00000000000E+00 -0.00000000000E+00 -0.21720966697E+04  0.21720966697E+04  0.00000000000E+00 0.  1.
    9000010    2    1    2  501    0 -0.50876414000E+03 -0.11029943432E+03 -0.12211039672E+04  0.16601348642E+04  0.99696838127E+03 0.  0.
   -9000010    2    1    2    0  502  0.50876414000E+03  0.11029943432E+03 -0.29770499949E+03  0.11652495086E+04  0.99908519914E+03 0.  0.
        -13    1    3    3    0    0 -0.42493591615E+03 -0.20766319436E+03 -0.13782552780E+04  0.14571486396E+04  0.10566000000E+00 0.  1.
          4    1    3    3  501    0 -0.83828223850E+02  0.97363760040E+02  0.15715131086E+03  0.20298622463E+03  0.00000000000E+00 0.  1.
         13    1    4    4    0    0  0.36878577955E+03 -0.54348472874E+02  0.33219447063E+03  0.49930940826E+03  0.10566000000E+00 0. -1.
         -4    1    4    4    0  502  0.13997836046E+03  0.16464790720E+03 -0.62989947012E+03  0.66594010031E+03  0.00000000000E+00 0. -1.
<mgrwt>
<rscale>  2 0.11261086E+04</rscale>
<asrwt>0</asrwt>
<pdfrwt beam="1">  1       21 0.10050580E+00 0.11265781E+04</pdfrwt>
<pdfrwt beam="2">  1       21 0.33416872E+00 0.11265781E+04</pdfrwt>
<totfact> 0.58649913E+00</totfact>
</mgrwt>
</event>
<event>
 8    1  0.5815007E-006  0.1113694E+04  0.7818608E-02  0.8678160E-01
         21   -1    0    0  503  502  0.00000000000E+00  0.00000000000E+00  0.11565236130E+04  0.11565236130E+04  0.00000000000E+00 0. -1.
         21   -1    0    0  501  503 -0.00000000000E+00 -0.00000000000E+00 -0.10557948740E+04  0.10557948740E+04  0.00000000000E+00 0. -1.
    9000010    2    1    2  501    0  0.49006432670E+03  0.48773438462E+02  0.48408550193E+02  0.10973963109E+04  0.97948628515E+03 0.  0.
   -9000010    2    1    2    0  502 -0.49006432670E+03 -0.48773438462E+02  0.52320188779E+02  0.11149221761E+04  0.99888546085E+03 0.  0.
        -13    1    3    3    0    0 -0.21621895623E+03 -0.24871705788E+03  0.11828046303E+01  0.32956368445E+03  0.10566000000E+00 0.  1.
          4    1    3    3  501    0  0.70628328294E+03  0.29749049634E+03  0.47225745563E+02  0.76783262643E+03  0.00000000000E+00 0.  1.
         13    1    4    4    0    0 -0.65452289829E+03  0.21131221308E+03  0.26905104259E+03  0.73854014818E+03  0.10566000000E+00 0. -1.
         -4    1    4    4    0  502  0.16445857159E+03 -0.26008565155E+03 -0.21673085382E+03  0.37638202787E+03  0.00000000000E+00 0. -1.
<mgrwt>
<rscale>  2 0.11093268E+04</rscale>
<asrwt>0</asrwt>
<pdfrwt beam="1">  1       21 0.17792671E+00 0.11136939E+04</pdfrwt>
<pdfrwt beam="2">  1       21 0.16242998E+00 0.11136939E+04</pdfrwt>
<totfact> 0.20800652E+01</totfact>
</mgrwt>
</event>
<event>
 8    1  0.5815007E-006  0.1057186E+04  0.7818608E-02  0.8723843E-01
         21   -1    0    0  501  502  0.00000000000E+00  0.00000000000E+00  0.82429780055E+03  0.82429780055E+03  0.00000000000E+00 0.  1.
         21   -1    0    0  502  503 -0.00000000000E+00 -0.00000000000E+00 -0.14365847052E+04  0.14365847052E+04  0.00000000000E+00 0.  1.
   -9000010    2    1    2    0  503 -0.24912893975E+03 -0.27780114960E+03 -0.58621756688E+03  0.12088396684E+04  0.98914286175E+03 0.  0.
    9000010    2    1    2  501    0  0.24912893975E+03  0.27780114960E+03 -0.26069337813E+02  0.10520428373E+04  0.98329843582E+03 0.  0.
        -13    1    4    4    0    0  0.58976666883E+03  0.65557806909E+02  0.15262141376E+03  0.61271188728E+03  0.10566000000E+00 0.  1.
          4    1    4    4  501    0 -0.34063772908E+03  0.21224334269E+03 -0.17869075157E+03  0.43933095007E+03  0.00000000000E+00 0.  1.
         13    1    3    3    0    0  0.21064718536E+03 -0.14945766249E+03 -0.67551277507E+03  0.72320629839E+03  0.10566000000E+00 0. -1.
         -4    1    3    3    0  503 -0.45977612511E+03 -0.12834348711E+03  0.89295208197E+02  0.48563337005E+03  0.00000000000E+00 0. -1.
<mgrwt>
<rscale>  2 0.10558168E+04</rscale>
<asrwt>0</asrwt>
<pdfrwt beam="1">  1       21 0.12681505E+00 0.10571860E+04</pdfrwt>
<pdfrwt beam="2">  1       21 0.22101303E+00 0.10571860E+04</pdfrwt>
<totfact> 0.20459829E+01</totfact>
</mgrwt>
</event>
<event>
 8    1  0.5815007E-006  0.1020748E+04  0.7818608E-02  0.8762599E-01
         21   -1    0    0  501  502  0.00000000000E+00  0.00000000000E+00  0.10939085000E+04  0.10939085000E+04  0.00000000000E+00 0.  1.
         21   -1    0    0  502  503 -0.00000000000E+00 -0.00000000000E+00 -0.92433051882E+03  0.92433051882E+03  0.00000000000E+00 0.  1.
   -9000010    2    1    2    0  503  0.33976607111E+02 -0.11992551483E+03  0.11425869991E+03  0.10271226573E+04  0.10131087620E+04 0.  0.
    9000010    2    1    2  501    0 -0.33976607111E+02  0.11992551483E+03  0.55319281222E+02  0.99111636151E+03  0.98168980856E+03 0.  0.
        -13    1    4    4    0    0 -0.21428259417E+03  0.44729895959E+03  0.26524950181E+03  0.56245061898E+03  0.10566000000E+00 0.  1.
          4    1    4    4  501    0  0.18030598706E+03 -0.32737344476E+03 -0.20993022059E+03  0.42866574253E+03  0.00000000000E+00 0.  1.
         13    1    3    3    0    0 -0.41005419818E+03  0.18842735570E+03 -0.68552105130E+02  0.45645231526E+03  0.10566000000E+00 0. -1.
         -4    1    3    3    0  503  0.44403080529E+03 -0.30835287054E+03  0.18281080504E+03  0.57067034201E+03  0.00000000000E+00 0. -1.
<mgrwt>
<rscale>  2 0.10128627E+04</rscale>
<asrwt>0</asrwt>
<pdfrwt beam="1">  1       21 0.16829362E+00 0.10207477E+04</pdfrwt>
<pdfrwt beam="2">  1       21 0.14220469E+00 0.10207477E+04</pdfrwt>
<totfact> 0.38560223E+01</totfact>
</mgrwt>
</event>
<event>
 8    1  0.5815007E-006  0.1153560E+04  0.7818608E-02  0.8643097E-01
         21   -1    0    0  501  502  0.00000000000E+00  0.00000000000E+00  0.10356538451E+04  0.10356538451E+04  0.00000000000E+00 0. -1.
         21   -1    0    0  502  503 -0.00000000000E+00 -0.00000000000E+00 -0.23243331883E+04  0.23243331883E+04  0.00000000000E+00 0. -1.
   -9000010    2    1    2    0  503  0.30449953515E+03 -0.46937375805E+03 -0.17694265121E+04  0.21102598126E+04  0.10046365528E+04 0.  0.
    9000010    2    1    2  501    0 -0.30449953515E+03  0.46937375805E+03  0.48074716887E+03  0.12497272208E+04  0.10087956158E+04 0.  0.
        -13    1    4    4    0    0 -0.30810253780E+03 -0.21450486894E+03  0.41972208076E+03  0.56312178864E+03  0.10566000000E+00 0.  1.
          4    1    4    4  501    0  0.36030026468E+01  0.68387862699E+03  0.61025088104E+02  0.68660543215E+03  0.00000000000E+00 0.  1.
         13    1    3    3    0    0  0.66916465080E+03 -0.30225011116E+03 -0.97774471149E+03  0.12227514840E+04  0.10566000000E+00 0. -1.
         -4    1    3    3    0  503 -0.36466511565E+03 -0.16712364688E+03 -0.79168180064E+03  0.88750832862E+03  0.00000000000E+00 0. -1.
<mgrwt>
<rscale>  2 0.11526499E+04</rscale>
<asrwt>0</asrwt>
<pdfrwt beam="1">  1       21 0.15933136E+00 0.11535598E+04</pdfrwt>
<pdfrwt beam="2">  1       21 0.35758971E+00 0.11535598E+04</pdfrwt>
<totfact> 0.10614086E+00</totfact>
</mgrwt>
</event>
<event>
 8    1  0.5815007E-006  0.1278799E+04  0.7818608E-02  0.8550661E-01
         21   -1    0    0  501  502  0.00000000000E+00  0.00000000000E+00  0.89256779061E+03  0.89256779061E+03  0.00000000000E+00 0. -1.
         21   -1    0    0  502  503 -0.00000000000E+00 -0.00000000000E+00 -0.18264023991E+04  0.18264023991E+04  0.00000000000E+00 0. -1.
   -9000010    2    1    2    0  503  0.78132592120E+03  0.68810460592E+02 -0.40246686799E+03  0.13341672976E+04  0.10014078708E+04 0.  0.
    9000010    2    1    2  501    0 -0.78132592120E+03 -0.68810460592E+02 -0.53136774048E+03  0.13848028921E+04  0.10100110393E+04 0.  0.
        -13    1    4    4    0    0 -0.29028871850E+03 -0.51771521639E+03 -0.37263218632E+03  0.70082190521E+03  0.10566000000E+00 0.  1.
          4    1    4    4  501    0 -0.49103720270E+03  0.44890475580E+03 -0.15873555416E+03  0.68398098685E+03  0.00000000000E+00 0.  1.
         13    1    3    3    0    0 -0.15666246281E+03 -0.23113227629E+03 -0.28107211492E+02  0.28063371661E+03  0.10566000000E+00 0. -1.
         -4    1    3    3    0  503  0.93798838401E+03  0.29994273688E+03 -0.37435965650E+03  0.10535335810E+04  0.00000000000E+00 0. -1.
<mgrwt>
<rscale>  2 0.12770998E+04</rscale>
<asrwt>0</asrwt>
<pdfrwt beam="1">  1       21 0.13731812E+00 0.12787992E+04</pdfrwt>
<pdfrwt beam="2">  1       21 0.28098498E+00 0.12787992E+04</pdfrwt>
<totfact> 0.56574899E+00</totfact>
</mgrwt>
</event>
<event>
 8    1  0.5815007E-006  0.1191026E+04  0.7818608E-02  0.8620534E-01
         21   -1    0    0  503  502  0.00000000000E+00  0.00000000000E+00  0.12006890969E+04  0.12006890969E+04  0.00000000000E+00 0. -1.
         21   -1    0    0  501  503 -0.00000000000E+00 -0.00000000000E+00 -0.11739492847E+04  0.11739492847E+04  0.00000000000E+00 0.  1.
    9000010    2    1    2  501    0 -0.52359133797E+03 -0.30448569980E+03  0.20010586548E+03  0.11710608915E+04  0.98208035502E+03 0.  0.
   -9000010    2    1    2    0  502  0.52359133797E+03  0.30448569980E+03 -0.17336605330E+03  0.12035774901E+04  0.10255162386E+04 0.  0.
        -13    1    3    3    0    0 -0.61031026592E+03 -0.59148693958E+03  0.19102924102E+03  0.87110711308E+03  0.10566000000E+00 0.  1.
          4    1    3    3  501    0  0.86718927951E+02  0.28700123978E+03  0.90766244610E+01  0.29995377846E+03  0.00000000000E+00 0.  1.
         13    1    4    4    0    0  0.73522262251E+03  0.36640835395E+03 -0.37661997040E+03  0.90368689255E+03  0.10566000000E+00 0. -1.
         -4    1    4    4    0  502 -0.21163128455E+03 -0.61922654150E+02  0.20325391710E+03  0.29989059758E+03  0.00000000000E+00 0. -1.
<mgrwt>
<rscale>  2 0.11816180E+04</rscale>
<asrwt>0</asrwt>
<pdfrwt beam="1">  1       21 0.18472140E+00 0.11910260E+04</pdfrwt>
<pdfrwt beam="2">  1       21 0.18060758E+00 0.11910260E+04</pdfrwt>
<totfact> 0.12696771E+01</totfact>
</mgrwt>
</event>
<event>
 8    1  0.5815007E-006  0.1681726E+04  0.7818608E-02  0.8313843E-01
         21   -1    0    0  503  502  0.00000000000E+00  0.00000000000E+00  0.12376857635E+04  0.12376857635E+04  0.00000000000E+00 0. -1.
         21   -1    0    0  501  503 -0.00000000000E+00 -0.00000000000E+00 -0.25505226179E+04  0.25505226179E+04  0.00000000000E+00 0. -1.
    9000010    2    1    2  501    0 -0.28364091888E+03  0.13016603385E+04 -0.25071638052E+02  0.16819133132E+04  0.10263683542E+04 0.  0.
   -9000010    2    1    2    0  502  0.28364091888E+03 -0.13016603385E+04 -0.12877652164E+04  0.21062950681E+04  0.10016825115E+04 0.  0.
        -13    1    3    3    0    0 -0.58630140749E+03  0.65097886479E+03  0.25364199543E+03  0.91206200219E+03  0.10566000000E+00 0.  1.
          4    1    3    3  501    0  0.30266048861E+03  0.65068147373E+03 -0.27871363348E+03  0.76985131104E+03  0.00000000000E+00 0.  1.
         13    1    4    4    0    0  0.18420148412E+03 -0.30706462440E+03 -0.10059390488E+04  0.10677697558E+04  0.10566000000E+00 0. -1.
         -4    1    4    4    0  502  0.99439434761E+02 -0.99459571411E+03 -0.28182616761E+03  0.10385253124E+04  0.00000000000E+00 0. -1.
<mgrwt>
<rscale>  2 0.16779761E+04</rscale>
<asrwt>0</asrwt>
<pdfrwt beam="1">  1       21 0.19041320E+00 0.16817264E+04</pdfrwt>
<pdfrwt beam="2">  1       21 0.39238809E+00 0.16817264E+04</pdfrwt>
<totfact> 0.30175521E-01</totfact>
</mgrwt>
</event>
<event>
 8    1  0.5815007E-006  0.1145051E+04  0.7818608E-02  0.8656301E-01
         21   -1    0    0  501  502  0.00000000000E+00  0.00000000000E+00  0.45877634080E+03  0.45877634080E+03  0.00000000000E+00 0. -1.
         21   -1    0    0  502  503 -0.00000000000E+00 -0.00000000000E+00 -0.31093887284E+04  0.31093887284E+04  0.00000000000E+00 0. -1.
   -9000010    2    1    2    0  503  0.42843598936E+03 -0.30702768952E+03 -0.18959056053E+04  0.21967698236E+04  0.97648153811E+03 0.  0.
    9000010    2    1    2  501    0 -0.42843598936E+03  0.30702768952E+03 -0.75470678232E+03  0.13713952457E+04  0.10165230905E+04 0.  0.
        -13    1    4    4    0    0 -0.63106900555E+03  0.79399840258E+02 -0.92901407940E+02  0.64279320715E+03  0.10566000000E+00 0.  1.
          4    1    4    4  501    0  0.20263301618E+03  0.22762784926E+03 -0.66180537438E+03  0.72860203854E+03  0.00000000000E+00 0.  1.
         13    1    3    3    0    0  0.42964651997E+03  0.74385326132E+02 -0.24044533541E+03  0.49793903176E+03  0.10566000000E+00 0. -1.
         -4    1    3    3    0  503 -0.12105306025E+01 -0.38141301565E+03 -0.16554602699E+04  0.16988307918E+04  0.00000000000E+00 0. -1.
<mgrwt>
<rscale>  2 0.11360984E+04</rscale>
<asrwt>0</asrwt>
<pdfrwt beam="1">  1       21 0.70580979E-01 0.11450513E+04</pdfrwt>
<pdfrwt beam="2">  1       21 0.47836747E+00 0.11450513E+04</pdfrwt>
<totfact> 0.13975371E+00</totfact>
</mgrwt>
</event>
<event>
 8    1  0.5815007E-006  0.1175100E+04  0.7818608E-02  0.8644796E-01
         21   -1    0    0  501  502  0.00000000000E+00  0.00000000000E+00  0.20919039548E+04  0.20919039548E+04  0.00000000000E+00 0. -1.
         21   -1    0    0  502  503 -0.00000000000E+00 -0.00000000000E+00 -0.61324015989E+03  0.61324015989E+03  0.00000000000E+00 0. -1.
   -9000010    2    1    2    0  503 -0.36245931025E+03 -0.18469325559E+03  0.89956214701E+03  0.14798891662E+04  0.11024389042E+04 0.  0.
    9000010    2    1    2  501    0  0.36245931025E+03  0.18469325559E+03  0.57910164795E+03  0.12252549486E+04  0.10002012898E+04 0.  0.
        -13    1    4    4    0    0  0.35549368763E+03  0.32073579300E+02  0.84572437621E+03  0.91796198620E+03  0.10566000000E+00 0.  1.
          4    1    4    4  501    0  0.69656226222E+01  0.15261967629E+03 -0.26662272826E+03  0.30729296235E+03  0.00000000000E+00 0.  1.
         13    1    3    3    0    0  0.14764319767E+03 -0.45596778726E+03  0.73800718895E+03  0.87997713547E+03  0.10566000000E+00 0. -1.
         -4    1    3    3    0  503 -0.51010250792E+03  0.27127453167E+03  0.16155495805E+03  0.59991203071E+03  0.00000000000E+00 0. -1.
<mgrwt>
<rscale>  2 0.11505046E+04</rscale>
<asrwt>0</asrwt>
<pdfrwt beam="1">  1       21 0.32183138E+00 0.11750999E+04</pdfrwt>
<pdfrwt beam="2">  1       21 0.94344641E-01 0.11750999E+04</pdfrwt>
<totfact> 0.83524692E+00</totfact>
</mgrwt>
</event>
<event>
 8    1  0.5815007E-006  0.1057940E+04  0.7818608E-02  0.8730168E-01
         21   -1    0    0  503  502  0.00000000000E+00  0.00000000000E+00  0.96868216309E+03  0.96868216309E+03  0.00000000000E+00 0.  1.
         21   -1    0    0  501  503 -0.00000000000E+00 -0.00000000000E+00 -0.11319368815E+04  0.11319368815E+04  0.00000000000E+00 0.  1.
    9000010    2    1    2  501    0  0.24736428136E+03  0.19535171558E+03 -0.20860213180E+03  0.10783099757E+04  0.10098941399E+04 0.  0.
   -9000010    2    1    2    0  502 -0.24736428136E+03 -0.19535171558E+03  0.45347413397E+02  0.10223090689E+04  0.97144637733E+03 0.  0.
        -13    1    3    3    0    0 -0.32647915458E+03  0.16115553421E+03  0.15758174416E+03  0.39672630596E+03  0.10566000000E+00 0.  1.
          4    1    3    3  501    0  0.57384343594E+03  0.34196181368E+02 -0.36618387596E+03  0.68158366971E+03  0.00000000000E+00 0.  1.
         13    1    4    4    0    0 -0.85116455853E+02  0.14001400745E+03 -0.40555733176E+03  0.43740769752E+03  0.10566000000E+00 0. -1.
         -4    1    4    4    0  502 -0.16224782551E+03 -0.33536572303E+03  0.45090474515E+03  0.58490137140E+03  0.00000000000E+00 0. -1.
<mgrwt>
<rscale>  2 0.10486595E+04</rscale>
<asrwt>0</asrwt>
<pdfrwt beam="1">  1       21 0.14902803E+00 0.10579402E+04</pdfrwt>
<pdfrwt beam="2">  1       21 0.17414413E+00 0.10579402E+04</pdfrwt>
<totfact> 0.29640166E+01</totfact>
</mgrwt>
</event>
<event>
 8    1  0.5815007E-006  0.1130525E+04  0.7818608E-02  0.8661968E-01
         21   -1    0    0  503  502  0.00000000000E+00  0.00000000000E+00  0.22100272574E+04  0.22100272574E+04  0.00000000000E+00 0. -1.
         21   -1    0    0  501  503 -0.00000000000E+00 -0.00000000000E+00 -0.58992462241E+03  0.58992462241E+03  0.00000000000E+00 0. -1.
    9000010    2    1    2  501    0  0.51571167006E+03 -0.91141939923E+02  0.59218029881E+03  0.12762306134E+04  0.10019090240E+04 0.  0.
   -9000010    2    1    2    0  502 -0.51571167006E+03  0.91141939923E+02  0.10279223362E+04  0.15237212664E+04  0.99540785042E+03 0.  0.
        -13    1    3    3    0    0  0.47530952108E+03  0.10274053681E+03  0.83292709857E+03  0.96449070573E+03  0.10566000000E+00 0.  1.
          4    1    3    3  501    0  0.40402148978E+02 -0.19388247674E+03 -0.24074679977E+03  0.31173990766E+03  0.00000000000E+00 0.  1.
         13    1    4    4    0    0 -0.35720291438E+03 -0.56509170430E+02  0.11960367501E+04  0.12495163573E+04  0.10566000000E+00 0. -1.
         -4    1    4    4    0  502 -0.15850875568E+03  0.14765111035E+03 -0.16811441393E+03  0.27420490912E+03  0.00000000000E+00 0. -1.
<mgrwt>
<rscale>  2 0.11290830E+04</rscale>
<asrwt>0</asrwt>
<pdfrwt beam="1">  1       21 0.34000419E+00 0.11305251E+04</pdfrwt>
<pdfrwt beam="2">  1       21 0.90757636E-01 0.11305251E+04</pdfrwt>
<totfact> 0.69375107E+00</totfact>
</mgrwt>
</event>
<event>
 8    1  0.5815007E-006  0.1546572E+04  0.7818608E-02  0.8416158E-01
         21   -1    0    0  503  502  0.00000000000E+00  0.00000000000E+00  0.12222995994E+04  0.12222995994E+04  0.00000000000E+00 0. -1.
         21   -1    0    0  501  503 -0.00000000000E+00 -0.00000000000E+00 -0.16893753569E+04  0.16893753569E+04  0.00000000000E+00 0. -1.
    9000010    2    1    2  501    0  0.58165651519E+03 -0.63489052102E+03 -0.19112893130E+03  0.13406777770E+04  0.10096912192E+04 0.  0.
   -9000010    2    1    2    0  502 -0.58165651519E+03  0.63489052102E+03 -0.27594682623E+03  0.15709971793E+04  0.12847082202E+04 0.  0.
        -13    1    3    3    0    0  0.29717589281E+03  0.12791709917E+03  0.25534411866E+03  0.41216128593E+03  0.10566000000E+00 0.  1.
          4    1    3    3  501    0  0.28448062239E+03 -0.76280762019E+03 -0.44647304996E+03  0.92851649112E+03  0.00000000000E+00 0.  1.
         13    1    4    4    0    0 -0.86388627880E+03  0.55682495840E+03  0.16572996951E+03  0.10410667466E+04  0.10566000000E+00 0. -1.
         -4    1    4    4    0  502  0.28222976361E+03  0.78065562622E+02 -0.44167679574E+03  0.52993043263E+03  0.00000000000E+00 0. -1.
<mgrwt>
<rscale>  2 0.14884836E+04</rscale>
<asrwt>0</asrwt>
<pdfrwt beam="1">  1       21 0.18804609E+00 0.15465722E+04</pdfrwt>
<pdfrwt beam="2">  1       21 0.25990390E+00 0.15465722E+04</pdfrwt>
<totfact> 0.27838765E+00</totfact>
</mgrwt>
</event>
<event>
 8    1  0.5815007E-006  0.1045981E+04  0.7818608E-02  0.8733224E-01
         21   -1    0    0  503  502  0.00000000000E+00  0.00000000000E+00  0.84029995799E+03  0.84029995799E+03  0.00000000000E+00 0. -1.
         21   -1    0    0  501  503 -0.00000000000E+00 -0.00000000000E+00 -0.13063501986E+04  0.13063501986E+04  0.00000000000E+00 0. -1.
    9000010    2    1    2  501    0 -0.26471693681E+03 -0.15886291047E+03 -0.31795567845E+03  0.10932396947E+04  0.99938217698E+03 0.  0.
   -9000010    2    1    2    0  502  0.26471693681E+03  0.15886291047E+03 -0.14809456212E+03  0.10534104618E+04  0.99620736838E+03 0.  0.
        -13    1    3    3    0    0 -0.10283024883E+03  0.40446854538E+03 -0.28660271217E+03  0.50627066878E+03  0.10566000000E+00 0.  1.
          4    1    3    3  501    0 -0.16188668798E+03 -0.56333145586E+03 -0.31352966281E+02  0.58696902593E+03  0.00000000000E+00 0.  1.
         13    1    4    4    0    0  0.15639429873E+03  0.39629289187E+03 -0.47305979265E+03  0.63662611587E+03  0.10566000000E+00 0. -1.
         -4    1    4    4    0  502  0.10832263808E+03 -0.23742998140E+03  0.32496523053E+03  0.41678434596E+03  0.00000000000E+00 0. -1.
<mgrwt>
<rscale>  2 0.10452224E+04</rscale>
<asrwt>0</asrwt>
<pdfrwt beam="1">  1       21 0.12927692E+00 0.10459815E+04</pdfrwt>
<pdfrwt beam="2">  1       21 0.20097695E+00 0.10459815E+04</pdfrwt>
<totfact> 0.27623623E+01</totfact>
</mgrwt>
</event>
<event>
 8    1  0.5815007E-006  0.1100684E+04  0.7818608E-02  0.8686426E-01
         21   -1    0    0  503  502  0.00000000000E+00  0.00000000000E+00  0.20423514271E+04  0.20423514271E+04  0.00000000000E+00 0. -1.
         21   -1    0    0  501  503 -0.00000000000E+00 -0.00000000000E+00 -0.59075562242E+03  0.59075562242E+03  0.00000000000E+00 0. -1.
    9000010    2    1    2  501    0 -0.44800371389E+03  0.42605851721E+02  0.75454819203E+03  0.13302710986E+04  0.99887718736E+03 0.  0.
   -9000010    2    1    2    0  502  0.44800371389E+03 -0.42605851721E+02  0.69704761264E+03  0.13028359509E+04  0.10044817342E+04 0.  0.
        -13    1    3    3    0    0 -0.67721368154E+03  0.78832933903E+02  0.84099385430E+03  0.10826373705E+04  0.10566000000E+00 0.  1.
          4    1    3    3  501    0  0.22920996765E+03 -0.36227082182E+02 -0.86445662272E+02  0.24763372807E+03  0.00000000000E+00 0.  1.
         13    1    4    4    0    0 -0.26519797532E+03 -0.19879291129E+03  0.66284157399E+02  0.33799732007E+03  0.10566000000E+00 0. -1.
         -4    1    4    4    0  502  0.71320168921E+03  0.15618705957E+03  0.63076345525E+03  0.96483863083E+03  0.00000000000E+00 0. -1.
<mgrwt>
<rscale>  2 0.10994041E+04</rscale>
<asrwt>0</asrwt>
<pdfrwt beam="1">  1       21 0.31420791E+00 0.11006844E+04</pdfrwt>
<pdfrwt beam="2">  1       21 0.90885481E-01 0.11006844E+04</pdfrwt>
<totfact> 0.10559121E+01</totfact>
</mgrwt>
</event>
<event>
 8    1  0.5815007E-006  0.1062500E+04  0.7818608E-02  0.8718724E-01
         21   -1    0    0  501  502  0.00000000000E+00  0.00000000000E+00  0.69802631779E+03  0.69802631779E+03  0.00000000000E+00 0.  1.
         21   -1    0    0  502  503 -0.00000000000E+00 -0.00000000000E+00 -0.16378258333E+04  0.16378258333E+04  0.00000000000E+00 0.  1.
   -9000010    2    1    2    0  503  0.12874790841E+03  0.26058120217E+03 -0.61688389908E+03  0.12285978498E+04  0.10219727710E+04 0.  0.
    9000010    2    1    2  501    0 -0.12874790841E+03 -0.26058120217E+03 -0.32291561639E+03  0.11072543013E+04  0.10184591330E+04 0.  0.
        -13    1    4    4    0    0  0.59859957993E+02  0.21748054291E+03 -0.51213096325E+03  0.55960623281E+03  0.10566000000E+00 0.  1.
          4    1    4    4  501    0 -0.18860786640E+03 -0.47806174509E+03  0.18921534686E+03  0.54764806844E+03  0.00000000000E+00 0.  1.
         13    1    3    3    0    0  0.17186883902E+03 -0.35398111278E+03 -0.59828073823E+02  0.39802127533E+03  0.10566000000E+00 0. -1.
         -4    1    3    3    0  503 -0.43120930612E+02  0.61456231495E+03 -0.55705582526E+03  0.83057657448E+03  0.00000000000E+00 0. -1.
<mgrwt>
<rscale>  2 0.10616545E+04</rscale>
<asrwt>0</asrwt>
<pdfrwt beam="1">  1       21 0.10738867E+00 0.10625003E+04</pdfrwt>
<pdfrwt beam="2">  1       21 0.25197320E+00 0.10625003E+04</pdfrwt>
<totfact> 0.19138112E+01</totfact>
</mgrwt>
</event>
<event>
 8    1  0.5815007E-006  0.1338115E+04  0.7818608E-02  0.8510058E-01
         21   -1    0    0  501  502  0.00000000000E+00  0.00000000000E+00  0.94833851210E+03  0.94833851210E+03  0.00000000000E+00 0. -1.
         21   -1    0    0  502  503 -0.00000000000E+00 -0.00000000000E+00 -0.22537483859E+04  0.22537483859E+04  0.00000000000E+00 0. -1.
   -9000010    2    1    2    0  503 -0.34895067995E+02  0.88355951628E+03 -0.13027300943E+04  0.18639693389E+04  0.99768778344E+03 0.  0.
    9000010    2    1    2  501    0  0.34895067995E+02 -0.88355951628E+03 -0.26797795210E+01  0.13381175591E+04  0.10043188419E+04 0.  0.
        -13    1    4    4    0    0  0.21042320399E+03  0.16740770392E+03 -0.40481498540E+02  0.27192283280E+03  0.10566000000E+00 0.  1.
          4    1    4    4  501    0 -0.17552813600E+03 -0.10509672202E+04  0.37801719019E+02  0.10661947263E+04  0.00000000000E+00 0.  1.
         13    1    3    3    0    0 -0.24283569349E+03  0.10011261970E+04 -0.78957973538E+03  0.12979441460E+04  0.10566000000E+00 0. -1.
         -4    1    3    3    0  503  0.20794062549E+03 -0.11756668075E+03 -0.51315035894E+03  0.56602519294E+03  0.00000000000E+00 0. -1.
<mgrwt>
<rscale>  2 0.13368707E+04</rscale>
<asrwt>0</asrwt>
<pdfrwt beam="1">  1       21 0.14589823E+00 0.13381149E+04</pdfrwt>
<pdfrwt beam="2">  1       21 0.34673052E+00 0.13381149E+04</pdfrwt>
<totfact> 0.16005994E+00</totfact>
</mgrwt>
</event>
<event>
 8    1  0.5815007E-006  0.1151906E+04  0.7818608E-02  0.8652669E-01
         21   -1    0    0  503  502  0.00000000000E+00  0.00000000000E+00  0.15359992284E+04  0.15359992284E+04  0.00000000000E+00 0.  1.
         21   -1    0    0  501  503 -0.00000000000E+00 -0.00000000000E+00 -0.83774240056E+03  0.83774240056E+03  0.00000000000E+00 0.  1.
    9000010    2    1    2  501    0 -0.83552351171E+01  0.32877318450E+03  0.45013823480E+03  0.11954163738E+04  0.10574659615E+04 0.  0.
   -9000010    2    1    2    0  502  0.83552351171E+01 -0.32877318450E+03  0.24811859308E+03  0.11783252552E+04  0.11039592175E+04 0.  0.
        -13    1    3    3    0    0  0.51723890652E+03  0.19607801709E+03  0.31571073162E+03  0.63691125946E+03  0.10566000000E+00 0.  1.
          4    1    3    3  501    0 -0.52559414164E+03  0.13269516741E+03  0.13442750319E+03  0.55850511439E+03  0.00000000000E+00 0.  1.
         13    1    4    4    0    0 -0.75684717124E+02 -0.73230825017E+03  0.20291386192E+03  0.76366065513E+03  0.10566000000E+00 0. -1.
         -4    1    4    4    0  502  0.84039952241E+02  0.40353506567E+03  0.45204731154E+02  0.41466460003E+03  0.00000000000E+00 0. -1.
<mgrwt>
<rscale>  2 0.11406217E+04</rscale>
<asrwt>0</asrwt>
<pdfrwt beam="1">  1       21 0.23630757E+00 0.11519061E+04</pdfrwt>
<pdfrwt beam="2">  1       21 0.12888345E+00 0.11519061E+04</pdfrwt>
<totfact> 0.14718015E+01</totfact>
</mgrwt>
</event>
<event>
 8    1  0.5815007E-006  0.1425055E+04  0.7818608E-02  0.8455443E-01
         21   -1    0    0  503  502  0.00000000000E+00  0.00000000000E+00  0.27180149359E+04  0.27180149359E+04  0.00000000000E+00 0.  1.
         21   -1    0    0  501  503 -0.00000000000E+00 -0.00000000000E+00 -0.95947298779E+03  0.95947298779E+03  0.00000000000E+00 0.  1.
    9000010    2    1    2  501    0  0.89518427930E+03 -0.43639585896E+03  0.17566118450E+04  0.22619606839E+04  0.10193060002E+04 0.  0.
   -9000010    2    1    2    0  502 -0.89518427930E+03  0.43639585896E+03  0.19301030735E+01  0.14155272397E+04  0.10059410527E+04 0.  0.
        -13    1    3    3    0    0  0.85184850252E+02  0.29018545681E+03  0.61213510785E+03  0.68276896494E+03  0.10566000000E+00 0.  1.
          4    1    3    3  501    0  0.80999942905E+03 -0.72658131576E+03  0.11444767372E+04  0.15791917190E+04  0.00000000000E+00 0.  1.
         13    1    4    4    0    0 -0.16005883354E+03 -0.32144692930E+03  0.18780107706E+02  0.35958262216E+03  0.10566000000E+00 0. -1.
         -4    1    4    4    0  502 -0.73512544576E+03  0.75784278825E+03 -0.16850004632E+02  0.10559446176E+04  0.00000000000E+00 0. -1.
<mgrwt>
<rscale>  2 0.14226665E+04</rscale>
<asrwt>0</asrwt>
<pdfrwt beam="1">  1       21 0.41815614E+00 0.14250547E+04</pdfrwt>
<pdfrwt beam="2">  1       21 0.14761123E+00 0.14250547E+04</pdfrwt>
<totfact> 0.48225472E-01</totfact>
</mgrwt>
</event>
<event>
 8    1  0.5815007E-006  0.1295690E+04  0.7818608E-02  0.8538408E-01
         21   -1    0    0  501  502  0.00000000000E+00  0.00000000000E+00  0.13284573342E+04  0.13284573342E+04  0.00000000000E+00 0.  1.
         21   -1    0    0  502  503 -0.00000000000E+00 -0.00000000000E+00 -0.12735385705E+04  0.12735385705E+04  0.00000000000E+00 0.  1.
   -9000010    2    1    2    0  503 -0.67061773244E+03 -0.45464949087E+03  0.16041032585E+03  0.13020183845E+04  0.10065217823E+04 0.  0.
    9000010    2    1    2  501    0  0.67061773244E+03  0.45464949087E+03 -0.10549156216E+03  0.12999775201E+04  0.10111274798E+04 0.  0.
        -13    1    4    4    0    0  0.42429876184E+03  0.23373798572E+03 -0.55830150225E+03  0.73916403041E+03  0.10566000000E+00 0.  1.
          4    1    4    4  501    0  0.24631897059E+03  0.22091150515E+03  0.45280994009E+03  0.56081348970E+03  0.00000000000E+00 0.  1.
         13    1    3    3    0    0 -0.65253564741E+03 -0.74222352665E+03  0.38164976806E+02  0.98901724519E+03  0.10566000000E+00 0. -1.
         -4    1    3    3    0  503 -0.18082085024E+02  0.28757403578E+03  0.12224534904E+03  0.31300113932E+03  0.00000000000E+00 0. -1.
<mgrwt>
<rscale>  2 0.12947915E+04</rscale>
<asrwt>0</asrwt>
<pdfrwt beam="1">  1       21 0.20437805E+00 0.12956902E+04</pdfrwt>
<pdfrwt beam="2">  1       21 0.19592901E+00 0.12956902E+04</pdfrwt>
<totfact> 0.65457930E+00</totfact>
</mgrwt>
</event>
<event>
 8    1  0.5815007E-006  0.1208175E+04  0.7818608E-02  0.8601275E-01
         21   -1    0    0  501  502  0.00000000000E+00  0.00000000000E+00  0.24814865730E+04  0.24814865730E+04  0.00000000000E+00 0.  1.
         21   -1    0    0  502  503 -0.00000000000E+00 -0.00000000000E+00 -0.58760278555E+03  0.58760278555E+03  0.00000000000E+00 0.  1.
   -9000010    2    1    2    0  503  0.38084409394E+03 -0.55746966042E+03  0.86952613355E+03  0.14885435997E+04  0.10019339824E+04 0.  0.
    9000010    2    1    2  501    0 -0.38084409394E+03  0.55746966042E+03  0.10243576539E+04  0.15805457588E+04  0.99649467960E+03 0.  0.
        -13    1    4    4    0    0  0.29164628319E+03  0.12920854049E+03  0.59474196187E+03  0.67488548200E+03  0.10566000000E+00 0.  1.
          4    1    4    4  501    0 -0.67249037714E+03  0.42826111994E+03  0.42961569203E+03  0.90566027683E+03  0.00000000000E+00 0.  1.
         13    1    3    3    0    0  0.61135802411E+03 -0.83834287659E+02  0.70451451439E+03  0.93655087079E+03  0.10566000000E+00 0. -1.
         -4    1    3    3    0  503 -0.23051393017E+03 -0.47363537277E+03  0.16501161916E+03  0.55199272893E+03  0.00000000000E+00 0. -1.
<mgrwt>
<rscale>  2 0.12070465E+04</rscale>
<asrwt>0</asrwt>
<pdfrwt beam="1">  1       21 0.38176716E+00 0.12081748E+04</pdfrwt>
<pdfrwt beam="2">  1       21 0.90400429E-01 0.12081748E+04</pdfrwt>
<totfact> 0.35142032E+00</totfact>
</mgrwt>
</event>
<event>
 8    1  0.5815007E-006  0.1261828E+04  0.7818608E-02  0.8563793E-01
         21   -1    0    0  503  502  0.00000000000E+00  0.00000000000E+00  0.13193621353E+04  0.13193621353E+04  0.00000000000E+00 0. -1.
         21   -1    0    0  501  503 -0.00000000000E+00 -0.00000000000E+00 -0.12939801079E+04  0.12939801079E+04  0.00000000000E+00 0. -1.
    9000010    2    1    2  501    0  0.52645986019E+03  0.52533797779E+03 -0.35043423205E+03  0.13095858579E+04  0.10193483178E+04 0.  0.
   -9000010    2    1    2    0  502 -0.52645986019E+03 -0.52533797779E+03  0.37581625945E+03  0.13037563853E+04  0.10026977990E+04 0.  0.
        -13    1    3    3    0    0  0.12588272054E+03  0.65564126374E+03 -0.52926641942E+03  0.85195943562E+03  0.10566000000E+00 0.  1.
          4    1    3    3  501    0  0.40057713965E+03 -0.13030328594E+03  0.17883218737E+03  0.45762642229E+03  0.00000000000E+00 0.  1.
         13    1    4    4    0    0 -0.63582309551E+03 -0.25583242966E+03 -0.15117015496E+03  0.70183592653E+03  0.10566000000E+00 0. -1.
         -4    1    4    4    0  502  0.10936323532E+03 -0.26950554813E+03  0.52698641441E+03  0.60192045877E+03  0.00000000000E+00 0. -1.
<mgrwt>
<rscale>  2 0.12584619E+04</rscale>
<asrwt>0</asrwt>
<pdfrwt beam="1">  1       21 0.20297879E+00 0.12618284E+04</pdfrwt>
<pdfrwt beam="2">  1       21 0.19907386E+00 0.12618284E+04</pdfrwt>
<totfact> 0.63816908E+00</totfact>
</mgrwt>
</event>
<event>
 8    1  0.5815007E-006  0.1232311E+04  0.7818608E-02  0.8588481E-01
         21   -1    0    0  503  502  0.00000000000E+00  0.00000000000E+00  0.17615182533E+04  0.17615182533E+04  0.00000000000E+00 0.  1.
         21   -1    0    0  501  503 -0.00000000000E+00 -0.00000000000E+00 -0.86134478117E+03  0.86134478117E+03  0.00000000000E+00 0.  1.
    9000010    2    1    2  501    0 -0.62493962788E+02  0.64734308342E+03  0.65055165180E+03  0.13655235199E+04  0.10091969425E+04 0.  0.
   -9000010    2    1    2    0  502  0.62493962788E+02 -0.64734308342E+03  0.24962182037E+03  0.12573395146E+04  0.10467249107E+04 0.  0.
        -13    1    3    3    0    0 -0.13264030182E+02  0.14060760637E+03 -0.27502211679E+03  0.30916598997E+03  0.10566000000E+00 0.  1.
          4    1    3    3  501    0 -0.49229932605E+02  0.50673547705E+03  0.92557376858E+03  0.10563575299E+04  0.00000000000E+00 0.  1.
         13    1    4    4    0    0 -0.32120155347E+03 -0.10483063582E+03 -0.25471828260E+03  0.42313273899E+03  0.10566000000E+00 0. -1.
         -4    1    4    4    0  502  0.38369551625E+03 -0.54251244760E+03  0.50434010297E+03  0.83420677560E+03  0.00000000000E+00 0. -1.
<mgrwt>
<rscale>  2 0.12243056E+04</rscale>
<asrwt>0</asrwt>
<pdfrwt beam="1">  1       21 0.27100281E+00 0.12323115E+04</pdfrwt>
<pdfrwt beam="2">  1       21 0.13251458E+00 0.12323115E+04</pdfrwt>
<totfact> 0.74746481E+00</totfact>
</mgrwt>
</event>
<event>
 8    1  0.5815007E-006  0.1089079E+04  0.7818608E-02  0.8696175E-01
         21   -1    0    0  503  502  0.00000000000E+00  0.00000000000E+00  0.11983557930E+04  0.11983557930E+04  0.00000000000E+00 0. -1.
         21   -1    0    0  501  503 -0.00000000000E+00 -0.00000000000E+00 -0.10835746521E+04  0.10835746521E+04  0.00000000000E+00 0. -1.
    9000010    2    1    2  501    0 -0.18766524654E+03  0.36916100728E+03 -0.28638503774E+03  0.11213151812E+04  0.10019147926E+04 0.  0.
   -9000010    2    1    2    0  502  0.18766524654E+03 -0.36916100728E+03  0.40116617867E+03  0.11606152639E+04  0.10072712613E+04 0.  0.
        -13    1    3    3    0    0 -0.17587405641E+03 -0.32296375837E+03 -0.21358727169E+03  0.42527262636E+03  0.10566000000E+00 0.  1.
          4    1    3    3  501    0 -0.11791190122E+02  0.69212476565E+03 -0.72797766051E+02  0.69604255483E+03  0.00000000000E+00 0.  1.
         13    1    4    4    0    0 -0.41150375057E+03 -0.98911661410E+02  0.86898810946E+02  0.43205354762E+03  0.10566000000E+00 0. -1.
         -4    1    4    4    0  502  0.59916899711E+03 -0.27024934587E+03  0.31426736772E+03  0.72856171630E+03  0.00000000000E+00 0. -1.
<mgrwt>
<rscale>  2 0.10878390E+04</rscale>
<asrwt>0</asrwt>
<pdfrwt beam="1">  1       21 0.18436243E+00 0.10890792E+04</pdfrwt>
<pdfrwt beam="2">  1       21 0.16670379E+00 0.10890792E+04</pdfrwt>
<totfact> 0.17043539E+01</totfact>
</mgrwt>
</event>
<event>
 8    1  0.5815007E-006  0.1070582E+04  0.7818608E-02  0.8716331E-01
         21   -1    0    0  501  502  0.00000000000E+00  0.00000000000E+00  0.73813617760E+03  0.73813617760E+03  0.00000000000E+00 0. -1.
         21   -1    0    0  502  503 -0.00000000000E+00 -0.00000000000E+00 -0.15311669507E+04  0.15311669507E+04  0.00000000000E+00 0. -1.
   -9000010    2    1    2    0  503  0.78642932950E+02  0.25132293177E+03 -0.50871383821E+03  0.11852999232E+04  0.10376888801E+04 0.  0.
    9000010    2    1    2  501    0 -0.78642932950E+02 -0.25132293177E+03 -0.28431693487E+03  0.10840032050E+04  0.10123630288E+04 0.  0.
        -13    1    4    4    0    0 -0.61790335072E+02  0.37410928001E+03  0.36420420687E+02  0.38092290178E+03  0.10566000000E+00 0.  1.
          4    1    4    4  501    0 -0.16852597878E+02 -0.62543221177E+03 -0.32073735555E+03  0.70308030326E+03  0.00000000000E+00 0.  1.
         13    1    3    3    0    0 -0.39653873882E+03 -0.76758651287E+02 -0.45032118738E+03  0.60491656028E+03  0.10566000000E+00 0. -1.
         -4    1    3    3    0  503  0.47518167177E+03  0.32808158305E+03 -0.58392650830E+02  0.58038336296E+03  0.00000000000E+00 0. -1.
<mgrwt>
<rscale>  2 0.10643965E+04</rscale>
<asrwt>0</asrwt>
<pdfrwt beam="1">  1       21 0.11355941E+00 0.10705821E+04</pdfrwt>
<pdfrwt beam="2">  1       21 0.23556414E+00 0.10705821E+04</pdfrwt>
<totfact> 0.21644544E+01</totfact>
</mgrwt>
</event>
<event>
 8    1  0.5815007E-006  0.1030571E+04  0.7818608E-02  0.8750471E-01
         21   -1    0    0  503  502  0.00000000000E+00  0.00000000000E+00  0.17249220940E+04  0.17249220940E+04  0.00000000000E+00 0. -1.
         21   -1    0    0  501  503 -0.00000000000E+00 -0.00000000000E+00 -0.60603308909E+03  0.60603308909E+03  0.00000000000E+00 0. -1.
    9000010    2    1    2  501    0  0.69926625232E+02  0.20061169116E+03  0.60039838406E+03  0.11773048317E+04  0.99016850268E+03 0.  0.
   -9000010    2    1    2    0  502 -0.69926625232E+02 -0.20061169116E+03  0.51849062081E+03  0.11536503513E+04  0.10084353354E+04 0.  0.
        -13    1    3    3    0    0  0.24456241367E+03  0.55717085355E+03  0.43092515460E+03  0.74561828992E+03  0.10566000000E+00 0.  1.
          4    1    3    3  501    0 -0.17463578844E+03 -0.35655916239E+03  0.16947322946E+03  0.43168654182E+03  0.00000000000E+00 0.  1.
         13    1    4    4    0    0  0.17725246082E+02 -0.54191233994E+03  0.58218448345E+03  0.79556392104E+03  0.10566000000E+00 0. -1.
         -4    1    4    4    0  502 -0.87651871314E+02  0.34130064879E+03 -0.63693862636E+02  0.35808643027E+03  0.00000000000E+00 0. -1.
<mgrwt>
<rscale>  2 0.10260748E+04</rscale>
<asrwt>0</asrwt>
<pdfrwt beam="1">  1       21 0.26537263E+00 0.10305710E+04</pdfrwt>
<pdfrwt beam="2">  1       21 0.93235860E-01 0.10305710E+04</pdfrwt>
<totfact> 0.22322662E+01</totfact>
</mgrwt>
</event>
<event>
 8    1  0.5815007E-006  0.1113899E+04  0.7818608E-02  0.8726752E-01
         21   -1    0    0  503  502  0.00000000000E+00  0.00000000000E+00  0.14139448241E+04  0.14139448241E+04  0.00000000000E+00 0. -1.
         21   -1    0    0  501  503 -0.00000000000E+00 -0.00000000000E+00 -0.79459234577E+03  0.79459234577E+03  0.00000000000E+00 0. -1.
    9000010    2    1    2  501    0  0.26287869497E+03 -0.43246085485E+03  0.70217711980E+03  0.13167469913E+04  0.99229145537E+03 0.  0.
   -9000010    2    1    2    0  502 -0.26287869497E+03  0.43246085485E+03 -0.82824641429E+02  0.89179017856E+03  0.72959043449E+03 0.  0.
        -13    1    3    3    0    0 -0.23137816903E+03 -0.37465821042E+03  0.69053050975E+03  0.81898536482E+03  0.10566000000E+00 0.  1.
          4    1    3    3  501    0  0.49425686400E+03 -0.57802644433E+02  0.11646610059E+02  0.49776162653E+03  0.00000000000E+00 0.  1.
         13    1    4    4    0    0 -0.13539008449E+03  0.55504751448E+03 -0.27204260912E+03  0.63278385776E+03  0.10566000000E+00 0. -1.
         -4    1    4    4    0  502 -0.12748861047E+03 -0.12258665962E+03  0.18921796769E+03  0.25900632080E+03  0.00000000000E+00 0. -1.
<mgrwt>
<rscale>  2 0.10525182E+04</rscale>
<asrwt>0</asrwt>
<pdfrwt beam="1">  1       21 0.21752997E+00 0.11138985E+04</pdfrwt>
<pdfrwt beam="2">  1       21 0.12224498E+00 0.11138985E+04</pdfrwt>
<totfact> 0.23836013E+01</totfact>
</mgrwt>
</event>
<event>
 8    1  0.5815007E-006  0.1106819E+04  0.7818608E-02  0.8684133E-01
         21   -1    0    0  501  502  0.00000000000E+00  0.00000000000E+00  0.18403047021E+04  0.18403047021E+04  0.00000000000E+00 0. -1.
         21   -1    0    0  502  503 -0.00000000000E+00 -0.00000000000E+00 -0.67429915609E+03  0.67429915609E+03  0.00000000000E+00 0. -1.
   -9000010    2    1    2    0  503  0.33189199886E+02 -0.41742687205E+03  0.79337328135E+03  0.13467408862E+04  0.10044516586E+04 0.  0.
    9000010    2    1    2  501    0 -0.33189199886E+02  0.41742687205E+03  0.37263226469E+03  0.11678629720E+04  0.10245498525E+04 0.  0.
        -13    1    4    4    0    0 -0.28455392640E+03  0.18740791155E+03 -0.27381919077E+03  0.43711511384E+03  0.10566000000E+00 0.  1.
          4    1    4    4  501    0  0.25136472652E+03  0.23001896050E+03  0.64645145546E+03  0.73074785815E+03  0.00000000000E+00 0.  1.
         13    1    3    3    0    0  0.37197819789E+02 -0.31131434203E+03 -0.18405528418E+03  0.36356107623E+03  0.10566000000E+00 0. -1.
         -4    1    3    3    0  503 -0.40086199027E+01 -0.10611253002E+03  0.97742856553E+03  0.98317980999E+03  0.00000000000E+00 0. -1.
<mgrwt>
<rscale>  2 0.11021454E+04</rscale>
<asrwt>0</asrwt>
<pdfrwt beam="1">  1       21 0.28312380E+00 0.11068194E+04</pdfrwt>
<pdfrwt beam="2">  1       21 0.10373833E+00 0.11068194E+04</pdfrwt>
<totfact> 0.12417477E+01</totfact>
</mgrwt>
</event>
<event>
 8    1  0.5815007E-006  0.1088202E+04  0.7818608E-02  0.8704476E-01
         21   -1    0    0  503  502  0.00000000000E+00  0.00000000000E+00  0.12853714680E+04  0.12853714680E+04  0.00000000000E+00 0.  1.
         21   -1    0    0  501  503 -0.00000000000E+00 -0.00000000000E+00 -0.10601170365E+04  0.10601170365E+04  0.00000000000E+00 0.  1.
    9000010    2    1    2  501    0 -0.43565496318E+03 -0.91143054358E+02 -0.36176581954E+03  0.11090516613E+04  0.94922008829E+03 0.  0.
   -9000010    2    1    2    0  502  0.43565496318E+03  0.91143054358E+02  0.58702025100E+03  0.12364368432E+04  0.99301610701E+03 0.  0.
        -13    1    3    3    0    0 -0.10089171470E+03 -0.15205804094E+03  0.30789117686E+03  0.35790749344E+03  0.10566000000E+00 0.  1.
          4    1    3    3  501    0 -0.33476324848E+03  0.60914986583E+02 -0.66965699640E+03  0.75114416789E+03  0.00000000000E+00 0.  1.
         13    1    4    4    0    0  0.53448471489E+03  0.45525756819E+03  0.30543049658E+03  0.76565081026E+03  0.10566000000E+00 0. -1.
         -4    1    4    4    0  502 -0.98829751702E+02 -0.36411451383E+03  0.28158975442E+03  0.47078603292E+03  0.00000000000E+00 0. -1.
<mgrwt>
<rscale>  2 0.10781093E+04</rscale>
<asrwt>0</asrwt>
<pdfrwt beam="1">  1       21 0.19774946E+00 0.10882019E+04</pdfrwt>
<pdfrwt beam="2">  1       21 0.16309493E+00 0.10882019E+04</pdfrwt>
<totfact> 0.14313636E+01</totfact>
</mgrwt>
</event>
<event>
 8    1  0.5815007E-006  0.1119178E+04  0.7818608E-02  0.8678620E-01
         21   -1    0    0  501  502  0.00000000000E+00  0.00000000000E+00  0.13254068041E+04  0.13254068041E+04  0.00000000000E+00 0.  1.
         21   -1    0    0  502  503 -0.00000000000E+00 -0.00000000000E+00 -0.10085023238E+04  0.10085023238E+04  0.00000000000E+00 0.  1.
   -9000010    2    1    2    0  503  0.11756146489E+03 -0.40181402859E+03  0.51914084834E+03  0.11966059282E+04  0.99352066679E+03 0.  0.
    9000010    2    1    2  501    0 -0.11756146489E+03  0.40181402859E+03 -0.20223636799E+03  0.11373031997E+04  0.10379228333E+04 0.  0.
        -13    1    4    4    0    0 -0.18968697543E+03  0.62079512203E+03 -0.45688130121E+03  0.79379359203E+03  0.10566000000E+00 0.  1.
          4    1    4    4  501    0  0.72125510544E+02 -0.21898109344E+03  0.25464493322E+03  0.34350960768E+03  0.00000000000E+00 0.  1.
         13    1    3    3    0    0  0.27437898198E+03 -0.33393060293E+03  0.77591763464E+03  0.88816758567E+03  0.10566000000E+00 0. -1.
         -4    1    3    3    0  503 -0.15681751709E+03 -0.67883425658E+02 -0.25677678630E+03  0.30843834251E+03  0.00000000000E+00 0. -1.
<mgrwt>
<rscale>  2 0.11087709E+04</rscale>
<asrwt>0</asrwt>
<pdfrwt beam="1">  1       21 0.20390874E+00 0.11191778E+04</pdfrwt>
<pdfrwt beam="2">  1       21 0.15515420E+00 0.11191778E+04</pdfrwt>
<totfact> 0.14913856E+01</totfact>
</mgrwt>
</event>
<event>
 8    1  0.5815007E-006  0.1052770E+04  0.7818608E-02  0.8730870E-01
         21   -1    0    0  501  502  0.00000000000E+00  0.00000000000E+00  0.15481733503E+04  0.15481733503E+04  0.00000000000E+00 0.  1.
         21   -1    0    0  502  503 -0.00000000000E+00 -0.00000000000E+00 -0.72426342822E+03  0.72426342822E+03  0.00000000000E+00 0.  1.
   -9000010    2    1    2    0  503 -0.15194882869E+03 -0.29551723936E+03  0.21970465640E+03  0.10754513977E+04  0.99895279547E+03 0.  0.
    9000010    2    1    2  501    0  0.15194882869E+03  0.29551723936E+03  0.60420526571E+03  0.11969853808E+04  0.97841254768E+03 0.  0.
        -13    1    4    4    0    0  0.45819505088E+03  0.28248317154E+03  0.69334619281E+03  0.87776329446E+03  0.10566000000E+00 0.  1.
          4    1    4    4  501    0 -0.30624622219E+03  0.13034067815E+02 -0.89140927098E+02  0.31922208635E+03  0.00000000000E+00 0.  1.
         13    1    3    3    0    0 -0.25267823175E+03 -0.53959727039E+03  0.43256376189E+03  0.73628997160E+03  0.10566000000E+00 0. -1.
         -4    1    3    3    0  503  0.10072940306E+03  0.24408003104E+03 -0.21285910549E+03  0.33916142614E+03  0.00000000000E+00 0. -1.
<mgrwt>
<rscale>  2 0.10478688E+04</rscale>
<asrwt>0</asrwt>
<pdfrwt beam="1">  1       21 0.23818051E+00 0.10527704E+04</pdfrwt>
<pdfrwt beam="2">  1       21 0.11142514E+00 0.10527704E+04</pdfrwt>
<totfact> 0.21893711E+01</totfact>
</mgrwt>
</event>
<event>
 8    1  0.5815007E-006  0.1031951E+04  0.7818608E-02  0.8818388E-01
         21   -1    0    0  503  502  0.00000000000E+00  0.00000000000E+00  0.52604672625E+03  0.52604672625E+03  0.00000000000E+00 0.  1.
         21   -1    0    0  501  503 -0.00000000000E+00 -0.00000000000E+00 -0.15507147775E+04  0.15507147775E+04  0.00000000000E+00 0.  1.
    9000010    2    1    2  501    0 -0.24802565594E+03  0.86635405485E+02 -0.58160054079E+03  0.95371542029E+03  0.70872526015E+03 0.  0.
   -9000010    2    1    2    0  502  0.24802565594E+03 -0.86635405485E+02 -0.44306751045E+03  0.11230460835E+04  0.99794852936E+03 0.  0.
        -13    1    3    3    0    0 -0.40632476344E+03 -0.15867537644E+03 -0.46981085830E+03  0.64109277192E+03  0.10566000000E+00 0.  1.
          4    1    3    3  501    0  0.15829910750E+03  0.24531078192E+03 -0.11178968249E+03  0.31262264837E+03  0.00000000000E+00 0.  1.
         13    1    4    4    0    0  0.43693620203E+03 -0.37739983042E+03 -0.22265161626E+02  0.57778856447E+03  0.10566000000E+00 0. -1.
         -4    1    4    4    0  502 -0.18891054609E+03  0.29076442493E+03 -0.42080234883E+03  0.54525751898E+03  0.00000000000E+00 0. -1.
<mgrwt>
<rscale>  2 0.95467112E+03</rscale>
<asrwt>0</asrwt>
<pdfrwt beam="1">  1       21 0.80930267E-01 0.10319514E+04</pdfrwt>
<pdfrwt beam="2">  1       21 0.23857150E+00 0.10319514E+04</pdfrwt>
<totfact> 0.49968179E+01</totfact>
</mgrwt>
</event>
<event>
 8    1  0.5815007E-006  0.1202231E+04  0.7818608E-02  0.8642496E-01
         21   -1    0    0  503  502  0.00000000000E+00  0.00000000000E+00  0.11087341308E+04  0.11087341308E+04  0.00000000000E+00 0. -1.
         21   -1    0    0  501  503 -0.00000000000E+00 -0.00000000000E+00 -0.12103481452E+04  0.12103481452E+04  0.00000000000E+00 0. -1.
    9000010    2    1    2  501    0 -0.40874099806E+03  0.43667952290E+03  0.28250621732E+03  0.10569776107E+04  0.82439899171E+03 0.  0.
   -9000010    2    1    2    0  502  0.40874099806E+03 -0.43667952290E+03 -0.38412023173E+03  0.12621046653E+04  0.10428814048E+04 0.  0.
        -13    1    3    3    0    0 -0.33512433389E+03  0.11126762224E+03  0.53328998162E+03  0.63959910771E+03  0.10566000000E+00 0.  1.
          4    1    3    3  501    0 -0.73616664171E+02  0.32541190067E+03 -0.25078376430E+03  0.41737850301E+03  0.00000000000E+00 0.  1.
         13    1    4    4    0    0  0.34904331103E+03 -0.34639006358E+03  0.29564225292E+03  0.57377840844E+03  0.10566000000E+00 0. -1.
         -4    1    4    4    0  502  0.59697687027E+02 -0.90289459329E+02 -0.67976248464E+03  0.68832625682E+03  0.00000000000E+00 0. -1.
<mgrwt>
<rscale>  2 0.11534104E+04</rscale>
<asrwt>0</asrwt>
<pdfrwt beam="1">  1       21 0.17057448E+00 0.12022312E+04</pdfrwt>
<pdfrwt beam="2">  1       21 0.18620741E+00 0.12022312E+04</pdfrwt>
<totfact> 0.14919440E+01</totfact>
</mgrwt>
</event>
<event>
 8    1  0.5815007E-006  0.1128122E+04  0.7818608E-02  0.8676837E-01
         21   -1    0    0  501  502  0.00000000000E+00  0.00000000000E+00  0.18321961566E+04  0.18321961566E+04  0.00000000000E+00 0.  1.
         21   -1    0    0  502  503 -0.00000000000E+00 -0.00000000000E+00 -0.81341804843E+03  0.81341804843E+03  0.00000000000E+00 0.  1.
   -9000010    2    1    2    0  503  0.18683458269E+03 -0.51973435462E+03 -0.63733842434E+02  0.11299206493E+04  0.98368069536E+03 0.  0.
    9000010    2    1    2  501    0 -0.18683458269E+03  0.51973435462E+03  0.10825119506E+04  0.15156935557E+04  0.90579460747E+03 0.  0.
        -13    1    4    4    0    0 -0.18089652652E+03 -0.55801947026E+02  0.88829325453E+03  0.90824133787E+03  0.10566000000E+00 0.  1.
          4    1    4    4  501    0 -0.59380561731E+01  0.57553630164E+03  0.19421869603E+03  0.60745221780E+03  0.00000000000E+00 0.  1.
         13    1    3    3    0    0 -0.14507469648E+03 -0.69173860425E+03 -0.19586712285E+03  0.73342545984E+03  0.10566000000E+00 0. -1.
         -4    1    3    3    0  503  0.33190927916E+03  0.17200424963E+03  0.13213328041E+03  0.39649518948E+03  0.00000000000E+00 0. -1.
<mgrwt>
<rscale>  2 0.11109254E+04</rscale>
<asrwt>0</asrwt>
<pdfrwt beam="1">  1       21 0.28187633E+00 0.11281217E+04</pdfrwt>
<pdfrwt beam="2">  1       21 0.12514124E+00 0.11281217E+04</pdfrwt>
<totfact> 0.75339208E+00</totfact>
</mgrwt>
</event>
<event>
 8    1  0.5815007E-006  0.1734412E+04  0.7818608E-02  0.8286269E-01
         21   -1    0    0  501  502  0.00000000000E+00  0.00000000000E+00  0.13758813103E+04  0.13758813103E+04  0.00000000000E+00 0. -1.
         21   -1    0    0  502  503 -0.00000000000E+00 -0.00000000000E+00 -0.21852647960E+04  0.21852647960E+04  0.00000000000E+00 0.  1.
   -9000010    2    1    2    0  503  0.73371105627E+03 -0.12088160134E+04 -0.36186872104E+03  0.17699302919E+04  0.10010675294E+04 0.  0.
    9000010    2    1    2  501    0 -0.73371105627E+03  0.12088160134E+04 -0.44751476468E+03  0.17912158144E+04  0.10042990395E+04 0.  0.
        -13    1    4    4    0    0 -0.84437307966E+03  0.13267210140E+04 -0.40068217588E+03  0.16228680673E+04  0.10566000000E+00 0.  1.
          4    1    4    4  501    0  0.11066202339E+03 -0.11790500056E+03 -0.46832588802E+02  0.16834774709E+03  0.00000000000E+00 0.  1.
         13    1    3    3    0    0  0.30418088544E+03 -0.82438210562E+02  0.26447891808E+03  0.41142578784E+03  0.10566000000E+00 0. -1.
         -4    1    3    3    0  503  0.42953017083E+03 -0.11263778029E+04 -0.62634763912E+03  0.13585045040E+04  0.00000000000E+00 0. -1.
<mgrwt>
<rscale>  2 0.17339444E+04</rscale>
<asrwt>0</asrwt>
<pdfrwt beam="1">  1       21 0.21167405E+00 0.17344119E+04</pdfrwt>
<pdfrwt beam="2">  1       21 0.33619458E+00 0.17344119E+04</pdfrwt>
<totfact> 0.50474666E-01</totfact>
</mgrwt>
</event>
<event>
 8    1  0.5815007E-006  0.1185526E+04  0.7818608E-02  0.8640091E-01
         21   -1    0    0  501  502  0.00000000000E+00  0.00000000000E+00  0.23773924215E+04  0.23773924215E+04  0.00000000000E+00 0.  1.
         21   -1    0    0  502  503 -0.00000000000E+00 -0.00000000000E+00 -0.53667650458E+03  0.53667650458E+03  0.00000000000E+00 0.  1.
   -9000010    2    1    2    0  503 -0.23564524204E+03  0.32224454121E+03  0.86000718899E+03  0.13754778101E+04  0.99647208517E+03 0.  0.
    9000010    2    1    2  501    0  0.23564524204E+03 -0.32224454121E+03  0.98070872789E+03  0.15385911159E+04  0.11162897422E+04 0.  0.
        -13    1    4    4    0    0 -0.39281752238E+03  0.28455614047E+02  0.61758604503E+03  0.73248062229E+03  0.10566000000E+00 0.  1.
          4    1    4    4  501    0  0.62846276442E+03 -0.35070015525E+03  0.36312268286E+03  0.80611049364E+03  0.00000000000E+00 0.  1.
         13    1    3    3    0    0 -0.64298658954E+02 -0.16414811399E+02  0.97627626881E+03  0.97852906333E+03  0.10566000000E+00 0. -1.
         -4    1    3    3    0  503 -0.17134658309E+03  0.33865935261E+03 -0.11626907982E+03  0.39694874677E+03  0.00000000000E+00 0. -1.
<mgrwt>
<rscale>  2 0.11564594E+04</rscale>
<asrwt>0</asrwt>
<pdfrwt beam="1">  1       21 0.36575267E+00 0.11855265E+04</pdfrwt>
<pdfrwt beam="2">  1       21 0.82565618E-01 0.11855265E+04</pdfrwt>
<totfact> 0.57563630E+00</totfact>
</mgrwt>
</event>
<event>
 8    1  0.5815007E-006  0.1133501E+04  0.7818608E-02  0.8665536E-01
         21   -1    0    0  503  502  0.00000000000E+00  0.00000000000E+00  0.16977589894E+04  0.16977589894E+04  0.00000000000E+00 0. -1.
         21   -1    0    0  501  503 -0.00000000000E+00 -0.00000000000E+00 -0.80917171621E+03  0.80917171621E+03  0.00000000000E+00 0. -1.
    9000010    2    1    2  501    0  0.31086823866E+03  0.29646448056E+03  0.55254571377E+02  0.11000663857E+04  0.10112184409E+04 0.  0.
   -9000010    2    1    2    0  502 -0.31086823866E+03 -0.29646448056E+03  0.83333270185E+03  0.14068643199E+04  0.10489487941E+04 0.  0.
        -13    1    3    3    0    0 -0.12179914482E+03  0.32463476603E+03  0.41207057967E+03  0.53853963344E+03  0.10566000000E+00 0.  1.
          4    1    3    3  501    0  0.43266738349E+03 -0.28170285470E+02 -0.35681600830E+03  0.56152675225E+03  0.00000000000E+00 0.  1.
         13    1    4    4    0    0 -0.33707733310E+03  0.92542954100E+02  0.93979893820E+03  0.10027000460E+04  0.10566000000E+00 0. -1.
         -4    1    4    4    0  502  0.26209094433E+02 -0.38900743466E+03 -0.10646623636E+03  0.40416427395E+03  0.00000000000E+00 0. -1.
<mgrwt>
<rscale>  2 0.11246928E+04</rscale>
<asrwt>0</asrwt>
<pdfrwt beam="1">  1       21 0.26119369E+00 0.11335007E+04</pdfrwt>
<pdfrwt beam="2">  1       21 0.12448796E+00 0.11335007E+04</pdfrwt>
<totfact> 0.10744312E+01</totfact>
</mgrwt>
</event>
<event>
 8    1  0.5815007E-006  0.1085314E+04  0.7818608E-02  0.8700147E-01
         21   -1    0    0  503  502  0.00000000000E+00  0.00000000000E+00  0.12665893402E+04  0.12665893402E+04  0.00000000000E+00 0. -1.
         21   -1    0    0  501  503 -0.00000000000E+00 -0.00000000000E+00 -0.97038867438E+03  0.97038867438E+03  0.00000000000E+00 0.  1.
    9000010    2    1    2  501    0 -0.51442285213E+02 -0.42147856716E+03  0.39668551709E+03  0.11555374131E+04  0.99880770037E+03 0.  0.
   -9000010    2    1    2    0  502  0.51442285213E+02  0.42147856716E+03 -0.10048485126E+03  0.10814406015E+04  0.98950799791E+03 0.  0.
        -13    1    3    3    0    0  0.27451558184E+03 -0.55227646874E+03  0.49499676742E+03  0.79081597955E+03  0.10566000000E+00 0.  1.
          4    1    3    3  501    0 -0.32595786705E+03  0.13079790158E+03 -0.98311250324E+02  0.36472143355E+03  0.00000000000E+00 0.  1.
         13    1    4    4    0    0 -0.23103601113E+03  0.65087401170E+03  0.38927470290E+02  0.69175861155E+03  0.10566000000E+00 0. -1.
         -4    1    4    4    0  502  0.28247829634E+03 -0.22939544454E+03 -0.13941232155E+03  0.38968198994E+03  0.00000000000E+00 0. -1.
<mgrwt>
<rscale>  2 0.10831700E+04</rscale>
<asrwt>0</asrwt>
<pdfrwt beam="1">  1       21 0.19485990E+00 0.10853144E+04</pdfrwt>
<pdfrwt beam="2">  1       21 0.14929057E+00 0.10853144E+04</pdfrwt>
<totfact> 0.19930533E+01</totfact>
</mgrwt>
</event>
<event>
 8    1  0.5815007E-006  0.1046930E+04  0.7818608E-02  0.8739827E-01
         21   -1    0    0  501  502  0.00000000000E+00  0.00000000000E+00  0.97697965275E+03  0.97697965275E+03  0.00000000000E+00 0.  1.
         21   -1    0    0  502  503 -0.00000000000E+00 -0.00000000000E+00 -0.12741646449E+04  0.12741646449E+04  0.00000000000E+00 0.  1.
   -9000010    2    1    2    0  503  0.10468566077E+02 -0.28282803926E+03 -0.58584464576E+03  0.11996987548E+04  0.10079493354E+04 0.  0.
    9000010    2    1    2  501    0 -0.10468566077E+02  0.28282803926E+03  0.28865965361E+03  0.10514455428E+04  0.97062456349E+03 0.  0.
        -13    1    4    4    0    0 -0.31912461247E+03 -0.24257134746E+03  0.13555767559E+03  0.42315159395E+03  0.10566000000E+00 0.  1.
          4    1    4    4  501    0  0.30865604639E+03  0.52539938671E+03  0.15310197802E+03  0.62829394888E+03  0.00000000000E+00 0.  1.
         13    1    3    3    0    0 -0.68196743764E+02 -0.27269948185E+03  0.24026649256E+03  0.36978886121E+03  0.10566000000E+00 0. -1.
         -4    1    3    3    0  503  0.78665309841E+02 -0.10128557403E+02 -0.82611113832E+03  0.82990989361E+03  0.00000000000E+00 0. -1.
<mgrwt>
<rscale>  2 0.10378415E+04</rscale>
<asrwt>0</asrwt>
<pdfrwt beam="1">  1       21 0.15030456E+00 0.10469303E+04</pdfrwt>
<pdfrwt beam="2">  1       21 0.19602533E+00 0.10469303E+04</pdfrwt>
<totfact> 0.19274769E+01</totfact>
</mgrwt>
</event>
<event>
 8    1  0.5815007E-006  0.1143203E+04  0.7818608E-02  0.8658122E-01
         21   -1    0    0  501  502  0.00000000000E+00  0.00000000000E+00  0.86887997557E+03  0.86887997557E+03  0.00000000000E+00 0.  1.
         21   -1    0    0  502  503 -0.00000000000E+00 -0.00000000000E+00 -0.14682623204E+04  0.14682623204E+04  0.00000000000E+00 0.  1.
   -9000010    2    1    2    0  503  0.53327725371E+03  0.13920473976E+03 -0.40226845869E+03  0.11770701146E+04  0.95912019734E+03 0.  0.
    9000010    2    1    2  501    0 -0.53327725371E+03 -0.13920473976E+03 -0.19711388612E+03  0.11600721813E+04  0.10015742573E+04 0.  0.
        -13    1    4    4    0    0 -0.16264349767E+03 -0.53573859993E+03 -0.25306219595E+03  0.61441780653E+03  0.10566000000E+00 0.  1.
          4    1    4    4  501    0 -0.37063375605E+03  0.39653386017E+03  0.55948309834E+02  0.54565437482E+03  0.00000000000E+00 0.  1.
         13    1    3    3    0    0  0.76250416908E+03 -0.97073967598E+02 -0.21424149790E+03  0.79795701240E+03  0.10566000000E+00 0. -1.
         -4    1    3    3    0  503 -0.22922691537E+03  0.23627870736E+03 -0.18802696078E+03  0.37911310220E+03  0.00000000000E+00 0. -1.
<mgrwt>
<rscale>  2 0.11338375E+04</rscale>
<asrwt>0</asrwt>
<pdfrwt beam="1">  1       21 0.13367384E+00 0.11432032E+04</pdfrwt>
<pdfrwt beam="2">  1       21 0.22588651E+00 0.11432032E+04</pdfrwt>
<totfact> 0.15852758E+01</totfact>
</mgrwt>
</event>
<event>
 8    1  0.5815007E-006  0.1088910E+04  0.7818608E-02  0.8697425E-01
         21   -1    0    0  503  502  0.00000000000E+00  0.00000000000E+00  0.10170300838E+04  0.10170300838E+04  0.00000000000E+00 0.  1.
         21   -1    0    0  501  503 -0.00000000000E+00 -0.00000000000E+00 -0.11550528873E+04  0.11550528873E+04  0.00000000000E+00 0.  1.
    9000010    2    1    2  501    0 -0.43731676556E+03  0.49016826791E+02 -0.65750970916E+02  0.10807776194E+04  0.98494084580E+03 0.  0.
   -9000010    2    1    2    0  502  0.43731676556E+03 -0.49016826791E+02 -0.72271832655E+02  0.10913053517E+04  0.99602989417E+03 0.  0.
        -13    1    3    3    0    0  0.47482324361E+02  0.37409309181E+03  0.21391031471E+03  0.43354105499E+03  0.10566000000E+00 0.  1.
          4    1    3    3  501    0 -0.48479908992E+03 -0.32507626501E+03 -0.27966128562E+03  0.64723656444E+03  0.00000000000E+00 0.  1.
         13    1    4    4    0    0 -0.82734543916E+02 -0.30753781387E+02  0.38718852872E+03  0.39712185506E+03  0.10566000000E+00 0. -1.
         -4    1    4    4    0  502  0.52005130948E+03 -0.18263045404E+02 -0.45946036138E+03  0.69418349663E+03  0.00000000000E+00 0. -1.
<mgrwt>
<rscale>  2 0.10863673E+04</rscale>
<asrwt>0</asrwt>
<pdfrwt beam="1">  1       21 0.15646617E+00 0.10889096E+04</pdfrwt>
<pdfrwt beam="2">  1       21 0.17770044E+00 0.10889096E+04</pdfrwt>
<totfact> 0.23652465E+01</totfact>
</mgrwt>
</event>
<event>
 8    1  0.5815007E-006  0.1089278E+04  0.7818608E-02  0.8695332E-01
         21   -1    0    0  503  502  0.00000000000E+00  0.00000000000E+00  0.70621667380E+03  0.70621667380E+03  0.00000000000E+00 0. -1.
         21   -1    0    0  501  503 -0.00000000000E+00 -0.00000000000E+00 -0.16963458796E+04  0.16963458796E+04  0.00000000000E+00 0. -1.
    9000010    2    1    2  501    0  0.42046605297E+03 -0.84815867895E+02 -0.62250056645E+03  0.12546053435E+04  0.10012702830E+04 0.  0.
   -9000010    2    1    2    0  502 -0.42046605297E+03  0.84815867895E+02 -0.36762863934E+03  0.11479572099E+04  0.99933453162E+03 0.  0.
        -13    1    3    3    0    0  0.32343422451E+03 -0.20066223385E+03 -0.87845531995E+03  0.95737076935E+03  0.10566000000E+00 0.  1.
          4    1    3    3  501    0  0.97031828452E+02  0.11584636596E+03  0.25595475350E+03  0.29723457417E+03  0.00000000000E+00 0.  1.
         13    1    4    4    0    0 -0.70677968432E+03 -0.79224542094E+01 -0.47265893438E+02  0.70840268442E+03  0.10566000000E+00 0. -1.
         -4    1    4    4    0  502  0.28631363135E+03  0.92738322104E+02 -0.32036274590E+03  0.43955452545E+03  0.00000000000E+00 0. -1.
<mgrwt>
<rscale>  2 0.10888334E+04</rscale>
<asrwt>0</asrwt>
<pdfrwt beam="1">  1       21 0.10864872E+00 0.10892785E+04</pdfrwt>
<pdfrwt beam="2">  1       21 0.26097629E+00 0.10892785E+04</pdfrwt>
<totfact> 0.15869278E+01</totfact>
</mgrwt>
</event>
<event>
 8    1  0.5815007E-006  0.1105578E+04  0.7818608E-02  0.8688839E-01
         21   -1    0    0  503  502  0.00000000000E+00  0.00000000000E+00  0.11969574517E+04  0.11969574517E+04  0.00000000000E+00 0. -1.
         21   -1    0    0  501  503 -0.00000000000E+00 -0.00000000000E+00 -0.10256564927E+04  0.10256564927E+04  0.00000000000E+00 0. -1.
    9000010    2    1    2  501    0  0.48191244128E+03 -0.15872600630E+03 -0.12745393146E+03  0.10773819588E+04  0.94184597166E+03 0.  0.
   -9000010    2    1    2    0  502 -0.48191244128E+03  0.15872600630E+03  0.29875489043E+03  0.11452319856E+04  0.98227708417E+03 0.  0.
        -13    1    3    3    0    0  0.66934140396E+03 -0.30640472346E+03  0.10579120516E+03  0.74370260176E+03  0.10566000000E+00 0.  1.
          4    1    3    3  501    0 -0.18742896268E+03  0.14767871715E+03 -0.23324513662E+03  0.33367935703E+03  0.00000000000E+00 0.  1.
         13    1    4    4    0    0  0.24085344314E+03  0.23649530818E+03  0.24347039636E+03  0.41619497466E+03  0.10566000000E+00 0. -1.
         -4    1    4    4    0  502 -0.72276588442E+03 -0.77769301880E+02  0.55284494079E+02  0.72903701091E+03  0.00000000000E+00 0. -1.
<mgrwt>
<rscale>  2 0.10965268E+04</rscale>
<asrwt>0</asrwt>
<pdfrwt beam="1">  1       21 0.18414730E+00 0.11055776E+04</pdfrwt>
<pdfrwt beam="2">  1       21 0.15779331E+00 0.11055776E+04</pdfrwt>
<totfact> 0.20334247E+01</totfact>
</mgrwt>
</event>
<event>
 8    1  0.5815007E-006  0.1052079E+04  0.7818608E-02  0.8734973E-01
         21   -1    0    0  501  502  0.00000000000E+00  0.00000000000E+00  0.13811109450E+04  0.13811109450E+04  0.00000000000E+00 0. -1.
         21   -1    0    0  502  503 -0.00000000000E+00 -0.00000000000E+00 -0.85161590565E+03  0.85161590565E+03  0.00000000000E+00 0. -1.
   -9000010    2    1    2    0  503 -0.21092829709E+03  0.17230554516E+03  0.60334111486E+03  0.12128024216E+04  0.10162131989E+04 0.  0.
    9000010    2    1    2  501    0  0.21092829709E+03 -0.17230554516E+03 -0.73846075564E+02  0.10199244290E+04  0.98010848919E+03 0.  0.
        -13    1    4    4    0    0  0.55137295063E+03  0.34549912460E+01 -0.24119967128E+03  0.60183167102E+03  0.10566000000E+00 0.  1.
          4    1    4    4  501    0 -0.34044465354E+03 -0.17576053641E+03  0.16735359571E+03  0.41809275798E+03  0.00000000000E+00 0.  1.
         13    1    3    3    0    0 -0.34242764690E+03 -0.15621271494E+03  0.74259398601E+03  0.83252924567E+03  0.10566000000E+00 0. -1.
         -4    1    3    3    0  503  0.13149934980E+03  0.32851826010E+03 -0.13925287115E+03  0.38027317594E+03  0.00000000000E+00 0. -1.
<mgrwt>
<rscale>  2 0.10432605E+04</rscale>
<asrwt>0</asrwt>
<pdfrwt beam="1">  1       21 0.21247861E+00 0.10520785E+04</pdfrwt>
<pdfrwt beam="2">  1       21 0.13101783E+00 0.10520785E+04</pdfrwt>
<totfact> 0.21641567E+01</totfact>
</mgrwt>
</event>
<event>
 8    1  0.5815007E-006  0.1053759E+04  0.7818608E-02  0.8733359E-01
         21   -1    0    0  501  502  0.00000000000E+00  0.00000000000E+00  0.68168179165E+03  0.68168179165E+03  0.00000000000E+00 0.  1.
         21   -1    0    0  502  503 -0.00000000000E+00 -0.00000000000E+00 -0.15938629525E+04  0.15938629525E+04  0.00000000000E+00 0.  1.
   -9000010    2    1    2    0  503  0.26760695495E+03 -0.84570393412E+02 -0.58300488598E+03  0.12042851606E+04  0.10156979951E+04 0.  0.
    9000010    2    1    2  501    0 -0.26760695495E+03  0.84570393412E+02 -0.32917627487E+03  0.10712595835E+04  0.98003797967E+03 0.  0.
        -13    1    4    4    0    0 -0.48287338511E+03  0.31177471069E+03 -0.45585908910E+03  0.73360595455E+03  0.10566000000E+00 0.  1.
          4    1    4    4  501    0  0.21526643016E+03 -0.22720431728E+03  0.12668281423E+03  0.33765362898E+03  0.00000000000E+00 0.  1.
         13    1    3    3    0    0 -0.24310176465E+02 -0.46899664575E+03 -0.30489967900E+02  0.47061501008E+03  0.10566000000E+00 0. -1.
         -4    1    3    3    0  503  0.29191713142E+03  0.38442625233E+03 -0.55251491808E+03  0.73367015054E+03  0.00000000000E+00 0. -1.
<mgrwt>
<rscale>  2 0.10450702E+04</rscale>
<asrwt>0</asrwt>
<pdfrwt beam="1">  1       21 0.10487412E+00 0.10537590E+04</pdfrwt>
<pdfrwt beam="2">  1       21 0.24520968E+00 0.10537590E+04</pdfrwt>
<totfact> 0.22882783E+01</totfact>
</mgrwt>
</event>
<event>
 8    1  0.5815007E-006  0.1134381E+04  0.7818608E-02  0.8660390E-01
         21   -1    0    0  501  502  0.00000000000E+00  0.00000000000E+00  0.13624263697E+04  0.13624263697E+04  0.00000000000E+00 0.  1.
         21   -1    0    0  502  503 -0.00000000000E+00 -0.00000000000E+00 -0.93928971312E+03  0.93928971312E+03  0.00000000000E+00 0.  1.
   -9000010    2    1    2    0  503  0.15023743321E+03 -0.45455517287E+03  0.12192158137E+03  0.11409137457E+04  0.10284102351E+04 0.  0.
    9000010    2    1    2  501    0 -0.15023743321E+03  0.45455517287E+03  0.30121507520E+03  0.11608023371E+04  0.10136764044E+04 0.  0.
        -13    1    4    4    0    0  0.31574786143E+03  0.38219296252E+03  0.44668474037E+03  0.66730460888E+03  0.10566000000E+00 0.  1.
          4    1    4    4  501    0 -0.46598529464E+03  0.72362210359E+02 -0.14546966516E+03  0.49349772825E+03  0.00000000000E+00 0.  1.
         13    1    3    3    0    0 -0.86870245266E+02 -0.69600289580E+03  0.29488438583E+03  0.76087008263E+03  0.10566000000E+00 0. -1.
         -4    1    3    3    0  503  0.23710767848E+03  0.24144772293E+03 -0.17296280446E+03  0.38004366305E+03  0.00000000000E+00 0. -1.
<mgrwt>
<rscale>  2 0.11310307E+04</rscale>
<asrwt>0</asrwt>
<pdfrwt beam="1">  1       21 0.20960406E+00 0.11343806E+04</pdfrwt>
<pdfrwt beam="2">  1       21 0.14450611E+00 0.11343806E+04</pdfrwt>
<totfact> 0.16727917E+01</totfact>
</mgrwt>
</event>
<event>
 8    1  0.5815007E-006  0.1432037E+04  0.7818608E-02  0.8450812E-01
         21   -1    0    0  501  502  0.00000000000E+00  0.00000000000E+00  0.10558780471E+04  0.10558780471E+04  0.00000000000E+00 0.  1.
         21   -1    0    0  502  503 -0.00000000000E+00 -0.00000000000E+00 -0.20398849007E+04  0.20398849007E+04  0.00000000000E+00 0. -1.
   -9000010    2    1    2    0  503 -0.10060221274E+04  0.12772120402E+03 -0.84598204808E+03  0.16570897895E+04  0.10009334234E+04 0.  0.
    9000010    2    1    2  501    0  0.10060221274E+04 -0.12772120402E+03 -0.13802480546E+03  0.14386731583E+04  0.10111065140E+04 0.  0.
        -13    1    4    4    0    0  0.11256531229E+04  0.13849322997E+03 -0.16279422508E+03  0.11457649404E+04  0.10566000000E+00 0.  1.
          4    1    4    4  501    0 -0.11963099549E+03 -0.26621443399E+03  0.24769419616E+02  0.29290821787E+03  0.00000000000E+00 0.  1.
         13    1    3    3    0    0 -0.93377660643E+03  0.16603122813E+03 -0.15466224424E+03  0.96095033190E+03  0.10566000000E+00 0. -1.
         -4    1    3    3    0  503 -0.72245520990E+02 -0.38310024108E+02 -0.69131980384E+03  0.69613945760E+03  0.00000000000E+00 0. -1.
<mgrwt>
<rscale>  2 0.14302423E+04</rscale>
<asrwt>0</asrwt>
<pdfrwt beam="1">  1       21 0.16244278E+00 0.14320369E+04</pdfrwt>
<pdfrwt beam="2">  1       21 0.31382844E+00 0.14320369E+04</pdfrwt>
<totfact> 0.19126539E+00</totfact>
</mgrwt>
</event>
<event>
 8    1  0.5815007E-006  0.1246033E+04  0.7818608E-02  0.8576830E-01
         21   -1    0    0  501  502  0.00000000000E+00  0.00000000000E+00  0.95281416713E+03  0.95281416713E+03  0.00000000000E+00 0.  1.
         21   -1    0    0  502  503 -0.00000000000E+00 -0.00000000000E+00 -0.17379098027E+04  0.17379098027E+04  0.00000000000E+00 0.  1.
   -9000010    2    1    2    0  503 -0.60669069967E+03 -0.44453394170E+03 -0.77519858348E+03  0.14674911198E+04  0.99343510740E+03 0.  0.
    9000010    2    1    2  501    0  0.60669069967E+03  0.44453394170E+03 -0.98970520705E+01  0.12232328500E+04  0.96463289556E+03 0.  0.
        -13    1    4    4    0    0  0.82028588475E+03  0.11516654352E+03 -0.41727721581E+02  0.82938138355E+03  0.10566000000E+00 0.  1.
          4    1    4    4  501    0 -0.21359518508E+03  0.32936739818E+03  0.31830669511E+02  0.39385146641E+03  0.00000000000E+00 0.  1.
         13    1    3    3    0    0  0.21900695207E+03 -0.27480368904E+01  0.43870622360E+02  0.22337466158E+03  0.10566000000E+00 0. -1.
         -4    1    3    3    0  503 -0.82569765174E+03 -0.44178590481E+03 -0.81906920584E+03  0.12441164583E+04  0.00000000000E+00 0. -1.
<mgrwt>
<rscale>  2 0.12402830E+04</rscale>
<asrwt>0</asrwt>
<pdfrwt beam="1">  1       21 0.14658680E+00 0.12460326E+04</pdfrwt>
<pdfrwt beam="2">  1       21 0.26737073E+00 0.12460326E+04</pdfrwt>
<totfact> 0.58552671E+00</totfact>
</mgrwt>
</event>
<event>
 8    1  0.5815007E-006  0.1288360E+04  0.7818608E-02  0.8544826E-01
         21   -1    0    0  503  502  0.00000000000E+00  0.00000000000E+00  0.25569311604E+04  0.25569311604E+04  0.00000000000E+00 0. -1.
         21   -1    0    0  501  503 -0.00000000000E+00 -0.00000000000E+00 -0.66317970400E+03  0.66317970400E+03  0.00000000000E+00 0. -1.
    9000010    2    1    2  501    0  0.58351295050E+03  0.53750007973E+03  0.12289689634E+04  0.17805155278E+04  0.10151241957E+04 0.  0.
   -9000010    2    1    2    0  502 -0.58351295050E+03 -0.53750007973E+03  0.66478249303E+03  0.14395953366E+04  0.10005524829E+04 0.  0.
        -13    1    3    3    0    0  0.35570442639E+03 -0.15571594419E+02 -0.58558244337E+02  0.36082848093E+03  0.10566000000E+00 0.  1.
          4    1    3    3  501    0  0.22780852411E+03  0.55307167415E+03  0.12875272077E+04  0.14196870469E+04  0.00000000000E+00 0.  1.
         13    1    4    4    0    0  0.15662858432E+03 -0.76721960278E+02  0.52928086315E+03  0.55727642681E+03  0.10566000000E+00 0. -1.
         -4    1    4    4    0  502 -0.74014153482E+03 -0.46077811945E+03  0.13550162988E+03  0.88231890982E+03  0.00000000000E+00 0. -1.
<mgrwt>
<rscale>  2 0.12854877E+04</rscale>
<asrwt>0</asrwt>
<pdfrwt beam="1">  1       21 0.39337402E+00 0.12883597E+04</pdfrwt>
<pdfrwt beam="2">  1       21 0.10202765E+00 0.12883597E+04</pdfrwt>
<totfact> 0.20984311E+00</totfact>
</mgrwt>
</event>
<event>
 8    1  0.5815007E-006  0.1083447E+04  0.7818608E-02  0.8700968E-01
         21   -1    0    0  501  502  0.00000000000E+00  0.00000000000E+00  0.65768590016E+03  0.65768590016E+03  0.00000000000E+00 0.  1.
         21   -1    0    0  502  503 -0.00000000000E+00 -0.00000000000E+00 -0.17790205622E+04  0.17790205622E+04  0.00000000000E+00 0.  1.
   -9000010    2    1    2    0  503 -0.35204803539E+03  0.19000559355E+03 -0.51785788299E+03  0.12008468678E+04  0.10068845356E+04 0.  0.
    9000010    2    1    2  501    0  0.35204803539E+03 -0.19000559355E+03 -0.60347677906E+03  0.12358595946E+04  0.10015611664E+04 0.  0.
        -13    1    4    4    0    0  0.61286532552E+03  0.72740209756E+02 -0.60697001927E+03  0.86562558927E+03  0.10566000000E+00 0.  1.
          4    1    4    4  501    0 -0.26081729013E+03 -0.26274580331E+03  0.34932402119E+01  0.37023400535E+03  0.00000000000E+00 0.  1.
         13    1    3    3    0    0 -0.68892313437E+03  0.23570241835E+03 -0.44443110631E+03  0.85304732255E+03  0.10566000000E+00 0. -1.
         -4    1    3    3    0  503  0.33687509898E+03 -0.45696824800E+02 -0.73426776680E+02  0.34779954521E+03  0.00000000000E+00 0. -1.
<mgrwt>
<rscale>  2 0.10822081E+04</rscale>
<asrwt>0</asrwt>
<pdfrwt beam="1">  1       21 0.10118245E+00 0.10834465E+04</pdfrwt>
<pdfrwt beam="2">  1       21 0.27369547E+00 0.10834465E+04</pdfrwt>
<totfact> 0.15564919E+01</totfact>
</mgrwt>
</event>
<event>
 8    1  0.5815007E-006  0.1072637E+04  0.7818608E-02  0.8714471E-01
         21   -1    0    0  503  502  0.00000000000E+00  0.00000000000E+00  0.11944351384E+04  0.11944351384E+04  0.00000000000E+00 0.  1.
         21   -1    0    0  501  503 -0.00000000000E+00 -0.00000000000E+00 -0.95193780046E+03  0.95193780046E+03  0.00000000000E+00 0.  1.
    9000010    2    1    2  501    0 -0.11457145783E+02  0.37645918394E+03  0.23147522845E+03  0.10736796927E+04  0.97844494872E+03 0.  0.
   -9000010    2    1    2    0  502  0.11457145783E+02 -0.37645918394E+03  0.11022109448E+02  0.10726932462E+04  0.10043388522E+04 0.  0.
        -13    1    3    3    0    0  0.17291802180E+03  0.36285480222E+03 -0.30607959765E+03  0.50522171471E+03  0.10566000000E+00 0.  1.
          4    1    3    3  501    0 -0.18437516758E+03  0.13604381722E+02  0.53755482610E+03  0.56845797794E+03  0.00000000000E+00 0.  1.
         13    1    4    4    0    0 -0.38725750905E+03 -0.20692601792E+03  0.31762889757E+03  0.54191778246E+03  0.10566000000E+00 0. -1.
         -4    1    4    4    0  502  0.39871465483E+03 -0.16953316602E+03 -0.30660678812E+03  0.53077546371E+03  0.00000000000E+00 0. -1.
<mgrwt>
<rscale>  2 0.10665333E+04</rscale>
<asrwt>0</asrwt>
<pdfrwt beam="1">  1       21 0.18375925E+00 0.10726366E+04</pdfrwt>
<pdfrwt beam="2">  1       21 0.14645197E+00 0.10726366E+04</pdfrwt>
<totfact> 0.25999987E+01</totfact>
</mgrwt>
</event>
<event>
 8    1  0.5815007E-006  0.1020725E+04  0.7818608E-02  0.8756979E-01
         21   -1    0    0  503  502  0.00000000000E+00  0.00000000000E+00  0.42004778148E+03  0.42004778148E+03  0.00000000000E+00 0. -1.
         21   -1    0    0  501  503 -0.00000000000E+00 -0.00000000000E+00 -0.25078154943E+04  0.25078154943E+04  0.00000000000E+00 0. -1.
    9000010    2    1    2  501    0 -0.14430826095E+03  0.12083313724E+03 -0.12424848014E+04  0.16079950878E+04  0.10032219094E+04 0.  0.
   -9000010    2    1    2    0  502  0.14430826095E+03 -0.12083313724E+03 -0.84528291147E+03  0.13198681880E+04  0.99605387002E+03 0.  0.
        -13    1    3    3    0    0  0.40118328571E+03  0.65495317477E+02 -0.25898451859E+03  0.48198615891E+03  0.10566000000E+00 0.  1.
          4    1    3    3  501    0 -0.54549154666E+03  0.55337819762E+02 -0.98350028278E+03  0.11260089289E+04  0.00000000000E+00 0.  1.
         13    1    4    4    0    0  0.47089966649E+03  0.17238943549E+03 -0.69276950342E+03  0.85521588467E+03  0.10566000000E+00 0. -1.
         -4    1    4    4    0  502 -0.32659140554E+03 -0.29322257272E+03 -0.15251340805E+03  0.46465230330E+03  0.00000000000E+00 0. -1.
<mgrwt>
<rscale>  2 0.10189595E+04</rscale>
<asrwt>0</asrwt>
<pdfrwt beam="1">  1       21 0.64622736E-01 0.10207251E+04</pdfrwt>
<pdfrwt beam="2">  1       21 0.38581776E+00 0.10207251E+04</pdfrwt>
<totfact> 0.77494612E+00</totfact>
</mgrwt>
</event>
<event>
 8    1  0.5815007E-006  0.1069453E+04  0.7818608E-02  0.8715769E-01
         21   -1    0    0  503  502  0.00000000000E+00  0.00000000000E+00  0.17337738347E+04  0.17337738347E+04  0.00000000000E+00 0. -1.
         21   -1    0    0  501  503 -0.00000000000E+00 -0.00000000000E+00 -0.64894557178E+03  0.64894557178E+03  0.00000000000E+00 0. -1.
    9000010    2    1    2  501    0 -0.12813337958E+03 -0.35092412671E+03  0.55639699134E+03  0.12055317186E+04  0.10020794414E+04 0.  0.
   -9000010    2    1    2    0  502  0.12813337958E+03  0.35092412671E+03  0.52843127162E+03  0.11771876880E+04  0.98334395722E+03 0.  0.
        -13    1    3    3    0    0 -0.43790120247E+03  0.10848810655E+02 -0.42785060631E+02  0.44012013404E+03  0.10566000000E+00 0.  1.
          4    1    3    3  501    0  0.30976782288E+03 -0.36177293736E+03  0.59918205197E+03  0.76541158451E+03  0.00000000000E+00 0.  1.
         13    1    4    4    0    0 -0.22769085909E+03  0.58335849753E+03  0.33556915221E+03  0.71046247687E+03  0.10566000000E+00 0. -1.
         -4    1    4    4    0  502  0.35582423868E+03 -0.23243437082E+03  0.19286211941E+03  0.46672521109E+03  0.00000000000E+00 0. -1.
<mgrwt>
<rscale>  2 0.10650418E+04</rscale>
<asrwt>0</asrwt>
<pdfrwt beam="1">  1       21 0.26673443E+00 0.10694527E+04</pdfrwt>
<pdfrwt beam="2">  1       21 0.99837781E-01 0.10694527E+04</pdfrwt>
<totfact> 0.18141319E+01</totfact>
</mgrwt>
</event>
<event>
 8    1  0.5815007E-006  0.1027649E+04  0.7818608E-02  0.8749975E-01
         21   -1    0    0  503  502  0.00000000000E+00  0.00000000000E+00  0.13256342483E+04  0.13256342483E+04  0.00000000000E+00 0. -1.
         21   -1    0    0  501  503 -0.00000000000E+00 -0.00000000000E+00 -0.79898584791E+03  0.79898584791E+03  0.00000000000E+00 0. -1.
    9000010    2    1    2  501    0  0.21258861113E+03  0.89749548803E+02  0.35216680934E+03  0.10863162405E+04  0.10014053194E+04 0.  0.
   -9000010    2    1    2    0  502 -0.21258861113E+03 -0.89749548803E+02  0.17448159101E+03  0.10383038557E+04  0.99718712990E+03 0.  0.
        -13    1    3    3    0    0 -0.15867764394E+03  0.46900139651E+03  0.20215169376E+03  0.53479549650E+03  0.10566000000E+00 0.  1.
          4    1    3    3  501    0  0.37126625507E+03 -0.37925184771E+03  0.15001511558E+03  0.55152074399E+03  0.00000000000E+00 0.  1.
         13    1    4    4    0    0 -0.45206575920E+03 -0.41494927693E+03  0.16015047584E+03  0.63418809445E+03  0.10566000000E+00 0. -1.
         -4    1    4    4    0  502  0.23947714807E+03  0.32519972812E+03  0.14331115171E+02  0.40411576124E+03  0.00000000000E+00 0. -1.
<mgrwt>
<rscale>  2 0.10266195E+04</rscale>
<asrwt>0</asrwt>
<pdfrwt beam="1">  1       21 0.20394373E+00 0.10276485E+04</pdfrwt>
<pdfrwt beam="2">  1       21 0.12292090E+00 0.10276485E+04</pdfrwt>
<totfact> 0.30375938E+01</totfact>
</mgrwt>
</event>
<event>
 8    1  0.5815007E-006  0.1497940E+04  0.7818608E-02  0.8412950E-01
         21   -1    0    0  501  502  0.00000000000E+00  0.00000000000E+00  0.16277411894E+04  0.16277411894E+04  0.00000000000E+00 0. -1.
         21   -1    0    0  502  503 -0.00000000000E+00 -0.00000000000E+00 -0.14938878552E+04  0.14938878552E+04  0.00000000000E+00 0.  1.
   -9000010    2    1    2    0  503  0.11018108838E+04 -0.85434779557E+02 -0.39336395571E+03  0.15336171833E+04  0.98790694799E+03 0.  0.
    9000010    2    1    2  501    0 -0.11018108838E+04  0.85434779557E+02  0.52721728993E+03  0.15880118613E+04  0.10112058521E+04 0.  0.
        -13    1    4    4    0    0 -0.30342648454E+03  0.49546067986E+03  0.33322830314E+03  0.66976863915E+03  0.10566000000E+00 0.  1.
          4    1    4    4  501    0 -0.79838439930E+03 -0.41002590030E+03  0.19398898679E+03  0.91824322211E+03  0.00000000000E+00 0.  1.
         13    1    3    3    0    0  0.11177238016E+04 -0.25055676792E+03 -0.57998404019E+03  0.12839262785E+04  0.10566000000E+00 0. -1.
         -4    1    3    3    0  503 -0.15912917747E+02  0.16512198836E+03  0.18662008449E+03  0.24969090477E+03  0.00000000000E+00 0. -1.
<mgrwt>
<rscale>  2 0.14940173E+04</rscale>
<asrwt>0</asrwt>
<pdfrwt beam="1">  1       21 0.25042172E+00 0.14979398E+04</pdfrwt>
<pdfrwt beam="2">  1       21 0.22982890E+00 0.14979398E+04</pdfrwt>
<totfact> 0.15634470E+00</totfact>
</mgrwt>
</event>
<event>
 8    1  0.5815007E-006  0.1046872E+04  0.7818608E-02  0.8739538E-01
         21   -1    0    0  503  502  0.00000000000E+00  0.00000000000E+00  0.62423761255E+03  0.62423761255E+03  0.00000000000E+00 0. -1.
         21   -1    0    0  501  503 -0.00000000000E+00 -0.00000000000E+00 -0.17362475629E+04  0.17362475629E+04  0.00000000000E+00 0. -1.
    9000010    2    1    2  501    0 -0.16163727268E+03  0.11015843178E+03 -0.73927261213E+03  0.12815870883E+04  0.10284356965E+04 0.  0.
   -9000010    2    1    2    0  502  0.16163727268E+03 -0.11015843178E+03 -0.37273733822E+03  0.10788980871E+04  0.99339139875E+03 0.  0.
        -13    1    3    3    0    0  0.14032553157E+03  0.27373618148E+03 -0.86329092975E+03  0.91645730529E+03  0.10566000000E+00 0.  1.
          4    1    3    3  501    0 -0.30196280425E+03 -0.16357774970E+03  0.12401831762E+03  0.36512978303E+03  0.00000000000E+00 0.  1.
         13    1    4    4    0    0  0.77641167455E+02  0.40570031667E+03 -0.37254294840E+03  0.55624559090E+03  0.10566000000E+00 0. -1.
         -4    1    4    4    0  502  0.83996105228E+02 -0.51585874844E+03 -0.19438982309E+00  0.52265249624E+03  0.00000000000E+00 0. -1.
<mgrwt>
<rscale>  2 0.10381627E+04</rscale>
<asrwt>0</asrwt>
<pdfrwt beam="1">  1       21 0.96036556E-01 0.10468722E+04</pdfrwt>
<pdfrwt beam="2">  1       21 0.26711501E+00 0.10468722E+04</pdfrwt>
<totfact> 0.20035230E+01</totfact>
</mgrwt>
</event>
<event>
 8    1  0.5815007E-006  0.1353106E+04  0.7818608E-02  0.8500140E-01
         21   -1    0    0  503  502  0.00000000000E+00  0.00000000000E+00  0.81994405666E+03  0.81994405666E+03  0.00000000000E+00 0. -1.
         21   -1    0    0  501  503 -0.00000000000E+00 -0.00000000000E+00 -0.23792676128E+04  0.23792676128E+04  0.00000000000E+00 0. -1.
    9000010    2    1    2  501    0  0.25027242889E+02 -0.91955253952E+03 -0.11874921039E+04  0.18002870289E+04  0.99231681118E+03 0.  0.
   -9000010    2    1    2    0  502 -0.25027242889E+02  0.91955253952E+03 -0.37183145224E+03  0.13989246406E+04  0.98616848726E+03 0.  0.
        -13    1    3    3    0    0 -0.25665473954E+03 -0.65240990274E+03 -0.18474041042E+03  0.72500990816E+03  0.10566000000E+00 0.  1.
          4    1    3    3  501    0  0.28168198243E+03 -0.26714263678E+03 -0.10027516935E+04  0.10752771207E+04  0.00000000000E+00 0.  1.
         13    1    4    4    0    0 -0.22121256455E+03 -0.14518710789E+03 -0.98019325095E+02  0.28217387241E+03  0.10566000000E+00 0. -1.
         -4    1    4    4    0  502  0.19618532166E+03  0.10647396474E+04 -0.27381212715E+03  0.11167507682E+04  0.00000000000E+00 0. -1.
<mgrwt>
<rscale>  2 0.13519790E+04</rscale>
<asrwt>0</asrwt>
<pdfrwt beam="1">  1       21 0.12614524E+00 0.13531060E+04</pdfrwt>
<pdfrwt beam="2">  1       21 0.36604117E+00 0.13531060E+04</pdfrwt>
<totfact> 0.17964729E+00</totfact>
</mgrwt>
</event>
<event>
 8    1  0.5815007E-006  0.1150505E+04  0.7818608E-02  0.8645506E-01
         21   -1    0    0  503  502  0.00000000000E+00  0.00000000000E+00  0.14768535480E+04  0.14768535480E+04  0.00000000000E+00 0. -1.
         21   -1    0    0  501  503 -0.00000000000E+00 -0.00000000000E+00 -0.11252665695E+04  0.11252665695E+04  0.00000000000E+00 0. -1.
    9000010    2    1    2  501    0  0.52596640043E+03 -0.20742262842E+03 -0.41447379274E+03  0.12228862838E+04  0.10019967750E+04 0.  0.
   -9000010    2    1    2    0  502 -0.52596640043E+03  0.20742262842E+03  0.76606077115E+03  0.13792338337E+04  0.99788379174E+03 0.  0.
        -13    1    3    3    0    0 -0.24033850955E+03 -0.89122919515E+02  0.11809112251E+03  0.28222511996E+03  0.10566000000E+00 0.  1.
          4    1    3    3  501    0  0.76630490998E+03 -0.11829970891E+03 -0.53256491525E+03  0.94066116383E+03  0.00000000000E+00 0.  1.
         13    1    4    4    0    0  0.75471128161E+02 -0.97360457362E+02 -0.17961705402E+03  0.21780093458E+03  0.10566000000E+00 0. -1.
         -4    1    4    4    0  502 -0.60143752859E+03  0.30478308578E+03  0.94567782517E+03  0.11614328991E+04  0.00000000000E+00 0. -1.
<mgrwt>
<rscale>  2 0.11496091E+04</rscale>
<asrwt>0</asrwt>
<pdfrwt beam="1">  1       21 0.22720824E+00 0.11505053E+04</pdfrwt>
<pdfrwt beam="2">  1       21 0.17311793E+00 0.11505053E+04</pdfrwt>
<totfact> 0.69187180E+00</totfact>
</mgrwt>
</event>
<event>
 8    1  0.5815007E-006  0.1035075E+04  0.7818608E-02  0.8747569E-01
         21   -1    0    0  501  502  0.00000000000E+00  0.00000000000E+00  0.13124936256E+04  0.13124936256E+04  0.00000000000E+00 0. -1.
         21   -1    0    0  502  503 -0.00000000000E+00 -0.00000000000E+00 -0.80083269246E+03  0.80083269246E+03  0.00000000000E+00 0. -1.
   -9000010    2    1    2    0  503 -0.18890303857E+03  0.25893771559E+02  0.19265591131E+03  0.10302083228E+04  0.99391048032E+03 0.  0.
    9000010    2    1    2  501    0  0.18890303857E+03 -0.25893771559E+02  0.31900502186E+03  0.10831179953E+04  0.10173620507E+04 0.  0.
        -13    1    4    4    0    0 -0.34862676047E+03 -0.27197281885E+03  0.16755570570E+03  0.47284749971E+03  0.10566000000E+00 0.  1.
          4    1    4    4  501    0  0.53752979903E+03  0.24607904729E+03  0.15144931616E+03  0.61027049554E+03  0.00000000000E+00 0.  1.
         13    1    3    3    0    0 -0.13774454752E+03 -0.38418401034E+03  0.39684428570E+03  0.56925944210E+03  0.10566000000E+00 0. -1.
         -4    1    3    3    0  503 -0.51158491045E+02  0.41007778190E+03 -0.20418837439E+03  0.46094888073E+03  0.00000000000E+00 0. -1.
<mgrwt>
<rscale>  2 0.10292661E+04</rscale>
<asrwt>0</asrwt>
<pdfrwt beam="1">  1       21 0.20192210E+00 0.10350751E+04</pdfrwt>
<pdfrwt beam="2">  1       21 0.12320503E+00 0.10350751E+04</pdfrwt>
<totfact> 0.31235276E+01</totfact>
</mgrwt>
</event>
<event>
 8    1  0.5815007E-006  0.1359415E+04  0.7818608E-02  0.8497587E-01
         21   -1    0    0  501  502  0.00000000000E+00  0.00000000000E+00  0.17979043878E+04  0.17979043878E+04  0.00000000000E+00 0.  1.
         21   -1    0    0  502  503 -0.00000000000E+00 -0.00000000000E+00 -0.10519914582E+04  0.10519914582E+04  0.00000000000E+00 0.  1.
   -9000010    2    1    2    0  503 -0.50925714786E+03 -0.69479093929E+03  0.11610016049E+03  0.13643642134E+04  0.10516335709E+04 0.  0.
    9000010    2    1    2  501    0  0.50925714786E+03  0.69479093929E+03  0.62981276911E+03  0.14855316326E+04  0.10334712455E+04 0.  0.
        -13    1    4    4    0    0  0.28462115447E+03  0.78347637037E+03  0.82665265929E+03  0.11739672290E+04  0.10566000000E+00 0.  1.
          4    1    4    4  501    0  0.22463599339E+03 -0.88685431088E+02 -0.19683989017E+03  0.31156440358E+03  0.00000000000E+00 0.  1.
         13    1    3    3    0    0 -0.28785497008E+03  0.19757059923E+03  0.25792369630E+03  0.43407288531E+03  0.10566000000E+00 0. -1.
         -4    1    3    3    0  503 -0.22140217778E+03 -0.89236153852E+03 -0.14182353582E+03  0.93029132806E+03  0.00000000000E+00 0. -1.
<mgrwt>
<rscale>  2 0.13559016E+04</rscale>
<asrwt>0</asrwt>
<pdfrwt beam="1">  1       21 0.27660067E+00 0.13594155E+04</pdfrwt>
<pdfrwt beam="2">  1       21 0.16184484E+00 0.13594155E+04</pdfrwt>
<totfact> 0.36053468E+00</totfact>
</mgrwt>
</event>
<event>
 8    1  0.5815007E-006  0.1008534E+04  0.7818608E-02  0.8819744E-01
         21   -1    0    0  501  502  0.00000000000E+00  0.00000000000E+00  0.91535688778E+03  0.91535688778E+03  0.00000000000E+00 0. -1.
         21   -1    0    0  502  503 -0.00000000000E+00 -0.00000000000E+00 -0.90091093714E+03  0.90091093714E+03  0.00000000000E+00 0. -1.
   -9000010    2    1    2    0  503  0.12520551009E+03  0.77226812451E+02 -0.41463030982E+02  0.80618581520E+03  0.79156552816E+03 0.  0.
    9000010    2    1    2  501    0 -0.12520551009E+03 -0.77226812451E+02  0.55908981622E+02  0.10100820097E+04  0.99774718834E+03 0.  0.
        -13    1    4    4    0    0  0.81807143281E+02 -0.50145755587E+03 -0.90011575447E+02  0.51599824022E+03  0.10566000000E+00 0.  1.
          4    1    4    4  501    0 -0.20701265338E+03  0.42423074342E+03  0.14592055707E+03  0.49408376951E+03  0.00000000000E+00 0.  1.
         13    1    3    3    0    0  0.32171013068E+03  0.18657093013E+03 -0.28956739122E+03  0.47133364550E+03  0.10566000000E+00 0. -1.
         -4    1    3    3    0  503 -0.19650462059E+03 -0.10934411768E+03  0.24810436024E+03  0.33485216970E+03  0.00000000000E+00 0. -1.
<mgrwt>
<rscale>  2 0.95330693E+03</rscale>
<asrwt>0</asrwt>
<pdfrwt beam="1">  1       21 0.14082414E+00 0.10085335E+04</pdfrwt>
<pdfrwt beam="2">  1       21 0.13860168E+00 0.10085335E+04</pdfrwt>
<totfact> 0.72776090E+01</totfact>
</mgrwt>
</event>
<event>
 8    1  0.5815007E-006  0.1035981E+04  0.7818608E-02  0.8743260E-01
         21   -1    0    0  503  502  0.00000000000E+00  0.00000000000E+00  0.81785752716E+03  0.81785752716E+03  0.00000000000E+00 0.  1.
         21   -1    0    0  501  503 -0.00000000000E+00 -0.00000000000E+00 -0.13041424535E+04  0.13041424535E+04  0.00000000000E+00 0.  1.
    9000010    2    1    2  501    0 -0.27858568810E+03  0.13063616001E+03 -0.28064288558E+03  0.10658060712E+04  0.98107408503E+03 0.  0.
   -9000010    2    1    2    0  502  0.27858568810E+03 -0.13063616001E+03 -0.20564204079E+03  0.10561939095E+04  0.98923259830E+03 0.  0.
        -13    1    3    3    0    0 -0.28379848679E+01  0.37850612449E+03  0.22382056033E+03  0.43973923503E+03  0.10566000000E+00 0.  1.
          4    1    3    3  501    0 -0.27574770323E+03 -0.24786996447E+03 -0.50446344591E+03  0.62606683620E+03  0.00000000000E+00 0.  1.
         13    1    4    4    0    0  0.29822154108E+02  0.35727146772E+03 -0.33804174365E+03  0.49275196005E+03  0.10566000000E+00 0. -1.
         -4    1    4    4    0  502  0.24876353399E+03 -0.48790762773E+03  0.13239970286E+03  0.56344194942E+03  0.00000000000E+00 0. -1.
<mgrwt>
<rscale>  2 0.10340288E+04</rscale>
<asrwt>0</asrwt>
<pdfrwt beam="1">  1       21 0.12582424E+00 0.10359811E+04</pdfrwt>
<pdfrwt beam="2">  1       21 0.20063730E+00 0.10359811E+04</pdfrwt>
<totfact> 0.30100738E+01</totfact>
</mgrwt>
</event>
<event>
 8    1  0.5815007E-006  0.1053292E+04  0.7818608E-02  0.8733850E-01
         21   -1    0    0  503  502  0.00000000000E+00  0.00000000000E+00  0.58990126292E+03  0.58990126292E+03  0.00000000000E+00 0.  1.
         21   -1    0    0  501  503 -0.00000000000E+00 -0.00000000000E+00 -0.18889489283E+04  0.18889489283E+04  0.00000000000E+00 0.  1.
    9000010    2    1    2  501    0 -0.11316032250E+03  0.18160486939E+03 -0.40114419049E+03  0.10947782545E+04  0.99591022575E+03 0.  0.
   -9000010    2    1    2    0  502  0.11316032250E+03 -0.18160486939E+03 -0.89790347484E+03  0.13840719367E+04  0.10313287006E+04 0.  0.
        -13    1    3    3    0    0 -0.17274766268E+03  0.48521155257E+03 -0.54821404546E+03  0.75220386632E+03  0.10566000000E+00 0.  1.
          4    1    3    3  501    0  0.59587340186E+02 -0.30360668318E+03  0.14706985497E+03  0.34257438816E+03  0.00000000000E+00 0.  1.
         13    1    4    4    0    0 -0.37027122158E+03 -0.28548919180E+03 -0.15677812354E+03  0.49313714862E+03  0.10566000000E+00 0. -1.
         -4    1    4    4    0  502  0.48343154408E+03  0.10388432241E+03 -0.74112535130E+03  0.89093478807E+03  0.00000000000E+00 0. -1.
<mgrwt>
<rscale>  2 0.10445196E+04</rscale>
<asrwt>0</asrwt>
<pdfrwt beam="1">  1       21 0.90754040E-01 0.10532922E+04</pdfrwt>
<pdfrwt beam="2">  1       21 0.29060753E+00 0.10532922E+04</pdfrwt>
<totfact> 0.15722444E+01</totfact>
</mgrwt>
</event>
<event>
 8    1  0.5815007E-006  0.1191265E+04  0.7818608E-02  0.8614809E-01
         21   -1    0    0  501  502  0.00000000000E+00  0.00000000000E+00  0.22631500440E+04  0.22631500440E+04  0.00000000000E+00 0.  1.
         21   -1    0    0  502  503 -0.00000000000E+00 -0.00000000000E+00 -0.72575471728E+03  0.72575471728E+03  0.00000000000E+00 0.  1.
   -9000010    2    1    2    0  503 -0.51981748081E+03 -0.36718988233E+03  0.20748491962E+03  0.12091992502E+04  0.10070125181E+04 0.  0.
    9000010    2    1    2  501    0  0.51981748081E+03  0.36718988233E+03  0.13299104071E+04  0.17797055111E+04  0.99682064203E+03 0.  0.
        -13    1    4    4    0    0  0.13104395087E+03  0.67384939316E+03  0.80902395740E+03  0.10610208747E+04  0.10566000000E+00 0.  1.
          4    1    4    4  501    0  0.38877352994E+03 -0.30665951083E+03  0.52088644969E+03  0.71868463642E+03  0.00000000000E+00 0.  1.
         13    1    3    3    0    0 -0.11386172337E+03  0.71350961959E+02 -0.36051031490E+03  0.38473776801E+03  0.10566000000E+00 0. -1.
         -4    1    3    3    0  503 -0.40595575743E+03 -0.43854084429E+03  0.56799523452E+03  0.82446148214E+03  0.00000000000E+00 0. -1.
<mgrwt>
<rscale>  2 0.11891086E+04</rscale>
<asrwt>0</asrwt>
<pdfrwt beam="1">  1       21 0.34817693E+00 0.11912652E+04</pdfrwt>
<pdfrwt beam="2">  1       21 0.11165457E+00 0.11912652E+04</pdfrwt>
<totfact> 0.34811639E+00</totfact>
</mgrwt>
</event>
<event>
 8    1  0.5815007E-006  0.1104858E+04  0.7818608E-02  0.8696167E-01
         21   -1    0    0  503  502  0.00000000000E+00  0.00000000000E+00  0.10426512319E+04  0.10426512319E+04  0.00000000000E+00 0. -1.
         21   -1    0    0  501  503 -0.00000000000E+00 -0.00000000000E+00 -0.11072001289E+04  0.11072001289E+04  0.00000000000E+00 0. -1.
    9000010    2    1    2  501    0 -0.12063432017E+03  0.25517212953E+03  0.44601188444E+02  0.11057579268E+04  0.10681974873E+04 0.  0.
   -9000010    2    1    2    0  502  0.12063432017E+03 -0.25517212953E+03 -0.10915008544E+03  0.10440934339E+04  0.99927568905E+03 0.  0.
        -13    1    3    3    0    0 -0.11415784861E+03  0.18890094983E+03  0.55174873177E+03  0.59425773653E+03  0.10566000000E+00 0.  1.
          4    1    3    3  501    0 -0.64764715562E+01  0.66271179700E+02 -0.50714754333E+03  0.51150019027E+03  0.00000000000E+00 0.  1.
         13    1    4    4    0    0  0.23915902331E+03 -0.61094236823E+03 -0.97856312341E+01  0.65615804915E+03  0.10566000000E+00 0. -1.
         -4    1    4    4    0  502 -0.11852470314E+03  0.35577023870E+03 -0.99364454207E+02  0.38793538477E+03  0.00000000000E+00 0. -1.
<mgrwt>
<rscale>  2 0.10878478E+04</rscale>
<asrwt>0</asrwt>
<pdfrwt beam="1">  1       21 0.16040788E+00 0.11048581E+04</pdfrwt>
<pdfrwt beam="2">  1       21 0.17033848E+00 0.11048581E+04</pdfrwt>
<totfact> 0.25078587E+01</totfact>
</mgrwt>
</event>
<event>
 8    1  0.5815007E-006  0.1041597E+04  0.7818608E-02  0.8739238E-01
         21   -1    0    0  501  502  0.00000000000E+00  0.00000000000E+00  0.83377519855E+03  0.83377519855E+03  0.00000000000E+00 0.  1.
         21   -1    0    0  502  503 -0.00000000000E+00 -0.00000000000E+00 -0.15798744667E+04  0.15798744667E+04  0.00000000000E+00 0.  1.
   -9000010    2    1    2    0  503  0.25257488919E+03  0.11682192945E+03  0.14938471703E+03  0.10400354893E+04  0.99091704369E+03 0.  0.
    9000010    2    1    2  501    0 -0.25257488919E+03 -0.11682192945E+03 -0.89548398521E+03  0.13736141760E+04  0.10037344763E+04 0.  0.
        -13    1    4    4    0    0  0.38553126833E+03  0.77155531405E+01 -0.26440160482E+03  0.46754904386E+03  0.10566000000E+00 0.  1.
          4    1    4    4  501    0 -0.63810615751E+03 -0.12453748259E+03 -0.63108238039E+03  0.90606513213E+03  0.00000000000E+00 0.  1.
         13    1    3    3    0    0 -0.18184688877E+02 -0.43421987361E+02 -0.40224419301E+03  0.40498957255E+03  0.10566000000E+00 0. -1.
         -4    1    3    3    0  503  0.27075957806E+03  0.16024391681E+03  0.55162891004E+03  0.63504591675E+03  0.00000000000E+00 0. -1.
<mgrwt>
<rscale>  2 0.10384967E+04</rscale>
<asrwt>0</asrwt>
<pdfrwt beam="1">  1       21 0.12827311E+00 0.10415970E+04</pdfrwt>
<pdfrwt beam="2">  1       21 0.24305761E+00 0.10415970E+04</pdfrwt>
<totfact> 0.13636581E+01</totfact>
</mgrwt>
</event>
<event>
 8    1  0.5815007E-006  0.1303834E+04  0.7818608E-02  0.8573393E-01
         21   -1    0    0  503  502  0.00000000000E+00  0.00000000000E+00  0.12728085712E+04  0.12728085712E+04  0.00000000000E+00 0. -1.
         21   -1    0    0  501  503 -0.00000000000E+00 -0.00000000000E+00 -0.11213140553E+04  0.11213140553E+04  0.00000000000E+00 0. -1.
    9000010    2    1    2  501    0 -0.32159989388E+03 -0.17412897978E+03  0.28284566291E+02  0.10844801265E+04  0.10205634399E+04 0.  0.
   -9000010    2    1    2    0  502  0.32159989388E+03  0.17412897978E+03  0.12320994957E+03  0.13096425000E+04  0.12514932652E+04 0.  0.
        -13    1    3    3    0    0 -0.11868474727E+03  0.38431512480E+03 -0.19845731898E+03  0.44851923371E+03  0.10566000000E+00 0.  1.
          4    1    3    3  501    0 -0.20291514660E+03 -0.55844410458E+03  0.22674188527E+03  0.63596089282E+03  0.00000000000E+00 0.  1.
         13    1    4    4    0    0 -0.46577730656E+03  0.83520511351E+02  0.19922038847E+03  0.51343251696E+03  0.10566000000E+00 0. -1.
         -4    1    4    4    0  502  0.78737720044E+03  0.90608468426E+02 -0.76010438898E+02  0.79620998307E+03  0.00000000000E+00 0. -1.
<mgrwt>
<rscale>  2 0.12450453E+04</rscale>
<asrwt>0</asrwt>
<pdfrwt beam="1">  1       21 0.19581670E+00 0.13038339E+04</pdfrwt>
<pdfrwt beam="2">  1       21 0.17250985E+00 0.13038339E+04</pdfrwt>
<totfact> 0.11814747E+01</totfact>
</mgrwt>
</event>
<event>
 8    1  0.5815007E-006  0.1097175E+04  0.7818608E-02  0.8691494E-01
         21   -1    0    0  501  502  0.00000000000E+00  0.00000000000E+00  0.27825848230E+04  0.27825848230E+04  0.00000000000E+00 0. -1.
         21   -1    0    0  502  503 -0.00000000000E+00 -0.00000000000E+00 -0.44003989904E+03  0.44003989904E+03  0.00000000000E+00 0. -1.
   -9000010    2    1    2    0  503 -0.35239537886E+03  0.27030236431E+03  0.89831169512E+03  0.14180119475E+04  0.10032687130E+04 0.  0.
    9000010    2    1    2  501    0  0.35239537886E+03 -0.27030236431E+03  0.14442332288E+04  0.18046127745E+04  0.98669740829E+03 0.  0.
        -13    1    4    4    0    0 -0.81672332227E+02  0.22030398171E+03  0.96440273343E+03  0.99261113112E+03  0.10566000000E+00 0.  1.
          4    1    4    4  501    0  0.43406771108E+03 -0.49060634602E+03  0.47983049537E+03  0.81200164338E+03  0.00000000000E+00 0.  1.
         13    1    3    3    0    0  0.13151515525E+03  0.49612990315E+03  0.65239951897E+03  0.83010015081E+03  0.10566000000E+00 0. -1.
         -4    1    3    3    0  503 -0.48391053411E+03 -0.22582753883E+03  0.24591217615E+03  0.58791179670E+03  0.00000000000E+00 0. -1.
<mgrwt>
<rscale>  2 0.10933727E+04</rscale>
<asrwt>0</asrwt>
<pdfrwt beam="1">  1       21 0.42808996E+00 0.10971755E+04</pdfrwt>
<pdfrwt beam="2">  1       21 0.67698448E-01 0.10971755E+04</pdfrwt>
<totfact> 0.34829895E+00</totfact>
</mgrwt>
</event>
<event>
 8    1  0.5815007E-006  0.1267060E+04  0.7818608E-02  0.8558473E-01
         21   -1    0    0  501  502  0.00000000000E+00  0.00000000000E+00  0.12215572136E+04  0.12215572136E+04  0.00000000000E+00 0.  1.
         21   -1    0    0  502  503 -0.00000000000E+00 -0.00000000000E+00 -0.16771378586E+04  0.16771378586E+04  0.00000000000E+00 0.  1.
   -9000010    2    1    2    0  503  0.17839922450E+03 -0.75199331923E+03 -0.90643323306E+03  0.15579032310E+04  0.10040523073E+04 0.  0.
    9000010    2    1    2  501    0 -0.17839922450E+03  0.75199331923E+03  0.45085258808E+03  0.13407918412E+04  0.99856620696E+03 0.  0.
        -13    1    4    4    0    0 -0.37951548283E+03  0.65436998830E+03  0.68251489586E+03  0.10188516465E+04  0.10566000000E+00 0.  1.
          4    1    4    4  501    0  0.20111625834E+03  0.97623330934E+02 -0.23166230778E+03  0.32194019469E+03  0.00000000000E+00 0.  1.
         13    1    3    3    0    0  0.33158346267E+03  0.13831492580E+03 -0.31780506187E+03  0.47966517482E+03  0.10566000000E+00 0. -1.
         -4    1    3    3    0  503 -0.15318423818E+03 -0.89030824503E+03 -0.58862817119E+03  0.10782380562E+04  0.00000000000E+00 0. -1.
<mgrwt>
<rscale>  2 0.12659730E+04</rscale>
<asrwt>0</asrwt>
<pdfrwt beam="1">  1       21 0.18793188E+00 0.12670601E+04</pdfrwt>
<pdfrwt beam="2">  1       21 0.25802121E+00 0.12670601E+04</pdfrwt>
<totfact> 0.30318312E+00</totfact>
</mgrwt>
</event>
<event>
 8    1  0.5815007E-006  0.1338772E+04  0.7818608E-02  0.8510360E-01
         21   -1    0    0  503  502  0.00000000000E+00  0.00000000000E+00  0.12297400300E+04  0.12297400300E+04  0.00000000000E+00 0. -1.
         21   -1    0    0  501  503 -0.00000000000E+00 -0.00000000000E+00 -0.15924283847E+04  0.15924283847E+04  0.00000000000E+00 0. -1.
    9000010    2    1    2  501    0 -0.78220962949E+03 -0.39155389307E+03 -0.60683469495E+03  0.14613167749E+04  0.10010154914E+04 0.  0.
   -9000010    2    1    2    0  502  0.78220962949E+03  0.39155389307E+03  0.24414634017E+03  0.13608516398E+04  0.10134808308E+04 0.  0.
        -13    1    3    3    0    0 -0.99658145959E+03 -0.43817560306E+03 -0.40003190992E+03  0.11598267133E+04  0.10566000000E+00 0.  1.
          4    1    3    3  501    0  0.21437183010E+03  0.46621709997E+02 -0.20680278503E+03  0.30149006166E+03  0.00000000000E+00 0.  1.
         13    1    4    4    0    0  0.13237558400E+03  0.60789888418E+03 -0.30603217306E+02  0.62289719593E+03  0.10566000000E+00 0. -1.
         -4    1    4    4    0  502  0.64983404549E+03 -0.21634499111E+03  0.27474955748E+03  0.73795444385E+03  0.00000000000E+00 0. -1.
<mgrwt>
<rscale>  2 0.13364126E+04</rscale>
<asrwt>0</asrwt>
<pdfrwt beam="1">  1       21 0.18919077E+00 0.13387717E+04</pdfrwt>
<pdfrwt beam="2">  1       21 0.24498898E+00 0.13387717E+04</pdfrwt>
<totfact> 0.36337555E+00</totfact>
</mgrwt>
</event>
<event>
 8    1  0.5815007E-006  0.1133204E+04  0.7818608E-02  0.8659578E-01
         21   -1    0    0  501  502  0.00000000000E+00  0.00000000000E+00  0.20037102359E+04  0.20037102359E+04  0.00000000000E+00 0.  1.
         21   -1    0    0  502  503 -0.00000000000E+00 -0.00000000000E+00 -0.65723864224E+03  0.65723864224E+03  0.00000000000E+00 0. -1.
   -9000010    2    1    2    0  503 -0.33516216597E+03 -0.40153246291E+03  0.44843339656E+03  0.12187054263E+04  0.10052802638E+04 0.  0.
    9000010    2    1    2  501    0  0.33516216597E+03  0.40153246291E+03  0.89803819713E+03  0.14422434518E+04  0.10000157872E+04 0.  0.
        -13    1    4    4    0    0  0.31248872982E+03  0.42858651401E+03 -0.12952706463E+02  0.53056893051E+03  0.10566000000E+00 0.  1.
          4    1    4    4  501    0  0.22673436142E+02 -0.27054051094E+02  0.91099090359E+03  0.91167452132E+03  0.00000000000E+00 0.  1.
         13    1    3    3    0    0 -0.14320503585E+03 -0.67495224056E+03  0.40123986461E+02  0.69114264431E+03  0.10566000000E+00 0. -1.
         -4    1    3    3    0  503 -0.19195713011E+03  0.27341977764E+03  0.40830941010E+03  0.52756278203E+03  0.00000000000E+00 0. -1.
<mgrwt>
<rscale>  2 0.11320349E+04</rscale>
<asrwt>0</asrwt>
<pdfrwt beam="1">  1       21 0.30826311E+00 0.11332036E+04</pdfrwt>
<pdfrwt beam="2">  1       21 0.10111364E+00 0.11332036E+04</pdfrwt>
<totfact> 0.87673334E+00</totfact>
</mgrwt>
</event>
<event>
 8    1  0.5815007E-006  0.1145179E+04  0.7818608E-02  0.8653460E-01
         21   -1    0    0  501  502  0.00000000000E+00  0.00000000000E+00  0.18743375125E+04  0.18743375125E+04  0.00000000000E+00 0.  1.
         21   -1    0    0  502  503 -0.00000000000E+00 -0.00000000000E+00 -0.69086035532E+03  0.69086035532E+03  0.00000000000E+00 0. -1.
   -9000010    2    1    2    0  503  0.37785312613E+03 -0.35291878101E+03  0.48174254609E+03  0.12221168568E+04  0.99708027758E+03 0.  0.
    9000010    2    1    2  501    0 -0.37785312613E+03  0.35291878101E+03  0.70173461107E+03  0.13430810110E+04  0.10218172473E+04 0.  0.
        -13    1    4    4    0    0  0.80081341486E+02  0.61180389589E+03  0.33807826380E+03  0.70357227909E+03  0.10566000000E+00 0.  1.
          4    1    4    4  501    0 -0.45793446761E+03 -0.25888511488E+03  0.36365634727E+03  0.63950873196E+03  0.00000000000E+00 0.  1.
         13    1    3    3    0    0  0.77087837169E+02 -0.65985502409E+03  0.15476441987E+03  0.68213138344E+03  0.10566000000E+00 0. -1.
         -4    1    3    3    0  503  0.30076528896E+03  0.30693624308E+03  0.32697812622E+03  0.53998547331E+03  0.00000000000E+00 0. -1.
<mgrwt>
<rscale>  2 0.11396348E+04</rscale>
<asrwt>0</asrwt>
<pdfrwt beam="1">  1       21 0.28835962E+00 0.11451791E+04</pdfrwt>
<pdfrwt beam="2">  1       21 0.10628621E+00 0.11451791E+04</pdfrwt>
<totfact> 0.10598197E+01</totfact>
</mgrwt>
</event>
<event>
 8    1  0.5815007E-006  0.1023292E+04  0.7818608E-02  0.8755317E-01
         21   -1    0    0  501  502  0.00000000000E+00  0.00000000000E+00  0.69035699137E+03  0.69035699137E+03  0.00000000000E+00 0. -1.
         21   -1    0    0  502  503 -0.00000000000E+00 -0.00000000000E+00 -0.15377710381E+04  0.15377710381E+04  0.00000000000E+00 0. -1.
   -9000010    2    1    2    0  503  0.92395837460E+02 -0.23557164148E+03 -0.59582359340E+03  0.11841164053E+04  0.99151143106E+03 0.  0.
    9000010    2    1    2  501    0 -0.92395837460E+02  0.23557164148E+03 -0.25159045329E+03  0.10440116241E+04  0.98113787306E+03 0.  0.
        -13    1    4    4    0    0 -0.19240320248E+03 -0.18805676045E+03  0.25873703746E+03  0.37326827241E+03  0.10566000000E+00 0.  1.
          4    1    4    4  501    0  0.10000736502E+03  0.42362840193E+03 -0.51032749075E+03  0.67074335166E+03  0.00000000000E+00 0.  1.
         13    1    3    3    0    0 -0.64016464128E+02  0.37939167362E+03 -0.17479581303E+03  0.42259878976E+03  0.10566000000E+00 0. -1.
         -4    1    3    3    0  503  0.15641230159E+03 -0.61496331510E+03 -0.42102778037E+03  0.76151761559E+03  0.00000000000E+00 0. -1.
<mgrwt>
<rscale>  2 0.10207704E+04</rscale>
<asrwt>0</asrwt>
<pdfrwt beam="1">  1       21 0.10620877E+00 0.10232917E+04</pdfrwt>
<pdfrwt beam="2">  1       21 0.23658016E+00 0.10232917E+04</pdfrwt>
<totfact> 0.25770277E+01</totfact>
</mgrwt>
</event>
<event>
 8    1  0.5815007E-006  0.1416044E+04  0.7818608E-02  0.8459915E-01
         21   -1    0    0  501  502  0.00000000000E+00  0.00000000000E+00  0.10039547732E+04  0.10039547732E+04  0.00000000000E+00 0. -1.
         21   -1    0    0  502  503 -0.00000000000E+00 -0.00000000000E+00 -0.22615813202E+04  0.22615813202E+04  0.00000000000E+00 0.  1.
   -9000010    2    1    2    0  503 -0.12021645449E+03  0.98829058959E+03 -0.11903039305E+04  0.18478925011E+04  0.10033508675E+04 0.  0.
    9000010    2    1    2  501    0  0.12021645449E+03 -0.98829058959E+03 -0.67322616538E+02  0.14176435922E+04  0.10069810001E+04 0.  0.
        -13    1    4    4    0    0 -0.39986545518E+03 -0.34585974735E+03 -0.22775127048E+03  0.57565788404E+03  0.10566000000E+00 0.  1.
          4    1    4    4  501    0  0.52008190967E+03 -0.64243084224E+03  0.16042865394E+03  0.84198570821E+03  0.00000000000E+00 0.  1.
         13    1    3    3    0    0  0.24276165724E+03  0.94032992347E+02 -0.73698451240E+03  0.78161474434E+03  0.10566000000E+00 0. -1.
         -4    1    3    3    0  503 -0.36297811173E+03  0.89425759724E+03 -0.45331941808E+03  0.10662777568E+04  0.00000000000E+00 0. -1.
<mgrwt>
<rscale>  2 0.14153989E+04</rscale>
<asrwt>0</asrwt>
<pdfrwt beam="1">  1       21 0.15445458E+00 0.14160441E+04</pdfrwt>
<pdfrwt beam="2">  1       21 0.34793559E+00 0.14160441E+04</pdfrwt>
<totfact> 0.12965456E+00</totfact>
</mgrwt>
</event>
<event>
 8    1  0.5815007E-006  0.1011904E+04  0.7818608E-02  0.8763675E-01
         21   -1    0    0  501  502  0.00000000000E+00  0.00000000000E+00  0.88970638376E+03  0.88970638376E+03  0.00000000000E+00 0.  1.
         21   -1    0    0  502  503 -0.00000000000E+00 -0.00000000000E+00 -0.11770781589E+04  0.11770781589E+04  0.00000000000E+00 0.  1.
   -9000010    2    1    2    0  503 -0.13637081734E+03  0.75700336652E+02  0.13222747946E+02  0.10111768460E+04  0.99898760355E+03 0.  0.
    9000010    2    1    2  501    0  0.13637081734E+03 -0.75700336652E+02 -0.30059452308E+03  0.10556076967E+04  0.99981148280E+03 0.  0.
        -13    1    4    4    0    0  0.36900916128E+02 -0.41379044584E+03  0.18569341231E+03  0.45504534413E+03  0.10566000000E+00 0.  1.
          4    1    4    4  501    0  0.99469901212E+02  0.33809010918E+03 -0.48628793538E+03  0.60056235253E+03  0.00000000000E+00 0.  1.
         13    1    3    3    0    0  0.25639990381E+03 -0.31405941966E+03  0.16450242647E+03  0.43753318643E+03  0.10566000000E+00 0. -1.
         -4    1    3    3    0  503 -0.39277072114E+03  0.38975975632E+03 -0.15127967852E+03  0.57364365957E+03  0.00000000000E+00 0. -1.
<mgrwt>
<rscale>  2 0.10117008E+04</rscale>
<asrwt>0</asrwt>
<pdfrwt beam="1">  1       21 0.13687791E+00 0.10119044E+04</pdfrwt>
<pdfrwt beam="2">  1       21 0.18108895E+00 0.10119044E+04</pdfrwt>
<totfact> 0.33923533E+01</totfact>
</mgrwt>
</event>
<event>
 8    1  0.5815007E-006  0.1093699E+04  0.7818608E-02  0.8694187E-01
         21   -1    0    0  503  502  0.00000000000E+00  0.00000000000E+00  0.92581922795E+03  0.92581922795E+03  0.00000000000E+00 0.  1.
         21   -1    0    0  501  503 -0.00000000000E+00 -0.00000000000E+00 -0.12915287229E+04  0.12915287229E+04  0.00000000000E+00 0.  1.
    9000010    2    1    2  501    0 -0.27504498892E+03  0.31706987725E+03 -0.60702758511E+02  0.10953819854E+04  0.10099474324E+04 0.  0.
   -9000010    2    1    2    0  502  0.27504498892E+03 -0.31706987725E+03 -0.30500673647E+03  0.11219659654E+04  0.99478413002E+03 0.  0.
        -13    1    3    3    0    0 -0.19233168703E+03  0.51096519602E+03  0.33960092200E+03  0.64296633408E+03  0.10566000000E+00 0.  1.
          4    1    3    3  501    0 -0.82713301898E+02 -0.19389531877E+03 -0.40030368051E+03  0.45241565135E+03  0.00000000000E+00 0.  1.
         13    1    4    4    0    0  0.27925794394E+03  0.14191213531E+03 -0.52625168409E+03  0.61242542368E+03  0.10566000000E+00 0. -1.
         -4    1    4    4    0  502 -0.42129550138E+01 -0.45898201257E+03  0.22124494762E+03  0.50954054176E+03  0.00000000000E+00 0. -1.
<mgrwt>
<rscale>  2 0.10901852E+04</rscale>
<asrwt>0</asrwt>
<pdfrwt beam="1">  1       21 0.14243373E+00 0.10936987E+04</pdfrwt>
<pdfrwt beam="2">  1       21 0.19869672E+00 0.10936987E+04</pdfrwt>
<totfact> 0.21411646E+01</totfact>
</mgrwt>
</event>
<event>
 8    1  0.5815007E-006  0.1087563E+04  0.7818608E-02  0.8703166E-01
         21   -1    0    0  501  502  0.00000000000E+00  0.00000000000E+00  0.43285073391E+03  0.43285073391E+03  0.00000000000E+00 0.  1.
         21   -1    0    0  502  503 -0.00000000000E+00 -0.00000000000E+00 -0.26684119638E+04  0.26684119638E+04  0.00000000000E+00 0.  1.
   -9000010    2    1    2    0  503 -0.25797736364E+03 -0.28579765207E+03 -0.12465994511E+04  0.16543284034E+04  0.10171330576E+04 0.  0.
    9000010    2    1    2  501    0  0.25797736364E+03  0.28579765207E+03 -0.98896177883E+03  0.14469342943E+04  0.98353486665E+03 0.  0.
        -13    1    4    4    0    0  0.33526491611E+03  0.51135021608E+03 -0.23313900932E+03  0.65439698677E+03  0.10566000000E+00 0.  1.
          4    1    4    4  501    0 -0.77287552464E+02 -0.22555256402E+03 -0.75582276952E+03  0.79253730753E+03  0.00000000000E+00 0.  1.
         13    1    3    3    0    0 -0.54969311111E+03  0.13971238572E+03 -0.57757194900E+03  0.80948837828E+03  0.10566000000E+00 0. -1.
         -4    1    3    3    0  503  0.29171574747E+03 -0.42551003779E+03 -0.66902750209E+03  0.84484002517E+03  0.00000000000E+00 0. -1.
<mgrwt>
<rscale>  2 0.10796375E+04</rscale>
<asrwt>0</asrwt>
<pdfrwt beam="1">  1       21 0.66592420E-01 0.10875625E+04</pdfrwt>
<pdfrwt beam="2">  1       21 0.41052492E+00 0.10875625E+04</pdfrwt>
<totfact> 0.47952203E+00</totfact>
</mgrwt>
</event>
<event>
 8    1  0.5815007E-006  0.1227303E+04  0.7818608E-02  0.8589261E-01
         21   -1    0    0  501  502  0.00000000000E+00  0.00000000000E+00  0.27975078383E+04  0.27975078383E+04  0.00000000000E+00 0.  1.
         21   -1    0    0  502  503 -0.00000000000E+00 -0.00000000000E+00 -0.65260995091E+03  0.65260995091E+03  0.00000000000E+00 0.  1.
   -9000010    2    1    2    0  503  0.57630930705E+03 -0.31895829324E+03  0.33471563357E+03  0.12721268649E+04  0.10355700820E+04 0.  0.
    9000010    2    1    2  501    0 -0.57630930705E+03  0.31895829324E+03  0.18101822538E+04  0.21779909243E+04  0.10163748641E+04 0.  0.
        -13    1    4    4    0    0 -0.53693921624E+03  0.24684262640E+03  0.19379688172E+04  0.20260696315E+04  0.10566000000E+00 0.  1.
          4    1    4    4  501    0 -0.39370090808E+02  0.72115666844E+02 -0.12778656336E+03  0.15192129288E+03  0.00000000000E+00 0.  1.
         13    1    3    3    0    0  0.75259735216E+03 -0.45945043291E+03  0.48000110962E+03  0.10039415078E+04  0.10566000000E+00 0. -1.
         -4    1    3    3    0  503 -0.17628804511E+03  0.14049213967E+03 -0.14528547605E+03  0.26818535700E+03  0.00000000000E+00 0. -1.
<mgrwt>
<rscale>  2 0.12232446E+04</rscale>
<asrwt>0</asrwt>
<pdfrwt beam="1">  1       21 0.43038582E+00 0.12273028E+04</pdfrwt>
<pdfrwt beam="2">  1       21 0.10040153E+00 0.12273028E+04</pdfrwt>
<totfact> 0.12286407E+00</totfact>
</mgrwt>
</event>
<event>
 8    1  0.5815007E-006  0.1053745E+04  0.7818608E-02  0.8728003E-01
         21   -1    0    0  501  502  0.00000000000E+00  0.00000000000E+00  0.87392006016E+03  0.87392006016E+03  0.00000000000E+00 0.  1.
         21   -1    0    0  502  503 -0.00000000000E+00 -0.00000000000E+00 -0.13310059059E+04  0.13310059059E+04  0.00000000000E+00 0.  1.
   -9000010    2    1    2    0  503 -0.31810983529E+03  0.71311380532E+02 -0.48581680146E+03  0.11507894615E+04  0.99096883892E+03 0.  0.
    9000010    2    1    2  501    0  0.31810983529E+03 -0.71311380532E+02  0.28730955677E+02  0.10541365046E+04  0.10020474651E+04 0.  0.
        -13    1    4    4    0    0 -0.79837644205E+02 -0.34418331252E+03  0.33150665937E+03  0.48449239254E+03  0.10566000000E+00 0.  1.
          4    1    4    4  501    0  0.39794747950E+03  0.27287193199E+03 -0.30277570370E+03  0.56964411211E+03  0.00000000000E+00 0.  1.
         13    1    3    3    0    0 -0.56058797918E+03  0.34198946185E+03 -0.19401728980E+03  0.68473235233E+03  0.10566000000E+00 0. -1.
         -4    1    3    3    0  503  0.24247814389E+03 -0.27067808131E+03 -0.29179951166E+03  0.46605710913E+03  0.00000000000E+00 0. -1.
<mgrwt>
<rscale>  2 0.10511026E+04</rscale>
<asrwt>0</asrwt>
<pdfrwt beam="1">  1       21 0.13444924E+00 0.10537449E+04</pdfrwt>
<pdfrwt beam="2">  1       21 0.20477014E+00 0.10537449E+04</pdfrwt>
<totfact> 0.22995574E+01</totfact>
</mgrwt>
</event>
<event>
 8    1  0.5815007E-006  0.1152297E+04  0.7818608E-02  0.8644795E-01
         21   -1    0    0  503  502  0.00000000000E+00  0.00000000000E+00  0.76068119843E+03  0.76068119843E+03  0.00000000000E+00 0.  1.
         21   -1    0    0  501  503 -0.00000000000E+00 -0.00000000000E+00 -0.18366409375E+04  0.18366409375E+04  0.00000000000E+00 0. -1.
    9000010    2    1    2  501    0  0.41559596450E+03  0.33768963620E+03 -0.84549472233E+03  0.14292126431E+04  0.10203103242E+04 0.  0.
   -9000010    2    1    2    0  502 -0.41559596450E+03 -0.33768963620E+03 -0.23046501677E+03  0.11681094928E+04  0.10122308863E+04 0.  0.
        -13    1    3    3    0    0  0.45994968058E+03 -0.27111605160E+03 -0.31115646758E+03  0.61796114811E+03  0.10566000000E+00 0.  1.
          4    1    3    3  501    0 -0.44353716073E+02  0.60880568780E+03 -0.53433825475E+03  0.81125149499E+03  0.00000000000E+00 0.  1.
         13    1    4    4    0    0  0.31446498580E+03  0.48929088499E+02 -0.44761875504E+02  0.32138126837E+03  0.10566000000E+00 0. -1.
         -4    1    4    4    0  502 -0.73006095030E+03 -0.38661872470E+03 -0.18570314126E+03  0.84672822448E+03  0.00000000000E+00 0. -1.
<mgrwt>
<rscale>  2 0.11505055E+04</rscale>
<asrwt>0</asrwt>
<pdfrwt beam="1">  1       21 0.11702788E+00 0.11522966E+04</pdfrwt>
<pdfrwt beam="2">  1       21 0.28256015E+00 0.11522966E+04</pdfrwt>
<totfact> 0.89480398E+00</totfact>
</mgrwt>
</event>
<event>
 8    1  0.5815007E-006  0.1400842E+04  0.7818608E-02  0.8469055E-01
         21   -1    0    0  501  502  0.00000000000E+00  0.00000000000E+00  0.16317484322E+04  0.16317484322E+04  0.00000000000E+00 0.  1.
         21   -1    0    0  502  503 -0.00000000000E+00 -0.00000000000E+00 -0.15011334215E+04  0.15011334215E+04  0.00000000000E+00 0.  1.
   -9000010    2    1    2    0  503 -0.13501435707E+03  0.97620540722E+03 -0.63389856144E+03  0.15369996999E+04  0.99465311428E+03 0.  0.
    9000010    2    1    2  501    0  0.13501435707E+03 -0.97620540722E+03  0.76451357210E+03  0.15958821537E+04  0.99556665921E+03 0.  0.
        -13    1    4    4    0    0 -0.41744291744E+03 -0.56145548144E+03  0.28764265959E+03  0.75645829875E+03  0.10566000000E+00 0.  1.
          4    1    4    4  501    0  0.55245727451E+03 -0.41474992578E+03  0.47687091251E+03  0.83942385497E+03  0.00000000000E+00 0.  1.
         13    1    3    3    0    0 -0.59243129312E+02  0.75179202040E+03 -0.90433176958E+03  0.11775045439E+04  0.10566000000E+00 0. -1.
         -4    1    3    3    0  503 -0.75771227759E+02  0.22441338682E+03  0.27043320814E+03  0.35949515603E+03  0.00000000000E+00 0. -1.
<mgrwt>
<rscale>  2 0.14006799E+04</rscale>
<asrwt>0</asrwt>
<pdfrwt beam="1">  1       21 0.25103822E+00 0.14008422E+04</pdfrwt>
<pdfrwt beam="2">  1       21 0.23094360E+00 0.14008422E+04</pdfrwt>
<totfact> 0.15455519E+00</totfact>
</mgrwt>
</event>
<event>
 8    1  0.5815007E-006  0.1031419E+04  0.7818608E-02  0.8761365E-01
         21   -1    0    0  503  502  0.00000000000E+00  0.00000000000E+00  0.59564707696E+03  0.59564707696E+03  0.00000000000E+00 0.  1.
         21   -1    0    0  501  503 -0.00000000000E+00 -0.00000000000E+00 -0.16755287255E+04  0.16755287255E+04  0.00000000000E+00 0.  1.
    9000010    2    1    2  501    0  0.66661930866E+02  0.18274726355E+03 -0.50287658157E+03  0.11474799395E+04  0.10129091666E+04 0.  0.
   -9000010    2    1    2    0  502 -0.66661930866E+02 -0.18274726355E+03 -0.57700506700E+03  0.11236958630E+04  0.94441366459E+03 0.  0.
        -13    1    3    3    0    0  0.49114758301E+03  0.26897104069E+03 -0.12750417086E+03  0.57430714237E+03  0.10566000000E+00 0.  1.
          4    1    3    3  501    0 -0.42448565214E+03 -0.86223777144E+02 -0.37537241071E+03  0.57317279710E+03  0.00000000000E+00 0.  1.
         13    1    4    4    0    0  0.23563834350E+03  0.20415918585E+03 -0.54966772519E+03  0.63193434895E+03  0.10566000000E+00 0. -1.
         -4    1    4    4    0  502 -0.30230027437E+03 -0.38690644940E+03 -0.27337341805E+02  0.49176151407E+03  0.00000000000E+00 0. -1.
<mgrwt>
<rscale>  2 0.10141976E+04</rscale>
<asrwt>0</asrwt>
<pdfrwt beam="1">  1       21 0.91638013E-01 0.10314191E+04</pdfrwt>
<pdfrwt beam="2">  1       21 0.25777365E+00 0.10314191E+04</pdfrwt>
<totfact> 0.26457848E+01</totfact>
</mgrwt>
</event>
<event>
 8    1  0.5815007E-006  0.1174128E+04  0.7818608E-02  0.8630555E-01
         21   -1    0    0  503  502  0.00000000000E+00  0.00000000000E+00  0.12329958336E+04  0.12329958336E+04  0.00000000000E+00 0. -1.
         21   -1    0    0  501  503 -0.00000000000E+00 -0.00000000000E+00 -0.14906441666E+04  0.14906441666E+04  0.00000000000E+00 0. -1.
    9000010    2    1    2  501    0  0.59315166107E+03  0.97270638934E+02 -0.82735060094E+03  0.14185974273E+04  0.98316792750E+03 0.  0.
   -9000010    2    1    2    0  502 -0.59315166107E+03 -0.97270638934E+02  0.56970226799E+03  0.13050425729E+04  0.10086054593E+04 0.  0.
        -13    1    3    3    0    0 -0.47578247324E+02  0.39224117872E+03 -0.10467883281E+03  0.40874747841E+03  0.10566000000E+00 0.  1.
          4    1    3    3  501    0  0.64072990839E+03 -0.29497053979E+03 -0.72267176813E+03  0.10098499489E+04  0.00000000000E+00 0.  1.
         13    1    4    4    0    0 -0.57732247920E+03 -0.23540178203E+03 -0.90816020630E+02  0.63004984306E+03  0.10566000000E+00 0. -1.
         -4    1    4    4    0  502 -0.15829181872E+02  0.13813114310E+03  0.66051828862E+03  0.67499272981E+03  0.00000000000E+00 0. -1.
<mgrwt>
<rscale>  2 0.11686448E+04</rscale>
<asrwt>0</asrwt>
<pdfrwt beam="1">  1       21 0.18969167E+00 0.11741275E+04</pdfrwt>
<pdfrwt beam="2">  1       21 0.22932987E+00 0.11741275E+04</pdfrwt>
<totfact> 0.48618117E+00</totfact>
</mgrwt>
</event>
<event>
 8    1  0.5815007E-006  0.1078702E+04  0.7818608E-02  0.8704121E-01
         21   -1    0    0  503  502  0.00000000000E+00  0.00000000000E+00  0.12316530793E+04  0.12316530793E+04  0.00000000000E+00 0.  1.
         21   -1    0    0  501  503 -0.00000000000E+00 -0.00000000000E+00 -0.94571350235E+03  0.94571350235E+03  0.00000000000E+00 0.  1.
    9000010    2    1    2  501    0  0.34457749265E+03 -0.18379871602E+03  0.18774563395E+03  0.10949179843E+04  0.10055254113E+04 0.  0.
   -9000010    2    1    2    0  502 -0.34457749265E+03  0.18379871602E+03  0.98193943019E+02  0.10824485974E+04  0.10047573334E+04 0.  0.
        -13    1    3    3    0    0  0.20427746005E+03  0.21172770436E+03  0.49428274221E+03  0.57521590893E+03  0.10566000000E+00 0.  1.
          4    1    3    3  501    0  0.14030003260E+03 -0.39552642038E+03 -0.30653710826E+03  0.51970207533E+03  0.00000000000E+00 0.  1.
         13    1    4    4    0    0 -0.20454835354E+03  0.14358236266E+03 -0.45026441890E+03  0.51496988446E+03  0.10566000000E+00 0. -1.
         -4    1    4    4    0  502 -0.14002913911E+03  0.40216353360E+02  0.54845836192E+03  0.56747871294E+03  0.00000000000E+00 0. -1.
<mgrwt>
<rscale>  2 0.10785225E+04</rscale>
<asrwt>0</asrwt>
<pdfrwt beam="1">  1       21 0.18948509E+00 0.10787015E+04</pdfrwt>
<pdfrwt beam="2">  1       21 0.14549438E+00 0.10787015E+04</pdfrwt>
<totfact> 0.23823732E+01</totfact>
</mgrwt>
</event>
<event>
 8    1  0.5815007E-006  0.1540979E+04  0.7818608E-02  0.8387566E-01
         21   -1    0    0  503  502  0.00000000000E+00  0.00000000000E+00  0.14295570472E+04  0.14295570472E+04  0.00000000000E+00 0. -1.
         21   -1    0    0  501  503 -0.00000000000E+00 -0.00000000000E+00 -0.22368092075E+04  0.22368092075E+04  0.00000000000E+00 0. -1.
    9000010    2    1    2  501    0 -0.10802255156E+04 -0.43473670172E+03  0.53513704952E+03  0.16226870458E+04  0.99541871723E+03 0.  0.
   -9000010    2    1    2    0  502  0.10802255156E+04  0.43473670172E+03 -0.13423892099E+04  0.20436792089E+04  0.10093229186E+04 0.  0.
        -13    1    3    3    0    0 -0.16842115675E+03 -0.58118687305E+03  0.26429106436E+03  0.66029814880E+03  0.10566000000E+00 0.  1.
          4    1    3    3  501    0 -0.91180435881E+03  0.14645017133E+03  0.27084598516E+03  0.96238889702E+03  0.00000000000E+00 0.  1.
         13    1    4    4    0    0  0.12316501042E+04  0.45660152700E+03 -0.94589884707E+03  0.16186944040E+04  0.10566000000E+00 0. -1.
         -4    1    4    4    0  502 -0.15142458862E+03 -0.21864825280E+02 -0.39649036278E+03  0.42498480491E+03  0.00000000000E+00 0. -1.
<mgrwt>
<rscale>  2 0.15387061E+04</rscale>
<asrwt>0</asrwt>
<pdfrwt beam="1">  1       21 0.21993185E+00 0.15409789E+04</pdfrwt>
<pdfrwt beam="2">  1       21 0.34412449E+00 0.15409789E+04</pdfrwt>
<totfact> 0.39656636E-01</totfact>
</mgrwt>
</event>
<event>
 8    1  0.5815007E-006  0.1120486E+04  0.7818608E-02  0.8673621E-01
         21   -1    0    0  501  502  0.00000000000E+00  0.00000000000E+00  0.66468015710E+03  0.66468015710E+03  0.00000000000E+00 0.  1.
         21   -1    0    0  502  503 -0.00000000000E+00 -0.00000000000E+00 -0.19048664748E+04  0.19048664748E+04  0.00000000000E+00 0.  1.
   -9000010    2    1    2    0  503 -0.11800712537E+03  0.49078665161E+03 -0.39824538272E+03  0.11679923667E+04  0.97509464405E+03 0.  0.
    9000010    2    1    2  501    0  0.11800712537E+03 -0.49078665161E+03 -0.84194093499E+03  0.14015542652E+04  0.10003462407E+04 0.  0.
        -13    1    4    4    0    0 -0.31469485151E+03 -0.45797075206E+03 -0.13464711838E+03  0.57175162174E+03  0.10566000000E+00 0.  1.
          4    1    4    4  501    0  0.43270197688E+03 -0.32815899550E+02 -0.70729381661E+03  0.82980264345E+03  0.00000000000E+00 0.  1.
         13    1    3    3    0    0 -0.11077542663E+03 -0.85380754329E+02 -0.55377089131E+03  0.57115959204E+03  0.10566000000E+00 0. -1.
         -4    1    3    3    0  503 -0.72316987468E+01  0.57616740594E+03  0.15552550858E+03  0.59683277470E+03  0.00000000000E+00 0. -1.
<mgrwt>
<rscale>  2 0.11148223E+04</rscale>
<asrwt>0</asrwt>
<pdfrwt beam="1">  1       21 0.10225849E+00 0.11204864E+04</pdfrwt>
<pdfrwt beam="2">  1       21 0.29305637E+00 0.11204864E+04</pdfrwt>
<totfact> 0.10935391E+01</totfact>
</mgrwt>
</event>
<event>
 8    1  0.5815007E-006  0.1019115E+04  0.7818608E-02  0.8757089E-01
         21   -1    0    0  501  502  0.00000000000E+00  0.00000000000E+00  0.69963048050E+03  0.69963048050E+03  0.00000000000E+00 0.  1.
         21   -1    0    0  502  503 -0.00000000000E+00 -0.00000000000E+00 -0.14841776650E+04  0.14841776650E+04  0.00000000000E+00 0.  1.
   -9000010    2    1    2    0  503  0.20197267432E+03  0.14519242452E+02 -0.42426088965E+03  0.11028817314E+04  0.99767080812E+03 0.  0.
    9000010    2    1    2  501    0 -0.20197267432E+03 -0.14519242452E+02 -0.36028629483E+03  0.10809264141E+04  0.99879523871E+03 0.  0.
        -13    1    4    4    0    0 -0.25451598236E+03  0.39156246627E+03 -0.46421144777E+03  0.65847690139E+03  0.10566000000E+00 0.  1.
          4    1    4    4  501    0  0.52543308041E+02 -0.40608170872E+03  0.10392515293E+03  0.42244951271E+03  0.00000000000E+00 0.  1.
         13    1    3    3    0    0  0.59727772062E+03 -0.44423422027E+02 -0.14776084043E+03  0.61688523495E+03  0.10566000000E+00 0. -1.
         -4    1    3    3    0  503 -0.39530504630E+03  0.58942664479E+02 -0.27650004922E+03  0.48599649644E+03  0.00000000000E+00 0. -1.
<mgrwt>
<rscale>  2 0.10188395E+04</rscale>
<asrwt>0</asrwt>
<pdfrwt beam="1">  1       21 0.10763546E+00 0.10191152E+04</pdfrwt>
<pdfrwt beam="2">  1       21 0.22833502E+00 0.10191152E+04</pdfrwt>
<totfact> 0.28649593E+01</totfact>
</mgrwt>
</event>
<event>
 8    1  0.5815007E-006  0.1071328E+04  0.7818608E-02  0.8711498E-01
         21   -1    0    0  501  502  0.00000000000E+00  0.00000000000E+00  0.15093818965E+04  0.15093818965E+04  0.00000000000E+00 0. -1.
         21   -1    0    0  502  503 -0.00000000000E+00 -0.00000000000E+00 -0.78637002240E+03  0.78637002240E+03  0.00000000000E+00 0. -1.
   -9000010    2    1    2    0  503 -0.52973293383E+02 -0.35245588374E+03  0.13704048449E+03  0.10746430518E+04  0.10045129539E+04 0.  0.
    9000010    2    1    2  501    0  0.52973293383E+02  0.35245588374E+03  0.58597138965E+03  0.12211088672E+04  0.10103034575E+04 0.  0.
        -13    1    4    4    0    0 -0.75048423802E+01 -0.35801529019E+03  0.18497658102E+03  0.40304790951E+03  0.10566000000E+00 0.  1.
          4    1    4    4  501    0  0.60478135763E+02  0.71047117393E+03  0.40099480863E+03  0.81806095765E+03  0.00000000000E+00 0.  1.
         13    1    3    3    0    0 -0.92032583388E+02 -0.21257437765E+03 -0.43047336875E+03  0.48884066403E+03  0.10566000000E+00 0. -1.
         -4    1    3    3    0  503  0.39059290006E+02 -0.13988150608E+03  0.56751385324E+03  0.58580238776E+03  0.00000000000E+00 0. -1.
<mgrwt>
<rscale>  2 0.10699610E+04</rscale>
<asrwt>0</asrwt>
<pdfrwt beam="1">  1       21 0.23221260E+00 0.10713283E+04</pdfrwt>
<pdfrwt beam="2">  1       21 0.12098000E+00 0.10713283E+04</pdfrwt>
<totfact> 0.19226921E+01</totfact>
</mgrwt>
</event>
<event>
 8    1  0.5815007E-006  0.1044425E+04  0.7818608E-02  0.8739216E-01
         21   -1    0    0  501  502  0.00000000000E+00  0.00000000000E+00  0.35798699558E+03  0.35798699558E+03  0.00000000000E+00 0. -1.
         21   -1    0    0  502  503 -0.00000000000E+00 -0.00000000000E+00 -0.30115589530E+04  0.30115589530E+04  0.00000000000E+00 0. -1.
   -9000010    2    1    2    0  503  0.26431205062E+03  0.85379944633E+02 -0.11669672293E+04  0.15660896078E+04  0.10068135628E+04 0.  0.
    9000010    2    1    2  501    0 -0.26431205062E+03 -0.85379944633E+02 -0.14866047281E+04  0.18034563408E+04  0.98250219365E+03 0.  0.
        -13    1    4    4    0    0 -0.28129228551E+03  0.36068892514E+03 -0.11698674980E+04  0.12561097980E+04  0.10566000000E+00 0.  1.
          4    1    4    4  501    0  0.16980234888E+02 -0.44606886977E+03 -0.31673723003E+03  0.54734654274E+03  0.00000000000E+00 0.  1.
         13    1    3    3    0    0  0.22861581802E+03 -0.87553480143E+02 -0.13138147938E+04  0.13364281229E+04  0.10566000000E+00 0. -1.
         -4    1    3    3    0  503  0.35696232595E+02  0.17293342478E+03  0.14684756449E+03  0.22966148485E+03  0.00000000000E+00 0. -1.
<mgrwt>
<rscale>  2 0.10385216E+04</rscale>
<asrwt>0</asrwt>
<pdfrwt beam="1">  1       21 0.55074920E-01 0.10444253E+04</pdfrwt>
<pdfrwt beam="2">  1       21 0.46331678E+00 0.10444253E+04</pdfrwt>
<totfact> 0.32263049E+00</totfact>
</mgrwt>
</event>
<event>
 8    1  0.5815007E-006  0.1299892E+04  0.7818608E-02  0.8539162E-01
         21   -1    0    0  501  502  0.00000000000E+00  0.00000000000E+00  0.84710585088E+03  0.84710585088E+03  0.00000000000E+00 0.  1.
         21   -1    0    0  502  503 -0.00000000000E+00 -0.00000000000E+00 -0.21208334307E+04  0.21208334307E+04  0.00000000000E+00 0. -1.
   -9000010    2    1    2    0  503 -0.82517305181E+03 -0.11902162280E+03 -0.10547817307E+04  0.16740023269E+04  0.99731769211E+03 0.  0.
    9000010    2    1    2  501    0  0.82517305181E+03  0.11902162280E+03 -0.21894584918E+03  0.12939369547E+04  0.96501753649E+03 0.  0.
        -13    1    4    4    0    0  0.28910994402E+03 -0.33736204640E+03  0.18611648204E+03  0.48170225880E+03  0.10566000000E+00 0.  1.
          4    1    4    4  501    0  0.53606310778E+03  0.45638366920E+03 -0.40506233122E+03  0.81223469589E+03  0.00000000000E+00 0.  1.
         13    1    3    3    0    0 -0.29281557156E+03 -0.18636782589E+03  0.13215826960E+03  0.37140240287E+03  0.10566000000E+00 0. -1.
         -4    1    3    3    0  503 -0.53235748025E+03  0.67346203088E+02 -0.11869400003E+04  0.13025999240E+04  0.00000000000E+00 0. -1.
<mgrwt>
<rscale>  2 0.12936945E+04</rscale>
<asrwt>0</asrwt>
<pdfrwt beam="1">  1       21 0.13032398E+00 0.12998920E+04</pdfrwt>
<pdfrwt beam="2">  1       21 0.32628206E+00 0.12998920E+04</pdfrwt>
<totfact> 0.31410895E+00</totfact>
</mgrwt>
</event>
<event>
 8    1  0.5815007E-006  0.1129363E+04  0.7818608E-02  0.8669247E-01
         21   -1    0    0  501  502  0.00000000000E+00  0.00000000000E+00  0.11434254716E+04  0.11434254716E+04  0.00000000000E+00 0.  1.
         21   -1    0    0  502  503 -0.00000000000E+00 -0.00000000000E+00 -0.16295576588E+04  0.16295576588E+04  0.00000000000E+00 0.  1.
   -9000010    2    1    2    0  503 -0.15377530416E+03 -0.47328022757E+03 -0.10509515846E+04  0.15427117803E+04  0.10138142759E+04 0.  0.
    9000010    2    1    2  501    0  0.15377530416E+03  0.47328022757E+03  0.56481939744E+03  0.12302713500E+04  0.97309075889E+03 0.  0.
        -13    1    4    4    0    0 -0.18666230234E+03  0.20446305857E+03 -0.20647358033E+03  0.34536836563E+03  0.10566000000E+00 0.  1.
          4    1    4    4  501    0  0.34043760651E+03  0.26881716900E+03  0.77129297778E+03  0.88490298442E+03  0.00000000000E+00 0.  1.
         13    1    3    3    0    0 -0.73990183458E+02 -0.75704746359E+03 -0.47798787227E+03  0.89836953787E+03  0.10566000000E+00 0. -1.
         -4    1    3    3    0  503 -0.79785120705E+02  0.28376723602E+03 -0.57296371238E+03  0.64434224247E+03  0.00000000000E+00 0. -1.
<mgrwt>
<rscale>  2 0.11201483E+04</rscale>
<asrwt>0</asrwt>
<pdfrwt beam="1">  1       21 0.17591161E+00 0.11293628E+04</pdfrwt>
<pdfrwt beam="2">  1       21 0.25070118E+00 0.11293628E+04</pdfrwt>
<totfact> 0.44241578E+00</totfact>
</mgrwt>
</event>
<event>
 8    1  0.5815007E-006  0.1111188E+04  0.7818608E-02  0.8678957E-01
         21   -1    0    0  503  502  0.00000000000E+00  0.00000000000E+00  0.92451741159E+03  0.92451741159E+03  0.00000000000E+00 0. -1.
         21   -1    0    0  501  503 -0.00000000000E+00 -0.00000000000E+00 -0.13865982308E+04  0.13865982308E+04  0.00000000000E+00 0. -1.
    9000010    2    1    2  501    0  0.43579966516E+03  0.60470644239E+02 -0.47920925857E+03  0.11997952627E+04  0.10081116565E+04 0.  0.
   -9000010    2    1    2    0  502 -0.43579966516E+03 -0.60470644239E+02  0.17128439345E+02  0.11113203797E+04  0.10203732435E+04 0.  0.
        -13    1    3    3    0    0  0.45249074655E+02 -0.44198893720E+03 -0.88473662234E+02  0.45302240501E+03  0.10566000000E+00 0.  1.
          4    1    3    3  501    0  0.39055059050E+03  0.50245958144E+03 -0.39073559634E+03  0.74677285768E+03  0.00000000000E+00 0.  1.
         13    1    4    4    0    0  0.23169659967E+03 -0.38173311357E+02 -0.29256143416E+03  0.37514359907E+03  0.10566000000E+00 0. -1.
         -4    1    4    4    0  502 -0.66749626483E+03 -0.22297332882E+02  0.30968987350E+03  0.73617678065E+03  0.00000000000E+00 0. -1.
<mgrwt>
<rscale>  2 0.11083654E+04</rscale>
<asrwt>0</asrwt>
<pdfrwt beam="1">  1       21 0.14223345E+00 0.11111884E+04</pdfrwt>
<pdfrwt beam="2">  1       21 0.21332280E+00 0.11111884E+04</pdfrwt>
<totfact> 0.16515467E+01</totfact>
</mgrwt>
</event>
<event>
 8    1  0.5815007E-006  0.1303338E+04  0.7818608E-02  0.8535122E-01
         21   -1    0    0  501  502  0.00000000000E+00  0.00000000000E+00  0.12148732158E+04  0.12148732158E+04  0.00000000000E+00 0.  1.
         21   -1    0    0  502  503 -0.00000000000E+00 -0.00000000000E+00 -0.28707928866E+04  0.28707928866E+04  0.00000000000E+00 0.  1.
   -9000010    2    1    2    0  503  0.49055105510E+03 -0.65463784289E+03 -0.23012423643E+04  0.26446937592E+04  0.10146416204E+04 0.  0.
    9000010    2    1    2  501    0 -0.49055105510E+03  0.65463784289E+03  0.64532269341E+03  0.14409723432E+04  0.99537373494E+03 0.  0.
        -13    1    4    4    0    0 -0.77870028639E+03  0.62477483394E+03  0.51399803834E+03  0.11229032566E+04  0.10566000000E+00 0.  1.
          4    1    4    4  501    0  0.28814923130E+03  0.29863008947E+02  0.13132465507E+03  0.31806908657E+03  0.00000000000E+00 0.  1.
         13    1    3    3    0    0  0.19386828814E+03  0.13160337555E+03 -0.13718240689E+04  0.13916916500E+04  0.10566000000E+00 0. -1.
         -4    1    3    3    0  503  0.29668276695E+03 -0.78624121844E+03 -0.92941829538E+03  0.12530021092E+04  0.00000000000E+00 0. -1.
<mgrwt>
<rscale>  2 0.12995855E+04</rscale>
<asrwt>0</asrwt>
<pdfrwt beam="1">  1       21 0.18690357E+00 0.13033375E+04</pdfrwt>
<pdfrwt beam="2">  1       21 0.44166044E+00 0.13033375E+04</pdfrwt>
<totfact> 0.15726784E-01</totfact>
</mgrwt>
</event>
<event>
 8    1  0.5815007E-006  0.1061211E+04  0.7818608E-02  0.8731822E-01
         21   -1    0    0  501  502  0.00000000000E+00  0.00000000000E+00  0.86934084927E+03  0.86934084927E+03  0.00000000000E+00 0. -1.
         21   -1    0    0  502  503 -0.00000000000E+00 -0.00000000000E+00 -0.12279175935E+04  0.12279175935E+04  0.00000000000E+00 0. -1.
   -9000010    2    1    2    0  503 -0.13060915160E+03 -0.36349879953E+02 -0.16233654539E+03  0.10735562393E+04  0.10525159290E+04 0.  0.
    9000010    2    1    2  501    0  0.13060915160E+03  0.36349879953E+02 -0.19624019888E+03  0.10237022035E+04  0.99552796119E+03 0.  0.
        -13    1    4    4    0    0  0.26659996720E+03 -0.32171553769E+02  0.35879494227E+03  0.44815663907E+03  0.10566000000E+00 0.  1.
          4    1    4    4  501    0 -0.13599081560E+03  0.68521433722E+02 -0.55503514115E+03  0.57554556441E+03  0.00000000000E+00 0.  1.
         13    1    3    3    0    0 -0.40279542915E+03 -0.18762018106E+03  0.28545189770E+03  0.52813661788E+03  0.10566000000E+00 0. -1.
         -4    1    3    3    0  503  0.27218627756E+03  0.15127030111E+03 -0.44778844309E+03  0.54541962144E+03  0.00000000000E+00 0. -1.
<mgrwt>
<rscale>  2 0.10467968E+04</rscale>
<asrwt>0</asrwt>
<pdfrwt beam="1">  1       21 0.13374474E+00 0.10612115E+04</pdfrwt>
<pdfrwt beam="2">  1       21 0.18891040E+00 0.10612115E+04</pdfrwt>
<totfact> 0.31062382E+01</totfact>
</mgrwt>
</event>
<event>
 8    1  0.5815007E-006  0.1044195E+04  0.7818608E-02  0.8734647E-01
         21   -1    0    0  503  502  0.00000000000E+00  0.00000000000E+00  0.10996319305E+04  0.10996319305E+04  0.00000000000E+00 0.  1.
         21   -1    0    0  501  503 -0.00000000000E+00 -0.00000000000E+00 -0.99677861055E+03  0.99677861055E+03  0.00000000000E+00 0.  1.
    9000010    2    1    2  501    0 -0.31175507574E+03 -0.63939072091E+02 -0.38742826104E+02  0.10449131157E+04  0.99451645563E+03 0.  0.
   -9000010    2    1    2    0  502  0.31175507574E+03  0.63939072091E+02  0.14159614603E+03  0.10514974254E+04  0.99212798306E+03 0.  0.
        -13    1    3    3    0    0 -0.54178391114E+03  0.15837653259E+03  0.24685191231E+03  0.61607532837E+03  0.10566000000E+00 0.  1.
          4    1    3    3  501    0  0.23002883540E+03 -0.22231560468E+03 -0.28559473842E+03  0.42883778730E+03  0.00000000000E+00 0.  1.
         13    1    4    4    0    0  0.24342732800E+03  0.48986852271E+03  0.25783297850E+03  0.60473621482E+03  0.10566000000E+00 0. -1.
         -4    1    4    4    0  502  0.68327747747E+02 -0.42592945062E+03 -0.11623683246E+03  0.44676121053E+03  0.00000000000E+00 0. -1.
<mgrwt>
<rscale>  2 0.10436255E+04</rscale>
<asrwt>0</asrwt>
<pdfrwt beam="1">  1       21 0.16917414E+00 0.10441946E+04</pdfrwt>
<pdfrwt beam="2">  1       21 0.15335056E+00 0.10441946E+04</pdfrwt>
<totfact> 0.29942515E+01</totfact>
</mgrwt>
</event>
<event>
 8    1  0.5815007E-006  0.1103768E+04  0.7818608E-02  0.8687001E-01
         21   -1    0    0  501  502  0.00000000000E+00  0.00000000000E+00  0.14210470790E+04  0.14210470790E+04  0.00000000000E+00 0.  1.
         21   -1    0    0  502  503 -0.00000000000E+00 -0.00000000000E+00 -0.86679650858E+03  0.86679650858E+03  0.00000000000E+00 0.  1.
   -9000010    2    1    2    0  503 -0.35017750321E+03 -0.33335716907E+03  0.85402813073E+02  0.11070666516E+04  0.99224575821E+03 0.  0.
    9000010    2    1    2  501    0  0.35017750321E+03  0.33335716907E+03  0.46884775731E+03  0.11807769359E+04  0.96987868674E+03 0.  0.
        -13    1    4    4    0    0 -0.41967977595E+02 -0.31940425609E+03  0.13373693558E+03  0.34880649228E+03  0.10566000000E+00 0.  1.
          4    1    4    4  501    0  0.39214548081E+03  0.65276142516E+03  0.33511082173E+03  0.83197044367E+03  0.00000000000E+00 0.  1.
         13    1    3    3    0    0 -0.39672438881E+03  0.27867147350E+03 -0.15328749705E+02  0.48505980306E+03  0.10566000000E+00 0. -1.
         -4    1    3    3    0  503  0.46546885594E+02 -0.61202864257E+03  0.10073156278E+03  0.62200684854E+03  0.00000000000E+00 0. -1.
<mgrwt>
<rscale>  2 0.10987173E+04</rscale>
<asrwt>0</asrwt>
<pdfrwt beam="1">  1       21 0.21862263E+00 0.11037676E+04</pdfrwt>
<pdfrwt beam="2">  1       21 0.13335331E+00 0.11037676E+04</pdfrwt>
<totfact> 0.18257289E+01</totfact>
</mgrwt>
</event>
<event>
 8    1  0.5815007E-006  0.1062043E+04  0.7818608E-02  0.8722750E-01
         21   -1    0    0  503  502  0.00000000000E+00  0.00000000000E+00  0.12913891814E+04  0.12913891814E+04  0.00000000000E+00 0.  1.
         21   -1    0    0  501  503 -0.00000000000E+00 -0.00000000000E+00 -0.85747319886E+03  0.85747319886E+03  0.00000000000E+00 0.  1.
    9000010    2    1    2  501    0 -0.40329082562E+02 -0.31113884877E+03  0.20087766391E+03  0.10808729201E+04  0.10146430976E+04 0.  0.
   -9000010    2    1    2    0  502  0.40329082562E+02  0.31113884877E+03  0.23303831867E+03  0.10679894602E+04  0.99391187287E+03 0.  0.
        -13    1    3    3    0    0  0.12001500052E+03  0.27310041795E+03 -0.19570201763E+03  0.35677265800E+03  0.10566000000E+00 0.  1.
          4    1    3    3  501    0 -0.16034408308E+03 -0.58423926672E+03  0.39657968153E+03  0.72410026209E+03  0.00000000000E+00 0.  1.
         13    1    4    4    0    0 -0.34268343357E+03 -0.13173259430E+03  0.30600854232E+03  0.47794000793E+03  0.10566000000E+00 0. -1.
         -4    1    4    4    0  502  0.38301251613E+03  0.44287144307E+03 -0.72970223646E+02  0.59004945228E+03  0.00000000000E+00 0. -1.
<mgrwt>
<rscale>  2 0.10570606E+04</rscale>
<asrwt>0</asrwt>
<pdfrwt beam="1">  1       21 0.19867526E+00 0.10620426E+04</pdfrwt>
<pdfrwt beam="2">  1       21 0.13191895E+00 0.10620426E+04</pdfrwt>
<totfact> 0.27059368E+01</totfact>
</mgrwt>
</event>
<event>
 8    1  0.5815007E-006  0.1103335E+04  0.7818608E-02  0.8691776E-01
         21   -1    0    0  503  502  0.00000000000E+00  0.00000000000E+00  0.91321009705E+03  0.91321009705E+03  0.00000000000E+00 0. -1.
         21   -1    0    0  501  503 -0.00000000000E+00 -0.00000000000E+00 -0.13173115923E+04  0.13173115923E+04  0.00000000000E+00 0. -1.
    9000010    2    1    2  501    0  0.17865809464E+03 -0.31477887236E+03 -0.38193018807E+03  0.11675698027E+04  0.10422783325E+04 0.  0.
   -9000010    2    1    2    0  502 -0.17865809464E+03  0.31477887236E+03 -0.22171307228E+02  0.10629518867E+04  0.99918501454E+03 0.  0.
        -13    1    3    3    0    0  0.55093243958E+03  0.80470064160E+02 -0.24041924865E+03  0.60646797978E+03  0.10566000000E+00 0.  1.
          4    1    3    3  501    0 -0.37227434494E+03 -0.39524893652E+03 -0.14151093942E+03  0.56110182293E+03  0.00000000000E+00 0.  1.
         13    1    4    4    0    0  0.26925211786E+03  0.23903598611E+02  0.32745974548E+03  0.42461509756E+03  0.10566000000E+00 0. -1.
         -4    1    4    4    0  502 -0.44791021250E+03  0.29087527375E+03 -0.34963105271E+03  0.63833678913E+03  0.00000000000E+00 0. -1.
<mgrwt>
<rscale>  2 0.10930383E+04</rscale>
<asrwt>0</asrwt>
<pdfrwt beam="1">  1       21 0.14049386E+00 0.11033352E+04</pdfrwt>
<pdfrwt beam="2">  1       21 0.20266332E+00 0.11033352E+04</pdfrwt>
<totfact> 0.20733310E+01</totfact>
</mgrwt>
</event>
<event>
 8    1  0.5815007E-006  0.1261037E+04  0.7818608E-02  0.8564672E-01
         21   -1    0    0  503  502  0.00000000000E+00  0.00000000000E+00  0.11612753095E+04  0.11612753095E+04  0.00000000000E+00 0. -1.
         21   -1    0    0  501  503 -0.00000000000E+00 -0.00000000000E+00 -0.14449427338E+04  0.14449427338E+04  0.00000000000E+00 0. -1.
    9000010    2    1    2  501    0  0.39814498716E+03 -0.66765368097E+03 -0.47144902254E+03  0.13462833224E+04  0.99294195949E+03 0.  0.
   -9000010    2    1    2    0  502 -0.39814498716E+03  0.66765368097E+03  0.18778159824E+03  0.12599347209E+04  0.97359781416E+03 0.  0.
        -13    1    3    3    0    0 -0.26596254659E+03 -0.36895748105E+03  0.39773247002E+02  0.45656064368E+03  0.10566000000E+00 0.  1.
          4    1    3    3  501    0  0.66410753375E+03 -0.29869619992E+03 -0.51122226955E+03  0.88972267877E+03  0.00000000000E+00 0.  1.
         13    1    4    4    0    0 -0.60899813288E+03  0.33830443844E+03 -0.18379394564E+03  0.72049208499E+03  0.10566000000E+00 0. -1.
         -4    1    4    4    0  502  0.21085314572E+03  0.32934924253E+03  0.37157554388E+03  0.53944263589E+03  0.00000000000E+00 0. -1.
<mgrwt>
<rscale>  2 0.12572262E+04</rscale>
<asrwt>0</asrwt>
<pdfrwt beam="1">  1       21 0.17865774E+00 0.12610371E+04</pdfrwt>
<pdfrwt beam="2">  1       21 0.22229888E+00 0.12610371E+04</pdfrwt>
<totfact> 0.66219655E+00</totfact>
</mgrwt>
</event>
<event>
 8    1  0.5815007E-006  0.1098553E+04  0.7818608E-02  0.8748240E-01
         21   -1    0    0  503  502  0.00000000000E+00  0.00000000000E+00  0.20167918514E+04  0.20167918514E+04  0.00000000000E+00 0.  1.
         21   -1    0    0  501  503 -0.00000000000E+00 -0.00000000000E+00 -0.46833339200E+03  0.46833339200E+03  0.00000000000E+00 0.  1.
    9000010    2    1    2  501    0 -0.19625933140E+03 -0.17563242062E+03  0.71385220781E+03  0.11054929530E+04  0.80197582393E+03 0.  0.
   -9000010    2    1    2    0  502  0.19625933140E+03  0.17563242062E+03  0.83460625157E+03  0.13796322904E+04  0.10665145049E+04 0.  0.
        -13    1    3    3    0    0  0.71112023572E+02  0.16811719298E+03 -0.80575468328E+02  0.19953127006E+03  0.10566000000E+00 0.  1.
          4    1    3    3  501    0 -0.26737135497E+03 -0.34374961361E+03  0.79442767614E+03  0.90596168292E+03  0.00000000000E+00 0.  1.
         13    1    4    4    0    0 -0.15267155613E+03  0.37167735880E+03  0.88912542953E+03  0.97570318422E+03  0.10566000000E+00 0. -1.
         -4    1    4    4    0  502  0.34893088753E+03 -0.19604493817E+03 -0.54519177958E+02  0.40392910618E+03  0.00000000000E+00 0. -1.
<mgrwt>
<rscale>  2 0.10285277E+04</rscale>
<asrwt>0</asrwt>
<pdfrwt beam="1">  1       21 0.31027567E+00 0.10985525E+04</pdfrwt>
<pdfrwt beam="2">  1       21 0.72051292E-01 0.10985525E+04</pdfrwt>
<totfact> 0.19979656E+01</totfact>
</mgrwt>
</event>
<event>
 8    1  0.5815007E-006  0.1318083E+04  0.7818608E-02  0.8523978E-01
         21   -1    0    0  501  502  0.00000000000E+00  0.00000000000E+00  0.16565602787E+04  0.16565602787E+04  0.00000000000E+00 0.  1.
         21   -1    0    0  502  503 -0.00000000000E+00 -0.00000000000E+00 -0.10422490229E+04  0.10422490229E+04  0.00000000000E+00 0.  1.
   -9000010    2    1    2    0  503  0.83774922632E+03  0.10143304062E+03  0.31894033034E+03  0.13561219804E+04  0.10125371418E+04 0.  0.
    9000010    2    1    2  501    0 -0.83774922632E+03 -0.10143304062E+03  0.29537092552E+03  0.13426873212E+04  0.10017249278E+04 0.  0.
        -13    1    4    4    0    0 -0.60941400534E+02 -0.12309769691E+03 -0.32207747394E+03  0.35014398134E+03  0.10566000000E+00 0.  1.
          4    1    4    4  501    0 -0.77680782578E+03  0.21664656288E+02  0.61744839946E+03  0.99254333987E+03  0.00000000000E+00 0.  1.
         13    1    3    3    0    0  0.15681565834E+03  0.19975669665E+03 -0.32590436990E+03  0.41316771176E+03  0.10566000000E+00 0. -1.
         -4    1    3    3    0  503  0.68093356797E+03 -0.98323656033E+02  0.64484470024E+03  0.94295426864E+03  0.00000000000E+00 0. -1.
<mgrwt>
<rscale>  2 0.13160066E+04</rscale>
<asrwt>0</asrwt>
<pdfrwt beam="1">  1       21 0.25485543E+00 0.13180834E+04</pdfrwt>
<pdfrwt beam="2">  1       21 0.16034600E+00 0.13180834E+04</pdfrwt>
<totfact> 0.53709866E+00</totfact>
</mgrwt>
</event>
<event>
 8    1  0.5815007E-006  0.1434499E+04  0.7818608E-02  0.8459896E-01
         21   -1    0    0  503  502  0.00000000000E+00  0.00000000000E+00  0.86720021939E+03  0.86720021939E+03  0.00000000000E+00 0. -1.
         21   -1    0    0  501  503 -0.00000000000E+00 -0.00000000000E+00 -0.22730148092E+04  0.22730148092E+04  0.00000000000E+00 0. -1.
    9000010    2    1    2  501    0 -0.90522466121E+03 -0.27203591136E+03 -0.56648316873E+03  0.15423000964E+04  0.10790510565E+04 0.  0.
   -9000010    2    1    2    0  502  0.90522466121E+03  0.27203591136E+03 -0.83933142105E+03  0.15979149322E+04  0.97745571346E+03 0.  0.
        -13    1    3    3    0    0 -0.55051747443E+03 -0.67157082371E+03 -0.50490357377E+03  0.10044921557E+04  0.10566000000E+00 0.  1.
          4    1    3    3  501    0 -0.35470718678E+03  0.39953491235E+03 -0.61579594957E+02  0.53780794068E+03  0.00000000000E+00 0.  1.
         13    1    4    4    0    0  0.22864010620E+03 -0.33131872921E+03 -0.47053599028E+03  0.61923543810E+03  0.10566000000E+00 0. -1.
         -4    1    4    4    0  502  0.67658455501E+03  0.60335464056E+03 -0.36879543077E+03  0.97867949407E+03  0.00000000000E+00 0. -1.
<mgrwt>
<rscale>  2 0.14154286E+04</rscale>
<asrwt>0</asrwt>
<pdfrwt beam="1">  1       21 0.13341542E+00 0.14344987E+04</pdfrwt>
<pdfrwt beam="2">  1       21 0.34969459E+00 0.14344987E+04</pdfrwt>
<totfact> 0.19596832E+00</totfact>
</mgrwt>
</event>
<event>
 8    1  0.5815007E-006  0.1117567E+04  0.7818608E-02  0.8672598E-01
         21   -1    0    0  501  502  0.00000000000E+00  0.00000000000E+00  0.11177521901E+04  0.11177521901E+04  0.00000000000E+00 0.  1.
         21   -1    0    0  502  503 -0.00000000000E+00 -0.00000000000E+00 -0.11439911924E+04  0.11439911924E+04  0.00000000000E+00 0.  1.
   -9000010    2    1    2    0  503  0.38299125524E+03  0.33964298673E+03  0.17780733392E+03  0.11257016951E+04  0.98668596739E+03 0.  0.
    9000010    2    1    2  501    0 -0.38299125524E+03 -0.33964298673E+03 -0.20404633625E+03  0.11360416874E+04  0.99343653456E+03 0.  0.
        -13    1    4    4    0    0  0.45360394385E+02 -0.12249882251E+03  0.36720120331E+03  0.38974384122E+03  0.10566000000E+00 0.  1.
          4    1    4    4  501    0 -0.42835164963E+03 -0.21714416422E+03 -0.57124753956E+03  0.74629784620E+03  0.00000000000E+00 0.  1.
         13    1    3    3    0    0  0.39727190408E+03 -0.77302304831E+02 -0.29074860953E+03  0.49833259698E+03  0.10566000000E+00 0. -1.
         -4    1    3    3    0  503 -0.14280648831E+02  0.41694529156E+03  0.46855594345E+03  0.62736909809E+03  0.00000000000E+00 0. -1.
<mgrwt>
<rscale>  2 0.11160648E+04</rscale>
<asrwt>0</asrwt>
<pdfrwt beam="1">  1       21 0.17196187E+00 0.11175669E+04</pdfrwt>
<pdfrwt beam="2">  1       21 0.17599865E+00 0.11175669E+04</pdfrwt>
<totfact> 0.17905384E+01</totfact>
</mgrwt>
</event>
<event>
 8    1  0.5815007E-006  0.1160670E+04  0.7818608E-02  0.8637300E-01
         21   -1    0    0  503  502  0.00000000000E+00  0.00000000000E+00  0.63158690262E+03  0.63158690262E+03  0.00000000000E+00 0. -1.
         21   -1    0    0  501  503 -0.00000000000E+00 -0.00000000000E+00 -0.21306540879E+04  0.21306540879E+04  0.00000000000E+00 0. -1.
    9000010    2    1    2  501    0  0.58843404183E+03  0.54717360924E+02 -0.70274020055E+03  0.13568342050E+04  0.99895278130E+03 0.  0.
   -9000010    2    1    2    0  502 -0.58843404183E+03 -0.54717360924E+02 -0.79632698473E+03  0.14054067855E+04  0.99588300265E+03 0.  0.
        -13    1    3    3    0    0  0.14717522089E+03  0.19962300043E+03 -0.83732649408E+03  0.87328435048E+03  0.10566000000E+00 0.  1.
          4    1    3    3  501    0  0.44125882095E+03 -0.14490563950E+03  0.13458629353E+03  0.48354985454E+03  0.00000000000E+00 0.  1.
         13    1    4    4    0    0 -0.73416205678E+03 -0.17525454474E+03 -0.91191342110E+03  0.11837627211E+04  0.10566000000E+00 0. -1.
         -4    1    4    4    0  502  0.14572801495E+03  0.12053718382E+03  0.11558643637E+03  0.22164406443E+03  0.00000000000E+00 0. -1.
<mgrwt>
<rscale>  2 0.11600094E+04</rscale>
<asrwt>0</asrwt>
<pdfrwt beam="1">  1       21 0.97167216E-01 0.11606702E+04</pdfrwt>
<pdfrwt beam="2">  1       21 0.32779294E+00 0.11606702E+04</pdfrwt>
<totfact> 0.70513376E+00</totfact>
</mgrwt>
</event>
<event>
 8    1  0.5815007E-006  0.1052486E+04  0.7818608E-02  0.8731835E-01
         21   -1    0    0  501  502  0.00000000000E+00  0.00000000000E+00  0.10047327826E+04  0.10047327826E+04  0.00000000000E+00 0. -1.
         21   -1    0    0  502  503 -0.00000000000E+00 -0.00000000000E+00 -0.12580325726E+04  0.12580325726E+04  0.00000000000E+00 0. -1.
   -9000010    2    1    2    0  503 -0.25365959632E+03 -0.93180485146E+02 -0.55469628659E+03  0.11897119447E+04  0.10172024122E+04 0.  0.
    9000010    2    1    2  501    0  0.25365959632E+03  0.93180485146E+02  0.30139649664E+03  0.10730534105E+04  0.99376958096E+03 0.  0.
        -13    1    4    4    0    0 -0.36489828634E+03  0.82780425760E+02  0.25473391617E+03  0.45265078977E+03  0.10566000000E+00 0.  1.
          4    1    4    4  501    0  0.61855788266E+03  0.10400059386E+02  0.46662580467E+02  0.62040262076E+03  0.00000000000E+00 0.  1.
         13    1    3    3    0    0 -0.21108174519E+03 -0.38950097513E+03 -0.72176592835E+03  0.84688404122E+03  0.10566000000E+00 0. -1.
         -4    1    3    3    0  503 -0.42577851132E+02  0.29632048999E+03  0.16706964177E+03  0.34282790346E+03  0.00000000000E+00 0. -1.
<mgrwt>
<rscale>  2 0.10467823E+04</rscale>
<asrwt>0</asrwt>
<pdfrwt beam="1">  1       21 0.15457427E+00 0.10524859E+04</pdfrwt>
<pdfrwt beam="2">  1       21 0.19354347E+00 0.10524859E+04</pdfrwt>
<totfact> 0.18461677E+01</totfact>
</mgrwt>
</event>
<event>
 8    1  0.5815007E-006  0.1167880E+04  0.7818608E-02  0.8636801E-01
         21   -1    0    0  503  502  0.00000000000E+00  0.00000000000E+00  0.45691757286E+03  0.45691757286E+03  0.00000000000E+00 0.  1.
         21   -1    0    0  501  503 -0.00000000000E+00 -0.00000000000E+00 -0.29629817772E+04  0.29629817772E+04  0.00000000000E+00 0.  1.
    9000010    2    1    2  501    0 -0.55092693840E+03  0.23284326924E+02 -0.10446522011E+04  0.15669209911E+04  0.10295049876E+04 0.  0.
   -9000010    2    1    2    0  502  0.55092693840E+03 -0.23284326924E+02 -0.14614120032E+04  0.18529783590E+04  0.99686564013E+03 0.  0.
        -13    1    3    3    0    0 -0.41072586357E+03 -0.42697664606E+03 -0.89279769811E+03  0.10714907989E+04  0.10566000000E+00 0.  1.
          4    1    3    3  501    0 -0.14020107483E+03  0.45026097298E+03 -0.15185450302E+03  0.49543019212E+03  0.00000000000E+00 0.  1.
         13    1    4    4    0    0 -0.49589853204E+01  0.18968722630E+03 -0.11788684748E+04  0.11940421799E+04  0.10566000000E+00 0. -1.
         -4    1    4    4    0  502  0.55588592372E+03 -0.21297155322E+03 -0.28254352839E+03  0.65893617908E+03  0.00000000000E+00 0. -1.
<mgrwt>
<rscale>  2 0.11606459E+04</rscale>
<asrwt>0</asrwt>
<pdfrwt beam="1">  1       21 0.70295011E-01 0.11678798E+04</pdfrwt>
<pdfrwt beam="2">  1       21 0.45584335E+00 0.11678798E+04</pdfrwt>
<totfact> 0.20161461E+00</totfact>
</mgrwt>
</event>
<event>
 8    1  0.5815007E-006  0.1163841E+04  0.7818608E-02  0.8635599E-01
         21   -1    0    0  501  502  0.00000000000E+00  0.00000000000E+00  0.13234419831E+04  0.13234419831E+04  0.00000000000E+00 0.  1.
         21   -1    0    0  502  503 -0.00000000000E+00 -0.00000000000E+00 -0.10463827551E+04  0.10463827551E+04  0.00000000000E+00 0.  1.
   -9000010    2    1    2    0  503  0.57068718518E+03  0.15116632226E+02 -0.57387717178E+02  0.11652552265E+04  0.10142061018E+04 0.  0.
    9000010    2    1    2  501    0 -0.57068718518E+03 -0.15116632226E+02  0.33444694518E+03  0.12045695117E+04  0.10065885820E+04 0.  0.
        -13    1    4    4    0    0 -0.45287975332E+02 -0.35275009426E+03  0.44570181148E+03  0.57020500316E+03  0.10566000000E+00 0.  1.
          4    1    4    4  501    0 -0.52539920985E+03  0.33763346204E+03 -0.11125486630E+03  0.63436450852E+03  0.00000000000E+00 0.  1.
         13    1    3    3    0    0  0.26665158517E+03  0.41768984841E+03 -0.32654218845E+03  0.59346245825E+03  0.10566000000E+00 0. -1.
         -4    1    3    3    0  503  0.30403560000E+03 -0.40257321619E+03  0.26915447127E+03  0.57179276829E+03  0.00000000000E+00 0. -1.
<mgrwt>
<rscale>  2 0.11621796E+04</rscale>
<asrwt>0</asrwt>
<pdfrwt beam="1">  1       21 0.20360646E+00 0.11638412E+04</pdfrwt>
<pdfrwt beam="2">  1       21 0.16098196E+00 0.11638412E+04</pdfrwt>
<totfact> 0.13217038E+01</totfact>
</mgrwt>
</event>
<event>
 8    1  0.5815007E-006  0.1082187E+04  0.7818608E-02  0.8704174E-01
         21   -1    0    0  501  502  0.00000000000E+00  0.00000000000E+00  0.68494243071E+03  0.68494243071E+03  0.00000000000E+00 0. -1.
         21   -1    0    0  502  503 -0.00000000000E+00 -0.00000000000E+00 -0.17983374661E+04  0.17983374661E+04  0.00000000000E+00 0. -1.
   -9000010    2    1    2    0  503  0.33574044703E+03  0.26351814043E+03 -0.25063364078E+03  0.11108308971E+04  0.99446699390E+03 0.  0.
    9000010    2    1    2  501    0 -0.33574044703E+03 -0.26351814043E+03 -0.86276139458E+03  0.13724489997E+04  0.97831261600E+03 0.  0.
        -13    1    4    4    0    0 -0.24354974546E+03 -0.63344130541E+03 -0.62859547414E+03  0.92503872739E+03  0.10566000000E+00 0.  1.
          4    1    4    4  501    0 -0.92190701570E+02  0.36992316498E+03 -0.23416592045E+03  0.44741027228E+03  0.00000000000E+00 0.  1.
         13    1    3    3    0    0 -0.23581886561E+03  0.28457960213E+03 -0.37391757544E+03  0.52574751708E+03  0.10566000000E+00 0. -1.
         -4    1    3    3    0  503  0.57155931264E+03 -0.21061461707E+02  0.12328393466E+03  0.58508338002E+03  0.00000000000E+00 0. -1.
<mgrwt>
<rscale>  2 0.10784610E+04</rscale>
<asrwt>0</asrwt>
<pdfrwt beam="1">  1       21 0.10537576E+00 0.10821867E+04</pdfrwt>
<pdfrwt beam="2">  1       21 0.27666730E+00 0.10821867E+04</pdfrwt>
<totfact> 0.13313822E+01</totfact>
</mgrwt>
</event>
<event>
 8    1  0.5815007E-006  0.1149996E+04  0.7818608E-02  0.8646880E-01
         21   -1    0    0  503  502  0.00000000000E+00  0.00000000000E+00  0.68067365063E+03  0.68067365063E+03  0.00000000000E+00 0.  1.
         21   -1    0    0  501  503 -0.00000000000E+00 -0.00000000000E+00 -0.19614992803E+04  0.19614992803E+04  0.00000000000E+00 0.  1.
    9000010    2    1    2  501    0  0.54671283659E+03  0.39755652375E+02 -0.47181853341E+03  0.12430220776E+04  0.10109479310E+04 0.  0.
   -9000010    2    1    2    0  502 -0.54671283659E+03 -0.39755652375E+02 -0.80900709626E+03  0.13991508533E+04  0.10013267154E+04 0.  0.
        -13    1    3    3    0    0  0.47201770884E+03  0.79901945814E+02 -0.78450581345E+03  0.91903994522E+03  0.10566000000E+00 0.  1.
          4    1    3    3  501    0  0.74695127747E+02 -0.40146293439E+02  0.31268728004E+03  0.32398213236E+03  0.00000000000E+00 0.  1.
         13    1    4    4    0    0 -0.53686364496E+03  0.41320322434E+03 -0.38818930608E+03  0.78080114396E+03  0.10566000000E+00 0. -1.
         -4    1    4    4    0  502 -0.98491916239E+01 -0.45295887671E+03 -0.42081779019E+03  0.61834970939E+03  0.00000000000E+00 0. -1.
<mgrwt>
<rscale>  2 0.11478781E+04</rscale>
<asrwt>0</asrwt>
<pdfrwt beam="1">  1       21 0.10471902E+00 0.11499962E+04</pdfrwt>
<pdfrwt beam="2">  1       21 0.30176912E+00 0.11499962E+04</pdfrwt>
<totfact> 0.88499741E+00</totfact>
</mgrwt>
</event>
<event>
 8    1  0.5815007E-006  0.1365871E+04  0.7818608E-02  0.8492771E-01
         21   -1    0    0  501  502  0.00000000000E+00  0.00000000000E+00  0.14379781910E+04  0.14379781910E+04  0.00000000000E+00 0.  1.
         21   -1    0    0  502  503 -0.00000000000E+00 -0.00000000000E+00 -0.28222843223E+04  0.28222843223E+04  0.00000000000E+00 0.  1.
   -9000010    2    1    2    0  503  0.72606771245E+03  0.56776509110E+03 -0.22639984472E+04  0.26441050401E+04  0.10080034585E+04 0.  0.
    9000010    2    1    2  501    0 -0.72606771245E+03 -0.56776509110E+03  0.87969231586E+03  0.16161574732E+04  0.99427103245E+03 0.  0.
        -13    1    4    4    0    0  0.14677153708E+03  0.51295343453E+02 -0.83453244342E+02  0.17645835631E+03  0.10566000000E+00 0.  1.
          4    1    4    4  501    0 -0.87283924953E+03 -0.61906043456E+03  0.96314556020E+03  0.14396991169E+04  0.00000000000E+00 0.  1.
         13    1    3    3    0    0 -0.12849408391E+03  0.37388114320E+03 -0.30924457029E+03  0.50192634346E+03  0.10566000000E+00 0. -1.
         -4    1    3    3    0  503  0.85456179636E+03  0.19388394791E+03 -0.19547538769E+04  0.21421786966E+04  0.00000000000E+00 0. -1.
<mgrwt>
<rscale>  2 0.13633379E+04</rscale>
<asrwt>0</asrwt>
<pdfrwt beam="1">  1       21 0.22122741E+00 0.13658706E+04</pdfrwt>
<pdfrwt beam="2">  1       21 0.43419759E+00 0.13658706E+04</pdfrwt>
<totfact> 0.94525649E-02</totfact>
</mgrwt>
</event>
<event>
 8    1  0.5815007E-006  0.1130446E+04  0.7818608E-02  0.8672456E-01
         21   -1    0    0  501  502  0.00000000000E+00  0.00000000000E+00  0.72177622931E+03  0.72177622931E+03  0.00000000000E+00 0. -1.
         21   -1    0    0  502  503 -0.00000000000E+00 -0.00000000000E+00 -0.18458197138E+04  0.18458197138E+04  0.00000000000E+00 0. -1.
   -9000010    2    1    2    0  503  0.14627722047E+03 -0.33763671603E+03 -0.92878293457E+03  0.14204104335E+04  0.10097190118E+04 0.  0.
    9000010    2    1    2  501    0 -0.14627722047E+03  0.33763671603E+03 -0.19526054991E+03  0.11471855096E+04  0.10688836858E+04 0.  0.
        -13    1    4    4    0    0 -0.57849442298E+03  0.37504607216E+01 -0.42511506775E+02  0.58006646408E+03  0.10566000000E+00 0.  1.
          4    1    4    4  501    0  0.43221720250E+03  0.33388625530E+03 -0.15274904313E+03  0.56711904553E+03  0.00000000000E+00 0.  1.
         13    1    3    3    0    0 -0.91156795823E+02 -0.18992594182E+03 -0.10814777009E+04  0.11018055425E+04  0.10566000000E+00 0. -1.
         -4    1    3    3    0  503  0.23743401630E+03 -0.14771077420E+03  0.15269476631E+03  0.31860489100E+03  0.00000000000E+00 0. -1.
<mgrwt>
<rscale>  2 0.11162377E+04</rscale>
<asrwt>0</asrwt>
<pdfrwt beam="1">  1       21 0.11104250E+00 0.11304459E+04</pdfrwt>
<pdfrwt beam="2">  1       21 0.28397227E+00 0.11304459E+04</pdfrwt>
<totfact> 0.10148521E+01</totfact>
</mgrwt>
</event>
<event>
 8    1  0.5815007E-006  0.1104159E+04  0.7818608E-02  0.8683460E-01
         21   -1    0    0  501  502  0.00000000000E+00  0.00000000000E+00  0.47952943059E+03  0.47952943059E+03  0.00000000000E+00 0.  1.
         21   -1    0    0  502  503 -0.00000000000E+00 -0.00000000000E+00 -0.31354980724E+04  0.31354980724E+04  0.00000000000E+00 0.  1.
   -9000010    2    1    2    0  503  0.38911566271E+03  0.28013060405E+03 -0.21237478739E+04  0.23936314968E+04  0.99462684268E+03 0.  0.
    9000010    2    1    2  501    0 -0.38911566271E+03 -0.28013060405E+03 -0.53222076785E+03  0.12213960062E+04  0.98927503953E+03 0.  0.
        -13    1    4    4    0    0 -0.32837161484E+03 -0.17562928986E+02 -0.78550005521E+03  0.85155547195E+03  0.10566000000E+00 0.  1.
          4    1    4    4  501    0 -0.60744047870E+02 -0.26256767506E+03  0.25327928736E+03  0.36984053421E+03  0.00000000000E+00 0.  1.
         13    1    3    3    0    0 -0.18485054803E+02  0.33413974275E+03 -0.18925794498E+04  0.19219386176E+04  0.10566000000E+00 0. -1.
         -4    1    3    3    0  503  0.40760071751E+03 -0.54009138702E+02 -0.23116842419E+03  0.47169287924E+03  0.00000000000E+00 0. -1.
<mgrwt>
<rscale>  2 0.11029522E+04</rscale>
<asrwt>0</asrwt>
<pdfrwt beam="1">  1       21 0.73773761E-01 0.11041588E+04</pdfrwt>
<pdfrwt beam="2">  1       21 0.48238431E+00 0.11041588E+04</pdfrwt>
<totfact> 0.11888607E+00</totfact>
</mgrwt>
</event>
<event>
 8    1  0.5815007E-006  0.1280866E+04  0.7818608E-02  0.8548503E-01
         21   -1    0    0  501  502  0.00000000000E+00  0.00000000000E+00  0.10064369370E+04  0.10064369370E+04  0.00000000000E+00 0. -1.
         21   -1    0    0  502  503 -0.00000000000E+00 -0.00000000000E+00 -0.17537674521E+04  0.17537674521E+04  0.00000000000E+00 0. -1.
   -9000010    2    1    2    0  503 -0.36503597182E+03 -0.74329404142E+03 -0.74549791864E+03  0.14820202016E+04  0.97717932768E+03 0.  0.
    9000010    2    1    2  501    0  0.36503597182E+03  0.74329404142E+03 -0.18325964072E+01  0.12781841875E+04  0.97366019024E+03 0.  0.
        -13    1    4    4    0    0  0.36897852867E+02  0.89727846570E+03  0.94871597604E+02  0.90303417862E+03  0.10566000000E+00 0.  1.
          4    1    4    4  501    0  0.32813811895E+03 -0.15398442428E+03 -0.96704194011E+02  0.37515000889E+03  0.00000000000E+00 0.  1.
         13    1    3    3    0    0  0.12895869360E+03 -0.47829418236E+03  0.61757933866E+02  0.49920909756E+03  0.10566000000E+00 0. -1.
         -4    1    3    3    0  503 -0.49399466542E+03 -0.26499985907E+03 -0.80725585251E+03  0.98281110402E+03  0.00000000000E+00 0. -1.
<mgrwt>
<rscale>  2 0.12801944E+04</rscale>
<asrwt>0</asrwt>
<pdfrwt beam="1">  1       21 0.15483645E+00 0.12808656E+04</pdfrwt>
<pdfrwt beam="2">  1       21 0.26981038E+00 0.12808656E+04</pdfrwt>
<totfact> 0.47130328E+00</totfact>
</mgrwt>
</event>
<event>
 8    1  0.5815007E-006  0.1065524E+04  0.7818608E-02  0.8718409E-01
         21   -1    0    0  501  502  0.00000000000E+00  0.00000000000E+00  0.16293962637E+04  0.16293962637E+04  0.00000000000E+00 0. -1.
         21   -1    0    0  502  503 -0.00000000000E+00 -0.00000000000E+00 -0.68773094934E+03  0.68773094934E+03  0.00000000000E+00 0. -1.
   -9000010    2    1    2    0  503 -0.30947864708E+03  0.72742268020E+02  0.48375436787E+03  0.11701961547E+04  0.10169917805E+04 0.  0.
    9000010    2    1    2  501    0  0.30947864708E+03 -0.72742268020E+02  0.45791094652E+03  0.11469310583E+04  0.10023472188E+04 0.  0.
        -13    1    4    4    0    0  0.63710141957E+03  0.13121703586E+03  0.37962773566E+03  0.75314896147E+03  0.10566000000E+00 0.  1.
          4    1    4    4  501    0 -0.32762277249E+03 -0.20395930388E+03  0.78283210865E+02  0.39378209685E+03  0.00000000000E+00 0.  1.
         13    1    3    3    0    0 -0.39145658002E+03  0.42985752634E+03  0.54712907737E+03  0.79835204356E+03  0.10566000000E+00 0. -1.
         -4    1    3    3    0  503  0.81977932935E+02 -0.35711525832E+03 -0.63374709505E+02  0.37184411118E+03  0.00000000000E+00 0. -1.
<mgrwt>
<rscale>  2 0.10620143E+04</rscale>
<asrwt>0</asrwt>
<pdfrwt beam="1">  1       21 0.25067635E+00 0.10655237E+04</pdfrwt>
<pdfrwt beam="2">  1       21 0.10580476E+00 0.10655237E+04</pdfrwt>
<totfact> 0.20337404E+01</totfact>
</mgrwt>
</event>
<event>
 8    1  0.5815007E-006  0.1099641E+04  0.7818608E-02  0.8687520E-01
         21   -1    0    0  503  502  0.00000000000E+00  0.00000000000E+00  0.10222018683E+04  0.10222018683E+04  0.00000000000E+00 0. -1.
         21   -1    0    0  501  503 -0.00000000000E+00 -0.00000000000E+00 -0.14441123619E+04  0.14441123619E+04  0.00000000000E+00 0. -1.
    9000010    2    1    2  501    0 -0.24644118314E+03  0.32675894662E+03 -0.74148661075E+03  0.13211774915E+04  0.10140034044E+04 0.  0.
   -9000010    2    1    2    0  502  0.24644118314E+03 -0.32675894662E+03  0.31957611708E+03  0.11451367387E+04  0.10206393044E+04 0.  0.
        -13    1    3    3    0    0  0.13869499741E+03  0.56216898154E+03 -0.63112384472E+03  0.85649727650E+03  0.10566000000E+00 0.  1.
          4    1    3    3  501    0 -0.38513618054E+03 -0.23541003491E+03 -0.11036276603E+03  0.46468021502E+03  0.00000000000E+00 0.  1.
         13    1    4    4    0    0 -0.27731688931E+03 -0.13073889818E+03 -0.21265065694E+03  0.37311878759E+03  0.10566000000E+00 0. -1.
         -4    1    4    4    0  502  0.52375807245E+03 -0.19602004844E+03  0.53222677401E+03  0.77201795110E+03  0.00000000000E+00 0. -1.
<mgrwt>
<rscale>  2 0.10980982E+04</rscale>
<asrwt>0</asrwt>
<pdfrwt beam="1">  1       21 0.15726182E+00 0.10996405E+04</pdfrwt>
<pdfrwt beam="2">  1       21 0.22217113E+00 0.10996405E+04</pdfrwt>
<totfact> 0.10415907E+01</totfact>
</mgrwt>
</event>
<event>
 8    1  0.5815007E-006  0.1029727E+04  0.7818608E-02  0.8768009E-01
         21   -1    0    0  503  502  0.00000000000E+00  0.00000000000E+00  0.17212016112E+04  0.17212016112E+04  0.00000000000E+00 0. -1.
         21   -1    0    0  501  503 -0.00000000000E+00 -0.00000000000E+00 -0.57015213590E+03  0.57015213590E+03  0.00000000000E+00 0. -1.
    9000010    2    1    2  501    0  0.12193735775E+03  0.15080047737E+03  0.43753279079E+03  0.10385794636E+04  0.92173903894E+03 0.  0.
   -9000010    2    1    2    0  502 -0.12193735775E+03 -0.15080047737E+03  0.71351668451E+03  0.12527742835E+04  0.10113000758E+04 0.  0.
        -13    1    3    3    0    0 -0.86401091445E+02  0.26500085862E+03  0.65791287780E+03  0.71452079719E+03  0.10566000000E+00 0.  1.
          4    1    3    3  501    0  0.20833844919E+03 -0.11420038126E+03 -0.22038008702E+03  0.32405866636E+03  0.00000000000E+00 0.  1.
         13    1    4    4    0    0 -0.56750152717E+03 -0.12939297679E+03  0.43821455647E+03  0.72858255157E+03  0.10566000000E+00 0. -1.
         -4    1    4    4    0  502  0.44556416942E+03 -0.21407500578E+02  0.27530212803E+03  0.52419173196E+03  0.00000000000E+00 0. -1.
<mgrwt>
<rscale>  2 0.10070359E+04</rscale>
<asrwt>0</asrwt>
<pdfrwt beam="1">  1       21 0.26480024E+00 0.10297268E+04</pdfrwt>
<pdfrwt beam="2">  1       21 0.87715714E-01 0.10297268E+04</pdfrwt>
<totfact> 0.26353556E+01</totfact>
</mgrwt>
</event>
<event>
 8    1  0.5815007E-006  0.1068308E+04  0.7818608E-02  0.8713363E-01
         21   -1    0    0  503  502  0.00000000000E+00  0.00000000000E+00  0.16190049081E+04  0.16190049081E+04  0.00000000000E+00 0.  1.
         21   -1    0    0  501  503 -0.00000000000E+00 -0.00000000000E+00 -0.70687820172E+03  0.70687820172E+03  0.00000000000E+00 0.  1.
    9000010    2    1    2  501    0  0.11350813091E+03 -0.35884272371E+03  0.37662637222E+03  0.11308761016E+04  0.99768789549E+03 0.  0.
   -9000010    2    1    2    0  502 -0.11350813091E+03  0.35884272371E+03  0.53550033417E+03  0.11950070082E+04  0.99981445561E+03 0.  0.
        -13    1    3    3    0    0 -0.18728793650E+03 -0.62840798417E+03  0.17108364716E+03  0.67767469424E+03  0.10566000000E+00 0.  1.
          4    1    3    3  501    0  0.30079606740E+03  0.26956526047E+03  0.20554272506E+03  0.45320140737E+03  0.00000000000E+00 0.  1.
         13    1    4    4    0    0  0.22938392931E+03  0.13536702261E+03  0.70376556001E+03  0.75248069242E+03  0.10566000000E+00 0. -1.
         -4    1    4    4    0  502 -0.34289206022E+03  0.22347570110E+03 -0.16826522585E+03  0.44252631580E+03  0.00000000000E+00 0. -1.
<mgrwt>
<rscale>  2 0.10678098E+04</rscale>
<asrwt>0</asrwt>
<pdfrwt beam="1">  1       21 0.24907768E+00 0.10683076E+04</pdfrwt>
<pdfrwt beam="2">  1       21 0.10875049E+00 0.10683076E+04</pdfrwt>
<totfact> 0.19394202E+01</totfact>
</mgrwt>
</event>
<event>
 8    1  0.5815007E-006  0.1036580E+04  0.7818608E-02  0.8742134E-01
         21   -1    0    0  503  502  0.00000000000E+00  0.00000000000E+00  0.68932744975E+03  0.68932744975E+03  0.00000000000E+00 0.  1.
         21   -1    0    0  501  503 -0.00000000000E+00 -0.00000000000E+00 -0.15726895697E+04  0.15726895697E+04  0.00000000000E+00 0.  1.
    9000010    2    1    2  501    0 -0.22488322642E+02  0.27367610119E+03 -0.57355793855E+03  0.11801310639E+04  0.99415103784E+03 0.  0.
   -9000010    2    1    2    0  502  0.22488322642E+02 -0.27367610119E+03 -0.30980418141E+03  0.10818859556E+04  0.99954702593E+03 0.  0.
        -13    1    3    3    0    0 -0.18476496477E+03 -0.19877707903E+03  0.14290319735E+03  0.30671119042E+03  0.10566000000E+00 0.  1.
          4    1    3    3  501    0  0.16227664213E+03  0.47245318023E+03 -0.71646113590E+03  0.87341987345E+03  0.00000000000E+00 0.  1.
         13    1    4    4    0    0 -0.48289928559E+03 -0.56474481516E+02 -0.13225718091E+03  0.50385817464E+03  0.10566000000E+00 0. -1.
         -4    1    4    4    0  502  0.50538760824E+03 -0.21720161968E+03 -0.17754700050E+03  0.57802778094E+03  0.00000000000E+00 0. -1.
<mgrwt>
<rscale>  2 0.10352772E+04</rscale>
<asrwt>0</asrwt>
<pdfrwt beam="1">  1       21 0.10605038E+00 0.10365802E+04</pdfrwt>
<pdfrwt beam="2">  1       21 0.24195224E+00 0.10365802E+04</pdfrwt>
<totfact> 0.23555750E+01</totfact>
</mgrwt>
</event>
<event>
 8    1  0.5815007E-006  0.1093425E+04  0.7818608E-02  0.8691630E-01
         21   -1    0    0  501  502  0.00000000000E+00  0.00000000000E+00  0.16064855584E+04  0.16064855584E+04  0.00000000000E+00 0.  1.
         21   -1    0    0  502  503 -0.00000000000E+00 -0.00000000000E+00 -0.74600535141E+03  0.74600535141E+03  0.00000000000E+00 0.  1.
   -9000010    2    1    2    0  503  0.10439491768E+03 -0.44032662679E+03  0.36418280704E+03  0.11524785296E+04  0.99538525563E+03 0.  0.
    9000010    2    1    2  501    0 -0.10439491768E+03  0.44032662679E+03  0.49629739997E+03  0.12000123802E+04  0.99445098742E+03 0.  0.
        -13    1    4    4    0    0 -0.41243094838E+03  0.64337329221E+02 -0.10146590749E+03  0.42957411544E+03  0.10566000000E+00 0.  1.
          4    1    4    4  501    0  0.30803603070E+03  0.37598929757E+03  0.59776330746E+03  0.77043826478E+03  0.00000000000E+00 0.  1.
         13    1    3    3    0    0 -0.13905586391E+03 -0.12603585751E+03 -0.31432031681E+03  0.36608584156E+03  0.10566000000E+00 0. -1.
         -4    1    3    3    0  503  0.24345078159E+03 -0.31429076928E+03  0.67850312385E+03  0.78639268803E+03  0.00000000000E+00 0. -1.
<mgrwt>
<rscale>  2 0.10932121E+04</rscale>
<asrwt>0</asrwt>
<pdfrwt beam="1">  1       21 0.24715162E+00 0.10934247E+04</pdfrwt>
<pdfrwt beam="2">  1       21 0.11477005E+00 0.10934247E+04</pdfrwt>
<totfact> 0.17198805E+01</totfact>
</mgrwt>
</event>
<event>
 8    1  0.5815007E-006  0.1107321E+04  0.7818608E-02  0.8681955E-01
         21   -1    0    0  501  502  0.00000000000E+00  0.00000000000E+00  0.92390249406E+03  0.92390249406E+03  0.00000000000E+00 0.  1.
         21   -1    0    0  502  503 -0.00000000000E+00 -0.00000000000E+00 -0.13979692798E+04  0.13979692798E+04  0.00000000000E+00 0. -1.
   -9000010    2    1    2    0  503 -0.23485092175E+03 -0.40268620187E+03 -0.51893283141E+03  0.12136419825E+04  0.99313868400E+03 0.  0.
    9000010    2    1    2  501    0  0.23485092175E+03  0.40268620187E+03  0.44866045700E+02  0.11082297913E+04  0.10044148424E+04 0.  0.
        -13    1    4    4    0    0  0.17483615557E+03  0.58683384871E+03 -0.32314698924E+03  0.69236235824E+03  0.10566000000E+00 0.  1.
          4    1    4    4  501    0  0.60014766179E+02 -0.18414764684E+03  0.36801303494E+03  0.41586743306E+03  0.00000000000E+00 0.  1.
         13    1    3    3    0    0 -0.98606018107E+02  0.33208925118E+03 -0.20927874990E+03  0.40472709803E+03  0.10566000000E+00 0. -1.
         -4    1    3    3    0  503 -0.13624490364E+03 -0.73477545306E+03 -0.30965408151E+03  0.80891488451E+03  0.00000000000E+00 0. -1.
<mgrwt>
<rscale>  2 0.11047579E+04</rscale>
<asrwt>0</asrwt>
<pdfrwt beam="1">  1       21 0.14213884E+00 0.11073212E+04</pdfrwt>
<pdfrwt beam="2">  1       21 0.21507220E+00 0.11073212E+04</pdfrwt>
<totfact> 0.16062551E+01</totfact>
</mgrwt>
</event>
<event>
 8    1  0.5815007E-006  0.1159276E+04  0.7818608E-02  0.8644175E-01
         21   -1    0    0  503  502  0.00000000000E+00  0.00000000000E+00  0.91671103812E+03  0.91671103812E+03  0.00000000000E+00 0. -1.
         21   -1    0    0  501  503 -0.00000000000E+00 -0.00000000000E+00 -0.15227848848E+04  0.15227848848E+04  0.00000000000E+00 0. -1.
    9000010    2    1    2  501    0  0.36568378123E+03 -0.44305269064E+03 -0.61396153634E+03  0.13118195435E+04  0.10069267263E+04 0.  0.
   -9000010    2    1    2    0  502 -0.36568378123E+03  0.44305269064E+03  0.78876897028E+01  0.11276763793E+04  0.97034606523E+03 0.  0.
        -13    1    3    3    0    0  0.30384290909E+03  0.20149744491E+03  0.68609169435E+02  0.37098377728E+03  0.10566000000E+00 0.  1.
          4    1    3    3  501    0  0.61840872145E+02 -0.64455013556E+03 -0.68257070578E+03  0.94083576627E+03  0.00000000000E+00 0.  1.
         13    1    4    4    0    0 -0.10935647373E+03  0.24678382314E+03 -0.47527705848E+03  0.54657971714E+03  0.10566000000E+00 0. -1.
         -4    1    4    4    0  502 -0.25632730750E+03  0.19626886750E+03  0.48316474818E+03  0.58109666219E+03  0.00000000000E+00 0. -1.
<mgrwt>
<rscale>  2 0.11512873E+04</rscale>
<asrwt>0</asrwt>
<pdfrwt beam="1">  1       21 0.14103247E+00 0.11592764E+04</pdfrwt>
<pdfrwt beam="2">  1       21 0.23427460E+00 0.11592764E+04</pdfrwt>
<totfact> 0.11673376E+01</totfact>
</mgrwt>
</event>
<event>
 8    1  0.5815007E-006  0.1462707E+04  0.7818608E-02  0.8431983E-01
         21   -1    0    0  503  502  0.00000000000E+00  0.00000000000E+00  0.26923515456E+04  0.26923515456E+04  0.00000000000E+00 0. -1.
         21   -1    0    0  501  503 -0.00000000000E+00 -0.00000000000E+00 -0.81918336692E+03  0.81918336692E+03  0.00000000000E+00 0. -1.
    9000010    2    1    2  501    0  0.43677285552E+03 -0.97434768021E+03  0.12541964367E+04  0.19232536421E+04  0.99286048397E+03 0.  0.
   -9000010    2    1    2    0  502 -0.43677285552E+03  0.97434768021E+03  0.61897174193E+03  0.15882812704E+04  0.99969367678E+03 0.  0.
        -13    1    3    3    0    0  0.45059508443E+03 -0.32059926925E+02  0.16013567254E+03  0.47927780442E+03  0.10566000000E+00 0.  1.
          4    1    3    3  501    0 -0.13822228917E+02 -0.94228775328E+03  0.10940607642E+04  0.14439758377E+04  0.00000000000E+00 0.  1.
         13    1    4    4    0    0  0.25124462343E+03  0.51848643715E+03  0.34947720769E+02  0.57721174681E+03  0.10566000000E+00 0. -1.
         -4    1    4    4    0  502 -0.68801747894E+03  0.45586124306E+03  0.58402402116E+03  0.10110695236E+04  0.00000000000E+00 0. -1.
<mgrwt>
<rscale>  2 0.14615401E+04</rscale>
<asrwt>0</asrwt>
<pdfrwt beam="1">  1       21 0.41420793E+00 0.14627069E+04</pdfrwt>
<pdfrwt beam="2">  1       21 0.12602821E+00 0.14627069E+04</pdfrwt>
<totfact> 0.81564530E-01</totfact>
</mgrwt>
</event>
<event>
 8    1  0.5815007E-006  0.1178891E+04  0.7818608E-02  0.8631037E-01
         21   -1    0    0  501  502  0.00000000000E+00  0.00000000000E+00  0.11380210954E+04  0.11380210954E+04  0.00000000000E+00 0.  1.
         21   -1    0    0  502  503 -0.00000000000E+00 -0.00000000000E+00 -0.12268724701E+04  0.12268724701E+04  0.00000000000E+00 0.  1.
   -9000010    2    1    2    0  503 -0.53994342494E+03  0.93442176153E+02 -0.28145192226E+03  0.11703734442E+04  0.99513238917E+03 0.  0.
    9000010    2    1    2  501    0  0.53994342494E+03 -0.93442176153E+02  0.19260054761E+03  0.11945201213E+04  0.10437973974E+04 0.  0.
        -13    1    4    4    0    0  0.50572824954E+03  0.39874528166E+03 -0.47611299942E+02  0.64577527753E+03  0.10566000000E+00 0.  1.
          4    1    4    4  501    0  0.34215175401E+02 -0.49218745781E+03  0.24021184755E+03  0.54874484376E+03  0.00000000000E+00 0.  1.
         13    1    3    3    0    0 -0.78666262162E+03  0.26457484429E+03 -0.15374577856E+03  0.84408275901E+03  0.10566000000E+00 0. -1.
         -4    1    3    3    0  503  0.24671919668E+03 -0.17113266813E+03 -0.12770614370E+03  0.32629068520E+03  0.00000000000E+00 0. -1.
<mgrwt>
<rscale>  2 0.11680257E+04</rscale>
<asrwt>0</asrwt>
<pdfrwt beam="1">  1       21 0.17508017E+00 0.11788907E+04</pdfrwt>
<pdfrwt beam="2">  1       21 0.18874961E+00 0.11788907E+04</pdfrwt>
<totfact> 0.13114927E+01</totfact>
</mgrwt>
</event>
<event>
 8    1  0.5815007E-006  0.1207604E+04  0.7818608E-02  0.8607845E-01
         21   -1    0    0  501  502  0.00000000000E+00  0.00000000000E+00  0.18488215503E+04  0.18488215503E+04  0.00000000000E+00 0. -1.
         21   -1    0    0  502  503 -0.00000000000E+00 -0.00000000000E+00 -0.91570323431E+03  0.91570323431E+03  0.00000000000E+00 0. -1.
   -9000010    2    1    2    0  503 -0.28266642718E+03  0.53534255981E+03 -0.88246879012E+02  0.12108236844E+04  0.10448992858E+04 0.  0.
    9000010    2    1    2  501    0  0.28266642718E+03 -0.53534255981E+03  0.10213651950E+04  0.15537011003E+04  0.10021518258E+04 0.  0.
        -13    1    4    4    0    0  0.53393542729E+03 -0.68687231695E+03  0.83647270142E+03  0.12068832635E+04  0.10566000000E+00 0.  1.
          4    1    4    4  501    0 -0.25126900011E+03  0.15152975715E+03  0.18489249363E+03  0.34681783680E+03  0.00000000000E+00 0.  1.
         13    1    3    3    0    0 -0.60684930019E+01  0.73493020987E+03 -0.31671084470E+03  0.80029057867E+03  0.10566000000E+00 0. -1.
         -4    1    3    3    0  503 -0.27659793418E+03 -0.19958765007E+03  0.22846396569E+03  0.41053310570E+03  0.00000000000E+00 0. -1.
<mgrwt>
<rscale>  2 0.11982987E+04</rscale>
<asrwt>0</asrwt>
<pdfrwt beam="1">  1       21 0.28443408E+00 0.12076036E+04</pdfrwt>
<pdfrwt beam="2">  1       21 0.14087742E+00 0.12076036E+04</pdfrwt>
<totfact> 0.50243605E+00</totfact>
</mgrwt>
</event>
<event>
 8    1  0.5815007E-006  0.1389816E+04  0.7818608E-02  0.8480678E-01
         21   -1    0    0  503  502  0.00000000000E+00  0.00000000000E+00  0.15247911979E+04  0.15247911979E+04  0.00000000000E+00 0.  1.
         21   -1    0    0  501  503 -0.00000000000E+00 -0.00000000000E+00 -0.12641728045E+04  0.12641728045E+04  0.00000000000E+00 0.  1.
    9000010    2    1    2  501    0  0.93240514899E+03 -0.13875865795E+03 -0.65916007367E+02  0.13613038886E+04  0.97988266134E+03 0.  0.
   -9000010    2    1    2    0  502 -0.93240514899E+03  0.13875865795E+03  0.32653440076E+03  0.14276601137E+04  0.10212518585E+04 0.  0.
        -13    1    3    3    0    0  0.14781982467E+03 -0.32467770483E+03 -0.35639315233E+03  0.50426421920E+03  0.10566000000E+00 0.  1.
          4    1    3    3  501    0  0.78458532431E+03  0.18591904688E+03  0.29047714496E+03  0.85703966937E+03  0.00000000000E+00 0.  1.
         13    1    4    4    0    0 -0.25862492349E+03 -0.24688236128E+03  0.51672590566E+03  0.62836567706E+03  0.10566000000E+00 0. -1.
         -4    1    4    4    0  502 -0.67378022549E+03  0.38564101923E+03 -0.19019150490E+03  0.79929443669E+03  0.00000000000E+00 0. -1.
<mgrwt>
<rscale>  2 0.13822269E+04</rscale>
<asrwt>0</asrwt>
<pdfrwt beam="1">  1       21 0.23458326E+00 0.13898161E+04</pdfrwt>
<pdfrwt beam="2">  1       21 0.19448812E+00 0.13898161E+04</pdfrwt>
<totfact> 0.38966060E+00</totfact>
</mgrwt>
</event>
<event>
 8    1  0.5815007E-006  0.1364757E+04  0.7818608E-02  0.8493727E-01
         21   -1    0    0  501  502  0.00000000000E+00  0.00000000000E+00  0.98602703477E+03  0.98602703477E+03  0.00000000000E+00 0. -1.
         21   -1    0    0  502  503 -0.00000000000E+00 -0.00000000000E+00 -0.22304759258E+04  0.22304759258E+04  0.00000000000E+00 0.  1.
   -9000010    2    1    2    0  503  0.42188738716E+03 -0.80999205683E+03 -0.12682966325E+04  0.18630993958E+04  0.10141434372E+04 0.  0.
    9000010    2    1    2  501    0 -0.42188738716E+03  0.80999205683E+03  0.23847741412E+02  0.13534035648E+04  0.99852711274E+03 0.  0.
        -13    1    4    4    0    0 -0.15659796381E+03  0.12043498984E+02 -0.38689289428E+03  0.41755729061E+03  0.10566000000E+00 0.  1.
          4    1    4    4  501    0 -0.26528942335E+03  0.79794855784E+03  0.41074063569E+03  0.93584627419E+03  0.00000000000E+00 0.  1.
         13    1    3    3    0    0 -0.74892661770E+02 -0.28914266628E+02  0.14960482779E+03  0.16978386633E+03  0.10566000000E+00 0. -1.
         -4    1    3    3    0  503  0.49678004893E+03 -0.78107779020E+03 -0.14179014603E+04  0.16933155295E+04  0.00000000000E+00 0. -1.
<mgrwt>
<rscale>  2 0.13618572E+04</rscale>
<asrwt>0</asrwt>
<pdfrwt beam="1">  1       21 0.15169647E+00 0.13647575E+04</pdfrwt>
<pdfrwt beam="2">  1       21 0.34315014E+00 0.13647575E+04</pdfrwt>
<totfact> 0.14961622E+00</totfact>
</mgrwt>
</event>
<event>
 8    1  0.5815007E-006  0.1042752E+04  0.7818608E-02  0.8740149E-01
         21   -1    0    0  503  502  0.00000000000E+00  0.00000000000E+00  0.70586503774E+03  0.70586503774E+03  0.00000000000E+00 0. -1.
         21   -1    0    0  501  503 -0.00000000000E+00 -0.00000000000E+00 -0.15098809109E+04  0.15098809109E+04  0.00000000000E+00 0. -1.
    9000010    2    1    2  501    0  0.23209667009E+03 -0.18420632696E+03 -0.41887915431E+03  0.11237399959E+04  0.99976547114E+03 0.  0.
   -9000010    2    1    2    0  502 -0.23209667009E+03  0.18420632696E+03 -0.38513671888E+03  0.10920059528E+04  0.97792938063E+03 0.  0.
        -13    1    3    3    0    0 -0.28799683694E+03 -0.30632323890E+03 -0.41315963333E+03  0.58947179623E+03  0.10566000000E+00 0.  1.
          4    1    3    3  501    0  0.52009350703E+03  0.12211691194E+03 -0.57195209793E+01  0.53426819965E+03  0.00000000000E+00 0.  1.
         13    1    4    4    0    0 -0.60731286263E+03  0.17706568320E+03 -0.15337668112E+03  0.65092671382E+03  0.10566000000E+00 0. -1.
         -4    1    4    4    0  502  0.37521619254E+03  0.71406437564E+01 -0.23176003776E+03  0.44107923896E+03  0.00000000000E+00 0. -1.
<mgrwt>
<rscale>  2 0.10374830E+04</rscale>
<asrwt>0</asrwt>
<pdfrwt beam="1">  1       21 0.10859462E+00 0.10427520E+04</pdfrwt>
<pdfrwt beam="2">  1       21 0.23228937E+00 0.10427520E+04</pdfrwt>
<totfact> 0.26007463E+01</totfact>
</mgrwt>
</event>
<event>
 8    1  0.5815007E-006  0.1273309E+04  0.7818608E-02  0.8556086E-01
         21   -1    0    0  501  502  0.00000000000E+00  0.00000000000E+00  0.15071242943E+04  0.15071242943E+04  0.00000000000E+00 0.  1.
         21   -1    0    0  502  503 -0.00000000000E+00 -0.00000000000E+00 -0.10701376198E+04  0.10701376198E+04  0.00000000000E+00 0.  1.
   -9000010    2    1    2    0  503  0.62032428632E+03 -0.47227401868E+03  0.10847898770E+03  0.12622585188E+04  0.98675422912E+03 0.  0.
    9000010    2    1    2  501    0 -0.62032428632E+03  0.47227401868E+03  0.32850768679E+03  0.13150033952E+04  0.10067132960E+04 0.  0.
        -13    1    4    4    0    0 -0.68575389080E+03 -0.10157386031E+03  0.13807108425E+03  0.70685166995E+03  0.10566000000E+00 0.  1.
          4    1    4    4  501    0  0.65429604478E+02  0.57384787900E+03  0.19043660254E+03  0.60815172528E+03  0.00000000000E+00 0.  1.
         13    1    3    3    0    0  0.51993246977E+02 -0.19987922389E+03  0.48567772743E+03  0.52776686895E+03  0.10566000000E+00 0. -1.
         -4    1    3    3    0  503  0.56833103934E+03 -0.27239479480E+03 -0.37719873973E+03  0.73449164989E+03  0.00000000000E+00 0. -1.
<mgrwt>
<rscale>  2 0.12693608E+04</rscale>
<asrwt>0</asrwt>
<pdfrwt beam="1">  1       21 0.23186528E+00 0.12733093E+04</pdfrwt>
<pdfrwt beam="2">  1       21 0.16463656E+00 0.12733093E+04</pdfrwt>
<totfact> 0.73411531E+00</totfact>
</mgrwt>
</event>
<event>
 8    1  0.5815007E-006  0.1254288E+04  0.7818608E-02  0.8567569E-01
         21   -1    0    0  503  502  0.00000000000E+00  0.00000000000E+00  0.95758699522E+03  0.95758699522E+03  0.00000000000E+00 0. -1.
         21   -1    0    0  501  503 -0.00000000000E+00 -0.00000000000E+00 -0.16374599422E+04  0.16374599422E+04  0.00000000000E+00 0.  1.
    9000010    2    1    2  501    0 -0.92382819819E+03  0.11945141335E+03 -0.36001821862E+03  0.13006183579E+04  0.83322734912E+03 0.  0.
   -9000010    2    1    2    0  502  0.92382819819E+03 -0.11945141335E+03 -0.31985472835E+03  0.12944285795E+04  0.83994709371E+03 0.  0.
        -13    1    3    3    0    0 -0.77891045487E+03  0.40082945402E+03 -0.43095524965E+03  0.97626235526E+03  0.10566000000E+00 0.  1.
          4    1    3    3  501    0 -0.14491774331E+03 -0.28137804067E+03  0.70937031027E+02  0.32435600267E+03  0.00000000000E+00 0.  1.
         13    1    4    4    0    0  0.60830150783E+03  0.11866948693E+03 -0.55714466008E+03  0.83338067831E+03  0.10566000000E+00 0. -1.
         -4    1    4    4    0  502  0.31552669036E+03 -0.23812090028E+03  0.23728993173E+03  0.46104790118E+03  0.00000000000E+00 0. -1.
<mgrwt>
<rscale>  2 0.12531640E+04</rscale>
<asrwt>0</asrwt>
<pdfrwt beam="1">  1       21 0.14732108E+00 0.12542880E+04</pdfrwt>
<pdfrwt beam="2">  1       21 0.25191691E+00 0.12542880E+04</pdfrwt>
<totfact> 0.74463339E+00</totfact>
</mgrwt>
</event>
<event>
 8    1  0.5815007E-006  0.1220544E+04  0.7818608E-02  0.8596049E-01
         21   -1    0    0  503  502  0.00000000000E+00  0.00000000000E+00  0.17793150202E+04  0.17793150202E+04  0.00000000000E+00 0. -1.
         21   -1    0    0  501  503 -0.00000000000E+00 -0.00000000000E+00 -0.82308991951E+03  0.82308991951E+03  0.00000000000E+00 0. -1.
    9000010    2    1    2  501    0 -0.65301671470E+03  0.75109365083E+02  0.39957770931E+03  0.12842860553E+04  0.10284240758E+04 0.  0.
   -9000010    2    1    2    0  502  0.65301671470E+03 -0.75109365083E+02  0.55664739138E+03  0.13181188844E+04  0.99775188733E+03 0.  0.
        -13    1    3    3    0    0  0.24569822771E+03  0.11195902080E+03 -0.56412855003E+02  0.27583484699E+03  0.10566000000E+00 0.  1.
          4    1    3    3  501    0 -0.89871494241E+03 -0.36849655717E+02  0.45599056432E+03  0.10084512083E+04  0.00000000000E+00 0.  1.
         13    1    4    4    0    0  0.58903813246E+03  0.35205467008E+03  0.10681488768E+03  0.69449106806E+03  0.10566000000E+00 0. -1.
         -4    1    4    4    0  502  0.63978582237E+02 -0.42716403516E+03  0.44983250370E+03  0.62362781633E+03  0.00000000000E+00 0. -1.
<mgrwt>
<rscale>  2 0.12140603E+04</rscale>
<asrwt>0</asrwt>
<pdfrwt beam="1">  1       21 0.27374077E+00 0.12205443E+04</pdfrwt>
<pdfrwt beam="2">  1       21 0.12662922E+00 0.12205443E+04</pdfrwt>
<totfact> 0.81662797E+00</totfact>
</mgrwt>
</event>
<event>
 8    1  0.5815007E-006  0.1103964E+04  0.7818608E-02  0.8688333E-01
         21   -1    0    0  503  502  0.00000000000E+00  0.00000000000E+00  0.97877880651E+03  0.97877880651E+03  0.00000000000E+00 0.  1.
         21   -1    0    0  501  503 -0.00000000000E+00 -0.00000000000E+00 -0.15899149304E+04  0.15899149304E+04  0.00000000000E+00 0.  1.
    9000010    2    1    2  501    0 -0.10701220335E+03 -0.45386359638E+03  0.31534368574E+03  0.11481197177E+04  0.10006465261E+04 0.  0.
   -9000010    2    1    2    0  502  0.10701220335E+03  0.45386359638E+03 -0.92647980963E+03  0.14205740192E+04  0.97068116842E+03 0.  0.
        -13    1    3    3    0    0  0.15667371418E+03 -0.68833225326E+03  0.52040034363E+02  0.70785317682E+03  0.10566000000E+00 0.  1.
          4    1    3    3  501    0 -0.26368591752E+03  0.23446865688E+03  0.26330365138E+03  0.44026654085E+03  0.00000000000E+00 0.  1.
         13    1    4    4    0    0  0.69114619160E+01  0.33380597841E+03 -0.11217855291E+04  0.11704174400E+04  0.10566000000E+00 0. -1.
         -4    1    4    4    0  502  0.10010074143E+03  0.12005761797E+03  0.19530571945E+03  0.25015657921E+03  0.00000000000E+00 0. -1.
<mgrwt>
<rscale>  2 0.10971295E+04</rscale>
<asrwt>0</asrwt>
<pdfrwt beam="1">  1       21 0.15058136E+00 0.11039643E+04</pdfrwt>
<pdfrwt beam="2">  1       21 0.24460229E+00 0.11039643E+04</pdfrwt>
<totfact> 0.81258214E+00</totfact>
</mgrwt>
</event>
<event>
 8    1  0.5815007E-006  0.1154362E+04  0.7818608E-02  0.8644402E-01
         21   -1    0    0  503  502  0.00000000000E+00  0.00000000000E+00  0.98619102541E+03  0.98619102541E+03  0.00000000000E+00 0.  1.
         21   -1    0    0  501  503 -0.00000000000E+00 -0.00000000000E+00 -0.14246269617E+04  0.14246269617E+04  0.00000000000E+00 0.  1.
    9000010    2    1    2  501    0  0.47617465026E+03  0.26743384353E+03 -0.52176265540E+03  0.12668022535E+04  0.10169997653E+04 0.  0.
   -9000010    2    1    2    0  502 -0.47617465026E+03 -0.26743384353E+03  0.83326719152E+02  0.11440157336E+04  0.10017811629E+04 0.  0.
        -13    1    3    3    0    0  0.76333923846E+03  0.37102146709E+03 -0.39751226062E+03  0.93720847762E+03  0.10566000000E+00 0.  1.
          4    1    3    3  501    0 -0.28716458820E+03 -0.10358762356E+03 -0.12425039478E+03  0.32959377584E+03  0.00000000000E+00 0.  1.
         13    1    4    4    0    0  0.16159117408E+03  0.86295468395E+02 -0.27579881476E+03  0.33109456775E+03  0.10566000000E+00 0. -1.
         -4    1    4    4    0  502 -0.63776582434E+03 -0.35372931193E+03  0.35912553391E+03  0.81292116587E+03  0.00000000000E+00 0. -1.
<mgrwt>
<rscale>  2 0.11510011E+04</rscale>
<asrwt>0</asrwt>
<pdfrwt beam="1">  1       21 0.15172170E+00 0.11543620E+04</pdfrwt>
<pdfrwt beam="2">  1       21 0.21917338E+00 0.11543620E+04</pdfrwt>
<totfact> 0.12129187E+01</totfact>
</mgrwt>
</event>
<event>
 8    1  0.5815007E-006  0.1970585E+04  0.7818608E-02  0.8181207E-01
         21   -1    0    0  503  502  0.00000000000E+00  0.00000000000E+00  0.22072531642E+04  0.22072531642E+04  0.00000000000E+00 0. -1.
         21   -1    0    0  501  503 -0.00000000000E+00 -0.00000000000E+00 -0.19048133596E+04  0.19048133596E+04  0.00000000000E+00 0.  1.
    9000010    2    1    2  501    0 -0.15852640038E+03 -0.16845798382E+04 -0.42948236434E+03  0.20099445226E+04  0.99623392412E+03 0.  0.
   -9000010    2    1    2    0  502  0.15852640038E+03  0.16845798382E+04  0.73192216893E+03  0.21021220012E+04  0.10100826677E+04 0.  0.
        -13    1    3    3    0    0 -0.38526173685E+02 -0.14367156093E+04 -0.72183322149E+03  0.16083156466E+04  0.10566000000E+00 0.  1.
          4    1    3    3  501    0 -0.12000022669E+03 -0.24786422891E+03  0.29235085715E+03  0.40162887602E+03  0.00000000000E+00 0.  1.
         13    1    4    4    0    0  0.45174166105E+03  0.10788360061E+04  0.91580253126E+02  0.11731771436E+04  0.10566000000E+00 0. -1.
         -4    1    4    4    0  502 -0.29321526068E+03  0.60574383215E+03  0.64034191580E+03  0.92894485757E+03  0.00000000000E+00 0. -1.
<mgrwt>
<rscale>  2 0.19688174E+04</rscale>
<asrwt>0</asrwt>
<pdfrwt beam="1">  1       21 0.33957741E+00 0.19705854E+04</pdfrwt>
<pdfrwt beam="2">  1       21 0.29304821E+00 0.19705854E+04</pdfrwt>
<totfact> 0.11652534E-01</totfact>
</mgrwt>
</event>
<event>
 8    1  0.5815007E-006  0.2055947E+04  0.7818608E-02  0.8146769E-01
         21   -1    0    0  503  502  0.00000000000E+00  0.00000000000E+00  0.12993973829E+04  0.12993973829E+04  0.00000000000E+00 0. -1.
         21   -1    0    0  501  503 -0.00000000000E+00 -0.00000000000E+00 -0.33588093428E+04  0.33588093428E+04  0.00000000000E+00 0.  1.
    9000010    2    1    2  501    0 -0.32845325265E+03 -0.17556999922E+04 -0.14650162045E+04  0.25180612661E+04  0.10019960371E+04 0.  0.
   -9000010    2    1    2    0  502  0.32845325265E+03  0.17556999922E+04 -0.59439575537E+03  0.21401454596E+04  0.10181121119E+04 0.  0.
        -13    1    3    3    0    0  0.74955404585E+02 -0.15757915072E+04 -0.95819720197E+03  0.18457733002E+04  0.10566000000E+00 0.  1.
          4    1    3    3  501    0 -0.40340865723E+03 -0.17990848503E+03 -0.50681900252E+03  0.67228796585E+03  0.00000000000E+00 0.  1.
         13    1    4    4    0    0  0.12074938829E+03  0.13470351493E+03 -0.46714562809E+03  0.50094959898E+03  0.10566000000E+00 0. -1.
         -4    1    4    4    0  502  0.20770386436E+03  0.16209964773E+04 -0.12725012727E+03  0.16391958606E+04  0.00000000000E+00 0. -1.
<mgrwt>
<rscale>  2 0.20539605E+04</rscale>
<asrwt>0</asrwt>
<pdfrwt beam="1">  1       21 0.19990729E+00 0.20559466E+04</pdfrwt>
<pdfrwt beam="2">  1       21 0.51673990E+00 0.20559466E+04</pdfrwt>
<totfact> 0.32759875E-02</totfact>
</mgrwt>
</event>
<event>
 8    1  0.5815007E-006  0.1536054E+04  0.7818608E-02  0.8390194E-01
         21   -1    0    0  501  502  0.00000000000E+00  0.00000000000E+00  0.24615093375E+04  0.24615093375E+04  0.00000000000E+00 0.  1.
         21   -1    0    0  502  503 -0.00000000000E+00 -0.00000000000E+00 -0.10860641644E+04  0.10860641644E+04  0.00000000000E+00 0. -1.
   -9000010    2    1    2    0  503 -0.10197394360E+04 -0.55908618971E+03  0.69494968890E+02  0.15376248882E+04  0.10035013011E+04 0.  0.
    9000010    2    1    2  501    0  0.10197394360E+04  0.55908618971E+03  0.13059502042E+04  0.20099486136E+04  0.99092966892E+03 0.  0.
        -13    1    4    4    0    0  0.71095449032E+03  0.58431437413E+02  0.17396891016E+03  0.73425861456E+03  0.10566000000E+00 0.  1.
          4    1    4    4  501    0  0.30878494567E+03  0.50065475230E+03  0.11319812940E+04  0.12756899991E+04  0.00000000000E+00 0.  1.
         13    1    3    3    0    0 -0.58118487939E+03 -0.81996114017E+03  0.16496157897E+03  0.10184912710E+04  0.10566000000E+00 0. -1.
         -4    1    3    3    0  503 -0.43855455660E+03  0.26087495045E+03 -0.95466610085E+02  0.51913361722E+03  0.00000000000E+00 0. -1.
<mgrwt>
<rscale>  2 0.15340037E+04</rscale>
<asrwt>0</asrwt>
<pdfrwt beam="1">  1       21 0.37869374E+00 0.15360536E+04</pdfrwt>
<pdfrwt beam="2">  1       21 0.16708680E+00 0.15360536E+04</pdfrwt>
<totfact> 0.60033877E-01</totfact>
</mgrwt>
</event>
<event>
 8    1  0.5815007E-006  0.1108725E+04  0.7818608E-02  0.8684244E-01
         21   -1    0    0  501  502  0.00000000000E+00  0.00000000000E+00  0.28753815462E+04  0.28753815462E+04  0.00000000000E+00 0. -1.
         21   -1    0    0  502  503 -0.00000000000E+00 -0.00000000000E+00 -0.43969427751E+03  0.43969427751E+03  0.00000000000E+00 0. -1.
   -9000010    2    1    2    0  503  0.28077535840E+03  0.36029297211E+03  0.85798206791E+03  0.14019290944E+04  0.10102604265E+04 0.  0.
    9000010    2    1    2  501    0 -0.28077535840E+03 -0.36029297211E+03  0.15777052008E+04  0.19131467292E+04  0.98098464794E+03 0.  0.
        -13    1    4    4    0    0 -0.62449683936E+03 -0.69658254548E+02  0.84123003711E+03  0.10500078863E+04  0.10566000000E+00 0.  1.
          4    1    4    4  501    0  0.34372148096E+03 -0.29063471757E+03  0.73647516364E+03  0.86313884294E+03  0.00000000000E+00 0.  1.
         13    1    3    3    0    0 -0.33728414779E+03  0.28171074341E+03  0.16337555745E+03  0.46884232237E+03  0.10566000000E+00 0. -1.
         -4    1    3    3    0  503  0.61805950619E+03  0.78582228706E+02  0.69460651046E+03  0.93308677208E+03  0.00000000000E+00 0. -1.
<mgrwt>
<rscale>  2 0.11020125E+04</rscale>
<asrwt>0</asrwt>
<pdfrwt beam="1">  1       21 0.44236638E+00 0.11087254E+04</pdfrwt>
<pdfrwt beam="2">  1       21 0.67645275E-01 0.11087254E+04</pdfrwt>
<totfact> 0.27726693E+00</totfact>
</mgrwt>
</event>
<event>
 8    1  0.5815007E-006  0.1379322E+04  0.7818608E-02  0.8485416E-01
         21   -1    0    0  501  502  0.00000000000E+00  0.00000000000E+00  0.16554492224E+04  0.16554492224E+04  0.00000000000E+00 0. -1.
         21   -1    0    0  502  503 -0.00000000000E+00 -0.00000000000E+00 -0.12760341657E+04  0.12760341657E+04  0.00000000000E+00 0. -1.
   -9000010    2    1    2    0  503 -0.74397046755E+03  0.60986907424E+03 -0.29773029281E+03  0.14110890708E+04  0.98848201505E+03 0.  0.
    9000010    2    1    2  501    0  0.74397046755E+03 -0.60986907424E+03  0.67714534958E+03  0.15203943173E+04  0.96314106515E+03 0.  0.
        -13    1    4    4    0    0  0.59102011251E+03  0.63927558537E+02  0.66299025998E+02  0.59815305578E+03  0.10566000000E+00 0.  1.
          4    1    4    4  501    0  0.15295035504E+03 -0.67379663278E+03  0.61084632358E+03  0.92224126154E+03  0.00000000000E+00 0.  1.
         13    1    3    3    0    0 -0.19899161213E+03 -0.11207570714E+03 -0.43969418136E+03  0.49546908089E+03  0.10566000000E+00 0. -1.
         -4    1    3    3    0  503 -0.54497885542E+03  0.72194478138E+03  0.14196388855E+03  0.91561998988E+03  0.00000000000E+00 0. -1.
<mgrwt>
<rscale>  2 0.13747882E+04</rscale>
<asrwt>0</asrwt>
<pdfrwt beam="1">  1       21 0.25468450E+00 0.13793219E+04</pdfrwt>
<pdfrwt beam="2">  1       21 0.19631295E+00 0.13793219E+04</pdfrwt>
<totfact> 0.26885839E+00</totfact>
</mgrwt>
</event>
<event>
 8    1  0.5815007E-006  0.1318313E+04  0.7818608E-02  0.8540753E-01
         21   -1    0    0  503  502  0.00000000000E+00  0.00000000000E+00  0.18513140763E+04  0.18513140763E+04  0.00000000000E+00 0.  1.
         21   -1    0    0  501  503 -0.00000000000E+00 -0.00000000000E+00 -0.91211912916E+03  0.91211912916E+03  0.00000000000E+00 0. -1.
    9000010    2    1    2  501    0  0.26628768275E+03  0.63627319341E+03  0.17704287954E+03  0.13301476818E+04  0.11234749519E+04 0.  0.
   -9000010    2    1    2    0  502 -0.26628768275E+03 -0.63627319341E+03  0.76215206755E+03  0.14332855236E+04  0.99883878150E+03 0.  0.
        -13    1    3    3    0    0  0.36848459087E+03 -0.20145163794E+03  0.24029644643E+03  0.48384506763E+03  0.10566000000E+00 0.  1.
          4    1    3    3  501    0 -0.10219690812E+03  0.83772483134E+03 -0.63253566882E+02  0.84630261420E+03  0.00000000000E+00 0.  1.
         13    1    4    4    0    0 -0.38646756723E+03  0.77314622771E+02  0.16864322959E+02  0.39448592873E+03  0.10566000000E+00 0. -1.
         -4    1    4    4    0  502  0.12017988448E+03 -0.71358781618E+03  0.74528774459E+03  0.10387995949E+04  0.00000000000E+00 0. -1.
<mgrwt>
<rscale>  2 0.12913831E+04</rscale>
<asrwt>0</asrwt>
<pdfrwt beam="1">  1       21 0.28481755E+00 0.13183128E+04</pdfrwt>
<pdfrwt beam="2">  1       21 0.14032602E+00 0.13183128E+04</pdfrwt>
<totfact> 0.49419190E+00</totfact>
</mgrwt>
</event>
<event>
 8    1  0.5815007E-006  0.1179052E+04  0.7818608E-02  0.8624835E-01
         21   -1    0    0  503  502  0.00000000000E+00  0.00000000000E+00  0.73614009507E+03  0.73614009507E+03  0.00000000000E+00 0.  1.
         21   -1    0    0  501  503 -0.00000000000E+00 -0.00000000000E+00 -0.18896116302E+04  0.18896116302E+04  0.00000000000E+00 0.  1.
    9000010    2    1    2  501    0 -0.18634575907E+02  0.62006315043E+03 -0.71608655968E+03  0.13794718977E+04  0.10026650476E+04 0.  0.
   -9000010    2    1    2    0  502  0.18634575907E+02 -0.62006315043E+03 -0.43738497541E+03  0.12462798275E+04  0.98847470063E+03 0.  0.
        -13    1    3    3    0    0  0.24526143625E+03  0.67753920263E+03 -0.12733671439E+03  0.73172890691E+03  0.10566000000E+00 0.  1.
          4    1    3    3  501    0 -0.26389601216E+03 -0.57476052202E+02 -0.58874984529E+03  0.64774299080E+03  0.00000000000E+00 0.  1.
         13    1    4    4    0    0  0.18802248260E+03 -0.65638484637E+03 -0.66975897438E+03  0.95643641473E+03  0.10566000000E+00 0. -1.
         -4    1    4    4    0  502 -0.16938790669E+03  0.36321695936E+02  0.23237399897E+03  0.28984341277E+03  0.00000000000E+00 0. -1.
<mgrwt>
<rscale>  2 0.11760291E+04</rscale>
<asrwt>0</asrwt>
<pdfrwt beam="1">  1       21 0.11325232E+00 0.11790516E+04</pdfrwt>
<pdfrwt beam="2">  1       21 0.29070948E+00 0.11790516E+04</pdfrwt>
<totfact> 0.85258514E+00</totfact>
</mgrwt>
</event>
<event>
 8    1  0.5815007E-006  0.1023926E+04  0.7818608E-02  0.8752918E-01
         21   -1    0    0  501  502  0.00000000000E+00  0.00000000000E+00  0.17160946763E+04  0.17160946763E+04  0.00000000000E+00 0.  1.
         21   -1    0    0  502  503 -0.00000000000E+00 -0.00000000000E+00 -0.64795188151E+03  0.64795188151E+03  0.00000000000E+00 0.  1.
   -9000010    2    1    2    0  503 -0.12054685471E+03  0.15531136369E+03  0.24621074775E+03  0.10510357436E+04  0.10026979795E+04 0.  0.
    9000010    2    1    2  501    0  0.12054685471E+03 -0.15531136369E+03  0.82193204705E+03  0.13130108143E+04  0.10048740939E+04 0.  0.
        -13    1    4    4    0    0 -0.39543120271E+03  0.13248048464E+03  0.22809694352E+03  0.47533687181E+03  0.10566000000E+00 0.  1.
          4    1    4    4  501    0  0.51597805742E+03 -0.28779184834E+03  0.59383510353E+03  0.83767394247E+03  0.00000000000E+00 0.  1.
         13    1    3    3    0    0 -0.21829009615E+03 -0.40054738468E+03  0.13578086402E+03  0.47594666471E+03  0.10566000000E+00 0. -1.
         -4    1    3    3    0  503  0.97743241445E+02  0.55585874837E+03  0.11042988373E+03  0.57508907884E+03  0.00000000000E+00 0. -1.
<mgrwt>
<rscale>  2 0.10233920E+04</rscale>
<asrwt>0</asrwt>
<pdfrwt beam="1">  1       21 0.26401456E+00 0.10239263E+04</pdfrwt>
<pdfrwt beam="2">  1       21 0.99684906E-01 0.10239263E+04</pdfrwt>
<totfact> 0.19246962E+01</totfact>
</mgrwt>
</event>
<event>
 8    1  0.5815007E-006  0.1052725E+04  0.7818608E-02  0.8727433E-01
         21   -1    0    0  503  502  0.00000000000E+00  0.00000000000E+00  0.15181980555E+04  0.15181980555E+04  0.00000000000E+00 0.  1.
         21   -1    0    0  501  503 -0.00000000000E+00 -0.00000000000E+00 -0.74922309592E+03  0.74922309592E+03  0.00000000000E+00 0.  1.
    9000010    2    1    2  501    0 -0.23212648464E+02 -0.31757370345E+03  0.19107189798E+03  0.10699241465E+04  0.10034128387E+04 0.  0.
   -9000010    2    1    2    0  502  0.23212648464E+02  0.31757370345E+03  0.57790306156E+03  0.11974970049E+04  0.99931738905E+03 0.  0.
        -13    1    3    3    0    0  0.25321261903E+03  0.93386180089E+02  0.43956501748E+03  0.51580521985E+03  0.10566000000E+00 0.  1.
          4    1    3    3  501    0 -0.27642526749E+03 -0.41095988354E+03 -0.24849311951E+03  0.55411892661E+03  0.00000000000E+00 0.  1.
         13    1    4    4    0    0  0.38387433468E+03  0.21088554243E+03  0.67902761614E+03  0.80802891747E+03  0.10566000000E+00 0. -1.
         -4    1    4    4    0  502 -0.36066168621E+03  0.10668816102E+03 -0.10112455458E+03  0.38946808745E+03  0.00000000000E+00 0. -1.
<mgrwt>
<rscale>  2 0.10517476E+04</rscale>
<asrwt>0</asrwt>
<pdfrwt beam="1">  1       21 0.23356893E+00 0.10527247E+04</pdfrwt>
<pdfrwt beam="2">  1       21 0.11526509E+00 0.10527247E+04</pdfrwt>
<totfact> 0.21578559E+01</totfact>
</mgrwt>
</event>
<event>
 8    1  0.5815007E-006  0.1285801E+04  0.7818608E-02  0.8549394E-01
         21   -1    0    0  501  502  0.00000000000E+00  0.00000000000E+00  0.18949410135E+04  0.18949410135E+04  0.00000000000E+00 0.  1.
         21   -1    0    0  502  503 -0.00000000000E+00 -0.00000000000E+00 -0.85403367613E+03  0.85403367613E+03  0.00000000000E+00 0.  1.
   -9000010    2    1    2    0  503 -0.79984860147E+03  0.94056798951E+02  0.52383261431E+03  0.13884106304E+04  0.10023367717E+04 0.  0.
    9000010    2    1    2  501    0  0.79984860147E+03 -0.94056798951E+02  0.51707472304E+03  0.13605640593E+04  0.96703868767E+03 0.  0.
        -13    1    4    4    0    0  0.99359967261E+03 -0.14594108076E+03  0.56781298227E+03  0.11536683676E+04  0.10566000000E+00 0.  1.
          4    1    4    4  501    0 -0.19375107115E+03  0.51884281804E+02 -0.50738259230E+02  0.20689569164E+03  0.00000000000E+00 0.  1.
         13    1    3    3    0    0 -0.84695300172E+03  0.99740521423E+02 -0.96123054145E+01  0.85285987496E+03  0.10566000000E+00 0. -1.
         -4    1    3    3    0  503  0.47104400258E+02 -0.56837224716E+01  0.53344491973E+03  0.53555075540E+03  0.00000000000E+00 0. -1.
<mgrwt>
<rscale>  2 0.12789151E+04</rscale>
<asrwt>0</asrwt>
<pdfrwt beam="1">  1       21 0.29152939E+00 0.12858007E+04</pdfrwt>
<pdfrwt beam="2">  1       21 0.13138980E+00 0.12858007E+04</pdfrwt>
<totfact> 0.54129374E+00</totfact>
</mgrwt>
</event>
<event>
 8    1  0.5815007E-006  0.1111202E+04  0.7818608E-02  0.8679234E-01
         21   -1    0    0  501  502  0.00000000000E+00  0.00000000000E+00  0.15394110014E+04  0.15394110014E+04  0.00000000000E+00 0. -1.
         21   -1    0    0  502  503 -0.00000000000E+00 -0.00000000000E+00 -0.94212918018E+03  0.94212918018E+03  0.00000000000E+00 0. -1.
   -9000010    2    1    2    0  503 -0.14560131188E+03  0.45455774500E+03 -0.19354069239E+03  0.11279311840E+04  0.10034681214E+04 0.  0.
    9000010    2    1    2  501    0  0.14560131188E+03 -0.45455774500E+03  0.79082251363E+03  0.13536089976E+04  0.98946176518E+03 0.  0.
        -13    1    4    4    0    0 -0.21175932496E+03 -0.32238555545E+03 -0.88105231383E+02  0.39564757175E+03  0.10566000000E+00 0.  1.
          4    1    4    4  501    0  0.35736063684E+03 -0.13217218955E+03  0.87892774501E+03  0.95796142584E+03  0.00000000000E+00 0.  1.
         13    1    3    3    0    0  0.14156277834E+03  0.39354497113E+03 -0.53405853330E+03  0.67833339345E+03  0.10566000000E+00 0. -1.
         -4    1    3    3    0  503 -0.28716409022E+03  0.61012773868E+02  0.34051784091E+03  0.44959779055E+03  0.00000000000E+00 0. -1.
<mgrwt>
<rscale>  2 0.11080309E+04</rscale>
<asrwt>0</asrwt>
<pdfrwt beam="1">  1       21 0.23683246E+00 0.11112024E+04</pdfrwt>
<pdfrwt beam="2">  1       21 0.14494295E+00 0.11112024E+04</pdfrwt>
<totfact> 0.10398972E+01</totfact>
</mgrwt>
</event>
<event>
 8    1  0.5815007E-006  0.1072846E+04  0.7818608E-02  0.8711749E-01
         21   -1    0    0  501  502  0.00000000000E+00  0.00000000000E+00  0.10646009600E+04  0.10646009600E+04  0.00000000000E+00 0. -1.
         21   -1    0    0  502  503 -0.00000000000E+00 -0.00000000000E+00 -0.11033407539E+04  0.11033407539E+04  0.00000000000E+00 0. -1.
   -9000010    2    1    2    0  503 -0.33468817447E+03 -0.80844411173E+02  0.17350171962E+03  0.10743036481E+04  0.10027330097E+04 0.  0.
    9000010    2    1    2  501    0  0.33468817447E+03  0.80844411173E+02 -0.21224151356E+03  0.10936380658E+04  0.10160933845E+04 0.  0.
        -13    1    4    4    0    0  0.19638633204E+03  0.44035382438E+03  0.20663716900E+03  0.52457412520E+03  0.10566000000E+00 0.  1.
          4    1    4    4  501    0  0.13830184243E+03 -0.35950941320E+03 -0.41887868256E+03  0.56906394061E+03  0.00000000000E+00 0.  1.
         13    1    3    3    0    0 -0.54891566066E+03 -0.38281929672E+03  0.21215279940E+03  0.70204546713E+03  0.10566000000E+00 0. -1.
         -4    1    3    3    0  503  0.21422748620E+03  0.30197488555E+03 -0.38651079778E+02  0.37225818099E+03  0.00000000000E+00 0. -1.
<mgrwt>
<rscale>  2 0.10696703E+04</rscale>
<asrwt>0</asrwt>
<pdfrwt beam="1">  1       21 0.16378476E+00 0.10728456E+04</pdfrwt>
<pdfrwt beam="2">  1       21 0.16974473E+00 0.10728456E+04</pdfrwt>
<totfact> 0.23892221E+01</totfact>
</mgrwt>
</event>
<event>
 8    1  0.5815007E-006  0.1031625E+04  0.7818608E-02  0.8748564E-01
         21   -1    0    0  503  502  0.00000000000E+00  0.00000000000E+00  0.80369574155E+03  0.80369574155E+03  0.00000000000E+00 0. -1.
         21   -1    0    0  501  503 -0.00000000000E+00 -0.00000000000E+00 -0.13240026483E+04  0.13240026483E+04  0.00000000000E+00 0. -1.
    9000010    2    1    2  501    0  0.17440419287E+03  0.18247286327E+03 -0.13994575748E+03  0.10410737286E+04  0.10002682266E+04 0.  0.
   -9000010    2    1    2    0  502 -0.17440419287E+03 -0.18247286327E+03 -0.38036114926E+03  0.10866246612E+04  0.98608588986E+03 0.  0.
        -13    1    3    3    0    0  0.28413946208E+03 -0.14570068471E+03  0.32886713816E+03  0.45838578639E+03  0.10566000000E+00 0.  1.
          4    1    3    3  501    0 -0.10973526922E+03  0.32817354798E+03 -0.46881289565E+03  0.58268794224E+03  0.00000000000E+00 0.  1.
         13    1    4    4    0    0 -0.52915200849E+03 -0.24472137439E+03 -0.29405663370E+02  0.58374232617E+03  0.10566000000E+00 0. -1.
         -4    1    4    4    0  502  0.35474781562E+03  0.62248511113E+02 -0.35095548589E+03  0.50288233504E+03  0.00000000000E+00 0. -1.
<mgrwt>
<rscale>  2 0.10281711E+04</rscale>
<asrwt>0</asrwt>
<pdfrwt beam="1">  1       21 0.12364550E+00 0.10316248E+04</pdfrwt>
<pdfrwt beam="2">  1       21 0.20369271E+00 0.10316248E+04</pdfrwt>
<totfact> 0.29982092E+01</totfact>
</mgrwt>
</event>
<event>
 8    1  0.5815007E-006  0.1443200E+04  0.7818608E-02  0.8443487E-01
         21   -1    0    0  503  502  0.00000000000E+00  0.00000000000E+00  0.17275982997E+04  0.17275982997E+04  0.00000000000E+00 0.  1.
         21   -1    0    0  501  503 -0.00000000000E+00 -0.00000000000E+00 -0.15449153489E+04  0.15449153489E+04  0.00000000000E+00 0. -1.
    9000010    2    1    2  501    0  0.56230327089E+03  0.87197074429E+03 -0.67868636447E+03  0.15948167912E+04  0.10031487769E+04 0.  0.
   -9000010    2    1    2    0  502 -0.56230327089E+03 -0.87197074429E+03  0.86136931526E+03  0.16776968574E+04  0.99809403396E+03 0.  0.
        -13    1    3    3    0    0 -0.54161922752E+02 -0.17668561570E+03 -0.23732204442E+03  0.30078744090E+03  0.10566000000E+00 0.  1.
          4    1    3    3  501    0  0.61646519364E+03  0.10486563600E+04 -0.44136432004E+03  0.12940293503E+04  0.00000000000E+00 0.  1.
         13    1    4    4    0    0 -0.50127855903E+03 -0.10468353216E+04  0.92254899572E+03  0.14826466352E+04  0.10566000000E+00 0. -1.
         -4    1    4    4    0  502 -0.61024711861E+02  0.17486457731E+03 -0.61179680461E+02  0.19505022214E+03  0.00000000000E+00 0. -1.
<mgrwt>
<rscale>  2 0.14423217E+04</rscale>
<asrwt>0</asrwt>
<pdfrwt beam="1">  1       21 0.26578435E+00 0.14431997E+04</pdfrwt>
<pdfrwt beam="2">  1       21 0.23767928E+00 0.14431997E+04</pdfrwt>
<totfact> 0.10680518E+00</totfact>
</mgrwt>
</event>
<event>
 8    1  0.5815007E-006  0.1082617E+04  0.7818608E-02  0.8701745E-01
         21   -1    0    0  503  502  0.00000000000E+00  0.00000000000E+00  0.16106718437E+04  0.16106718437E+04  0.00000000000E+00 0.  1.
         21   -1    0    0  501  503 -0.00000000000E+00 -0.00000000000E+00 -0.73169263079E+03  0.73169263079E+03  0.00000000000E+00 0.  1.
    9000010    2    1    2  501    0  0.37468623591E+03  0.16902374953E+03  0.55947519621E+03  0.12186356019E+04  0.10015495154E+04 0.  0.
   -9000010    2    1    2    0  502 -0.37468623591E+03 -0.16902374953E+03  0.31950401667E+03  0.11237288726E+04  0.99585388444E+03 0.  0.
        -13    1    3    3    0    0 -0.17630592996E+03  0.94167175771E+02 -0.19642739038E+03  0.28024091205E+03  0.10566000000E+00 0.  1.
          4    1    3    3  501    0  0.55099216586E+03  0.74856573762E+02  0.75590258659E+03  0.93839468983E+03  0.00000000000E+00 0.  1.
         13    1    4    4    0    0 -0.71377245431E+03 -0.78314272331E+02  0.14837392044E+03  0.73322511769E+03  0.10566000000E+00 0. -1.
         -4    1    4    4    0  502  0.33908621840E+03 -0.90709477202E+02  0.17113009623E+03  0.39050375491E+03  0.00000000000E+00 0. -1.
<mgrwt>
<rscale>  2 0.10812982E+04</rscale>
<asrwt>0</asrwt>
<pdfrwt beam="1">  1       21 0.24779567E+00 0.10826173E+04</pdfrwt>
<pdfrwt beam="2">  1       21 0.11256810E+00 0.10826173E+04</pdfrwt>
<totfact> 0.17985402E+01</totfact>
</mgrwt>
</event>
<event>
 8    1  0.5815007E-006  0.1256062E+04  0.7818608E-02  0.8572060E-01
         21   -1    0    0  503  502  0.00000000000E+00  0.00000000000E+00  0.99909452311E+03  0.99909452311E+03  0.00000000000E+00 0.  1.
         21   -1    0    0  501  503 -0.00000000000E+00 -0.00000000000E+00 -0.15919020904E+04  0.15919020904E+04  0.00000000000E+00 0.  1.
    9000010    2    1    2  501    0 -0.70777775791E+03 -0.99879305345E+02 -0.54791667021E+03  0.13703664298E+04  0.10328437657E+04 0.  0.
   -9000010    2    1    2    0  502  0.70777775791E+03  0.99879305345E+02 -0.44890897102E+02  0.12206301837E+04  0.98843190078E+03 0.  0.
        -13    1    3    3    0    0 -0.79576271942E+03  0.29548460794E+03 -0.40828968770E+03  0.94193945633E+03  0.10566000000E+00 0.  1.
          4    1    3    3  501    0  0.87984961515E+02 -0.39536391328E+03 -0.13962698251E+03  0.42842697350E+03  0.00000000000E+00 0.  1.
         13    1    4    4    0    0  0.14591445891E+03  0.17890306975E+03  0.42517876522E+03  0.48381228927E+03  0.10566000000E+00 0. -1.
         -4    1    4    4    0  502  0.56186329900E+03 -0.79023764407E+02 -0.47006966233E+03  0.73681789443E+03  0.00000000000E+00 0. -1.
<mgrwt>
<rscale>  2 0.12468977E+04</rscale>
<asrwt>0</asrwt>
<pdfrwt beam="1">  1       21 0.15370685E+00 0.12560619E+04</pdfrwt>
<pdfrwt beam="2">  1       21 0.24490801E+00 0.12560619E+04</pdfrwt>
<totfact> 0.73436620E+00</totfact>
</mgrwt>
</event>
<event>
 8    1  0.5815007E-006  0.1110381E+04  0.7818608E-02  0.8679311E-01
         21   -1    0    0  503  502  0.00000000000E+00  0.00000000000E+00  0.10488910838E+04  0.10488910838E+04  0.00000000000E+00 0. -1.
         21   -1    0    0  501  503 -0.00000000000E+00 -0.00000000000E+00 -0.11653793602E+04  0.11653793602E+04  0.00000000000E+00 0. -1.
    9000010    2    1    2  501    0  0.45843776066E+03  0.67814866369E+02 -0.43879289198E+02  0.11015177127E+04  0.99832451783E+03 0.  0.
   -9000010    2    1    2    0  502 -0.45843776066E+03 -0.67814866369E+02 -0.72608987224E+02  0.11127527312E+04  0.10090503156E+04 0.  0.
        -13    1    3    3    0    0  0.12979056303E+02 -0.33841516348E+03 -0.29433082360E+03  0.44869134565E+03  0.10566000000E+00 0.  1.
          4    1    3    3  501    0  0.44545870436E+03  0.40623002985E+03  0.25045153440E+03  0.65282636706E+03  0.00000000000E+00 0.  1.
         13    1    4    4    0    0 -0.17218226581E+03 -0.49301060444E+03 -0.23836590885E+03  0.57404225142E+03  0.10566000000E+00 0. -1.
         -4    1    4    4    0  502 -0.28625549485E+03  0.42519573807E+03  0.16575692162E+03  0.53871047982E+03  0.00000000000E+00 0. -1.
<mgrwt>
<rscale>  2 0.11079388E+04</rscale>
<asrwt>0</asrwt>
<pdfrwt beam="1">  1       21 0.16136786E+00 0.11103813E+04</pdfrwt>
<pdfrwt beam="2">  1       21 0.17928913E+00 0.11103813E+04</pdfrwt>
<totfact> 0.20718260E+01</totfact>
</mgrwt>
</event>
<event>
 8    1  0.5815007E-006  0.1288914E+04  0.7818608E-02  0.8566991E-01
         21   -1    0    0  503  502  0.00000000000E+00  0.00000000000E+00  0.61483353422E+03  0.61483353422E+03  0.00000000000E+00 0. -1.
         21   -1    0    0  501  503 -0.00000000000E+00 -0.00000000000E+00 -0.24438091002E+04  0.24438091002E+04  0.00000000000E+00 0.  1.
    9000010    2    1    2  501    0 -0.61359478657E+01  0.76720317136E+03 -0.10869620240E+04  0.16860562587E+04  0.10356934439E+04 0.  0.
   -9000010    2    1    2    0  502  0.61359478657E+01 -0.76720317136E+03 -0.74201354191E+03  0.13725863757E+04  0.86300110453E+03 0.  0.
        -13    1    3    3    0    0  0.76464611290E+02  0.83783965353E+03 -0.30242426585E+03  0.89402604523E+03  0.10566000000E+00 0.  1.
          4    1    3    3  501    0 -0.82600559156E+02 -0.70636482173E+02 -0.78453775818E+03  0.79203021343E+03  0.00000000000E+00 0.  1.
         13    1    4    4    0    0 -0.77321264564E+02 -0.50080692838E+03  0.72187662375E+02  0.51185664714E+03  0.10566000000E+00 0. -1.
         -4    1    4    4    0  502  0.83457212429E+02 -0.26639624298E+03 -0.81420120429E+03  0.86072972857E+03  0.00000000000E+00 0. -1.
<mgrwt>
<rscale>  2 0.12539736E+04</rscale>
<asrwt>0</asrwt>
<pdfrwt beam="1">  1       21 0.94589775E-01 0.12889140E+04</pdfrwt>
<pdfrwt beam="2">  1       21 0.37597063E+00 0.12889140E+04</pdfrwt>
<totfact> 0.33840529E+00</totfact>
</mgrwt>
</event>
<event>
 8    1  0.5815007E-006  0.1043065E+04  0.7818608E-02  0.8735347E-01
         21   -1    0    0  501  502  0.00000000000E+00  0.00000000000E+00  0.99128876695E+03  0.99128876695E+03  0.00000000000E+00 0. -1.
         21   -1    0    0  502  503 -0.00000000000E+00 -0.00000000000E+00 -0.12634673014E+04  0.12634673014E+04  0.00000000000E+00 0. -1.
   -9000010    2    1    2    0  503 -0.34659234582E+02  0.31147302164E+03 -0.54573730153E+03  0.11764147340E+04  0.99393446381E+03 0.  0.
    9000010    2    1    2  501    0  0.34659234582E+02 -0.31147302164E+03  0.27355876710E+03  0.10783413343E+04  0.99487131255E+03 0.  0.
        -13    1    4    4    0    0 -0.11912928987E+03  0.31757376773E+03 -0.68422059547E+02  0.34601513703E+03  0.10566000000E+00 0.  1.
          4    1    4    4  501    0  0.15378852445E+03 -0.62904678937E+03  0.34198082664E+03  0.73232619731E+03  0.00000000000E+00 0.  1.
         13    1    3    3    0    0 -0.16342710706E+03  0.15915584764E+02 -0.76766098796E+03  0.78502555930E+03  0.10566000000E+00 0. -1.
         -4    1    3    3    0  503  0.12876787248E+03  0.29555743688E+03  0.22192368643E+03  0.39138917470E+03  0.00000000000E+00 0. -1.
<mgrwt>
<rscale>  2 0.10428420E+04</rscale>
<asrwt>0</asrwt>
<pdfrwt beam="1">  1       21 0.15250596E+00 0.10430655E+04</pdfrwt>
<pdfrwt beam="2">  1       21 0.19437959E+00 0.10430655E+04</pdfrwt>
<totfact> 0.19002502E+01</totfact>
</mgrwt>
</event>
<event>
 8    1  0.5815007E-006  0.1162441E+04  0.7818608E-02  0.8639265E-01
         21   -1    0    0  503  502  0.00000000000E+00  0.00000000000E+00  0.65563589850E+03  0.65563589850E+03  0.00000000000E+00 0. -1.
         21   -1    0    0  501  503 -0.00000000000E+00 -0.00000000000E+00 -0.21897957780E+04  0.21897957780E+04  0.00000000000E+00 0. -1.
    9000010    2    1    2  501    0  0.57755123897E+03  0.94971069677E+02 -0.11496687502E+04  0.16210533582E+04  0.98157568089E+03 0.  0.
   -9000010    2    1    2    0  502 -0.57755123897E+03 -0.94971069677E+02 -0.38449112933E+03  0.12243783183E+04  0.10043325645E+04 0.  0.
        -13    1    3    3    0    0  0.35145585416E+03  0.49121357138E+03 -0.94385112372E+03  0.11205654577E+04  0.10566000000E+00 0.  1.
          4    1    3    3  501    0  0.22609538480E+03 -0.39624250170E+03 -0.20581762650E+03  0.50048790051E+03  0.00000000000E+00 0.  1.
         13    1    4    4    0    0 -0.59666652397E+03 -0.71495792503E+02 -0.69135719024E+03  0.91602257878E+03  0.10566000000E+00 0. -1.
         -4    1    4    4    0  502  0.19115285003E+02 -0.23475277174E+02  0.30686606091E+03  0.30835573952E+03  0.00000000000E+00 0. -1.
<mgrwt>
<rscale>  2 0.11575085E+04</rscale>
<asrwt>0</asrwt>
<pdfrwt beam="1">  1       21 0.10086706E+00 0.11624409E+04</pdfrwt>
<pdfrwt beam="2">  1       21 0.33689166E+00 0.11624409E+04</pdfrwt>
<totfact> 0.55178097E+00</totfact>
</mgrwt>
</event>
<event>
 8    1  0.5815007E-006  0.1194558E+04  0.7818608E-02  0.8610868E-01
         21   -1    0    0  501  502  0.00000000000E+00  0.00000000000E+00  0.76936597698E+03  0.76936597698E+03  0.00000000000E+00 0. -1.
         21   -1    0    0  502  503 -0.00000000000E+00 -0.00000000000E+00 -0.20654011241E+04  0.20654011241E+04  0.00000000000E+00 0. -1.
   -9000010    2    1    2    0  503 -0.27403968433E+03 -0.60148230166E+03 -0.11021660098E+04  0.16245799778E+04  0.99378643748E+03 0.  0.
    9000010    2    1    2  501    0  0.27403968433E+03  0.60148230166E+03 -0.19386913739E+03  0.12101871233E+04  0.99503212172E+03 0.  0.
        -13    1    4    4    0    0  0.58209382351E+03  0.55400108281E+03 -0.33173446654E+03  0.86936654328E+03  0.10566000000E+00 0.  1.
          4    1    4    4  501    0 -0.30805413918E+03  0.47481218843E+02  0.13786532915E+03  0.34082058005E+03  0.00000000000E+00 0.  1.
         13    1    3    3    0    0 -0.35764531643E+03  0.18332346690E+03 -0.42109426740E+03  0.58209798066E+03  0.10566000000E+00 0. -1.
         -4    1    3    3    0  503  0.83605632094E+02 -0.78480576856E+03 -0.68107174238E+03  0.10424819971E+04  0.00000000000E+00 0. -1.
<mgrwt>
<rscale>  2 0.11942981E+04</rscale>
<asrwt>0</asrwt>
<pdfrwt beam="1">  1       21 0.11836400E+00 0.11945575E+04</pdfrwt>
<pdfrwt beam="2">  1       21 0.31775402E+00 0.11945575E+04</pdfrwt>
<totfact> 0.48440647E+00</totfact>
</mgrwt>
</event>
<event>
 8    1  0.5815007E-006  0.1073653E+04  0.7818608E-02  0.8719614E-01
         21   -1    0    0  503  502  0.00000000000E+00  0.00000000000E+00  0.12105249950E+04  0.12105249950E+04  0.00000000000E+00 0. -1.
         21   -1    0    0  501  503 -0.00000000000E+00 -0.00000000000E+00 -0.10523329350E+04  0.10523329350E+04  0.00000000000E+00 0. -1.
    9000010    2    1    2  501    0  0.86799441360E+02  0.37462762377E+03  0.49713829969E+03  0.11369734873E+04  0.94746093442E+03 0.  0.
   -9000010    2    1    2    0  502 -0.86799441360E+02 -0.37462762377E+03 -0.33894623968E+03  0.11258844428E+04  0.10024226781E+04 0.  0.
        -13    1    3    3    0    0  0.19525963386E+03  0.66227318468E+03  0.22438986427E+03  0.72600476452E+03  0.10566000000E+00 0.  1.
          4    1    3    3  501    0 -0.10846019250E+03 -0.28764556091E+03  0.27274843542E+03  0.41096872276E+03  0.00000000000E+00 0.  1.
         13    1    4    4    0    0 -0.43838756605E+03 -0.99556617922E+02 -0.48007766020E+03  0.65770034911E+03  0.10566000000E+00 0. -1.
         -4    1    4    4    0  502  0.35158812469E+03 -0.27507100585E+03  0.14113142052E+03  0.46818409364E+03  0.00000000000E+00 0. -1.
<mgrwt>
<rscale>  2 0.10606370E+04</rscale>
<asrwt>0</asrwt>
<pdfrwt beam="1">  1       21 0.18623462E+00 0.10736532E+04</pdfrwt>
<pdfrwt beam="2">  1       21 0.16189737E+00 0.10736532E+04</pdfrwt>
<totfact> 0.18150717E+01</totfact>
</mgrwt>
</event>
<event>
 8    1  0.5815007E-006  0.1063571E+04  0.7818608E-02  0.8718243E-01
         21   -1    0    0  501  502  0.00000000000E+00  0.00000000000E+00  0.13233688132E+04  0.13233688132E+04  0.00000000000E+00 0.  1.
         21   -1    0    0  502  503 -0.00000000000E+00 -0.00000000000E+00 -0.87228923159E+03  0.87228923159E+03  0.00000000000E+00 0.  1.
   -9000010    2    1    2    0  503 -0.74929158251E+02 -0.34343545109E+03  0.51057987906E+02  0.10593477401E+04  0.99802225855E+03 0.  0.
    9000010    2    1    2  501    0  0.74929158251E+02  0.34343545109E+03  0.40002159367E+03  0.11363103046E+04  0.10038035391E+04 0.  0.
        -13    1    4    4    0    0  0.52968754246E+03  0.27102249626E+03  0.15574890789E+03  0.61504456716E+03  0.10566000000E+00 0.  1.
          4    1    4    4  501    0 -0.45475838421E+03  0.72412954831E+02  0.24427268578E+03  0.52126573746E+03  0.00000000000E+00 0.  1.
         13    1    3    3    0    0  0.30550805923E+03 -0.52918307092E+03  0.13970035894E+03  0.62680626852E+03  0.10566000000E+00 0. -1.
         -4    1    3    3    0  503 -0.38043721749E+03  0.18574761983E+03 -0.88642371035E+02  0.43254147161E+03  0.00000000000E+00 0. -1.
<mgrwt>
<rscale>  2 0.10622050E+04</rscale>
<asrwt>0</asrwt>
<pdfrwt beam="1">  1       21 0.20359520E+00 0.10635713E+04</pdfrwt>
<pdfrwt beam="2">  1       21 0.13419834E+00 0.10635713E+04</pdfrwt>
<totfact> 0.23559438E+01</totfact>
</mgrwt>
</event>
<event>
 8    1  0.5815007E-006  0.1057057E+04  0.7818608E-02  0.8727029E-01
         21   -1    0    0  503  502  0.00000000000E+00  0.00000000000E+00  0.92335359838E+03  0.92335359838E+03  0.00000000000E+00 0.  1.
         21   -1    0    0  501  503 -0.00000000000E+00 -0.00000000000E+00 -0.12504794692E+04  0.12504794692E+04  0.00000000000E+00 0.  1.
    9000010    2    1    2  501    0  0.26836895066E+03 -0.12016170862E+03 -0.40764554176E+03  0.11329362916E+04  0.10153369014E+04 0.  0.
   -9000010    2    1    2    0  502 -0.26836895066E+03  0.12016170862E+03  0.80519670989E+02  0.10408967759E+04  0.99524969268E+03 0.  0.
        -13    1    3    3    0    0 -0.25513240259E+03  0.26421269790E+03 -0.21714585708E+01  0.36729500266E+03  0.10566000000E+00 0.  1.
          4    1    3    3  501    0  0.52350135325E+03 -0.38437440652E+03 -0.40547408319E+03  0.76564128897E+03  0.00000000000E+00 0.  1.
         13    1    4    4    0    0  0.58748247450E+02  0.45596151033E+03 -0.19248897432E+03  0.49840171737E+03  0.10566000000E+00 0. -1.
         -4    1    4    4    0  502 -0.32711719811E+03 -0.33579980171E+03  0.27300864531E+03  0.54249505854E+03  0.00000000000E+00 0. -1.
<mgrwt>
<rscale>  2 0.10522040E+04</rscale>
<asrwt>0</asrwt>
<pdfrwt beam="1">  1       21 0.14205440E+00 0.10570571E+04</pdfrwt>
<pdfrwt beam="2">  1       21 0.19238146E+00 0.10570571E+04</pdfrwt>
<totfact> 0.24400272E+01</totfact>
</mgrwt>
</event>
<event>
 8    1  0.5815007E-006  0.1200361E+04  0.7818608E-02  0.8637076E-01
         21   -1    0    0  501  502  0.00000000000E+00  0.00000000000E+00  0.58556814923E+03  0.58556814923E+03  0.00000000000E+00 0. -1.
         21   -1    0    0  502  503 -0.00000000000E+00 -0.00000000000E+00 -0.21645563852E+04  0.21645563852E+04  0.00000000000E+00 0. -1.
   -9000010    2    1    2    0  503  0.25260994532E+03  0.31230400446E+03 -0.91774277577E+03  0.15109987619E+04  0.11311586450E+04 0.  0.
    9000010    2    1    2  501    0 -0.25260994532E+03 -0.31230400446E+03 -0.66124546020E+03  0.12391257726E+04  0.96790575260E+03 0.  0.
        -13    1    4    4    0    0  0.23984924309E+03 -0.42418642527E+03 -0.12617271652E+03  0.50336999150E+03  0.10566000000E+00 0.  1.
          4    1    4    4  501    0 -0.49245918840E+03  0.11188242081E+03 -0.53507274368E+03  0.73575578106E+03  0.00000000000E+00 0.  1.
         13    1    3    3    0    0  0.66659903521E+03  0.30860975943E+03 -0.36459110873E+03  0.82007374369E+03  0.10566000000E+00 0. -1.
         -4    1    3    3    0  503 -0.41398908989E+03  0.36942450334E+01 -0.55315166704E+03  0.69092501818E+03  0.00000000000E+00 0. -1.
<mgrwt>
<rscale>  2 0.11602948E+04</rscale>
<asrwt>0</asrwt>
<pdfrwt beam="1">  1       21 0.90087406E-01 0.12003606E+04</pdfrwt>
<pdfrwt beam="2">  1       21 0.33300868E+00 0.12003606E+04</pdfrwt>
<totfact> 0.78057136E+00</totfact>
</mgrwt>
</event>
<event>
 8    1  0.5815007E-006  0.1131239E+04  0.7818608E-02  0.8664365E-01
         21   -1    0    0  501  502  0.00000000000E+00  0.00000000000E+00  0.14088753236E+04  0.14088753236E+04  0.00000000000E+00 0.  1.
         21   -1    0    0  502  503 -0.00000000000E+00 -0.00000000000E+00 -0.11067717895E+04  0.11067717895E+04  0.00000000000E+00 0.  1.
   -9000010    2    1    2    0  503  0.25450512279E+03 -0.43317070246E+03 -0.40179888459E+03  0.12004765883E+04  0.10135541330E+04 0.  0.
    9000010    2    1    2  501    0 -0.25450512279E+03  0.43317070246E+03  0.70390241862E+03  0.13151705248E+04  0.99085073510E+03 0.  0.
        -13    1    4    4    0    0 -0.11273002352E+03 -0.31233080524E+03  0.33393598545E+03  0.47092657989E+03  0.10566000000E+00 0.  1.
          4    1    4    4  501    0 -0.14177509927E+03  0.74550150771E+03  0.36996643318E+03  0.84424394487E+03  0.00000000000E+00 0.  1.
         13    1    3    3    0    0  0.30659622169E+03 -0.52203699875E+02 -0.66525671110E+03  0.73436569382E+03  0.10566000000E+00 0. -1.
         -4    1    3    3    0  503 -0.52091098893E+02 -0.38096700259E+03  0.26345782650E+03  0.46611089452E+03  0.00000000000E+00 0. -1.
<mgrwt>
<rscale>  2 0.11261306E+04</rscale>
<asrwt>0</asrwt>
<pdfrwt beam="1">  1       21 0.21675005E+00 0.11312390E+04</pdfrwt>
<pdfrwt beam="2">  1       21 0.17027258E+00 0.11312390E+04</pdfrwt>
<totfact> 0.87981503E+00</totfact>
</mgrwt>
</event>
<event>
 8    1  0.5815007E-006  0.1078713E+04  0.7818608E-02  0.8704261E-01
         21   -1    0    0  503  502  0.00000000000E+00  0.00000000000E+00  0.12689719234E+04  0.12689719234E+04  0.00000000000E+00 0.  1.
         21   -1    0    0  501  503 -0.00000000000E+00 -0.00000000000E+00 -0.92086573404E+03  0.92086573404E+03  0.00000000000E+00 0.  1.
    9000010    2    1    2  501    0  0.39437493029E+03  0.79204262224E+02  0.92556673388E+02  0.10812675149E+04  0.99938371021E+03 0.  0.
   -9000010    2    1    2    0  502 -0.39437493029E+03 -0.79204262224E+02  0.25554951600E+03  0.11085701426E+04  0.10009082401E+04 0.  0.
        -13    1    3    3    0    0 -0.24369966342E+03 -0.21165465606E+03 -0.12638672684E+03  0.34664222949E+03  0.10566000000E+00 0.  1.
          4    1    3    3  501    0  0.63807459371E+03  0.29085891828E+03  0.21894340023E+03  0.73462528543E+03  0.00000000000E+00 0.  1.
         13    1    4    4    0    0 -0.56191806563E+03 -0.38234338621E+03  0.25766612184E+01  0.67966537929E+03  0.10566000000E+00 0. -1.
         -4    1    4    4    0  502  0.16754313534E+03  0.30313912399E+03  0.25297285478E+03  0.42890476326E+03  0.00000000000E+00 0. -1.
<mgrwt>
<rscale>  2 0.10783594E+04</rscale>
<asrwt>0</asrwt>
<pdfrwt beam="1">  1       21 0.19522645E+00 0.10787132E+04</pdfrwt>
<pdfrwt beam="2">  1       21 0.14167165E+00 0.10787132E+04</pdfrwt>
<totfact> 0.23246245E+01</totfact>
</mgrwt>
</event>
<event>
 8    1  0.5815007E-006  0.1112985E+04  0.7818608E-02  0.8677490E-01
         21   -1    0    0  501  502  0.00000000000E+00  0.00000000000E+00  0.11412641906E+04  0.11412641906E+04  0.00000000000E+00 0.  1.
         21   -1    0    0  502  503 -0.00000000000E+00 -0.00000000000E+00 -0.11093722665E+04  0.11093722665E+04  0.00000000000E+00 0.  1.
   -9000010    2    1    2    0  503  0.74048388111E+02 -0.44963261348E+03  0.21576787076E+03  0.11225649180E+04  0.10029673824E+04 0.  0.
    9000010    2    1    2  501    0 -0.74048388111E+02  0.44963261348E+03 -0.18387594669E+03  0.11280715391E+04  0.10154222682E+04 0.  0.
        -13    1    4    4    0    0  0.45432516642E+03  0.13099090524E+03 -0.19371528085E+03  0.51097514156E+03  0.10566000000E+00 0.  1.
          4    1    4    4  501    0 -0.52837355453E+03  0.31864170824E+03  0.98393341655E+01  0.61709639754E+03  0.00000000000E+00 0.  1.
         13    1    3    3    0    0 -0.30247717514E+03 -0.60998221093E+03  0.55725933170E+02  0.68313697742E+03  0.10566000000E+00 0. -1.
         -4    1    3    3    0  503  0.37652556325E+03  0.16034959745E+03  0.16004193759E+03  0.43942794059E+03  0.00000000000E+00 0. -1.
<mgrwt>
<rscale>  2 0.11101360E+04</rscale>
<asrwt>0</asrwt>
<pdfrwt beam="1">  1       21 0.17557911E+00 0.11129847E+04</pdfrwt>
<pdfrwt beam="2">  1       21 0.17067266E+00 0.11129847E+04</pdfrwt>
<totfact> 0.18520808E+01</totfact>
</mgrwt>
</event>
<event>
 8    1  0.5815007E-006  0.1135290E+04  0.7818608E-02  0.8660087E-01
         21   -1    0    0  503  502  0.00000000000E+00  0.00000000000E+00  0.11896699412E+04  0.11896699412E+04  0.00000000000E+00 0. -1.
         21   -1    0    0  501  503 -0.00000000000E+00 -0.00000000000E+00 -0.10825612287E+04  0.10825612287E+04  0.00000000000E+00 0. -1.
    9000010    2    1    2  501    0 -0.21586549203E+03  0.49701800514E+03 -0.75402019413E+02  0.11223642827E+04  0.97999556656E+03 0.  0.
   -9000010    2    1    2    0  502  0.21586549203E+03 -0.49701800514E+03  0.18251073187E+03  0.11498668872E+04  0.99762662497E+03 0.  0.
        -13    1    3    3    0    0 -0.30202910160E+03  0.76091505350E+03  0.44712471538E+02  0.81988567077E+03  0.10566000000E+00 0.  1.
          4    1    3    3  501    0  0.86163609566E+02 -0.26389704836E+03 -0.12011449095E+03  0.30247861194E+03  0.00000000000E+00 0.  1.
         13    1    4    4    0    0  0.57940443511E+03 -0.50912612964E+03  0.11298211046E+03  0.77954081597E+03  0.10566000000E+00 0. -1.
         -4    1    4    4    0  502 -0.36353894308E+03  0.12108124500E+02  0.69528621408E+02  0.37032607120E+03  0.00000000000E+00 0. -1.
<mgrwt>
<rscale>  2 0.11314049E+04</rscale>
<asrwt>0</asrwt>
<pdfrwt beam="1">  1       21 0.18302615E+00 0.11352901E+04</pdfrwt>
<pdfrwt beam="2">  1       21 0.16654788E+00 0.11352901E+04</pdfrwt>
<totfact> 0.17353581E+01</totfact>
</mgrwt>
</event>
<event>
 8    1  0.5815007E-006  0.1285838E+04  0.7818608E-02  0.8550721E-01
         21   -1    0    0  503  502  0.00000000000E+00  0.00000000000E+00  0.17766653872E+04  0.17766653872E+04  0.00000000000E+00 0. -1.
         21   -1    0    0  501  503 -0.00000000000E+00 -0.00000000000E+00 -0.95393638400E+03  0.95393638400E+03  0.00000000000E+00 0.  1.
    9000010    2    1    2  501    0  0.53175668486E+03  0.56550854376E+03  0.72437947312E+03  0.14758401774E+04  0.10250919584E+04 0.  0.
   -9000010    2    1    2    0  502 -0.53175668486E+03 -0.56550854376E+03  0.98349530106E+02  0.12547615938E+04  0.98091230102E+03 0.  0.
        -13    1    3    3    0    0 -0.24524932387E+02  0.22596090997E+03  0.78884613689E+03  0.82093729602E+03  0.10566000000E+00 0.  1.
          4    1    3    3  501    0  0.55628161725E+03  0.33954763378E+03 -0.64466663773E+02  0.65490288138E+03  0.00000000000E+00 0.  1.
         13    1    4    4    0    0 -0.15169402423E+03 -0.78790596286E+03  0.13185958099E+03  0.81313826842E+03  0.10566000000E+00 0. -1.
         -4    1    4    4    0  502 -0.38006266063E+03  0.22239741910E+03 -0.33510050888E+02  0.44162332540E+03  0.00000000000E+00 0. -1.
<mgrwt>
<rscale>  2 0.12770132E+04</rscale>
<asrwt>0</asrwt>
<pdfrwt beam="1">  1       21 0.27333314E+00 0.12858377E+04</pdfrwt>
<pdfrwt beam="2">  1       21 0.14675944E+00 0.12858377E+04</pdfrwt>
<totfact> 0.52448019E+00</totfact>
</mgrwt>
</event>
<event>
 8    1  0.5815007E-006  0.1211478E+04  0.7818608E-02  0.8603787E-01
         21   -1    0    0  501  502  0.00000000000E+00  0.00000000000E+00  0.59648605233E+03  0.59648605233E+03  0.00000000000E+00 0. -1.
         21   -1    0    0  502  503 -0.00000000000E+00 -0.00000000000E+00 -0.24009536856E+04  0.24009536856E+04  0.00000000000E+00 0. -1.
   -9000010    2    1    2    0  503  0.57906155945E+03  0.39279340630E+03 -0.96371687932E+03  0.15480400869E+04  0.98897873461E+03 0.  0.
    9000010    2    1    2  501    0 -0.57906155945E+03 -0.39279340630E+03 -0.84075075392E+03  0.14493996510E+04  0.95094614381E+03 0.  0.
        -13    1    4    4    0    0 -0.15803966142E+03 -0.57566861399E+03 -0.78618179351E+03  0.98714371362E+03  0.10566000000E+00 0.  1.
          4    1    4    4  501    0 -0.42102189803E+03  0.18287520769E+03 -0.54568960404E+02  0.46225593738E+03  0.00000000000E+00 0.  1.
         13    1    3    3    0    0  0.28326541030E+03  0.16174280411E+01 -0.10160828604E+04  0.10548299858E+04  0.10566000000E+00 0. -1.
         -4    1    3    3    0  503  0.29579614915E+03  0.39117597826E+03  0.52365981045E+02  0.49321010106E+03  0.00000000000E+00 0. -1.
<mgrwt>
<rscale>  2 0.12036920E+04</rscale>
<asrwt>0</asrwt>
<pdfrwt beam="1">  1       21 0.91767083E-01 0.12114776E+04</pdfrwt>
<pdfrwt beam="2">  1       21 0.36937750E+00 0.12114776E+04</pdfrwt>
<totfact> 0.41275876E+00</totfact>
</mgrwt>
</event>
<event>
 8    1  0.5815007E-006  0.1073166E+04  0.7818608E-02  0.8715583E-01
         21   -1    0    0  501  502  0.00000000000E+00  0.00000000000E+00  0.24711417601E+04  0.24711417601E+04  0.00000000000E+00 0. -1.
         21   -1    0    0  502  503 -0.00000000000E+00 -0.00000000000E+00 -0.45711658256E+03  0.45711658256E+03  0.00000000000E+00 0. -1.
   -9000010    2    1    2    0  503 -0.33756260316E+03 -0.80437914207E+02  0.84614365578E+03  0.13421837354E+04  0.98238450941E+03 0.  0.
    9000010    2    1    2  501    0  0.33756260316E+03  0.80437914207E+02  0.11678815218E+04  0.15860746073E+04  0.10155129944E+04 0.  0.
        -13    1    4    4    0    0  0.20245335584E+03 -0.13532097479E+03 -0.12126197573E+03  0.27203603701E+03  0.10566000000E+00 0.  1.
          4    1    4    4  501    0  0.13510924732E+03  0.21575888900E+03  0.12891434975E+04  0.13140385703E+04  0.00000000000E+00 0.  1.
         13    1    3    3    0    0 -0.59220020334E+03 -0.33567762586E+03  0.53109317601E+03  0.86338897498E+03  0.10566000000E+00 0. -1.
         -4    1    3    3    0  503  0.25463760018E+03  0.25523971165E+03  0.31505047976E+03  0.47879476045E+03  0.00000000000E+00 0. -1.
<mgrwt>
<rscale>  2 0.10652556E+04</rscale>
<asrwt>0</asrwt>
<pdfrwt beam="1">  1       21 0.38017565E+00 0.10731661E+04</pdfrwt>
<pdfrwt beam="2">  1       21 0.70325630E-01 0.10731661E+04</pdfrwt>
<totfact> 0.68761540E+00</totfact>
</mgrwt>
</event>
<event>
 8    1  0.5815007E-006  0.1158997E+04  0.7818608E-02  0.8665993E-01
         21   -1    0    0  501  502  0.00000000000E+00  0.00000000000E+00  0.96504884944E+03  0.96504884944E+03  0.00000000000E+00 0. -1.
         21   -1    0    0  502  503 -0.00000000000E+00 -0.00000000000E+00 -0.12562298341E+04  0.12562298341E+04  0.00000000000E+00 0. -1.
   -9000010    2    1    2    0  503  0.54450329501E+03  0.18236445201E+03 -0.29345202520E+03  0.11955704153E+04  0.10067442054E+04 0.  0.
    9000010    2    1    2  501    0 -0.54450329501E+03 -0.18236445201E+03  0.22710405583E+01  0.10257082682E+04  0.84990097203E+03 0.  0.
        -13    1    4    4    0    0 -0.50447783676E+03 -0.18192913415E+02 -0.36398805420E+03  0.62234731834E+03  0.10566000000E+00 0.  1.
          4    1    4    4  501    0 -0.40025458244E+02 -0.16417153859E+03  0.36625909476E+03  0.40336094988E+03  0.00000000000E+00 0.  1.
         13    1    3    3    0    0 -0.39305245939E+02  0.40041139706E+03  0.15140893581E+03  0.42988238655E+03  0.10566000000E+00 0. -1.
         -4    1    3    3    0  503  0.58380854094E+03 -0.21804694506E+03 -0.44486096101E+03  0.76568802874E+03  0.00000000000E+00 0. -1.
<mgrwt>
<rscale>  2 0.11241325E+04</rscale>
<asrwt>0</asrwt>
<pdfrwt beam="1">  1       21 0.14846905E+00 0.11589972E+04</pdfrwt>
<pdfrwt beam="2">  1       21 0.19326613E+00 0.11589972E+04</pdfrwt>
<totfact> 0.20548398E+01</totfact>
</mgrwt>
</event>
<event>
 8    1  0.5815007E-006  0.1003879E+04  0.7818608E-02  0.8785586E-01
         21   -1    0    0  501  502  0.00000000000E+00  0.00000000000E+00  0.57025169843E+03  0.57025169843E+03  0.00000000000E+00 0.  1.
         21   -1    0    0  502  503 -0.00000000000E+00 -0.00000000000E+00 -0.16626975931E+04  0.16626975931E+04  0.00000000000E+00 0.  1.
   -9000010    2    1    2    0  503 -0.12135881964E+03 -0.66789454615E+02 -0.54820355318E+03  0.10910332019E+04  0.93307958804E+03 0.  0.
    9000010    2    1    2  501    0  0.12135881964E+03  0.66789454615E+02 -0.54424234151E+03  0.11419160896E+04  0.99427553280E+03 0.  0.
        -13    1    4    4    0    0 -0.82816100682E+02 -0.41330378982E+01 -0.80157610935E+03  0.80585349710E+03  0.10566000000E+00 0.  1.
          4    1    4    4  501    0  0.20417492032E+03  0.70922492514E+02  0.25733376784E+03  0.33606259254E+03  0.00000000000E+00 0.  1.
         13    1    3    3    0    0  0.20394630100E+03 -0.39490487826E+03 -0.42005865394E+03  0.61154986753E+03  0.10566000000E+00 0. -1.
         -4    1    3    3    0  503 -0.32530512065E+03  0.32811542364E+03 -0.12814489924E+03  0.47948333438E+03  0.00000000000E+00 0. -1.
<mgrwt>
<rscale>  2 0.98838038E+03</rscale>
<asrwt>0</asrwt>
<pdfrwt beam="1">  1       21 0.87731031E-01 0.10038788E+04</pdfrwt>
<pdfrwt beam="2">  1       21 0.25579963E+00 0.10038788E+04</pdfrwt>
<totfact> 0.30764017E+01</totfact>
</mgrwt>
</event>
<event>
 8    1  0.5815007E-006  0.1073751E+04  0.7818608E-02  0.8715512E-01
         21   -1    0    0  503  502  0.00000000000E+00  0.00000000000E+00  0.64400353798E+03  0.64400353798E+03  0.00000000000E+00 0.  1.
         21   -1    0    0  501  503 -0.00000000000E+00 -0.00000000000E+00 -0.17759961415E+04  0.17759961415E+04  0.00000000000E+00 0.  1.
    9000010    2    1    2  501    0 -0.25226885544E+03 -0.27192543251E+03 -0.37401531797E+03  0.11056668347E+04  0.97212585352E+03 0.  0.
   -9000010    2    1    2    0  502  0.25226885544E+03  0.27192543251E+03 -0.75797728550E+03  0.13143328447E+04  0.10076498623E+04 0.  0.
        -13    1    3    3    0    0 -0.36363544221E+03  0.25251583325E+02  0.22458442647E+03  0.42814314553E+03  0.10566000000E+00 0.  1.
          4    1    3    3  501    0  0.11136658676E+03 -0.29717701584E+03 -0.59859974444E+03  0.67752368920E+03  0.00000000000E+00 0.  1.
         13    1    4    4    0    0 -0.14077761572E+03  0.53315984345E+03 -0.60411299381E+03  0.81794270962E+03  0.10566000000E+00 0. -1.
         -4    1    4    4    0  502  0.39304647116E+03 -0.26123441094E+03 -0.15386429169E+03  0.49639013509E+03  0.00000000000E+00 0. -1.
<mgrwt>
<rscale>  2 0.10653364E+04</rscale>
<asrwt>0</asrwt>
<pdfrwt beam="1">  1       21 0.99077470E-01 0.10737510E+04</pdfrwt>
<pdfrwt beam="2">  1       21 0.27323017E+00 0.10737510E+04</pdfrwt>
<totfact> 0.16610311E+01</totfact>
</mgrwt>
</event>
<event>
 8    1  0.5815007E-006  0.1231341E+04  0.7818608E-02  0.8585703E-01
         21   -1    0    0  503  502  0.00000000000E+00  0.00000000000E+00  0.12199531599E+04  0.12199531599E+04  0.00000000000E+00 0. -1.
         21   -1    0    0  501  503 -0.00000000000E+00 -0.00000000000E+00 -0.12494457899E+04  0.12494457899E+04  0.00000000000E+00 0. -1.
    9000010    2    1    2  501    0  0.61855528642E+03 -0.35915377556E+03  0.14012392442E+03  0.12264306769E+04  0.98635460878E+03 0.  0.
   -9000010    2    1    2    0  502 -0.61855528642E+03  0.35915377556E+03 -0.16961655443E+03  0.12429682728E+04  0.10022965004E+04 0.  0.
        -13    1    3    3    0    0  0.40445447350E+03 -0.55824976942E+03  0.43181137825E+03  0.81344164126E+03  0.10566000000E+00 0.  1.
          4    1    3    3  501    0  0.21410081293E+03  0.19909599386E+03 -0.29168745382E+03  0.41298903567E+03  0.00000000000E+00 0.  1.
         13    1    4    4    0    0 -0.88641339387E+03  0.16923530451E+03 -0.14093521977E+03  0.91336303870E+03  0.10566000000E+00 0. -1.
         -4    1    4    4    0  502  0.26785810745E+03  0.18991847105E+03 -0.28681334659E+02  0.32960523408E+03  0.00000000000E+00 0. -1.
<mgrwt>
<rscale>  2 0.12280927E+04</rscale>
<asrwt>0</asrwt>
<pdfrwt beam="1">  1       21 0.18768510E+00 0.12313409E+04</pdfrwt>
<pdfrwt beam="2">  1       21 0.19222243E+00 0.12313409E+04</pdfrwt>
<totfact> 0.96077014E+00</totfact>
</mgrwt>
</event>
<event>
 8    1  0.5815007E-006  0.1088243E+04  0.7818608E-02  0.8704435E-01
         21   -1    0    0  501  502  0.00000000000E+00  0.00000000000E+00  0.44142028711E+03  0.44142028711E+03  0.00000000000E+00 0.  1.
         21   -1    0    0  502  503 -0.00000000000E+00 -0.00000000000E+00 -0.26739184686E+04  0.26739184686E+04  0.00000000000E+00 0.  1.
   -9000010    2    1    2    0  503  0.17950578030E+02 -0.32266311594E+03 -0.13790707680E+04  0.17323671927E+04  0.99740974395E+03 0.  0.
    9000010    2    1    2  501    0 -0.17950578030E+02  0.32266311594E+03 -0.85342741347E+03  0.13829715631E+04  0.10391526762E+04 0.  0.
        -13    1    4    4    0    0  0.29782826626E+03  0.40384225932E+03 -0.36185027130E+02  0.50309006544E+03  0.10566000000E+00 0.  1.
          4    1    4    4  501    0 -0.31577884429E+03 -0.81179143382E+02 -0.81724238634E+03  0.87988149762E+03  0.00000000000E+00 0.  1.
         13    1    3    3    0    0 -0.68951164269E+02 -0.50588238248E+03 -0.22042534129E+03  0.55611023206E+03  0.10566000000E+00 0. -1.
         -4    1    3    3    0  503  0.86901742299E+02  0.18321926654E+03 -0.11586454267E+04  0.11762569606E+04  0.00000000000E+00 0. -1.
<mgrwt>
<rscale>  2 0.10781566E+04</rscale>
<asrwt>0</asrwt>
<pdfrwt beam="1">  1       21 0.67910813E-01 0.10882426E+04</pdfrwt>
<pdfrwt beam="2">  1       21 0.41137207E+00 0.10882426E+04</pdfrwt>
<totfact> 0.45168808E+00</totfact>
</mgrwt>
</event>
<event>
 8    1  0.5815007E-006  0.1129412E+04  0.7818608E-02  0.8666474E-01
         21   -1    0    0  501  502  0.00000000000E+00  0.00000000000E+00  0.67876411415E+03  0.67876411415E+03  0.00000000000E+00 0.  1.
         21   -1    0    0  502  503 -0.00000000000E+00 -0.00000000000E+00 -0.18887390734E+04  0.18887390734E+04  0.00000000000E+00 0.  1.
   -9000010    2    1    2    0  503 -0.36426365771E+03  0.23526440972E+03 -0.81586666241E+03  0.13932729267E+04  0.10428488301E+04 0.  0.
    9000010    2    1    2  501    0  0.36426365771E+03 -0.23526440972E+03 -0.39410829680E+03  0.11742302608E+04  0.10175745678E+04 0.  0.
        -13    1    4    4    0    0  0.41142885323E+03 -0.64880930751E+02  0.26377170490E+03  0.49300989839E+03  0.10566000000E+00 0.  1.
          4    1    4    4  501    0 -0.47165195512E+02 -0.17038347897E+03 -0.65788000171E+03  0.68122036245E+03  0.00000000000E+00 0.  1.
         13    1    3    3    0    0  0.90419957969E+02  0.40042706630E+03  0.37615491580E+02  0.41222874790E+03  0.10566000000E+00 0. -1.
         -4    1    3    3    0  503 -0.45468361568E+03 -0.16516265658E+03 -0.85348215399E+03  0.98104417876E+03  0.00000000000E+00 0. -1.
<mgrwt>
<rscale>  2 0.11235426E+04</rscale>
<asrwt>0</asrwt>
<pdfrwt beam="1">  1       21 0.10442525E+00 0.11294118E+04</pdfrwt>
<pdfrwt beam="2">  1       21 0.29057524E+00 0.11294118E+04</pdfrwt>
<totfact> 0.10750816E+01</totfact>
</mgrwt>
</event>
<event>
 8    1  0.5815007E-006  0.1102556E+04  0.7818608E-02  0.8684933E-01
         21   -1    0    0  503  502  0.00000000000E+00  0.00000000000E+00  0.20701491557E+04  0.20701491557E+04  0.00000000000E+00 0. -1.
         21   -1    0    0  501  503 -0.00000000000E+00 -0.00000000000E+00 -0.62770491744E+03  0.62770491744E+03  0.00000000000E+00 0. -1.
    9000010    2    1    2  501    0  0.23978510617E+03 -0.36223847391E+03  0.36489525273E+03  0.11561853081E+04  0.10074236011E+04 0.  0.
   -9000010    2    1    2    0  502 -0.23978510617E+03  0.36223847391E+03  0.10775489856E+04  0.15416687651E+04  0.10133692100E+04 0.  0.
        -13    1    3    3    0    0  0.29743970023E+03  0.14761754317E+01  0.63385049349E+03  0.70017070321E+03  0.10566000000E+00 0.  1.
          4    1    3    3  501    0 -0.57654594062E+02 -0.36371464934E+03 -0.26895524076E+03  0.45601460491E+03  0.00000000000E+00 0.  1.
         13    1    4    4    0    0  0.33325155164E+03 -0.85110015696E+02  0.18507090780E+03  0.39057849854E+03  0.10566000000E+00 0. -1.
         -4    1    4    4    0  502 -0.57303665781E+03  0.44734848961E+03  0.89247807778E+03  0.11510902665E+04  0.00000000000E+00 0. -1.
<mgrwt>
<rscale>  2 0.11011884E+04</rscale>
<asrwt>0</asrwt>
<pdfrwt beam="1">  1       21 0.31848448E+00 0.11025565E+04</pdfrwt>
<pdfrwt beam="2">  1       21 0.96569988E-01 0.11025565E+04</pdfrwt>
<totfact> 0.84327114E+00</totfact>
</mgrwt>
</event>
<event>
 8    1  0.5815007E-006  0.1039469E+04  0.7818608E-02  0.8743455E-01
         21   -1    0    0  501  502  0.00000000000E+00  0.00000000000E+00  0.19939131760E+04  0.19939131760E+04  0.00000000000E+00 0.  1.
         21   -1    0    0  502  503 -0.00000000000E+00 -0.00000000000E+00 -0.53606447771E+03  0.53606447771E+03  0.00000000000E+00 0.  1.
   -9000010    2    1    2    0  503  0.24297838046E+03 -0.75847051692E+02  0.58943241083E+03  0.11754876187E+04  0.98465694851E+03 0.  0.
    9000010    2    1    2  501    0 -0.24297838046E+03  0.75847051692E+02  0.86841628743E+03  0.13544900349E+04  0.10078219773E+04 0.  0.
        -13    1    4    4    0    0  0.12501354460E+03  0.30294022858E+02  0.96321259065E+03  0.97176366474E+03  0.10566000000E+00 0.  1.
          4    1    4    4  501    0 -0.36799192506E+03  0.45553028834E+02 -0.94796303221E+02  0.38272637020E+03  0.00000000000E+00 0.  1.
         13    1    3    3    0    0  0.14800817437E+03  0.43303479733E+03  0.44436848370E+03  0.63787844911E+03  0.10566000000E+00 0. -1.
         -4    1    3    3    0  503  0.94970206096E+02 -0.50888184902E+03  0.14506392713E+03  0.53760916962E+03  0.00000000000E+00 0. -1.
<mgrwt>
<rscale>  2 0.10338123E+04</rscale>
<asrwt>0</asrwt>
<pdfrwt beam="1">  1       21 0.30675587E+00 0.10394693E+04</pdfrwt>
<pdfrwt beam="2">  1       21 0.82471459E-01 0.10394693E+04</pdfrwt>
<totfact> 0.15448382E+01</totfact>
</mgrwt>
</event>
<event>
 8    1  0.5815007E-006  0.1404796E+04  0.7818608E-02  0.8467152E-01
         21   -1    0    0  503  502  0.00000000000E+00  0.00000000000E+00  0.14302875152E+04  0.14302875152E+04  0.00000000000E+00 0. -1.
         21   -1    0    0  501  503 -0.00000000000E+00 -0.00000000000E+00 -0.18207830203E+04  0.18207830203E+04  0.00000000000E+00 0.  1.
    9000010    2    1    2  501    0 -0.75310905408E+02  0.97733071654E+03 -0.99927039342E+03  0.17239467989E+04  0.10062823581E+04 0.  0.
   -9000010    2    1    2    0  502  0.75310905408E+02 -0.97733071654E+03  0.60877488831E+03  0.15271237367E+04  0.10003264370E+04 0.  0.
        -13    1    3    3    0    0 -0.49038957583E+03  0.21545987776E+03 -0.34228237753E+03  0.63565881740E+03  0.10566000000E+00 0.  1.
          4    1    3    3  501    0  0.41507867042E+03  0.76187083878E+03 -0.65698801589E+03  0.10882879815E+04  0.00000000000E+00 0.  1.
         13    1    4    4    0    0  0.16739769636E+03  0.72561121703E+02  0.41798844891E+03  0.45607177035E+03  0.10566000000E+00 0. -1.
         -4    1    4    4    0  502 -0.92086790949E+02 -0.10498918382E+04  0.19078643940E+03  0.10710519663E+04  0.00000000000E+00 0. -1.
<mgrwt>
<rscale>  2 0.14037295E+04</rscale>
<asrwt>0</asrwt>
<pdfrwt beam="1">  1       21 0.22004423E+00 0.14047958E+04</pdfrwt>
<pdfrwt beam="2">  1       21 0.28012047E+00 0.14047958E+04</pdfrwt>
<totfact> 0.11504358E+00</totfact>
</mgrwt>
</event>
<event>
 8    1  0.5815007E-006  0.1099601E+04  0.7818608E-02  0.8686333E-01
         21   -1    0    0  501  502  0.00000000000E+00  0.00000000000E+00  0.14541798859E+04  0.14541798859E+04  0.00000000000E+00 0.  1.
         21   -1    0    0  502  503 -0.00000000000E+00 -0.00000000000E+00 -0.84133086951E+03  0.84133086951E+03  0.00000000000E+00 0.  1.
   -9000010    2    1    2    0  503 -0.23521146760E+02 -0.44362638017E+03  0.18055792470E+03  0.11139873383E+04  0.10054894411E+04 0.  0.
    9000010    2    1    2  501    0  0.23521146760E+02  0.44362638017E+03  0.43229109167E+03  0.11815234171E+04  0.10058649947E+04 0.  0.
        -13    1    4    4    0    0 -0.23760784113E+03 -0.24073506527E+03  0.26621731333E+03  0.43044456891E+03  0.10566000000E+00 0.  1.
          4    1    4    4  501    0  0.26112898789E+03  0.68436144544E+03  0.16607377834E+03  0.75107884818E+03  0.00000000000E+00 0.  1.
         13    1    3    3    0    0  0.29620136012E+03 -0.64909122143E+03  0.63416354752E+02  0.71629344873E+03  0.10566000000E+00 0. -1.
         -4    1    3    3    0  503 -0.31972250688E+03  0.20546484126E+03  0.11714156995E+03  0.39769388958E+03  0.00000000000E+00 0. -1.
<mgrwt>
<rscale>  2 0.10995149E+04</rscale>
<asrwt>0</asrwt>
<pdfrwt beam="1">  1       21 0.22371998E+00 0.10996008E+04</pdfrwt>
<pdfrwt beam="2">  1       21 0.12943552E+00 0.10996008E+04</pdfrwt>
<totfact> 0.18238483E+01</totfact>
</mgrwt>
</event>
<event>
 8    1  0.5815007E-006  0.1373485E+04  0.7818608E-02  0.8489756E-01
         21   -1    0    0  503  502  0.00000000000E+00  0.00000000000E+00  0.19045303245E+04  0.19045303245E+04  0.00000000000E+00 0. -1.
         21   -1    0    0  501  503 -0.00000000000E+00 -0.00000000000E+00 -0.10947232413E+04  0.10947232413E+04  0.00000000000E+00 0. -1.
    9000010    2    1    2  501    0 -0.11287365331E+03 -0.92995749309E+03 -0.88353337917E+02  0.13763238668E+04  0.10044399800E+04 0.  0.
   -9000010    2    1    2    0  502  0.11287365331E+03  0.92995749309E+03  0.89816042116E+03  0.16229296989E+04  0.97449846845E+03 0.  0.
        -13    1    3    3    0    0 -0.16478463216E+03 -0.73108945899E+02  0.36386419980E+03  0.40607395881E+03  0.10566000000E+00 0.  1.
          4    1    3    3  501    0  0.51910978844E+02 -0.85684854719E+03 -0.45221753771E+03  0.97024990800E+03  0.00000000000E+00 0.  1.
         13    1    4    4    0    0 -0.24118102868E+03  0.17071444213E+03 -0.10715797135E+03  0.31431600553E+03  0.10566000000E+00 0. -1.
         -4    1    4    4    0  502  0.35405468199E+03  0.75924305096E+03  0.10053183925E+04  0.13086136934E+04  0.00000000000E+00 0. -1.
<mgrwt>
<rscale>  2 0.13680169E+04</rscale>
<asrwt>0</asrwt>
<pdfrwt beam="1">  1       21 0.29300467E+00 0.13734850E+04</pdfrwt>
<pdfrwt beam="2">  1       21 0.16841896E+00 0.13734850E+04</pdfrwt>
<totfact> 0.24144292E+00</totfact>
</mgrwt>
</event>
<event>
 8    1  0.5815007E-006  0.1137790E+04  0.7818608E-02  0.8659195E-01
         21   -1    0    0  503  502  0.00000000000E+00  0.00000000000E+00  0.17439998732E+04  0.17439998732E+04  0.00000000000E+00 0.  1.
         21   -1    0    0  501  503 -0.00000000000E+00 -0.00000000000E+00 -0.84222491090E+03  0.84222491090E+03  0.00000000000E+00 0.  1.
    9000010    2    1    2  501    0 -0.56188951907E+02  0.49296419058E+03 -0.27535159332E+02  0.11171488719E+04  0.10005461136E+04 0.  0.
   -9000010    2    1    2    0  502  0.56188951907E+02 -0.49296419058E+03  0.92931012165E+03  0.14690759122E+04  0.10239120285E+04 0.  0.
        -13    1    3    3    0    0 -0.35304281617E+03  0.52343672920E+03 -0.31254917848E+03  0.70449431485E+03  0.10566000000E+00 0.  1.
          4    1    3    3  501    0  0.29685386426E+03 -0.30472538619E+02  0.28501401915E+03  0.41265455704E+03  0.00000000000E+00 0.  1.
         13    1    4    4    0    0  0.38645711181E+03 -0.65213166935E+03  0.51818750590E+03  0.91822824825E+03  0.10566000000E+00 0. -1.
         -4    1    4    4    0  502 -0.33026815991E+03  0.15916747877E+03  0.41112261575E+03  0.55084766399E+03  0.00000000000E+00 0. -1.
<mgrwt>
<rscale>  2 0.11325084E+04</rscale>
<asrwt>0</asrwt>
<pdfrwt beam="1">  1       21 0.26830767E+00 0.11377903E+04</pdfrwt>
<pdfrwt beam="2">  1       21 0.12957306E+00 0.11377903E+04</pdfrwt>
<totfact> 0.85070136E+00</totfact>
</mgrwt>
</event>
<event>
 8    1  0.5815007E-006  0.1240991E+04  0.7818608E-02  0.8587100E-01
         21   -1    0    0  501  502  0.00000000000E+00  0.00000000000E+00  0.26271709984E+04  0.26271709984E+04  0.00000000000E+00 0.  1.
         21   -1    0    0  502  503 -0.00000000000E+00 -0.00000000000E+00 -0.61121438584E+03  0.61121438584E+03  0.00000000000E+00 0.  1.
   -9000010    2    1    2    0  503 -0.67436508981E+03 -0.83584036458E+02  0.55719289471E+03  0.13603391744E+04  0.10384142631E+04 0.  0.
    9000010    2    1    2  501    0  0.67436508981E+03  0.83584036458E+02  0.14587637179E+04  0.18780462099E+04  0.96814844756E+03 0.  0.
        -13    1    4    4    0    0  0.99744419911E+02 -0.11318365119E+03  0.12137867852E+04  0.12231262646E+04  0.10566000000E+00 0.  1.
          4    1    4    4  501    0  0.57462066989E+03  0.19676768765E+03  0.24497693269E+03  0.65491994528E+03  0.00000000000E+00 0.  1.
         13    1    3    3    0    0 -0.35759394926E+03  0.47168385562E+03  0.35333776662E+03  0.68935236323E+03  0.10566000000E+00 0. -1.
         -4    1    3    3    0  503 -0.31677114054E+03 -0.55526789208E+03  0.20385512809E+03  0.67098681112E+03  0.00000000000E+00 0. -1.
<mgrwt>
<rscale>  2 0.12261857E+04</rscale>
<asrwt>0</asrwt>
<pdfrwt beam="1">  1       21 0.40418015E+00 0.12409910E+04</pdfrwt>
<pdfrwt beam="2">  1       21 0.94032984E-01 0.12409910E+04</pdfrwt>
<totfact> 0.22026859E+00</totfact>
</mgrwt>
</event>
<event>
 8    1  0.5815007E-006  0.1048920E+04  0.7818608E-02  0.8737438E-01
         21   -1    0    0  501  502  0.00000000000E+00  0.00000000000E+00  0.63072698533E+03  0.63072698533E+03  0.00000000000E+00 0.  1.
         21   -1    0    0  502  503 -0.00000000000E+00 -0.00000000000E+00 -0.16896986727E+04  0.16896986727E+04  0.00000000000E+00 0.  1.
   -9000010    2    1    2    0  503 -0.10359485731E+03  0.19616849792E+03 -0.55006776176E+03  0.11844014910E+04  0.10251918724E+04 0.  0.
    9000010    2    1    2  501    0  0.10359485731E+03 -0.19616849792E+03 -0.50890392565E+03  0.11360241671E+04  0.99113759322E+03 0.  0.
        -13    1    4    4    0    0  0.31678000654E+03 -0.10951239319E+03  0.20026867357E+03  0.39044857482E+03  0.10566000000E+00 0.  1.
          4    1    4    4  501    0 -0.21318514923E+03 -0.86656104731E+02 -0.70917259922E+03  0.74557559229E+03  0.00000000000E+00 0.  1.
         13    1    3    3    0    0  0.34475620350E+03  0.37632328174E+03 -0.92001909778E+02  0.51859465365E+03  0.10566000000E+00 0. -1.
         -4    1    3    3    0  503 -0.44835106080E+03 -0.18015478383E+03 -0.45806585198E+03  0.66580683731E+03  0.00000000000E+00 0. -1.
<mgrwt>
<rscale>  2 0.10405043E+04</rscale>
<asrwt>0</asrwt>
<pdfrwt beam="1">  1       21 0.97034920E-01 0.10489196E+04</pdfrwt>
<pdfrwt beam="2">  1       21 0.25995364E+00 0.10489196E+04</pdfrwt>
<totfact> 0.21955019E+01</totfact>
</mgrwt>
</event>
<event>
 8    1  0.5815007E-006  0.1358545E+04  0.7818608E-02  0.8498283E-01
         21   -1    0    0  501  502  0.00000000000E+00  0.00000000000E+00  0.12934212608E+04  0.12934212608E+04  0.00000000000E+00 0.  1.
         21   -1    0    0  502  503 -0.00000000000E+00 -0.00000000000E+00 -0.14759045428E+04  0.14759045428E+04  0.00000000000E+00 0.  1.
   -9000010    2    1    2    0  503  0.85259003035E+03  0.32437983200E+03 -0.38108204920E+03  0.14109810765E+04  0.10067333484E+04 0.  0.
    9000010    2    1    2  501    0 -0.85259003035E+03 -0.32437983200E+03  0.19859876724E+03  0.13583447270E+04  0.98667466365E+03 0.  0.
        -13    1    4    4    0    0 -0.21326645402E+03 -0.31312358168E+03  0.51945739056E+03  0.64293463865E+03  0.10566000000E+00 0.  1.
          4    1    4    4  501    0 -0.63932357633E+03 -0.11256250323E+02 -0.32085862332E+03  0.71541008840E+03  0.00000000000E+00 0.  1.
         13    1    3    3    0    0  0.58050199499E+03 -0.31184452653E+03 -0.26053532040E+03  0.70859596333E+03  0.10566000000E+00 0. -1.
         -4    1    3    3    0  503  0.27208803536E+03  0.63622435853E+03 -0.12054672881E+03  0.70238511317E+03  0.00000000000E+00 0. -1.
<mgrwt>
<rscale>  2 0.13548304E+04</rscale>
<asrwt>0</asrwt>
<pdfrwt beam="1">  1       21 0.19898789E+00 0.13585448E+04</pdfrwt>
<pdfrwt beam="2">  1       21 0.22706224E+00 0.13585448E+04</pdfrwt>
<totfact> 0.41092112E+00</totfact>
</mgrwt>
</event>
<event>
 8    1  0.5815007E-006  0.1106196E+04  0.7818608E-02  0.8682150E-01
         21   -1    0    0  503  502  0.00000000000E+00  0.00000000000E+00  0.11540529449E+04  0.11540529449E+04  0.00000000000E+00 0.  1.
         21   -1    0    0  501  503 -0.00000000000E+00 -0.00000000000E+00 -0.10539330473E+04  0.10539330473E+04  0.00000000000E+00 0.  1.
    9000010    2    1    2  501    0 -0.30211524813E+03  0.38835655597E+03  0.50151189952E+02  0.11006614903E+04  0.98328334501E+03 0.  0.
   -9000010    2    1    2    0  502  0.30211524813E+03 -0.38835655597E+03  0.49968707654E+02  0.11073245019E+04  0.99074529679E+03 0.  0.
        -13    1    3    3    0    0  0.32748268466E+03 -0.33356016666E+02 -0.60965630604E+02  0.33477507655E+03  0.10566000000E+00 0.  1.
          4    1    3    3  501    0 -0.62959793279E+03  0.42171257264E+03  0.11111682056E+03  0.76588641371E+03  0.00000000000E+00 0.  1.
         13    1    4    4    0    0  0.66438895015E+03 -0.30959451788E+03 -0.18526556953E+01  0.73298355103E+03  0.10566000000E+00 0. -1.
         -4    1    4    4    0  502 -0.36227370202E+03 -0.78762038090E+02  0.51821363349E+02  0.37434095090E+03  0.00000000000E+00 0. -1.
<mgrwt>
<rscale>  2 0.11045232E+04</rscale>
<asrwt>0</asrwt>
<pdfrwt beam="1">  1       21 0.17754661E+00 0.11061965E+04</pdfrwt>
<pdfrwt beam="2">  1       21 0.16214354E+00 0.11061965E+04</pdfrwt>
<totfact> 0.21103308E+01</totfact>
</mgrwt>
</event>
<event>
 8    1  0.5815007E-006  0.1031472E+04  0.7818608E-02  0.8783389E-01
         21   -1    0    0  501  502  0.00000000000E+00  0.00000000000E+00  0.17183933715E+04  0.17183933715E+04  0.00000000000E+00 0. -1.
         21   -1    0    0  502  503 -0.00000000000E+00 -0.00000000000E+00 -0.56247061200E+03  0.56247061200E+03  0.00000000000E+00 0. -1.
   -9000010    2    1    2    0  503  0.56727587012E+02 -0.30349493713E+03  0.35000728885E+03  0.10892377283E+04  0.98417809895E+03 0.  0.
    9000010    2    1    2  501    0 -0.56727587012E+02  0.30349493713E+03  0.80591547067E+03  0.11916262553E+04  0.82167280006E+03 0.  0.
        -13    1    4    4    0    0  0.18380140272E+03  0.10999200864E+03 -0.98658198770E+02  0.23582758311E+03  0.10566000000E+00 0.  1.
          4    1    4    4  501    0 -0.24052898973E+03  0.19350292848E+03  0.90457366944E+03  0.95579867215E+03  0.00000000000E+00 0.  1.
         13    1    3    3    0    0  0.50337592210E+03 -0.23618623129E+02  0.15498746463E+03  0.52722507875E+03  0.10566000000E+00 0. -1.
         -4    1    3    3    0  503 -0.44664833509E+03 -0.27987631400E+03  0.19501982422E+03  0.56201264952E+03  0.00000000000E+00 0. -1.
<mgrwt>
<rscale>  2 0.99068975E+03</rscale>
<asrwt>0</asrwt>
<pdfrwt beam="1">  1       21 0.26436821E+00 0.10314716E+04</pdfrwt>
<pdfrwt beam="2">  1       21 0.86533941E-01 0.10314716E+04</pdfrwt>
<totfact> 0.27467062E+01</totfact>
</mgrwt>
</event>
<event>
 8    1  0.5815007E-006  0.1139326E+04  0.7818608E-02  0.8654410E-01
         21   -1    0    0  503  502  0.00000000000E+00  0.00000000000E+00  0.20466094935E+04  0.20466094935E+04  0.00000000000E+00 0. -1.
         21   -1    0    0  501  503 -0.00000000000E+00 -0.00000000000E+00 -0.64358170737E+03  0.64358170737E+03  0.00000000000E+00 0. -1.
    9000010    2    1    2  501    0 -0.23360707842E+03 -0.47267121887E+03  0.88061197273E+03  0.14399793948E+04  0.10099865656E+04 0.  0.
   -9000010    2    1    2    0  502  0.23360707842E+03  0.47267121887E+03  0.52241581337E+03  0.12502118060E+04  0.10060422107E+04 0.  0.
        -13    1    3    3    0    0 -0.23489609733E+03  0.17402634590E+03  0.71493633034E+03  0.77239582677E+03  0.10566000000E+00 0.  1.
          4    1    3    3  501    0  0.12890189077E+01 -0.64669756477E+03  0.16567564239E+03  0.66758356805E+03  0.00000000000E+00 0.  1.
         13    1    4    4    0    0  0.28885921499E+02  0.55312945603E+03  0.75088302207E+03  0.93306586884E+03  0.10566000000E+00 0. -1.
         -4    1    4    4    0  502  0.20472115692E+03 -0.80458237156E+02 -0.22846720871E+03  0.31714593718E+03  0.00000000000E+00 0. -1.
<mgrwt>
<rscale>  2 0.11384510E+04</rscale>
<asrwt>0</asrwt>
<pdfrwt beam="1">  1       21 0.31486299E+00 0.11393258E+04</pdfrwt>
<pdfrwt beam="2">  1       21 0.99012572E-01 0.11393258E+04</pdfrwt>
<totfact> 0.83155178E+00</totfact>
</mgrwt>
</event>
<event>
 8    1  0.5815007E-006  0.1062193E+04  0.7818608E-02  0.8719773E-01
         21   -1    0    0  503  502  0.00000000000E+00  0.00000000000E+00  0.95640471819E+03  0.95640471819E+03  0.00000000000E+00 0. -1.
         21   -1    0    0  501  503 -0.00000000000E+00 -0.00000000000E+00 -0.11720609992E+04  0.11720609992E+04  0.00000000000E+00 0. -1.
    9000010    2    1    2  501    0 -0.53895417174E+02  0.38590593857E+03 -0.11628225337E+03  0.10685388857E+04  0.98814253949E+03 0.  0.
   -9000010    2    1    2    0  502  0.53895417174E+02 -0.38590593857E+03 -0.99374027602E+02  0.10599268317E+04  0.98068424158E+03 0.  0.
        -13    1    3    3    0    0  0.33906293940E+03  0.50213375656E+03 -0.22209317911E+03  0.64531184533E+03  0.10566000000E+00 0.  1.
          4    1    3    3  501    0 -0.39295835658E+03 -0.11622781799E+03  0.10581092574E+03  0.42322704035E+03  0.00000000000E+00 0.  1.
         13    1    4    4    0    0 -0.28168966876E+03 -0.27999102545E+02  0.31082664468E+03  0.42041198060E+03  0.10566000000E+00 0. -1.
         -4    1    4    4    0  502  0.33558508593E+03 -0.35790683603E+03 -0.41020067228E+03  0.63951485105E+03  0.00000000000E+00 0. -1.
<mgrwt>
<rscale>  2 0.10604550E+04</rscale>
<asrwt>0</asrwt>
<pdfrwt beam="1">  1       21 0.14713919E+00 0.10621929E+04</pdfrwt>
<pdfrwt beam="2">  1       21 0.18031708E+00 0.10621929E+04</pdfrwt>
<totfact> 0.27398174E+01</totfact>
</mgrwt>
</event>
<event>
 8    1  0.5815007E-006  0.1370287E+04  0.7818608E-02  0.8489228E-01
         21   -1    0    0  503  502  0.00000000000E+00  0.00000000000E+00  0.10428288809E+04  0.10428288809E+04  0.00000000000E+00 0.  1.
         21   -1    0    0  501  503 -0.00000000000E+00 -0.00000000000E+00 -0.21432447872E+04  0.21432447872E+04  0.00000000000E+00 0. -1.
    9000010    2    1    2  501    0  0.83061902980E+02  0.93643312962E+03 -0.11932326209E+04  0.18126471160E+04  0.98897886411E+03 0.  0.
   -9000010    2    1    2    0  502 -0.83061902980E+02 -0.93643312962E+03  0.92816714623E+02  0.13734265520E+04  0.99693493533E+03 0.  0.
        -13    1    3    3    0    0 -0.22252680038E+03  0.69113922761E+03 -0.21251530886E+03  0.75654106067E+03  0.10566000000E+00 0.  1.
          4    1    3    3  501    0  0.30558870336E+03  0.24529390201E+03 -0.98071731206E+03  0.10561060554E+04  0.00000000000E+00 0.  1.
         13    1    4    4    0    0  0.91065717044E+02 -0.51264061951E+03 -0.43214765772E+03  0.67664243056E+03  0.10566000000E+00 0. -1.
         -4    1    4    4    0  502 -0.17412762002E+03 -0.42379251011E+03  0.52496437235E+03  0.69678412146E+03  0.00000000000E+00 0. -1.
<mgrwt>
<rscale>  2 0.13688400E+04</rscale>
<asrwt>0</asrwt>
<pdfrwt beam="1">  1       21 0.16043521E+00 0.13702867E+04</pdfrwt>
<pdfrwt beam="2">  1       21 0.32972997E+00 0.13702867E+04</pdfrwt>
<totfact> 0.15562402E+00</totfact>
</mgrwt>
</event>
<event>
 8    1  0.5815007E-006  0.1165107E+04  0.7818608E-02  0.8650796E-01
         21   -1    0    0  501  502  0.00000000000E+00  0.00000000000E+00  0.22401428743E+04  0.22401428743E+04  0.00000000000E+00 0. -1.
         21   -1    0    0  502  503 -0.00000000000E+00 -0.00000000000E+00 -0.56793447655E+03  0.56793447655E+03  0.00000000000E+00 0. -1.
   -9000010    2    1    2    0  503 -0.28206687027E+03 -0.31285184505E+03  0.66135828110E+03  0.12655819888E+04  0.99341079024E+03 0.  0.
    9000010    2    1    2  501    0  0.28206687027E+03  0.31285184505E+03  0.10108501167E+04  0.15424953621E+04  0.10862946135E+04 0.  0.
        -13    1    4    4    0    0  0.45011212166E+03 -0.25787422535E+03  0.24774730542E+03  0.57487283522E+03  0.10566000000E+00 0.  1.
          4    1    4    4  501    0 -0.16804525139E+03  0.57072607040E+03  0.76310281126E+03  0.96762252687E+03  0.00000000000E+00 0.  1.
         13    1    3    3    0    0 -0.11417670435E+03 -0.64957982693E+03  0.58511252006E+03  0.88167280987E+03  0.10566000000E+00 0. -1.
         -4    1    3    3    0  503 -0.16789016593E+03  0.33672798188E+03  0.76245761034E+02  0.38390917893E+03  0.00000000000E+00 0. -1.
<mgrwt>
<rscale>  2 0.11429640E+04</rscale>
<asrwt>0</asrwt>
<pdfrwt beam="1">  1       21 0.34463736E+00 0.11651069E+04</pdfrwt>
<pdfrwt beam="2">  1       21 0.87374536E-01 0.11651069E+04</pdfrwt>
<totfact> 0.70476717E+00</totfact>
</mgrwt>
</event>
<event>
 8    1  0.5815007E-006  0.1065673E+04  0.7818608E-02  0.8716478E-01
         21   -1    0    0  503  502  0.00000000000E+00  0.00000000000E+00  0.71217484349E+03  0.71217484349E+03  0.00000000000E+00 0.  1.
         21   -1    0    0  501  503 -0.00000000000E+00 -0.00000000000E+00 -0.15891333413E+04  0.15891333413E+04  0.00000000000E+00 0.  1.
    9000010    2    1    2  501    0 -0.12735767147E+03 -0.34298750681E+03 -0.48827435643E+03  0.11669653191E+04  0.99475414171E+03 0.  0.
   -9000010    2    1    2    0  502  0.12735767147E+03  0.34298750681E+03 -0.38868414142E+03  0.11343428658E+04  0.10008985808E+04 0.  0.
        -13    1    3    3    0    0 -0.53591796996E+03 -0.25520709605E+03 -0.45472105532E+03  0.74773657240E+03  0.10566000000E+00 0.  1.
          4    1    3    3  501    0  0.40856029849E+03 -0.87780410760E+02 -0.33553301117E+02  0.41922874666E+03  0.00000000000E+00 0.  1.
         13    1    4    4    0    0 -0.44059416006E+03  0.15217122747E+03 -0.18533449534E+03  0.50162554029E+03  0.10566000000E+00 0. -1.
         -4    1    4    4    0  502  0.56795183153E+03  0.19081627934E+03 -0.20334964608E+03  0.63271732547E+03  0.00000000000E+00 0. -1.
<mgrwt>
<rscale>  2 0.10642276E+04</rscale>
<asrwt>0</asrwt>
<pdfrwt beam="1">  1       21 0.10956536E+00 0.10656727E+04</pdfrwt>
<pdfrwt beam="2">  1       21 0.24448205E+00 0.10656727E+04</pdfrwt>
<totfact> 0.20546198E+01</totfact>
</mgrwt>
</event>
<event>
 8    1  0.5815007E-006  0.1246406E+04  0.7818608E-02  0.8576380E-01
         21   -1    0    0  503  502  0.00000000000E+00  0.00000000000E+00  0.24758246662E+04  0.24758246662E+04  0.00000000000E+00 0.  1.
         21   -1    0    0  501  503 -0.00000000000E+00 -0.00000000000E+00 -0.61808220496E+03  0.61808220496E+03  0.00000000000E+00 0.  1.
    9000010    2    1    2  501    0  0.20658915071E+03  0.69137850155E+03  0.84303509781E+03  0.14866859131E+04  0.98936520989E+03 0.  0.
   -9000010    2    1    2    0  502 -0.20658915071E+03 -0.69137850155E+03  0.10147073634E+04  0.16072209581E+04  0.10162897545E+04 0.  0.
        -13    1    3    3    0    0 -0.31527805003E+03  0.43915865183E+03  0.70930594634E+03  0.89183827401E+03  0.10566000000E+00 0.  1.
          4    1    3    3  501    0  0.52186720074E+03  0.25221984972E+03  0.13372915147E+03  0.59484763911E+03  0.00000000000E+00 0.  1.
         13    1    4    4    0    0  0.15951034436E+03 -0.25065006499E+02  0.80153316803E+03  0.81763514793E+03  0.10566000000E+00 0. -1.
         -4    1    4    4    0  502 -0.36609949507E+03 -0.66631349505E+03  0.21317419542E+03  0.78958581014E+03  0.00000000000E+00 0. -1.
<mgrwt>
<rscale>  2 0.12409062E+04</rscale>
<asrwt>0</asrwt>
<pdfrwt beam="1">  1       21 0.38089610E+00 0.12464061E+04</pdfrwt>
<pdfrwt beam="2">  1       21 0.95089571E-01 0.12464061E+04</pdfrwt>
<totfact> 0.31078066E+00</totfact>
</mgrwt>
</event>
<event>
 8    1  0.5815007E-006  0.1350303E+04  0.7818608E-02  0.8505468E-01
         21   -1    0    0  501  502  0.00000000000E+00  0.00000000000E+00  0.15956861536E+04  0.15956861536E+04  0.00000000000E+00 0. -1.
         21   -1    0    0  502  503 -0.00000000000E+00 -0.00000000000E+00 -0.12053234819E+04  0.12053234819E+04  0.00000000000E+00 0.  1.
   -9000010    2    1    2    0  503 -0.62077873195E+03 -0.66633111691E+03  0.56379880228E+03  0.14396134863E+04  0.96190150702E+03 0.  0.
    9000010    2    1    2  501    0  0.62077873195E+03  0.66633111691E+03 -0.17343613057E+03  0.13613961492E+04  0.99697341606E+03 0.  0.
        -13    1    4    4    0    0  0.61556904011E+03  0.46806203313E+03  0.31440333714E+03  0.83477947960E+03  0.10566000000E+00 0.  1.
          4    1    4    4  501    0  0.52096918378E+01  0.19826908378E+03 -0.48783946770E+03  0.52661666962E+03  0.00000000000E+00 0.  1.
         13    1    3    3    0    0 -0.78390898497E+03 -0.68621406574E+03  0.67482504697E+03  0.12412863875E+04  0.10566000000E+00 0. -1.
         -4    1    3    3    0  503  0.16313025302E+03  0.19882948824E+02 -0.11102624469E+03  0.19832709879E+03  0.00000000000E+00 0. -1.
<mgrwt>
<rscale>  2 0.13438362E+04</rscale>
<asrwt>0</asrwt>
<pdfrwt beam="1">  1       21 0.24549018E+00 0.13503034E+04</pdfrwt>
<pdfrwt beam="2">  1       21 0.18543438E+00 0.13503034E+04</pdfrwt>
<totfact> 0.38547050E+00</totfact>
</mgrwt>
</event>
<event>
 8    1  0.5815007E-006  0.1195903E+04  0.7818608E-02  0.8617109E-01
         21   -1    0    0  501  502  0.00000000000E+00  0.00000000000E+00  0.10029366884E+04  0.10029366884E+04  0.00000000000E+00 0. -1.
         21   -1    0    0  502  503 -0.00000000000E+00 -0.00000000000E+00 -0.14815600675E+04  0.14815600675E+04  0.00000000000E+00 0. -1.
   -9000010    2    1    2    0  503  0.14577526079E+03  0.56506068794E+03 -0.56059625987E+03  0.12857875133E+04  0.99921837204E+03 0.  0.
    9000010    2    1    2  501    0 -0.14577526079E+03 -0.56506068794E+03  0.81972880815E+02  0.11987092426E+04  0.10438583656E+04 0.  0.
        -13    1    4    4    0    0  0.33632231791E+03 -0.35380552706E+03  0.35706685390E+03  0.60480393667E+03  0.10566000000E+00 0.  1.
          4    1    4    4  501    0 -0.48209757869E+03 -0.21125516088E+03 -0.27509397308E+03  0.59390530593E+03  0.00000000000E+00 0.  1.
         13    1    3    3    0    0  0.45833200744E+03 -0.53579482828E+02 -0.18229957531E+03  0.49615737055E+03  0.10566000000E+00 0. -1.
         -4    1    3    3    0  503 -0.31255674666E+03  0.61864017076E+03 -0.37829668456E+03  0.78963014273E+03  0.00000000000E+00 0. -1.
<mgrwt>
<rscale>  2 0.11860932E+04</rscale>
<asrwt>0</asrwt>
<pdfrwt beam="1">  1       21 0.15429795E+00 0.11959031E+04</pdfrwt>
<pdfrwt beam="2">  1       21 0.22793232E+00 0.11959031E+04</pdfrwt>
<totfact> 0.98057396E+00</totfact>
</mgrwt>
</event>
<event>
 8    1  0.5815007E-006  0.1062456E+04  0.7818608E-02  0.8721624E-01
         21   -1    0    0  503  502  0.00000000000E+00  0.00000000000E+00  0.10662357037E+04  0.10662357037E+04  0.00000000000E+00 0. -1.
         21   -1    0    0  501  503 -0.00000000000E+00 -0.00000000000E+00 -0.10981362465E+04  0.10981362465E+04  0.00000000000E+00 0. -1.
    9000010    2    1    2  501    0 -0.35896879242E+03  0.15069797660E+03  0.22785224079E+03  0.10706239753E+04  0.97095343796E+03 0.  0.
   -9000010    2    1    2    0  502  0.35896879242E+03 -0.15069797660E+03 -0.25975278365E+03  0.10937479749E+04  0.98855685216E+03 0.  0.
        -13    1    3    3    0    0 -0.62240040076E+03 -0.79294887444E+02 -0.42106848208E+02  0.62884253663E+03  0.10566000000E+00 0.  1.
          4    1    3    3  501    0  0.26343160835E+03  0.22999286404E+03  0.26995908900E+03  0.44178143863E+03  0.00000000000E+00 0.  1.
         13    1    4    4    0    0  0.31365741657E+03 -0.45167793456E+03  0.16233415648E+03  0.57336403887E+03  0.10566000000E+00 0. -1.
         -4    1    4    4    0  502  0.45311375844E+02  0.30097995796E+03 -0.42208694013E+03  0.52038393606E+03  0.00000000000E+00 0. -1.
<mgrwt>
<rscale>  2 0.10583426E+04</rscale>
<asrwt>0</asrwt>
<pdfrwt beam="1">  1       21 0.16403626E+00 0.10624562E+04</pdfrwt>
<pdfrwt beam="2">  1       21 0.16894404E+00 0.10624562E+04</pdfrwt>
<totfact> 0.24200568E+01</totfact>
</mgrwt>
</event>
<event>
 8    1  0.5815007E-006  0.1039525E+04  0.7818608E-02  0.8747637E-01
         21   -1    0    0  503  502  0.00000000000E+00  0.00000000000E+00  0.14025769758E+04  0.14025769758E+04  0.00000000000E+00 0. -1.
         21   -1    0    0  501  503 -0.00000000000E+00 -0.00000000000E+00 -0.75900531654E+03  0.75900531654E+03  0.00000000000E+00 0. -1.
    9000010    2    1    2  501    0  0.29366870008E+03  0.44439600836E+02  0.14707263452E+03  0.10095741167E+04  0.95362117940E+03 0.  0.
   -9000010    2    1    2    0  502 -0.29366870008E+03 -0.44439600836E+02  0.49649902470E+03  0.11520081756E+04  0.99619042937E+03 0.  0.
        -13    1    3    3    0    0 -0.22556962226E+03 -0.56334687587E+02  0.36886808037E+03  0.43602628750E+03  0.10566000000E+00 0.  1.
          4    1    3    3  501    0  0.51923832234E+03  0.10077428842E+03 -0.22179544585E+03  0.57354782922E+03  0.00000000000E+00 0.  1.
         13    1    4    4    0    0  0.13778404803E+03  0.30369880671E+03 -0.89526237350E+02  0.34530040172E+03  0.10566000000E+00 0. -1.
         -4    1    4    4    0  502 -0.43145274811E+03 -0.34813840755E+03  0.58602526205E+03  0.80670777387E+03  0.00000000000E+00 0. -1.
<mgrwt>
<rscale>  2 0.10291915E+04</rscale>
<asrwt>0</asrwt>
<pdfrwt beam="1">  1       21 0.21578107E+00 0.10395247E+04</pdfrwt>
<pdfrwt beam="2">  1       21 0.11677005E+00 0.10395247E+04</pdfrwt>
<totfact> 0.28376286E+01</totfact>
</mgrwt>
</event>
<event>
 8    1  0.5815007E-006  0.1222831E+04  0.7818608E-02  0.8599825E-01
         21   -1    0    0  501  502  0.00000000000E+00  0.00000000000E+00  0.16578770334E+04  0.16578770334E+04  0.00000000000E+00 0. -1.
         21   -1    0    0  502  503 -0.00000000000E+00 -0.00000000000E+00 -0.89829939062E+03  0.89829939062E+03  0.00000000000E+00 0.  1.
   -9000010    2    1    2    0  503  0.11983225964E+03  0.62153293217E+03  0.11548323650E+03  0.11740864227E+04  0.98207921975E+03 0.  0.
    9000010    2    1    2  501    0 -0.11983225964E+03 -0.62153293217E+03  0.64409440625E+03  0.13820900013E+04  0.10462562837E+04 0.  0.
        -13    1    4    4    0    0 -0.58416435458E+03 -0.38916489437E+03  0.33431931287E+03  0.77747457984E+03  0.10566000000E+00 0.  1.
          4    1    4    4  501    0  0.46433209494E+03 -0.23236803780E+03  0.30977509338E+03  0.60461542145E+03  0.00000000000E+00 0.  1.
         13    1    3    3    0    0  0.40296102213E+03  0.43148592151E+03 -0.27871024816E+03  0.65286836301E+03  0.10566000000E+00 0. -1.
         -4    1    3    3    0  503 -0.28312876249E+03  0.19004701065E+03  0.39419348466E+03  0.52121805970E+03  0.00000000000E+00 0. -1.
<mgrwt>
<rscale>  2 0.12089881E+04</rscale>
<asrwt>0</asrwt>
<pdfrwt beam="1">  1       21 0.25505800E+00 0.12228308E+04</pdfrwt>
<pdfrwt beam="2">  1       21 0.13819991E+00 0.12228308E+04</pdfrwt>
<totfact> 0.86218074E+00</totfact>
</mgrwt>
</event>
<event>
 8    1  0.5815007E-006  0.1313370E+04  0.7818608E-02  0.8534791E-01
         21   -1    0    0  501  502  0.00000000000E+00  0.00000000000E+00  0.13698029127E+04  0.13698029127E+04  0.00000000000E+00 0.  1.
         21   -1    0    0  502  503 -0.00000000000E+00 -0.00000000000E+00 -0.12332531619E+04  0.12332531619E+04  0.00000000000E+00 0.  1.
   -9000010    2    1    2    0  503 -0.45563291507E+03  0.68292903487E+03 -0.11357814099E+03  0.12660804631E+04  0.95711353821E+03 0.  0.
    9000010    2    1    2  501    0  0.45563291507E+03 -0.68292903487E+03  0.25012789174E+03  0.13369756115E+04  0.10251567703E+04 0.  0.
        -13    1    4    4    0    0  0.67605326269E+03 -0.39751726970E+03 -0.14983213047E+03  0.79844703781E+03  0.10566000000E+00 0.  1.
          4    1    4    4  501    0 -0.22042034762E+03 -0.28541176516E+03  0.39996002221E+03  0.53852857371E+03  0.00000000000E+00 0.  1.
         13    1    3    3    0    0  0.24900493598E+03  0.39806300237E+03  0.92593002223E+02  0.47857192482E+03  0.10566000000E+00 0. -1.
         -4    1    3    3    0  503 -0.70463785105E+03  0.28486603250E+03 -0.20617114321E+03  0.78750853830E+03  0.00000000000E+00 0. -1.
<mgrwt>
<rscale>  2 0.13000705E+04</rscale>
<asrwt>0</asrwt>
<pdfrwt beam="1">  1       21 0.21073891E+00 0.13133696E+04</pdfrwt>
<pdfrwt beam="2">  1       21 0.18973126E+00 0.13133696E+04</pdfrwt>
<totfact> 0.65256502E+00</totfact>
</mgrwt>
</event>
<event>
 8    1  0.5815007E-006  0.1425471E+04  0.7818608E-02  0.8455343E-01
         21   -1    0    0  503  502  0.00000000000E+00  0.00000000000E+00  0.94655734170E+03  0.94655734170E+03  0.00000000000E+00 0. -1.
         21   -1    0    0  501  503 -0.00000000000E+00 -0.00000000000E+00 -0.22469816457E+04  0.22469816457E+04  0.00000000000E+00 0. -1.
    9000010    2    1    2  501    0  0.94901601748E+03  0.33494129523E+03 -0.10109169301E+04  0.17389659909E+04  0.99460173196E+03 0.  0.
   -9000010    2    1    2    0  502 -0.94901601748E+03 -0.33494129523E+03 -0.28950737390E+03  0.14545729965E+04  0.10095300936E+04 0.  0.
        -13    1    3    3    0    0  0.56269966614E+03  0.60196021507E+03 -0.96222488435E+03  0.12668321728E+04  0.10566000000E+00 0.  1.
          4    1    3    3  501    0  0.38631635134E+03 -0.26701891984E+03 -0.48692045749E+02  0.47213381809E+03  0.00000000000E+00 0.  1.
         13    1    4    4    0    0 -0.54257236634E+03  0.33441480001E+03 -0.69305147255E+02  0.64110938675E+03  0.10566000000E+00 0. -1.
         -4    1    4    4    0  502 -0.40644365114E+03 -0.66935609524E+03 -0.22020222665E+03  0.81346360976E+03  0.00000000000E+00 0. -1.
<mgrwt>
<rscale>  2 0.14228306E+04</rscale>
<asrwt>0</asrwt>
<pdfrwt beam="1">  1       21 0.14562421E+00 0.14254712E+04</pdfrwt>
<pdfrwt beam="2">  1       21 0.34568948E+00 0.14254712E+04</pdfrwt>
<totfact> 0.16107682E+00</totfact>
</mgrwt>
</event>
<event>
 8    1  0.5815007E-006  0.1347955E+04  0.7818608E-02  0.8531898E-01
         21   -1    0    0  501  502  0.00000000000E+00  0.00000000000E+00  0.10991527637E+04  0.10991527637E+04  0.00000000000E+00 0.  1.
         21   -1    0    0  502  503 -0.00000000000E+00 -0.00000000000E+00 -0.15525241067E+04  0.15525241067E+04  0.00000000000E+00 0.  1.
   -9000010    2    1    2    0  503 -0.64719801001E+03  0.10670337014E+03 -0.57152175307E+03  0.14641105682E+04  0.11775957576E+04 0.  0.
    9000010    2    1    2  501    0  0.64719801001E+03 -0.10670337014E+03  0.11815041012E+03  0.11875663022E+04  0.98290555466E+03 0.  0.
        -13    1    4    4    0    0 -0.39506074114E+01  0.20573390319E+03 -0.29183478019E+03  0.35708485870E+03  0.10566000000E+00 0.  1.
          4    1    4    4  501    0  0.65114861742E+03 -0.31243727333E+03  0.40998519031E+03  0.83048144351E+03  0.00000000000E+00 0.  1.
         13    1    3    3    0    0 -0.46633655125E+01 -0.44064490848E+03  0.71590691724E+01  0.44072774564E+03  0.10566000000E+00 0. -1.
         -4    1    3    3    0  503 -0.64253464450E+03  0.54734827861E+03 -0.57868082224E+03  0.10233828226E+04  0.00000000000E+00 0. -1.
<mgrwt>
<rscale>  2 0.13043105E+04</rscale>
<asrwt>0</asrwt>
<pdfrwt beam="1">  1       21 0.16910043E+00 0.13479550E+04</pdfrwt>
<pdfrwt beam="2">  1       21 0.23884986E+00 0.13479550E+04</pdfrwt>
<totfact> 0.58877637E+00</totfact>
</mgrwt>
</event>
<event>
 8    1  0.5815007E-006  0.1225112E+04  0.7818608E-02  0.8594711E-01
         21   -1    0    0  503  502  0.00000000000E+00  0.00000000000E+00  0.13651362873E+04  0.13651362873E+04  0.00000000000E+00 0.  1.
         21   -1    0    0  501  503 -0.00000000000E+00 -0.00000000000E+00 -0.12390023320E+04  0.12390023320E+04  0.00000000000E+00 0.  1.
    9000010    2    1    2  501    0  0.19483418319E+03 -0.60098664626E+03 -0.42302845151E+03  0.12615743982E+04  0.10067132578E+04 0.  0.
   -9000010    2    1    2    0  502 -0.19483418319E+03  0.60098664626E+03  0.54916240678E+03  0.13425642212E+04  0.10496447166E+04 0.  0.
        -13    1    3    3    0    0 -0.32400275856E+03 -0.23211956910E+03  0.12904166513E+03  0.41893799591E+03  0.10566000000E+00 0.  1.
          4    1    3    3  501    0  0.51883694174E+03 -0.36886707716E+03 -0.55207011664E+03  0.84263640226E+03  0.00000000000E+00 0.  1.
         13    1    4    4    0    0  0.36900443742E+03  0.33386422536E+03 -0.20025762320E+02  0.49802674440E+03  0.10566000000E+00 0. -1.
         -4    1    4    4    0  502 -0.56383862061E+03  0.26712242089E+03  0.56918816910E+03  0.84453747678E+03  0.00000000000E+00 0. -1.
<mgrwt>
<rscale>  2 0.12158637E+04</rscale>
<asrwt>0</asrwt>
<pdfrwt beam="1">  1       21 0.21002097E+00 0.12251120E+04</pdfrwt>
<pdfrwt beam="2">  1       21 0.19061574E+00 0.12251120E+04</pdfrwt>
<totfact> 0.66170764E+00</totfact>
</mgrwt>
</event>
<event>
 8    1  0.5815007E-006  0.1148197E+04  0.7818608E-02  0.8654361E-01
         21   -1    0    0  501  502  0.00000000000E+00  0.00000000000E+00  0.14071638604E+04  0.14071638604E+04  0.00000000000E+00 0. -1.
         21   -1    0    0  502  503 -0.00000000000E+00 -0.00000000000E+00 -0.92678260275E+03  0.92678260275E+03  0.00000000000E+00 0. -1.
   -9000010    2    1    2    0  503  0.11148467447E+03 -0.53814314549E+03  0.61203634323E+02  0.11116260102E+04  0.96433377211E+03 0.  0.
    9000010    2    1    2  501    0 -0.11148467447E+03  0.53814314549E+03  0.41917762336E+03  0.12223204530E+04  0.10081321997E+04 0.  0.
        -13    1    4    4    0    0 -0.39751113714E+03 -0.82497842962E+02  0.34895816318E+03  0.53534363642E+03  0.10566000000E+00 0.  1.
          4    1    4    4  501    0  0.28602646267E+03  0.62064098846E+03  0.70219460185E+02  0.68697681656E+03  0.00000000000E+00 0.  1.
         13    1    3    3    0    0 -0.27053613851E+03 -0.57108758427E+03 -0.18193842149E+03  0.65759594853E+03  0.10566000000E+00 0. -1.
         -4    1    3    3    0  503  0.38202081298E+03  0.32944438773E+02  0.24314205582E+03  0.45403006167E+03  0.00000000000E+00 0. -1.
<mgrwt>
<rscale>  2 0.11385112E+04</rscale>
<asrwt>0</asrwt>
<pdfrwt beam="1">  1       21 0.21648675E+00 0.11481975E+04</pdfrwt>
<pdfrwt beam="2">  1       21 0.14258194E+00 0.11481975E+04</pdfrwt>
<totfact> 0.15390344E+01</totfact>
</mgrwt>
</event>
<event>
 8    1  0.5815007E-006  0.1024669E+04  0.7818608E-02  0.8755942E-01
         21   -1    0    0  503  502  0.00000000000E+00  0.00000000000E+00  0.10032089454E+04  0.10032089454E+04  0.00000000000E+00 0. -1.
         21   -1    0    0  501  503 -0.00000000000E+00 -0.00000000000E+00 -0.10421525611E+04  0.10421525611E+04  0.00000000000E+00 0. -1.
    9000010    2    1    2  501    0  0.52432887830E+02 -0.19463829796E+03  0.99513645432E+02  0.10113806719E+04  0.98608043441E+03 0.  0.
   -9000010    2    1    2    0  502 -0.52432887830E+02  0.19463829796E+03 -0.13845726117E+03  0.10339808346E+04  0.10046455486E+04 0.  0.
        -13    1    3    3    0    0 -0.35160507524E+03 -0.37017153535E+03  0.21810187928E+03  0.55517703071E+03  0.10566000000E+00 0.  1.
          4    1    3    3  501    0  0.40403796307E+03  0.17553323739E+03 -0.11858823385E+03  0.45620364120E+03  0.00000000000E+00 0.  1.
         13    1    4    4    0    0  0.13279612437E+03  0.50621320425E+02  0.41188323319E+03  0.43571221888E+03  0.10566000000E+00 0. -1.
         -4    1    4    4    0  502 -0.18522901220E+03  0.14401697754E+03 -0.55034049436E+03  0.59826861569E+03  0.00000000000E+00 0. -1.
<mgrwt>
<rscale>  2 0.10200892E+04</rscale>
<asrwt>0</asrwt>
<pdfrwt beam="1">  1       21 0.15433984E+00 0.10246687E+04</pdfrwt>
<pdfrwt beam="2">  1       21 0.16033116E+00 0.10246687E+04</pdfrwt>
<totfact> 0.35051446E+01</totfact>
</mgrwt>
</event>
<event>
 8    1  0.5815007E-006  0.1506719E+04  0.7818608E-02  0.8405847E-01
         21   -1    0    0  503  502  0.00000000000E+00  0.00000000000E+00  0.21990319601E+04  0.21990319601E+04  0.00000000000E+00 0.  1.
         21   -1    0    0  501  503 -0.00000000000E+00 -0.00000000000E+00 -0.14217505671E+04  0.14217505671E+04  0.00000000000E+00 0. -1.
    9000010    2    1    2  501    0 -0.11277381192E+04 -0.57115239702E+02 -0.55985586384E+03  0.16073711449E+04  0.99757104658E+03 0.  0.
   -9000010    2    1    2    0  502  0.11277381192E+04  0.57115239702E+02  0.13371372569E+04  0.20134113823E+04  0.99540641689E+03 0.  0.
        -13    1    3    3    0    0  0.15428295955E+03  0.10450832947E+03 -0.18345314016E+03  0.26149624918E+03  0.10566000000E+00 0.  1.
          4    1    3    3  501    0 -0.12820210787E+04 -0.16162356917E+03 -0.37640272367E+03  0.13458748957E+04  0.00000000000E+00 0.  1.
         13    1    4    4    0    0  0.20320183955E+03 -0.40126218095E+03  0.25038717514E+03  0.51477769386E+03  0.10566000000E+00 0. -1.
         -4    1    4    4    0  502  0.92453627963E+03  0.45837742065E+03  0.10867500817E+04  0.14986336885E+04  0.00000000000E+00 0. -1.
<mgrwt>
<rscale>  2 0.15063612E+04</rscale>
<asrwt>0</asrwt>
<pdfrwt beam="1">  1       21 0.33831261E+00 0.15067194E+04</pdfrwt>
<pdfrwt beam="2">  1       21 0.21873086E+00 0.15067194E+04</pdfrwt>
<totfact> 0.44766640E-01</totfact>
</mgrwt>
</event>
<event>
 8    1  0.5815007E-006  0.1109034E+04  0.7818608E-02  0.8679996E-01
         21   -1    0    0  501  502  0.00000000000E+00  0.00000000000E+00  0.82737656936E+03  0.82737656936E+03  0.00000000000E+00 0. -1.
         21   -1    0    0  502  503 -0.00000000000E+00 -0.00000000000E+00 -0.15270532651E+04  0.15270532651E+04  0.00000000000E+00 0. -1.
   -9000010    2    1    2    0  503  0.27809712995E+03 -0.38921179588E+03 -0.56558351404E+03  0.12449265279E+04  0.10005665958E+04 0.  0.
    9000010    2    1    2  501    0 -0.27809712995E+03  0.38921179588E+03 -0.13409318166E+03  0.11095033066E+04  0.99206490219E+03 0.  0.
        -13    1    4    4    0    0 -0.96767840542E+02 -0.11029580107E+03 -0.46222620144E+03  0.48495592703E+03  0.10566000000E+00 0.  1.
          4    1    4    4  501    0 -0.18132928941E+03  0.49950759694E+03  0.32813301978E+03  0.62454737953E+03  0.00000000000E+00 0.  1.
         13    1    3    3    0    0  0.49445053097E+03 -0.28016742369E+03 -0.74960653130E+03  0.94068330260E+03  0.10566000000E+00 0. -1.
         -4    1    3    3    0  503 -0.21635340101E+03 -0.10904437219E+03  0.18402301726E+03  0.30424322526E+03  0.00000000000E+00 0. -1.
<mgrwt>
<rscale>  2 0.11071134E+04</rscale>
<asrwt>0</asrwt>
<pdfrwt beam="1">  1       21 0.12728870E+00 0.11090344E+04</pdfrwt>
<pdfrwt beam="2">  1       21 0.23493127E+00 0.11090344E+04</pdfrwt>
<totfact> 0.15757837E+01</totfact>
</mgrwt>
</event>
<event>
 8    1  0.5815007E-006  0.1043641E+04  0.7818608E-02  0.8741947E-01
         21   -1    0    0  503  502  0.00000000000E+00  0.00000000000E+00  0.10808016912E+04  0.10808016912E+04  0.00000000000E+00 0.  1.
         21   -1    0    0  501  503 -0.00000000000E+00 -0.00000000000E+00 -0.97695410008E+03  0.97695410008E+03  0.00000000000E+00 0.  1.
    9000010    2    1    2  501    0 -0.14653639140E+02  0.32397041041E+03  0.42613594411E+02  0.10445109333E+04  0.99197561231E+03 0.  0.
   -9000010    2    1    2    0  502  0.14653639140E+02 -0.32397041041E+03  0.61233996728E+02  0.10132448580E+04  0.95798955314E+03 0.  0.
        -13    1    3    3    0    0 -0.49714620877E+03  0.94295760415E+02 -0.20521172850E+02  0.50642588108E+03  0.10566000000E+00 0.  1.
          4    1    3    3  501    0  0.48249256963E+03  0.22967464999E+03  0.63134767261E+02  0.53808505223E+03  0.00000000000E+00 0.  1.
         13    1    4    4    0    0  0.16587393843E+03  0.33870569792E+02 -0.38561216698E+03  0.42113909037E+03  0.10566000000E+00 0. -1.
         -4    1    4    4    0  502 -0.15122029929E+03 -0.35784098020E+03  0.44684616371E+03  0.59210576762E+03  0.00000000000E+00 0. -1.
<mgrwt>
<rscale>  2 0.10354841E+04</rscale>
<asrwt>0</asrwt>
<pdfrwt beam="1">  1       21 0.16627718E+00 0.10436413E+04</pdfrwt>
<pdfrwt beam="2">  1       21 0.15030063E+00 0.10436413E+04</pdfrwt>
<totfact> 0.33711847E+01</totfact>
</mgrwt>
</event>
<event>
 8    1  0.5815007E-006  0.1066659E+04  0.7818608E-02  0.8717211E-01
         21   -1    0    0  503  502  0.00000000000E+00  0.00000000000E+00  0.29261599481E+03  0.29261599481E+03  0.00000000000E+00 0.  1.
         21   -1    0    0  501  503 -0.00000000000E+00 -0.00000000000E+00 -0.41254579077E+04  0.41254579077E+04  0.00000000000E+00 0.  1.
    9000010    2    1    2  501    0  0.19397061048E+03 -0.29092472396E+03 -0.24856191999E+04  0.26997108954E+04  0.99391866829E+03 0.  0.
   -9000010    2    1    2    0  502 -0.19397061048E+03  0.29092472396E+03 -0.13472227130E+04  0.17183630071E+04  0.10077204935E+04 0.  0.
        -13    1    3    3    0    0  0.46628497656E+03  0.13855342757E+03 -0.16622200560E+04  0.17319336758E+04  0.10566000000E+00 0.  1.
          4    1    3    3  501    0 -0.27231436608E+03 -0.42947815153E+03 -0.82339914390E+03  0.96777721961E+03  0.00000000000E+00 0.  1.
         13    1    4    4    0    0  0.10028686351E+03  0.41347393143E+03 -0.10821416394E+03  0.43900850038E+03  0.10566000000E+00 0. -1.
         -4    1    4    4    0  502 -0.29425747398E+03 -0.12254920748E+03 -0.12390085490E+04  0.12793545067E+04  0.00000000000E+00 0. -1.
<mgrwt>
<rscale>  2 0.10633871E+04</rscale>
<asrwt>0</asrwt>
<pdfrwt beam="1">  1       21 0.45017848E-01 0.10666595E+04</pdfrwt>
<pdfrwt beam="2">  1       21 0.63468580E+00 0.10666595E+04</pdfrwt>
<totfact> 0.27775548E-01</totfact>
</mgrwt>
</event>
<event>
 8    1  0.5815007E-006  0.1248297E+04  0.7818608E-02  0.8572696E-01
         21   -1    0    0  501  502  0.00000000000E+00  0.00000000000E+00  0.19395822156E+04  0.19395822156E+04  0.00000000000E+00 0.  1.
         21   -1    0    0  502  503 -0.00000000000E+00 -0.00000000000E+00 -0.10372577458E+04  0.10372577458E+04  0.00000000000E+00 0.  1.
   -9000010    2    1    2    0  503 -0.80096885272E+03  0.20930649301E+03 -0.26310250715E+03  0.12757223682E+04  0.93428278399E+03 0.  0.
    9000010    2    1    2  501    0  0.80096885272E+03 -0.20930649301E+03  0.11654269770E+04  0.17011175932E+04  0.92207413800E+03 0.  0.
        -13    1    4    4    0    0  0.81190126689E+03 -0.31852262486E+03  0.45774188879E+03  0.98497105422E+03  0.10566000000E+00 0.  1.
          4    1    4    4  501    0 -0.10932414170E+02  0.10921613185E+03  0.70768508825E+03  0.71614653896E+03  0.00000000000E+00 0.  1.
         13    1    3    3    0    0 -0.82403576663E+03  0.22101770087E+03  0.14620523951E+03  0.86559791590E+03  0.10566000000E+00 0. -1.
         -4    1    3    3    0  503  0.23066913907E+02 -0.11711207870E+02 -0.40930774667E+03  0.41012445232E+03  0.00000000000E+00 0. -1.
<mgrwt>
<rscale>  2 0.12460127E+04</rscale>
<asrwt>0</asrwt>
<pdfrwt beam="1">  1       21 0.29839726E+00 0.12482967E+04</pdfrwt>
<pdfrwt beam="2">  1       21 0.15957811E+00 0.12482967E+04</pdfrwt>
<totfact> 0.26978947E+00</totfact>
</mgrwt>
</event>
<event>
 8    1  0.5815007E-006  0.1124270E+04  0.7818608E-02  0.8679849E-01
         21   -1    0    0  501  502  0.00000000000E+00  0.00000000000E+00  0.61183455933E+03  0.61183455933E+03  0.00000000000E+00 0. -1.
         21   -1    0    0  502  503 -0.00000000000E+00 -0.00000000000E+00 -0.19568220267E+04  0.19568220267E+04  0.00000000000E+00 0. -1.
   -9000010    2    1    2    0  503  0.45778829535E+03 -0.27296499970E+03 -0.59598570275E+03  0.12724710443E+04  0.98990079624E+03 0.  0.
    9000010    2    1    2  501    0 -0.45778829535E+03  0.27296499970E+03 -0.74900176458E+03  0.12961855416E+04  0.91379062185E+03 0.  0.
        -13    1    4    4    0    0 -0.42937240359E+03 -0.27284626747E+03 -0.31583248730E+03  0.59879538896E+03  0.10566000000E+00 0.  1.
          4    1    4    4  501    0 -0.28415891761E+02  0.54581126717E+03 -0.43316927728E+03  0.69739015268E+03  0.00000000000E+00 0.  1.
         13    1    3    3    0    0  0.25099160842E+03 -0.22574672604E+03  0.23728278887E+03  0.41262756194E+03  0.10566000000E+00 0. -1.
         -4    1    3    3    0  503  0.20679668693E+03 -0.47218273661E+02 -0.83326849163E+03  0.85984348240E+03  0.00000000000E+00 0. -1.
<mgrwt>
<rscale>  2 0.11072899E+04</rscale>
<asrwt>0</asrwt>
<pdfrwt beam="1">  1       21 0.94128395E-01 0.11242703E+04</pdfrwt>
<pdfrwt beam="2">  1       21 0.30104954E+00 0.11242703E+04</pdfrwt>
<totfact> 0.11894081E+01</totfact>
</mgrwt>
</event>
<event>
 8    1  0.5815007E-006  0.1011340E+04  0.7818608E-02  0.8770643E-01
         21   -1    0    0  503  502  0.00000000000E+00  0.00000000000E+00  0.11668063739E+04  0.11668063739E+04  0.00000000000E+00 0. -1.
         21   -1    0    0  501  503 -0.00000000000E+00 -0.00000000000E+00 -0.85714053719E+03  0.85714053719E+03  0.00000000000E+00 0. -1.
    9000010    2    1    2  501    0 -0.19356328869E+02  0.13170458238E+03  0.22860914024E+03  0.10093642773E+04  0.97408076711E+03 0.  0.
   -9000010    2    1    2    0  502  0.19356328869E+02 -0.13170458238E+03  0.81056696462E+02  0.10145826338E+04  0.10025402576E+04 0.  0.
        -13    1    3    3    0    0 -0.11269402772E+03  0.35759295384E+03  0.51234197199E+03  0.63487555626E+03  0.10566000000E+00 0.  1.
          4    1    3    3  501    0  0.93337698852E+02 -0.22588837146E+03 -0.28373283175E+03  0.37448872106E+03  0.00000000000E+00 0.  1.
         13    1    4    4    0    0  0.37183428407E+03  0.38170887257E+02 -0.29172458672E+03  0.47415292586E+03  0.10566000000E+00 0. -1.
         -4    1    4    4    0  502 -0.35247795520E+03 -0.16987546964E+03  0.37278128318E+03  0.54042970790E+03  0.00000000000E+00 0. -1.
<mgrwt>
<rscale>  2 0.10042134E+04</rscale>
<asrwt>0</asrwt>
<pdfrwt beam="1">  1       21 0.17950867E+00 0.10113396E+04</pdfrwt>
<pdfrwt beam="2">  1       21 0.13186777E+00 0.10113396E+04</pdfrwt>
<totfact> 0.38981843E+01</totfact>
</mgrwt>
</event>
<event>
 8    1  0.5815007E-006  0.1048469E+04  0.7818608E-02  0.8739549E-01
         21   -1    0    0  503  502  0.00000000000E+00  0.00000000000E+00  0.10783583161E+04  0.10783583161E+04  0.00000000000E+00 0. -1.
         21   -1    0    0  501  503 -0.00000000000E+00 -0.00000000000E+00 -0.10256168335E+04  0.10256168335E+04  0.00000000000E+00 0. -1.
    9000010    2    1    2  501    0  0.23751769112E+03  0.18805371581E+03 -0.19434515772E+03  0.10663288524E+04  0.10037471432E+04 0.  0.
   -9000010    2    1    2    0  502 -0.23751769112E+03 -0.18805371581E+03  0.24708664027E+03  0.10376462972E+04  0.96118633816E+03 0.  0.
        -13    1    3    3    0    0  0.21162458085E+03 -0.43641271435E+02 -0.57818073868E+03  0.61723779983E+03  0.10566000000E+00 0.  1.
          4    1    3    3  501    0  0.25893110265E+02  0.23169498724E+03  0.38383558096E+03  0.44909105255E+03  0.00000000000E+00 0.  1.
         13    1    4    4    0    0  0.30936749333E+03  0.16372485739E+03  0.26609430405E+02  0.35103012379E+03  0.10566000000E+00 0. -1.
         -4    1    4    4    0  502 -0.54688518445E+03 -0.35177857319E+03  0.22047720987E+03  0.68661617341E+03  0.00000000000E+00 0. -1.
<mgrwt>
<rscale>  2 0.10381500E+04</rscale>
<asrwt>0</asrwt>
<pdfrwt beam="1">  1       21 0.16590128E+00 0.10484690E+04</pdfrwt>
<pdfrwt beam="2">  1       21 0.15778720E+00 0.10484690E+04</pdfrwt>
<totfact> 0.29152547E+01</totfact>
</mgrwt>
</event>
<event>
 8    1  0.5815007E-006  0.1596468E+04  0.7818608E-02  0.8356529E-01
         21   -1    0    0  501  502  0.00000000000E+00  0.00000000000E+00  0.13367729690E+04  0.13367729690E+04  0.00000000000E+00 0. -1.
         21   -1    0    0  502  503 -0.00000000000E+00 -0.00000000000E+00 -0.20191736851E+04  0.20191736851E+04  0.00000000000E+00 0.  1.
   -9000010    2    1    2    0  503 -0.29474021463E+03  0.12077711576E+04  0.62116329325E+02  0.15976761958E+04  0.10015626915E+04 0.  0.
    9000010    2    1    2  501    0  0.29474021463E+03 -0.12077711576E+04 -0.74451704539E+03  0.17582704582E+04  0.99580440353E+03 0.  0.
        -13    1    4    4    0    0 -0.69177604856E+02 -0.81823753008E+03 -0.88470899325E+03  0.12070659512E+04  0.10566000000E+00 0.  1.
          4    1    4    4  501    0  0.36391781948E+03 -0.38953362755E+03  0.14019194785E+03  0.55120450703E+03  0.00000000000E+00 0.  1.
         13    1    3    3    0    0 -0.20222824310E+03  0.73168400736E+03 -0.45795562381E+03  0.88655575880E+03  0.10566000000E+00 0. -1.
         -4    1    3    3    0  503 -0.92511971530E+02  0.47608715028E+03  0.52007195313E+03  0.71112043703E+03  0.00000000000E+00 0. -1.
<mgrwt>
<rscale>  2 0.15955659E+04</rscale>
<asrwt>0</asrwt>
<pdfrwt beam="1">  1       21 0.20565738E+00 0.15964682E+04</pdfrwt>
<pdfrwt beam="2">  1       21 0.31064210E+00 0.15964682E+04</pdfrwt>
<totfact> 0.86945738E-01</totfact>
</mgrwt>
</event>
<event>
 8    1  0.5815007E-006  0.1097778E+04  0.7818608E-02  0.8687822E-01
         21   -1    0    0  501  502  0.00000000000E+00  0.00000000000E+00  0.50105496270E+03  0.50105496270E+03  0.00000000000E+00 0. -1.
         21   -1    0    0  502  503 -0.00000000000E+00 -0.00000000000E+00 -0.27589278912E+04  0.27589278912E+04  0.00000000000E+00 0. -1.
   -9000010    2    1    2    0  503 -0.17860919895E+03 -0.40811090720E+03 -0.54504212952E+03  0.12256374714E+04  0.10033247380E+04 0.  0.
    9000010    2    1    2  501    0  0.17860919895E+03  0.40811090720E+03 -0.17128307990E+04  0.20343453825E+04  0.10031530446E+04 0.  0.
        -13    1    4    4    0    0 -0.47974619430E+02 -0.16996902991E+03  0.34525665628E+02  0.17995296049E+03  0.10566000000E+00 0.  1.
          4    1    4    4  501    0  0.22658381838E+03  0.57807993712E+03 -0.17473564646E+04  0.18543924220E+04  0.00000000000E+00 0.  1.
         13    1    3    3    0    0 -0.11535514255E+03  0.13414579367E+03 -0.64657378782E+03  0.67034288027E+03  0.10566000000E+00 0. -1.
         -4    1    3    3    0  503 -0.63254056403E+02 -0.54225670087E+03  0.10153165830E+03  0.55529459112E+03  0.00000000000E+00 0. -1.
<mgrwt>
<rscale>  2 0.10977387E+04</rscale>
<asrwt>0</asrwt>
<pdfrwt beam="1">  1       21 0.77085380E-01 0.10977779E+04</pdfrwt>
<pdfrwt beam="2">  1       21 0.42445044E+00 0.10977779E+04</pdfrwt>
<totfact> 0.27057216E+00</totfact>
</mgrwt>
</event>
<event>
 8    1  0.5815007E-006  0.1016657E+04  0.7818608E-02  0.8761164E-01
         21   -1    0    0  503  502  0.00000000000E+00  0.00000000000E+00  0.55409324209E+03  0.55409324209E+03  0.00000000000E+00 0.  1.
         21   -1    0    0  501  503 -0.00000000000E+00 -0.00000000000E+00 -0.18850049313E+04  0.18850049313E+04  0.00000000000E+00 0.  1.
    9000010    2    1    2  501    0 -0.92302425768E+02 -0.14781354705E+03 -0.83108990648E+03  0.13062197089E+04  0.99253761276E+03 0.  0.
   -9000010    2    1    2    0  502  0.92302425768E+02  0.14781354705E+03 -0.49982178275E+03  0.11328784645E+04  0.10016103126E+04 0.  0.
        -13    1    3    3    0    0  0.24807550120E+03  0.92236711410E+02  0.10258605799E+03  0.28385379280E+03  0.10566000000E+00 0.  1.
          4    1    3    3  501    0 -0.34037792697E+03 -0.24005025846E+03 -0.93367596447E+03  0.10223659161E+04  0.00000000000E+00 0.  1.
         13    1    4    4    0    0 -0.26507101058E+03  0.59927489968E+02 -0.67325782489E+03  0.72603722676E+03  0.10566000000E+00 0. -1.
         -4    1    4    4    0  502  0.35737343635E+03  0.87886057082E+02  0.17343604214E+03  0.40684123777E+03  0.00000000000E+00 0. -1.
<mgrwt>
<rscale>  2 0.10144155E+04</rscale>
<asrwt>0</asrwt>
<pdfrwt beam="1">  1       21 0.85245113E-01 0.10166572E+04</pdfrwt>
<pdfrwt beam="2">  1       21 0.29000076E+00 0.10166572E+04</pdfrwt>
<totfact> 0.18788844E+01</totfact>
</mgrwt>
</event>
<event>
 8    1  0.5815007E-006  0.1126884E+04  0.7818608E-02  0.8665492E-01
         21   -1    0    0  501  502  0.00000000000E+00  0.00000000000E+00  0.96468332025E+03  0.96468332025E+03  0.00000000000E+00 0.  1.
         21   -1    0    0  502  503 -0.00000000000E+00 -0.00000000000E+00 -0.13080376333E+04  0.13080376333E+04  0.00000000000E+00 0.  1.
   -9000010    2    1    2    0  503 -0.51844060548E+03  0.72718750759E+02 -0.21100484198E+03  0.11380914108E+04  0.98826127009E+03 0.  0.
    9000010    2    1    2  501    0  0.51844060548E+03 -0.72718750759E+02 -0.13234947111E+03  0.11346295427E+04  0.99789735877E+03 0.  0.
        -13    1    4    4    0    0  0.31217091420E+03 -0.50679966966E+03  0.95356742540E+02  0.60281796950E+03  0.10566000000E+00 0.  1.
          4    1    4    4  501    0  0.20626969128E+03  0.43408091891E+03 -0.22770621365E+03  0.53181157324E+03  0.00000000000E+00 0.  1.
         13    1    3    3    0    0 -0.66560380701E+03  0.76080117591E+02 -0.48499326614E+03  0.82706413993E+03  0.10566000000E+00 0. -1.
         -4    1    3    3    0  503  0.14716320153E+03 -0.33613668320E+01  0.27398842416E+03  0.31102727091E+03  0.00000000000E+00 0. -1.
<mgrwt>
<rscale>  2 0.11247470E+04</rscale>
<asrwt>0</asrwt>
<pdfrwt beam="1">  1       21 0.14841282E+00 0.11268841E+04</pdfrwt>
<pdfrwt beam="2">  1       21 0.20123656E+00 0.11268841E+04</pdfrwt>
<totfact> 0.17925868E+01</totfact>
</mgrwt>
</event>
<event>
 8    1  0.5815007E-006  0.1069969E+04  0.7818608E-02  0.8720009E-01
         21   -1    0    0  503  502  0.00000000000E+00  0.00000000000E+00  0.13724113510E+04  0.13724113510E+04  0.00000000000E+00 0.  1.
         21   -1    0    0  501  503 -0.00000000000E+00 -0.00000000000E+00 -0.10258617433E+04  0.10258617433E+04  0.00000000000E+00 0.  1.
    9000010    2    1    2  501    0 -0.37246931820E+03 -0.13100594129E+03  0.73291026017E+03  0.12969163564E+04  0.99445393874E+03 0.  0.
   -9000010    2    1    2    0  502  0.37246931820E+03  0.13100594129E+03 -0.38636065253E+03  0.11013567380E+04  0.95279387109E+03 0.  0.
        -13    1    3    3    0    0 -0.30627020828E+03  0.41256747322E+03  0.27317411579E+03  0.58192565602E+03  0.10566000000E+00 0.  1.
          4    1    3    3  501    0 -0.66199109917E+02 -0.54357341451E+03  0.45973614438E+03  0.71499070034E+03  0.00000000000E+00 0.  1.
         13    1    4    4    0    0  0.66615475681E+03  0.15724750297E+03 -0.10254767774E+03  0.69210185276E+03  0.10566000000E+00 0. -1.
         -4    1    4    4    0  502 -0.29368543861E+03 -0.26241561682E+02 -0.28381297479E+03  0.40925488521E+03  0.00000000000E+00 0. -1.
<mgrwt>
<rscale>  2 0.10601847E+04</rscale>
<asrwt>0</asrwt>
<pdfrwt beam="1">  1       21 0.21114021E+00 0.10699694E+04</pdfrwt>
<pdfrwt beam="2">  1       21 0.15782488E+00 0.10699694E+04</pdfrwt>
<totfact> 0.12570174E+01</totfact>
</mgrwt>
</event>
<event>
 8    1  0.5815007E-006  0.1133917E+04  0.7818608E-02  0.8660734E-01
         21   -1    0    0  503  502  0.00000000000E+00  0.00000000000E+00  0.16647975970E+04  0.16647975970E+04  0.00000000000E+00 0.  1.
         21   -1    0    0  501  503 -0.00000000000E+00 -0.00000000000E+00 -0.78189000842E+03  0.78189000842E+03  0.00000000000E+00 0.  1.
    9000010    2    1    2  501    0  0.71408092205E+02 -0.51155121812E+03  0.63224256854E+03  0.12982675865E+04  0.10094475203E+04 0.  0.
   -9000010    2    1    2    0  502 -0.71408092205E+02  0.51155121812E+03  0.25066502003E+03  0.11484200189E+04  0.99461139302E+03 0.  0.
        -13    1    3    3    0    0 -0.31842381780E+03 -0.39890098701E+03  0.72052778302E+03  0.88299265141E+03  0.10566000000E+00 0.  1.
          4    1    3    3  501    0  0.38983191001E+03 -0.11265023112E+03 -0.88285214481E+02  0.41527493510E+03  0.00000000000E+00 0.  1.
         13    1    4    4    0    0 -0.52177601407E+03  0.37872210017E+03  0.84053581783E+02  0.65018893699E+03  0.10566000000E+00 0. -1.
         -4    1    4    4    0  502  0.45036792186E+03  0.13282911796E+03  0.16661143825E+03  0.49823108190E+03  0.00000000000E+00 0. -1.
<mgrwt>
<rscale>  2 0.11306059E+04</rscale>
<asrwt>0</asrwt>
<pdfrwt beam="1">  1       21 0.25612271E+00 0.11339171E+04</pdfrwt>
<pdfrwt beam="2">  1       21 0.12029077E+00 0.11339171E+04</pdfrwt>
<totfact> 0.12879552E+01</totfact>
</mgrwt>
</event>
<event>
 8    1  0.5815007E-006  0.1100195E+04  0.7818608E-02  0.8690056E-01
         21   -1    0    0  503  502  0.00000000000E+00  0.00000000000E+00  0.79499038933E+03  0.79499038933E+03  0.00000000000E+00 0.  1.
         21   -1    0    0  501  503 -0.00000000000E+00 -0.00000000000E+00 -0.15180693490E+04  0.15180693490E+04  0.00000000000E+00 0.  1.
    9000010    2    1    2  501    0  0.19174976748E+02 -0.40458870207E+03 -0.50206223993E+03  0.11908846814E+04  0.10010395267E+04 0.  0.
   -9000010    2    1    2    0  502 -0.19174976748E+02  0.40458870207E+03 -0.22101671974E+03  0.11221750570E+04  0.10229216835E+04 0.  0.
        -13    1    3    3    0    0  0.21262338781E+03 -0.41924610323E+03 -0.74443455159E+03  0.88043103812E+03  0.10566000000E+00 0.  1.
          4    1    3    3  501    0 -0.19344841106E+03  0.14657401155E+02  0.24237231166E+03  0.31045364325E+03  0.00000000000E+00 0.  1.
         13    1    4    4    0    0 -0.10213146724E+03 -0.26785529570E+03 -0.32868490746E+03  0.43613194746E+03  0.10566000000E+00 0. -1.
         -4    1    4    4    0  502  0.82956490488E+02  0.67244399777E+03  0.10766818772E+03  0.68604310951E+03  0.00000000000E+00 0. -1.
<mgrwt>
<rscale>  2 0.10950804E+04</rscale>
<asrwt>0</asrwt>
<pdfrwt beam="1">  1       21 0.12230621E+00 0.11001947E+04</pdfrwt>
<pdfrwt beam="2">  1       21 0.23354913E+00 0.11001947E+04</pdfrwt>
<totfact> 0.18111129E+01</totfact>
</mgrwt>
</event>
<event>
 8    1  0.5815007E-006  0.1077920E+04  0.7818608E-02  0.8707297E-01
         21   -1    0    0  501  502  0.00000000000E+00  0.00000000000E+00  0.16772285218E+04  0.16772285218E+04  0.00000000000E+00 0. -1.
         21   -1    0    0  502  503 -0.00000000000E+00 -0.00000000000E+00 -0.68669679097E+03  0.68669679097E+03  0.00000000000E+00 0. -1.
   -9000010    2    1    2    0  503 -0.28023486647E+03 -0.27641068349E+03  0.43130466760E+03  0.11495747515E+04  0.99023428879E+03 0.  0.
    9000010    2    1    2  501    0  0.28023486647E+03  0.27641068349E+03  0.55922706326E+03  0.12143505613E+04  0.10034829002E+04 0.  0.
        -13    1    4    4    0    0  0.59106468235E+02 -0.11850466246E+03 -0.25241234611E+03  0.28504198506E+03  0.10566000000E+00 0.  1.
          4    1    4    4  501    0  0.22112839823E+03  0.39491534596E+03  0.81163940937E+03  0.92930857621E+03  0.00000000000E+00 0.  1.
         13    1    3    3    0    0 -0.57035383439E+03 -0.44276377894E+03  0.22349360284E+03  0.75583904505E+03  0.10566000000E+00 0. -1.
         -4    1    3    3    0  503  0.29011896792E+03  0.16635309545E+03  0.20781106476E+03  0.39373570647E+03  0.00000000000E+00 0. -1.
<mgrwt>
<rscale>  2 0.10748264E+04</rscale>
<asrwt>0</asrwt>
<pdfrwt beam="1">  1       21 0.25803516E+00 0.10779204E+04</pdfrwt>
<pdfrwt beam="2">  1       21 0.10564566E+00 0.10779204E+04</pdfrwt>
<totfact> 0.18010359E+01</totfact>
</mgrwt>
</event>
<event>
 8    1  0.5815007E-006  0.1081984E+04  0.7818608E-02  0.8701487E-01
         21   -1    0    0  501  502  0.00000000000E+00  0.00000000000E+00  0.36921800154E+04  0.36921800154E+04  0.00000000000E+00 0. -1.
         21   -1    0    0  502  503 -0.00000000000E+00 -0.00000000000E+00 -0.46978913464E+03  0.46978913464E+03  0.00000000000E+00 0. -1.
   -9000010    2    1    2    0  503 -0.50076180690E+02  0.38895710506E+03  0.42374039223E+03  0.11620003248E+04  0.10084114147E+04 0.  0.
    9000010    2    1    2  501    0  0.50076180690E+02 -0.38895710506E+03  0.27986504886E+04  0.29999688253E+04  0.10067636973E+04 0.  0.
        -13    1    4    4    0    0 -0.41260623953E+03 -0.45137681050E+03  0.14952325978E+04  0.16154582838E+04  0.10566000000E+00 0.  1.
          4    1    4    4  501    0  0.46268242022E+03  0.62419705439E+02  0.13034178908E+04  0.13845105415E+04  0.00000000000E+00 0.  1.
         13    1    3    3    0    0  0.37124771975E+03 -0.43653750366E+02 -0.72033049562E+02  0.38068266408E+03  0.10566000000E+00 0. -1.
         -4    1    3    3    0  503 -0.42132390044E+03  0.43261085542E+03  0.49577344179E+03  0.78131766069E+03  0.00000000000E+00 0. -1.
<mgrwt>
<rscale>  2 0.10815997E+04</rscale>
<asrwt>0</asrwt>
<pdfrwt beam="1">  1       21 0.56802768E+00 0.10819837E+04</pdfrwt>
<pdfrwt beam="2">  1       21 0.72275254E-01 0.10819837E+04</pdfrwt>
<totfact> 0.30805849E-01</totfact>
</mgrwt>
</event>
<event>
 8    1  0.5815007E-006  0.1032317E+04  0.7818608E-02  0.8747847E-01
         21   -1    0    0  501  502  0.00000000000E+00  0.00000000000E+00  0.10405086630E+04  0.10405086630E+04  0.00000000000E+00 0.  1.
         21   -1    0    0  502  503 -0.00000000000E+00 -0.00000000000E+00 -0.10763173847E+04  0.10763173847E+04  0.00000000000E+00 0.  1.
   -9000010    2    1    2    0  503 -0.20991049870E+03  0.58952048041E+02 -0.27878731893E+03  0.10692991186E+04  0.10090294715E+04 0.  0.
    9000010    2    1    2  501    0  0.20991049870E+03 -0.58952048041E+02  0.24297859727E+03  0.10475269292E+04  0.99535737663E+03 0.  0.
        -13    1    4    4    0    0  0.20000812195E+03 -0.23863470283E+03  0.58406625049E+03  0.66187851330E+03  0.10566000000E+00 0.  1.
          4    1    4    4  501    0  0.99023767500E+01  0.17968265479E+03 -0.34108765322E+03  0.38564841589E+03  0.00000000000E+00 0.  1.
         13    1    3    3    0    0  0.28928089121E+03  0.12077910957E+03  0.20244391044E+03  0.37316829362E+03  0.10566000000E+00 0. -1.
         -4    1    3    3    0  503 -0.49919138991E+03 -0.61827061527E+02 -0.48123122938E+03  0.69613082493E+03  0.00000000000E+00 0. -1.
<mgrwt>
<rscale>  2 0.10289607E+04</rscale>
<asrwt>0</asrwt>
<pdfrwt beam="1">  1       21 0.16007826E+00 0.10323169E+04</pdfrwt>
<pdfrwt beam="2">  1       21 0.16558729E+00 0.10323169E+04</pdfrwt>
<totfact> 0.28122840E+01</totfact>
</mgrwt>
</event>
<event>
 8    1  0.5815007E-006  0.1333255E+04  0.7818608E-02  0.8517952E-01
         21   -1    0    0  503  502  0.00000000000E+00  0.00000000000E+00  0.52293115505E+03  0.52293115505E+03  0.00000000000E+00 0.  1.
         21   -1    0    0  501  503 -0.00000000000E+00 -0.00000000000E+00 -0.33280188381E+04  0.33280188381E+04  0.00000000000E+00 0.  1.
    9000010    2    1    2  501    0  0.46899909917E+02 -0.84396744761E+03 -0.13054259782E+04  0.18659332348E+04  0.10310621699E+04 0.  0.
   -9000010    2    1    2    0  502 -0.46899909917E+02  0.84396744761E+03 -0.14996617049E+04  0.19850167583E+04  0.98834490310E+03 0.  0.
        -13    1    3    3    0    0  0.88251788216E+02 -0.10847855145E+04 -0.10451332504E+04  0.15089239586E+04  0.10566000000E+00 0.  1.
          4    1    3    3  501    0 -0.41351878299E+02  0.24081806691E+03 -0.26029272779E+03  0.35700927625E+03  0.00000000000E+00 0.  1.
         13    1    4    4    0    0 -0.18083052439E+03 -0.18186881177E+03 -0.40040068690E+03  0.47549622972E+03  0.10566000000E+00 0. -1.
         -4    1    4    4    0  502  0.13393061447E+03  0.10258362594E+04 -0.10992610180E+04  0.15095205286E+04  0.00000000000E+00 0. -1.
<mgrwt>
<rscale>  2 0.13249906E+04</rscale>
<asrwt>0</asrwt>
<pdfrwt beam="1">  1       21 0.80450951E-01 0.13332554E+04</pdfrwt>
<pdfrwt beam="2">  1       21 0.51200287E+00 0.13332554E+04</pdfrwt>
<totfact> 0.57370110E-01</totfact>
</mgrwt>
</event>
<event>
 8    1  0.5815007E-006  0.1027843E+04  0.7818608E-02  0.8749563E-01
         21   -1    0    0  503  502  0.00000000000E+00  0.00000000000E+00  0.84519339046E+03  0.84519339046E+03  0.00000000000E+00 0. -1.
         21   -1    0    0  501  503 -0.00000000000E+00 -0.00000000000E+00 -0.12595691612E+04  0.12595691612E+04  0.00000000000E+00 0. -1.
    9000010    2    1    2  501    0  0.12570706500E+03  0.17636500484E+03 -0.31521487273E+03  0.10721471498E+04  0.10016148031E+04 0.  0.
   -9000010    2    1    2    0  502 -0.12570706500E+03 -0.17636500484E+03 -0.99160898020E+02  0.10326154018E+04  0.10047660441E+04 0.  0.
        -13    1    3    3    0    0  0.10955689062E+03 -0.79276932981E+02 -0.64247893739E+03  0.65655673064E+03  0.10566000000E+00 0.  1.
          4    1    3    3  501    0  0.16150174386E+02  0.25564193782E+03  0.32726406467E+03  0.41559041919E+03  0.00000000000E+00 0.  1.
         13    1    4    4    0    0  0.41245687906E+03  0.95281447680E+02 -0.70050687138E+02  0.42907614858E+03  0.10566000000E+00 0. -1.
         -4    1    4    4    0  502 -0.53816394406E+03 -0.27164645252E+03 -0.29110210882E+02  0.60353925326E+03  0.00000000000E+00 0. -1.
<mgrwt>
<rscale>  2 0.10270723E+04</rscale>
<asrwt>0</asrwt>
<pdfrwt beam="1">  1       21 0.13002975E+00 0.10278432E+04</pdfrwt>
<pdfrwt beam="2">  1       21 0.19377987E+00 0.10278432E+04</pdfrwt>
<totfact> 0.31064598E+01</totfact>
</mgrwt>
</event>
<event>
 8    1  0.5815007E-006  0.1307746E+04  0.7818608E-02  0.8533560E-01
         21   -1    0    0  501  502  0.00000000000E+00  0.00000000000E+00  0.14011081784E+04  0.14011081784E+04  0.00000000000E+00 0.  1.
         21   -1    0    0  502  503 -0.00000000000E+00 -0.00000000000E+00 -0.12000584637E+04  0.12000584637E+04  0.00000000000E+00 0.  1.
   -9000010    2    1    2    0  503 -0.65086660836E+03  0.48312649751E+03  0.61380698538E+02  0.13091859669E+04  0.10262366936E+04 0.  0.
    9000010    2    1    2  501    0  0.65086660836E+03 -0.48312649751E+03  0.13966901618E+03  0.12919806753E+04  0.99632729402E+03 0.  0.
        -13    1    4    4    0    0  0.61529634871E+03  0.14818003280E+03 -0.41451543889E+02  0.63424377057E+03  0.10566000000E+00 0.  1.
          4    1    4    4  501    0  0.35570259658E+02 -0.63130653031E+03  0.18112056007E+03  0.65773690474E+03  0.00000000000E+00 0.  1.
         13    1    3    3    0    0 -0.30661835253E+03  0.50831214096E+03 -0.41253288716E+03  0.72289656308E+03  0.10566000000E+00 0. -1.
         -4    1    3    3    0  503 -0.34424825583E+03 -0.25185643455E+02  0.47391358570E+03  0.58628940378E+03  0.00000000000E+00 0. -1.
<mgrwt>
<rscale>  2 0.13018725E+04</rscale>
<asrwt>0</asrwt>
<pdfrwt beam="1">  1       21 0.21555510E+00 0.13077463E+04</pdfrwt>
<pdfrwt beam="2">  1       21 0.18462438E+00 0.13077463E+04</pdfrwt>
<totfact> 0.65983291E+00</totfact>
</mgrwt>
</event>
<event>
 8    1  0.5815007E-006  0.1073001E+04  0.7818608E-02  0.8713526E-01
         21   -1    0    0  501  502  0.00000000000E+00  0.00000000000E+00  0.19052162435E+04  0.19052162435E+04  0.00000000000E+00 0. -1.
         21   -1    0    0  502  503 -0.00000000000E+00 -0.00000000000E+00 -0.65320189261E+03  0.65320189261E+03  0.00000000000E+00 0. -1.
   -9000010    2    1    2    0  503 -0.10840503483E+03 -0.30970913630E+03  0.24124454902E+03  0.10997867687E+04  0.10215970847E+04 0.  0.
    9000010    2    1    2  501    0  0.10840503483E+03  0.30970913630E+03  0.10107698018E+04  0.14586313674E+04  0.99913886568E+03 0.  0.
        -13    1    4    4    0    0 -0.20758890582E+03  0.58167862593E+03  0.72889210608E+03  0.95536741160E+03  0.10566000000E+00 0.  1.
          4    1    4    4  501    0  0.31599394065E+03 -0.27196948963E+03  0.28187769575E+03  0.50326395577E+03  0.00000000000E+00 0.  1.
         13    1    3    3    0    0 -0.86483625953E+01  0.94126979940E+02  0.56488582718E+03  0.57273963669E+03  0.10566000000E+00 0. -1.
         -4    1    3    3    0  503 -0.99756672231E+02 -0.40383611624E+03 -0.32364127816E+03  0.52704713201E+03  0.00000000000E+00 0. -1.
<mgrwt>
<rscale>  2 0.10676211E+04</rscale>
<asrwt>0</asrwt>
<pdfrwt beam="1">  1       21 0.29311019E+00 0.10730014E+04</pdfrwt>
<pdfrwt beam="2">  1       21 0.10049260E+00 0.10730014E+04</pdfrwt>
<totfact> 0.11558484E+01</totfact>
</mgrwt>
</event>
<event>
 8    1  0.5815007E-006  0.1051545E+04  0.7818608E-02  0.8728599E-01
         21   -1    0    0  503  502  0.00000000000E+00  0.00000000000E+00  0.59744199916E+03  0.59744199916E+03  0.00000000000E+00 0. -1.
         21   -1    0    0  501  503 -0.00000000000E+00 -0.00000000000E+00 -0.18435545414E+04  0.18435545414E+04  0.00000000000E+00 0. -1.
    9000010    2    1    2  501    0 -0.29763024401E+03  0.94284682670E+02 -0.60261231091E+03  0.12119770426E+04  0.10041281745E+04 0.  0.
   -9000010    2    1    2    0  502  0.29763024401E+03 -0.94284682670E+02 -0.64350023129E+03  0.12290194980E+04  0.99946136251E+03 0.  0.
        -13    1    3    3    0    0 -0.63649381422E+03  0.18320598764E+03 -0.54329346472E+03  0.85665431150E+03  0.10566000000E+00 0.  1.
          4    1    3    3  501    0  0.33886357021E+03 -0.88921304969E+02 -0.59318846185E+02  0.35532273105E+03  0.00000000000E+00 0.  1.
         13    1    4    4    0    0 -0.48100304231E+02  0.15472193625E+03  0.21581972204E+03  0.26987159985E+03  0.10566000000E+00 0. -1.
         -4    1    4    4    0  502  0.34573054824E+03 -0.24900661892E+03 -0.85931995332E+03  0.95914789810E+03  0.00000000000E+00 0. -1.
<mgrwt>
<rscale>  2 0.10504293E+04</rscale>
<asrwt>0</asrwt>
<pdfrwt beam="1">  1       21 0.91914155E-01 0.10515449E+04</pdfrwt>
<pdfrwt beam="2">  1       21 0.28362377E+00 0.10515449E+04</pdfrwt>
<totfact> 0.17064973E+01</totfact>
</mgrwt>
</event>
<event>
 8    1  0.5815007E-006  0.1038174E+04  0.7818608E-02  0.8742586E-01
         21   -1    0    0  503  502  0.00000000000E+00  0.00000000000E+00  0.17748315739E+04  0.17748315739E+04  0.00000000000E+00 0.  1.
         21   -1    0    0  501  503 -0.00000000000E+00 -0.00000000000E+00 -0.60127880062E+03  0.60127880062E+03  0.00000000000E+00 0.  1.
    9000010    2    1    2  501    0 -0.24496468098E+03 -0.25962335984E+02  0.51626671250E+03  0.11473587241E+04  0.99459488513E+03 0.  0.
   -9000010    2    1    2    0  502  0.24496468098E+03  0.25962335984E+02  0.65728606073E+03  0.12287516504E+04  0.10085256144E+04 0.  0.
        -13    1    3    3    0    0 -0.48449190286E+03  0.40797795464E+01 -0.91796895385E+02  0.49312851236E+03  0.10566000000E+00 0.  1.
          4    1    3    3  501    0  0.23952722188E+03 -0.30042115530E+02  0.60806360789E+03  0.65423021175E+03  0.00000000000E+00 0.  1.
         13    1    4    4    0    0  0.55876034690E+03 -0.11100438428E+02  0.71827503134E+02  0.56346743151E+03  0.10566000000E+00 0. -1.
         -4    1    4    4    0  502 -0.31379566592E+03  0.37062774411E+02  0.58545855760E+03  0.66528421886E+03  0.00000000000E+00 0. -1.
<mgrwt>
<rscale>  2 0.10347757E+04</rscale>
<asrwt>0</asrwt>
<pdfrwt beam="1">  1       21 0.27305101E+00 0.10381742E+04</pdfrwt>
<pdfrwt beam="2">  1       21 0.92504432E-01 0.10381742E+04</pdfrwt>
<totfact> 0.20030565E+01</totfact>
</mgrwt>
</event>
<event>
 8    1  0.5815007E-006  0.1322171E+04  0.7818608E-02  0.8521286E-01
         21   -1    0    0  503  502  0.00000000000E+00  0.00000000000E+00  0.20857736065E+04  0.20857736065E+04  0.00000000000E+00 0.  1.
         21   -1    0    0  501  503 -0.00000000000E+00 -0.00000000000E+00 -0.96740062070E+03  0.96740062070E+03  0.00000000000E+00 0. -1.
    9000010    2    1    2  501    0 -0.78075752184E+03  0.31714536276E+03  0.11273244123E+04  0.17309729395E+04  0.10075929226E+04 0.  0.
   -9000010    2    1    2    0  502  0.78075752184E+03 -0.31714536276E+03 -0.89514265481E+01  0.13222012877E+04  0.10188094170E+04 0.  0.
        -13    1    3    3    0    0 -0.50500744842E+03  0.57454564148E+03  0.29991907027E+03  0.82163658449E+03  0.10566000000E+00 0.  1.
          4    1    3    3  501    0 -0.27575007342E+03 -0.25740027872E+03  0.82740534205E+03  0.90933635500E+03  0.00000000000E+00 0.  1.
         13    1    4    4    0    0  0.12845414020E+03  0.66146055046E+02 -0.43190034175E+03  0.45542692400E+03  0.10566000000E+00 0. -1.
         -4    1    4    4    0  502  0.65230338164E+03 -0.38329141780E+03  0.42294891520E+03  0.86677436368E+03  0.00000000000E+00 0. -1.
<mgrwt>
<rscale>  2 0.13200098E+04</rscale>
<asrwt>0</asrwt>
<pdfrwt beam="1">  1       21 0.32088824E+00 0.13221710E+04</pdfrwt>
<pdfrwt beam="2">  1       21 0.14883087E+00 0.13221710E+04</pdfrwt>
<totfact> 0.22945318E+00</totfact>
</mgrwt>
</event>
<event>
 8    1  0.5815007E-006  0.1027432E+04  0.7818608E-02  0.8749983E-01
         21   -1    0    0  501  502  0.00000000000E+00  0.00000000000E+00  0.35551734699E+03  0.35551734699E+03  0.00000000000E+00 0. -1.
         21   -1    0    0  502  503 -0.00000000000E+00 -0.00000000000E+00 -0.29644151503E+04  0.29644151503E+04  0.00000000000E+00 0. -1.
   -9000010    2    1    2    0  503 -0.23140687296E+03  0.14105674123E+03 -0.13681754559E+04  0.17090293097E+04  0.98763908295E+03 0.  0.
    9000010    2    1    2  501    0  0.23140687296E+03 -0.14105674123E+03 -0.12407223475E+04  0.16109031877E+04  0.99104540329E+03 0.  0.
        -13    1    4    4    0    0  0.41645419509E+03 -0.11084274512E+03 -0.13337146781E+04  0.14016115955E+04  0.10566000000E+00 0.  1.
          4    1    4    4  501    0 -0.18504732213E+03 -0.30213996118E+02  0.92992330672E+02  0.20929159217E+03  0.00000000000E+00 0.  1.
         13    1    3    3    0    0 -0.22242877942E+03  0.60651012537E+02 -0.15197905853E+04  0.15371781099E+04  0.10566000000E+00 0. -1.
         -4    1    3    3    0  503 -0.89780935406E+01  0.80405728697E+02  0.15161512946E+03  0.17185119974E+03  0.00000000000E+00 0. -1.
<mgrwt>
<rscale>  2 0.10266100E+04</rscale>
<asrwt>0</asrwt>
<pdfrwt beam="1">  1       21 0.54694976E-01 0.10274323E+04</pdfrwt>
<pdfrwt beam="2">  1       21 0.45606388E+00 0.10274323E+04</pdfrwt>
<totfact> 0.36940378E+00</totfact>
</mgrwt>
</event>
<event>
 8    1  0.5815007E-006  0.1068471E+04  0.7818608E-02  0.8722081E-01
         21   -1    0    0  503  502  0.00000000000E+00  0.00000000000E+00  0.10631227726E+04  0.10631227726E+04  0.00000000000E+00 0.  1.
         21   -1    0    0  501  503 -0.00000000000E+00 -0.00000000000E+00 -0.10682123774E+04  0.10682123774E+04  0.00000000000E+00 0.  1.
    9000010    2    1    2  501    0  0.38565094913E+03 -0.77640877411E+02  0.19344672271E+03  0.10445756278E+04  0.94813598568E+03 0.  0.
   -9000010    2    1    2    0  502 -0.38565094913E+03  0.77640877411E+02 -0.19853632749E+03  0.10867595222E+04  0.99341573639E+03 0.  0.
        -13    1    3    3    0    0  0.13302033736E+03  0.23271688751E+03  0.48178841184E+03  0.55133623573E+03  0.10566000000E+00 0.  1.
          4    1    3    3  501    0  0.25263061177E+03 -0.31035776492E+03 -0.28834168912E+03  0.49323939212E+03  0.00000000000E+00 0.  1.
         13    1    4    4    0    0 -0.65564423301E+03 -0.10987700392E+03 -0.31809161193E+03  0.73696987796E+03  0.10566000000E+00 0. -1.
         -4    1    4    4    0  502  0.26999328388E+03  0.18751788134E+03  0.11955528445E+03  0.34978964422E+03  0.00000000000E+00 0. -1.
<mgrwt>
<rscale>  2 0.10578216E+04</rscale>
<asrwt>0</asrwt>
<pdfrwt beam="1">  1       21 0.16355735E+00 0.10684707E+04</pdfrwt>
<pdfrwt beam="2">  1       21 0.16434037E+00 0.10684707E+04</pdfrwt>
<totfact> 0.26685699E+01</totfact>
</mgrwt>
</event>
<event>
 8    1  0.5815007E-006  0.1193016E+04  0.7818608E-02  0.8611880E-01
         21   -1    0    0  503  502  0.00000000000E+00  0.00000000000E+00  0.10861582050E+04  0.10861582050E+04  0.00000000000E+00 0.  1.
         21   -1    0    0  501  503 -0.00000000000E+00 -0.00000000000E+00 -0.14741457433E+04  0.14741457433E+04  0.00000000000E+00 0. -1.
    9000010    2    1    2  501    0  0.79625696452E+02  0.64862354095E+03 -0.62097863809E+03  0.13449537896E+04  0.99811496215E+03 0.  0.
   -9000010    2    1    2    0  502 -0.79625696452E+02 -0.64862354095E+03  0.23299109975E+03  0.12153501588E+04  0.99786692822E+03 0.  0.
        -13    1    3    3    0    0  0.27430661113E+03  0.28321212125E+03 -0.80153623302E+03  0.89326007777E+03  0.10566000000E+00 0.  1.
          4    1    3    3  501    0 -0.19468091468E+03  0.36541141970E+03  0.18055759492E+03  0.45169371179E+03  0.00000000000E+00 0.  1.
         13    1    4    4    0    0  0.73206863603E+02  0.18308095493E+03  0.30874363873E+03  0.36633390036E+03  0.10566000000E+00 0. -1.
         -4    1    4    4    0  502 -0.15283256005E+03 -0.83170449587E+03 -0.75752538975E+02  0.84901625840E+03  0.00000000000E+00 0. -1.
<mgrwt>
<rscale>  2 0.11929637E+04</rscale>
<asrwt>0</asrwt>
<pdfrwt beam="1">  1       21 0.16710126E+00 0.11930156E+04</pdfrwt>
<pdfrwt beam="2">  1       21 0.22679165E+00 0.11930156E+04</pdfrwt>
<totfact> 0.77570161E+00</totfact>
</mgrwt>
</event>
<event>
 8    1  0.5815007E-006  0.1486567E+04  0.7818608E-02  0.8418539E-01
         21   -1    0    0  503  502  0.00000000000E+00  0.00000000000E+00  0.21437991490E+04  0.21437991490E+04  0.00000000000E+00 0.  1.
         21   -1    0    0  501  503 -0.00000000000E+00 -0.00000000000E+00 -0.15595031215E+04  0.15595031215E+04  0.00000000000E+00 0. -1.
    9000010    2    1    2  501    0  0.10465394078E+04  0.28263558797E+03 -0.79150845356E+03  0.16841518834E+04  0.10172287485E+04 0.  0.
   -9000010    2    1    2    0  502 -0.10465394078E+04 -0.28263558797E+03  0.13758044811E+04  0.20191503871E+04  0.10044912681E+04 0.  0.
        -13    1    3    3    0    0  0.69741331121E+03  0.40558247840E+03 -0.97952395229E+03  0.12689955310E+04  0.10566000000E+00 0.  1.
          4    1    3    3  501    0  0.34912609661E+03 -0.12294689043E+03  0.18801549873E+03  0.41515635243E+03  0.00000000000E+00 0.  1.
         13    1    4    4    0    0 -0.93663739067E+03 -0.49878065018E+03  0.62811883617E+03  0.12331281451E+04  0.10566000000E+00 0. -1.
         -4    1    4    4    0  502 -0.10990201714E+03  0.21614506221E+03  0.74768564494E+03  0.78602224201E+03  0.00000000000E+00 0. -1.
<mgrwt>
<rscale>  2 0.14843907E+04</rscale>
<asrwt>0</asrwt>
<pdfrwt beam="1">  1       21 0.32981525E+00 0.14865672E+04</pdfrwt>
<pdfrwt beam="2">  1       21 0.23992356E+00 0.14865672E+04</pdfrwt>
<totfact> 0.35786153E-01</totfact>
</mgrwt>
</event>
<event>
 8    1  0.5815007E-006  0.1185541E+04  0.7818608E-02  0.8624905E-01
         21   -1    0    0  503  502  0.00000000000E+00  0.00000000000E+00  0.15826330742E+04  0.15826330742E+04  0.00000000000E+00 0.  1.
         21   -1    0    0  501  503 -0.00000000000E+00 -0.00000000000E+00 -0.87146449981E+03  0.87146449981E+03  0.00000000000E+00 0.  1.
    9000010    2    1    2  501    0 -0.52905036724E+03 -0.11771235700E+03  0.50273890508E+03  0.12877325076E+04  0.10543994093E+04 0.  0.
   -9000010    2    1    2    0  502  0.52905036724E+03  0.11771235700E+03  0.20842966935E+03  0.11663650665E+04  0.10115404348E+04 0.  0.
        -13    1    3    3    0    0 -0.65604103859E+03 -0.45723433508E+03  0.46052928641E+03  0.92278942143E+03  0.10566000000E+00 0.  1.
          4    1    3    3  501    0  0.12699067136E+03  0.33952197808E+03  0.42209618672E+02  0.36494308613E+03  0.00000000000E+00 0.  1.
         13    1    4    4    0    0 -0.13361424194E+03  0.36708578104E+03  0.23849250313E+03  0.45769358910E+03  0.10566000000E+00 0. -1.
         -4    1    4    4    0  502  0.66266460918E+03 -0.24937342404E+03 -0.30062833786E+02  0.70867147738E+03  0.00000000000E+00 0. -1.
<mgrwt>
<rscale>  2 0.11759377E+04</rscale>
<asrwt>0</asrwt>
<pdfrwt beam="1">  1       21 0.24348201E+00 0.11855415E+04</pdfrwt>
<pdfrwt beam="2">  1       21 0.13407146E+00 0.11855415E+04</pdfrwt>
<totfact> 0.11541962E+01</totfact>
</mgrwt>
</event>
<event>
 8    1  0.5815007E-006  0.1020250E+04  0.7818608E-02  0.8759054E-01
         21   -1    0    0  501  502  0.00000000000E+00  0.00000000000E+00  0.85615108521E+03  0.85615108521E+03  0.00000000000E+00 0.  1.
         21   -1    0    0  502  503 -0.00000000000E+00 -0.00000000000E+00 -0.11995776963E+04  0.11995776963E+04  0.00000000000E+00 0.  1.
   -9000010    2    1    2    0  503  0.86548612440E+02 -0.12032347306E+03 -0.14877247620E+03  0.10170752680E+04  0.99515850532E+03 0.  0.
    9000010    2    1    2  501    0 -0.86548612440E+02  0.12032347306E+03 -0.19465413485E+03  0.10386535134E+04  0.10094268117E+04 0.  0.
        -13    1    4    4    0    0 -0.38740577341E+03  0.10796332734E+03  0.27040722876E+03  0.48462293987E+03  0.10566000000E+00 0.  1.
          4    1    4    4  501    0  0.30085716097E+03  0.12360145727E+02 -0.46506136360E+03  0.55403057355E+03  0.00000000000E+00 0.  1.
         13    1    3    3    0    0  0.51673732507E+03 -0.22188239559E+03 -0.11312655583E+03  0.57362608848E+03  0.10566000000E+00 0. -1.
         -4    1    3    3    0  503 -0.43018871263E+03  0.10155892252E+03 -0.35645920368E+02  0.44344917956E+03  0.00000000000E+00 0. -1.
<mgrwt>
<rscale>  2 0.10167032E+04</rscale>
<asrwt>0</asrwt>
<pdfrwt beam="1">  1       21 0.13171555E+00 0.10202504E+04</pdfrwt>
<pdfrwt beam="2">  1       21 0.18455042E+00 0.10202504E+04</pdfrwt>
<totfact> 0.35524089E+01</totfact>
</mgrwt>
</event>
<event>
 8    1  0.5815007E-006  0.1037077E+04  0.7818608E-02  0.8747634E-01
         21   -1    0    0  501  502  0.00000000000E+00  0.00000000000E+00  0.13554086053E+04  0.13554086053E+04  0.00000000000E+00 0.  1.
         21   -1    0    0  502  503 -0.00000000000E+00 -0.00000000000E+00 -0.77020981144E+03  0.77020981144E+03  0.00000000000E+00 0.  1.
   -9000010    2    1    2    0  503 -0.94833727510E+02  0.25248738039E+03  0.32040455799E+03  0.10854437773E+04  0.10013919312E+04 0.  0.
    9000010    2    1    2  501    0  0.94833727510E+02 -0.25248738039E+03  0.26479423588E+03  0.10401746394E+04  0.96907377431E+03 0.  0.
        -13    1    4    4    0    0  0.24649772032E+03 -0.39619704613E+03 -0.21731215531E+03  0.51474052638E+03  0.10566000000E+00 0.  1.
          4    1    4    4  501    0 -0.15166399281E+03  0.14370966574E+03  0.48210639119E+03  0.52543411306E+03  0.00000000000E+00 0.  1.
         13    1    3    3    0    0 -0.50812588391E+03 -0.52511403807E+02  0.75440584278E+02  0.51637259256E+03  0.10566000000E+00 0. -1.
         -4    1    3    3    0  503  0.41329215640E+03  0.30499878420E+03  0.24496397371E+03  0.56907118476E+03  0.00000000000E+00 0. -1.
<mgrwt>
<rscale>  2 0.10291950E+04</rscale>
<asrwt>0</asrwt>
<pdfrwt beam="1">  1       21 0.20852440E+00 0.10370772E+04</pdfrwt>
<pdfrwt beam="2">  1       21 0.11849382E+00 0.10370772E+04</pdfrwt>
<totfact> 0.30969341E+01</totfact>
</mgrwt>
</event>
<event>
 8    1  0.5815007E-006  0.1124445E+04  0.7818608E-02  0.8667410E-01
         21   -1    0    0  501  502  0.00000000000E+00  0.00000000000E+00  0.12277997468E+04  0.12277997468E+04  0.00000000000E+00 0. -1.
         21   -1    0    0  502  503 -0.00000000000E+00 -0.00000000000E+00 -0.10430440203E+04  0.10430440203E+04  0.00000000000E+00 0. -1.
   -9000010    2    1    2    0  503  0.12210544189E+03 -0.48461830487E+03  0.25276624625E+03  0.11525046535E+04  0.10072792864E+04 0.  0.
    9000010    2    1    2  501    0 -0.12210544189E+03  0.48461830487E+03 -0.68010519769E+02  0.11183391137E+04  0.99814442941E+03 0.  0.
        -13    1    4    4    0    0 -0.28369574448E+03  0.63605254401E+03  0.24204726512E+03  0.73731472513E+03  0.10566000000E+00 0.  1.
          4    1    4    4  501    0  0.16159030259E+03 -0.15143423913E+03 -0.31005778489E+03  0.38102438852E+03  0.00000000000E+00 0.  1.
         13    1    3    3    0    0 -0.94189162892E+02  0.29714860180E+03  0.42893507680E+02  0.31465656536E+03  0.10566000000E+00 0. -1.
         -4    1    3    3    0  503  0.21629460478E+03 -0.78176690667E+03  0.20987273857E+03  0.83784808815E+03  0.00000000000E+00 0. -1.
<mgrwt>
<rscale>  2 0.11223953E+04</rscale>
<asrwt>0</asrwt>
<pdfrwt beam="1">  1       21 0.18889227E+00 0.11244448E+04</pdfrwt>
<pdfrwt beam="2">  1       21 0.16046831E+00 0.11244448E+04</pdfrwt>
<totfact> 0.17582767E+01</totfact>
</mgrwt>
</event>
<event>
 8    1  0.5815007E-006  0.1122879E+04  0.7818608E-02  0.8680781E-01
         21   -1    0    0  503  502  0.00000000000E+00  0.00000000000E+00  0.45473968966E+03  0.45473968966E+03  0.00000000000E+00 0.  1.
         21   -1    0    0  501  503 -0.00000000000E+00 -0.00000000000E+00 -0.26197611769E+04  0.26197611769E+04  0.00000000000E+00 0.  1.
    9000010    2    1    2  501    0 -0.19906033076E+03 -0.21368376805E+03 -0.11891499759E+04  0.16355231252E+04  0.10842381933E+04 0.  0.
   -9000010    2    1    2    0  502  0.19906033076E+03  0.21368376805E+03 -0.97587151131E+03  0.14389777414E+04  0.10163886882E+04 0.  0.
        -13    1    3    3    0    0  0.36634813000E+01  0.27650819827E+03 -0.10518385107E+04  0.10875819365E+04  0.10566000000E+00 0.  1.
          4    1    3    3  501    0 -0.20272381206E+03 -0.49019196632E+03 -0.13731146523E+03  0.54794118873E+03  0.00000000000E+00 0.  1.
         13    1    4    4    0    0  0.18499493456E+03  0.37503600723E+03  0.30844062556E+02  0.41931670595E+03  0.10566000000E+00 0. -1.
         -4    1    4    4    0  502  0.14065396202E+02 -0.16135223917E+03 -0.10067155739E+04  0.10196610354E+04  0.00000000000E+00 0. -1.
<mgrwt>
<rscale>  2 0.11061682E+04</rscale>
<asrwt>0</asrwt>
<pdfrwt beam="1">  1       21 0.69959952E-01 0.11228794E+04</pdfrwt>
<pdfrwt beam="2">  1       21 0.40304018E+00 0.11228794E+04</pdfrwt>
<totfact> 0.47720388E+00</totfact>
</mgrwt>
</event>
<event>
 8    1  0.5815007E-006  0.1449102E+04  0.7818608E-02  0.8440733E-01
         21   -1    0    0  503  502  0.00000000000E+00  0.00000000000E+00  0.16677271606E+04  0.16677271606E+04  0.00000000000E+00 0.  1.
         21   -1    0    0  501  503 -0.00000000000E+00 -0.00000000000E+00 -0.12680375831E+04  0.12680375831E+04  0.00000000000E+00 0. -1.
    9000010    2    1    2  501    0  0.73938747461E+03 -0.73818428471E+03  0.36688909686E+03  0.14862918994E+04  0.99138596165E+03 0.  0.
   -9000010    2    1    2    0  502 -0.73938747461E+03  0.73818428471E+03  0.32800480696E+02  0.14494728443E+04  0.10041343431E+04 0.  0.
        -13    1    3    3    0    0 -0.18290135183E+03 -0.24622363512E+03  0.31506916996E+03  0.43971306100E+03  0.10566000000E+00 0.  1.
          4    1    3    3  501    0  0.92228882644E+03 -0.49196064959E+03  0.51819926903E+02  0.10465788384E+04  0.00000000000E+00 0.  1.
         13    1    4    4    0    0 -0.59033166845E+03  0.69442246540E+03  0.44114111707E+03  0.10125806316E+04  0.10566000000E+00 0. -1.
         -4    1    4    4    0  502 -0.14905580616E+03  0.43761819304E+02 -0.40834063638E+03  0.43689221268E+03  0.00000000000E+00 0. -1.
<mgrwt>
<rscale>  2 0.14468955E+04</rscale>
<asrwt>0</asrwt>
<pdfrwt beam="1">  1       21 0.25657341E+00 0.14491017E+04</pdfrwt>
<pdfrwt beam="2">  1       21 0.19508270E+00 0.14491017E+04</pdfrwt>
<totfact> 0.26299227E+00</totfact>
</mgrwt>
</event>
<event>
 8    1  0.5815007E-006  0.1109699E+04  0.7818608E-02  0.8681349E-01
         21   -1    0    0  503  502  0.00000000000E+00  0.00000000000E+00  0.16162177544E+04  0.16162177544E+04  0.00000000000E+00 0.  1.
         21   -1    0    0  501  503 -0.00000000000E+00 -0.00000000000E+00 -0.75115217603E+03  0.75115217603E+03  0.00000000000E+00 0.  1.
    9000010    2    1    2  501    0 -0.17570734622E+02  0.37521477995E+03  0.46515554499E+03  0.11878110555E+04  0.10263676538E+04 0.  0.
   -9000010    2    1    2    0  502  0.17570734622E+02 -0.37521477995E+03  0.39991003337E+03  0.11795588749E+04  0.10441916695E+04 0.  0.
        -13    1    3    3    0    0 -0.46575472629E+03  0.12010031936E+03  0.46941508144E+03  0.67208785260E+03  0.10566000000E+00 0.  1.
          4    1    3    3  501    0  0.44818399167E+03  0.25511446059E+03 -0.42595364491E+01  0.51572320293E+03  0.00000000000E+00 0.  1.
         13    1    4    4    0    0  0.40270224559E+03  0.87419183575E+02 -0.67325007809E+02  0.41754506356E+03  0.10566000000E+00 0. -1.
         -4    1    4    4    0  502 -0.38513151097E+03 -0.46263396353E+03  0.46723504118E+03  0.76201381133E+03  0.00000000000E+00 0. -1.
<mgrwt>
<rscale>  2 0.11054859E+04</rscale>
<asrwt>0</asrwt>
<pdfrwt beam="1">  1       21 0.24864889E+00 0.11096987E+04</pdfrwt>
<pdfrwt beam="2">  1       21 0.11556187E+00 0.11096987E+04</pdfrwt>
<totfact> 0.16399285E+01</totfact>
</mgrwt>
</event>
<event>
 8    1  0.5815007E-006  0.1297878E+04  0.7818608E-02  0.8586599E-01
         21   -1    0    0  501  502  0.00000000000E+00  0.00000000000E+00  0.14619228494E+04  0.14619228494E+04  0.00000000000E+00 0.  1.
         21   -1    0    0  502  503 -0.00000000000E+00 -0.00000000000E+00 -0.93175519841E+03  0.93175519841E+03  0.00000000000E+00 0.  1.
   -9000010    2    1    2    0  503 -0.45584429074E+02 -0.16023879095E+03  0.24183736096E+03  0.10641585444E+04  0.10228361004E+04 0.  0.
    9000010    2    1    2  501    0  0.45584429074E+02  0.16023879095E+03  0.28833029006E+03  0.13295195034E+04  0.12871415398E+04 0.  0.
        -13    1    4    4    0    0 -0.23767767116E+03  0.47712247345E+03  0.59991022075E+03  0.80251405855E+03  0.10566000000E+00 0.  1.
          4    1    4    4  501    0  0.28326210024E+03 -0.31688368250E+03 -0.31157993070E+03  0.52700544483E+03  0.00000000000E+00 0.  1.
         13    1    3    3    0    0  0.43184434167E+03 -0.31185483320E+03  0.16308232664E+03  0.55708063047E+03  0.10566000000E+00 0. -1.
         -4    1    3    3    0  503 -0.47742877075E+03  0.15161604225E+03  0.78755034320E+02  0.50707791397E+03  0.00000000000E+00 0. -1.
<mgrwt>
<rscale>  2 0.12268695E+04</rscale>
<asrwt>0</asrwt>
<pdfrwt beam="1">  1       21 0.22491121E+00 0.12978782E+04</pdfrwt>
<pdfrwt beam="2">  1       21 0.14334695E+00 0.12978782E+04</pdfrwt>
<totfact> 0.12703548E+01</totfact>
</mgrwt>
</event>
<event>
 8    1  0.5815007E-006  0.1075408E+04  0.7818608E-02  0.8723854E-01
         21   -1    0    0  503  502  0.00000000000E+00  0.00000000000E+00  0.12124481505E+04  0.12124481505E+04  0.00000000000E+00 0.  1.
         21   -1    0    0  501  503 -0.00000000000E+00 -0.00000000000E+00 -0.89888566135E+03  0.89888566135E+03  0.00000000000E+00 0.  1.
    9000010    2    1    2  501    0 -0.39593742838E+03 -0.28439776139E+03  0.43154358455E+02  0.10762730462E+04  0.95856811834E+03 0.  0.
   -9000010    2    1    2    0  502  0.39593742838E+03  0.28439776139E+03  0.27040813065E+03  0.10350607656E+04  0.87211335126E+03 0.  0.
        -13    1    3    3    0    0  0.69481865010E+02 -0.48723264386E+03 -0.17682966718E+03  0.52296474180E+03  0.10566000000E+00 0.  1.
          4    1    3    3  501    0 -0.46541929339E+03  0.20283488247E+03  0.21998402564E+03  0.55330830442E+03  0.00000000000E+00 0.  1.
         13    1    4    4    0    0  0.60739535681E+03 -0.12147014862E+02  0.50517035929E+02  0.60961352637E+03  0.10566000000E+00 0. -1.
         -4    1    4    4    0  502 -0.21145792843E+03  0.29654477625E+03  0.21989109472E+03  0.42544723921E+03  0.00000000000E+00 0. -1.
<mgrwt>
<rscale>  2 0.10558048E+04</rscale>
<asrwt>0</asrwt>
<pdfrwt beam="1">  1       21 0.18653048E+00 0.10754075E+04</pdfrwt>
<pdfrwt beam="2">  1       21 0.13829010E+00 0.10754075E+04</pdfrwt>
<totfact> 0.29320699E+01</totfact>
</mgrwt>
</event>
<event>
 8    1  0.5815007E-006  0.1272141E+04  0.7818608E-02  0.8576908E-01
         21   -1    0    0  501  502  0.00000000000E+00  0.00000000000E+00  0.80391468926E+03  0.80391468926E+03  0.00000000000E+00 0.  1.
         21   -1    0    0  502  503 -0.00000000000E+00 -0.00000000000E+00 -0.18483686281E+04  0.18483686281E+04  0.00000000000E+00 0.  1.
   -9000010    2    1    2    0  503 -0.65626229086E+03  0.45878333395E+03 -0.65133357578E+03  0.13207857931E+04  0.82406149187E+03 0.  0.
    9000010    2    1    2  501    0  0.65626229086E+03 -0.45878333395E+03 -0.39312036308E+03  0.13314975243E+04  0.98852399839E+03 0.  0.
        -13    1    4    4    0    0  0.69808730785E+03  0.10032302485E+03 -0.28408258097E+03  0.76032461664E+03  0.10566000000E+00 0.  1.
          4    1    4    4  501    0 -0.41825016986E+02 -0.55910635881E+03 -0.10903778210E+03  0.57117290765E+03  0.00000000000E+00 0.  1.
         13    1    3    3    0    0  0.10519647741E+03  0.35256498752E+03 -0.30342078209E+03  0.47689889018E+03  0.10566000000E+00 0. -1.
         -4    1    3    3    0  503 -0.76145876827E+03  0.10621834643E+03 -0.34791279368E+03  0.84388690291E+03  0.00000000000E+00 0. -1.
<mgrwt>
<rscale>  2 0.12401750E+04</rscale>
<asrwt>0</asrwt>
<pdfrwt beam="1">  1       21 0.12367918E+00 0.12721407E+04</pdfrwt>
<pdfrwt beam="2">  1       21 0.28436440E+00 0.12721407E+04</pdfrwt>
<totfact> 0.72616187E+00</totfact>
</mgrwt>
</event>
<event>
 8    1  0.5815007E-006  0.1085041E+04  0.7818608E-02  0.8703744E-01
         21   -1    0    0  501  502  0.00000000000E+00  0.00000000000E+00  0.86172665211E+03  0.86172665211E+03  0.00000000000E+00 0. -1.
         21   -1    0    0  502  503 -0.00000000000E+00 -0.00000000000E+00 -0.20375343602E+04  0.20375343602E+04  0.00000000000E+00 0. -1.
   -9000010    2    1    2    0  503  0.35043350139E+03  0.14103608919E+03  0.25831496846E+03  0.11153661569E+04  0.10171628304E+04 0.  0.
    9000010    2    1    2  501    0 -0.35043350139E+03 -0.14103608919E+03 -0.14341226765E+04  0.17838948554E+04  0.99140213157E+03 0.  0.
        -13    1    4    4    0    0 -0.45755358903E+03 -0.11418552007E+03 -0.15521794787E+04  0.16222375797E+04  0.10566000000E+00 0.  1.
          4    1    4    4  501    0  0.10712008764E+03 -0.26850569121E+02  0.11805680218E+03  0.16165727567E+03  0.00000000000E+00 0.  1.
         13    1    3    3    0    0  0.66502919383E+03 -0.12049247365E+03  0.15438916530E+03  0.69326639207E+03  0.10566000000E+00 0. -1.
         -4    1    3    3    0  503 -0.31459569243E+03  0.26152856284E+03  0.10392580316E+03  0.42209976479E+03  0.00000000000E+00 0. -1.
<mgrwt>
<rscale>  2 0.10789628E+04</rscale>
<asrwt>0</asrwt>
<pdfrwt beam="1">  1       21 0.13257333E+00 0.10850415E+04</pdfrwt>
<pdfrwt beam="2">  1       21 0.31346683E+00 0.10850415E+04</pdfrwt>
<totfact> 0.38503171E+00</totfact>
</mgrwt>
</event>
<event>
 8    1  0.5815007E-006  0.1073780E+04  0.7818608E-02  0.8716252E-01
         21   -1    0    0  503  502  0.00000000000E+00  0.00000000000E+00  0.78601967588E+03  0.78601967588E+03  0.00000000000E+00 0. -1.
         21   -1    0    0  501  503 -0.00000000000E+00 -0.00000000000E+00 -0.14421337693E+04  0.14421337693E+04  0.00000000000E+00 0. -1.
    9000010    2    1    2  501    0 -0.45214741328E+02 -0.36060706646E+03 -0.48014553981E+03  0.11762407437E+04  0.10104062146E+04 0.  0.
   -9000010    2    1    2    0  502  0.45214741328E+02  0.36060706646E+03 -0.17596855357E+03  0.10519127014E+04  0.97132567680E+03 0.  0.
        -13    1    3    3    0    0  0.39334929230E+03  0.72698503074E+02 -0.86638856644E+01  0.40010475151E+03  0.10566000000E+00 0.  1.
          4    1    3    3  501    0 -0.43856403363E+03 -0.43330556953E+03 -0.47148165414E+03  0.77613599219E+03  0.00000000000E+00 0.  1.
         13    1    4    4    0    0  0.41906757411E+02 -0.87884320842E+02  0.34848744989E+03  0.36183330977E+03  0.10566000000E+00 0. -1.
         -4    1    4    4    0  502  0.33079839171E+01  0.44849138730E+03 -0.52445600346E+03  0.69007939167E+03  0.00000000000E+00 0. -1.
<mgrwt>
<rscale>  2 0.10644872E+04</rscale>
<asrwt>0</asrwt>
<pdfrwt beam="1">  1       21 0.12092610E+00 0.10737796E+04</pdfrwt>
<pdfrwt beam="2">  1       21 0.22186673E+00 0.10737796E+04</pdfrwt>
<totfact> 0.22985444E+01</totfact>
</mgrwt>
</event>
<event>
 8    1  0.5815007E-006  0.1367072E+04  0.7818608E-02  0.8490415E-01
         21   -1    0    0  503  502  0.00000000000E+00  0.00000000000E+00  0.28381820859E+04  0.28381820859E+04  0.00000000000E+00 0.  1.
         21   -1    0    0  501  503 -0.00000000000E+00 -0.00000000000E+00 -0.68350772150E+03  0.68350772150E+03  0.00000000000E+00 0.  1.
    9000010    2    1    2  501    0 -0.89864998651E+03  0.25931775178E+03  0.73923422100E+03  0.15538591242E+04  0.99659091389E+03 0.  0.
   -9000010    2    1    2    0  502  0.89864998651E+03 -0.25931775178E+03  0.14154401434E+04  0.19678306833E+04  0.99703024213E+03 0.  0.
        -13    1    3    3    0    0 -0.88092592838E+03  0.13097815970E+02  0.89985928847E+03  0.12593445892E+04  0.10566000000E+00 0.  1.
          4    1    3    3  501    0 -0.17724058125E+02  0.24621993581E+03 -0.16062506747E+03  0.29451453500E+03  0.00000000000E+00 0.  1.
         13    1    4    4    0    0  0.31452652766E+03  0.38268755839E+03  0.58539870550E+03  0.76685615307E+03  0.10566000000E+00 0. -1.
         -4    1    4    4    0  502  0.58412345885E+03 -0.64200531017E+03  0.83004143793E+03  0.12009745302E+04  0.00000000000E+00 0. -1.
<mgrwt>
<rscale>  2 0.13669922E+04</rscale>
<asrwt>0</asrwt>
<pdfrwt beam="1">  1       21 0.43664339E+00 0.13670723E+04</pdfrwt>
<pdfrwt beam="2">  1       21 0.10515504E+00 0.13670723E+04</pdfrwt>
<totfact> 0.95852581E-01</totfact>
</mgrwt>
</event>
<event>
 8    1  0.5815007E-006  0.1128347E+04  0.7818608E-02  0.8668959E-01
         21   -1    0    0  503  502  0.00000000000E+00  0.00000000000E+00  0.12069607146E+04  0.12069607146E+04  0.00000000000E+00 0. -1.
         21   -1    0    0  501  503 -0.00000000000E+00 -0.00000000000E+00 -0.11522886312E+04  0.11522886312E+04  0.00000000000E+00 0. -1.
    9000010    2    1    2  501    0  0.29636380640E+03  0.41771725267E+03 -0.36346463241E+03  0.11559181785E+04  0.97042314863E+03 0.  0.
   -9000010    2    1    2    0  502 -0.29636380640E+03 -0.41771725267E+03  0.41813671578E+03  0.12033311673E+04  0.10054095564E+04 0.  0.
        -13    1    3    3    0    0 -0.22405215561E+02 -0.29058566427E+03  0.15117495872E+02  0.29183997637E+03  0.10566000000E+00 0.  1.
          4    1    3    3  501    0  0.31876902196E+03  0.70830291693E+03 -0.37858212828E+03  0.86407820211E+03  0.00000000000E+00 0.  1.
         13    1    4    4    0    0  0.12949925958E+03 -0.52408876255E+03  0.52341865178E+03  0.75193496092E+03  0.10566000000E+00 0. -1.
         -4    1    4    4    0  502 -0.42586306599E+03  0.10637150988E+03 -0.10528193599E+03  0.45139620638E+03  0.00000000000E+00 0. -1.
<mgrwt>
<rscale>  2 0.11205009E+04</rscale>
<asrwt>0</asrwt>
<pdfrwt beam="1">  1       21 0.18568626E+00 0.11283473E+04</pdfrwt>
<pdfrwt beam="2">  1       21 0.17727517E+00 0.11283473E+04</pdfrwt>
<totfact> 0.13455281E+01</totfact>
</mgrwt>
</event>
<event>
 8    1  0.5815007E-006  0.1209627E+04  0.7818608E-02  0.8605063E-01
         21   -1    0    0  501  502  0.00000000000E+00  0.00000000000E+00  0.21590322389E+04  0.21590322389E+04  0.00000000000E+00 0. -1.
         21   -1    0    0  502  503 -0.00000000000E+00 -0.00000000000E+00 -0.74254578908E+03  0.74254578908E+03  0.00000000000E+00 0. -1.
   -9000010    2    1    2    0  503  0.54249355699E+03 -0.28680748635E+03  0.11973540766E+04  0.17020147562E+04  0.10424200939E+04 0.  0.
    9000010    2    1    2  501    0 -0.54249355699E+03  0.28680748635E+03  0.21913237327E+03  0.11995632717E+04  0.10071619792E+04 0.  0.
        -13    1    4    4    0    0  0.20311664583E+03  0.34963658134E+03  0.19988970154E+03  0.45106320485E+03  0.10566000000E+00 0.  1.
          4    1    4    4  501    0 -0.74561020282E+03 -0.62829094992E+02  0.19242671727E+02  0.74850006690E+03  0.00000000000E+00 0.  1.
         13    1    3    3    0    0  0.22591607655E+03 -0.62527606781E+03  0.99416808887E+03  0.11959842953E+04  0.10566000000E+00 0. -1.
         -4    1    3    3    0  503  0.31657748043E+03  0.33846858146E+03  0.20318598768E+03  0.50603046089E+03  0.00000000000E+00 0. -1.
<mgrwt>
<rscale>  2 0.12019928E+04</rscale>
<asrwt>0</asrwt>
<pdfrwt beam="1">  1       21 0.33215880E+00 0.12096270E+04</pdfrwt>
<pdfrwt beam="2">  1       21 0.11423781E+00 0.12096270E+04</pdfrwt>
<totfact> 0.42190272E+00</totfact>
</mgrwt>
</event>
<event>
 8    1  0.5815007E-006  0.1145323E+04  0.7818608E-02  0.8650617E-01
         21   -1    0    0  503  502  0.00000000000E+00  0.00000000000E+00  0.86231560695E+03  0.86231560695E+03  0.00000000000E+00 0.  1.
         21   -1    0    0  501  503 -0.00000000000E+00 -0.00000000000E+00 -0.15123561282E+04  0.15123561282E+04  0.00000000000E+00 0.  1.
    9000010    2    1    2  501    0  0.22905321234E+03 -0.51479340068E+03 -0.27858756972E+03  0.11787176136E+04  0.99713918741E+03 0.  0.
   -9000010    2    1    2    0  502 -0.22905321234E+03  0.51479340068E+03 -0.37145295149E+03  0.11959541215E+04  0.98734560626E+03 0.  0.
        -13    1    3    3    0    0  0.14103744349E+03 -0.78703964303E+03 -0.30724934059E+02  0.80016685317E+03  0.10566000000E+00 0.  1.
          4    1    3    3  501    0  0.88015768859E+02  0.27224624235E+03 -0.24786263566E+03  0.37855076040E+03  0.00000000000E+00 0.  1.
         13    1    4    4    0    0 -0.16536556045E+03 -0.11779075060E+03 -0.50677389081E+03  0.54593059731E+03  0.10566000000E+00 0. -1.
         -4    1    4    4    0  502 -0.63687651890E+02  0.63258415127E+03  0.13532093932E+03  0.65002352424E+03  0.00000000000E+00 0. -1.
<mgrwt>
<rscale>  2 0.11431877E+04</rscale>
<asrwt>0</asrwt>
<pdfrwt beam="1">  1       21 0.13266394E+00 0.11453227E+04</pdfrwt>
<pdfrwt beam="2">  1       21 0.23267017E+00 0.11453227E+04</pdfrwt>
<totfact> 0.14421457E+01</totfact>
</mgrwt>
</event>
<event>
 8    1  0.5815007E-006  0.1114630E+04  0.7818608E-02  0.8676934E-01
         21   -1    0    0  503  502  0.00000000000E+00  0.00000000000E+00  0.16012303352E+04  0.16012303352E+04  0.00000000000E+00 0.  1.
         21   -1    0    0  501  503 -0.00000000000E+00 -0.00000000000E+00 -0.76736114305E+03  0.76736114305E+03  0.00000000000E+00 0.  1.
    9000010    2    1    2  501    0 -0.20527037489E+03  0.42246849301E+03  0.35918815503E+03  0.11710749329E+04  0.10108337219E+04 0.  0.
   -9000010    2    1    2    0  502  0.20527037489E+03 -0.42246849301E+03  0.47468103716E+03  0.11975165454E+04  0.99403633485E+03 0.  0.
        -13    1    3    3    0    0 -0.11884762225E+03  0.32822024712E+03  0.71354323721E+03  0.79435335365E+03  0.10566000000E+00 0.  1.
          4    1    3    3  501    0 -0.86422752635E+02  0.94248245889E+02 -0.35435508217E+03  0.37672157927E+03  0.00000000000E+00 0.  1.
         13    1    4    4    0    0  0.47714801617E+03  0.11094712382E+03  0.13063142251E+03  0.50699514132E+03  0.10566000000E+00 0. -1.
         -4    1    4    4    0  502 -0.27187764128E+03 -0.53341561682E+03  0.34404961466E+03  0.69052140404E+03  0.00000000000E+00 0. -1.
<mgrwt>
<rscale>  2 0.11108079E+04</rscale>
<asrwt>0</asrwt>
<pdfrwt beam="1">  1       21 0.24634313E+00 0.11146301E+04</pdfrwt>
<pdfrwt beam="2">  1       21 0.11805556E+00 0.11146301E+04</pdfrwt>
<totfact> 0.16052090E+01</totfact>
</mgrwt>
</event>
<event>
 8    1  0.5815007E-006  0.1252487E+04  0.7818608E-02  0.8569611E-01
         21   -1    0    0  501  502  0.00000000000E+00  0.00000000000E+00  0.14002012993E+04  0.14002012993E+04  0.00000000000E+00 0.  1.
         21   -1    0    0  502  503 -0.00000000000E+00 -0.00000000000E+00 -0.13472965159E+04  0.13472965159E+04  0.00000000000E+00 0.  1.
   -9000010    2    1    2    0  503 -0.59450348561E+03  0.46727913547E+03 -0.54682818357E+03  0.13666542793E+04  0.99846816268E+03 0.  0.
    9000010    2    1    2  501    0  0.59450348561E+03 -0.46727913547E+03  0.59973296695E+03  0.13808435359E+04  0.98755508921E+03 0.  0.
        -13    1    4    4    0    0  0.55131226552E+03 -0.61105252892E+02 -0.10666688689E+03  0.56485122109E+03  0.10566000000E+00 0.  1.
          4    1    4    4  501    0  0.43191220088E+02 -0.40617388257E+03  0.70639985384E+03  0.81599231484E+03  0.00000000000E+00 0.  1.
         13    1    3    3    0    0 -0.43505894170E+03 -0.12105625235E+03 -0.60429934748E+03  0.75439287610E+03  0.10566000000E+00 0. -1.
         -4    1    3    3    0  503 -0.15944454391E+03  0.58833538781E+03  0.57471163912E+02  0.61226140317E+03  0.00000000000E+00 0. -1.
<mgrwt>
<rscale>  2 0.12503104E+04</rscale>
<asrwt>0</asrwt>
<pdfrwt beam="1">  1       21 0.21541558E+00 0.12524867E+04</pdfrwt>
<pdfrwt beam="2">  1       21 0.20727639E+00 0.12524867E+04</pdfrwt>
<totfact> 0.44287469E+00</totfact>
</mgrwt>
</event>
<event>
 8    1  0.5815007E-006  0.1560122E+04  0.7818608E-02  0.8379471E-01
         21   -1    0    0  501  502  0.00000000000E+00  0.00000000000E+00  0.14849739156E+04  0.14849739156E+04  0.00000000000E+00 0. -1.
         21   -1    0    0  502  503 -0.00000000000E+00 -0.00000000000E+00 -0.16390140776E+04  0.16390140776E+04  0.00000000000E+00 0. -1.
   -9000010    2    1    2    0  503 -0.34972711787E+03 -0.11214189863E+04 -0.28164916082E+03  0.15586561737E+04  0.98498386698E+03 0.  0.
    9000010    2    1    2  501    0  0.34972711787E+03  0.11214189863E+04  0.12760899886E+03  0.15653318196E+04  0.10266888765E+04 0.  0.
        -13    1    4    4    0    0  0.44858566577E+03  0.12098889003E+04 -0.10805915866E+03  0.12948888151E+04  0.10566000000E+00 0.  1.
          4    1    4    4  501    0 -0.98858547903E+02 -0.88469914036E+02  0.23566815753E+03  0.27044300445E+03  0.00000000000E+00 0.  1.
         13    1    3    3    0    0  0.53825195573E+02 -0.13977209562E+03  0.30945370593E+03  0.34379499367E+03  0.10566000000E+00 0. -1.
         -4    1    3    3    0  503 -0.40355231344E+03 -0.98164689064E+03 -0.59110286676E+03  0.12148611800E+04  0.00000000000E+00 0. -1.
<mgrwt>
<rscale>  2 0.15532961E+04</rscale>
<asrwt>0</asrwt>
<pdfrwt beam="1">  1       21 0.22845753E+00 0.15601217E+04</pdfrwt>
<pdfrwt beam="2">  1       21 0.25215601E+00 0.15601217E+04</pdfrwt>
<totfact> 0.15380611E+00</totfact>
</mgrwt>
</event>
<event>
 8    1  0.5815007E-006  0.1283092E+04  0.7818608E-02  0.8552015E-01
         21   -1    0    0  501  502  0.00000000000E+00  0.00000000000E+00  0.15414300162E+04  0.15414300162E+04  0.00000000000E+00 0. -1.
         21   -1    0    0  502  503 -0.00000000000E+00 -0.00000000000E+00 -0.11912085516E+04  0.11912085516E+04  0.00000000000E+00 0. -1.
   -9000010    2    1    2    0  503  0.27847294334E+03  0.74217807681E+03 -0.30643870547E+03  0.13191779273E+04  0.10089352040E+04 0.  0.
    9000010    2    1    2  501    0 -0.27847294334E+03 -0.74217807681E+03  0.65666017008E+03  0.14134606406E+04  0.96865521501E+03 0.  0.
        -13    1    4    4    0    0  0.16773171183E+02 -0.22359409969E+03  0.77353957390E+03  0.80538136571E+03  0.10566000000E+00 0.  1.
          4    1    4    4  501    0 -0.29524611452E+03 -0.51858397712E+03 -0.11687940382E+03  0.60807927485E+03  0.00000000000E+00 0.  1.
         13    1    3    3    0    0  0.10853098189E+03  0.44581409866E+03  0.35138849732E+03  0.57792998867E+03  0.10566000000E+00 0. -1.
         -4    1    3    3    0  503  0.16994196144E+03  0.29636397815E+03 -0.65782720280E+03  0.74124793865E+03  0.00000000000E+00 0. -1.
<mgrwt>
<rscale>  2 0.12751625E+04</rscale>
<asrwt>0</asrwt>
<pdfrwt beam="1">  1       21 0.23714308E+00 0.12830923E+04</pdfrwt>
<pdfrwt beam="2">  1       21 0.18326285E+00 0.12830923E+04</pdfrwt>
<totfact> 0.46850798E+00</totfact>
</mgrwt>
</event>
<event>
 8    1  0.5815007E-006  0.1616057E+04  0.7818608E-02  0.8350271E-01
         21   -1    0    0  501  502  0.00000000000E+00  0.00000000000E+00  0.18275986708E+04  0.18275986708E+04  0.00000000000E+00 0. -1.
         21   -1    0    0  502  503 -0.00000000000E+00 -0.00000000000E+00 -0.14395382814E+04  0.14395382814E+04  0.00000000000E+00 0. -1.
   -9000010    2    1    2    0  503  0.76009118085E+03  0.95569607057E+03 -0.79501377630E+02  0.16180116292E+04  0.10585592004E+04 0.  0.
    9000010    2    1    2  501    0 -0.76009118085E+03 -0.95569607057E+03  0.46756176710E+03  0.16491253230E+04  0.10049411637E+04 0.  0.
        -13    1    4    4    0    0 -0.27766961237E+03 -0.10495712920E+04  0.26503630556E+03  0.11175618842E+04  0.10566000000E+00 0.  1.
          4    1    4    4  501    0 -0.48242156848E+03  0.93875221403E+02  0.20252546154E+03  0.53156343883E+03  0.00000000000E+00 0.  1.
         13    1    3    3    0    0  0.40586726100E+03  0.11328471932E+04 -0.15973747671E+03  0.12139139464E+04  0.10566000000E+00 0. -1.
         -4    1    3    3    0  503  0.35422391986E+03 -0.17715112262E+03  0.80236099082E+02  0.40409768280E+03  0.00000000000E+00 0. -1.
<mgrwt>
<rscale>  2 0.16073364E+04</rscale>
<asrwt>0</asrwt>
<pdfrwt beam="1">  1       21 0.28116903E+00 0.16160573E+04</pdfrwt>
<pdfrwt beam="2">  1       21 0.22146743E+00 0.16160573E+04</pdfrwt>
<totfact> 0.10619763E+00</totfact>
</mgrwt>
</event>
<event>
 8    1  0.5815007E-006  0.1134439E+04  0.7818608E-02  0.8657736E-01
         21   -1    0    0  503  502  0.00000000000E+00  0.00000000000E+00  0.23532421286E+04  0.23532421286E+04  0.00000000000E+00 0. -1.
         21   -1    0    0  501  503 -0.00000000000E+00 -0.00000000000E+00 -0.55832656115E+03  0.55832656115E+03  0.00000000000E+00 0. -1.
    9000010    2    1    2  501    0 -0.65077510508E+02 -0.52133668097E+03  0.68672521769E+03  0.13256816922E+04  0.10048947244E+04 0.  0.
   -9000010    2    1    2    0  502  0.65077510508E+02  0.52133668097E+03  0.11081903498E+04  0.15858869975E+04  0.10054475125E+04 0.  0.
        -13    1    3    3    0    0 -0.67673830204E+02  0.14203149317E+03 -0.17686398375E+03  0.23671411504E+03  0.10566000000E+00 0.  1.
          4    1    3    3  501    0  0.25963196958E+01 -0.66336817414E+03  0.86358920144E+03  0.10889675772E+04  0.00000000000E+00 0.  1.
         13    1    4    4    0    0 -0.54563098539E+02  0.24224567349E+03 -0.15098591698E+03  0.29061461825E+03  0.10566000000E+00 0. -1.
         -4    1    4    4    0  502  0.11964060905E+03  0.27909100748E+03  0.12591762668E+04  0.12952723793E+04  0.00000000000E+00 0. -1.
<mgrwt>
<rscale>  2 0.11343164E+04</rscale>
<asrwt>0</asrwt>
<pdfrwt beam="1">  1       21 0.36203725E+00 0.11344389E+04</pdfrwt>
<pdfrwt beam="2">  1       21 0.85896395E-01 0.11344389E+04</pdfrwt>
<totfact> 0.55926989E+00</totfact>
</mgrwt>
</event>
<event>
 8    1  0.5815007E-006  0.1646779E+04  0.7818608E-02  0.8329990E-01
         21   -1    0    0  503  502  0.00000000000E+00  0.00000000000E+00  0.15612139678E+04  0.15612139678E+04  0.00000000000E+00 0.  1.
         21   -1    0    0  501  503 -0.00000000000E+00 -0.00000000000E+00 -0.21416124630E+04  0.21416124630E+04  0.00000000000E+00 0. -1.
    9000010    2    1    2  501    0  0.12466912188E+04 -0.39337118536E+03 -0.10971151044E+04  0.19768840862E+04  0.99771200936E+03 0.  0.
   -9000010    2    1    2    0  502 -0.12466912188E+04  0.39337118536E+03  0.51671660920E+03  0.17259423447E+04  0.10014494687E+04 0.  0.
        -13    1    3    3    0    0 -0.12715960759E+02 -0.25491653330E+03 -0.53101896108E+03  0.58917338942E+03  0.10566000000E+00 0.  1.
          4    1    3    3  501    0  0.12594071795E+04 -0.13845465207E+03 -0.56609614332E+03  0.13877106968E+04  0.00000000000E+00 0.  1.
         13    1    4    4    0    0 -0.79411956903E+03 -0.27314161847E+03  0.29870302337E+03  0.89132246745E+03  0.10566000000E+00 0. -1.
         -4    1    4    4    0  502 -0.45257164976E+03  0.66651280383E+03  0.21801358583E+03  0.83461987721E+03  0.00000000000E+00 0. -1.
<mgrwt>
<rscale>  2 0.16462111E+04</rscale>
<asrwt>0</asrwt>
<pdfrwt beam="1">  1       21 0.24018677E+00 0.16467790E+04</pdfrwt>
<pdfrwt beam="2">  1       21 0.32947884E+00 0.16467790E+04</pdfrwt>
<totfact> 0.34810464E-01</totfact>
</mgrwt>
</event>
<event>
 8    1  0.5815007E-006  0.1081226E+04  0.7818608E-02  0.8708985E-01
         21   -1    0    0  503  502  0.00000000000E+00  0.00000000000E+00  0.88774523919E+03  0.88774523919E+03  0.00000000000E+00 0. -1.
         21   -1    0    0  501  503 -0.00000000000E+00 -0.00000000000E+00 -0.15095381636E+04  0.15095381636E+04  0.00000000000E+00 0. -1.
    9000010    2    1    2  501    0  0.41845120181E+03  0.50184435099E+02 -0.77728298821E+03  0.13049345379E+04  0.95972153184E+03 0.  0.
   -9000010    2    1    2    0  502 -0.41845120181E+03 -0.50184435099E+02  0.15549006378E+03  0.10923488649E+04  0.99570527610E+03 0.  0.
        -13    1    3    3    0    0 -0.40042376519E+02 -0.37573803761E+03 -0.11782876027E+03  0.39581067790E+03  0.10566000000E+00 0.  1.
          4    1    3    3  501    0  0.45849357833E+03  0.42592247271E+03 -0.65945422794E+03  0.90912386003E+03  0.00000000000E+00 0.  1.
         13    1    4    4    0    0  0.28654040837E+03  0.17997912092E+03  0.24537717771E+02  0.33926390960E+03  0.10566000000E+00 0. -1.
         -4    1    4    4    0  502 -0.70499161018E+03 -0.23016355602E+03  0.13095234601E+03  0.75308495528E+03  0.00000000000E+00 0. -1.
<mgrwt>
<rscale>  2 0.10728683E+04</rscale>
<asrwt>0</asrwt>
<pdfrwt beam="1">  1       21 0.13657619E+00 0.10812256E+04</pdfrwt>
<pdfrwt beam="2">  1       21 0.23223664E+00 0.10812256E+04</pdfrwt>
<totfact> 0.13526415E+01</totfact>
</mgrwt>
</event>
<event>
 8    1  0.5815007E-006  0.1073531E+04  0.7818608E-02  0.8710022E-01
         21   -1    0    0  503  502  0.00000000000E+00  0.00000000000E+00  0.60014171133E+03  0.60014171133E+03  0.00000000000E+00 0.  1.
         21   -1    0    0  501  503 -0.00000000000E+00 -0.00000000000E+00 -0.19338920690E+04  0.19338920690E+04  0.00000000000E+00 0.  1.
    9000010    2    1    2  501    0  0.45032192971E+02  0.37544436891E+03 -0.81387038601E+03  0.13412453902E+04  0.99677872118E+03 0.  0.
   -9000010    2    1    2    0  502 -0.45032192971E+02 -0.37544436891E+03 -0.51987997171E+03  0.11927883902E+04  0.10047301061E+04 0.  0.
        -13    1    3    3    0    0  0.15561379504E+02 -0.27496303740E+03 -0.59282062809E+03  0.65366898100E+03  0.10566000000E+00 0.  1.
          4    1    3    3  501    0  0.29470813467E+02  0.65040740631E+03 -0.22104975792E+03  0.68757640922E+03  0.00000000000E+00 0.  1.
         13    1    4    4    0    0  0.33168678571E+03 -0.55027326492E+03 -0.41351044220E+03  0.76407309000E+03  0.10566000000E+00 0. -1.
         -4    1    4    4    0  502 -0.37671897868E+03  0.17482889600E+03 -0.10636952951E+03  0.42871530015E+03  0.00000000000E+00 0. -1.
<mgrwt>
<rscale>  2 0.10716667E+04</rscale>
<asrwt>0</asrwt>
<pdfrwt beam="1">  1       21 0.92329494E-01 0.10735311E+04</pdfrwt>
<pdfrwt beam="2">  1       21 0.29752186E+00 0.10735311E+04</pdfrwt>
<totfact> 0.13380204E+01</totfact>
</mgrwt>
</event>
<event>
 8    1  0.5815007E-006  0.1155531E+04  0.7818608E-02  0.8643029E-01
         21   -1    0    0  503  502  0.00000000000E+00  0.00000000000E+00  0.20434519130E+04  0.20434519130E+04  0.00000000000E+00 0. -1.
         21   -1    0    0  501  503 -0.00000000000E+00 -0.00000000000E+00 -0.65026177223E+03  0.65026177223E+03  0.00000000000E+00 0. -1.
    9000010    2    1    2  501    0  0.56747321235E+03 -0.75085306596E+02  0.78644188241E+03  0.13885722418E+04  0.99094822584E+03 0.  0.
   -9000010    2    1    2    0  502 -0.56747321235E+03  0.75085306596E+02  0.60674825832E+03  0.13051414434E+04  0.10037863758E+04 0.  0.
        -13    1    3    3    0    0  0.56269712852E+03  0.25681481689E+03  0.84937605995E+03  0.10507243268E+04  0.10566000000E+00 0.  1.
          4    1    3    3  501    0  0.47760838289E+01 -0.33190012349E+03 -0.62934177541E+02  0.33784791497E+03  0.00000000000E+00 0.  1.
         13    1    4    4    0    0  0.17015446264E+03  0.23215009807E+03 -0.65121764159E+02  0.29510517536E+03  0.10566000000E+00 0. -1.
         -4    1    4    4    0  502 -0.73762767499E+03 -0.15706479147E+03  0.67187002248E+03  0.10100362680E+04  0.00000000000E+00 0. -1.
<mgrwt>
<rscale>  2 0.11527367E+04</rscale>
<asrwt>0</asrwt>
<pdfrwt beam="1">  1       21 0.31437721E+00 0.11555305E+04</pdfrwt>
<pdfrwt beam="2">  1       21 0.10004027E+00 0.11555305E+04</pdfrwt>
<totfact> 0.81296244E+00</totfact>
</mgrwt>
</event>
<event>
 8    1  0.5815007E-006  0.1169306E+04  0.7818608E-02  0.8630790E-01
         21   -1    0    0  501  502  0.00000000000E+00  0.00000000000E+00  0.10108804109E+04  0.10108804109E+04  0.00000000000E+00 0.  1.
         21   -1    0    0  502  503 -0.00000000000E+00 -0.00000000000E+00 -0.13796325323E+04  0.13796325323E+04  0.00000000000E+00 0. -1.
   -9000010    2    1    2    0  503 -0.51075661777E+03  0.31346458133E+03 -0.34231188573E+01  0.11654656013E+04  0.99958290483E+03 0.  0.
    9000010    2    1    2  501    0  0.51075661777E+03 -0.31346458133E+03 -0.36532900249E+03  0.12250473420E+04  0.10040634161E+04 0.  0.
        -13    1    4    4    0    0  0.80499480886E+03 -0.32957092123E+03 -0.32031970328E+03  0.92695110868E+03  0.10566000000E+00 0.  1.
          4    1    4    4  501    0 -0.29423819109E+03  0.16106339902E+02 -0.45009299206E+02  0.29809623328E+03  0.00000000000E+00 0.  1.
         13    1    3    3    0    0 -0.82235290434E+02  0.14289990381E+03 -0.47682990391E+03  0.50452927956E+03  0.10566000000E+00 0. -1.
         -4    1    3    3    0  503 -0.42852132733E+03  0.17056467751E+03  0.47340678506E+03  0.66093632169E+03  0.00000000000E+00 0. -1.
<mgrwt>
<rscale>  2 0.11683432E+04</rscale>
<asrwt>0</asrwt>
<pdfrwt beam="1">  1       21 0.15552006E+00 0.11693057E+04</pdfrwt>
<pdfrwt beam="2">  1       21 0.21225116E+00 0.11693057E+04</pdfrwt>
<totfact> 0.12634155E+01</totfact>
</mgrwt>
</event>
<event>
 8    1  0.5815007E-006  0.1567781E+04  0.7818608E-02  0.8372240E-01
         21   -1    0    0  503  502  0.00000000000E+00  0.00000000000E+00  0.15562376172E+04  0.15562376172E+04  0.00000000000E+00 0.  1.
         21   -1    0    0  501  503 -0.00000000000E+00 -0.00000000000E+00 -0.17543363278E+04  0.17543363278E+04  0.00000000000E+00 0.  1.
    9000010    2    1    2  501    0 -0.81305557752E+03 -0.86718859246E+03 -0.62969723338E+03  0.16895134508E+04  0.10221847522E+04 0.  0.
   -9000010    2    1    2    0  502  0.81305557752E+03  0.86718859246E+03  0.43159852285E+03  0.16210604942E+04  0.10141422060E+04 0.  0.
        -13    1    3    3    0    0  0.33278056515E+02 -0.48570427989E+03  0.11400838366E+03  0.50001399907E+03  0.10566000000E+00 0.  1.
          4    1    3    3  501    0 -0.84633363404E+03 -0.38148431256E+03 -0.74370561704E+03  0.11894994517E+04  0.00000000000E+00 0.  1.
         13    1    4    4    0    0  0.42740794415E+03  0.10019987770E+04  0.51364568033E+03  0.12043716187E+04  0.10566000000E+00 0. -1.
         -4    1    4    4    0  502  0.38564763337E+03 -0.13481018451E+03 -0.82047157480E+02  0.41668887557E+03  0.00000000000E+00 0. -1.
<mgrwt>
<rscale>  2 0.15664714E+04</rscale>
<asrwt>0</asrwt>
<pdfrwt beam="1">  1       21 0.23942117E+00 0.15677809E+04</pdfrwt>
<pdfrwt beam="2">  1       21 0.26989790E+00 0.15677809E+04</pdfrwt>
<totfact> 0.94683587E-01</totfact>
</mgrwt>
</event>
<event>
 8    1  0.5815007E-006  0.1216326E+04  0.7818608E-02  0.8626402E-01
         21   -1    0    0  501  502  0.00000000000E+00  0.00000000000E+00  0.96695885308E+03  0.96695885308E+03  0.00000000000E+00 0.  1.
         21   -1    0    0  502  503 -0.00000000000E+00 -0.00000000000E+00 -0.13346705077E+04  0.13346705077E+04  0.00000000000E+00 0.  1.
   -9000010    2    1    2    0  503 -0.48014080284E+02 -0.53062724455E+03 -0.18698367079E+03  0.12306141398E+04  0.10934247315E+04 0.  0.
    9000010    2    1    2  501    0  0.48014080284E+02  0.53062724455E+03 -0.18072798378E+03  0.10710152209E+04  0.91133987886E+03 0.  0.
        -13    1    4    4    0    0  0.14385325543E+03  0.59943778814E+03 -0.45912803828E+03  0.76864685496E+03  0.10566000000E+00 0.  1.
          4    1    4    4  501    0 -0.95839175148E+02 -0.68810543588E+02  0.27840005449E+03  0.30236836598E+03  0.00000000000E+00 0.  1.
         13    1    3    3    0    0  0.39380555124E+03  0.11260744740E+03  0.55777878879E+02  0.41336960741E+03  0.10566000000E+00 0. -1.
         -4    1    3    3    0  503 -0.44181963152E+03 -0.64323469195E+03 -0.24276154967E+03  0.81724453239E+03  0.00000000000E+00 0. -1.
<mgrwt>
<rscale>  2 0.11740000E+04</rscale>
<asrwt>0</asrwt>
<pdfrwt beam="1">  1       21 0.14876290E+00 0.12163257E+04</pdfrwt>
<pdfrwt beam="2">  1       21 0.20533392E+00 0.12163257E+04</pdfrwt>
<totfact> 0.16242633E+01</totfact>
</mgrwt>
</event>
<event>
 8    1  0.5815007E-006  0.1038903E+04  0.7818608E-02  0.8748033E-01
         21   -1    0    0  501  502  0.00000000000E+00  0.00000000000E+00  0.30557326240E+04  0.30557326240E+04  0.00000000000E+00 0.  1.
         21   -1    0    0  502  503 -0.00000000000E+00 -0.00000000000E+00 -0.35090171253E+03  0.35090171253E+03  0.00000000000E+00 0.  1.
   -9000010    2    1    2    0  503 -0.16681123178E+03  0.19505099284E+03  0.10230345418E+04  0.14298292155E+04  0.96537093124E+03 0.  0.
    9000010    2    1    2  501    0  0.16681123178E+03 -0.19505099284E+03  0.16817963697E+04  0.19768051210E+04  0.10067018331E+04 0.  0.
        -13    1    4    4    0    0  0.87915178153E+02 -0.53952592966E+03  0.49134879220E+03  0.73501085304E+03  0.10566000000E+00 0.  1.
          4    1    4    4  501    0  0.78896053622E+02  0.34447493682E+03  0.11904475775E+04  0.12417942680E+04  0.00000000000E+00 0.  1.
         13    1    3    3    0    0  0.43682986100E+02 -0.31507190283E+03  0.74888517917E+03  0.81363845163E+03  0.10566000000E+00 0. -1.
         -4    1    3    3    0  503 -0.21049421788E+03  0.51012289567E+03  0.27414936266E+03  0.61619076388E+03  0.00000000000E+00 0. -1.
<mgrwt>
<rscale>  2 0.10287559E+04</rscale>
<asrwt>0</asrwt>
<pdfrwt beam="1">  1       21 0.47011269E+00 0.10389030E+04</pdfrwt>
<pdfrwt beam="2">  1       21 0.53984881E-01 0.10389030E+04</pdfrwt>
<totfact> 0.30299919E+00</totfact>
</mgrwt>
</event>
<event>
 8    1  0.5815007E-006  0.1241578E+04  0.7818608E-02  0.8576434E-01
         21   -1    0    0  503  502  0.00000000000E+00  0.00000000000E+00  0.12544730371E+04  0.12544730371E+04  0.00000000000E+00 0. -1.
         21   -1    0    0  501  503 -0.00000000000E+00 -0.00000000000E+00 -0.14750983933E+04  0.14750983933E+04  0.00000000000E+00 0. -1.
    9000010    2    1    2  501    0 -0.11832942383E+03 -0.72498479821E+03 -0.67119903572E+03  0.14087637537E+04  0.99724739059E+03 0.  0.
   -9000010    2    1    2    0  502  0.11832942383E+03  0.72498479821E+03  0.45057367952E+03  0.13208076767E+04  0.10009552777E+04 0.  0.
        -13    1    3    3    0    0 -0.49900611560E+03 -0.11897078807E+03 -0.36898390420E+03  0.63191002884E+03  0.10566000000E+00 0.  1.
          4    1    3    3  501    0  0.38067669176E+03 -0.60601401014E+03 -0.30221513152E+03  0.77685372488E+03  0.00000000000E+00 0.  1.
         13    1    4    4    0    0  0.13460855144E+02  0.40227433346E+03 -0.29674355748E+03  0.50006258013E+03  0.10566000000E+00 0. -1.
         -4    1    4    4    0  502  0.10486856869E+03  0.32271046476E+03  0.74731723700E+03  0.82074509653E+03  0.00000000000E+00 0. -1.
<mgrwt>
<rscale>  2 0.12408306E+04</rscale>
<asrwt>0</asrwt>
<pdfrwt beam="1">  1       21 0.19299585E+00 0.12415781E+04</pdfrwt>
<pdfrwt beam="2">  1       21 0.22693821E+00 0.12415781E+04</pdfrwt>
<totfact> 0.46998213E+00</totfact>
</mgrwt>
</event>
<event>
 8    1  0.5815007E-006  0.1161875E+04  0.7818608E-02  0.8642282E-01
         21   -1    0    0  503  502  0.00000000000E+00  0.00000000000E+00  0.91739328515E+03  0.91739328515E+03  0.00000000000E+00 0.  1.
         21   -1    0    0  501  503 -0.00000000000E+00 -0.00000000000E+00 -0.14319653103E+04  0.14319653103E+04  0.00000000000E+00 0.  1.
    9000010    2    1    2  501    0  0.46618729332E+03  0.36336690623E+03 -0.28823428608E+03  0.11656433833E+04  0.96243409767E+03 0.  0.
   -9000010    2    1    2    0  502 -0.46618729332E+03 -0.36336690623E+03 -0.22633773905E+03  0.11837152121E+04  0.10002933721E+04 0.  0.
        -13    1    3    3    0    0 -0.28379936444E+03  0.98487707814E+02 -0.20977025309E+03  0.36639524846E+03  0.10566000000E+00 0.  1.
          4    1    3    3  501    0  0.74998665776E+03  0.26487919842E+03 -0.78464032991E+02  0.79924813484E+03  0.00000000000E+00 0.  1.
         13    1    4    4    0    0  0.93717707542E+02 -0.20401043573E+03 -0.49427518702E+03  0.54287313275E+03  0.10566000000E+00 0. -1.
         -4    1    4    4    0  502 -0.55990500086E+03 -0.15935647050E+03  0.26793744797E+03  0.64084207938E+03  0.00000000000E+00 0. -1.
<mgrwt>
<rscale>  2 0.11536810E+04</rscale>
<asrwt>0</asrwt>
<pdfrwt beam="1">  1       21 0.14113743E+00 0.11618747E+04</pdfrwt>
<pdfrwt beam="2">  1       21 0.22030235E+00 0.11618747E+04</pdfrwt>
<totfact> 0.14805984E+01</totfact>
</mgrwt>
</event>
<event>
 8    1  0.5815007E-006  0.1018636E+04  0.7818608E-02  0.8762776E-01
         21   -1    0    0  503  502  0.00000000000E+00  0.00000000000E+00  0.80560943734E+03  0.80560943734E+03  0.00000000000E+00 0. -1.
         21   -1    0    0  501  503 -0.00000000000E+00 -0.00000000000E+00 -0.12582930203E+04  0.12582930203E+04  0.00000000000E+00 0. -1.
    9000010    2    1    2  501    0 -0.32981907485E+02 -0.19315079543E+03 -0.23406105336E+03  0.10451808427E+04  0.99961161517E+03 0.  0.
   -9000010    2    1    2    0  502  0.32981907485E+02  0.19315079543E+03 -0.21862252955E+03  0.10187216149E+04  0.97550134920E+03 0.  0.
        -13    1    3    3    0    0 -0.44610503741E+03 -0.19390054537E+03  0.12009867072E+03  0.50102976735E+03  0.10566000000E+00 0.  1.
          4    1    3    3  501    0  0.41312312993E+03  0.74974993945E+00 -0.35415972408E+03  0.54415107532E+03  0.00000000000E+00 0.  1.
         13    1    4    4    0    0  0.29275305937E+03  0.44446809172E+03  0.94459467241E+02  0.54053569765E+03  0.10566000000E+00 0. -1.
         -4    1    4    4    0  502 -0.25977115188E+03 -0.25131729629E+03 -0.31308199679E+03  0.47818591727E+03  0.00000000000E+00 0. -1.
<mgrwt>
<rscale>  2 0.10126711E+04</rscale>
<asrwt>0</asrwt>
<pdfrwt beam="1">  1       21 0.12393991E+00 0.10186356E+04</pdfrwt>
<pdfrwt beam="2">  1       21 0.19358354E+00 0.10186356E+04</pdfrwt>
<totfact> 0.35834720E+01</totfact>
</mgrwt>
</event>
<event>
 8    1  0.5815007E-006  0.1047320E+04  0.7818608E-02  0.8733345E-01
         21   -1    0    0  503  502  0.00000000000E+00  0.00000000000E+00  0.44458256311E+03  0.44458256311E+03  0.00000000000E+00 0.  1.
         21   -1    0    0  501  503 -0.00000000000E+00 -0.00000000000E+00 -0.24462751116E+04  0.24462751116E+04  0.00000000000E+00 0.  1.
    9000010    2    1    2  501    0  0.16646574902E+03  0.22399436106E+03 -0.10038399294E+04  0.14507146136E+04  0.10094523104E+04 0.  0.
   -9000010    2    1    2    0  502 -0.16646574902E+03 -0.22399436106E+03 -0.99785261904E+03  0.14401430610E+04  0.10002089119E+04 0.  0.
        -13    1    3    3    0    0  0.12877484144E+03 -0.97746412152E+02 -0.11007729634E+04  0.11125818842E+04  0.10566000000E+00 0.  1.
          4    1    3    3  501    0  0.37690907578E+02  0.32174077321E+03  0.96933034003E+02  0.33813272947E+03  0.00000000000E+00 0.  1.
         13    1    4    4    0    0 -0.44887381889E+02 -0.62089724078E+03 -0.57099983825E+03  0.84473018598E+03  0.10566000000E+00 0. -1.
         -4    1    4    4    0  502 -0.12157836713E+03  0.39690287973E+03 -0.42685278079E+03  0.59541287503E+03  0.00000000000E+00 0. -1.
<mgrwt>
<rscale>  2 0.10450859E+04</rscale>
<asrwt>0</asrwt>
<pdfrwt beam="1">  1       21 0.68397317E-01 0.10473196E+04</pdfrwt>
<pdfrwt beam="2">  1       21 0.37635002E+00 0.10473196E+04</pdfrwt>
<totfact> 0.78574443E+00</totfact>
</mgrwt>
</event>
<event>
 8    1  0.5815007E-006  0.1059022E+04  0.7818608E-02  0.8727771E-01
         21   -1    0    0  503  502  0.00000000000E+00  0.00000000000E+00  0.71081075525E+03  0.71081075525E+03  0.00000000000E+00 0.  1.
         21   -1    0    0  501  503 -0.00000000000E+00 -0.00000000000E+00 -0.15355473981E+04  0.15355473981E+04  0.00000000000E+00 0.  1.
    9000010    2    1    2  501    0  0.16883604826E+03  0.27823275171E+03 -0.36063223643E+03  0.10901051207E+04  0.97588651439E+03 0.  0.
   -9000010    2    1    2    0  502 -0.16883604826E+03 -0.27823275171E+03 -0.46410440639E+03  0.11562530326E+04  0.10077743299E+04 0.  0.
        -13    1    3    3    0    0  0.54159845056E+03  0.33058107511E+03 -0.12708498218E+03  0.64711925696E+03  0.10566000000E+00 0.  1.
          4    1    3    3  501    0 -0.37276240230E+03 -0.52348323403E+02 -0.23354725425E+03  0.44298586377E+03  0.00000000000E+00 0.  1.
         13    1    4    4    0    0 -0.31718864671E+02  0.37935561773E+03 -0.10666109806E+03  0.39533956554E+03  0.10566000000E+00 0. -1.
         -4    1    4    4    0  502 -0.13711718359E+03 -0.65758836944E+03 -0.35744330832E+03  0.76091346704E+03  0.00000000000E+00 0. -1.
<mgrwt>
<rscale>  2 0.10513651E+04</rscale>
<asrwt>0</asrwt>
<pdfrwt beam="1">  1       21 0.10935550E+00 0.10590223E+04</pdfrwt>
<pdfrwt beam="2">  1       21 0.23623806E+00 0.10590223E+04</pdfrwt>
<totfact> 0.23775689E+01</totfact>
</mgrwt>
</event>
<event>
 8    1  0.5815007E-006  0.1290553E+04  0.7818608E-02  0.8541929E-01
         21   -1    0    0  503  502  0.00000000000E+00  0.00000000000E+00  0.10862333650E+04  0.10862333650E+04  0.00000000000E+00 0. -1.
         21   -1    0    0  501  503 -0.00000000000E+00 -0.00000000000E+00 -0.15293549078E+04  0.15293549078E+04  0.00000000000E+00 0.  1.
    9000010    2    1    2  501    0  0.73256268502E+02 -0.82379597466E+03 -0.20622181199E+03  0.13034722378E+04  0.98615726448E+03 0.  0.
   -9000010    2    1    2    0  502 -0.73256268502E+02  0.82379597466E+03 -0.23689973079E+03  0.13121160351E+04  0.99071727463E+03 0.  0.
        -13    1    3    3    0    0  0.12951047042E+03 -0.22048942836E+03 -0.55020000154E+03  0.60671954215E+03  0.10566000000E+00 0.  1.
          4    1    3    3  501    0 -0.56254201914E+02 -0.60330654631E+03  0.34397818955E+03  0.69675269568E+03  0.00000000000E+00 0.  1.
         13    1    4    4    0    0 -0.20403283712E+03  0.98040260114E+03 -0.25728876087E+01  0.10014116486E+04  0.10566000000E+00 0. -1.
         -4    1    4    4    0  502  0.13077656862E+03 -0.15660662647E+03 -0.23432684318E+03  0.31070438650E+03  0.00000000000E+00 0. -1.
<mgrwt>
<rscale>  2 0.12896778E+04</rscale>
<asrwt>0</asrwt>
<pdfrwt beam="1">  1       21 0.16711282E+00 0.12905530E+04</pdfrwt>
<pdfrwt beam="2">  1       21 0.23528537E+00 0.12905530E+04</pdfrwt>
<totfact> 0.65740424E+00</totfact>
</mgrwt>
</event>
<event>
 8    1  0.5815007E-006  0.1110991E+04  0.7818608E-02  0.8676822E-01
         21   -1    0    0  503  502  0.00000000000E+00  0.00000000000E+00  0.83394985404E+03  0.83394985404E+03  0.00000000000E+00 0.  1.
         21   -1    0    0  501  503 -0.00000000000E+00 -0.00000000000E+00 -0.15582697195E+04  0.15582697195E+04  0.00000000000E+00 0.  1.
    9000010    2    1    2  501    0  0.48410194437E+03  0.38029751894E+02 -0.93793161115E+02  0.11149432351E+04  0.99924987153E+03 0.  0.
   -9000010    2    1    2    0  502 -0.48410194437E+03 -0.38029751894E+02 -0.63052670432E+03  0.12772763385E+04  0.99903451660E+03 0.  0.
        -13    1    3    3    0    0  0.29682408101E+03 -0.74294563329E+01  0.44937115453E+03  0.53860391530E+03  0.10566000000E+00 0.  1.
          4    1    3    3  501    0  0.18727786336E+03  0.45459208227E+02 -0.54316431564E+03  0.57633931976E+03  0.00000000000E+00 0.  1.
         13    1    4    4    0    0 -0.62339295931E+03 -0.27832673771E+03 -0.11588689716E+03  0.69246973851E+03  0.10566000000E+00 0. -1.
         -4    1    4    4    0  502  0.13929101494E+03  0.24029698582E+03 -0.51463980715E+03  0.58480659995E+03  0.00000000000E+00 0. -1.
<mgrwt>
<rscale>  2 0.11109427E+04</rscale>
<asrwt>0</asrwt>
<pdfrwt beam="1">  1       21 0.12829998E+00 0.11109911E+04</pdfrwt>
<pdfrwt beam="2">  1       21 0.23973380E+00 0.11109911E+04</pdfrwt>
<totfact> 0.14192021E+01</totfact>
</mgrwt>
</event>
<event>
 8    1  0.5815007E-006  0.1506069E+04  0.7818608E-02  0.8410357E-01
         21   -1    0    0  503  502  0.00000000000E+00  0.00000000000E+00  0.24835392520E+04  0.24835392520E+04  0.00000000000E+00 0. -1.
         21   -1    0    0  501  503 -0.00000000000E+00 -0.00000000000E+00 -0.14141041639E+04  0.14141041639E+04  0.00000000000E+00 0. -1.
    9000010    2    1    2  501    0  0.10991231303E+04  0.35449030328E+02 -0.64917197889E+03  0.16125054764E+04  0.98459197843E+03 0.  0.
   -9000010    2    1    2    0  502 -0.10991231303E+04 -0.35449030328E+02  0.17186070669E+04  0.22851379394E+04  0.10290368616E+04 0.  0.
        -13    1    3    3    0    0  0.57881855591E+03 -0.29238878489E+03 -0.74764685276E+03  0.98969588754E+03  0.10566000000E+00 0.  1.
          4    1    3    3  501    0  0.52030457440E+03  0.32783781522E+03  0.98474873876E+02  0.62280958889E+03  0.00000000000E+00 0.  1.
         13    1    4    4    0    0 -0.12447928178E+04  0.16759471250E+03  0.14212144447E+04  0.18966938751E+04  0.10566000000E+00 0. -1.
         -4    1    4    4    0  502  0.14566968750E+03 -0.20304374283E+03  0.29739262226E+03  0.38844406435E+03  0.00000000000E+00 0. -1.
<mgrwt>
<rscale>  2 0.14985101E+04</rscale>
<asrwt>0</asrwt>
<pdfrwt beam="1">  1       21 0.38208296E+00 0.15060694E+04</pdfrwt>
<pdfrwt beam="2">  1       21 0.21755449E+00 0.15060694E+04</pdfrwt>
<totfact> 0.22535973E-01</totfact>
</mgrwt>
</event>
<event>
 8    1  0.5815007E-006  0.1077018E+04  0.7818608E-02  0.8716110E-01
         21   -1    0    0  503  502  0.00000000000E+00  0.00000000000E+00  0.64621416502E+03  0.64621416502E+03  0.00000000000E+00 0.  1.
         21   -1    0    0  501  503 -0.00000000000E+00 -0.00000000000E+00 -0.17202980262E+04  0.17202980262E+04  0.00000000000E+00 0.  1.
    9000010    2    1    2  501    0 -0.27605937880E+03 -0.17839139176E+03 -0.61571498176E+03  0.12405938502E+04  0.10256392607E+04 0.  0.
   -9000010    2    1    2    0  502  0.27605937880E+03  0.17839139176E+03 -0.45836887942E+03  0.11259183410E+04  0.97445257028E+03 0.  0.
        -13    1    3    3    0    0  0.36588852214E+03  0.79721518707E+02 -0.13487116724E+03  0.39802031869E+03  0.10566000000E+00 0.  1.
          4    1    3    3  501    0 -0.64194790094E+03 -0.25811291046E+03 -0.48084381453E+03  0.84257353153E+03  0.00000000000E+00 0.  1.
         13    1    4    4    0    0 -0.24171952516E+03  0.31715920149E+02 -0.52965123820E+03  0.58306489666E+03  0.10566000000E+00 0. -1.
         -4    1    4    4    0  502  0.51777890396E+03  0.14667547161E+03  0.71282358780E+02  0.54285344434E+03  0.00000000000E+00 0. -1.
<mgrwt>
<rscale>  2 0.10646502E+04</rscale>
<asrwt>0</asrwt>
<pdfrwt beam="1">  1       21 0.99417566E-01 0.10770182E+04</pdfrwt>
<pdfrwt beam="2">  1       21 0.26466123E+00 0.10770182E+04</pdfrwt>
<totfact> 0.18951329E+01</totfact>
</mgrwt>
</event>
<event>
 8    1  0.5815007E-006  0.1107486E+04  0.7818608E-02  0.8683565E-01
         21   -1    0    0  503  502  0.00000000000E+00  0.00000000000E+00  0.74720476673E+03  0.74720476673E+03  0.00000000000E+00 0.  1.
         21   -1    0    0  501  503 -0.00000000000E+00 -0.00000000000E+00 -0.16156600943E+04  0.16156600943E+04  0.00000000000E+00 0.  1.
    9000010    2    1    2  501    0  0.22671444289E+02  0.47907234522E+03 -0.47409818978E+03  0.12046965029E+04  0.99824859834E+03 0.  0.
   -9000010    2    1    2    0  502 -0.22671444289E+02 -0.47907234522E+03 -0.39435713775E+03  0.11581683581E+04  0.97765642603E+03 0.  0.
        -13    1    3    3    0    0 -0.15346505775E+03 -0.28338041877E+03 -0.10064131552E+03  0.33761615964E+03  0.10566000000E+00 0.  1.
          4    1    3    3  501    0  0.17613650204E+03  0.76245276399E+03 -0.37345687426E+03  0.86708034322E+03  0.00000000000E+00 0.  1.
         13    1    4    4    0    0  0.30393285736E+03  0.65885643714E+01 -0.47847933262E+03  0.56688717914E+03  0.10566000000E+00 0. -1.
         -4    1    4    4    0  502 -0.32660430165E+03 -0.48566090959E+03  0.84122194872E+02  0.59128117900E+03  0.00000000000E+00 0. -1.
<mgrwt>
<rscale>  2 0.11028252E+04</rscale>
<asrwt>0</asrwt>
<pdfrwt beam="1">  1       21 0.11495458E+00 0.11074857E+04</pdfrwt>
<pdfrwt beam="2">  1       21 0.24856309E+00 0.11074857E+04</pdfrwt>
<totfact> 0.16671133E+01</totfact>
</mgrwt>
</event>
<event>
 8    1  0.5815007E-006  0.1197642E+04  0.7818608E-02  0.8608560E-01
         21   -1    0    0  501  502  0.00000000000E+00  0.00000000000E+00  0.11045482774E+04  0.11045482774E+04  0.00000000000E+00 0.  1.
         21   -1    0    0  502  503 -0.00000000000E+00 -0.00000000000E+00 -0.13170297651E+04  0.13170297651E+04  0.00000000000E+00 0.  1.
   -9000010    2    1    2    0  503  0.59048995439E+03  0.37406665537E+03 -0.25441501670E+03  0.12243668782E+04  0.97249318909E+03 0.  0.
    9000010    2    1    2  501    0 -0.59048995439E+03 -0.37406665537E+03  0.41933529047E+02  0.11972111643E+04  0.97105710550E+03 0.  0.
        -13    1    4    4    0    0 -0.38227064262E+03 -0.44302735541E+03 -0.39659356478E+03  0.70688793216E+03  0.10566000000E+00 0.  1.
          4    1    4    4  501    0 -0.20821931177E+03  0.68960700040E+02  0.43852709382E+03  0.49032323212E+03  0.00000000000E+00 0.  1.
         13    1    3    3    0    0  0.55654504956E+02  0.26618442403E+03 -0.54289028969E+03  0.60719144372E+03  0.10566000000E+00 0. -1.
         -4    1    3    3    0  503  0.53483544943E+03  0.10788223134E+03  0.28847527299E+03  0.61717543448E+03  0.00000000000E+00 0. -1.
<mgrwt>
<rscale>  2 0.11973508E+04</rscale>
<asrwt>0</asrwt>
<pdfrwt beam="1">  1       21 0.16993051E+00 0.11976424E+04</pdfrwt>
<pdfrwt beam="2">  1       21 0.20261996E+00 0.11976424E+04</pdfrwt>
<totfact> 0.11210614E+01</totfact>
</mgrwt>
</event>
<event>
 8    1  0.5815007E-006  0.1179716E+04  0.7818608E-02  0.8622482E-01
         21   -1    0    0  503  502  0.00000000000E+00  0.00000000000E+00  0.89592100670E+03  0.89592100670E+03  0.00000000000E+00 0.  1.
         21   -1    0    0  501  503 -0.00000000000E+00 -0.00000000000E+00 -0.21558589741E+04  0.21558589741E+04  0.00000000000E+00 0.  1.
    9000010    2    1    2  501    0  0.26849431015E+03  0.55348074034E+03 -0.14383389021E+04  0.18586507843E+04  0.10036602095E+04 0.  0.
   -9000010    2    1    2    0  502 -0.26849431015E+03 -0.55348074034E+03  0.17840093477E+03  0.11931291965E+04  0.10066281644E+04 0.  0.
        -13    1    3    3    0    0 -0.13851115893E+03  0.62319931164E+03 -0.43186029781E+03  0.77075680417E+03  0.10566000000E+00 0.  1.
          4    1    3    3  501    0  0.40700546908E+03 -0.69718571298E+02 -0.10064786043E+04  0.10878939801E+04  0.00000000000E+00 0.  1.
         13    1    4    4    0    0 -0.21085192198E+03  0.14828912796E+03  0.38137888993E+03  0.46032387221E+03  0.10566000000E+00 0. -1.
         -4    1    4    4    0  502 -0.57642388178E+02 -0.70176986831E+03 -0.20297795517E+03  0.73280532426E+03  0.00000000000E+00 0. -1.
<mgrwt>
<rscale>  2 0.11790829E+04</rscale>
<asrwt>0</asrwt>
<pdfrwt beam="1">  1       21 0.13783400E+00 0.11797162E+04</pdfrwt>
<pdfrwt beam="2">  1       21 0.33167061E+00 0.11797162E+04</pdfrwt>
<totfact> 0.25027583E+00</totfact>
</mgrwt>
</event>
<event>
 8    1  0.5815007E-006  0.1109269E+04  0.7818608E-02  0.8680626E-01
         21   -1    0    0  503  502  0.00000000000E+00  0.00000000000E+00  0.16332417772E+04  0.16332417772E+04  0.00000000000E+00 0. -1.
         21   -1    0    0  501  503 -0.00000000000E+00 -0.00000000000E+00 -0.76371985360E+03  0.76371985360E+03  0.00000000000E+00 0. -1.
    9000010    2    1    2  501    0 -0.24103062598E+03  0.40820176971E+03  0.62194038761E+03  0.12717263535E+04  0.10028726863E+04 0.  0.
   -9000010    2    1    2    0  502  0.24103062598E+03 -0.40820176971E+03  0.24758153597E+03  0.11252352773E+04  0.99001685081E+03 0.  0.
        -13    1    3    3    0    0 -0.50521141416E+03  0.21411381205E+02  0.16085645945E+02  0.50592072443E+03  0.10566000000E+00 0.  1.
          4    1    3    3  501    0  0.26418078818E+03  0.38679038851E+03  0.60585474166E+03  0.76580562905E+03  0.00000000000E+00 0.  1.
         13    1    4    4    0    0  0.13667919669E+03 -0.72370636344E+03  0.49043508425E+02  0.73813100475E+03  0.10566000000E+00 0. -1.
         -4    1    4    4    0  502  0.10435142928E+03  0.31550459372E+03  0.19853802755E+03  0.38710427256E+03  0.00000000000E+00 0. -1.
<mgrwt>
<rscale>  2 0.11063554E+04</rscale>
<asrwt>0</asrwt>
<pdfrwt beam="1">  1       21 0.25126796E+00 0.11092692E+04</pdfrwt>
<pdfrwt beam="2">  1       21 0.11749536E+00 0.11092692E+04</pdfrwt>
<totfact> 0.14992202E+01</totfact>
</mgrwt>
</event>
<event>
 8    1  0.5815007E-006  0.1454026E+04  0.7818608E-02  0.8449908E-01
         21   -1    0    0  501  502  0.00000000000E+00  0.00000000000E+00  0.26297814742E+04  0.26297814742E+04  0.00000000000E+00 0.  1.
         21   -1    0    0  502  503 -0.00000000000E+00 -0.00000000000E+00 -0.79303402999E+03  0.79303402999E+03  0.00000000000E+00 0.  1.
   -9000010    2    1    2    0  503  0.10382257730E+04 -0.19215152065E+03  0.13127730089E+04  0.19589706439E+04  0.99967897256E+03 0.  0.
    9000010    2    1    2  501    0 -0.10382257730E+04  0.19215152065E+03  0.52397443537E+03  0.14638448603E+04  0.86801935672E+03 0.  0.
        -13    1    4    4    0    0  0.28252039160E+02 -0.53320886151E+02  0.35069398153E+03  0.35584768436E+03  0.10566000000E+00 0.  1.
          4    1    4    4  501    0 -0.10664778122E+04  0.24547240680E+03  0.17328045384E+03  0.11079971760E+04  0.00000000000E+00 0.  1.
         13    1    3    3    0    0  0.28651406482E+03 -0.25079389093E+03  0.11167931355E+04  0.11799215244E+04  0.10566000000E+00 0. -1.
         -4    1    3    3    0  503  0.75171170817E+03  0.58642370282E+02  0.19597987337E+03  0.77904911948E+03  0.00000000000E+00 0. -1.
<mgrwt>
<rscale>  2 0.14317258E+04</rscale>
<asrwt>0</asrwt>
<pdfrwt beam="1">  1       21 0.40458176E+00 0.14540265E+04</pdfrwt>
<pdfrwt beam="2">  1       21 0.12200524E+00 0.14540265E+04</pdfrwt>
<totfact> 0.10442385E+00</totfact>
</mgrwt>
</event>
<event>
 8    1  0.5815007E-006  0.1083560E+04  0.7818608E-02  0.8701001E-01
         21   -1    0    0  503  502  0.00000000000E+00  0.00000000000E+00  0.12583220892E+04  0.12583220892E+04  0.00000000000E+00 0. -1.
         21   -1    0    0  501  503 -0.00000000000E+00 -0.00000000000E+00 -0.93286718403E+03  0.93286718403E+03  0.00000000000E+00 0. -1.
    9000010    2    1    2  501    0 -0.21768398955E+03  0.34438822201E+03  0.23900588483E+03  0.11041863050E+04  0.99805511686E+03 0.  0.
   -9000010    2    1    2    0  502  0.21768398955E+03 -0.34438822201E+03  0.86449020312E+02  0.10870029683E+04  0.10040480333E+04 0.  0.
        -13    1    3    3    0    0  0.63466595797E+02 -0.33581788705E+03  0.86330235722E+02  0.35249763518E+03  0.10566000000E+00 0.  1.
          4    1    3    3  501    0 -0.28115058534E+03  0.68020610905E+03  0.15267564911E+03  0.75168866977E+03  0.00000000000E+00 0.  1.
         13    1    4    4    0    0  0.96667867917E+02 -0.29535678549E+03  0.53561437151E+03  0.61924395318E+03  0.10566000000E+00 0. -1.
         -4    1    4    4    0  502  0.12101612163E+03 -0.49031436518E+02 -0.44916535120E+03  0.46775901507E+03  0.00000000000E+00 0. -1.
<mgrwt>
<rscale>  2 0.10821695E+04</rscale>
<asrwt>0</asrwt>
<pdfrwt beam="1">  1       21 0.19358801E+00 0.10835599E+04</pdfrwt>
<pdfrwt beam="2">  1       21 0.14351803E+00 0.10835599E+04</pdfrwt>
<totfact> 0.23010798E+01</totfact>
</mgrwt>
</event>
<event>
 8    1  0.5815007E-006  0.1379650E+04  0.7818608E-02  0.8483734E-01
         21   -1    0    0  501  502  0.00000000000E+00  0.00000000000E+00  0.24382110744E+04  0.24382110744E+04  0.00000000000E+00 0.  1.
         21   -1    0    0  502  503 -0.00000000000E+00 -0.00000000000E+00 -0.83668608558E+03  0.83668608558E+03  0.00000000000E+00 0.  1.
   -9000010    2    1    2    0  503  0.55188336374E+03  0.78740130644E+03  0.35611003756E+03  0.14162709523E+04  0.97695086215E+03 0.  0.
    9000010    2    1    2  501    0 -0.55188336374E+03 -0.78740130644E+03  0.12454149513E+04  0.18586262076E+04  0.98937197973E+03 0.  0.
        -13    1    4    4    0    0 -0.20976758589E+03  0.18317689793E+03  0.55029379562E+03  0.61674912946E+03  0.10566000000E+00 0.  1.
          4    1    4    4  501    0 -0.34211577785E+03 -0.97057820437E+03  0.69512115564E+03  0.12418770782E+04  0.00000000000E+00 0.  1.
         13    1    3    3    0    0  0.21381152654E+03  0.82542207172E+03  0.55955996319E+03  0.10198746633E+04  0.10566000000E+00 0. -1.
         -4    1    3    3    0  503  0.33807183719E+03 -0.38020765275E+02 -0.20344992563E+03  0.39639628901E+03  0.00000000000E+00 0. -1.
<mgrwt>
<rscale>  2 0.13774242E+04</rscale>
<asrwt>0</asrwt>
<pdfrwt beam="1">  1       21 0.37510939E+00 0.13796496E+04</pdfrwt>
<pdfrwt beam="2">  1       21 0.12872094E+00 0.13796496E+04</pdfrwt>
<totfact> 0.14569319E+00</totfact>
</mgrwt>
</event>
<event>
 8    1  0.5815007E-006  0.1199289E+04  0.7818608E-02  0.8607475E-01
         21   -1    0    0  503  502  0.00000000000E+00  0.00000000000E+00  0.10992453597E+04  0.10992453597E+04  0.00000000000E+00 0.  1.
         21   -1    0    0  501  503 -0.00000000000E+00 -0.00000000000E+00 -0.14968211392E+04  0.14968211392E+04  0.00000000000E+00 0.  1.
    9000010    2    1    2  501    0  0.64187468996E+03  0.41550622545E+02 -0.66179264858E+03  0.13680168904E+04  0.10098371804E+04 0.  0.
   -9000010    2    1    2    0  502 -0.64187468996E+03 -0.41550622545E+02  0.26421686899E+03  0.12280496084E+04  0.10122083358E+04 0.  0.
        -13    1    3    3    0    0 -0.32587779796E+02 -0.34847860776E+03 -0.43145479354E+03  0.55556507584E+03  0.10566000000E+00 0.  1.
          4    1    3    3  501    0  0.67446246975E+03  0.39002923031E+03 -0.23033785505E+03  0.81245181461E+03  0.00000000000E+00 0.  1.
         13    1    4    4    0    0  0.20182700201E+03 -0.18663667089E+03  0.25041382523E+03  0.37185276749E+03  0.10566000000E+00 0. -1.
         -4    1    4    4    0  502 -0.84370169196E+03  0.14508604835E+03  0.13803043757E+02  0.85619684096E+03  0.00000000000E+00 0. -1.
<mgrwt>
<rscale>  2 0.11987890E+04</rscale>
<asrwt>0</asrwt>
<pdfrwt beam="1">  1       21 0.16911467E+00 0.11992895E+04</pdfrwt>
<pdfrwt beam="2">  1       21 0.23028017E+00 0.11992895E+04</pdfrwt>
<totfact> 0.70163720E+00</totfact>
</mgrwt>
</event>
<event>
 8    1  0.5815007E-006  0.1106370E+04  0.7818608E-02  0.8684052E-01
         21   -1    0    0  501  502  0.00000000000E+00  0.00000000000E+00  0.69562629257E+03  0.69562629257E+03  0.00000000000E+00 0.  1.
         21   -1    0    0  502  503 -0.00000000000E+00 -0.00000000000E+00 -0.21186023070E+04  0.21186023070E+04  0.00000000000E+00 0.  1.
   -9000010    2    1    2    0  503 -0.14024700802E+02  0.45210897950E+03 -0.13156409554E+04  0.17190010587E+04  0.10096802934E+04 0.  0.
    9000010    2    1    2  501    0  0.14024700802E+02 -0.45210897950E+03 -0.10733505904E+03  0.10952275408E+04  0.99166694494E+03 0.  0.
        -13    1    4    4    0    0 -0.13926955004E+03 -0.64359850147E+03  0.21270800695E+03  0.69199692633E+03  0.10566000000E+00 0.  1.
          4    1    4    4  501    0  0.15329425085E+03  0.19148952197E+03 -0.32004306599E+03  0.40323061449E+03  0.00000000000E+00 0.  1.
         13    1    3    3    0    0 -0.17567607361E+03  0.12043717485E+03 -0.13327246626E+04  0.13496378156E+04  0.10566000000E+00 0. -1.
         -4    1    3    3    0  503  0.16165137281E+03  0.33167180465E+03  0.17083707196E+02  0.36936324314E+03  0.00000000000E+00 0. -1.
<mgrwt>
<rscale>  2 0.11022429E+04</rscale>
<asrwt>0</asrwt>
<pdfrwt beam="1">  1       21 0.10701943E+00 0.11063695E+04</pdfrwt>
<pdfrwt beam="2">  1       21 0.32593881E+00 0.11063695E+04</pdfrwt>
<totfact> 0.56965183E+00</totfact>
</mgrwt>
</event>
<event>
 8    1  0.5815007E-006  0.1083848E+04  0.7818608E-02  0.8700493E-01
         21   -1    0    0  503  502  0.00000000000E+00  0.00000000000E+00  0.26039506093E+04  0.26039506093E+04  0.00000000000E+00 0. -1.
         21   -1    0    0  501  503 -0.00000000000E+00 -0.00000000000E+00 -0.71959360028E+03  0.71959360028E+03  0.00000000000E+00 0. -1.
    9000010    2    1    2  501    0  0.23172252041E+03  0.34215494864E+03 -0.75046077411E+02  0.10864428287E+04  0.10019784284E+04 0.  0.
   -9000010    2    1    2    0  502 -0.23172252041E+03 -0.34215494864E+03  0.19594030865E+04  0.22371013809E+04  0.99729473966E+03 0.  0.
        -13    1    3    3    0    0  0.57247561673E+03  0.44086827451E+03  0.58034494050E+01  0.72258346121E+03  0.10566000000E+00 0.  1.
          4    1    3    3  501    0 -0.34075309632E+03 -0.98713325875E+02 -0.80849526816E+02  0.36385936753E+03  0.00000000000E+00 0.  1.
         13    1    4    4    0    0  0.73291134947E+02 -0.46686802380E+03  0.33416898184E+03  0.57879725440E+03  0.10566000000E+00 0. -1.
         -4    1    4    4    0  502 -0.30501365536E+03  0.12471307516E+03  0.16252341046E+04  0.16583041265E+04  0.00000000000E+00 0. -1.
<mgrwt>
<rscale>  2 0.10827641E+04</rscale>
<asrwt>0</asrwt>
<pdfrwt beam="1">  1       21 0.40060778E+00 0.10838478E+04</pdfrwt>
<pdfrwt beam="2">  1       21 0.11070671E+00 0.10838478E+04</pdfrwt>
<totfact> 0.15660399E+00</totfact>
</mgrwt>
</event>
<event>
 8    1  0.5815007E-006  0.1139740E+04  0.7818608E-02  0.8655183E-01
         21   -1    0    0  503  502  0.00000000000E+00  0.00000000000E+00  0.91719053619E+03  0.91719053619E+03  0.00000000000E+00 0.  1.
         21   -1    0    0  501  503 -0.00000000000E+00 -0.00000000000E+00 -0.18046396907E+04  0.18046396907E+04  0.00000000000E+00 0.  1.
    9000010    2    1    2  501    0 -0.32626791807E+03  0.42580359832E+03 -0.10826587822E+04  0.15654937250E+04  0.99542006485E+03 0.  0.
   -9000010    2    1    2    0  502  0.32626791807E+03 -0.42580359832E+03  0.19520962774E+03  0.11563365019E+04  0.10056081981E+04 0.  0.
        -13    1    3    3    0    0 -0.67442201060E+02  0.72866153130E+03 -0.72513330788E+03  0.10302011469E+04  0.10566000000E+00 0.  1.
          4    1    3    3  501    0 -0.25882571701E+03 -0.30285793298E+03 -0.35752547435E+03  0.53529257809E+03  0.00000000000E+00 0.  1.
         13    1    4    4    0    0  0.58386240634E+03 -0.11038110778E+03  0.38397619987E+03  0.70747228336E+03  0.10566000000E+00 0. -1.
         -4    1    4    4    0  502 -0.25759448827E+03 -0.31542249053E+03 -0.18876657213E+03  0.44886421853E+03  0.00000000000E+00 0. -1.
<mgrwt>
<rscale>  2 0.11374886E+04</rscale>
<asrwt>0</asrwt>
<pdfrwt beam="1">  1       21 0.14110624E+00 0.11397400E+04</pdfrwt>
<pdfrwt beam="2">  1       21 0.27763688E+00 0.11397400E+04</pdfrwt>
<totfact> 0.56727487E+00</totfact>
</mgrwt>
</event>
<event>
 8    1  0.5815007E-006  0.1226922E+04  0.7818608E-02  0.8590665E-01
         21   -1    0    0  501  502  0.00000000000E+00  0.00000000000E+00  0.74782910188E+03  0.74782910188E+03  0.00000000000E+00 0.  1.
         21   -1    0    0  502  503 -0.00000000000E+00 -0.00000000000E+00 -0.21189503325E+04  0.21189503325E+04  0.00000000000E+00 0.  1.
   -9000010    2    1    2    0  503  0.65187303405E+03 -0.17874724130E+03 -0.10627456927E+04  0.16231960465E+04  0.10239374830E+04 0.  0.
    9000010    2    1    2  501    0 -0.65187303405E+03  0.17874724130E+03 -0.30837553796E+03  0.12435833879E+04  0.99725379998E+03 0.  0.
        -13    1    4    4    0    0 -0.14740945882E+03  0.18211207828E+03 -0.61163451301E+03  0.65497415695E+03  0.10566000000E+00 0.  1.
          4    1    4    4  501    0 -0.50446357523E+03 -0.33648369767E+01  0.30325897506E+03  0.58860923100E+03  0.00000000000E+00 0.  1.
         13    1    3    3    0    0  0.67832371194E+03  0.23046295588E+03 -0.96462447866E+03  0.12015559197E+04  0.10566000000E+00 0. -1.
         -4    1    3    3    0  503 -0.26450677890E+02 -0.40921019718E+03 -0.98121214039E+02  0.42164012675E+03  0.00000000000E+00 0. -1.
<mgrwt>
<rscale>  2 0.12213389E+04</rscale>
<asrwt>0</asrwt>
<pdfrwt beam="1">  1       21 0.11505063E+00 0.12269218E+04</pdfrwt>
<pdfrwt beam="2">  1       21 0.32599236E+00 0.12269218E+04</pdfrwt>
<totfact> 0.45559206E+00</totfact>
</mgrwt>
</event>
<event>
 8    1  0.5815007E-006  0.1078715E+04  0.7818608E-02  0.8722969E-01
         21   -1    0    0  501  502  0.00000000000E+00  0.00000000000E+00  0.20707921435E+04  0.20707921435E+04  0.00000000000E+00 0.  1.
         21   -1    0    0  502  503 -0.00000000000E+00 -0.00000000000E+00 -0.62327285409E+03  0.62327285409E+03  0.00000000000E+00 0.  1.
   -9000010    2    1    2    0  503  0.29048782499E+03  0.26908217948E+03  0.14724247133E+03  0.10045843397E+04  0.91143894720E+03 0.  0.
    9000010    2    1    2  501    0 -0.29048782499E+03 -0.26908217948E+03  0.13002768181E+04  0.16894806579E+04  0.10034125243E+04 0.  0.
        -13    1    4    4    0    0  0.25210441386E+02  0.30237046434E+02 -0.16052198600E+03  0.16527905035E+03  0.10566000000E+00 0.  1.
          4    1    4    4  501    0 -0.31569826638E+03 -0.29931922592E+03  0.14607988041E+04  0.15242016076E+04  0.00000000000E+00 0.  1.
         13    1    3    3    0    0  0.42853088608E+02 -0.27896918060E+03 -0.16502498109E+03  0.32694563230E+03  0.10566000000E+00 0. -1.
         -4    1    3    3    0  503  0.24763473639E+03  0.54805136009E+03  0.31226745243E+03  0.67763870743E+03  0.00000000000E+00 0. -1.
<mgrwt>
<rscale>  2 0.10568116E+04</rscale>
<asrwt>0</asrwt>
<pdfrwt beam="1">  1       21 0.31858340E+00 0.10787146E+04</pdfrwt>
<pdfrwt beam="2">  1       21 0.95888133E-01 0.10787146E+04</pdfrwt>
<totfact> 0.86189641E+00</totfact>
</mgrwt>
</event>
<event>
 8    1  0.5815007E-006  0.1234907E+04  0.7818608E-02  0.8581243E-01
         21   -1    0    0  503  502  0.00000000000E+00  0.00000000000E+00  0.12763841825E+04  0.12763841825E+04  0.00000000000E+00 0. -1.
         21   -1    0    0  501  503 -0.00000000000E+00 -0.00000000000E+00 -0.12813962812E+04  0.12813962812E+04  0.00000000000E+00 0. -1.
    9000010    2    1    2  501    0 -0.73317428458E+03  0.12281547674E+03  0.33518721969E+03  0.12768700687E+04  0.98255713686E+03 0.  0.
   -9000010    2    1    2    0  502  0.73317428458E+03 -0.12281547674E+03 -0.34019931833E+03  0.12809103950E+04  0.98608706056E+03 0.  0.
        -13    1    3    3    0    0 -0.46872517811E+03 -0.35085285151E+03  0.42964254206E+03  0.72621879700E+03  0.10566000000E+00 0.  1.
          4    1    3    3  501    0 -0.26444910647E+03  0.47366832825E+03 -0.94455322362E+02  0.55065127170E+03  0.00000000000E+00 0.  1.
         13    1    4    4    0    0 -0.14887403722E+03 -0.26432755673E+03  0.47527444130E+02  0.30706905626E+03  0.10566000000E+00 0. -1.
         -4    1    4    4    0  502  0.88204832180E+03  0.14151207999E+03 -0.38772676246E+03  0.97384133877E+03  0.00000000000E+00 0. -1.
<mgrwt>
<rscale>  2 0.12342024E+04</rscale>
<asrwt>0</asrwt>
<pdfrwt beam="1">  1       21 0.19636680E+00 0.12349072E+04</pdfrwt>
<pdfrwt beam="2">  1       21 0.19713789E+00 0.12349072E+04</pdfrwt>
<totfact> 0.74873319E+00</totfact>
</mgrwt>
</event>
<event>
 8    1  0.5815007E-006  0.1053645E+04  0.7818608E-02  0.8728411E-01
         21   -1    0    0  503  502  0.00000000000E+00  0.00000000000E+00  0.87840905187E+03  0.87840905187E+03  0.00000000000E+00 0. -1.
         21   -1    0    0  501  503 -0.00000000000E+00 -0.00000000000E+00 -0.12541492275E+04  0.12541492275E+04  0.00000000000E+00 0. -1.
    9000010    2    1    2  501    0 -0.14477259668E+03 -0.22234794031E+03 -0.25150317851E+03  0.10716143443E+04  0.10073260360E+04 0.  0.
   -9000010    2    1    2    0  502  0.14477259668E+03  0.22234794031E+03 -0.12423699715E+03  0.10609439351E+04  0.10196908800E+04 0.  0.
        -13    1    3    3    0    0 -0.81591322905E+02  0.11864989640E+03  0.34934803516E+03  0.37786108919E+03  0.10566000000E+00 0.  1.
          4    1    3    3  501    0 -0.63181273774E+02 -0.34099783671E+03 -0.60085121367E+03  0.69375325510E+03  0.00000000000E+00 0.  1.
         13    1    4    4    0    0 -0.38464850340E+03 -0.14284456572E+03 -0.39075978064E+02  0.41217227508E+03  0.10566000000E+00 0. -1.
         -4    1    4    4    0  502  0.52942110008E+03  0.36519250603E+03 -0.85161019085E+02  0.64877166002E+03  0.00000000000E+00 0. -1.
<mgrwt>
<rscale>  2 0.10506415E+04</rscale>
<asrwt>0</asrwt>
<pdfrwt beam="1">  1       21 0.13513985E+00 0.10536447E+04</pdfrwt>
<pdfrwt beam="2">  1       21 0.19294604E+00 0.10536447E+04</pdfrwt>
<totfact> 0.28031566E+01</totfact>
</mgrwt>
</event>
<event>
 8    1  0.5815007E-006  0.1073421E+04  0.7818608E-02  0.8712903E-01
         21   -1    0    0  503  502  0.00000000000E+00  0.00000000000E+00  0.54871995087E+03  0.54871995087E+03  0.00000000000E+00 0.  1.
         21   -1    0    0  501  503 -0.00000000000E+00 -0.00000000000E+00 -0.22027469890E+04  0.22027469890E+04  0.00000000000E+00 0.  1.
    9000010    2    1    2  501    0 -0.21740374132E+03 -0.26423174930E+03 -0.11838666654E+04  0.15980529050E+04  0.10174232167E+04 0.  0.
   -9000010    2    1    2    0  502  0.21740374132E+03  0.26423174930E+03 -0.47016037274E+03  0.11534140348E+04  0.99610760239E+03 0.  0.
        -13    1    3    3    0    0 -0.18255373143E+03 -0.46823519153E+03 -0.12328100305E+03  0.51746330915E+03  0.10566000000E+00 0.  1.
          4    1    3    3  501    0 -0.34850009891E+02  0.20400344223E+03 -0.10605856623E+04  0.10805895959E+04  0.00000000000E+00 0.  1.
         13    1    4    4    0    0  0.10402777206E+02 -0.20387198497E+03  0.21612051734E+03  0.29728789617E+03  0.10566000000E+00 0. -1.
         -4    1    4    4    0  502  0.20700096411E+03  0.46810373427E+03 -0.68628089008E+03  0.85612613864E+03  0.00000000000E+00 0. -1.
<mgrwt>
<rscale>  2 0.10683397E+04</rscale>
<asrwt>0</asrwt>
<pdfrwt beam="1">  1       21 0.84418455E-01 0.10734211E+04</pdfrwt>
<pdfrwt beam="2">  1       21 0.33888415E+00 0.10734211E+04</pdfrwt>
<totfact> 0.86029721E+00</totfact>
</mgrwt>
</event>
<event>
 8    1  0.5815007E-006  0.1150998E+04  0.7818608E-02  0.8644870E-01
         21   -1    0    0  501  502  0.00000000000E+00  0.00000000000E+00  0.26755165929E+04  0.26755165929E+04  0.00000000000E+00 0. -1.
         21   -1    0    0  502  503 -0.00000000000E+00 -0.00000000000E+00 -0.54247014825E+03  0.54247014825E+03  0.00000000000E+00 0. -1.
   -9000010    2    1    2    0  503 -0.25042788110E+03  0.50921063879E+03  0.15457611841E+04  0.19258179934E+04  0.99869299942E+03 0.  0.
    9000010    2    1    2  501    0  0.25042788110E+03 -0.50921063879E+03  0.58728526054E+03  0.12921687478E+04  0.10013922794E+04 0.  0.
        -13    1    4    4    0    0 -0.43973110287E+02 -0.45767740737E+03  0.80180106177E+03  0.92427658061E+03  0.10566000000E+00 0.  1.
          4    1    4    4  501    0  0.29440099138E+03 -0.51533231425E+02 -0.21451580124E+03  0.36789216715E+03  0.00000000000E+00 0.  1.
         13    1    3    3    0    0 -0.49103164621E+03  0.50531687412E+03  0.52929121358E+03  0.88125275647E+03  0.10566000000E+00 0. -1.
         -4    1    3    3    0  503  0.24060376511E+03  0.38937646689E+01  0.10164699706E+04  0.10445652370E+04  0.00000000000E+00 0. -1.
<mgrwt>
<rscale>  2 0.11504105E+04</rscale>
<asrwt>0</asrwt>
<pdfrwt beam="1">  1       21 0.41161793E+00 0.11509979E+04</pdfrwt>
<pdfrwt beam="2">  1       21 0.83456947E-01 0.11509979E+04</pdfrwt>
<totfact> 0.27009288E+00</totfact>
</mgrwt>
</event>
<event>
 8    1  0.5815007E-006  0.1236393E+04  0.7818608E-02  0.8580987E-01
         21   -1    0    0  503  502  0.00000000000E+00  0.00000000000E+00  0.82754240190E+03  0.82754240190E+03  0.00000000000E+00 0.  1.
         21   -1    0    0  501  503 -0.00000000000E+00 -0.00000000000E+00 -0.22606036158E+04  0.22606036158E+04  0.00000000000E+00 0.  1.
    9000010    2    1    2  501    0 -0.61054074534E+03 -0.38586631864E+03 -0.13837548482E+04  0.18507704446E+04  0.99444504180E+03 0.  0.
   -9000010    2    1    2    0  502  0.61054074534E+03  0.38586631864E+03 -0.49306365705E+02  0.12373755731E+04  0.10035010581E+04 0.  0.
        -13    1    3    3    0    0 -0.45145208911E+03 -0.71908597149E+03 -0.10720532297E+04  0.13675495463E+04  0.10566000000E+00 0.  1.
          4    1    3    3  501    0 -0.15908865623E+03  0.33321965284E+03 -0.31170161852E+03  0.48322089832E+03  0.00000000000E+00 0.  1.
         13    1    4    4    0    0 -0.65107320280E+02 -0.26536862789E+03  0.92166474595E+02  0.28836459912E+03  0.10566000000E+00 0. -1.
         -4    1    4    4    0  502  0.67564806562E+03  0.65123494653E+03 -0.14147284030E+03  0.94901097397E+03  0.00000000000E+00 0. -1.
<mgrwt>
<rscale>  2 0.12345540E+04</rscale>
<asrwt>0</asrwt>
<pdfrwt beam="1">  1       21 0.12731422E+00 0.12363928E+04</pdfrwt>
<pdfrwt beam="2">  1       21 0.34778517E+00 0.12363928E+04</pdfrwt>
<totfact> 0.24033108E+00</totfact>
</mgrwt>
</event>
<event>
 8    1  0.5815007E-006  0.1478337E+04  0.7818608E-02  0.8425092E-01
         21   -1    0    0  501  502  0.00000000000E+00  0.00000000000E+00  0.19156415069E+04  0.19156415069E+04  0.00000000000E+00 0. -1.
         21   -1    0    0  502  503 -0.00000000000E+00 -0.00000000000E+00 -0.13459279935E+04  0.13459279935E+04  0.00000000000E+00 0.  1.
   -9000010    2    1    2    0  503  0.57784158051E+03  0.88009351281E+03 -0.37728960685E+03  0.15059229143E+04  0.10084596635E+04 0.  0.
    9000010    2    1    2  501    0 -0.57784158051E+03 -0.88009351281E+03  0.94700312032E+03  0.17556465861E+04  0.10377931114E+04 0.  0.
        -13    1    4    4    0    0 -0.44844983786E+03  0.10041557271E+02 -0.13541048270E+01  0.44856430388E+03  0.10566000000E+00 0.  1.
          4    1    4    4  501    0 -0.12939174265E+03 -0.89013507008E+03  0.94835722515E+03  0.13070822822E+04  0.00000000000E+00 0.  1.
         13    1    3    3    0    0  0.32413726053E+02  0.87139399300E+03 -0.58161835949E+02  0.87393418002E+03  0.10566000000E+00 0. -1.
         -4    1    3    3    0  503  0.54542785446E+03  0.86995198062E+01 -0.31912777090E+03  0.63198873426E+03  0.00000000000E+00 0. -1.
<mgrwt>
<rscale>  2 0.14731996E+04</rscale>
<asrwt>0</asrwt>
<pdfrwt beam="1">  1       21 0.29471408E+00 0.14783369E+04</pdfrwt>
<pdfrwt beam="2">  1       21 0.20706584E+00 0.14783369E+04</pdfrwt>
<totfact> 0.11227655E+00</totfact>
</mgrwt>
</event>
<event>
 8    1  0.5815007E-006  0.1325206E+04  0.7818608E-02  0.8519609E-01
         21   -1    0    0  503  502  0.00000000000E+00  0.00000000000E+00  0.18905603447E+04  0.18905603447E+04  0.00000000000E+00 0.  1.
         21   -1    0    0  501  503 -0.00000000000E+00 -0.00000000000E+00 -0.93335570255E+03  0.93335570255E+03  0.00000000000E+00 0. -1.
    9000010    2    1    2  501    0 -0.11841025934E+03 -0.85257179291E+03  0.64031072737E+03  0.14717907369E+04  0.10076063190E+04 0.  0.
   -9000010    2    1    2    0  502  0.11841025934E+03  0.85257179291E+03  0.31689391481E+03  0.13521253104E+04  0.99343920301E+03 0.  0.
        -13    1    3    3    0    0  0.35914901236E+03 -0.42912142034E+03 -0.11259014939E+02  0.55969633111E+03  0.10566000000E+00 0.  1.
          4    1    3    3  501    0 -0.47755927169E+03 -0.42345037257E+03  0.65156974231E+03  0.91209440580E+03  0.00000000000E+00 0.  1.
         13    1    4    4    0    0 -0.28881078523E+03  0.55539783137E+03  0.51485383672E+03  0.81052631365E+03  0.10566000000E+00 0. -1.
         -4    1    4    4    0  502  0.40722104457E+03  0.29717396154E+03 -0.19795992191E+03  0.54159899671E+03  0.00000000000E+00 0. -1.
<mgrwt>
<rscale>  2 0.13225126E+04</rscale>
<asrwt>0</asrwt>
<pdfrwt beam="1">  1       21 0.29085544E+00 0.13252057E+04</pdfrwt>
<pdfrwt beam="2">  1       21 0.14359319E+00 0.13252057E+04</pdfrwt>
<totfact> 0.41718743E+00</totfact>
</mgrwt>
</event>
<event>
 8    1  0.5815007E-006  0.1247048E+04  0.7818608E-02  0.8574527E-01
         21   -1    0    0  501  502  0.00000000000E+00  0.00000000000E+00  0.11724108602E+04  0.11724108602E+04  0.00000000000E+00 0. -1.
         21   -1    0    0  502  503 -0.00000000000E+00 -0.00000000000E+00 -0.13278940979E+04  0.13278940979E+04  0.00000000000E+00 0. -1.
   -9000010    2    1    2    0  503  0.61092602843E+03  0.39202859962E+03 -0.21692103729E+03  0.12517444479E+04  0.99643985832E+03 0.  0.
    9000010    2    1    2  501    0 -0.61092602843E+03 -0.39202859962E+03  0.61437799612E+02  0.12485605102E+04  0.10140077461E+04 0.  0.
        -13    1    4    4    0    0 -0.15368017074E+03 -0.61849999941E+03 -0.20946691012E+03  0.67084740571E+03  0.10566000000E+00 0.  1.
          4    1    4    4  501    0 -0.45724585769E+03  0.22647139978E+03  0.27090470973E+03  0.57771310445E+03  0.00000000000E+00 0.  1.
         13    1    3    3    0    0  0.78917686257E+03  0.25213138309E+03 -0.43631334034E+03  0.93634379204E+03  0.10566000000E+00 0. -1.
         -4    1    3    3    0  503 -0.17825083414E+03  0.13989721653E+03  0.21939230305E+03  0.31540065584E+03  0.00000000000E+00 0. -1.
<mgrwt>
<rscale>  2 0.12434720E+04</rscale>
<asrwt>0</asrwt>
<pdfrwt beam="1">  1       21 0.18037090E+00 0.12470480E+04</pdfrwt>
<pdfrwt beam="2">  1       21 0.20429140E+00 0.12470480E+04</pdfrwt>
<totfact> 0.88263097E+00</totfact>
</mgrwt>
</event>
<event>
 8    1  0.5815007E-006  0.1123555E+04  0.7818608E-02  0.8669584E-01
         21   -1    0    0  503  502  0.00000000000E+00  0.00000000000E+00  0.14089043415E+04  0.14089043415E+04  0.00000000000E+00 0.  1.
         21   -1    0    0  501  503 -0.00000000000E+00 -0.00000000000E+00 -0.88397071798E+03  0.88397071798E+03  0.00000000000E+00 0. -1.
    9000010    2    1    2  501    0 -0.47157872431E+03 -0.16294794713E+03  0.25567256542E+03  0.11522780574E+04  0.10066964459E+04 0.  0.
   -9000010    2    1    2    0  502  0.47157872431E+03  0.16294794713E+03  0.26926105806E+03  0.11405970020E+04  0.98970777348E+03 0.  0.
        -13    1    3    3    0    0 -0.77898512962E+03 -0.10144460113E+03  0.28894813820E+03  0.83701844484E+03  0.10566000000E+00 0.  1.
          4    1    3    3  501    0  0.30740640531E+03 -0.61503346002E+02 -0.33275572773E+02  0.31525961261E+03  0.00000000000E+00 0.  1.
         13    1    4    4    0    0 -0.10202645572E+02 -0.25154915617E+03  0.41792263432E+03  0.48789385258E+03  0.10566000000E+00 0. -1.
         -4    1    4    4    0  502  0.48178136988E+03  0.41449710330E+03 -0.14866157626E+03  0.65270314942E+03  0.00000000000E+00 0. -1.
<mgrwt>
<rscale>  2 0.11197368E+04</rscale>
<asrwt>0</asrwt>
<pdfrwt beam="1">  1       21 0.21675451E+00 0.11235552E+04</pdfrwt>
<pdfrwt beam="2">  1       21 0.13599550E+00 0.11235552E+04</pdfrwt>
<totfact> 0.17729975E+01</totfact>
</mgrwt>
</event>
<event>
 8    1  0.5815007E-006  0.1548792E+04  0.7818608E-02  0.8382225E-01
         21   -1    0    0  503  502  0.00000000000E+00  0.00000000000E+00  0.11922152722E+04  0.11922152722E+04  0.00000000000E+00 0. -1.
         21   -1    0    0  501  503 -0.00000000000E+00 -0.00000000000E+00 -0.21093392029E+04  0.21093392029E+04  0.00000000000E+00 0.  1.
    9000010    2    1    2  501    0  0.15744628460E+03  0.11714905471E+04 -0.81737848378E+03  0.17495542022E+04  0.99782407580E+03 0.  0.
   -9000010    2    1    2    0  502 -0.15744628460E+03 -0.11714905471E+04 -0.99745446882E+02  0.15520002729E+04  0.10007878190E+04 0.  0.
        -13    1    3    3    0    0  0.36592192644E+03  0.11729038623E+04 -0.90235890855E+03  0.15244192131E+04  0.10566000000E+00 0.  1.
          4    1    3    3  501    0 -0.20847564184E+03 -0.14133152103E+01  0.84980424763E+02  0.22513498905E+03  0.00000000000E+00 0.  1.
         13    1    4    4    0    0 -0.55890841659E+02 -0.12217578259E+04  0.19292568859E+03  0.12381584324E+04  0.10566000000E+00 0. -1.
         -4    1    4    4    0  502 -0.10155544294E+03  0.50267278842E+02 -0.29267113548E+03  0.31384184051E+03  0.00000000000E+00 0. -1.
<mgrwt>
<rscale>  2 0.15483131E+04</rscale>
<asrwt>0</asrwt>
<pdfrwt beam="1">  1       21 0.18341774E+00 0.15487917E+04</pdfrwt>
<pdfrwt beam="2">  1       21 0.32451372E+00 0.15487917E+04</pdfrwt>
<totfact> 0.10517591E+00</totfact>
</mgrwt>
</event>
<event>
 8    1  0.5815007E-006  0.1081839E+04  0.7818608E-02  0.8701996E-01
         21   -1    0    0  501  502  0.00000000000E+00  0.00000000000E+00  0.85669690287E+03  0.85669690287E+03  0.00000000000E+00 0.  1.
         21   -1    0    0  502  503 -0.00000000000E+00 -0.00000000000E+00 -0.13619473074E+04  0.13619473074E+04  0.00000000000E+00 0.  1.
   -9000010    2    1    2    0  503  0.18109993228E+02 -0.41289325754E+03 -0.25460252691E+03  0.11113947326E+04  0.99978347199E+03 0.  0.
    9000010    2    1    2  501    0 -0.18109993228E+02  0.41289325754E+03 -0.25064787759E+03  0.11072494777E+04  0.99617680825E+03 0.  0.
        -13    1    4    4    0    0  0.39165653454E+03  0.26567475938E+03 -0.42705681303E+03  0.63746015682E+03  0.10566000000E+00 0.  1.
          4    1    4    4  501    0 -0.40976652777E+03  0.14721849816E+03  0.17640893544E+03  0.46978932085E+03  0.00000000000E+00 0.  1.
         13    1    3    3    0    0  0.35408845986E+03 -0.50514898598E+03  0.87547263013E+02  0.62307196203E+03  0.10566000000E+00 0. -1.
         -4    1    3    3    0  503 -0.33597846663E+03  0.92255728434E+02 -0.34214978992E+03  0.48832277053E+03  0.00000000000E+00 0. -1.
<mgrwt>
<rscale>  2 0.10810051E+04</rscale>
<asrwt>0</asrwt>
<pdfrwt beam="1">  1       21 0.13179952E+00 0.10818391E+04</pdfrwt>
<pdfrwt beam="2">  1       21 0.20953035E+00 0.10818391E+04</pdfrwt>
<totfact> 0.22259581E+01</totfact>
</mgrwt>
</event>
<event>
 8    1  0.5815007E-006  0.1095957E+04  0.7818608E-02  0.8721067E-01
         21   -1    0    0  503  502  0.00000000000E+00  0.00000000000E+00  0.95012133352E+03  0.95012133352E+03  0.00000000000E+00 0. -1.
         21   -1    0    0  501  503 -0.00000000000E+00 -0.00000000000E+00 -0.13949199091E+04  0.13949199091E+04  0.00000000000E+00 0.  1.
    9000010    2    1    2  501    0  0.30745972692E+03 -0.34355234213E+03 -0.76601610946E+03  0.13371242938E+04  0.99426405027E+03 0.  0.
   -9000010    2    1    2    0  502 -0.30745972692E+03  0.34355234213E+03  0.32121753392E+03  0.10079169488E+04  0.83675335437E+03 0.  0.
        -13    1    3    3    0    0  0.46643196335E+03 -0.58871354311E+03 -0.34972245962E+03  0.82852170895E+03  0.10566000000E+00 0.  1.
          4    1    3    3  501    0 -0.15897223643E+03  0.24516120097E+03 -0.41629364984E+03  0.50860258485E+03  0.00000000000E+00 0.  1.
         13    1    4    4    0    0  0.19823777394E+02 -0.26357949149E+03  0.65563588631E+02  0.27233384990E+03  0.10566000000E+00 0. -1.
         -4    1    4    4    0  502 -0.32728350431E+03  0.60713183362E+03  0.25565394529E+03  0.73558309887E+03  0.00000000000E+00 0. -1.
<mgrwt>
<rscale>  2 0.10589780E+04</rscale>
<asrwt>0</asrwt>
<pdfrwt beam="1">  1       21 0.14617251E+00 0.10959565E+04</pdfrwt>
<pdfrwt beam="2">  1       21 0.21460306E+00 0.10959565E+04</pdfrwt>
<totfact> 0.14918064E+01</totfact>
</mgrwt>
</event>
<event>
 8    1  0.5815007E-006  0.1266008E+04  0.7818608E-02  0.8560431E-01
         21   -1    0    0  503  502  0.00000000000E+00  0.00000000000E+00  0.64305458296E+03  0.64305458296E+03  0.00000000000E+00 0. -1.
         21   -1    0    0  501  503 -0.00000000000E+00 -0.00000000000E+00 -0.29045560890E+04  0.29045560890E+04  0.00000000000E+00 0.  1.
    9000010    2    1    2  501    0 -0.62484778319E+03 -0.41669931879E+03 -0.18207444270E+04  0.22176306905E+04  0.10191675703E+04 0.  0.
   -9000010    2    1    2    0  502  0.62484778319E+03  0.41669931879E+03 -0.44075707897E+03  0.13299799815E+04  0.10052397097E+04 0.  0.
        -13    1    3    3    0    0 -0.62210076848E+03 -0.50580378890E+03 -0.61987115016E+03  0.10134530542E+04  0.10566000000E+00 0.  1.
          4    1    3    3  501    0 -0.27470147173E+01  0.89104470110E+02 -0.12008732769E+04  0.12041776363E+04  0.00000000000E+00 0.  1.
         13    1    4    4    0    0 -0.68160960308E+01 -0.24375955866E+02  0.27632471880E+03  0.27748154492E+03  0.10566000000E+00 0. -1.
         -4    1    4    4    0  502  0.63166387923E+03  0.44107527466E+03 -0.71708179777E+03  0.10524984365E+04  0.00000000000E+00 0. -1.
<mgrwt>
<rscale>  2 0.12632022E+04</rscale>
<asrwt>0</asrwt>
<pdfrwt beam="1">  1       21 0.98931474E-01 0.12660077E+04</pdfrwt>
<pdfrwt beam="2">  1       21 0.44685478E+00 0.12660077E+04</pdfrwt>
<totfact> 0.97483253E-01</totfact>
</mgrwt>
</event>
<event>
 8    1  0.5815007E-006  0.1250221E+04  0.7818608E-02  0.8574224E-01
         21   -1    0    0  501  502  0.00000000000E+00  0.00000000000E+00  0.72939233486E+03  0.72939233486E+03  0.00000000000E+00 0. -1.
         21   -1    0    0  502  503 -0.00000000000E+00 -0.00000000000E+00 -0.21026599246E+04  0.21026599246E+04  0.00000000000E+00 0.  1.
   -9000010    2    1    2    0  503  0.60252172148E+03 -0.40104778539E+03 -0.74302360367E+03  0.14543508766E+04  0.10194021020E+04 0.  0.
    9000010    2    1    2  501    0 -0.60252172148E+03  0.40104778539E+03 -0.63024398603E+03  0.13777013828E+04  0.98842393098E+03 0.  0.
        -13    1    4    4    0    0 -0.76230885067E+03  0.50387138267E+03 -0.72398109292E+03  0.11658257967E+04  0.10566000000E+00 0.  1.
          4    1    4    4  501    0  0.15978712919E+03 -0.10282359728E+03  0.93737106883E+02  0.21187558618E+03  0.00000000000E+00 0.  1.
         13    1    3    3    0    0 -0.12324180085E+03 -0.16967954917E+03  0.16664318477E+03  0.26786125714E+03  0.10566000000E+00 0. -1.
         -4    1    3    3    0  503  0.72576352233E+03 -0.23136823622E+03 -0.90966678843E+03  0.11864896194E+04  0.00000000000E+00 0. -1.
<mgrwt>
<rscale>  2 0.12438911E+04</rscale>
<asrwt>0</asrwt>
<pdfrwt beam="1">  1       21 0.11221421E+00 0.12502209E+04</pdfrwt>
<pdfrwt beam="2">  1       21 0.32348614E+00 0.12502209E+04</pdfrwt>
<totfact> 0.50587869E+00</totfact>
</mgrwt>
</event>
<event>
 8    1  0.5815007E-006  0.1275347E+04  0.7818608E-02  0.8553060E-01
         21   -1    0    0  503  502  0.00000000000E+00  0.00000000000E+00  0.28402980298E+04  0.28402980298E+04  0.00000000000E+00 0. -1.
         21   -1    0    0  501  503 -0.00000000000E+00 -0.00000000000E+00 -0.93058111122E+03  0.93058111122E+03  0.00000000000E+00 0. -1.
    9000010    2    1    2  501    0  0.46988165085E+03  0.64941374674E+03 -0.21781293478E+03  0.12938131411E+04  0.99195916718E+03 0.  0.
   -9000010    2    1    2    0  502 -0.46988165085E+03 -0.64941374674E+03  0.21275298533E+04  0.24770659999E+04  0.98333397718E+03 0.  0.
        -13    1    3    3    0    0  0.38696442225E+03  0.84006677445E+03 -0.40905792640E+03  0.10113268749E+04  0.10566000000E+00 0.  1.
          4    1    3    3  501    0  0.82917228598E+02 -0.19065302771E+03  0.19124499162E+03  0.28248626621E+03  0.00000000000E+00 0.  1.
         13    1    4    4    0    0  0.28197958021E+03 -0.26985394697E+03  0.42143778831E+03  0.57440704812E+03  0.10566000000E+00 0. -1.
         -4    1    4    4    0  502 -0.75186123106E+03 -0.37955979977E+03  0.17060920650E+04  0.19026589518E+04  0.00000000000E+00 0. -1.
<mgrwt>
<rscale>  2 0.12736694E+04</rscale>
<asrwt>0</asrwt>
<pdfrwt beam="1">  1       21 0.43696892E+00 0.12753470E+04</pdfrwt>
<pdfrwt beam="2">  1       21 0.14316633E+00 0.12753470E+04</pdfrwt>
<totfact> 0.40379229E-01</totfact>
</mgrwt>
</event>
<event>
 8    1  0.5815007E-006  0.1066307E+04  0.7818608E-02  0.8718517E-01
         21   -1    0    0  501  502  0.00000000000E+00  0.00000000000E+00  0.97110183421E+03  0.97110183421E+03  0.00000000000E+00 0. -1.
         21   -1    0    0  502  503 -0.00000000000E+00 -0.00000000000E+00 -0.11516494132E+04  0.11516494132E+04  0.00000000000E+00 0. -1.
   -9000010    2    1    2    0  503 -0.34358614214E+03 -0.89630434026E+02 -0.89764603320E+02  0.10700790974E+04  0.10054484268E+04 0.  0.
    9000010    2    1    2  501    0  0.34358614214E+03  0.89630434026E+02 -0.90782975683E+02  0.10526721500E+04  0.98680902659E+03 0.  0.
        -13    1    4    4    0    0 -0.33822814331E+03 -0.70462266648E+02  0.67523279288E+01  0.34555580308E+03  0.10566000000E+00 0.  1.
          4    1    4    4  501    0  0.68181428545E+03  0.16009270067E+03 -0.97535303612E+02  0.70711634693E+03  0.00000000000E+00 0.  1.
         13    1    3    3    0    0 -0.38630077059E+03  0.34507448842E+03 -0.28547547077E+03  0.59143972092E+03  0.10566000000E+00 0. -1.
         -4    1    3    3    0  503  0.42714628448E+02 -0.43470492244E+03  0.19571086745E+03  0.47863937648E+03  0.00000000000E+00 0. -1.
<mgrwt>
<rscale>  2 0.10618908E+04</rscale>
<asrwt>0</asrwt>
<pdfrwt beam="1">  1       21 0.14940028E+00 0.10663075E+04</pdfrwt>
<pdfrwt beam="2">  1       21 0.17717683E+00 0.10663075E+04</pdfrwt>
<totfact> 0.27714653E+01</totfact>
</mgrwt>
</event>
<event>
 8    1  0.5815007E-006  0.1106646E+04  0.7818608E-02  0.8682090E-01
         21   -1    0    0  501  502  0.00000000000E+00  0.00000000000E+00  0.11472810368E+04  0.11472810368E+04  0.00000000000E+00 0.  1.
         21   -1    0    0  502  503 -0.00000000000E+00 -0.00000000000E+00 -0.10715832323E+04  0.10715832323E+04  0.00000000000E+00 0.  1.
   -9000010    2    1    2    0  503 -0.25094485093E+03 -0.39447556757E+03 -0.79448077799E+02  0.11094941592E+04  0.10030358920E+04 0.  0.
    9000010    2    1    2  501    0  0.25094485093E+03  0.39447556757E+03  0.15514588239E+03  0.11093701099E+04  0.99400578687E+03 0.  0.
        -13    1    4    4    0    0  0.45116809206E+03  0.53503697611E+03  0.36295342151E+03  0.78838595272E+03  0.10566000000E+00 0.  1.
          4    1    4    4  501    0 -0.20022324112E+03 -0.14056140853E+03 -0.20780753912E+03  0.32098415720E+03  0.00000000000E+00 0.  1.
         13    1    3    3    0    0  0.42213927245E+02  0.30183632936E+03 -0.16933669435E+03  0.34865758645E+03  0.10566000000E+00 0. -1.
         -4    1    3    3    0  503 -0.29315877818E+03 -0.69631189693E+03  0.89888616546E+02  0.76083657274E+03  0.00000000000E+00 0. -1.
<mgrwt>
<rscale>  2 0.11045958E+04</rscale>
<asrwt>0</asrwt>
<pdfrwt beam="1">  1       21 0.17650477E+00 0.11066460E+04</pdfrwt>
<pdfrwt beam="2">  1       21 0.16485896E+00 0.11066460E+04</pdfrwt>
<totfact> 0.20401708E+01</totfact>
</mgrwt>
</event>
<event>
 8    1  0.5815007E-006  0.1279560E+04  0.7818608E-02  0.8549925E-01
         21   -1    0    0  501  502  0.00000000000E+00  0.00000000000E+00  0.20632102510E+04  0.20632102510E+04  0.00000000000E+00 0.  1.
         21   -1    0    0  502  503 -0.00000000000E+00 -0.00000000000E+00 -0.80200638085E+03  0.80200638085E+03  0.00000000000E+00 0.  1.
   -9000010    2    1    2    0  503 -0.74684471130E+03 -0.25156743506E+03  0.45725008810E+03  0.13588055609E+04  0.10080732673E+04 0.  0.
    9000010    2    1    2  501    0  0.74684471130E+03  0.25156743506E+03  0.80395378204E+03  0.15064110709E+04  0.10009342804E+04 0.  0.
        -13    1    4    4    0    0 -0.16398746239E+03  0.31444154107E+03  0.29396264482E+03  0.46062937193E+03  0.10566000000E+00 0.  1.
          4    1    4    4  501    0  0.91083217369E+03 -0.62874106010E+02  0.50999113723E+03  0.10457816990E+04  0.00000000000E+00 0.  1.
         13    1    3    3    0    0 -0.16486639366E+02 -0.24883554526E+03  0.56777348532E+03  0.62012714797E+03  0.10566000000E+00 0. -1.
         -4    1    3    3    0  503 -0.73035807193E+03 -0.27318897993E+01 -0.11052339722E+03  0.73867841297E+03  0.00000000000E+00 0. -1.
<mgrwt>
<rscale>  2 0.12781539E+04</rscale>
<asrwt>0</asrwt>
<pdfrwt beam="1">  1       21 0.31741696E+00 0.12795604E+04</pdfrwt>
<pdfrwt beam="2">  1       21 0.12338560E+00 0.12795604E+04</pdfrwt>
<totfact> 0.42602261E+00</totfact>
</mgrwt>
</event>
<event>
 8    1  0.5815007E-006  0.1134214E+04  0.7818608E-02  0.8658163E-01
         21   -1    0    0  501  502  0.00000000000E+00  0.00000000000E+00  0.13278077190E+04  0.13278077190E+04  0.00000000000E+00 0. -1.
         21   -1    0    0  502  503 -0.00000000000E+00 -0.00000000000E+00 -0.98390045230E+03  0.98390045230E+03  0.00000000000E+00 0. -1.
   -9000010    2    1    2    0  503 -0.49040804886E+03  0.28189594299E+03  0.22348367327E+02  0.11344340766E+04  0.98309503481E+03 0.  0.
    9000010    2    1    2  501    0  0.49040804886E+03 -0.28189594299E+03  0.32155889939E+03  0.11772740948E+04  0.98112628716E+03 0.  0.
        -13    1    4    4    0    0  0.21016906484E+03 -0.64113340069E+03  0.15592244871E+03  0.69248458067E+03  0.10566000000E+00 0.  1.
          4    1    4    4  501    0  0.28023898402E+03  0.35923745770E+03  0.16563645068E+03  0.48478951409E+03  0.00000000000E+00 0.  1.
         13    1    3    3    0    0  0.23466734537E+03  0.16205764572E+03 -0.22044514503E+03  0.36045459721E+03  0.10566000000E+00 0. -1.
         -4    1    3    3    0  503 -0.72507539423E+03  0.11983829726E+03  0.24279351235E+03  0.77397947934E+03  0.00000000000E+00 0. -1.
<mgrwt>
<rscale>  2 0.11337872E+04</rscale>
<asrwt>0</asrwt>
<pdfrwt beam="1">  1       21 0.20427811E+00 0.11342139E+04</pdfrwt>
<pdfrwt beam="2">  1       21 0.15136930E+00 0.11342139E+04</pdfrwt>
<totfact> 0.15949341E+01</totfact>
</mgrwt>
</event>
<event>
 8    1  0.5815007E-006  0.1102643E+04  0.7818608E-02  0.8685957E-01
         21   -1    0    0  503  502  0.00000000000E+00  0.00000000000E+00  0.15657395439E+04  0.15657395439E+04  0.00000000000E+00 0. -1.
         21   -1    0    0  501  503 -0.00000000000E+00 -0.00000000000E+00 -0.11088864191E+04  0.11088864191E+04  0.00000000000E+00 0. -1.
    9000010    2    1    2  501    0  0.50810964245E+03 -0.43637815779E+02  0.96956100788E+03  0.14682883833E+04  0.97762086768E+03 0.  0.
   -9000010    2    1    2    0  502 -0.50810964245E+03  0.43637815779E+02 -0.51270788313E+03  0.12063375797E+04  0.96555751512E+03 0.  0.
        -13    1    3    3    0    0 -0.74645107173E+01  0.41202467674E+03  0.31609594394E+03  0.51936182965E+03  0.10566000000E+00 0.  1.
          4    1    3    3  501    0  0.51557415317E+03 -0.45566249252E+03  0.65346506394E+03  0.94892655369E+03  0.00000000000E+00 0.  1.
         13    1    4    4    0    0 -0.72863166284E+03 -0.18220569356E+03 -0.23796207056E+03  0.78786354977E+03  0.10566000000E+00 0. -1.
         -4    1    4    4    0  502  0.22052202039E+03  0.22584350933E+03 -0.27474581258E+03  0.41847402991E+03  0.00000000000E+00 0. -1.
<mgrwt>
<rscale>  2 0.10999632E+04</rscale>
<asrwt>0</asrwt>
<pdfrwt beam="1">  1       21 0.24088301E+00 0.11026433E+04</pdfrwt>
<pdfrwt beam="2">  1       21 0.17059791E+00 0.11026433E+04</pdfrwt>
<totfact> 0.58149243E+00</totfact>
</mgrwt>
</event>
<event>
 8    1  0.5815007E-006  0.1163858E+04  0.7818608E-02  0.8636000E-01
         21   -1    0    0  503  502  0.00000000000E+00  0.00000000000E+00  0.16259188769E+04  0.16259188769E+04  0.00000000000E+00 0.  1.
         21   -1    0    0  501  503 -0.00000000000E+00 -0.00000000000E+00 -0.83881537562E+03  0.83881537562E+03  0.00000000000E+00 0.  1.
    9000010    2    1    2  501    0  0.47103910352E+03  0.32052350868E+03  0.24501525786E+03  0.11808239589E+04  0.10048380907E+04 0.  0.
   -9000010    2    1    2    0  502 -0.47103910352E+03 -0.32052350868E+03  0.54208824338E+03  0.12839102936E+04  0.10148659132E+04 0.  0.
        -13    1    3    3    0    0  0.53499937301E+02  0.60975638757E+03 -0.10618828158E+02  0.61219103730E+03  0.10566000000E+00 0.  1.
          4    1    3    3  501    0  0.41753916622E+03 -0.28923287889E+03  0.25563408602E+03  0.56863292157E+03  0.00000000000E+00 0.  1.
         13    1    4    4    0    0 -0.61513383256E+03  0.28325377731E+02 -0.91297461142E+01  0.61585332865E+03  0.10566000000E+00 0. -1.
         -4    1    4    4    0  502  0.14409472904E+03 -0.34884888641E+03  0.55121798949E+03  0.66805696495E+03  0.00000000000E+00 0. -1.
<mgrwt>
<rscale>  2 0.11616686E+04</rscale>
<asrwt>0</asrwt>
<pdfrwt beam="1">  1       21 0.25014137E+00 0.11638582E+04</pdfrwt>
<pdfrwt beam="2">  1       21 0.12904852E+00 0.11638582E+04</pdfrwt>
<totfact> 0.11580729E+01</totfact>
</mgrwt>
</event>
<event>
 8    1  0.5815007E-006  0.1294865E+04  0.7818608E-02  0.8539197E-01
         21   -1    0    0  501  502  0.00000000000E+00  0.00000000000E+00  0.11590218622E+04  0.11590218622E+04  0.00000000000E+00 0.  1.
         21   -1    0    0  502  503 -0.00000000000E+00 -0.00000000000E+00 -0.15073665786E+04  0.15073665786E+04  0.00000000000E+00 0.  1.
   -9000010    2    1    2    0  503  0.36056647990E+03 -0.74024645085E+03 -0.45321861136E+03  0.13672831637E+04  0.99301719307E+03 0.  0.
    9000010    2    1    2  501    0 -0.36056647990E+03  0.74024645085E+03  0.10487389494E+03  0.12991052771E+04  0.99935128588E+03 0.  0.
        -13    1    4    4    0    0 -0.14474910554E+03 -0.88813563688E+01 -0.36230109190E+03  0.39024770903E+03  0.10566000000E+00 0.  1.
          4    1    4    4  501    0 -0.21581737436E+03  0.74912780722E+03  0.46717498683E+03  0.90885756802E+03  0.00000000000E+00 0.  1.
         13    1    3    3    0    0 -0.40608716720E+02 -0.29744385141E+02 -0.54398795636E+03  0.54631191104E+03  0.10566000000E+00 0. -1.
         -4    1    3    3    0  503  0.40117519662E+03 -0.71050206571E+03  0.90769345001E+02  0.82097125270E+03  0.00000000000E+00 0. -1.
<mgrwt>
<rscale>  2 0.12936429E+04</rscale>
<asrwt>0</asrwt>
<pdfrwt beam="1">  1       21 0.17831106E+00 0.12948652E+04</pdfrwt>
<pdfrwt beam="2">  1       21 0.23190255E+00 0.12948652E+04</pdfrwt>
<totfact> 0.56113270E+00</totfact>
</mgrwt>
</event>
<event>
 8    1  0.5815007E-006  0.1215157E+04  0.7818608E-02  0.8599555E-01
         21   -1    0    0  501  502  0.00000000000E+00  0.00000000000E+00  0.10859216458E+04  0.10859216458E+04  0.00000000000E+00 0. -1.
         21   -1    0    0  502  503 -0.00000000000E+00 -0.00000000000E+00 -0.13683147932E+04  0.13683147932E+04  0.00000000000E+00 0.  1.
   -9000010    2    1    2    0  503 -0.20471288206E+03 -0.64633421283E+03 -0.33395187494E+03  0.12379862431E+04  0.98052577962E+03 0.  0.
    9000010    2    1    2  501    0  0.20471288206E+03  0.64633421283E+03  0.51558727525E+02  0.12162501960E+04  0.10084398634E+04 0.  0.
        -13    1    4    4    0    0  0.31968388055E+03 -0.18266580901E+03 -0.56026089051E+02  0.37242920815E+03  0.10566000000E+00 0.  1.
          4    1    4    4  501    0 -0.11497099849E+03  0.82900002184E+03  0.10758481658E+03  0.84382098781E+03  0.00000000000E+00 0.  1.
         13    1    3    3    0    0 -0.73840518414E+02 -0.61389856443E+03  0.22880735354E+03  0.65930014847E+03  0.10566000000E+00 0. -1.
         -4    1    3    3    0  503 -0.13087236365E+03 -0.32435648396E+02 -0.56275922847E+03  0.57868609460E+03  0.00000000000E+00 0. -1.
<mgrwt>
<rscale>  2 0.12093494E+04</rscale>
<asrwt>0</asrwt>
<pdfrwt beam="1">  1       21 0.16706487E+00 0.12151569E+04</pdfrwt>
<pdfrwt beam="2">  1       21 0.21050997E+00 0.12151569E+04</pdfrwt>
<totfact> 0.10263498E+01</totfact>
</mgrwt>
</event>
<event>
 8    1  0.5815007E-006  0.1034026E+04  0.7818608E-02  0.8746169E-01
         21   -1    0    0  503  502  0.00000000000E+00  0.00000000000E+00  0.51356570421E+03  0.51356570421E+03  0.00000000000E+00 0.  1.
         21   -1    0    0  501  503 -0.00000000000E+00 -0.00000000000E+00 -0.20566251974E+04  0.20566251974E+04  0.00000000000E+00 0.  1.
    9000010    2    1    2  501    0 -0.16556076011E+03 -0.13699827128E+03 -0.75881055739E+03  0.12825766874E+04  0.10114497543E+04 0.  0.
   -9000010    2    1    2    0  502  0.16556076011E+03  0.13699827128E+03 -0.78424893584E+03  0.12876142142E+04  0.99836119699E+03 0.  0.
        -13    1    3    3    0    0 -0.22461678821E+03 -0.18553222060E+03 -0.99371876350E+03  0.10355442523E+04  0.10566000000E+00 0.  1.
          4    1    3    3  501    0  0.59056028102E+02  0.48533949321E+02  0.23490820612E+03  0.24703243510E+03  0.00000000000E+00 0.  1.
         13    1    4    4    0    0  0.25466042651E+03  0.54259796567E+03 -0.39065412079E+03  0.71545449781E+03  0.10566000000E+00 0. -1.
         -4    1    4    4    0  502 -0.89099666405E+02 -0.40559969439E+03 -0.39359481505E+03  0.57215971640E+03  0.00000000000E+00 0. -1.
<mgrwt>
<rscale>  2 0.10308111E+04</rscale>
<asrwt>0</asrwt>
<pdfrwt beam="1">  1       21 0.79010109E-01 0.10340259E+04</pdfrwt>
<pdfrwt beam="2">  1       21 0.31640387E+00 0.10340259E+04</pdfrwt>
<totfact> 0.14697808E+01</totfact>
</mgrwt>
</event>
<event>
 8    1  0.5815007E-006  0.1255031E+04  0.7818608E-02  0.8567011E-01
         21   -1    0    0  501  502  0.00000000000E+00  0.00000000000E+00  0.11186395997E+04  0.11186395997E+04  0.00000000000E+00 0.  1.
         21   -1    0    0  502  503 -0.00000000000E+00 -0.00000000000E+00 -0.14193303243E+04  0.14193303243E+04  0.00000000000E+00 0.  1.
   -9000010    2    1    2    0  503  0.54444764082E+03  0.52889589941E+03 -0.28542649227E+03  0.12828456828E+04  0.99401743308E+03 0.  0.
    9000010    2    1    2  501    0 -0.54444764082E+03 -0.52889589941E+03 -0.15264232315E+02  0.12551242413E+04  0.99947474119E+03 0.  0.
        -13    1    4    4    0    0 -0.29514059689E+03  0.17491640844E+03  0.28926079152E+03  0.44874885911E+03  0.10566000000E+00 0.  1.
          4    1    4    4  501    0 -0.24930704392E+03 -0.70381230786E+03 -0.30452502384E+03  0.80637538218E+03  0.00000000000E+00 0.  1.
         13    1    3    3    0    0  0.73487743953E+03  0.68126194904E+03 -0.18459046814E+03  0.10189388335E+04  0.10566000000E+00 0. -1.
         -4    1    3    3    0  503 -0.19042979872E+03 -0.15236604962E+03 -0.10083602413E+03  0.26390684925E+03  0.00000000000E+00 0. -1.
<mgrwt>
<rscale>  2 0.12539446E+04</rscale>
<asrwt>0</asrwt>
<pdfrwt beam="1">  1       21 0.17209840E+00 0.12550314E+04</pdfrwt>
<pdfrwt beam="2">  1       21 0.21835851E+00 0.12550314E+04</pdfrwt>
<totfact> 0.80478520E+00</totfact>
</mgrwt>
</event>
<event>
 8    1  0.5815007E-006  0.1237749E+04  0.7818608E-02  0.8584870E-01
         21   -1    0    0  503  502  0.00000000000E+00  0.00000000000E+00  0.24135535428E+04  0.24135535428E+04  0.00000000000E+00 0. -1.
         21   -1    0    0  501  503 -0.00000000000E+00 -0.00000000000E+00 -0.84838611946E+03  0.84838611946E+03  0.00000000000E+00 0. -1.
    9000010    2    1    2  501    0 -0.68403505118E+03 -0.28505195823E+03 -0.60179980577E+02  0.12392112030E+04  0.99139508038E+03 0.  0.
   -9000010    2    1    2    0  502  0.68403505118E+03  0.28505195823E+03  0.16253474040E+04  0.20227284593E+04  0.94895609299E+03 0.  0.
        -13    1    3    3    0    0 -0.49084428181E+03 -0.64754312439E+03 -0.12899857302E+03  0.82272768881E+03  0.10566000000E+00 0.  1.
          4    1    3    3  501    0 -0.19319076937E+03  0.36249116616E+03  0.68818592440E+02  0.41648351417E+03  0.00000000000E+00 0.  1.
         13    1    4    4    0    0  0.70372071685E+03 -0.16439084521E+03  0.12157806545E+04  0.14143443033E+04  0.10566000000E+00 0. -1.
         -4    1    4    4    0  502 -0.19685665675E+02  0.44944280344E+03  0.40956674947E+03  0.60838415600E+03  0.00000000000E+00 0. -1.
<mgrwt>
<rscale>  2 0.12292305E+04</rscale>
<asrwt>0</asrwt>
<pdfrwt beam="1">  1       21 0.37131593E+00 0.12377491E+04</pdfrwt>
<pdfrwt beam="2">  1       21 0.13052094E+00 0.12377491E+04</pdfrwt>
<totfact> 0.15290475E+00</totfact>
</mgrwt>
</event>
<event>
 8    1  0.5815007E-006  0.1127220E+04  0.7818608E-02  0.8664183E-01
         21   -1    0    0  503  502  0.00000000000E+00  0.00000000000E+00  0.13915556734E+04  0.13915556734E+04  0.00000000000E+00 0.  1.
         21   -1    0    0  501  503 -0.00000000000E+00 -0.00000000000E+00 -0.92133645017E+03  0.92133645017E+03  0.00000000000E+00 0.  1.
    9000010    2    1    2  501    0 -0.45872157380E+03 -0.23158460101E+03  0.36203696713E+03  0.11839321184E+04  0.10032784188E+04 0.  0.
   -9000010    2    1    2    0  502  0.45872157380E+03  0.23158460101E+03  0.10818225615E+03  0.11289600053E+04  0.99939500860E+03 0.  0.
        -13    1    3    3    0    0 -0.24570675492E+03 -0.41847463738E+03  0.62911485997E+03  0.79453026987E+03  0.10566000000E+00 0.  1.
          4    1    3    3  501    0 -0.21301481889E+03  0.18689003637E+03 -0.26707789285E+03  0.38940184849E+03  0.00000000000E+00 0.  1.
         13    1    4    4    0    0  0.79879223012E+02 -0.14310819860E+03  0.46142447530E+03  0.48966642150E+03  0.10566000000E+00 0. -1.
         -4    1    4    4    0  502  0.37884235079E+03  0.37469279962E+03 -0.35324221915E+03  0.63929358375E+03  0.00000000000E+00 0. -1.
<mgrwt>
<rscale>  2 0.11263551E+04</rscale>
<asrwt>0</asrwt>
<pdfrwt beam="1">  1       21 0.21408549E+00 0.11272198E+04</pdfrwt>
<pdfrwt beam="2">  1       21 0.14174407E+00 0.11272198E+04</pdfrwt>
<totfact> 0.16409373E+01</totfact>
</mgrwt>
</event>
<event>
 8    1  0.5815007E-006  0.1150512E+04  0.7818608E-02  0.8651569E-01
         21   -1    0    0  503  502  0.00000000000E+00  0.00000000000E+00  0.15175278113E+04  0.15175278113E+04  0.00000000000E+00 0. -1.
         21   -1    0    0  501  503 -0.00000000000E+00 -0.00000000000E+00 -0.93579572183E+03  0.93579572183E+03  0.00000000000E+00 0. -1.
    9000010    2    1    2  501    0 -0.11618655407E+03  0.48130175837E+03 -0.83244044978E+02  0.11535192019E+04  0.10385211987E+04 0.  0.
   -9000010    2    1    2    0  502  0.11618655407E+03 -0.48130175837E+03  0.66497613440E+03  0.12998043312E+04  0.10010730953E+04 0.  0.
        -13    1    3    3    0    0  0.65718674672E+02 -0.28437999479E+03 -0.20567238902E+03  0.35706031480E+03  0.10566000000E+00 0.  1.
          4    1    3    3  501    0 -0.18190522875E+03  0.76568175316E+03  0.12242834404E+03  0.79645888707E+03  0.00000000000E+00 0.  1.
         13    1    4    4    0    0  0.47380833937E+02  0.11912054770E+03  0.68325341329E+03  0.69517615483E+03  0.10566000000E+00 0. -1.
         -4    1    4    4    0  502  0.68805720136E+02 -0.60042230606E+03 -0.18277278888E+02  0.60462817637E+03  0.00000000000E+00 0. -1.
<mgrwt>
<rscale>  2 0.11419959E+04</rscale>
<asrwt>0</asrwt>
<pdfrwt beam="1">  1       21 0.23346582E+00 0.11505116E+04</pdfrwt>
<pdfrwt beam="2">  1       21 0.14396857E+00 0.11505116E+04</pdfrwt>
<totfact> 0.11144734E+01</totfact>
</mgrwt>
</event>
<event>
 8    1  0.5815007E-006  0.1094185E+04  0.7818608E-02  0.8698293E-01
         21   -1    0    0  503  502  0.00000000000E+00  0.00000000000E+00  0.17501192363E+04  0.17501192363E+04  0.00000000000E+00 0.  1.
         21   -1    0    0  501  503 -0.00000000000E+00 -0.00000000000E+00 -0.66485644845E+03  0.66485644845E+03  0.00000000000E+00 0.  1.
    9000010    2    1    2  501    0  0.33243161827E+03 -0.18524281211E+03  0.62436833045E+03  0.12597920896E+04  0.10258726123E+04 0.  0.
   -9000010    2    1    2    0  502 -0.33243161827E+03  0.18524281211E+03  0.46089445738E+03  0.11551835951E+04  0.98853414576E+03 0.  0.
        -13    1    3    3    0    0 -0.25517395863E+03  0.22698403727E+03  0.35641388763E+03  0.49362574163E+03  0.10566000000E+00 0.  1.
          4    1    3    3  501    0  0.58760557690E+03 -0.41222684938E+03  0.26795444282E+03  0.76616634798E+03  0.00000000000E+00 0.  1.
         13    1    4    4    0    0 -0.30771000146E+03  0.39756897871E+03 -0.13629751522E+03  0.52088728306E+03  0.10566000000E+00 0. -1.
         -4    1    4    4    0  502 -0.24721616809E+02 -0.21232616660E+03  0.59719197260E+03  0.63429631207E+03  0.00000000000E+00 0. -1.
<mgrwt>
<rscale>  2 0.10853463E+04</rscale>
<asrwt>0</asrwt>
<pdfrwt beam="1">  1       21 0.26924911E+00 0.10941848E+04</pdfrwt>
<pdfrwt beam="2">  1       21 0.10228561E+00 0.10941848E+04</pdfrwt>
<totfact> 0.16239496E+01</totfact>
</mgrwt>
</event>
<event>
 8    1  0.5815007E-006  0.1154330E+04  0.7818608E-02  0.8642879E-01
         21   -1    0    0  503  502  0.00000000000E+00  0.00000000000E+00  0.20342074630E+04  0.20342074630E+04  0.00000000000E+00 0. -1.
         21   -1    0    0  501  503 -0.00000000000E+00 -0.00000000000E+00 -0.66689757971E+03  0.66689757971E+03  0.00000000000E+00 0. -1.
    9000010    2    1    2  501    0 -0.54290622487E+03  0.99573790228E+02  0.48246580700E+03  0.12510996046E+04  0.10138120422E+04 0.  0.
   -9000010    2    1    2    0  502  0.54290622487E+03 -0.99573790228E+02  0.88484407625E+03  0.14500054381E+04  0.10074247478E+04 0.  0.
        -13    1    3    3    0    0 -0.60947502709E+03  0.44482422148E+03  0.48951690943E+03  0.89941937518E+03  0.10566000000E+00 0.  1.
          4    1    3    3  501    0  0.66568802220E+02 -0.34525043125E+03 -0.70511024286E+01  0.35168022940E+03  0.00000000000E+00 0.  1.
         13    1    4    4    0    0  0.60389037546E+03  0.28939184733E+03  0.80701735576E+03  0.10486697528E+04  0.10566000000E+00 0. -1.
         -4    1    4    4    0  502 -0.60984150587E+02 -0.38896563756E+03  0.77826720492E+02  0.40133568524E+03  0.00000000000E+00 0. -1.
<mgrwt>
<rscale>  2 0.11529257E+04</rscale>
<asrwt>0</asrwt>
<pdfrwt beam="1">  1       21 0.31295499E+00 0.11543297E+04</pdfrwt>
<pdfrwt beam="2">  1       21 0.10259963E+00 0.11543297E+04</pdfrwt>
<totfact> 0.77838174E+00</totfact>
</mgrwt>
</event>
<event>
 8    1  0.5815007E-006  0.1111099E+04  0.7818608E-02  0.8682982E-01
         21   -1    0    0  501  502  0.00000000000E+00  0.00000000000E+00  0.14844861199E+04  0.14844861199E+04  0.00000000000E+00 0. -1.
         21   -1    0    0  502  503 -0.00000000000E+00 -0.00000000000E+00 -0.83688877810E+03  0.83688877810E+03  0.00000000000E+00 0. -1.
   -9000010    2    1    2    0  503  0.36215799727E+03 -0.25019508605E+03  0.10892843316E+03  0.10865853586E+04  0.98744434874E+03 0.  0.
    9000010    2    1    2  501    0 -0.36215799727E+03  0.25019508605E+03  0.53866890867E+03  0.12347895395E+04  0.10201887166E+04 0.  0.
        -13    1    4    4    0    0 -0.51366947270E+02 -0.13197285343E+03  0.70175792447E+03  0.71590473740E+03  0.10566000000E+00 0.  1.
          4    1    4    4  501    0 -0.31079105000E+03  0.38216793948E+03 -0.16308901580E+03  0.51888480205E+03  0.00000000000E+00 0.  1.
         13    1    3    3    0    0  0.45758655438E+03 -0.48595093421E+03 -0.19009703324E+03  0.69402496959E+03  0.10566000000E+00 0. -1.
         -4    1    3    3    0  503 -0.95428557108E+02  0.23575584816E+03  0.29902546640E+03  0.39256038899E+03  0.00000000000E+00 0. -1.
<mgrwt>
<rscale>  2 0.11035251E+04</rscale>
<asrwt>0</asrwt>
<pdfrwt beam="1">  1       21 0.22838248E+00 0.11110990E+04</pdfrwt>
<pdfrwt beam="2">  1       21 0.12875212E+00 0.11110990E+04</pdfrwt>
<totfact> 0.17048414E+01</totfact>
</mgrwt>
</event>
<event>
 8    1  0.5815007E-006  0.1024637E+04  0.7818608E-02  0.8753077E-01
         21   -1    0    0  503  502  0.00000000000E+00  0.00000000000E+00  0.19512034879E+04  0.19512034879E+04  0.00000000000E+00 0. -1.
         21   -1    0    0  501  503 -0.00000000000E+00 -0.00000000000E+00 -0.53883973864E+03  0.53883973864E+03  0.00000000000E+00 0. -1.
    9000010    2    1    2  501    0 -0.36183693999E+02 -0.25062882559E+03  0.60439153450E+03  0.11896095983E+04  0.99285336347E+03 0.  0.
   -9000010    2    1    2    0  502  0.36183693999E+02  0.25062882559E+03  0.80797221472E+03  0.13004336282E+04  0.98700782864E+03 0.  0.
        -13    1    3    3    0    0 -0.49568207482E+02 -0.46144083816E+03  0.78484237892E+03  0.91179066963E+03  0.10566000000E+00 0.  1.
          4    1    3    3  501    0  0.13384513483E+02  0.21081201257E+03 -0.18045084443E+03  0.27781892862E+03  0.00000000000E+00 0.  1.
         13    1    4    4    0    0  0.31024747513E+03  0.53814310425E+03  0.51440443063E+03  0.80651312815E+03  0.10566000000E+00 0. -1.
         -4    1    4    4    0  502 -0.27406378113E+03 -0.28751427865E+03  0.29356778409E+03  0.49392050009E+03  0.00000000000E+00 0. -1.
<mgrwt>
<rscale>  2 0.10232187E+04</rscale>
<asrwt>0</asrwt>
<pdfrwt beam="1">  1       21 0.30018515E+00 0.10246374E+04</pdfrwt>
<pdfrwt beam="2">  1       21 0.82898422E-01 0.10246374E+04</pdfrwt>
<totfact> 0.17031208E+01</totfact>
</mgrwt>
</event>
<event>
 8    1  0.5815007E-006  0.1171758E+04  0.7818608E-02  0.8632551E-01
         21   -1    0    0  501  502  0.00000000000E+00  0.00000000000E+00  0.67952697187E+03  0.67952697187E+03  0.00000000000E+00 0. -1.
         21   -1    0    0  502  503 -0.00000000000E+00 -0.00000000000E+00 -0.21451078845E+04  0.21451078845E+04  0.00000000000E+00 0. -1.
   -9000010    2    1    2    0  503 -0.42611299876E+03  0.40831686054E+03 -0.11289478725E+04  0.16271259851E+04  0.10122849038E+04 0.  0.
    9000010    2    1    2  501    0  0.42611299876E+03 -0.40831686054E+03 -0.33663304014E+03  0.11975088712E+04  0.98610889190E+03 0.  0.
        -13    1    4    4    0    0  0.48588159717E+03  0.19602637095E+03 -0.26156055255E+03  0.58559473904E+03  0.10566000000E+00 0.  1.
          4    1    4    4  501    0 -0.59768598413E+02 -0.60434323149E+03 -0.75072487588E+02  0.61191413220E+03  0.00000000000E+00 0.  1.
         13    1    3    3    0    0 -0.27621754906E+03 -0.31960621781E+03 -0.33079329116E+03  0.53653376550E+03  0.10566000000E+00 0. -1.
         -4    1    3    3    0  503 -0.14989544969E+03  0.72792307835E+03 -0.79815458134E+03  0.10905922196E+04  0.00000000000E+00 0. -1.
<mgrwt>
<rscale>  2 0.11660819E+04</rscale>
<asrwt>0</asrwt>
<pdfrwt beam="1">  1       21 0.10454261E+00 0.11717575E+04</pdfrwt>
<pdfrwt beam="2">  1       21 0.33001660E+00 0.11717575E+04</pdfrwt>
<totfact> 0.55980286E+00</totfact>
</mgrwt>
</event>
<event>
 8    1  0.5815007E-006  0.1102090E+04  0.7818608E-02  0.8688801E-01
         21   -1    0    0  501  502  0.00000000000E+00  0.00000000000E+00  0.11210195592E+04  0.11210195592E+04  0.00000000000E+00 0. -1.
         21   -1    0    0  502  503 -0.00000000000E+00 -0.00000000000E+00 -0.13802395903E+04  0.13802395903E+04  0.00000000000E+00 0. -1.
   -9000010    2    1    2    0  503  0.45722100284E+03 -0.33530777777E+02 -0.72905713083E+03  0.13031980707E+04  0.97807236598E+03 0.  0.
    9000010    2    1    2  501    0 -0.45722100284E+03  0.33530777777E+02  0.46983709966E+03  0.11980610788E+04  0.10022115993E+04 0.  0.
        -13    1    4    4    0    0  0.20173711884E+03 -0.23002906091E+03 -0.60758398675E+02  0.31193401250E+03  0.10566000000E+00 0.  1.
          4    1    4    4  501    0 -0.65895812168E+03  0.26355983869E+03  0.53059549834E+03  0.88612706626E+03  0.00000000000E+00 0.  1.
         13    1    3    3    0    0  0.24948264648E+03  0.47083103751E+03 -0.32193081584E+03  0.62254551490E+03  0.10566000000E+00 0. -1.
         -4    1    3    3    0  503  0.20773835636E+03 -0.50436181528E+03 -0.40712631499E+03  0.68065255584E+03  0.00000000000E+00 0. -1.
<mgrwt>
<rscale>  2 0.10965730E+04</rscale>
<asrwt>0</asrwt>
<pdfrwt beam="1">  1       21 0.17246455E+00 0.11020905E+04</pdfrwt>
<pdfrwt beam="2">  1       21 0.21234455E+00 0.11020905E+04</pdfrwt>
<totfact> 0.91704175E+00</totfact>
</mgrwt>
</event>
<event>
 8    1  0.5815007E-006  0.1186212E+04  0.7818608E-02  0.8617242E-01
         21   -1    0    0  501  502  0.00000000000E+00  0.00000000000E+00  0.12383228523E+04  0.12383228523E+04  0.00000000000E+00 0.  1.
         21   -1    0    0  502  503 -0.00000000000E+00 -0.00000000000E+00 -0.12609731971E+04  0.12609731971E+04  0.00000000000E+00 0.  1.
   -9000010    2    1    2    0  503  0.56700086019E+03 -0.29710446755E+03 -0.40604346980E+03  0.12537823572E+04  0.99866804280E+03 0.  0.
    9000010    2    1    2  501    0 -0.56700086019E+03  0.29710446755E+03  0.38339312501E+03  0.12455136923E+04  0.99727279584E+03 0.  0.
        -13    1    4    4    0    0 -0.21085899856E+03  0.41036275444E+03  0.64233354069E+03  0.79085491474E+03  0.10566000000E+00 0.  1.
          4    1    4    4  501    0 -0.35614186162E+03 -0.11325828689E+03 -0.25894041568E+03  0.45465877757E+03  0.00000000000E+00 0.  1.
         13    1    3    3    0    0  0.64013086022E+03 -0.60742154254E+02 -0.64432481760E+03  0.91028106058E+03  0.10566000000E+00 0. -1.
         -4    1    3    3    0  503 -0.73130000038E+02 -0.23636231330E+03  0.23828134780E+03  0.34350129660E+03  0.00000000000E+00 0. -1.
<mgrwt>
<rscale>  2 0.11859183E+04</rscale>
<asrwt>0</asrwt>
<pdfrwt beam="1">  1       21 0.19051121E+00 0.11862120E+04</pdfrwt>
<pdfrwt beam="2">  1       21 0.19399588E+00 0.11862120E+04</pdfrwt>
<totfact> 0.89112425E+00</totfact>
</mgrwt>
</event>
<event>
 8    1  0.5815007E-006  0.1077982E+04  0.7818608E-02  0.8710563E-01
         21   -1    0    0  501  502  0.00000000000E+00  0.00000000000E+00  0.17003605570E+04  0.17003605570E+04  0.00000000000E+00 0. -1.
         21   -1    0    0  502  503 -0.00000000000E+00 -0.00000000000E+00 -0.89900531391E+03  0.89900531391E+03  0.00000000000E+00 0. -1.
   -9000010    2    1    2    0  503 -0.30036269597E+03 -0.19305372568E+03 -0.26465358008E+03  0.10833118377E+04  0.98794510482E+03 0.  0.
    9000010    2    1    2  501    0  0.30036269597E+03  0.19305372568E+03  0.10660088232E+04  0.15160540332E+04  0.10171320123E+04 0.  0.
        -13    1    4    4    0    0 -0.13112765431E+03 -0.35175748212E+03  0.29032125323E+03  0.47456741270E+03  0.10566000000E+00 0.  1.
          4    1    4    4  501    0  0.43149035028E+03  0.54481120781E+03  0.77568756997E+03  0.10414866205E+04  0.00000000000E+00 0.  1.
         13    1    3    3    0    0 -0.51051665673E+03 -0.47570807534E+03 -0.16057767711E+03  0.71603814932E+03  0.10566000000E+00 0. -1.
         -4    1    3    3    0  503  0.21015396076E+03  0.28265434965E+03 -0.10407590297E+03  0.36727368839E+03  0.00000000000E+00 0. -1.
<mgrwt>
<rscale>  2 0.10710415E+04</rscale>
<asrwt>0</asrwt>
<pdfrwt beam="1">  1       21 0.26159393E+00 0.10779819E+04</pdfrwt>
<pdfrwt beam="2">  1       21 0.13830851E+00 0.10779819E+04</pdfrwt>
<totfact> 0.79591557E+00</totfact>
</mgrwt>
</event>
<event>
 8    1  0.5815007E-006  0.1034331E+04  0.7818608E-02  0.8750328E-01
         21   -1    0    0  503  502  0.00000000000E+00  0.00000000000E+00  0.11476037416E+04  0.11476037416E+04  0.00000000000E+00 0.  1.
         21   -1    0    0  501  503 -0.00000000000E+00 -0.00000000000E+00 -0.90440731513E+03  0.90440731513E+03  0.00000000000E+00 0.  1.
    9000010    2    1    2  501    0 -0.16786153331E+02 -0.28668128825E+03  0.89112007722E+02  0.10062656135E+04  0.96029245489E+03 0.  0.
   -9000010    2    1    2    0  502  0.16786153331E+02  0.28668128825E+03  0.15408441877E+03  0.10457454433E+04  0.99366673895E+03 0.  0.
        -13    1    3    3    0    0  0.87618941383E+02 -0.63264201890E+03  0.89305838576E+02  0.64489421375E+03  0.10566000000E+00 0.  1.
          4    1    3    3  501    0 -0.10440509471E+03  0.34596073064E+03 -0.19383085397E+00  0.36137139970E+03  0.00000000000E+00 0.  1.
         13    1    4    4    0    0 -0.64278764329E+02 -0.36301896825E+02 -0.39594415613E+03  0.40276714513E+03  0.10566000000E+00 0. -1.
         -4    1    4    4    0  502  0.81064917660E+02  0.32298318508E+03  0.55002857490E+03  0.64297829818E+03  0.00000000000E+00 0. -1.
<mgrwt>
<rscale>  2 0.10262320E+04</rscale>
<asrwt>0</asrwt>
<pdfrwt beam="1">  1       21 0.17655442E+00 0.10343314E+04</pdfrwt>
<pdfrwt beam="2">  1       21 0.13913959E+00 0.10343314E+04</pdfrwt>
<totfact> 0.35018675E+01</totfact>
</mgrwt>
</event>
<event>
 8    1  0.5815007E-006  0.1224774E+04  0.7818608E-02  0.8588894E-01
         21   -1    0    0  501  502  0.00000000000E+00  0.00000000000E+00  0.88317567983E+03  0.88317567983E+03  0.00000000000E+00 0. -1.
         21   -1    0    0  502  503 -0.00000000000E+00 -0.00000000000E+00 -0.17170381132E+04  0.17170381132E+04  0.00000000000E+00 0.  1.
   -9000010    2    1    2    0  503 -0.27331569959E+03 -0.65051352108E+03 -0.26312908845E+03  0.12527206241E+04  0.10011007602E+04 0.  0.
    9000010    2    1    2  501    0  0.27331569959E+03  0.65051352108E+03 -0.57073334494E+03  0.13474931690E+04  0.99605821948E+03 0.  0.
        -13    1    4    4    0    0  0.42232563694E+03 -0.26215189111E+02 -0.49379968995E+03  0.65029556720E+03  0.10566000000E+00 0.  1.
          4    1    4    4  501    0 -0.14900993736E+03  0.67672871019E+03 -0.76933654992E+02  0.69719760175E+03  0.00000000000E+00 0.  1.
         13    1    3    3    0    0 -0.48491196198E+03 -0.20580639353E+03  0.21253277509E+03  0.56803703589E+03  0.10566000000E+00 0. -1.
         -4    1    3    3    0  503  0.21159626239E+03 -0.44470712754E+03 -0.47566186354E+03  0.68468358821E+03  0.00000000000E+00 0. -1.
<mgrwt>
<rscale>  2 0.12237434E+04</rscale>
<asrwt>0</asrwt>
<pdfrwt beam="1">  1       21 0.13587318E+00 0.12247743E+04</pdfrwt>
<pdfrwt beam="2">  1       21 0.26415971E+00 0.12247743E+04</pdfrwt>
<totfact> 0.77894000E+00</totfact>
</mgrwt>
</event>
<event>
 8    1  0.5815007E-006  0.1041940E+04  0.7818608E-02  0.8745703E-01
         21   -1    0    0  501  502  0.00000000000E+00  0.00000000000E+00  0.15017125488E+04  0.15017125488E+04  0.00000000000E+00 0.  1.
         21   -1    0    0  502  503 -0.00000000000E+00 -0.00000000000E+00 -0.69587809089E+03  0.69587809089E+03  0.00000000000E+00 0.  1.
   -9000010    2    1    2    0  503  0.17077111106E+03  0.58286605456E+02  0.44840228429E+03  0.10960479760E+04  0.98371563794E+03 0.  0.
    9000010    2    1    2  501    0 -0.17077111106E+03 -0.58286605456E+02  0.35743217362E+03  0.11015426637E+04  0.10261960731E+04 0.  0.
        -13    1    4    4    0    0  0.15278727525E+03 -0.66128547717E+02 -0.31443141072E+03  0.35578653644E+03  0.10566000000E+00 0.  1.
          4    1    4    4  501    0 -0.32355838631E+03  0.78419422610E+01  0.67186358434E+03  0.74575612728E+03  0.00000000000E+00 0.  1.
         13    1    3    3    0    0  0.52063847312E+03 -0.14524570020E+03  0.75632990567E+02  0.54578484181E+03  0.10566000000E+00 0. -1.
         -4    1    3    3    0  503 -0.34986736206E+03  0.20353230566E+03  0.37276929372E+03  0.55026313416E+03  0.00000000000E+00 0. -1.
<mgrwt>
<rscale>  2 0.10313258E+04</rscale>
<asrwt>0</asrwt>
<pdfrwt beam="1">  1       21 0.23103270E+00 0.10419398E+04</pdfrwt>
<pdfrwt beam="2">  1       21 0.10705817E+00 0.10419398E+04</pdfrwt>
<totfact> 0.27613575E+01</totfact>
</mgrwt>
</event>
<event>
 8    1  0.5815007E-006  0.1150957E+04  0.7818608E-02  0.8645177E-01
         21   -1    0    0  503  502  0.00000000000E+00  0.00000000000E+00  0.19052390165E+04  0.19052390165E+04  0.00000000000E+00 0. -1.
         21   -1    0    0  501  503 -0.00000000000E+00 -0.00000000000E+00 -0.81911898849E+03  0.81911898849E+03  0.00000000000E+00 0. -1.
    9000010    2    1    2  501    0 -0.50164933967E+03  0.25034529152E+03  0.93931568358E+01  0.11509948423E+04  0.10051746469E+04 0.  0.
   -9000010    2    1    2    0  502  0.50164933967E+03 -0.25034529152E+03  0.10767268712E+04  0.15733631627E+04  0.10009026234E+04 0.  0.
        -13    1    3    3    0    0 -0.11252485535E+03 -0.38264277882E+03  0.72158269678E+02  0.40531983211E+03  0.10566000000E+00 0.  1.
          4    1    3    3  501    0 -0.38912448432E+03  0.63298807033E+03 -0.62765112842E+02  0.74567501022E+03  0.00000000000E+00 0.  1.
         13    1    4    4    0    0 -0.31077508395E+02 -0.51090831912E+03  0.29045635331E+03  0.58852189969E+03  0.10566000000E+00 0. -1.
         -4    1    4    4    0  502  0.53272684806E+03  0.26056302761E+03  0.78627051789E+03  0.98484126300E+03  0.00000000000E+00 0. -1.
<mgrwt>
<rscale>  2 0.11500231E+04</rscale>
<asrwt>0</asrwt>
<pdfrwt beam="1">  1       21 0.29311369E+00 0.11509565E+04</pdfrwt>
<pdfrwt beam="2">  1       21 0.12601831E+00 0.11509565E+04</pdfrwt>
<totfact> 0.61152842E+00</totfact>
</mgrwt>
</event>
<event>
 8    1  0.5815007E-006  0.1394635E+04  0.7818608E-02  0.8475867E-01
         21   -1    0    0  503  502  0.00000000000E+00  0.00000000000E+00  0.26605673981E+04  0.26605673981E+04  0.00000000000E+00 0. -1.
         21   -1    0    0  501  503 -0.00000000000E+00 -0.00000000000E+00 -0.91819235077E+03  0.91819235077E+03  0.00000000000E+00 0. -1.
    9000010    2    1    2  501    0  0.77587025597E+03  0.54515727783E+03  0.37364367972E+02  0.13760189328E+04  0.99642405418E+03 0.  0.
   -9000010    2    1    2    0  502 -0.77587025597E+03 -0.54515727783E+03  0.17050106794E+04  0.22027408161E+04  0.10226605372E+04 0.  0.
        -13    1    3    3    0    0  0.57658844166E+03 -0.19271330840E+03 -0.30487889929E+02  0.60870532517E+03  0.10566000000E+00 0.  1.
          4    1    3    3  501    0  0.19928181431E+03  0.73787058624E+03  0.67852257902E+02  0.76731360763E+03  0.00000000000E+00 0.  1.
         13    1    4    4    0    0 -0.85919191488E+03 -0.74910944752E+03  0.12179339641E+04  0.16681543283E+04  0.10566000000E+00 0. -1.
         -4    1    4    4    0  502  0.83321658910E+02  0.20395216969E+03  0.48707671524E+03  0.53458648776E+03  0.00000000000E+00 0. -1.
<mgrwt>
<rscale>  2 0.13898291E+04</rscale>
<asrwt>0</asrwt>
<pdfrwt beam="1">  1       21 0.40931806E+00 0.13946346E+04</pdfrwt>
<pdfrwt beam="2">  1       21 0.14126036E+00 0.13946346E+04</pdfrwt>
<totfact> 0.63783241E-01</totfact>
</mgrwt>
</event>
<event>
 8    1  0.5815007E-006  0.1108339E+04  0.7818608E-02  0.8678981E-01
         21   -1    0    0  503  502  0.00000000000E+00  0.00000000000E+00  0.75195552644E+03  0.75195552644E+03  0.00000000000E+00 0. -1.
         21   -1    0    0  501  503 -0.00000000000E+00 -0.00000000000E+00 -0.18610997838E+04  0.18610997838E+04  0.00000000000E+00 0. -1.
    9000010    2    1    2  501    0  0.46550756889E+03  0.16790478178E+03 -0.10113594791E+04  0.15004207554E+04  0.99172835741E+03 0.  0.
   -9000010    2    1    2    0  502 -0.46550756889E+03 -0.16790478178E+03 -0.97784778221E+02  0.11126345548E+04  0.99171794238E+03 0.  0.
        -13    1    3    3    0    0  0.63534200343E+03  0.39804280731E+03 -0.46085578031E+03  0.88004863456E+03  0.10566000000E+00 0.  1.
          4    1    3    3  501    0 -0.16983443454E+03 -0.23013802553E+03 -0.55050369883E+03  0.62037212089E+03  0.00000000000E+00 0.  1.
         13    1    4    4    0    0  0.17533385103E+03 -0.17454718796E+03 -0.34601490989E+03  0.42536456031E+03  0.10566000000E+00 0. -1.
         -4    1    4    4    0  502 -0.64084141992E+03  0.66424061819E+01  0.24823013167E+03  0.68726999448E+03  0.00000000000E+00 0. -1.
<mgrwt>
<rscale>  2 0.11083363E+04</rscale>
<asrwt>0</asrwt>
<pdfrwt beam="1">  1       21 0.11568547E+00 0.11083386E+04</pdfrwt>
<pdfrwt beam="2">  1       21 0.28632304E+00 0.11083386E+04</pdfrwt>
<totfact> 0.87688851E+00</totfact>
</mgrwt>
</event>
<event>
 8    1  0.5815007E-006  0.1051901E+04  0.7818608E-02  0.8727342E-01
         21   -1    0    0  503  502  0.00000000000E+00  0.00000000000E+00  0.12199126959E+04  0.12199126959E+04  0.00000000000E+00 0. -1.
         21   -1    0    0  501  503 -0.00000000000E+00 -0.00000000000E+00 -0.93026069969E+03  0.93026069969E+03  0.00000000000E+00 0. -1.
    9000010    2    1    2  501    0  0.29276985487E+03 -0.15952839876E+03 -0.25689553581E+02  0.10522144621E+04  0.99766318117E+03 0.  0.
   -9000010    2    1    2    0  502 -0.29276985487E+03  0.15952839876E+03  0.31534154977E+03  0.10979589335E+04  0.99745176763E+03 0.  0.
        -13    1    3    3    0    0 -0.24322568651E+03 -0.35480952157E+03 -0.17200794303E+03  0.46328746455E+03  0.10566000000E+00 0.  1.
          4    1    3    3  501    0  0.53599554138E+03  0.19528112282E+03  0.14631838944E+03  0.58892699751E+03  0.00000000000E+00 0.  1.
         13    1    4    4    0    0  0.15242572357E+03  0.25813558322E+03 -0.23669004279E+03  0.38195519116E+03  0.10566000000E+00 0. -1.
         -4    1    4    4    0  502 -0.44519557844E+03 -0.98607184465E+02  0.55203159256E+03  0.71600374236E+03  0.00000000000E+00 0. -1.
<mgrwt>
<rscale>  2 0.10518507E+04</rscale>
<asrwt>0</asrwt>
<pdfrwt beam="1">  1       21 0.18767888E+00 0.10519008E+04</pdfrwt>
<pdfrwt beam="2">  1       21 0.14311703E+00 0.10519008E+04</pdfrwt>
<totfact> 0.26039834E+01</totfact>
</mgrwt>
</event>
<event>
 8    1  0.5815007E-006  0.1314871E+04  0.7818608E-02  0.8544354E-01
         21   -1    0    0  501  502  0.00000000000E+00  0.00000000000E+00  0.49540467469E+03  0.49540467469E+03  0.00000000000E+00 0. -1.
         21   -1    0    0  502  503 -0.00000000000E+00 -0.00000000000E+00 -0.33200779052E+04  0.33200779052E+04  0.00000000000E+00 0. -1.
   -9000010    2    1    2    0  503 -0.66531699767E+03  0.69290813400E+02 -0.18330791895E+04  0.22558958763E+04  0.11320066102E+04 0.  0.
    9000010    2    1    2  501    0  0.66531699767E+03 -0.69290813400E+02 -0.99159404096E+03  0.15595867035E+04  0.10008016884E+04 0.  0.
        -13    1    4    4    0    0  0.33713973723E+03 -0.39995545760E+03 -0.71087083237E+02  0.52790241054E+03  0.10566000000E+00 0.  1.
          4    1    4    4  501    0  0.32817726045E+03  0.33066464420E+03 -0.92050695773E+03  0.10316842930E+04  0.00000000000E+00 0.  1.
         13    1    3    3    0    0  0.10978726318E+03 -0.38634089592E+03 -0.72616590503E+03  0.82983701039E+03  0.10566000000E+00 0. -1.
         -4    1    3    3    0  503 -0.77510426086E+03  0.45563170932E+03 -0.11069132845E+04  0.14260588659E+04  0.00000000000E+00 0. -1.
<mgrwt>
<rscale>  2 0.12861688E+04</rscale>
<asrwt>0</asrwt>
<pdfrwt beam="1">  1       21 0.76216106E-01 0.13148714E+04</pdfrwt>
<pdfrwt beam="2">  1       21 0.51078120E+00 0.13148714E+04</pdfrwt>
<totfact> 0.66972981E-01</totfact>
</mgrwt>
</event>
<event>
 8    1  0.5815007E-006  0.1547822E+04  0.7818608E-02  0.8384333E-01
         21   -1    0    0  501  502  0.00000000000E+00  0.00000000000E+00  0.98126579320E+03  0.98126579320E+03  0.00000000000E+00 0.  1.
         21   -1    0    0  502  503 -0.00000000000E+00 -0.00000000000E+00 -0.26022303172E+04  0.26022303172E+04  0.00000000000E+00 0. -1.
   -9000010    2    1    2    0  503 -0.11514053935E+04 -0.26639952429E+03 -0.12804558783E+04  0.19986622326E+04  0.97896903791E+03 0.  0.
    9000010    2    1    2  501    0  0.11514053935E+04  0.26639952429E+03 -0.34050864573E+03  0.15848338778E+04  0.99952448478E+03 0.  0.
        -13    1    4    4    0    0 -0.49167840606E+02  0.65456344672E+02  0.22733669089E+03  0.24162779599E+03  0.10566000000E+00 0.  1.
          4    1    4    4  501    0  0.12005732341E+04  0.20094317962E+03 -0.56784533662E+03  0.13432060818E+04  0.00000000000E+00 0.  1.
         13    1    3    3    0    0 -0.10381689115E+04 -0.18659739444E+03 -0.43343151803E+03  0.11403842196E+04  0.10566000000E+00 0. -1.
         -4    1    3    3    0  503 -0.11323648202E+03 -0.79802129852E+02 -0.84702436022E+03  0.85827801300E+03  0.00000000000E+00 0. -1.
<mgrwt>
<rscale>  2 0.15445128E+04</rscale>
<asrwt>0</asrwt>
<pdfrwt beam="1">  1       21 0.15096397E+00 0.15478218E+04</pdfrwt>
<pdfrwt beam="2">  1       21 0.40034312E+00 0.15478218E+04</pdfrwt>
<totfact> 0.58482403E-01</totfact>
</mgrwt>
</event>
<event>
 8    1  0.5815007E-006  0.1075032E+04  0.7818608E-02  0.8723648E-01
         21   -1    0    0  501  502  0.00000000000E+00  0.00000000000E+00  0.15424058646E+04  0.15424058646E+04  0.00000000000E+00 0. -1.
         21   -1    0    0  502  503 -0.00000000000E+00 -0.00000000000E+00 -0.70375591736E+03  0.70375591736E+03  0.00000000000E+00 0. -1.
   -9000010    2    1    2    0  503  0.59908888968E+02 -0.29433650909E+03  0.33812846864E+03  0.11269535034E+04  0.10322161992E+04 0.  0.
    9000010    2    1    2  501    0 -0.59908888968E+02  0.29433650909E+03  0.50052147862E+03  0.11192082786E+04  0.95492531897E+03 0.  0.
        -13    1    4    4    0    0 -0.22546983329E+03 -0.88465953745E+02 -0.19316242608E+03  0.30979768351E+03  0.10566000000E+00 0.  1.
          4    1    4    4  501    0  0.16556094432E+03  0.38280246284E+03  0.69368390470E+03  0.80941059511E+03  0.00000000000E+00 0.  1.
         13    1    3    3    0    0  0.46945113174E+03 -0.11998391151E+02 -0.80934670439E+02  0.47652781506E+03  0.10566000000E+00 0. -1.
         -4    1    3    3    0  503 -0.40954224278E+03 -0.28233811794E+03  0.41906313908E+03  0.65042568830E+03  0.00000000000E+00 0. -1.
<mgrwt>
<rscale>  2 0.10560395E+04</rscale>
<asrwt>0</asrwt>
<pdfrwt beam="1">  1       21 0.23729321E+00 0.10750318E+04</pdfrwt>
<pdfrwt beam="2">  1       21 0.10827014E+00 0.10750318E+04</pdfrwt>
<totfact> 0.23907274E+01</totfact>
</mgrwt>
</event>
<event>
 8    1  0.5815007E-006  0.1211155E+04  0.7818608E-02  0.8600132E-01
         21   -1    0    0  501  502  0.00000000000E+00  0.00000000000E+00  0.13203712666E+04  0.13203712666E+04  0.00000000000E+00 0.  1.
         21   -1    0    0  502  503 -0.00000000000E+00 -0.00000000000E+00 -0.11209448241E+04  0.11209448241E+04  0.00000000000E+00 0. -1.
   -9000010    2    1    2    0  503 -0.36265087817E+03 -0.54124272553E+03 -0.61209366409E+02  0.12024349356E+04  0.10087833466E+04 0.  0.
    9000010    2    1    2  501    0  0.36265087817E+03  0.54124272553E+03  0.26063580893E+03  0.12388811552E+04  0.10209976222E+04 0.  0.
        -13    1    4    4    0    0  0.31784569725E+03  0.33932430103E+03 -0.35786459190E+03  0.58671453522E+03  0.10566000000E+00 0.  1.
          4    1    4    4  501    0  0.44805180912E+02  0.20191842450E+03  0.61850040083E+03  0.65216661998E+03  0.00000000000E+00 0.  1.
         13    1    3    3    0    0  0.20454991424E+03 -0.55041627306E+03 -0.19658787041E+03  0.61922979823E+03  0.10566000000E+00 0. -1.
         -4    1    3    3    0  503 -0.56720079241E+03  0.91735475253E+01  0.13537850400E+03  0.58320513735E+03  0.00000000000E+00 0. -1.
<mgrwt>
<rscale>  2 0.12085767E+04</rscale>
<asrwt>0</asrwt>
<pdfrwt beam="1">  1       21 0.20313404E+00 0.12111546E+04</pdfrwt>
<pdfrwt beam="2">  1       21 0.17245305E+00 0.12111546E+04</pdfrwt>
<totfact> 0.10551280E+01</totfact>
</mgrwt>
</event>
<event>
 8    1  0.5815007E-006  0.1013859E+04  0.7818608E-02  0.8764215E-01
         21   -1    0    0  501  502  0.00000000000E+00  0.00000000000E+00  0.14855240410E+04  0.14855240410E+04  0.00000000000E+00 0. -1.
         21   -1    0    0  502  503 -0.00000000000E+00 -0.00000000000E+00 -0.68452759322E+03  0.68452759322E+03  0.00000000000E+00 0. -1.
   -9000010    2    1    2    0  503 -0.22981843696E+02 -0.15527469230E+03  0.39856703056E+03  0.10893880623E+04  0.10016348023E+04 0.  0.
    9000010    2    1    2  501    0  0.22981843696E+02  0.15527469230E+03  0.40242941726E+03  0.10806635720E+04  0.99057858078E+03 0.  0.
        -13    1    4    4    0    0  0.31782112063E+03  0.46000608007E+03  0.12192504092E+03  0.57226006779E+03  0.10566000000E+00 0.  1.
          4    1    4    4  501    0 -0.29483927694E+03 -0.30473138777E+03  0.28050437634E+03  0.50840350418E+03  0.00000000000E+00 0.  1.
         13    1    3    3    0    0 -0.64501429435E+01 -0.55026171250E+03  0.33564491299E+02  0.55132217698E+03  0.10566000000E+00 0. -1.
         -4    1    3    3    0  503 -0.16531700752E+02  0.39498702020E+03  0.36500253926E+03  0.53806588530E+03  0.00000000000E+00 0. -1.
<mgrwt>
<rscale>  2 0.10111178E+04</rscale>
<asrwt>0</asrwt>
<pdfrwt beam="1">  1       21 0.22854216E+00 0.10138593E+04</pdfrwt>
<pdfrwt beam="2">  1       21 0.10531194E+00 0.10138593E+04</pdfrwt>
<totfact> 0.30298295E+01</totfact>
</mgrwt>
</event>
<event>
 8    1  0.5815007E-006  0.1324153E+04  0.7818608E-02  0.8522456E-01
         21   -1    0    0  501  502  0.00000000000E+00  0.00000000000E+00  0.15101241359E+04  0.15101241359E+04  0.00000000000E+00 0. -1.
         21   -1    0    0  502  503 -0.00000000000E+00 -0.00000000000E+00 -0.11409903428E+04  0.11409903428E+04  0.00000000000E+00 0.  1.
   -9000010    2    1    2    0  503  0.62544230976E+03  0.55160415411E+03  0.16077260742E+03  0.13106681454E+04  0.99827748161E+03 0.  0.
    9000010    2    1    2  501    0 -0.62544230976E+03 -0.55160415411E+03  0.20836118570E+03  0.13404463334E+04  0.10285605298E+04 0.  0.
        -13    1    4    4    0    0  0.78555786870E+01 -0.28091122949E+03 -0.35351337412E+03  0.45160219863E+03  0.10566000000E+00 0.  1.
          4    1    4    4  501    0 -0.63329788845E+03 -0.27069292462E+03  0.56187455982E+03  0.88884413478E+03  0.00000000000E+00 0.  1.
         13    1    3    3    0    0  0.58633027148E+03  0.28790741306E+03 -0.34516785202E+03  0.73879274698E+03  0.10566000000E+00 0. -1.
         -4    1    3    3    0  503  0.39112038283E+02  0.26369674104E+03  0.50594045944E+03  0.57187539838E+03  0.00000000000E+00 0. -1.
<mgrwt>
<rscale>  2 0.13182684E+04</rscale>
<asrwt>0</asrwt>
<pdfrwt beam="1">  1       21 0.23232679E+00 0.13241533E+04</pdfrwt>
<pdfrwt beam="2">  1       21 0.17553698E+00 0.13241533E+04</pdfrwt>
<totfact> 0.58393391E+00</totfact>
</mgrwt>
</event>
<event>
 8    1  0.5815007E-006  0.1638962E+04  0.7818608E-02  0.8340074E-01
         21   -1    0    0  501  502  0.00000000000E+00  0.00000000000E+00  0.18887996048E+04  0.18887996048E+04  0.00000000000E+00 0. -1.
         21   -1    0    0  502  503 -0.00000000000E+00 -0.00000000000E+00 -0.20277325651E+04  0.20277325651E+04  0.00000000000E+00 0.  1.
   -9000010    2    1    2    0  503 -0.73787319858E+03 -0.10226652241E+04 -0.11750030767E+04  0.19775533806E+04  0.96942463608E+03 0.  0.
    9000010    2    1    2  501    0  0.73787319858E+03  0.10226652241E+04  0.10360701164E+04  0.19389787893E+04  0.10468507255E+04 0.  0.
        -13    1    4    4    0    0  0.99066282677E+03  0.63949157328E+03  0.71868901014E+03  0.13808968872E+04  0.10566000000E+00 0.  1.
          4    1    4    4  501    0 -0.25278962818E+03  0.38317365083E+03  0.31738110629E+03  0.55808190209E+03  0.00000000000E+00 0.  1.
         13    1    3    3    0    0 -0.52518257302E+03  0.17476193006E+02 -0.32829119792E+03  0.61959444326E+03  0.10566000000E+00 0. -1.
         -4    1    3    3    0  503 -0.21269062556E+03 -0.10401414171E+04 -0.84671187880E+03  0.13579589373E+04  0.00000000000E+00 0. -1.
<mgrwt>
<rscale>  2 0.16267418E+04</rscale>
<asrwt>0</asrwt>
<pdfrwt beam="1">  1       21 0.29058456E+00 0.16389623E+04</pdfrwt>
<pdfrwt beam="2">  1       21 0.31195885E+00 0.16389623E+04</pdfrwt>
<totfact> 0.20003830E-01</totfact>
</mgrwt>
</event>
<event>
 8    1  0.5815007E-006  0.1337986E+04  0.7818608E-02  0.8512904E-01
         21   -1    0    0  501  502  0.00000000000E+00  0.00000000000E+00  0.19655215501E+04  0.19655215501E+04  0.00000000000E+00 0.  1.
         21   -1    0    0  502  503 -0.00000000000E+00 -0.00000000000E+00 -0.10106621933E+04  0.10106621933E+04  0.00000000000E+00 0.  1.
   -9000010    2    1    2    0  503 -0.84987993852E+03 -0.15305069250E+02 -0.19888118832E+02  0.13381336620E+04  0.10332840873E+04 0.  0.
    9000010    2    1    2  501    0  0.84987993852E+03  0.15305069250E+02  0.97474747569E+03  0.16380500814E+04  0.10052588089E+04 0.  0.
        -13    1    4    4    0    0  0.69739227655E+03 -0.36195550047E+03  0.28231713623E+03  0.83490762860E+03  0.10566000000E+00 0.  1.
          4    1    4    4  501    0  0.15248766196E+03  0.37726056972E+03  0.69243033946E+03  0.80314245282E+03  0.00000000000E+00 0.  1.
         13    1    3    3    0    0 -0.88281687007E+03 -0.79872913186E+02 -0.38461934855E+03  0.96626981883E+03  0.10566000000E+00 0. -1.
         -4    1    3    3    0  503  0.32936931557E+02  0.64567843936E+02  0.36473122972E+03  0.37186384317E+03  0.00000000000E+00 0. -1.
<mgrwt>
<rscale>  2 0.13325724E+04</rscale>
<asrwt>0</asrwt>
<pdfrwt beam="1">  1       21 0.30238793E+00 0.13379859E+04</pdfrwt>
<pdfrwt beam="2">  1       21 0.15548649E+00 0.13379859E+04</pdfrwt>
<totfact> 0.26954376E+00</totfact>
</mgrwt>
</event>
<event>
 8    1  0.5815007E-006  0.1189578E+04  0.7818608E-02  0.8616233E-01
         21   -1    0    0  501  502  0.00000000000E+00  0.00000000000E+00  0.25575577335E+04  0.25575577335E+04  0.00000000000E+00 0. -1.
         21   -1    0    0  502  503 -0.00000000000E+00 -0.00000000000E+00 -0.71609309057E+03  0.71609309057E+03  0.00000000000E+00 0. -1.
   -9000010    2    1    2    0  503 -0.21419437673E+03 -0.60613223198E+03  0.13277543936E+03  0.11969652392E+04  0.10009100623E+04 0.  0.
    9000010    2    1    2  501    0  0.21419437673E+03  0.60613223198E+03  0.17086892035E+04  0.20766855848E+04  0.98981246224E+03 0.  0.
        -13    1    4    4    0    0  0.37639727212E+03  0.35882396302E+03  0.22984657282E+03  0.56855870506E+03  0.10566000000E+00 0.  1.
          4    1    4    4  501    0 -0.16220289539E+03  0.24730826896E+03  0.14788426307E+04  0.15081268798E+04  0.00000000000E+00 0.  1.
         13    1    3    3    0    0 -0.49170302877E+03 -0.24716974865E+03  0.39082984943E+03  0.67499091514E+03  0.10566000000E+00 0. -1.
         -4    1    3    3    0  503  0.27750865204E+03 -0.35896248333E+03 -0.25805441007E+03  0.52197432404E+03  0.00000000000E+00 0. -1.
<mgrwt>
<rscale>  2 0.11872408E+04</rscale>
<asrwt>0</asrwt>
<pdfrwt beam="1">  1       21 0.39347042E+00 0.11895783E+04</pdfrwt>
<pdfrwt beam="2">  1       21 0.11016817E+00 0.11895783E+04</pdfrwt>
<totfact> 0.17387136E+00</totfact>
</mgrwt>
</event>
<event>
 8    1  0.5815007E-006  0.1077923E+04  0.7818608E-02  0.8708532E-01
         21   -1    0    0  503  502  0.00000000000E+00  0.00000000000E+00  0.61782346566E+03  0.61782346566E+03  0.00000000000E+00 0.  1.
         21   -1    0    0  501  503 -0.00000000000E+00 -0.00000000000E+00 -0.18497240244E+04  0.18497240244E+04  0.00000000000E+00 0.  1.
    9000010    2    1    2  501    0 -0.32234277631E+03 -0.17964280281E+03 -0.60433020547E+03  0.12357718594E+04  0.10127885709E+04 0.  0.
   -9000010    2    1    2    0  502  0.32234277631E+03  0.17964280281E+03 -0.62757035328E+03  0.12317756306E+04  0.99360467687E+03 0.  0.
        -13    1    3    3    0    0  0.31516477944E+03 -0.55508071323E+02  0.38055626884E+02  0.32227042384E+03  0.10566000000E+00 0.  1.
          4    1    3    3  501    0 -0.63750755575E+03 -0.12413473149E+03 -0.64238583236E+03  0.91350143558E+03  0.00000000000E+00 0.  1.
         13    1    4    4    0    0 -0.92088965319E+02  0.31123224100E+03 -0.71772876377E+03  0.78770583017E+03  0.10566000000E+00 0. -1.
         -4    1    4    4    0  502  0.41443174163E+03 -0.13158943819E+03  0.90158410497E+02  0.44406980048E+03  0.00000000000E+00 0. -1.
<mgrwt>
<rscale>  2 0.10733930E+04</rscale>
<asrwt>0</asrwt>
<pdfrwt beam="1">  1       21 0.95049764E-01 0.10779226E+04</pdfrwt>
<pdfrwt beam="2">  1       21 0.28457293E+00 0.10779226E+04</pdfrwt>
<totfact> 0.15332585E+01</totfact>
</mgrwt>
</event>
<event>
 8    1  0.5815007E-006  0.1680070E+04  0.7818608E-02  0.8319674E-01
         21   -1    0    0  501  502  0.00000000000E+00  0.00000000000E+00  0.12361719242E+04  0.12361719242E+04  0.00000000000E+00 0. -1.
         21   -1    0    0  502  503 -0.00000000000E+00 -0.00000000000E+00 -0.22281269329E+04  0.22281269329E+04  0.00000000000E+00 0.  1.
   -9000010    2    1    2    0  503  0.40751224132E+02 -0.13627905104E+04 -0.33456669849E+03  0.16601938625E+04  0.88625625401E+03 0.  0.
    9000010    2    1    2  501    0 -0.40751224132E+02  0.13627905104E+04 -0.65738831028E+03  0.18041049947E+04  0.98172134735E+03 0.  0.
        -13    1    4    4    0    0 -0.30858063637E+03  0.12909649702E+04 -0.31625724857E+03  0.13644893631E+04  0.10566000000E+00 0.  1.
          4    1    4    4  501    0  0.26782941224E+03  0.71825540151E+02 -0.34113106171E+03  0.43961563159E+03  0.00000000000E+00 0.  1.
         13    1    3    3    0    0 -0.76068520498E+02 -0.93401980163E+03 -0.62761947790E+03  0.11278677360E+04  0.10566000000E+00 0. -1.
         -4    1    3    3    0  503  0.11681974463E+03 -0.42877070875E+03  0.29305277941E+03  0.53232612648E+03  0.00000000000E+00 0. -1.
<mgrwt>
<rscale>  2 0.16664204E+04</rscale>
<asrwt>0</asrwt>
<pdfrwt beam="1">  1       21 0.19018030E+00 0.16800701E+04</pdfrwt>
<pdfrwt beam="2">  1       21 0.34278876E+00 0.16800701E+04</pdfrwt>
<totfact> 0.67502054E-01</totfact>
</mgrwt>
</event>
<event>
 8    1  0.5815007E-006  0.1069700E+04  0.7818608E-02  0.8714553E-01
         21   -1    0    0  503  502  0.00000000000E+00  0.00000000000E+00  0.11722146452E+04  0.11722146452E+04  0.00000000000E+00 0. -1.
         21   -1    0    0  501  503 -0.00000000000E+00 -0.00000000000E+00 -0.98754656390E+03  0.98754656390E+03  0.00000000000E+00 0. -1.
    9000010    2    1    2  501    0 -0.36394283814E+03  0.13407573460E+03 -0.72655274479E+02  0.10721646422E+04  0.99690899239E+03 0.  0.
   -9000010    2    1    2    0  502  0.36394283814E+03 -0.13407573460E+03  0.25732335578E+03  0.10875965669E+04  0.98296505064E+03 0.  0.
        -13    1    3    3    0    0  0.37709340809E+02  0.18990557649E+03 -0.46760428744E+03  0.50610266070E+03  0.10566000000E+00 0.  1.
          4    1    3    3  501    0 -0.40165217895E+03 -0.55829841890E+02  0.39494901296E+03  0.56606198154E+03  0.00000000000E+00 0.  1.
         13    1    4    4    0    0 -0.24721748721E+03  0.23617058485E+03  0.72042936405E+02  0.34940410270E+03  0.10566000000E+00 0. -1.
         -4    1    4    4    0  502  0.61116032535E+03 -0.37024631944E+03  0.18528041938E+03  0.73819246417E+03  0.00000000000E+00 0. -1.
<mgrwt>
<rscale>  2 0.10664394E+04</rscale>
<asrwt>0</asrwt>
<pdfrwt beam="1">  1       21 0.18034071E+00 0.10697001E+04</pdfrwt>
<pdfrwt beam="2">  1       21 0.15193024E+00 0.10697001E+04</pdfrwt>
<totfact> 0.24771832E+01</totfact>
</mgrwt>
</event>
<event>
 8    1  0.5815007E-006  0.1222694E+04  0.7818608E-02  0.8600670E-01
         21   -1    0    0  501  502  0.00000000000E+00  0.00000000000E+00  0.10979196767E+04  0.10979196767E+04  0.00000000000E+00 0. -1.
         21   -1    0    0  502  503 -0.00000000000E+00 -0.00000000000E+00 -0.13060027837E+04  0.13060027837E+04  0.00000000000E+00 0. -1.
   -9000010    2    1    2    0  503 -0.53933426945E+03 -0.15317881807E+03 -0.20343428756E+03  0.12395026451E+04  0.10865707953E+04 0.  0.
    9000010    2    1    2  501    0  0.53933426945E+03  0.15317881807E+03 -0.46488194799E+01  0.11644198154E+04  0.10205423511E+04 0.  0.
        -13    1    4    4    0    0  0.26165241102E+03  0.58662093461E+03 -0.67367123073E+02  0.64585172102E+03  0.10566000000E+00 0.  1.
          4    1    4    4  501    0  0.27768185843E+03 -0.43344211654E+03  0.62718303593E+02  0.51856809437E+03  0.00000000000E+00 0.  1.
         13    1    3    3    0    0 -0.68672186900E+03  0.85526417720E+02 -0.48263439401E+03  0.84370472497E+03  0.10566000000E+00 0. -1.
         -4    1    3    3    0  503  0.14738759956E+03 -0.23870523579E+03  0.27920010645E+03  0.39579792008E+03  0.00000000000E+00 0. -1.
<mgrwt>
<rscale>  2 0.12078554E+04</rscale>
<asrwt>0</asrwt>
<pdfrwt beam="1">  1       21 0.16891072E+00 0.12226943E+04</pdfrwt>
<pdfrwt beam="2">  1       21 0.20092350E+00 0.12226943E+04</pdfrwt>
<totfact> 0.11728345E+01</totfact>
</mgrwt>
</event>
<event>
 8    1  0.5815007E-006  0.1419468E+04  0.7818608E-02  0.8459378E-01
         21   -1    0    0  503  502  0.00000000000E+00  0.00000000000E+00  0.11491941850E+04  0.11491941850E+04  0.00000000000E+00 0.  1.
         21   -1    0    0  501  503 -0.00000000000E+00 -0.00000000000E+00 -0.17403414789E+04  0.17403414789E+04  0.00000000000E+00 0. -1.
    9000010    2    1    2  501    0  0.27529316503E+03  0.93929410596E+03 -0.35168250744E+03  0.14500100031E+04  0.10103408727E+04 0.  0.
   -9000010    2    1    2    0  502 -0.27529316503E+03 -0.93929410596E+03 -0.23946478648E+03  0.14395256608E+04  0.10280228596E+04 0.  0.
        -13    1    3    3    0    0  0.59729687729E+03  0.84834488838E+03 -0.39995823917E+03  0.11119438895E+04  0.10566000000E+00 0.  1.
          4    1    3    3  501    0 -0.32200371226E+03  0.90949217581E+02  0.48275731725E+02  0.33806611359E+03  0.00000000000E+00 0.  1.
         13    1    4    4    0    0 -0.31465450194E+03 -0.10562921483E+04 -0.45400506472E+03  0.11920072014E+04  0.10566000000E+00 0. -1.
         -4    1    4    4    0  502  0.39361336909E+02  0.11699804237E+03  0.21454027824E+03  0.24751845941E+03  0.00000000000E+00 0. -1.
<mgrwt>
<rscale>  2 0.14162694E+04</rscale>
<asrwt>0</asrwt>
<pdfrwt beam="1">  1       21 0.17679911E+00 0.14194685E+04</pdfrwt>
<pdfrwt beam="2">  1       21 0.26774484E+00 0.14194685E+04</pdfrwt>
<totfact> 0.30864341E+00</totfact>
</mgrwt>
</event>
<event>
 8    1  0.5815007E-006  0.1104565E+04  0.7818608E-02  0.8698666E-01
         21   -1    0    0  501  502  0.00000000000E+00  0.00000000000E+00  0.81777994571E+03  0.81777994571E+03  0.00000000000E+00 0.  1.
         21   -1    0    0  502  503 -0.00000000000E+00 -0.00000000000E+00 -0.18749234415E+04  0.18749234415E+04  0.00000000000E+00 0.  1.
   -9000010    2    1    2    0  503  0.13983783260E+03  0.40113411189E+03 -0.11986587645E+04  0.15791099793E+04  0.93613156004E+03 0.  0.
    9000010    2    1    2  501    0 -0.13983783260E+03 -0.40113411189E+03  0.14151526870E+03  0.11135934080E+04  0.10196080187E+04 0.  0.
        -13    1    4    4    0    0  0.18186630230E+03 -0.30389171629E+03  0.50612011908E+03  0.61772414009E+03  0.10566000000E+00 0.  1.
          4    1    4    4  501    0 -0.32170413490E+03 -0.97242395594E+02 -0.36460485038E+03  0.49586926789E+03  0.00000000000E+00 0.  1.
         13    1    3    3    0    0  0.71339538165E+02 -0.26106431720E+03 -0.88679839033E+02  0.28479471981E+03  0.10566000000E+00 0. -1.
         -4    1    3    3    0  503  0.68498294436E+02  0.66219842908E+03 -0.11099789255E+04  0.12943152595E+04  0.00000000000E+00 0. -1.
<mgrwt>
<rscale>  2 0.10849078E+04</rscale>
<asrwt>0</asrwt>
<pdfrwt beam="1">  1       21 0.12581230E+00 0.11045649E+04</pdfrwt>
<pdfrwt beam="2">  1       21 0.28844976E+00 0.11045649E+04</pdfrwt>
<totfact> 0.66981033E+00</totfact>
</mgrwt>
</event>
<event>
 8    1  0.5815007E-006  0.1114781E+04  0.7818608E-02  0.8673665E-01
         21   -1    0    0  501  502  0.00000000000E+00  0.00000000000E+00  0.78783949315E+03  0.78783949315E+03  0.00000000000E+00 0.  1.
         21   -1    0    0  502  503 -0.00000000000E+00 -0.00000000000E+00 -0.15847751313E+04  0.15847751313E+04  0.00000000000E+00 0. -1.
   -9000010    2    1    2    0  503 -0.21182971315E+03 -0.44866213155E+03 -0.47982188417E+03  0.12136583774E+04  0.99828256558E+03 0.  0.
    9000010    2    1    2  501    0  0.21182971315E+03  0.44866213155E+03 -0.31711375397E+03  0.11589562471E+04  0.99822287793E+03 0.  0.
        -13    1    4    4    0    0  0.14110113732E+03  0.56584848893E+03 -0.60492505460E+03  0.84025494716E+03  0.10566000000E+00 0.  1.
          4    1    4    4  501    0  0.70728575823E+02 -0.11718635738E+03  0.28781130063E+03  0.31870129991E+03  0.00000000000E+00 0.  1.
         13    1    3    3    0    0  0.17364968387E+03 -0.62390296527E+03 -0.45110465844E+03  0.78924302139E+03  0.10566000000E+00 0. -1.
         -4    1    3    3    0  503 -0.38547939702E+03  0.17524083372E+03 -0.28717225736E+02  0.42441535597E+03  0.00000000000E+00 0. -1.
<mgrwt>
<rscale>  2 0.11147681E+04</rscale>
<asrwt>0</asrwt>
<pdfrwt beam="1">  1       21 0.12120608E+00 0.11147814E+04</pdfrwt>
<pdfrwt beam="2">  1       21 0.24381156E+00 0.11147814E+04</pdfrwt>
<totfact> 0.15562960E+01</totfact>
</mgrwt>
</event>
<event>
 8    1  0.5815007E-006  0.1097330E+04  0.7818608E-02  0.8688700E-01
         21   -1    0    0  503  502  0.00000000000E+00  0.00000000000E+00  0.92727689076E+03  0.92727689076E+03  0.00000000000E+00 0. -1.
         21   -1    0    0  501  503 -0.00000000000E+00 -0.00000000000E+00 -0.13000220479E+04  0.13000220479E+04  0.00000000000E+00 0. -1.
    9000010    2    1    2  501    0  0.33374850263E+03  0.32454426241E+03 -0.25140917631E+03  0.11232807238E+04  0.99087636422E+03 0.  0.
   -9000010    2    1    2    0  502 -0.33374850263E+03 -0.32454426241E+03 -0.12133598083E+03  0.11040182149E+04  0.99368846088E+03 0.  0.
        -13    1    3    3    0    0  0.14340356193E+03  0.56899182754E+03  0.16005225915E+03  0.60822119184E+03  0.10566000000E+00 0.  1.
          4    1    3    3  501    0  0.19034494071E+03 -0.24444756513E+03 -0.41146143546E+03  0.51505953192E+03  0.00000000000E+00 0.  1.
         13    1    4    4    0    0  0.15554332089E+03  0.24916763400E+03  0.11254557263E+03  0.31455484671E+03  0.10566000000E+00 0. -1.
         -4    1    4    4    0  502 -0.48929182352E+03 -0.57371189641E+03 -0.23388155347E+03  0.78946336818E+03  0.00000000000E+00 0. -1.
<mgrwt>
<rscale>  2 0.10966933E+04</rscale>
<asrwt>0</asrwt>
<pdfrwt beam="1">  1       21 0.14265798E+00 0.10973303E+04</pdfrwt>
<pdfrwt beam="2">  1       21 0.20000339E+00 0.10973303E+04</pdfrwt>
<totfact> 0.20798577E+01</totfact>
</mgrwt>
</event>
<event>
 8    1  0.5815007E-006  0.1050590E+04  0.7818608E-02  0.8730503E-01
         21   -1    0    0  501  502  0.00000000000E+00  0.00000000000E+00  0.20987274659E+04  0.20987274659E+04  0.00000000000E+00 0. -1.
         21   -1    0    0  502  503 -0.00000000000E+00 -0.00000000000E+00 -0.53336456065E+03  0.53336456065E+03  0.00000000000E+00 0. -1.
   -9000010    2    1    2    0  503 -0.25567178108E+03 -0.18898999917E+03  0.58822111661E+03  0.12040528796E+04  0.10013261084E+04 0.  0.
    9000010    2    1    2  501    0  0.25567178108E+03  0.18898999917E+03  0.97714178862E+03  0.14280391469E+04  0.99166751015E+03 0.  0.
        -13    1    4    4    0    0  0.63578503243E+03  0.14695234820E+03  0.53811982723E+03  0.84580763754E+03  0.10566000000E+00 0.  1.
          4    1    4    4  501    0 -0.38011325135E+03  0.42037650967E+02  0.43902196139E+03  0.58223150940E+03  0.00000000000E+00 0.  1.
         13    1    3    3    0    0  0.22006212121E+03  0.29263037967E+03  0.27623386606E+03  0.45865568373E+03  0.10566000000E+00 0. -1.
         -4    1    3    3    0  503 -0.47573390228E+03 -0.48162037884E+03  0.31198725055E+03  0.74539719587E+03  0.00000000000E+00 0. -1.
<mgrwt>
<rscale>  2 0.10482820E+04</rscale>
<asrwt>0</asrwt>
<pdfrwt beam="1">  1       21 0.32288115E+00 0.10505900E+04</pdfrwt>
<pdfrwt beam="2">  1       21 0.82056087E-01 0.10505900E+04</pdfrwt>
<totfact> 0.12019141E+01</totfact>
</mgrwt>
</event>
<event>
 8    1  0.5815007E-006  0.1024909E+04  0.7818608E-02  0.8752191E-01
         21   -1    0    0  501  502  0.00000000000E+00  0.00000000000E+00  0.14128016280E+04  0.14128016280E+04  0.00000000000E+00 0.  1.
         21   -1    0    0  502  503 -0.00000000000E+00 -0.00000000000E+00 -0.74325007270E+03  0.74325007270E+03  0.00000000000E+00 0.  1.
   -9000010    2    1    2    0  503 -0.16190238139E+03  0.14250020021E+03  0.38864138251E+03  0.10961211198E+04  0.10019584307E+04 0.  0.
    9000010    2    1    2  501    0  0.16190238139E+03 -0.14250020021E+03  0.28091017281E+03  0.10599305809E+04  0.99901132279E+03 0.  0.
        -13    1    4    4    0    0 -0.23203440868E+03 -0.32303532397E+03  0.44475377601E+03  0.59665544477E+03  0.10566000000E+00 0.  1.
          4    1    4    4  501    0  0.39393679007E+03  0.18053512376E+03 -0.16384360319E+03  0.46327513616E+03  0.00000000000E+00 0.  1.
         13    1    3    3    0    0  0.24906985504E+03  0.12383268301E+03 -0.22470693085E+03  0.35758011970E+03  0.10566000000E+00 0. -1.
         -4    1    3    3    0  503 -0.41097223643E+03  0.18667517194E+02  0.61334831336E+03  0.73854100009E+03  0.00000000000E+00 0. -1.
<mgrwt>
<rscale>  2 0.10241885E+04</rscale>
<asrwt>0</asrwt>
<pdfrwt beam="1">  1       21 0.21735410E+00 0.10249095E+04</pdfrwt>
<pdfrwt beam="2">  1       21 0.11434616E+00 0.10249095E+04</pdfrwt>
<totfact> 0.29347445E+01</totfact>
</mgrwt>
</event>
<event>
 8    1  0.5815007E-006  0.1244897E+04  0.7818608E-02  0.8574244E-01
         21   -1    0    0  503  502  0.00000000000E+00  0.00000000000E+00  0.30301013676E+04  0.30301013676E+04  0.00000000000E+00 0.  1.
         21   -1    0    0  501  503 -0.00000000000E+00 -0.00000000000E+00 -0.51105953364E+03  0.51105953364E+03  0.00000000000E+00 0.  1.
    9000010    2    1    2  501    0  0.11361290261E+03 -0.73840088389E+03  0.11682745435E+04  0.17042232213E+04  0.99064000629E+03 0.  0.
   -9000010    2    1    2    0  502 -0.11361290261E+03  0.73840088389E+03  0.13507672904E+04  0.18369376799E+04  0.99580319846E+03 0.  0.
        -13    1    3    3    0    0 -0.35646750894E+03 -0.49235363845E+03  0.95573629279E+03  0.11326575223E+04  0.10566000000E+00 0.  1.
          4    1    3    3  501    0  0.47008041155E+03 -0.24604724544E+03  0.21253825075E+03  0.57156569906E+03  0.00000000000E+00 0.  1.
         13    1    4    4    0    0  0.30814118580E+03  0.17354781819E+03  0.49641999937E+02  0.35711927266E+03  0.10566000000E+00 0. -1.
         -4    1    4    4    0  502 -0.42175408840E+03  0.56485306570E+03  0.13011252905E+04  0.14798184073E+04  0.00000000000E+00 0. -1.
<mgrwt>
<rscale>  2 0.12438639E+04</rscale>
<asrwt>0</asrwt>
<pdfrwt beam="1">  1       21 0.46616943E+00 0.12448967E+04</pdfrwt>
<pdfrwt beam="2">  1       21 0.78624546E-01 0.12448967E+04</pdfrwt>
<totfact> 0.12865555E+00</totfact>
</mgrwt>
</event>
<event>
 8    1  0.5815007E-006  0.1204040E+04  0.7818608E-02  0.8606521E-01
         21   -1    0    0  501  502  0.00000000000E+00  0.00000000000E+00  0.82087942604E+03  0.82087942604E+03  0.00000000000E+00 0. -1.
         21   -1    0    0  502  503 -0.00000000000E+00 -0.00000000000E+00 -0.17571957587E+04  0.17571957587E+04  0.00000000000E+00 0.  1.
   -9000010    2    1    2    0  503 -0.11834410094E+03 -0.62925555760E+03 -0.35482071179E+03  0.12552328486E+04  0.10196783237E+04 0.  0.
    9000010    2    1    2  501    0  0.11834410094E+03  0.62925555760E+03 -0.58149562089E+03  0.13228423361E+04  0.10009029954E+04 0.  0.
        -13    1    4    4    0    0  0.35739109779E+03  0.26381082800E+03 -0.73597289726E+03  0.85963984692E+03  0.10566000000E+00 0.  1.
          4    1    4    4  501    0 -0.23904699685E+03  0.36544472961E+03  0.15447727637E+03  0.46320248921E+03  0.00000000000E+00 0.  1.
         13    1    3    3    0    0  0.10612734742E+03  0.21020114777E+03  0.12077963434E+03  0.26464177227E+03  0.10566000000E+00 0. -1.
         -4    1    3    3    0  503 -0.22447144837E+03 -0.83945670537E+03 -0.47560034612E+03  0.99059107636E+03  0.00000000000E+00 0. -1.
<mgrwt>
<rscale>  2 0.12000554E+04</rscale>
<asrwt>0</asrwt>
<pdfrwt beam="1">  1       21 0.12628914E+00 0.12040398E+04</pdfrwt>
<pdfrwt beam="2">  1       21 0.27033780E+00 0.12040398E+04</pdfrwt>
<totfact> 0.87341680E+00</totfact>
</mgrwt>
</event>
<event>
 8    1  0.5815007E-006  0.1097021E+04  0.7818608E-02  0.8689717E-01
         21   -1    0    0  503  502  0.00000000000E+00  0.00000000000E+00  0.19007667084E+04  0.19007667084E+04  0.00000000000E+00 0.  1.
         21   -1    0    0  501  503 -0.00000000000E+00 -0.00000000000E+00 -0.72311986377E+03  0.72311986377E+03  0.00000000000E+00 0.  1.
    9000010    2    1    2  501    0 -0.31399108472E+03 -0.30491245767E+03  0.10620593859E+04  0.15269006350E+04  0.10059291236E+04 0.  0.
   -9000010    2    1    2    0  502  0.31399108472E+03  0.30491245767E+03  0.11558745867E+03  0.10969859372E+04  0.99922754044E+03 0.  0.
        -13    1    3    3    0    0 -0.46932848177E+03 -0.32701759727E+03  0.13642975796E+03  0.58806702232E+03  0.10566000000E+00 0.  1.
          4    1    3    3  501    0  0.15533739705E+03  0.22105139599E+02  0.92562962796E+03  0.93883361267E+03  0.00000000000E+00 0.  1.
         13    1    4    4    0    0  0.94110791723E+02 -0.93567862842E+02  0.48999702358E+03  0.50765035247E+03  0.10566000000E+00 0. -1.
         -4    1    4    4    0  502  0.21988029300E+03  0.39848032051E+03 -0.37440956491E+03  0.58933558469E+03  0.00000000000E+00 0. -1.
<mgrwt>
<rscale>  2 0.10954825E+04</rscale>
<asrwt>0</asrwt>
<pdfrwt beam="1">  1       21 0.29242565E+00 0.10970212E+04</pdfrwt>
<pdfrwt beam="2">  1       21 0.11124921E+00 0.10970212E+04</pdfrwt>
<totfact> 0.88594977E+00</totfact>
</mgrwt>
</event>
<event>
 8    1  0.5815007E-006  0.1059058E+04  0.7818608E-02  0.8722898E-01
         21   -1    0    0  503  502  0.00000000000E+00  0.00000000000E+00  0.10195382274E+04  0.10195382274E+04  0.00000000000E+00 0.  1.
         21   -1    0    0  501  503 -0.00000000000E+00 -0.00000000000E+00 -0.10919563230E+04  0.10919563230E+04  0.00000000000E+00 0.  1.
    9000010    2    1    2  501    0 -0.35219116167E+02  0.30277670424E+03 -0.64989276898E+02  0.10610506407E+04  0.10142439240E+04 0.  0.
   -9000010    2    1    2    0  502  0.35219116167E+02 -0.30277670424E+03 -0.74288186162E+01  0.10504439097E+04  0.10052179372E+04 0.  0.
        -13    1    3    3    0    0 -0.22999011847E+03 -0.61962748511E+02  0.38324111496E+03  0.45123009669E+03  0.10566000000E+00 0.  1.
          4    1    3    3  501    0  0.19477100230E+03  0.36473945275E+03 -0.44823039186E+03  0.60982054403E+03  0.00000000000E+00 0.  1.
         13    1    4    4    0    0  0.51762363823E+03 -0.11146625133E+03 -0.35932462258E+02  0.53070717826E+03  0.10566000000E+00 0. -1.
         -4    1    4    4    0  502 -0.48240452207E+03 -0.19131045291E+03  0.28503643641E+02  0.51973673144E+03  0.00000000000E+00 0. -1.
<mgrwt>
<rscale>  2 0.10568916E+04</rscale>
<asrwt>0</asrwt>
<pdfrwt beam="1">  1       21 0.15685204E+00 0.10590585E+04</pdfrwt>
<pdfrwt beam="2">  1       21 0.16799328E+00 0.10590585E+04</pdfrwt>
<totfact> 0.28452988E+01</totfact>
</mgrwt>
</event>
<event>
 8    1  0.5815007E-006  0.1257858E+04  0.7818608E-02  0.8594893E-01
         21   -1    0    0  501  502  0.00000000000E+00  0.00000000000E+00  0.12332865425E+04  0.12332865425E+04  0.00000000000E+00 0.  1.
         21   -1    0    0  502  503 -0.00000000000E+00 -0.00000000000E+00 -0.11402562152E+04  0.11402562152E+04  0.00000000000E+00 0.  1.
   -9000010    2    1    2    0  503  0.23409252813E+03 -0.73885106655E+03  0.18338661277E+03  0.11124435857E+04  0.77665943075E+03 0.  0.
    9000010    2    1    2  501    0 -0.23409252813E+03  0.73885106655E+03 -0.90356285479E+02  0.12610991719E+04  0.99071017602E+03 0.  0.
        -13    1    4    4    0    0  0.20274253038E+03  0.78021141114E+03  0.28064776288E+02  0.80661144458E+03  0.10566000000E+00 0.  1.
          4    1    4    4  501    0 -0.43683505850E+03 -0.41360344594E+02 -0.11842106177E+03  0.45448772735E+03  0.00000000000E+00 0.  1.
         13    1    3    3    0    0 -0.53064613507E+02 -0.52279378803E+03 -0.22222608556E+03  0.57053802877E+03  0.10566000000E+00 0. -1.
         -4    1    3    3    0  503  0.28715714163E+03 -0.21605727852E+03  0.40561269832E+03  0.54190555693E+03  0.00000000000E+00 0. -1.
<mgrwt>
<rscale>  2 0.12156191E+04</rscale>
<asrwt>0</asrwt>
<pdfrwt beam="1">  1       21 0.18973639E+00 0.12578580E+04</pdfrwt>
<pdfrwt beam="2">  1       21 0.17542403E+00 0.12578580E+04</pdfrwt>
<totfact> 0.12595641E+01</totfact>
</mgrwt>
</event>
<event>
 8    1  0.5815007E-006  0.1380613E+04  0.7818608E-02  0.8482105E-01
         21   -1    0    0  503  502  0.00000000000E+00  0.00000000000E+00  0.13598483870E+04  0.13598483870E+04  0.00000000000E+00 0.  1.
         21   -1    0    0  501  503 -0.00000000000E+00 -0.00000000000E+00 -0.14019197379E+04  0.14019197379E+04  0.00000000000E+00 0. -1.
    9000010    2    1    2  501    0  0.89210786000E+03  0.34523854209E+03 -0.82572303118E+02  0.13830795807E+04  0.99551235879E+03 0.  0.
   -9000010    2    1    2    0  502 -0.89210786000E+03 -0.34523854209E+03  0.40500952226E+02  0.13786885442E+04  0.99201597259E+03 0.  0.
        -13    1    3    3    0    0  0.40712763094E+03  0.28881590066E+03  0.44179408285E+03  0.66659549590E+03  0.10566000000E+00 0.  1.
          4    1    3    3  501    0  0.48498022906E+03  0.56422641437E+02 -0.52436638597E+03  0.71648408480E+03  0.00000000000E+00 0.  1.
         13    1    4    4    0    0 -0.26484635010E+03  0.10271607614E+03  0.42977888422E+03  0.51517383663E+03  0.10566000000E+00 0. -1.
         -4    1    4    4    0  502 -0.62726150990E+03 -0.44795461824E+03 -0.38927793199E+03  0.86351470754E+03  0.00000000000E+00 0. -1.
<mgrwt>
<rscale>  2 0.13799823E+04</rscale>
<asrwt>0</asrwt>
<pdfrwt beam="1">  1       21 0.20920744E+00 0.13806125E+04</pdfrwt>
<pdfrwt beam="2">  1       21 0.21567996E+00 0.13806125E+04</pdfrwt>
<totfact> 0.41543004E+00</totfact>
</mgrwt>
</event>
<event>
 8    1  0.5815007E-006  0.1023173E+04  0.7818608E-02  0.8753299E-01
         21   -1    0    0  503  502  0.00000000000E+00  0.00000000000E+00  0.11729582685E+04  0.11729582685E+04  0.00000000000E+00 0.  1.
         21   -1    0    0  501  503 -0.00000000000E+00 -0.00000000000E+00 -0.97037434871E+03  0.97037434871E+03  0.00000000000E+00 0.  1.
    9000010    2    1    2  501    0 -0.77067085110E+02  0.26748195520E+03 -0.20357363612E+03  0.10432279725E+04  0.98457932399E+03 0.  0.
   -9000010    2    1    2    0  502  0.77067085110E+02 -0.26748195520E+03  0.40615755593E+03  0.11001046448E+04  0.98375827176E+03 0.  0.
        -13    1    3    3    0    0  0.79726587643E+02  0.61713292720E+03 -0.21912344812E+03  0.65971545025E+03  0.10566000000E+00 0.  1.
          4    1    3    3  501    0 -0.15679367275E+03 -0.34965097200E+03  0.15549812005E+02  0.38351252221E+03  0.00000000000E+00 0.  1.
         13    1    4    4    0    0  0.25154474990E+03 -0.55931197580E+03  0.62137482263E+02  0.61641359925E+03  0.10566000000E+00 0. -1.
         -4    1    4    4    0  502 -0.17447766479E+03  0.29183002060E+03  0.34402007367E+03  0.48369104552E+03  0.00000000000E+00 0. -1.
<mgrwt>
<rscale>  2 0.10229751E+04</rscale>
<asrwt>0</asrwt>
<pdfrwt beam="1">  1       21 0.18045512E+00 0.10231727E+04</pdfrwt>
<pdfrwt beam="2">  1       21 0.14928836E+00 0.10231727E+04</pdfrwt>
<totfact> 0.26367614E+01</totfact>
</mgrwt>
</event>
<event>
 8    1  0.5815007E-006  0.1099275E+04  0.7818608E-02  0.8688457E-01
         21   -1    0    0  501  502  0.00000000000E+00  0.00000000000E+00  0.25953193388E+04  0.25953193388E+04  0.00000000000E+00 0.  1.
         21   -1    0    0  502  503 -0.00000000000E+00 -0.00000000000E+00 -0.47440321135E+03  0.47440321135E+03  0.00000000000E+00 0.  1.
   -9000010    2    1    2    0  503  0.13464051878E+03 -0.40997281791E+03  0.80543018595E+03  0.13553981938E+04  0.10010897555E+04 0.  0.
    9000010    2    1    2  501    0 -0.13464051878E+03  0.40997281791E+03  0.13154859415E+04  0.17143243564E+04  0.10110385531E+04 0.  0.
        -13    1    4    4    0    0  0.31241930867E+03 -0.16996986646E+03  0.55020508372E+03  0.65514977315E+03  0.10566000000E+00 0.  1.
          4    1    4    4  501    0 -0.44705982745E+03  0.57994268438E+03  0.76528085782E+03  0.10591745833E+04  0.00000000000E+00 0.  1.
         13    1    3    3    0    0  0.34582461245E+03 -0.60112573552E+03  0.81533030895E+03  0.10703785949E+04  0.10566000000E+00 0. -1.
         -4    1    3    3    0  503 -0.21118409367E+03  0.19115291761E+03 -0.99001230034E+01  0.28501959892E+03  0.00000000000E+00 0. -1.
<mgrwt>
<rscale>  2 0.10969817E+04</rscale>
<asrwt>0</asrwt>
<pdfrwt beam="1">  1       21 0.39927989E+00 0.10992746E+04</pdfrwt>
<pdfrwt beam="2">  1       21 0.72985111E-01 0.10992746E+04</pdfrwt>
<totfact> 0.46027678E+00</totfact>
</mgrwt>
</event>
<event>
 8    1  0.5815007E-006  0.1122480E+04  0.7818608E-02  0.8667459E-01
         21   -1    0    0  503  502  0.00000000000E+00  0.00000000000E+00  0.66291465906E+03  0.66291465906E+03  0.00000000000E+00 0.  1.
         21   -1    0    0  501  503 -0.00000000000E+00 -0.00000000000E+00 -0.19052230975E+04  0.19052230975E+04  0.00000000000E+00 0.  1.
    9000010    2    1    2  501    0 -0.24127055625E+03  0.44456128545E+03 -0.55160892258E+03  0.12501748894E+04  0.10014083247E+04 0.  0.
   -9000010    2    1    2    0  502  0.24127055625E+03 -0.44456128545E+03 -0.69069951585E+03  0.13179628672E+04  0.10020549287E+04 0.  0.
        -13    1    3    3    0    0 -0.50525683352E+03  0.21459174793E+03 -0.68297352347E+03  0.87623451828E+03  0.10566000000E+00 0.  1.
          4    1    3    3  501    0  0.26398627726E+03  0.22996953752E+03  0.13136460089E+03  0.37394037110E+03  0.00000000000E+00 0.  1.
         13    1    4    4    0    0  0.56992240500E+03 -0.19223061371E+03 -0.67390197819E+03  0.90327628329E+03  0.10566000000E+00 0. -1.
         -4    1    4    4    0  502 -0.32865184875E+03 -0.25233067174E+03 -0.16797537659E+02  0.41468658389E+03  0.00000000000E+00 0. -1.
<mgrwt>
<rscale>  2 0.11223352E+04</rscale>
<asrwt>0</asrwt>
<pdfrwt beam="1">  1       21 0.10198687E+00 0.11224795E+04</pdfrwt>
<pdfrwt beam="2">  1       21 0.29311124E+00 0.11224795E+04</pdfrwt>
<totfact> 0.10998039E+01</totfact>
</mgrwt>
</event>
<event>
 8    1  0.5815007E-006  0.1101358E+04  0.7818608E-02  0.8685894E-01
         21   -1    0    0  501  502  0.00000000000E+00  0.00000000000E+00  0.11066390925E+04  0.11066390925E+04  0.00000000000E+00 0. -1.
         21   -1    0    0  502  503 -0.00000000000E+00 -0.00000000000E+00 -0.14491332368E+04  0.14491332368E+04  0.00000000000E+00 0. -1.
   -9000010    2    1    2    0  503  0.87431615759E+02 -0.45923425869E+03 -0.80632933293E+03  0.13607274560E+04  0.99139892301E+03 0.  0.
    9000010    2    1    2  501    0 -0.87431615759E+02  0.45923425869E+03  0.46383518865E+03  0.11950448733E+04  0.99722052482E+03 0.  0.
        -13    1    4    4    0    0  0.21680194072E+02  0.14593004498E+03 -0.31535956844E+03  0.34816271687E+03  0.10566000000E+00 0.  1.
          4    1    4    4  501    0 -0.10911180983E+03  0.31330421371E+03  0.77919475709E+03  0.84688215641E+03  0.00000000000E+00 0.  1.
         13    1    3    3    0    0 -0.86313182817E+02  0.19781875221E+03 -0.61929234381E+03  0.65582409419E+03  0.10566000000E+00 0. -1.
         -4    1    3    3    0  503  0.17374479858E+03 -0.65705301090E+03 -0.18703698912E+03  0.70490336179E+03  0.00000000000E+00 0. -1.
<mgrwt>
<rscale>  2 0.11000384E+04</rscale>
<asrwt>0</asrwt>
<pdfrwt beam="1">  1       21 0.17025217E+00 0.11013579E+04</pdfrwt>
<pdfrwt beam="2">  1       21 0.22294357E+00 0.11013579E+04</pdfrwt>
<totfact> 0.79566072E+00</totfact>
</mgrwt>
</event>
<event>
 8    1  0.5815007E-006  0.1801620E+04  0.7818608E-02  0.8254808E-01
         21   -1    0    0  501  502  0.00000000000E+00  0.00000000000E+00  0.24057170887E+04  0.24057170887E+04  0.00000000000E+00 0.  1.
         21   -1    0    0  502  503 -0.00000000000E+00 -0.00000000000E+00 -0.13789505931E+04  0.13789505931E+04  0.00000000000E+00 0. -1.
   -9000010    2    1    2    0  503 -0.14943261524E+04 -0.32826274746E+02  0.22179749160E+03  0.18152218924E+04  0.10058569368E+04 0.  0.
    9000010    2    1    2  501    0  0.14943261524E+04  0.32826274746E+02  0.80496900403E+03  0.19694457894E+04  0.99832530075E+03 0.  0.
        -13    1    4    4    0    0  0.18471487188E+03 -0.21896741826E+03  0.53781439516E+03  0.60935264745E+03  0.10566000000E+00 0.  1.
          4    1    4    4  501    0  0.13096112805E+04  0.25179369301E+03  0.26715460887E+03  0.13600931420E+04  0.00000000000E+00 0.  1.
         13    1    3    3    0    0 -0.71598866671E+03  0.37929526557E+03 -0.20611886022E+03  0.83605601788E+03  0.10566000000E+00 0. -1.
         -4    1    3    3    0  503 -0.77833748567E+03 -0.41212154031E+03  0.42791635181E+03  0.97916587447E+03  0.00000000000E+00 0. -1.
<mgrwt>
<rscale>  2 0.18005710E+04</rscale>
<asrwt>0</asrwt>
<pdfrwt beam="1">  1       21 0.37011032E+00 0.18016205E+04</pdfrwt>
<pdfrwt beam="2">  1       21 0.21214625E+00 0.18016205E+04</pdfrwt>
<totfact> 0.28636082E-01</totfact>
</mgrwt>
</event>
<event>
 8    1  0.5815007E-006  0.1180031E+04  0.7818608E-02  0.8635071E-01
         21   -1    0    0  501  502  0.00000000000E+00  0.00000000000E+00  0.17065993433E+04  0.17065993433E+04  0.00000000000E+00 0. -1.
         21   -1    0    0  502  503 -0.00000000000E+00 -0.00000000000E+00 -0.77018114992E+03  0.77018114992E+03  0.00000000000E+00 0. -1.
   -9000010    2    1    2    0  503 -0.50982615441E+03  0.91629373351E+02  0.44337037835E+03  0.11978870646E+04  0.98490480627E+03 0.  0.
    9000010    2    1    2  501    0  0.50982615441E+03 -0.91629373351E+02  0.49304781507E+03  0.12788934286E+04  0.10602611018E+04 0.  0.
        -13    1    4    4    0    0  0.36679792722E+03  0.46123298559E+03  0.36650938916E+03  0.69397819124E+03  0.10566000000E+00 0.  1.
          4    1    4    4  501    0  0.14302822719E+03 -0.55286235894E+03  0.12653842592E+03  0.58491523740E+03  0.00000000000E+00 0.  1.
         13    1    3    3    0    0 -0.60689866412E+03 -0.13844659643E+03  0.63036341333E+03  0.88591844579E+03  0.10566000000E+00 0. -1.
         -4    1    3    3    0  503  0.97072509708E+02  0.23007596978E+03 -0.18699303497E+03  0.31196861884E+03  0.00000000000E+00 0. -1.
<mgrwt>
<rscale>  2 0.11628552E+04</rscale>
<asrwt>0</asrwt>
<pdfrwt beam="1">  1       21 0.26255374E+00 0.11800306E+04</pdfrwt>
<pdfrwt beam="2">  1       21 0.11848941E+00 0.11800306E+04</pdfrwt>
<totfact> 0.11955411E+01</totfact>
</mgrwt>
</event>
<event>
 8    1  0.5815007E-006  0.1142315E+04  0.7818608E-02  0.8662993E-01
         21   -1    0    0  503  502  0.00000000000E+00  0.00000000000E+00  0.14347517298E+04  0.14347517298E+04  0.00000000000E+00 0.  1.
         21   -1    0    0  501  503 -0.00000000000E+00 -0.00000000000E+00 -0.93110266274E+03  0.93110266274E+03  0.00000000000E+00 0.  1.
    9000010    2    1    2  501    0  0.13916918612E+03 -0.41791887703E+03 -0.69822572116E+02  0.10876708000E+04  0.99203242261E+03 0.  0.
   -9000010    2    1    2    0  502 -0.13916918612E+03  0.41791887703E+03  0.57347163919E+03  0.12781835925E+04  0.10539731140E+04 0.  0.
        -13    1    3    3    0    0  0.56005524135E+03 -0.14954994774E+03  0.22153304601E+02  0.58010157757E+03  0.10566000000E+00 0.  1.
          4    1    3    3  501    0 -0.42088605522E+03 -0.26836892929E+03 -0.91975876717E+02  0.50756922246E+03  0.00000000000E+00 0.  1.
         13    1    4    4    0    0 -0.10203230251E+03  0.72804823853E+02 -0.30708617991E+03  0.33168217647E+03  0.10566000000E+00 0. -1.
         -4    1    4    4    0  502 -0.37136883611E+02  0.34511405318E+03  0.88055781910E+03  0.94650141606E+03  0.00000000000E+00 0. -1.
<mgrwt>
<rscale>  2 0.11278195E+04</rscale>
<asrwt>0</asrwt>
<pdfrwt beam="1">  1       21 0.22073104E+00 0.11423150E+04</pdfrwt>
<pdfrwt beam="2">  1       21 0.14324656E+00 0.11423150E+04</pdfrwt>
<totfact> 0.14112482E+01</totfact>
</mgrwt>
</event>
<event>
 8    1  0.5815007E-006  0.1201658E+04  0.7818608E-02  0.8606058E-01
         21   -1    0    0  503  502  0.00000000000E+00  0.00000000000E+00  0.15361937590E+04  0.15361937590E+04  0.00000000000E+00 0.  1.
         21   -1    0    0  501  503 -0.00000000000E+00 -0.00000000000E+00 -0.10082055093E+04  0.10082055093E+04  0.00000000000E+00 0.  1.
    9000010    2    1    2  501    0 -0.58985796367E+03  0.29105005499E+03 -0.74763245945E+02  0.12000441382E+04  0.10009364809E+04 0.  0.
   -9000010    2    1    2    0  502  0.58985796367E+03 -0.29105005499E+03  0.60275149562E+03  0.13443551302E+04  0.10056534188E+04 0.  0.
        -13    1    3    3    0    0  0.25369855112E+03  0.24364248333E+03 -0.45222646722E+02  0.35464025923E+03  0.10566000000E+00 0.  1.
          4    1    3    3  501    0 -0.84355651480E+03  0.47407571661E+02 -0.29540599224E+02  0.84540387893E+03  0.00000000000E+00 0.  1.
         13    1    4    4    0    0 -0.13435818973E+03 -0.44142457273E+03  0.25185776054E+03  0.52568062478E+03  0.10566000000E+00 0. -1.
         -4    1    4    4    0  502  0.72421615340E+03  0.15037451774E+03  0.35089373508E+03  0.81867450538E+03  0.00000000000E+00 0. -1.
<mgrwt>
<rscale>  2 0.12006703E+04</rscale>
<asrwt>0</asrwt>
<pdfrwt beam="1">  1       21 0.23633750E+00 0.12016578E+04</pdfrwt>
<pdfrwt beam="2">  1       21 0.15510854E+00 0.12016578E+04</pdfrwt>
<totfact> 0.83440582E+00</totfact>
</mgrwt>
</event>
<event>
 8    1  0.5815007E-006  0.1478706E+04  0.7818608E-02  0.8422011E-01
         21   -1    0    0  501  502  0.00000000000E+00  0.00000000000E+00  0.14917572521E+04  0.14917572521E+04  0.00000000000E+00 0.  1.
         21   -1    0    0  502  503 -0.00000000000E+00 -0.00000000000E+00 -0.27824989838E+04  0.27824989838E+04  0.00000000000E+00 0. -1.
   -9000010    2    1    2    0  503  0.26187695012E+03 -0.10638143307E+04 -0.21159703881E+04  0.25808650162E+04  0.99159118651E+03 0.  0.
    9000010    2    1    2  501    0 -0.26187695012E+03  0.10638143307E+04  0.82522865642E+03  0.16933912198E+04  0.99312185583E+03 0.  0.
        -13    1    4    4    0    0 -0.13786811192E+03  0.12449844207E+04  0.75661324978E+03  0.14633719435E+04  0.10566000000E+00 0.  1.
          4    1    4    4  501    0 -0.12400883820E+03 -0.18117008994E+03  0.68615406637E+02  0.23001927630E+03  0.00000000000E+00 0.  1.
         13    1    3    3    0    0  0.33781268651E+03 -0.78139051952E+03 -0.61129422496E+03  0.10480311044E+04  0.10566000000E+00 0. -1.
         -4    1    3    3    0  503 -0.75935736394E+02 -0.28242381121E+03 -0.15046761631E+04  0.15328339118E+04  0.00000000000E+00 0. -1.
<mgrwt>
<rscale>  2 0.14784491E+04</rscale>
<asrwt>0</asrwt>
<pdfrwt beam="1">  1       21 0.22950112E+00 0.14787060E+04</pdfrwt>
<pdfrwt beam="2">  1       21 0.42807676E+00 0.14787060E+04</pdfrwt>
<totfact> 0.88320462E-02</totfact>
</mgrwt>
</event>
<event>
 8    1  0.5815007E-006  0.1016203E+04  0.7818608E-02  0.8763421E-01
         21   -1    0    0  501  502  0.00000000000E+00  0.00000000000E+00  0.78742769716E+03  0.78742769716E+03  0.00000000000E+00 0.  1.
         21   -1    0    0  502  503 -0.00000000000E+00 -0.00000000000E+00 -0.12911543232E+04  0.12911543232E+04  0.00000000000E+00 0.  1.
   -9000010    2    1    2    0  503 -0.15296402336E+03 -0.38268875249E+02 -0.28704130479E+03  0.10559644503E+04  0.10038952687E+04 0.  0.
    9000010    2    1    2  501    0  0.15296402336E+03  0.38268875249E+02 -0.21668532126E+03  0.10226175700E+04  0.98687976311E+03 0.  0.
        -13    1    4    4    0    0 -0.13126007102E+03 -0.35850945862E+03 -0.34864214643E+03  0.51701991798E+03  0.10566000000E+00 0.  1.
          4    1    4    4  501    0  0.28422409438E+03  0.39677833387E+03  0.13195682517E+03  0.50559765205E+03  0.00000000000E+00 0.  1.
         13    1    3    3    0    0  0.20806881940E+03  0.34934176942E+03  0.76186005504E+02  0.41368662544E+03  0.10566000000E+00 0. -1.
         -4    1    3    3    0  503 -0.36103284277E+03 -0.38761064467E+03 -0.36322731029E+03  0.64227782490E+03  0.00000000000E+00 0. -1.
<mgrwt>
<rscale>  2 0.10119750E+04</rscale>
<asrwt>0</asrwt>
<pdfrwt beam="1">  1       21 0.12114272E+00 0.10162028E+04</pdfrwt>
<pdfrwt beam="2">  1       21 0.19863912E+00 0.10162028E+04</pdfrwt>
<totfact> 0.34891313E+01</totfact>
</mgrwt>
</event>
<event>
 8    1  0.5815007E-006  0.1044226E+04  0.7818608E-02  0.8742157E-01
         21   -1    0    0  501  502  0.00000000000E+00  0.00000000000E+00  0.65871115958E+03  0.65871115958E+03  0.00000000000E+00 0. -1.
         21   -1    0    0  502  503 -0.00000000000E+00 -0.00000000000E+00 -0.16499225663E+04  0.16499225663E+04  0.00000000000E+00 0. -1.
   -9000010    2    1    2    0  503  0.11594769851E+03 -0.26048854406E+03 -0.68874070692E+03  0.12214831127E+04  0.96765649012E+03 0.  0.
    9000010    2    1    2  501    0 -0.11594769851E+03  0.26048854406E+03 -0.30247069984E+03  0.10871506132E+04  0.10045445641E+04 0.  0.
        -13    1    4    4    0    0  0.51766575041E+02  0.59375322356E+03 -0.37899088636E+03  0.70629793422E+03  0.10566000000E+00 0.  1.
          4    1    4    4  501    0 -0.16771427355E+03 -0.33326467951E+03  0.76520186516E+02  0.38085267900E+03  0.00000000000E+00 0.  1.
         13    1    3    3    0    0 -0.64934153979E+02  0.26698411155E+03  0.66489646212E+02  0.28269744320E+03  0.10566000000E+00 0. -1.
         -4    1    3    3    0  503  0.18088185249E+03 -0.52747265560E+03 -0.75523035313E+03  0.93878566950E+03  0.00000000000E+00 0. -1.
<mgrwt>
<rscale>  2 0.10352520E+04</rscale>
<asrwt>0</asrwt>
<pdfrwt beam="1">  1       21 0.10134018E+00 0.10442260E+04</pdfrwt>
<pdfrwt beam="2">  1       21 0.25383424E+00 0.10442260E+04</pdfrwt>
<totfact> 0.21729990E+01</totfact>
</mgrwt>
</event>
<event>
 8    1  0.5815007E-006  0.1077839E+04  0.7818608E-02  0.8705447E-01
         21   -1    0    0  503  502  0.00000000000E+00  0.00000000000E+00  0.12816160062E+04  0.12816160062E+04  0.00000000000E+00 0. -1.
         21   -1    0    0  501  503 -0.00000000000E+00 -0.00000000000E+00 -0.97633940038E+03  0.97633940038E+03  0.00000000000E+00 0. -1.
    9000010    2    1    2  501    0 -0.11874318852E+03  0.36587130758E+03 -0.15535387482E+03  0.10889778618E+04  0.10068645384E+04 0.  0.
   -9000010    2    1    2    0  502  0.11874318852E+03 -0.36587130758E+03  0.46063048061E+03  0.11689775447E+04  0.10031781007E+04 0.  0.
        -13    1    3    3    0    0 -0.85534098091E+02  0.71628496763E+03 -0.15078576780E+03  0.73696444671E+03  0.10566000000E+00 0.  1.
          4    1    3    3  501    0 -0.33209090426E+02 -0.35041366005E+03 -0.45681070294E+01  0.35201341514E+03  0.00000000000E+00 0.  1.
         13    1    4    4    0    0  0.35997306263E+03 -0.31819256013E+03  0.68460452571E+03  0.83636743058E+03  0.10566000000E+00 0. -1.
         -4    1    4    4    0  502 -0.24122987412E+03 -0.47678747444E+02 -0.22397404511E+03  0.33261011411E+03  0.00000000000E+00 0. -1.
<mgrwt>
<rscale>  2 0.10769777E+04</rscale>
<asrwt>0</asrwt>
<pdfrwt beam="1">  1       21 0.19717169E+00 0.10778395E+04</pdfrwt>
<pdfrwt beam="2">  1       21 0.15020606E+00 0.10778395E+04</pdfrwt>
<totfact> 0.18785744E+01</totfact>
</mgrwt>
</event>
<event>
 8    1  0.5815007E-006  0.1043262E+04  0.7818608E-02  0.8735681E-01
         21   -1    0    0  501  502  0.00000000000E+00  0.00000000000E+00  0.11469545910E+04  0.11469545910E+04  0.00000000000E+00 0.  1.
         21   -1    0    0  502  503 -0.00000000000E+00 -0.00000000000E+00 -0.95208191233E+03  0.95208191233E+03  0.00000000000E+00 0. -1.
   -9000010    2    1    2    0  503 -0.28409079812E+03 -0.11482411932E+03  0.18103616440E+03  0.10588526110E+04  0.99724751145E+03 0.  0.
    9000010    2    1    2  501    0  0.28409079812E+03  0.11482411932E+03  0.13836514256E+02  0.10401838923E+04  0.99393104425E+03 0.  0.
        -13    1    4    4    0    0  0.39899394513E+03  0.40823909044E+03 -0.25572955866E+03  0.62550215152E+03  0.10566000000E+00 0.  1.
          4    1    4    4  501    0 -0.11490314702E+03 -0.29341497112E+03  0.26956607292E+03  0.41468174078E+03  0.00000000000E+00 0.  1.
         13    1    3    3    0    0 -0.42640251581E+03 -0.38060094133E+03 -0.16983081212E+03  0.59625388715E+03  0.10566000000E+00 0. -1.
         -4    1    3    3    0  503  0.14231171769E+03  0.26577682201E+03  0.35086697653E+03  0.46259872387E+03  0.00000000000E+00 0. -1.
<mgrwt>
<rscale>  2 0.10424683E+04</rscale>
<asrwt>0</asrwt>
<pdfrwt beam="1">  1       21 0.17645455E+00 0.10432616E+04</pdfrwt>
<pdfrwt beam="2">  1       21 0.14647414E+00 0.10432616E+04</pdfrwt>
<totfact> 0.30003589E+01</totfact>
</mgrwt>
</event>
<event>
 8    1  0.5815007E-006  0.1692587E+04  0.7818608E-02  0.8308125E-01
         21   -1    0    0  501  502  0.00000000000E+00  0.00000000000E+00  0.13897707438E+04  0.13897707438E+04  0.00000000000E+00 0.  1.
         21   -1    0    0  502  503 -0.00000000000E+00 -0.00000000000E+00 -0.21486054931E+04  0.21486054931E+04  0.00000000000E+00 0. -1.
   -9000010    2    1    2    0  503 -0.93264065720E+03  0.99417310333E+03  0.86779988272E+01  0.16799023907E+04  0.98173213236E+03 0.  0.
    9000010    2    1    2  501    0  0.93264065720E+03 -0.99417310333E+03 -0.76751274804E+03  0.18584738462E+04  0.10033197216E+04 0.  0.
        -13    1    4    4    0    0  0.37169907572E+03 -0.86202250527E+03 -0.86200750752E+03  0.12744802692E+04  0.10566000000E+00 0.  1.
          4    1    4    4  501    0  0.56094158148E+03 -0.13215059807E+03  0.94494759472E+02  0.58399357699E+03  0.00000000000E+00 0.  1.
         13    1    3    3    0    0 -0.93900724685E+03  0.11101166669E+04 -0.17303961371E+03  0.14642528275E+04  0.10566000000E+00 0. -1.
         -4    1    3    3    0  503  0.63665896551E+01 -0.11594356356E+03  0.18171761254E+03  0.21564956318E+03  0.00000000000E+00 0. -1.
<mgrwt>
<rscale>  2 0.16894009E+04</rscale>
<asrwt>0</asrwt>
<pdfrwt beam="1">  1       21 0.21381088E+00 0.16925865E+04</pdfrwt>
<pdfrwt beam="2">  1       21 0.33055469E+00 0.16925865E+04</pdfrwt>
<totfact> 0.53604478E-01</totfact>
</mgrwt>
</event>
<event>
 8    1  0.5815007E-006  0.1096377E+04  0.7818608E-02  0.8693453E-01
         21   -1    0    0  503  502  0.00000000000E+00  0.00000000000E+00  0.16437117636E+04  0.16437117636E+04  0.00000000000E+00 0.  1.
         21   -1    0    0  501  503 -0.00000000000E+00 -0.00000000000E+00 -0.71920985191E+03  0.71920985191E+03  0.00000000000E+00 0.  1.
    9000010    2    1    2  501    0 -0.46660393216E+02  0.40133428169E+03  0.52820722781E+03  0.12169823519E+04  0.10192138006E+04 0.  0.
   -9000010    2    1    2    0  502  0.46660393216E+02 -0.40133428169E+03  0.39629468389E+03  0.11459392636E+04  0.99643410295E+03 0.  0.
        -13    1    3    3    0    0  0.20682823631E+03 -0.29142674947E+03  0.20074247803E+03  0.40988415838E+03  0.10566000000E+00 0.  1.
          4    1    3    3  501    0 -0.25348862953E+03  0.69276103116E+03  0.32746474978E+03  0.80709819350E+03  0.00000000000E+00 0.  1.
         13    1    4    4    0    0  0.18029940529E+03 -0.63305582944E+03 -0.11393047542E+02  0.65832922724E+03  0.10566000000E+00 0. -1.
         -4    1    4    4    0  502 -0.13363901208E+03  0.23172154775E+03  0.40768773143E+03  0.48761003640E+03  0.00000000000E+00 0. -1.
<mgrwt>
<rscale>  2 0.10910527E+04</rscale>
<asrwt>0</asrwt>
<pdfrwt beam="1">  1       21 0.25287873E+00 0.10963773E+04</pdfrwt>
<pdfrwt beam="2">  1       21 0.11064767E+00 0.10963773E+04</pdfrwt>
<totfact> 0.17260766E+01</totfact>
</mgrwt>
</event>
<event>
 8    1  0.5815007E-006  0.1105346E+04  0.7818608E-02  0.8686260E-01
         21   -1    0    0  501  502  0.00000000000E+00  0.00000000000E+00  0.21564078935E+04  0.21564078935E+04  0.00000000000E+00 0. -1.
         21   -1    0    0  502  503 -0.00000000000E+00 -0.00000000000E+00 -0.74521767737E+03  0.74521767737E+03  0.00000000000E+00 0. -1.
   -9000010    2    1    2    0  503 -0.15624133170E+03  0.41428956013E+03 -0.21961865374E+02  0.11055642272E+04  0.10127895850E+04 0.  0.
    9000010    2    1    2  501    0  0.15624133170E+03 -0.41428956013E+03  0.14331520816E+04  0.17960613437E+04  0.98785842520E+03 0.  0.
        -13    1    4    4    0    0  0.56355231446E+03 -0.34945127184E+03  0.98064900533E+03  0.11837989210E+04  0.10566000000E+00 0.  1.
          4    1    4    4  501    0 -0.40731098277E+03 -0.64838288291E+02  0.45250307622E+03  0.61226242274E+03  0.00000000000E+00 0.  1.
         13    1    3    3    0    0  0.28688013941E+03  0.21004711288E+03 -0.36466336428E+03  0.50931265882E+03  0.10566000000E+00 0. -1.
         -4    1    3    3    0  503 -0.44312147111E+03  0.20424244725E+03  0.34270149891E+03  0.59625156836E+03  0.00000000000E+00 0. -1.
<mgrwt>
<rscale>  2 0.10996021E+04</rscale>
<asrwt>0</asrwt>
<pdfrwt beam="1">  1       21 0.33175506E+00 0.11053461E+04</pdfrwt>
<pdfrwt beam="2">  1       21 0.11464887E+00 0.11053461E+04</pdfrwt>
<totfact> 0.42999283E+00</totfact>
</mgrwt>
</event>
<event>
 8    1  0.5815007E-006  0.1549136E+04  0.7818608E-02  0.8383947E-01
         21   -1    0    0  503  502  0.00000000000E+00  0.00000000000E+00  0.21857793637E+04  0.21857793637E+04  0.00000000000E+00 0.  1.
         21   -1    0    0  501  503 -0.00000000000E+00 -0.00000000000E+00 -0.13736103149E+04  0.13736103149E+04  0.00000000000E+00 0. -1.
    9000010    2    1    2  501    0  0.11612315664E+04  0.34869561871E+02 -0.40868003306E+03  0.15870070262E+04  0.10009481977E+04 0.  0.
   -9000010    2    1    2    0  502 -0.11612315664E+04 -0.34869561871E+02  0.12208490819E+04  0.19723826524E+04  0.10247664170E+04 0.  0.
        -13    1    3    3    0    0 -0.12570040840E+03 -0.11389931208E+03  0.98050718296E+02  0.19592753887E+03  0.10566000000E+00 0.  1.
          4    1    3    3  501    0  0.12869319748E+04  0.14876887395E+03 -0.50673075136E+03  0.13910794873E+04  0.00000000000E+00 0.  1.
         13    1    4    4    0    0 -0.12636981083E+04  0.53504512775E+02  0.72388802806E+03  0.14573295888E+04  0.10566000000E+00 0. -1.
         -4    1    4    4    0  502  0.10246654193E+03 -0.88374074645E+02  0.49696105385E+03  0.51505306361E+03  0.00000000000E+00 0. -1.
<mgrwt>
<rscale>  2 0.15452076E+04</rscale>
<asrwt>0</asrwt>
<pdfrwt beam="1">  1       21 0.33627375E+00 0.15491355E+04</pdfrwt>
<pdfrwt beam="2">  1       21 0.21132466E+00 0.15491355E+04</pdfrwt>
<totfact> 0.52300897E-01</totfact>
</mgrwt>
</event>
<event>
 8    1  0.5815007E-006  0.1032727E+04  0.7818608E-02  0.8745199E-01
         21   -1    0    0  503  502  0.00000000000E+00  0.00000000000E+00  0.96533127298E+03  0.96533127298E+03  0.00000000000E+00 0.  1.
         21   -1    0    0  501  503 -0.00000000000E+00 -0.00000000000E+00 -0.11038558761E+04  0.11038558761E+04  0.00000000000E+00 0.  1.
    9000010    2    1    2  501    0 -0.24173544700E+03 -0.10469784171E+03 -0.18844315225E+02  0.10328986477E+04  0.99856238849E+03 0.  0.
   -9000010    2    1    2    0  502  0.24173544700E+03  0.10469784171E+03 -0.11968028788E+03  0.10362885014E+04  0.99507427986E+03 0.  0.
        -13    1    3    3    0    0 -0.35036568801E+03  0.31203101916E+03  0.24353543075E+03  0.52861043260E+03  0.10566000000E+00 0.  1.
          4    1    3    3  501    0  0.10863024101E+03 -0.41672886088E+03 -0.26237974597E+03  0.50428821506E+03  0.00000000000E+00 0.  1.
         13    1    4    4    0    0  0.55384657115E+03  0.17941721461E+03 -0.31364799302E+03  0.66129542261E+03  0.10566000000E+00 0. -1.
         -4    1    4    4    0  502 -0.31211112415E+03 -0.74719372900E+02  0.19396770515E+03  0.37499307879E+03  0.00000000000E+00 0. -1.
<mgrwt>
<rscale>  2 0.10318826E+04</rscale>
<asrwt>0</asrwt>
<pdfrwt beam="1">  1       21 0.14851250E+00 0.10327267E+04</pdfrwt>
<pdfrwt beam="2">  1       21 0.16982398E+00 0.10327267E+04</pdfrwt>
<totfact> 0.32731595E+01</totfact>
</mgrwt>
</event>
<event>
 8    1  0.5815007E-006  0.1112336E+04  0.7818608E-02  0.8712159E-01
         21   -1    0    0  501  502  0.00000000000E+00  0.00000000000E+00  0.56604330500E+03  0.56604330500E+03  0.00000000000E+00 0.  1.
         21   -1    0    0  502  503 -0.00000000000E+00 -0.00000000000E+00 -0.20721904165E+04  0.20721904165E+04  0.00000000000E+00 0.  1.
   -9000010    2    1    2    0  503  0.22231247573E+03 -0.41148524685E+03 -0.12099333036E+04  0.16435420246E+04  0.10092318079E+04 0.  0.
    9000010    2    1    2  501    0 -0.22231247573E+03  0.41148524685E+03 -0.29621380791E+03  0.99469169691E+03  0.82639337284E+03 0.  0.
        -13    1    4    4    0    0 -0.39365499834E+03  0.46396971960E+02 -0.41538028266E+03  0.57415827705E+03  0.10566000000E+00 0.  1.
          4    1    4    4  501    0  0.17134252261E+03  0.36508827489E+03  0.11916647475E+03  0.42053341986E+03  0.00000000000E+00 0.  1.
         13    1    3    3    0    0  0.61795775318E+03 -0.14341685696E+03 -0.68261222251E+03  0.93187962584E+03  0.10566000000E+00 0. -1.
         -4    1    3    3    0  503 -0.39564527745E+03 -0.26806838989E+03 -0.52732108106E+03  0.71166239873E+03  0.00000000000E+00 0. -1.
<mgrwt>
<rscale>  2 0.10691975E+04</rscale>
<asrwt>0</asrwt>
<pdfrwt beam="1">  1       21 0.87083584E-01 0.11123362E+04</pdfrwt>
<pdfrwt beam="2">  1       21 0.31879853E+00 0.11123362E+04</pdfrwt>
<totfact> 0.10914416E+01</totfact>
</mgrwt>
</event>
<event>
 8    1  0.5815007E-006  0.1055049E+04  0.7818608E-02  0.8728057E-01
         21   -1    0    0  503  502  0.00000000000E+00  0.00000000000E+00  0.85129889847E+03  0.85129889847E+03  0.00000000000E+00 0. -1.
         21   -1    0    0  501  503 -0.00000000000E+00 -0.00000000000E+00 -0.13778027267E+04  0.13778027267E+04  0.00000000000E+00 0. -1.
    9000010    2    1    2  501    0 -0.29305268539E+03  0.18792410716E+03 -0.54984624030E+03  0.11897310301E+04  0.99595867863E+03 0.  0.
   -9000010    2    1    2    0  502  0.29305268539E+03 -0.18792410716E+03  0.23342412064E+02  0.10393705951E+04  0.97905618798E+03 0.  0.
        -13    1    3    3    0    0 -0.41605119412E+03 -0.29807723136E+03 -0.44354694893E+03  0.67726105680E+03  0.10566000000E+00 0.  1.
          4    1    3    3  501    0  0.12299850873E+03  0.48600133852E+03 -0.10629929136E+03  0.51246997330E+03  0.00000000000E+00 0.  1.
         13    1    4    4    0    0 -0.28580756440E+03  0.16857247264E+03 -0.10396505879E+03  0.34772314707E+03  0.10566000000E+00 0. -1.
         -4    1    4    4    0  502  0.57886024979E+03 -0.35649657980E+03  0.12730747085E+03  0.69164744800E+03  0.00000000000E+00 0. -1.
<mgrwt>
<rscale>  2 0.10510413E+04</rscale>
<asrwt>0</asrwt>
<pdfrwt beam="1">  1       21 0.13096906E+00 0.10550493E+04</pdfrwt>
<pdfrwt beam="2">  1       21 0.21196965E+00 0.10550493E+04</pdfrwt>
<totfact> 0.21844997E+01</totfact>
</mgrwt>
</event>
<event>
 8    1  0.5815007E-006  0.1096515E+04  0.7818608E-02  0.8700629E-01
         21   -1    0    0  503  502  0.00000000000E+00  0.00000000000E+00  0.15575525313E+04  0.15575525313E+04  0.00000000000E+00 0.  1.
         21   -1    0    0  501  503 -0.00000000000E+00 -0.00000000000E+00 -0.82093951515E+03  0.82093951515E+03  0.00000000000E+00 0.  1.
    9000010    2    1    2  501    0 -0.19238528100E+03 -0.22710809360E+03 -0.27017593803E+02  0.10422745142E+04  0.99850690037E+03 0.  0.
   -9000010    2    1    2    0  502  0.19238528100E+03  0.22710809360E+03  0.76363060996E+03  0.13362175323E+04  0.10553461055E+04 0.  0.
        -13    1    3    3    0    0 -0.44392818195E+02 -0.24405413225E+03  0.46563852954E+03  0.52759112306E+03  0.10566000000E+00 0.  1.
          4    1    3    3  501    0 -0.14799246280E+03  0.16946038648E+02 -0.49265612334E+03  0.51468339116E+03  0.00000000000E+00 0.  1.
         13    1    4    4    0    0  0.51937893759E+03  0.38175876520E+03  0.21582081769E+03  0.67975942225E+03  0.10566000000E+00 0. -1.
         -4    1    4    4    0  502 -0.32699365660E+03 -0.15465067160E+03  0.54780979227E+03  0.65645811000E+03  0.00000000000E+00 0. -1.
<mgrwt>
<rscale>  2 0.10826050E+04</rscale>
<asrwt>0</asrwt>
<pdfrwt beam="1">  1       21 0.23962347E+00 0.10965152E+04</pdfrwt>
<pdfrwt beam="2">  1       21 0.12629839E+00 0.10965152E+04</pdfrwt>
<totfact> 0.14921022E+01</totfact>
</mgrwt>
</event>
<event>
 8    1  0.5815007E-006  0.1069461E+04  0.7818608E-02  0.8713091E-01
         21   -1    0    0  501  502  0.00000000000E+00  0.00000000000E+00  0.98631518219E+03  0.98631518219E+03  0.00000000000E+00 0. -1.
         21   -1    0    0  502  503 -0.00000000000E+00 -0.00000000000E+00 -0.11545778364E+04  0.11545778364E+04  0.00000000000E+00 0. -1.
   -9000010    2    1    2    0  503 -0.11853385403E+03 -0.35165091551E+03 -0.56673773384E+02  0.10656260903E+04  0.99731560040E+03 0.  0.
    9000010    2    1    2  501    0  0.11853385403E+03  0.35165091551E+03 -0.11158888083E+03  0.10752669283E+04  0.10030145801E+04 0.  0.
        -13    1    4    4    0    0  0.31040494187E+03 -0.27244353998E+03 -0.85845427183E+02  0.42183664960E+03  0.10566000000E+00 0.  1.
          4    1    4    4  501    0 -0.19187108784E+03  0.62409445548E+03 -0.25743453651E+02  0.65343027870E+03  0.00000000000E+00 0.  1.
         13    1    3    3    0    0 -0.20482552744E+03  0.32013265671E+03 -0.78065239499E+02  0.38798531849E+03  0.10566000000E+00 0. -1.
         -4    1    3    3    0  503  0.86291673407E+02 -0.67178357221E+03  0.21391466115E+02  0.67764077181E+03  0.00000000000E+00 0. -1.
<mgrwt>
<rscale>  2 0.10681228E+04</rscale>
<asrwt>0</asrwt>
<pdfrwt beam="1">  1       21 0.15174080E+00 0.10694610E+04</pdfrwt>
<pdfrwt beam="2">  1       21 0.17762736E+00 0.10694610E+04</pdfrwt>
<totfact> 0.26173223E+01</totfact>
</mgrwt>
</event>
<event>
 8    1  0.5815007E-006  0.1151842E+04  0.7818608E-02  0.8651305E-01
         21   -1    0    0  501  502  0.00000000000E+00  0.00000000000E+00  0.74128628015E+03  0.74128628015E+03  0.00000000000E+00 0. -1.
         21   -1    0    0  502  503 -0.00000000000E+00 -0.00000000000E+00 -0.17508472443E+04  0.17508472443E+04  0.00000000000E+00 0. -1.
   -9000010    2    1    2    0  503 -0.19583807821E+03 -0.48600386831E+03 -0.64285802872E+03  0.13190927102E+04  0.10257615805E+04 0.  0.
    9000010    2    1    2  501    0  0.19583807821E+03  0.48600386831E+03 -0.36670293545E+03  0.11730408143E+04  0.98336229144E+03 0.  0.
        -13    1    4    4    0    0 -0.30900590863E+02 -0.16199883468E+03  0.21655529742E+03  0.27220337426E+03  0.10566000000E+00 0.  1.
          4    1    4    4  501    0  0.22673866907E+03  0.64800270300E+03 -0.58325823287E+03  0.90083744003E+03  0.00000000000E+00 0.  1.
         13    1    3    3    0    0 -0.24039124200E+03 -0.66832388925E+03 -0.80324285431E+03  0.10722144675E+04  0.10566000000E+00 0. -1.
         -4    1    3    3    0  503  0.44553163793E+02  0.18232002093E+03  0.16038482558E+03  0.24687824269E+03  0.00000000000E+00 0. -1.
<mgrwt>
<rscale>  2 0.11423265E+04</rscale>
<asrwt>0</asrwt>
<pdfrwt beam="1">  1       21 0.11404404E+00 0.11518416E+04</pdfrwt>
<pdfrwt beam="2">  1       21 0.26936111E+00 0.11518416E+04</pdfrwt>
<totfact> 0.11942932E+01</totfact>
</mgrwt>
</event>
<event>
 8    1  0.5815007E-006  0.1039758E+04  0.7818608E-02  0.8738350E-01
         21   -1    0    0  503  502  0.00000000000E+00  0.00000000000E+00  0.14766372175E+04  0.14766372175E+04  0.00000000000E+00 0.  1.
         21   -1    0    0  501  503 -0.00000000000E+00 -0.00000000000E+00 -0.82468716659E+03  0.82468716659E+03  0.00000000000E+00 0.  1.
    9000010    2    1    2  501    0  0.15125347581E+03  0.23537928746E+03 -0.61239754176E+02  0.10404768789E+04  0.10002803632E+04 0.  0.
   -9000010    2    1    2    0  502 -0.15125347581E+03 -0.23537928746E+03  0.71318980510E+03  0.12608475052E+04  0.10014068656E+04 0.  0.
        -13    1    3    3    0    0  0.40742460974E+03 -0.63772976618E+02 -0.35898616376E+03  0.54674754878E+03  0.10566000000E+00 0.  1.
          4    1    3    3  501    0 -0.25617113393E+03  0.29915226407E+03  0.29774640958E+03  0.49372933007E+03  0.00000000000E+00 0.  1.
         13    1    4    4    0    0  0.43378653312E+02 -0.36377978991E+03 -0.12789586975E+03  0.38803969871E+03  0.10566000000E+00 0. -1.
         -4    1    4    4    0  502 -0.19463212912E+03  0.12840050245E+03  0.84108567485E+03  0.87280780654E+03  0.00000000000E+00 0. -1.
<mgrwt>
<rscale>  2 0.10394867E+04</rscale>
<asrwt>0</asrwt>
<pdfrwt beam="1">  1       21 0.22717496E+00 0.10397580E+04</pdfrwt>
<pdfrwt beam="2">  1       21 0.12687495E+00 0.10397580E+04</pdfrwt>
<totfact> 0.18443394E+01</totfact>
</mgrwt>
</event>
<event>
 8    1  0.5815007E-006  0.1034046E+04  0.7818608E-02  0.8744550E-01
         21   -1    0    0  501  502  0.00000000000E+00  0.00000000000E+00  0.77372624527E+03  0.77372624527E+03  0.00000000000E+00 0. -1.
         21   -1    0    0  502  503 -0.00000000000E+00 -0.00000000000E+00 -0.13744019983E+04  0.13744019983E+04  0.00000000000E+00 0. -1.
   -9000010    2    1    2    0  503 -0.22115373312E+03  0.14263591009E+03 -0.28985074081E+03  0.10739011114E+04  0.99999808432E+03 0.  0.
    9000010    2    1    2  501    0  0.22115373312E+03 -0.14263591009E+03 -0.31082501226E+03  0.10742271322E+04  0.99403106931E+03 0.  0.
        -13    1    4    4    0    0  0.39972009277E+03 -0.48914861807E+03 -0.13196207463E+03  0.64533442759E+03  0.10566000000E+00 0.  1.
          4    1    4    4  501    0 -0.17856635965E+03  0.34651270798E+03 -0.17886293763E+03  0.42889270459E+03  0.00000000000E+00 0.  1.
         13    1    3    3    0    0  0.12410901628E+03  0.16178349292E+03  0.31613929045E+03  0.37619278121E+03  0.10566000000E+00 0. -1.
         -4    1    3    3    0  503 -0.34526274940E+03 -0.19147582834E+02 -0.60599003126E+03  0.69770833021E+03  0.00000000000E+00 0. -1.
<mgrwt>
<rscale>  2 0.10326001E+04</rscale>
<asrwt>0</asrwt>
<pdfrwt beam="1">  1       21 0.11903481E+00 0.10340455E+04</pdfrwt>
<pdfrwt beam="2">  1       21 0.21144646E+00 0.10340455E+04</pdfrwt>
<totfact> 0.29061385E+01</totfact>
</mgrwt>
</event>
<event>
 8    1  0.5815007E-006  0.1134411E+04  0.7818608E-02  0.8658258E-01
         21   -1    0    0  501  502  0.00000000000E+00  0.00000000000E+00  0.93965520632E+03  0.93965520632E+03  0.00000000000E+00 0. -1.
         21   -1    0    0  502  503 -0.00000000000E+00 -0.00000000000E+00 -0.13926285755E+04  0.13926285755E+04  0.00000000000E+00 0.  1.
   -9000010    2    1    2    0  503 -0.35899050730E+03 -0.40682503801E+03 -0.64817287681E+02  0.11333039505E+04  0.99287248302E+03 0.  0.
    9000010    2    1    2  501    0  0.35899050730E+03  0.40682503801E+03 -0.38815608147E+03  0.11989798313E+04  0.99624630308E+03 0.  0.
        -13    1    4    4    0    0 -0.95633929834E+02  0.16764951410E+03  0.28991925953E+03  0.34828924233E+03  0.10566000000E+00 0.  1.
          4    1    4    4  501    0  0.45462443714E+03  0.23917552391E+03 -0.67807534101E+03  0.85069058897E+03  0.00000000000E+00 0.  1.
         13    1    3    3    0    0 -0.46137144061E+03 -0.69011749970E+03 -0.53801975201E+02  0.83187765525E+03  0.10566000000E+00 0. -1.
         -4    1    3    3    0  503  0.10238093331E+03  0.28329246169E+03 -0.11015312480E+02  0.30142629525E+03  0.00000000000E+00 0. -1.
<mgrwt>
<rscale>  2 0.11336695E+04</rscale>
<asrwt>0</asrwt>
<pdfrwt beam="1">  1       21 0.14456234E+00 0.11344106E+04</pdfrwt>
<pdfrwt beam="2">  1       21 0.21425055E+00 0.11344106E+04</pdfrwt>
<totfact> 0.15395709E+01</totfact>
</mgrwt>
</event>
<event>
 8    1  0.5815007E-006  0.1245336E+04  0.7818608E-02  0.8577874E-01
         21   -1    0    0  501  502  0.00000000000E+00  0.00000000000E+00  0.13982224310E+04  0.13982224310E+04  0.00000000000E+00 0.  1.
         21   -1    0    0  502  503 -0.00000000000E+00 -0.00000000000E+00 -0.11524418578E+04  0.11524418578E+04  0.00000000000E+00 0. -1.
   -9000010    2    1    2    0  503  0.50229709898E+03 -0.50835499058E+03  0.42954547448E+03  0.13173349069E+04  0.10198699771E+04 0.  0.
    9000010    2    1    2  501    0 -0.50229709898E+03  0.50835499058E+03 -0.18376490128E+03  0.12333293819E+04  0.98823309656E+03 0.  0.
        -13    1    4    4    0    0 -0.20497467896E+03  0.76995537917E+03 -0.61883974521E-01  0.79677218822E+03  0.10566000000E+00 0.  1.
          4    1    4    4  501    0 -0.29732242002E+03 -0.26160038859E+03 -0.18370301730E+03  0.43655719364E+03  0.00000000000E+00 0.  1.
         13    1    3    3    0    0  0.91003694208E+02  0.24471475508E+03  0.37579145857E+03  0.45758738533E+03  0.10566000000E+00 0. -1.
         -4    1    3    3    0  503  0.41129340477E+03 -0.75306974565E+03  0.53754015914E+02  0.85974752157E+03  0.00000000000E+00 0. -1.
<mgrwt>
<rscale>  2 0.12388420E+04</rscale>
<asrwt>0</asrwt>
<pdfrwt beam="1">  1       21 0.21511114E+00 0.12453361E+04</pdfrwt>
<pdfrwt beam="2">  1       21 0.17729875E+00 0.12453361E+04</pdfrwt>
<totfact> 0.77261348E+00</totfact>
</mgrwt>
</event>
<event>
 8    1  0.5815007E-006  0.1094821E+04  0.7818608E-02  0.8698712E-01
         21   -1    0    0  501  502  0.00000000000E+00  0.00000000000E+00  0.16212399595E+04  0.16212399595E+04  0.00000000000E+00 0.  1.
         21   -1    0    0  502  503 -0.00000000000E+00 -0.00000000000E+00 -0.71335032750E+03  0.71335032750E+03  0.00000000000E+00 0.  1.
   -9000010    2    1    2    0  503 -0.43571242701E+03  0.97028764120E+02  0.48768805046E+03  0.11985295104E+04  0.99968667726E+03 0.  0.
    9000010    2    1    2  501    0  0.43571242701E+03 -0.97028764120E+02  0.42020158158E+03  0.11360607766E+04  0.95645429524E+03 0.  0.
        -13    1    4    4    0    0  0.48082683714E+03  0.28263153549E+03 -0.13489398709E+02  0.55790412009E+03  0.10566000000E+00 0.  1.
          4    1    4    4  501    0 -0.45114410138E+02 -0.37966029961E+03  0.43369098029E+03  0.57815665653E+03  0.00000000000E+00 0.  1.
         13    1    3    3    0    0 -0.25802758300E+03 -0.41890931274E+03  0.42335889601E+03  0.64907319455E+03  0.10566000000E+00 0. -1.
         -4    1    3    3    0  503 -0.17768484401E+03  0.51593807686E+03  0.64329154445E+02  0.54945631588E+03  0.00000000000E+00 0. -1.
<mgrwt>
<rscale>  2 0.10848537E+04</rscale>
<asrwt>0</asrwt>
<pdfrwt beam="1">  1       21 0.24942153E+00 0.10948212E+04</pdfrwt>
<pdfrwt beam="2">  1       21 0.10974620E+00 0.10948212E+04</pdfrwt>
<totfact> 0.18705665E+01</totfact>
</mgrwt>
</event>
<event>
 8    1  0.5815007E-006  0.1122483E+04  0.7818608E-02  0.8685998E-01
         21   -1    0    0  501  502  0.00000000000E+00  0.00000000000E+00  0.11867429081E+04  0.11867429081E+04  0.00000000000E+00 0. -1.
         21   -1    0    0  502  503 -0.00000000000E+00 -0.00000000000E+00 -0.10501382325E+04  0.10501382325E+04  0.00000000000E+00 0. -1.
   -9000010    2    1    2    0  503  0.28660163080E+02  0.51117500183E+03 -0.21695025551E+03  0.11432566062E+04  0.99892290333E+03 0.  0.
    9000010    2    1    2  501    0 -0.28660163080E+02 -0.51117500183E+03  0.35355493107E+03  0.10936245344E+04  0.89938437027E+03 0.  0.
        -13    1    4    4    0    0 -0.40858857083E+03 -0.22907335438E+03 -0.50822815323E+02  0.47117108530E+03  0.10566000000E+00 0.  1.
          4    1    4    4  501    0  0.37992840775E+03 -0.28210164745E+03  0.40437774639E+03  0.62245344909E+03  0.00000000000E+00 0.  1.
         13    1    3    3    0    0 -0.35626405674E+03  0.25876360733E+03 -0.44805093413E+03  0.62819768652E+03  0.10566000000E+00 0. -1.
         -4    1    3    3    0  503  0.38492421982E+03  0.25241139450E+03  0.23110067862E+03  0.51505891968E+03  0.00000000000E+00 0. -1.
<mgrwt>
<rscale>  2 0.10999152E+04</rscale>
<asrwt>0</asrwt>
<pdfrwt beam="1">  1       21 0.18257583E+00 0.11224831E+04</pdfrwt>
<pdfrwt beam="2">  1       21 0.16155973E+00 0.11224831E+04</pdfrwt>
<totfact> 0.19355451E+01</totfact>
</mgrwt>
</event>
<event>
 8    1  0.5815007E-006  0.1033861E+04  0.7818608E-02  0.8743513E-01
         21   -1    0    0  503  502  0.00000000000E+00  0.00000000000E+00  0.14951323442E+04  0.14951323442E+04  0.00000000000E+00 0.  1.
         21   -1    0    0  501  503 -0.00000000000E+00 -0.00000000000E+00 -0.71458998004E+03  0.71458998004E+03  0.00000000000E+00 0.  1.
    9000010    2    1    2  501    0  0.20586336902E+03  0.13519635333E+03  0.38854572077E+03  0.11040418972E+04  0.10036348704E+04 0.  0.
   -9000010    2    1    2    0  502 -0.20586336902E+03 -0.13519635333E+03  0.39199664343E+03  0.11056804271E+04  0.10040966376E+04 0.  0.
        -13    1    3    3    0    0  0.12864456487E+03 -0.20823110291E+02 -0.33520674549E+03  0.35964788249E+03  0.10566000000E+00 0.  1.
          4    1    3    3  501    0  0.77218804146E+02  0.15601946362E+03  0.72375246626E+03  0.74439401473E+03  0.00000000000E+00 0.  1.
         13    1    4    4    0    0 -0.60637793852E+03 -0.16615597878E+03  0.19505583069E+03  0.65829233769E+03  0.10566000000E+00 0. -1.
         -4    1    4    4    0  502  0.40051456950E+03  0.30959625443E+02  0.19694081274E+03  0.44738808937E+03  0.00000000000E+00 0. -1.
<mgrwt>
<rscale>  2 0.10337485E+04</rscale>
<asrwt>0</asrwt>
<pdfrwt beam="1">  1       21 0.23002036E+00 0.10338606E+04</pdfrwt>
<pdfrwt beam="2">  1       21 0.10993692E+00 0.10338606E+04</pdfrwt>
<totfact> 0.26205193E+01</totfact>
</mgrwt>
</event>
<event>
 8    1  0.5815007E-006  0.1251267E+04  0.7818608E-02  0.8569653E-01
         21   -1    0    0  503  502  0.00000000000E+00  0.00000000000E+00  0.89986700606E+03  0.89986700606E+03  0.00000000000E+00 0.  1.
         21   -1    0    0  501  503 -0.00000000000E+00 -0.00000000000E+00 -0.17345783844E+04  0.17345783844E+04  0.00000000000E+00 0.  1.
    9000010    2    1    2  501    0 -0.70868569675E+03  0.25129505068E+03 -0.39999159252E+03  0.13136443282E+04  0.10001417538E+04 0.  0.
   -9000010    2    1    2    0  502  0.70868569675E+03 -0.25129505068E+03 -0.43471978579E+03  0.13208010622E+04  0.99506257819E+03 0.  0.
        -13    1    3    3    0    0 -0.49627483830E+02 -0.32038202946E+03 -0.28871564960E+03  0.43412471646E+03  0.10566000000E+00 0.  1.
          4    1    3    3  501    0 -0.65905821292E+03  0.57167708014E+03 -0.11127594291E+03  0.87951961175E+03  0.00000000000E+00 0.  1.
         13    1    4    4    0    0  0.95932903497E+03 -0.18606219073E+03 -0.26983598052E+03  0.10137765058E+04  0.10566000000E+00 0. -1.
         -4    1    4    4    0  502 -0.25064333821E+03 -0.65232859951E+02 -0.16488380527E+03  0.30702455642E+03  0.00000000000E+00 0. -1.
<mgrwt>
<rscale>  2 0.12502514E+04</rscale>
<asrwt>0</asrwt>
<pdfrwt beam="1">  1       21 0.13844108E+00 0.12512666E+04</pdfrwt>
<pdfrwt beam="2">  1       21 0.26685821E+00 0.12512666E+04</pdfrwt>
<totfact> 0.70088594E+00</totfact>
</mgrwt>
</event>
<event>
 8    1  0.5815007E-006  0.1023671E+04  0.7818608E-02  0.8755933E-01
         21   -1    0    0  503  502  0.00000000000E+00  0.00000000000E+00  0.92488827161E+03  0.92488827161E+03  0.00000000000E+00 0. -1.
         21   -1    0    0  501  503 -0.00000000000E+00 -0.00000000000E+00 -0.11363294628E+04  0.11363294628E+04  0.00000000000E+00 0. -1.
    9000010    2    1    2  501    0 -0.44492363675E+02 -0.20369747479E+03  0.26812602051E+02  0.10240215954E+04  0.10022120936E+04 0.  0.
   -9000010    2    1    2    0  502  0.44492363675E+02  0.20369747479E+03 -0.23825379328E+03  0.10371961390E+04  0.98769364135E+03 0.  0.
        -13    1    3    3    0    0 -0.50255577792E+03  0.40565527928E+02 -0.35201996023E+00  0.50419044721E+03  0.10566000000E+00 0.  1.
          4    1    3    3  501    0  0.45806341424E+03 -0.24426300272E+03  0.27164622011E+02  0.51983114821E+03  0.00000000000E+00 0.  1.
         13    1    4    4    0    0  0.37058894430E+03 -0.23161762131E+03  0.14875350608E+02  0.43726899657E+03  0.10566000000E+00 0. -1.
         -4    1    4    4    0  502 -0.32609658063E+03  0.43531509610E+03 -0.25312914389E+03  0.59992714247E+03  0.00000000000E+00 0. -1.
<mgrwt>
<rscale>  2 0.10200994E+04</rscale>
<asrwt>0</asrwt>
<pdfrwt beam="1">  1       21 0.14229050E+00 0.10236705E+04</pdfrwt>
<pdfrwt beam="2">  1       21 0.17481992E+00 0.10236705E+04</pdfrwt>
<totfact> 0.33930793E+01</totfact>
</mgrwt>
</event>
<event>
 8    1  0.5815007E-006  0.1214229E+04  0.7818608E-02  0.8598269E-01
         21   -1    0    0  501  502  0.00000000000E+00  0.00000000000E+00  0.10787175175E+04  0.10787175175E+04  0.00000000000E+00 0.  1.
         21   -1    0    0  502  503 -0.00000000000E+00 -0.00000000000E+00 -0.14786874918E+04  0.14786874918E+04  0.00000000000E+00 0.  1.
   -9000010    2    1    2    0  503  0.58604715689E+03 -0.34833246447E+03 -0.57424395107E+03  0.13431711919E+04  0.10047715957E+04 0.  0.
    9000010    2    1    2  501    0 -0.58604715689E+03  0.34833246447E+03  0.17427397678E+03  0.12142338174E+04  0.98954816377E+03 0.  0.
        -13    1    4    4    0    0 -0.38451134475E+03  0.21496758232E+03  0.58823042710E+03  0.73489800804E+03  0.10566000000E+00 0.  1.
          4    1    4    4  501    0 -0.20153581214E+03  0.13336488216E+03 -0.41395645032E+03  0.47933580936E+03  0.00000000000E+00 0.  1.
         13    1    3    3    0    0 -0.22195301142E+02 -0.47789627180E+03 -0.53840847472E+03  0.72025077217E+03  0.10566000000E+00 0. -1.
         -4    1    3    3    0  503  0.60824245803E+03  0.12956380733E+03 -0.35835476356E+02  0.62292041971E+03  0.00000000000E+00 0. -1.
<mgrwt>
<rscale>  2 0.12110753E+04</rscale>
<asrwt>0</asrwt>
<pdfrwt beam="1">  1       21 0.16595654E+00 0.12142293E+04</pdfrwt>
<pdfrwt beam="2">  1       21 0.22749038E+00 0.12142293E+04</pdfrwt>
<totfact> 0.78031054E+00</totfact>
</mgrwt>
</event>
<event>
 8    1  0.5815007E-006  0.1089521E+04  0.7818608E-02  0.8695240E-01
         21   -1    0    0  503  502  0.00000000000E+00  0.00000000000E+00  0.20272033256E+04  0.20272033256E+04  0.00000000000E+00 0. -1.
         21   -1    0    0  501  503 -0.00000000000E+00 -0.00000000000E+00 -0.60270448418E+03  0.60270448418E+03  0.00000000000E+00 0. -1.
    9000010    2    1    2  501    0  0.18348306366E+03 -0.37020858676E+03  0.48185481690E+03  0.11892018264E+04  0.10056323816E+04 0.  0.
   -9000010    2    1    2    0  502 -0.18348306366E+03  0.37020858676E+03  0.94264402455E+03  0.14407059834E+04  0.10081346841E+04 0.  0.
        -13    1    3    3    0    0 -0.88342530057E+01 -0.38511547245E+03 -0.23204075401E+03  0.44970534112E+03  0.10566000000E+00 0.  1.
          4    1    3    3  501    0  0.19231731666E+03  0.14906885692E+02  0.71389557091E+03  0.73949648525E+03  0.00000000000E+00 0.  1.
         13    1    4    4    0    0  0.23694894894E+03  0.40008448956E+03  0.90508738608E+03  0.10175439012E+04  0.10566000000E+00 0. -1.
         -4    1    4    4    0  502 -0.42043201260E+03 -0.29875902804E+02  0.37556638472E+02  0.42316208228E+03  0.00000000000E+00 0. -1.
<mgrwt>
<rscale>  2 0.10889418E+04</rscale>
<asrwt>0</asrwt>
<pdfrwt beam="1">  1       21 0.31187743E+00 0.10895210E+04</pdfrwt>
<pdfrwt beam="2">  1       21 0.92723768E-01 0.10895210E+04</pdfrwt>
<totfact> 0.10442254E+01</totfact>
</mgrwt>
</event>
<event>
 8    1  0.5815007E-006  0.1093391E+04  0.7818608E-02  0.8693874E-01
         21   -1    0    0  501  502  0.00000000000E+00  0.00000000000E+00  0.22111777294E+04  0.22111777294E+04  0.00000000000E+00 0.  1.
         21   -1    0    0  502  503 -0.00000000000E+00 -0.00000000000E+00 -0.84200962635E+03  0.84200962635E+03  0.00000000000E+00 0.  1.
   -9000010    2    1    2    0  503  0.43686014338E+03 -0.56902588464E+02 -0.23933930221E+03  0.11082454698E+04  0.98835217934E+03 0.  0.
    9000010    2    1    2  501    0 -0.43686014338E+03  0.56902588464E+02  0.16085074052E+04  0.19449418859E+04  0.10007088374E+04 0.  0.
        -13    1    4    4    0    0 -0.20430552794E+03 -0.46070893196E+03  0.56490786279E+03  0.75704317798E+03  0.10566000000E+00 0.  1.
          4    1    4    4  501    0 -0.23255461544E+03  0.51761152042E+03  0.10435995425E+04  0.11878987079E+04  0.00000000000E+00 0.  1.
         13    1    3    3    0    0 -0.21717184259E+03 -0.26248793457E+03  0.83031226020E+02  0.35065327699E+03  0.10566000000E+00 0. -1.
         -4    1    3    3    0  503  0.65403198597E+03  0.20558534610E+03 -0.32237052823E+03  0.75759219285E+03  0.00000000000E+00 0. -1.
<mgrwt>
<rscale>  2 0.10905551E+04</rscale>
<asrwt>0</asrwt>
<pdfrwt beam="1">  1       21 0.34018119E+00 0.10933905E+04</pdfrwt>
<pdfrwt beam="2">  1       21 0.12953994E+00 0.10933905E+04</pdfrwt>
<totfact> 0.26675064E+00</totfact>
</mgrwt>
</event>
<event>
 8    1  0.5815007E-006  0.1112672E+04  0.7818608E-02  0.8676335E-01
         21   -1    0    0  501  502  0.00000000000E+00  0.00000000000E+00  0.84224038509E+03  0.84224038509E+03  0.00000000000E+00 0. -1.
         21   -1    0    0  502  503 -0.00000000000E+00 -0.00000000000E+00 -0.25908572906E+04  0.25908572906E+04  0.00000000000E+00 0. -1.
   -9000010    2    1    2    0  503 -0.28709392254E+03  0.37675270308E+03 -0.20053904579E+04  0.22911816799E+04  0.10017769622E+04 0.  0.
    9000010    2    1    2  501    0  0.28709392254E+03 -0.37675270308E+03  0.25677355239E+03  0.11419159958E+04  0.10068137686E+04 0.  0.
        -13    1    4    4    0    0 -0.68752089366E+02 -0.65460123302E+03  0.11101189336E+03  0.66749777205E+03  0.10566000000E+00 0.  1.
          4    1    4    4  501    0  0.35584601191E+03  0.27784852993E+03  0.14576165903E+03  0.47441822374E+03  0.00000000000E+00 0.  1.
         13    1    3    3    0    0 -0.19874847609E+03 -0.11942799734E+03 -0.16694952703E+04  0.16855202378E+04  0.10566000000E+00 0. -1.
         -4    1    3    3    0  503 -0.88345446454E+02  0.49618070042E+03 -0.33589518758E+03  0.60566144208E+03  0.00000000000E+00 0. -1.
<mgrwt>
<rscale>  2 0.11115316E+04</rscale>
<asrwt>0</asrwt>
<pdfrwt beam="1">  1       21 0.12957545E+00 0.11126722E+04</pdfrwt>
<pdfrwt beam="2">  1       21 0.39859342E+00 0.11126722E+04</pdfrwt>
<totfact> 0.10339975E+00</totfact>
</mgrwt>
</event>
<event>
 8    1  0.5815007E-006  0.1275144E+04  0.7818608E-02  0.8553499E-01
         21   -1    0    0  501  502  0.00000000000E+00  0.00000000000E+00  0.18121808781E+04  0.18121808781E+04  0.00000000000E+00 0. -1.
         21   -1    0    0  502  503 -0.00000000000E+00 -0.00000000000E+00 -0.89764908833E+03  0.89764908833E+03  0.00000000000E+00 0. -1.
   -9000010    2    1    2    0  503 -0.76540169270E+03  0.11346894611E+03  0.56907534627E+03  0.13887195341E+04  0.10029856638E+04 0.  0.
    9000010    2    1    2  501    0  0.76540169270E+03 -0.11346894611E+03  0.34545644355E+03  0.13211104324E+04  0.10135470720E+04 0.  0.
        -13    1    4    4    0    0  0.14963463034E+03 -0.23285199219E+03  0.58699407634E+03  0.64897814269E+03  0.10566000000E+00 0.  1.
          4    1    4    4  501    0  0.61576706236E+03  0.11938304608E+03 -0.24153763279E+03  0.67213228968E+03  0.00000000000E+00 0.  1.
         13    1    3    3    0    0 -0.73962968477E+03  0.84250068213E+02 -0.70696845631E+02  0.74776212777E+03  0.10566000000E+00 0. -1.
         -4    1    3    3    0  503 -0.25772007928E+02  0.29218877901E+02  0.63977219190E+03  0.64095740634E+03  0.00000000000E+00 0. -1.
<mgrwt>
<rscale>  2 0.12730443E+04</rscale>
<asrwt>0</asrwt>
<pdfrwt beam="1">  1       21 0.27879706E+00 0.12751442E+04</pdfrwt>
<pdfrwt beam="2">  1       21 0.13809986E+00 0.12751442E+04</pdfrwt>
<totfact> 0.57705566E+00</totfact>
</mgrwt>
</event>
<event>
 8    1  0.5815007E-006  0.1081869E+04  0.7818608E-02  0.8703933E-01
         21   -1    0    0  503  502  0.00000000000E+00  0.00000000000E+00  0.10348662320E+04  0.10348662320E+04  0.00000000000E+00 0.  1.
         21   -1    0    0  501  503 -0.00000000000E+00 -0.00000000000E+00 -0.11285301923E+04  0.11285301923E+04  0.00000000000E+00 0.  1.
    9000010    2    1    2  501    0 -0.46581106417E+02 -0.36052798019E+03  0.57793987910E+02  0.10709766627E+04  0.10057338828E+04 0.  0.
   -9000010    2    1    2    0  502  0.46581106417E+02  0.36052798019E+03 -0.15145794827E+03  0.10924197616E+04  0.10189657509E+04 0.  0.
        -13    1    3    3    0    0 -0.21491095101E+03  0.30701394727E+03 -0.34659038705E+02  0.37635826125E+03  0.10566000000E+00 0.  1.
          4    1    3    3  501    0  0.16832984459E+03 -0.66754192746E+03  0.92453026615E+02  0.69461840145E+03  0.00000000000E+00 0.  1.
         13    1    4    4    0    0  0.48430992953E+03  0.86274846211E+02  0.12357081294E+03  0.50721712699E+03  0.10566000000E+00 0. -1.
         -4    1    4    4    0  502 -0.43772882312E+03  0.27425313398E+03 -0.27502876121E+03  0.58520263463E+03  0.00000000000E+00 0. -1.
<mgrwt>
<rscale>  2 0.10787426E+04</rscale>
<asrwt>0</asrwt>
<pdfrwt beam="1">  1       21 0.15921019E+00 0.10818694E+04</pdfrwt>
<pdfrwt beam="2">  1       21 0.17362003E+00 0.10818694E+04</pdfrwt>
<totfact> 0.24232168E+01</totfact>
</mgrwt>
</event>
<event>
 8    1  0.5815007E-006  0.1042742E+04  0.7818608E-02  0.8738572E-01
         21   -1    0    0  503  502  0.00000000000E+00  0.00000000000E+00  0.84174919208E+03  0.84174919208E+03  0.00000000000E+00 0. -1.
         21   -1    0    0  501  503 -0.00000000000E+00 -0.00000000000E+00 -0.12920966147E+04  0.12920966147E+04  0.00000000000E+00 0. -1.
    9000010    2    1    2  501    0  0.28485721699E+03 -0.10824678873E+03 -0.99216296906E+02  0.10335710694E+04  0.98263130454E+03 0.  0.
   -9000010    2    1    2    0  502 -0.28485721699E+03  0.10824678873E+03 -0.35113112577E+03  0.11002747374E+04  0.99722135402E+03 0.  0.
        -13    1    3    3    0    0  0.19406589754E+03 -0.54487165033E+03 -0.10349247015E+03  0.58758607068E+03  0.10566000000E+00 0.  1.
          4    1    3    3  501    0  0.90791319449E+02  0.43662486160E+03  0.42761732470E+01  0.44598499875E+03  0.00000000000E+00 0.  1.
         13    1    4    4    0    0 -0.43931420881E+03 -0.15534550399E+03  0.17014851834E+03  0.49606423892E+03  0.10566000000E+00 0. -1.
         -4    1    4    4    0  502  0.15445699182E+03  0.26359229273E+03 -0.52127964411E+03  0.60421049848E+03  0.00000000000E+00 0. -1.
<mgrwt>
<rscale>  2 0.10392386E+04</rscale>
<asrwt>0</asrwt>
<pdfrwt beam="1">  1       21 0.12949988E+00 0.10427423E+04</pdfrwt>
<pdfrwt beam="2">  1       21 0.19878409E+00 0.10427423E+04</pdfrwt>
<totfact> 0.28612530E+01</totfact>
</mgrwt>
</event>
<event>
 8    1  0.5815007E-006  0.1041373E+04  0.7818608E-02  0.8738368E-01
         21   -1    0    0  501  502  0.00000000000E+00  0.00000000000E+00  0.61282984169E+03  0.61282984169E+03  0.00000000000E+00 0. -1.
         21   -1    0    0  502  503 -0.00000000000E+00 -0.00000000000E+00 -0.17588152560E+04  0.17588152560E+04  0.00000000000E+00 0. -1.
   -9000010    2    1    2    0  503  0.21073243003E+03 -0.21488415521E+03 -0.61212620199E+03  0.12014039357E+04  0.98898411130E+03 0.  0.
    9000010    2    1    2  501    0 -0.21073243003E+03  0.21488415521E+03 -0.53385921227E+03  0.11702411619E+04  0.99693297732E+03 0.  0.
        -13    1    4    4    0    0  0.22034401382E+03  0.44871647000E+03 -0.45020983857E+03  0.67274576534E+03  0.10566000000E+00 0.  1.
          4    1    4    4  501    0 -0.43107644385E+03 -0.23383231479E+03 -0.83649373703E+02  0.49749539656E+03  0.00000000000E+00 0.  1.
         13    1    3    3    0    0 -0.70010455537E+02 -0.56522099702E+03 -0.44343647381E+03  0.72181171841E+03  0.10566000000E+00 0. -1.
         -4    1    3    3    0  503  0.28074288556E+03  0.35033684181E+03 -0.16868972818E+03  0.47959221732E+03  0.00000000000E+00 0. -1.
<mgrwt>
<rscale>  2 0.10394665E+04</rscale>
<asrwt>0</asrwt>
<pdfrwt beam="1">  1       21 0.94281516E-01 0.10413735E+04</pdfrwt>
<pdfrwt beam="2">  1       21 0.27058696E+00 0.10413735E+04</pdfrwt>
<totfact> 0.19857731E+01</totfact>
</mgrwt>
</event>
<event>
 8    1  0.5815007E-006  0.1064349E+04  0.7818608E-02  0.8717446E-01
         21   -1    0    0  503  502  0.00000000000E+00  0.00000000000E+00  0.54864954819E+03  0.54864954819E+03  0.00000000000E+00 0.  1.
         21   -1    0    0  501  503 -0.00000000000E+00 -0.00000000000E+00 -0.20806320385E+04  0.20806320385E+04  0.00000000000E+00 0.  1.
    9000010    2    1    2  501    0 -0.21106907976E+03 -0.23371315740E+03 -0.90946094442E+03  0.13962475682E+04  0.10115414306E+04 0.  0.
   -9000010    2    1    2    0  502  0.21106907976E+03  0.23371315740E+03 -0.62252154586E+03  0.12330340185E+04  0.10166945555E+04 0.  0.
        -13    1    3    3    0    0 -0.16051793588E+03 -0.50466532231E+03 -0.97107170589E+02  0.53840775350E+03  0.10566000000E+00 0.  1.
          4    1    3    3  501    0 -0.50551143881E+02  0.27095216491E+03 -0.81235377383E+03  0.85783981470E+03  0.00000000000E+00 0.  1.
         13    1    4    4    0    0  0.55158706005E+02 -0.14176145565E+03 -0.78174657216E+03  0.79640850535E+03  0.10566000000E+00 0. -1.
         -4    1    4    4    0  502  0.15591037376E+03  0.37547461305E+03  0.15922502630E+03  0.43662551310E+03  0.00000000000E+00 0. -1.
<mgrwt>
<rscale>  2 0.10631170E+04</rscale>
<asrwt>0</asrwt>
<pdfrwt beam="1">  1       21 0.84407623E-01 0.10643495E+04</pdfrwt>
<pdfrwt beam="2">  1       21 0.32009724E+00 0.10643495E+04</pdfrwt>
<totfact> 0.11684790E+01</totfact>
</mgrwt>
</event>
<event>
 8    1  0.5815007E-006  0.1166337E+04  0.7818608E-02  0.8641121E-01
         21   -1    0    0  503  502  0.00000000000E+00  0.00000000000E+00  0.11229438237E+04  0.11229438237E+04  0.00000000000E+00 0.  1.
         21   -1    0    0  501  503 -0.00000000000E+00 -0.00000000000E+00 -0.15056509641E+04  0.15056509641E+04  0.00000000000E+00 0.  1.
    9000010    2    1    2  501    0  0.50539258916E+03  0.15512927594E+03 -0.81832096380E+03  0.14247775718E+04  0.10396418460E+04 0.  0.
   -9000010    2    1    2    0  502 -0.50539258916E+03 -0.15512927594E+03  0.43561382342E+03  0.12038172160E+04  0.98991399870E+03 0.  0.
        -13    1    3    3    0    0 -0.97868508327E+02 -0.27241414536E+03 -0.57948420559E+03  0.64775741386E+03  0.10566000000E+00 0.  1.
          4    1    3    3  501    0  0.60326109749E+03  0.42754342130E+03 -0.23883675821E+03  0.77702015798E+03  0.00000000000E+00 0.  1.
         13    1    4    4    0    0 -0.31178763572E+03 -0.45591997334E+03 -0.98433936030E+02  0.56103814737E+03  0.10566000000E+00 0. -1.
         -4    1    4    4    0  502 -0.19360495344E+03  0.30079069739E+03  0.53404775945E+03  0.64277906858E+03  0.00000000000E+00 0. -1.
<mgrwt>
<rscale>  2 0.11551522E+04</rscale>
<asrwt>0</asrwt>
<pdfrwt beam="1">  1       21 0.17276059E+00 0.11663370E+04</pdfrwt>
<pdfrwt beam="2">  1       21 0.23163861E+00 0.11663370E+04</pdfrwt>
<totfact> 0.64343991E+00</totfact>
</mgrwt>
</event>
<event>
 8    1  0.5815007E-006  0.1270813E+04  0.7818608E-02  0.8555979E-01
         21   -1    0    0  501  502  0.00000000000E+00  0.00000000000E+00  0.19827184603E+04  0.19827184603E+04  0.00000000000E+00 0.  1.
         21   -1    0    0  502  503 -0.00000000000E+00 -0.00000000000E+00 -0.91091809521E+03  0.91091809521E+03  0.00000000000E+00 0.  1.
   -9000010    2    1    2    0  503 -0.20373212777E+03 -0.76456701964E+03  0.58170305061E+02  0.12721438464E+04  0.99443284040E+03 0.  0.
    9000010    2    1    2  501    0  0.20373212777E+03  0.76456701964E+03  0.10136300600E+04  0.16214927091E+04  0.98778702144E+03 0.  0.
        -13    1    4    4    0    0  0.57155132305E+03  0.67813641618E+03  0.68234969469E+03  0.11189910772E+04  0.10566000000E+00 0.  1.
          4    1    4    4  501    0 -0.36781919528E+03  0.86430603469E+02  0.33128036533E+03  0.50250163192E+03  0.00000000000E+00 0.  1.
         13    1    3    3    0    0  0.35354105733E+03 -0.32473015327E+03 -0.19539195099E+03  0.51828464895E+03  0.10566000000E+00 0. -1.
         -4    1    3    3    0  503 -0.55727318510E+03 -0.43983686638E+03  0.25356225605E+03  0.75385919743E+03  0.00000000000E+00 0. -1.
<mgrwt>
<rscale>  2 0.12695128E+04</rscale>
<asrwt>0</asrwt>
<pdfrwt beam="1">  1       21 0.30503361E+00 0.12708132E+04</pdfrwt>
<pdfrwt beam="2">  1       21 0.14014125E+00 0.12708132E+04</pdfrwt>
<totfact> 0.35986096E+00</totfact>
</mgrwt>
</event>
<event>
 8    1  0.5815007E-006  0.1502391E+04  0.7818608E-02  0.8411273E-01
         21   -1    0    0  503  502  0.00000000000E+00  0.00000000000E+00  0.10602296195E+04  0.10602296195E+04  0.00000000000E+00 0.  1.
         21   -1    0    0  501  503 -0.00000000000E+00 -0.00000000000E+00 -0.21762496452E+04  0.21762496452E+04  0.00000000000E+00 0.  1.
    9000010    2    1    2  501    0 -0.65880490903E+03 -0.88517221851E+03 -0.86833178000E+03  0.17352745334E+04  0.10196194690E+04 0.  0.
   -9000010    2    1    2    0  502  0.65880490903E+03  0.88517221851E+03 -0.24768824566E+03  0.15012047313E+04  0.98727524723E+03 0.  0.
        -13    1    3    3    0    0 -0.68512326068E+02 -0.90805519971E+03 -0.55775958839E+03  0.10678735666E+04  0.10566000000E+00 0.  1.
          4    1    3    3  501    0 -0.59029258296E+03  0.22882981201E+02 -0.31057219160E+03  0.66740096683E+03  0.00000000000E+00 0.  1.
         13    1    4    4    0    0  0.88281476607E+03  0.89161941352E+03 -0.18339492570E+03  0.12680618280E+04  0.10566000000E+00 0. -1.
         -4    1    4    4    0  502 -0.22400985704E+03 -0.64471950122E+01 -0.64293319960E+02  0.23314290332E+03  0.00000000000E+00 0. -1.
<mgrwt>
<rscale>  2 0.14969208E+04</rscale>
<asrwt>0</asrwt>
<pdfrwt beam="1">  1       21 0.16311225E+00 0.15023906E+04</pdfrwt>
<pdfrwt beam="2">  1       21 0.33480764E+00 0.15023906E+04</pdfrwt>
<totfact> 0.13267697E+00</totfact>
</mgrwt>
</event>
<event>
 8    1  0.5815007E-006  0.1018929E+04  0.7818608E-02  0.8757565E-01
         21   -1    0    0  503  502  0.00000000000E+00  0.00000000000E+00  0.77318052952E+03  0.77318052952E+03  0.00000000000E+00 0.  1.
         21   -1    0    0  501  503 -0.00000000000E+00 -0.00000000000E+00 -0.13420641226E+04  0.13420641226E+04  0.00000000000E+00 0.  1.
    9000010    2    1    2  501    0 -0.13095570674E+03 -0.13385310817E+03 -0.32951621627E+03  0.10685772912E+04  0.99910481877E+03 0.  0.
   -9000010    2    1    2    0  502  0.13095570674E+03  0.13385310817E+03 -0.23936737685E+03  0.10466673609E+04  0.10015736476E+04 0.  0.
        -13    1    3    3    0    0  0.42395703971E+03 -0.15728129423E+03 -0.21837197899E+03  0.50215864964E+03  0.10566000000E+00 0.  1.
          4    1    3    3  501    0 -0.55491274645E+03  0.23428186060E+02 -0.11114423728E+03  0.56641864160E+03  0.00000000000E+00 0.  1.
         13    1    4    4    0    0 -0.12577446912E+03 -0.15794133578E+03 -0.52621453520E+03  0.56361904762E+03  0.10566000000E+00 0. -1.
         -4    1    4    4    0  502  0.25673017586E+03  0.29179444395E+03  0.28684715835E+03  0.48304831329E+03  0.00000000000E+00 0. -1.
<mgrwt>
<rscale>  2 0.10183216E+04</rscale>
<asrwt>0</asrwt>
<pdfrwt beam="1">  1       21 0.11895085E+00 0.10189288E+04</pdfrwt>
<pdfrwt beam="2">  1       21 0.20647140E+00 0.10189288E+04</pdfrwt>
<totfact> 0.31903227E+01</totfact>
</mgrwt>
</event>
<event>
 8    1  0.5815007E-006  0.1182928E+04  0.7818608E-02  0.8623141E-01
         21   -1    0    0  501  502  0.00000000000E+00  0.00000000000E+00  0.15909403911E+04  0.15909403911E+04  0.00000000000E+00 0. -1.
         21   -1    0    0  502  503 -0.00000000000E+00 -0.00000000000E+00 -0.97371708366E+03  0.97371708366E+03  0.00000000000E+00 0. -1.
   -9000010    2    1    2    0  503  0.60425751341E+03 -0.97620960287E+02  0.73786686910E+03  0.13941900978E+04  0.10122556584E+04 0.  0.
    9000010    2    1    2  501    0 -0.60425751341E+03  0.97620960287E+02 -0.12064356169E+03  0.11704673769E+04  0.99034439316E+03 0.  0.
        -13    1    4    4    0    0  0.19347940232E+03  0.18043466007E+03  0.17331035831E+03  0.31627114497E+03  0.10566000000E+00 0.  1.
          4    1    4    4  501    0 -0.79773691573E+03 -0.82813699788E+02 -0.29395392000E+03  0.85419623195E+03  0.00000000000E+00 0.  1.
         13    1    3    3    0    0  0.54205614577E+03 -0.29077178065E+03 -0.14143796185E+02  0.61528298508E+03  0.10566000000E+00 0. -1.
         -4    1    3    3    0  503  0.62201367640E+02  0.19315082037E+03  0.75201066529E+03  0.77890711272E+03  0.00000000000E+00 0. -1.
<mgrwt>
<rscale>  2 0.11782263E+04</rscale>
<asrwt>0</asrwt>
<pdfrwt beam="1">  1       21 0.24476006E+00 0.11829279E+04</pdfrwt>
<pdfrwt beam="2">  1       21 0.14980263E+00 0.11829279E+04</pdfrwt>
<totfact> 0.80942452E+00</totfact>
</mgrwt>
</event>
<event>
 8    1  0.5815007E-006  0.1153282E+04  0.7818608E-02  0.8659699E-01
         21   -1    0    0  503  502  0.00000000000E+00  0.00000000000E+00  0.10062974057E+04  0.10062974057E+04  0.00000000000E+00 0.  1.
         21   -1    0    0  501  503 -0.00000000000E+00 -0.00000000000E+00 -0.12433533282E+04  0.12433533282E+04  0.00000000000E+00 0.  1.
    9000010    2    1    2  501    0  0.25126034049E+03 -0.33053772384E+03 -0.24755318875E+03  0.11795516501E+04  0.10759519359E+04 0.  0.
   -9000010    2    1    2    0  502 -0.25126034049E+03  0.33053772384E+03  0.10497266224E+02  0.10700990838E+04  0.98621240661E+03 0.  0.
        -13    1    3    3    0    0  0.12788907544E+03 -0.63934077030E+03 -0.44817507209E+03  0.79118464507E+03  0.10566000000E+00 0.  1.
          4    1    3    3  501    0  0.12337126504E+03  0.30880304646E+03  0.20062188334E+03  0.38836700505E+03  0.00000000000E+00 0.  1.
         13    1    4    4    0    0  0.34625704460E+03 -0.35535862251E+02 -0.96576922798E+02  0.36122548584E+03  0.10566000000E+00 0. -1.
         -4    1    4    4    0  502 -0.59751738509E+03  0.36607358609E+03  0.10707418902E+03  0.70887359795E+03  0.00000000000E+00 0. -1.
<mgrwt>
<rscale>  2 0.11318853E+04</rscale>
<asrwt>0</asrwt>
<pdfrwt beam="1">  1       21 0.15481499E+00 0.11532821E+04</pdfrwt>
<pdfrwt beam="2">  1       21 0.19128513E+00 0.11532821E+04</pdfrwt>
<totfact> 0.18733352E+01</totfact>
</mgrwt>
</event>
<event>
 8    1  0.5815007E-006  0.1290903E+04  0.7818608E-02  0.8541730E-01
         21   -1    0    0  501  502  0.00000000000E+00  0.00000000000E+00  0.17988005502E+04  0.17988005502E+04  0.00000000000E+00 0. -1.
         21   -1    0    0  502  503 -0.00000000000E+00 -0.00000000000E+00 -0.92390336900E+03  0.92390336900E+03  0.00000000000E+00 0. -1.
   -9000010    2    1    2    0  503 -0.45291981299E+02  0.80797402169E+03  0.41926605199E+03  0.13572820291E+04  0.10057619505E+04 0.  0.
    9000010    2    1    2  501    0  0.45291981299E+02 -0.80797402169E+03  0.45563112918E+03  0.13654218900E+04  0.10009514617E+04 0.  0.
        -13    1    4    4    0    0 -0.97760547808E+02 -0.99777664175E+03  0.50517541342E+03  0.11226386600E+04  0.10566000000E+00 0.  1.
          4    1    4    4  501    0  0.14305252911E+03  0.18980262006E+03 -0.49544284240E+02  0.24278322999E+03  0.00000000000E+00 0.  1.
         13    1    3    3    0    0  0.24397867377E+03 -0.15136889864E+03  0.64066539681E+02  0.29418135461E+03  0.10566000000E+00 0. -1.
         -4    1    3    3    0  503 -0.28927065507E+03  0.95934292032E+03  0.35519951231E+03  0.10631006745E+04  0.00000000000E+00 0. -1.
<mgrwt>
<rscale>  2 0.12899659E+04</rscale>
<asrwt>0</asrwt>
<pdfrwt beam="1">  1       21 0.27673855E+00 0.12909030E+04</pdfrwt>
<pdfrwt beam="2">  1       21 0.14213898E+00 0.12909030E+04</pdfrwt>
<totfact> 0.54588570E+00</totfact>
</mgrwt>
</event>
<event>
 8    1  0.5815007E-006  0.1258948E+04  0.7818608E-02  0.8564244E-01
         21   -1    0    0  501  502  0.00000000000E+00  0.00000000000E+00  0.18911044215E+04  0.18911044215E+04  0.00000000000E+00 0. -1.
         21   -1    0    0  502  503 -0.00000000000E+00 -0.00000000000E+00 -0.99647287475E+03  0.99647287475E+03  0.00000000000E+00 0. -1.
   -9000010    2    1    2    0  503  0.48390398694E+03 -0.60611218418E+03  0.10289406897E+04  0.16259360728E+04  0.99167238619E+03 0.  0.
    9000010    2    1    2  501    0 -0.48390398694E+03  0.60611218418E+03 -0.13430914290E+03  0.12616412235E+04  0.98598406809E+03 0.  0.
        -13    1    4    4    0    0 -0.20152293184E+03 -0.17227624449E+03 -0.31745325475E+03  0.41360267962E+03  0.10566000000E+00 0.  1.
          4    1    4    4  501    0 -0.28238105511E+03  0.77838842868E+03  0.18314411185E+03  0.84803854387E+03  0.00000000000E+00 0.  1.
         13    1    3    3    0    0  0.44067059788E+03 -0.20691711739E+03 -0.35654847702E+02  0.48813578913E+03  0.10566000000E+00 0. -1.
         -4    1    3    3    0  503  0.43233389068E+02 -0.39919506679E+03  0.10645955374E+04  0.11378002837E+04  0.00000000000E+00 0. -1.
<mgrwt>
<rscale>  2 0.12578272E+04</rscale>
<asrwt>0</asrwt>
<pdfrwt beam="1">  1       21 0.29093914E+00 0.12589476E+04</pdfrwt>
<pdfrwt beam="2">  1       21 0.15330352E+00 0.12589476E+04</pdfrwt>
<totfact> 0.34509719E+00</totfact>
</mgrwt>
</event>
<event>
 8    1  0.5815007E-006  0.1097203E+04  0.7818608E-02  0.8688768E-01
         21   -1    0    0  503  502  0.00000000000E+00  0.00000000000E+00  0.13449097031E+04  0.13449097031E+04  0.00000000000E+00 0. -1.
         21   -1    0    0  501  503 -0.00000000000E+00 -0.00000000000E+00 -0.10295940997E+04  0.10295940997E+04  0.00000000000E+00 0. -1.
    9000010    2    1    2  501    0  0.33148685573E+03 -0.31525330967E+03 -0.27462680651E+03  0.11287565791E+04  0.99468756259E+03 0.  0.
   -9000010    2    1    2    0  502 -0.33148685573E+03  0.31525330967E+03  0.58994240992E+03  0.12457472236E+04  0.99728928271E+03 0.  0.
        -13    1    3    3    0    0  0.59732944355E+03 -0.18407047195E+03  0.11870666500E+03  0.63621984114E+03  0.10566000000E+00 0.  1.
          4    1    3    3  501    0 -0.26584258782E+03 -0.13118283772E+03 -0.39333347151E+03  0.49253673794E+03  0.00000000000E+00 0.  1.
         13    1    4    4    0    0  0.69315155512E+02  0.23360172696E+03  0.76348084586E+03  0.80142209277E+03  0.10566000000E+00 0. -1.
         -4    1    4    4    0  502 -0.40080201124E+03  0.81651582710E+02 -0.17353843594E+03  0.44432513087E+03  0.00000000000E+00 0. -1.
<mgrwt>
<rscale>  2 0.10966113E+04</rscale>
<asrwt>0</asrwt>
<pdfrwt beam="1">  1       21 0.20690919E+00 0.10972029E+04</pdfrwt>
<pdfrwt beam="2">  1       21 0.15839909E+00 0.10972029E+04</pdfrwt>
<totfact> 0.13310513E+01</totfact>
</mgrwt>
</event>
<event>
 8    1  0.5815007E-006  0.1129767E+04  0.7818608E-02  0.8664784E-01
         21   -1    0    0  503  502  0.00000000000E+00  0.00000000000E+00  0.12613107501E+04  0.12613107501E+04  0.00000000000E+00 0. -1.
         21   -1    0    0  501  503 -0.00000000000E+00 -0.00000000000E+00 -0.99741728102E+03  0.99741728102E+03  0.00000000000E+00 0.  1.
    9000010    2    1    2  501    0 -0.45688854044E+03 -0.28704315207E+03  0.11452966823E+03  0.11191304785E+04  0.97375308654E+03 0.  0.
   -9000010    2    1    2    0  502  0.45688854044E+03  0.28704315207E+03  0.14936380087E+03  0.11395975526E+04  0.99258859926E+03 0.  0.
        -13    1    3    3    0    0 -0.18411627953E+03 -0.47491654292E+03  0.42634131698E+03  0.66423750034E+03  0.10566000000E+00 0.  1.
          4    1    3    3  501    0 -0.27277226091E+03  0.18787339085E+03 -0.31181164875E+03  0.45489297819E+03  0.00000000000E+00 0.  1.
         13    1    4    4    0    0 -0.25950164179E+03  0.26273653049E+02  0.26112198662E+03  0.36907466724E+03  0.10566000000E+00 0. -1.
         -4    1    4    4    0  502  0.71639018223E+03  0.26076949902E+03 -0.11175818574E+03  0.77052288538E+03  0.00000000000E+00 0. -1.
<mgrwt>
<rscale>  2 0.11256160E+04</rscale>
<asrwt>0</asrwt>
<pdfrwt beam="1">  1       21 0.19404781E+00 0.11297668E+04</pdfrwt>
<pdfrwt beam="2">  1       21 0.15344881E+00 0.11297668E+04</pdfrwt>
<totfact> 0.18401091E+01</totfact>
</mgrwt>
</event>
<event>
 8    1  0.5815007E-006  0.1222868E+04  0.7818608E-02  0.8596795E-01
         21   -1    0    0  503  502  0.00000000000E+00  0.00000000000E+00  0.11834040320E+04  0.11834040320E+04  0.00000000000E+00 0. -1.
         21   -1    0    0  501  503 -0.00000000000E+00 -0.00000000000E+00 -0.12586631742E+04  0.12586631742E+04  0.00000000000E+00 0. -1.
    9000010    2    1    2  501    0  0.59318089463E+03 -0.24131049122E+03  0.16468426918E+03  0.12339068237E+04  0.10417825177E+04 0.  0.
   -9000010    2    1    2    0  502 -0.59318089463E+03  0.24131049122E+03 -0.23994341130E+03  0.12081603825E+04  0.99598410744E+03 0.  0.
        -13    1    3    3    0    0  0.23312191603E+02  0.28840670376E+03  0.32959127041E+03  0.43857986929E+03  0.10566000000E+00 0.  1.
          4    1    3    3  501    0  0.56986870302E+03 -0.52971719498E+03 -0.16490700123E+03  0.79532695440E+03  0.00000000000E+00 0.  1.
         13    1    4    4    0    0 -0.27821049373E+03  0.57056505779E+03  0.96079417869E+02  0.64200999190E+03  0.10566000000E+00 0. -1.
         -4    1    4    4    0  502 -0.31497040089E+03 -0.32925456657E+03 -0.33602282917E+03  0.56615039060E+03  0.00000000000E+00 0. -1.
<mgrwt>
<rscale>  2 0.12130568E+04</rscale>
<asrwt>0</asrwt>
<pdfrwt beam="1">  1       21 0.18206216E+00 0.12228676E+04</pdfrwt>
<pdfrwt beam="2">  1       21 0.19364049E+00 0.12228676E+04</pdfrwt>
<totfact> 0.10414216E+01</totfact>
</mgrwt>
</event>
<event>
 8    1  0.5815007E-006  0.1010653E+04  0.7818608E-02  0.8766067E-01
         21   -1    0    0  501  502  0.00000000000E+00  0.00000000000E+00  0.16420907304E+04  0.16420907304E+04  0.00000000000E+00 0. -1.
         21   -1    0    0  502  503 -0.00000000000E+00 -0.00000000000E+00 -0.62225415248E+03  0.62225415248E+03  0.00000000000E+00 0. -1.
   -9000010    2    1    2    0  503 -0.19593603424E+02 -0.29848291510E+03  0.60203062957E+03  0.11763761528E+04  0.96537247428E+03 0.  0.
    9000010    2    1    2  501    0  0.19593603424E+02  0.29848291510E+03  0.41780594835E+03  0.10879687301E+04  0.95897767816E+03 0.  0.
        -13    1    4    4    0    0  0.15761688545E+03 -0.30197433904E+03  0.31378404497E+03  0.46313283415E+03  0.10566000000E+00 0.  1.
          4    1    4    4  501    0 -0.13802328203E+03  0.60045725414E+03  0.10402190338E+03  0.62483589591E+03  0.00000000000E+00 0.  1.
         13    1    3    3    0    0 -0.32999936312E+03 -0.85960613196E+02  0.70774592949E+03  0.78561639402E+03  0.10566000000E+00 0. -1.
         -4    1    3    3    0  503  0.31040575970E+03 -0.21252230190E+03 -0.10571529992E+03  0.39075975880E+03  0.00000000000E+00 0. -1.
<mgrwt>
<rscale>  2 0.10091231E+04</rscale>
<asrwt>0</asrwt>
<pdfrwt beam="1">  1       21 0.25262934E+00 0.10106532E+04</pdfrwt>
<pdfrwt beam="2">  1       21 0.95731409E-01 0.10106532E+04</pdfrwt>
<totfact> 0.25902824E+01</totfact>
</mgrwt>
</event>
<event>
 8    1  0.5815007E-006  0.1167995E+04  0.7818608E-02  0.8651779E-01
         21   -1    0    0  501  502  0.00000000000E+00  0.00000000000E+00  0.98564830598E+03  0.98564830598E+03  0.00000000000E+00 0.  1.
         21   -1    0    0  502  503 -0.00000000000E+00 -0.00000000000E+00 -0.12702371489E+04  0.12702371489E+04  0.00000000000E+00 0.  1.
   -9000010    2    1    2    0  503 -0.45078427580E+03 -0.40817541365E+03 -0.19816681328E+03  0.10846979155E+04  0.87606269769E+03 0.  0.
    9000010    2    1    2  501    0  0.45078427580E+03  0.40817541365E+03 -0.86422029597E+02  0.11711875394E+04  0.99719499278E+03 0.  0.
        -13    1    4    4    0    0  0.17639366471E+03 -0.24770315421E+03  0.24142572210E+03  0.38827563406E+03  0.10566000000E+00 0.  1.
          4    1    4    4  501    0  0.27439061109E+03  0.65587856785E+03 -0.32784775170E+03  0.78291190533E+03  0.00000000000E+00 0.  1.
         13    1    3    3    0    0 -0.40221121257E+03 -0.15039522745E+03  0.29853263260E+03  0.52298597290E+03  0.10566000000E+00 0. -1.
         -4    1    3    3    0  503 -0.48573063233E+02 -0.25778018619E+03 -0.49669944588E+03  0.56171194255E+03  0.00000000000E+00 0. -1.
<mgrwt>
<rscale>  2 0.11417342E+04</rscale>
<asrwt>0</asrwt>
<pdfrwt beam="1">  1       21 0.15163820E+00 0.11679946E+04</pdfrwt>
<pdfrwt beam="2">  1       21 0.19542110E+00 0.11679946E+04</pdfrwt>
<totfact> 0.18475555E+01</totfact>
</mgrwt>
</event>
<event>
 8    1  0.5815007E-006  0.1057176E+04  0.7818608E-02  0.8726289E-01
         21   -1    0    0  501  502  0.00000000000E+00  0.00000000000E+00  0.70210678205E+03  0.70210678205E+03  0.00000000000E+00 0.  1.
         21   -1    0    0  502  503 -0.00000000000E+00 -0.00000000000E+00 -0.16836895952E+04  0.16836895952E+04  0.00000000000E+00 0.  1.
   -9000010    2    1    2    0  503  0.37912152183E+01 -0.27196935505E+03 -0.80819436421E+03  0.13307134684E+04  0.10215862672E+04 0.  0.
    9000010    2    1    2  501    0 -0.37912152183E+01  0.27196935505E+03 -0.17338844892E+03  0.10550829088E+04  0.10045669151E+04 0.  0.
        -13    1    4    4    0    0 -0.43631422500E+03  0.39248534511E+03 -0.47596729522E+02  0.58879564272E+03  0.10566000000E+00 0.  1.
          4    1    4    4  501    0  0.43252300978E+03 -0.12051599006E+03 -0.12579171940E+03  0.46628726609E+03  0.00000000000E+00 0.  1.
         13    1    3    3    0    0 -0.33148546221E+03  0.11042595282E+03  0.29597863151E+02  0.35064590028E+03  0.10566000000E+00 0. -1.
         -4    1    3    3    0  503  0.33527667743E+03 -0.38239530787E+03 -0.83779222736E+03  0.98006756814E+03  0.00000000000E+00 0. -1.
<mgrwt>
<rscale>  2 0.10530421E+04</rscale>
<asrwt>0</asrwt>
<pdfrwt beam="1">  1       21 0.10801643E+00 0.10571756E+04</pdfrwt>
<pdfrwt beam="2">  1       21 0.25902917E+00 0.10571756E+04</pdfrwt>
<totfact> 0.16769175E+01</totfact>
</mgrwt>
</event>
<event>
 8    1  0.5815007E-006  0.1257344E+04  0.7818608E-02  0.8571996E-01
         21   -1    0    0  501  502  0.00000000000E+00  0.00000000000E+00  0.11665713336E+04  0.11665713336E+04  0.00000000000E+00 0.  1.
         21   -1    0    0  502  503 -0.00000000000E+00 -0.00000000000E+00 -0.13363198735E+04  0.13363198735E+04  0.00000000000E+00 0.  1.
   -9000010    2    1    2    0  503  0.64867183780E+03  0.25765442647E+03  0.84499424330E+02  0.12601800578E+04  0.10458263090E+04 0.  0.
    9000010    2    1    2  501    0 -0.64867183780E+03 -0.25765442647E+03 -0.25424796421E+03  0.12427111493E+04  0.99625700325E+03 0.  0.
        -13    1    4    4    0    0 -0.27554472369E+03 -0.60842188404E+03  0.67068954200E+01  0.66794242068E+03  0.10566000000E+00 0.  1.
          4    1    4    4  501    0 -0.37312711411E+03  0.35076745757E+03 -0.26095485963E+03  0.57476872857E+03  0.00000000000E+00 0.  1.
         13    1    3    3    0    0  0.20326278027E+03  0.10154878723E+03 -0.47598974692E+03  0.52744114778E+03  0.10566000000E+00 0. -1.
         -4    1    3    3    0  503  0.44540905753E+03  0.15610563924E+03  0.56048917125E+03  0.73273890999E+03  0.00000000000E+00 0. -1.
<mgrwt>
<rscale>  2 0.12469868E+04</rscale>
<asrwt>0</asrwt>
<pdfrwt beam="1">  1       21 0.17947251E+00 0.12573439E+04</pdfrwt>
<pdfrwt beam="2">  1       21 0.20558767E+00 0.12573439E+04</pdfrwt>
<totfact> 0.87540283E+00</totfact>
</mgrwt>
</event>
<event>
 8    1  0.5815007E-006  0.1042169E+04  0.7818608E-02  0.8739379E-01
         21   -1    0    0  503  502  0.00000000000E+00  0.00000000000E+00  0.64182680034E+03  0.64182680034E+03  0.00000000000E+00 0.  1.
         21   -1    0    0  501  503 -0.00000000000E+00 -0.00000000000E+00 -0.18142643105E+04  0.18142643105E+04  0.00000000000E+00 0.  1.
    9000010    2    1    2  501    0 -0.27436529414E+03 -0.22016944597E+01 -0.93935539432E+03  0.14030341247E+04  0.10054029223E+04 0.  0.
   -9000010    2    1    2    0  502  0.27436529414E+03  0.22016944597E+01 -0.23308211587E+03  0.10530569861E+04  0.98960627584E+03 0.  0.
        -13    1    3    3    0    0 -0.49413066117E+03 -0.19313181073E+03 -0.13474445660E+03  0.54737654898E+03  0.10566000000E+00 0.  1.
          4    1    3    3  501    0  0.21976536703E+03  0.19093011627E+03 -0.80461093772E+03  0.85565757575E+03  0.00000000000E+00 0.  1.
         13    1    4    4    0    0  0.45871339951E+03 -0.15363368955E+03 -0.49825867866E+03  0.69446599304E+03  0.10566000000E+00 0. -1.
         -4    1    4    4    0  502 -0.18434810537E+03  0.15583538401E+03  0.26517656280E+03  0.35859099308E+03  0.00000000000E+00 0. -1.
<mgrwt>
<rscale>  2 0.10383402E+04</rscale>
<asrwt>0</asrwt>
<pdfrwt beam="1">  1       21 0.98742586E-01 0.10421690E+04</pdfrwt>
<pdfrwt beam="2">  1       21 0.27911758E+00 0.10421690E+04</pdfrwt>
<totfact> 0.15319564E+01</totfact>
</mgrwt>
</event>
<event>
 8    1  0.5815007E-006  0.1007980E+04  0.7818608E-02  0.8771900E-01
         21   -1    0    0  503  502  0.00000000000E+00  0.00000000000E+00  0.14830598724E+04  0.14830598724E+04  0.00000000000E+00 0.  1.
         21   -1    0    0  501  503 -0.00000000000E+00 -0.00000000000E+00 -0.67157553006E+03  0.67157553006E+03  0.00000000000E+00 0.  1.
    9000010    2    1    2  501    0 -0.97782808272E+02  0.21309775670E+02  0.38269882135E+03  0.10592450210E+04  0.98261184733E+03 0.  0.
   -9000010    2    1    2    0  502  0.97782808272E+02 -0.21309775670E+02  0.42878552101E+03  0.10953903815E+04  0.10029992426E+04 0.  0.
        -13    1    3    3    0    0 -0.14097118838E+02  0.11081462471E+03  0.70533391104E+03  0.71412502199E+03  0.10566000000E+00 0.  1.
          4    1    3    3  501    0 -0.83685689434E+02 -0.89504849041E+02 -0.32263508969E+03  0.34511999901E+03  0.00000000000E+00 0.  1.
         13    1    4    4    0    0  0.32031000066E+02 -0.16741995839E+03 -0.30225018326E+03  0.34700232258E+03  0.10566000000E+00 0. -1.
         -4    1    4    4    0  502  0.65751808206E+02  0.14611018272E+03  0.73103570428E+03  0.74838805890E+03  0.00000000000E+00 0. -1.
<mgrwt>
<rscale>  2 0.10028698E+04</rscale>
<asrwt>0</asrwt>
<pdfrwt beam="1">  1       21 0.22816306E+00 0.10079797E+04</pdfrwt>
<pdfrwt beam="2">  1       21 0.10331931E+00 0.10079797E+04</pdfrwt>
<totfact> 0.32124189E+01</totfact>
</mgrwt>
</event>
<event>
 8    1  0.5815007E-006  0.1048427E+04  0.7818608E-02  0.8736884E-01
         21   -1    0    0  501  502  0.00000000000E+00  0.00000000000E+00  0.99291997401E+03  0.99291997401E+03  0.00000000000E+00 0. -1.
         21   -1    0    0  502  503 -0.00000000000E+00 -0.00000000000E+00 -0.13260803658E+04  0.13260803658E+04  0.00000000000E+00 0. -1.
   -9000010    2    1    2    0  503 -0.99072608099E+02  0.36790118369E+03 -0.67123857059E+03  0.12448940573E+04  0.97674629898E+03 0.  0.
    9000010    2    1    2  501    0  0.99072608099E+02 -0.36790118369E+03  0.33807817882E+03  0.10741062825E+04  0.94564305555E+03 0.  0.
        -13    1    4    4    0    0 -0.12371166788E+03 -0.12000049921E+03 -0.30469282522E+03  0.35006060259E+03  0.10566000000E+00 0.  1.
          4    1    4    4  501    0  0.22278427598E+03 -0.24790068448E+03  0.64277100404E+03  0.72404567993E+03  0.00000000000E+00 0.  1.
         13    1    3    3    0    0  0.13877247487E+03  0.36067231656E+03 -0.85890642559E+03  0.94183999640E+03  0.10566000000E+00 0. -1.
         -4    1    3    3    0  503 -0.23784508297E+03  0.72288671245E+01  0.18766785501E+03  0.30305406088E+03  0.00000000000E+00 0. -1.
<mgrwt>
<rscale>  2 0.10411229E+04</rscale>
<asrwt>0</asrwt>
<pdfrwt beam="1">  1       21 0.15275692E+00 0.10484274E+04</pdfrwt>
<pdfrwt beam="2">  1       21 0.20401236E+00 0.10484274E+04</pdfrwt>
<totfact> 0.15875737E+01</totfact>
</mgrwt>
</event>
<event>
 8    1  0.5815007E-006  0.1297900E+04  0.7818608E-02  0.8537110E-01
         21   -1    0    0  501  502  0.00000000000E+00  0.00000000000E+00  0.10874179623E+04  0.10874179623E+04  0.00000000000E+00 0.  1.
         21   -1    0    0  502  503 -0.00000000000E+00 -0.00000000000E+00 -0.16254134247E+04  0.16254134247E+04  0.00000000000E+00 0.  1.
   -9000010    2    1    2    0  503 -0.64376545130E+03  0.52024278839E+03 -0.57430024694E+03  0.14192830359E+04  0.99972848680E+03 0.  0.
    9000010    2    1    2  501    0  0.64376545130E+03 -0.52024278839E+03  0.36304784498E+02  0.12935483510E+04  0.99340967578E+03 0.  0.
        -13    1    4    4    0    0  0.17923929690E+03 -0.75092653660E+03  0.60049049245E+02  0.77435346477E+03  0.10566000000E+00 0.  1.
          4    1    4    4  501    0  0.46452615440E+03  0.23068374821E+03 -0.23744264746E+02  0.51919488626E+03  0.00000000000E+00 0.  1.
         13    1    3    3    0    0  0.17672101480E+03  0.31160014679E+03  0.57646052257E+02  0.36283335990E+03  0.10566000000E+00 0. -1.
         -4    1    3    3    0  503 -0.82048646610E+03  0.20864264160E+03 -0.63194629920E+03  0.10564496760E+04  0.00000000000E+00 0. -1.
<mgrwt>
<rscale>  2 0.12966827E+04</rscale>
<asrwt>0</asrwt>
<pdfrwt beam="1">  1       21 0.16729507E+00 0.12978997E+04</pdfrwt>
<pdfrwt beam="2">  1       21 0.25006360E+00 0.12978997E+04</pdfrwt>
<totfact> 0.50941268E+00</totfact>
</mgrwt>
</event>
<event>
 8    1  0.5815007E-006  0.1237343E+04  0.7818608E-02  0.8598263E-01
         21   -1    0    0  503  502  0.00000000000E+00  0.00000000000E+00  0.98779679330E+03  0.98779679330E+03  0.00000000000E+00 0. -1.
         21   -1    0    0  501  503 -0.00000000000E+00 -0.00000000000E+00 -0.14268759668E+04  0.14268759668E+04  0.00000000000E+00 0. -1.
    9000010    2    1    2  501    0 -0.44870798076E+03 -0.34650364381E+03 -0.16766987929E+03  0.11479127723E+04  0.98396489628E+03 0.  0.
   -9000010    2    1    2    0  502  0.44870798076E+03  0.34650364381E+03 -0.27140929426E+03  0.12667599879E+04  0.10998246382E+04 0.  0.
        -13    1    3    3    0    0 -0.55547613945E+03 -0.13176753005E+03 -0.48573555807E+03  0.74957018819E+03  0.10566000000E+00 0.  1.
          4    1    3    3  501    0  0.10676815869E+03 -0.21473611376E+03  0.31806567878E+03  0.39834258407E+03  0.00000000000E+00 0.  1.
         13    1    4    4    0    0 -0.95529396885E+02 -0.15776093064E+03  0.28492496685E+03  0.33940628280E+03  0.10566000000E+00 0. -1.
         -4    1    4    4    0  502  0.54423737765E+03  0.50426457445E+03 -0.55633426110E+03  0.92735370510E+03  0.00000000000E+00 0. -1.
<mgrwt>
<rscale>  2 0.12110835E+04</rscale>
<asrwt>0</asrwt>
<pdfrwt beam="1">  1       21 0.15196874E+00 0.12373431E+04</pdfrwt>
<pdfrwt beam="2">  1       21 0.21951938E+00 0.12373431E+04</pdfrwt>
<totfact> 0.11795389E+01</totfact>
</mgrwt>
</event>
<event>
 8    1  0.5815007E-006  0.1100148E+04  0.7818608E-02  0.8685905E-01
         21   -1    0    0  501  502  0.00000000000E+00  0.00000000000E+00  0.13620601701E+04  0.13620601701E+04  0.00000000000E+00 0.  1.
         21   -1    0    0  502  503 -0.00000000000E+00 -0.00000000000E+00 -0.95407014674E+03  0.95407014674E+03  0.00000000000E+00 0.  1.
   -9000010    2    1    2    0  503  0.42529520188E+03  0.19991782180E+03  0.50823005779E+03  0.12114248131E+04  0.99418767941E+03 0.  0.
    9000010    2    1    2  501    0 -0.42529520188E+03 -0.19991782180E+03 -0.10024003445E+03  0.11047055037E+04  0.99472762165E+03 0.  0.
        -13    1    4    4    0    0  0.16370314239E+03 -0.35902601996E+03  0.17952996848E+03  0.43350827280E+03  0.10566000000E+00 0.  1.
          4    1    4    4  501    0 -0.58899834428E+03  0.15910819817E+03 -0.27977000293E+03  0.67119723094E+03  0.00000000000E+00 0.  1.
         13    1    3    3    0    0  0.36157406954E+03  0.48885105201E+03  0.64417005871E+03  0.88581388255E+03  0.10566000000E+00 0. -1.
         -4    1    3    3    0  503  0.63721132340E+02 -0.28893323021E+03 -0.13594000092E+03  0.32561093053E+03  0.00000000000E+00 0. -1.
<mgrwt>
<rscale>  2 0.11000262E+04</rscale>
<asrwt>0</asrwt>
<pdfrwt beam="1">  1       21 0.20954772E+00 0.11001483E+04</pdfrwt>
<pdfrwt beam="2">  1       21 0.14678002E+00 0.11001483E+04</pdfrwt>
<totfact> 0.16085804E+01</totfact>
</mgrwt>
</event>
<event>
 8    1  0.5815007E-006  0.1083982E+04  0.7818608E-02  0.8738384E-01
         21   -1    0    0  503  502  0.00000000000E+00  0.00000000000E+00  0.66863724052E+03  0.66863724052E+03  0.00000000000E+00 0. -1.
         21   -1    0    0  501  503 -0.00000000000E+00 -0.00000000000E+00 -0.15065865429E+04  0.15065865429E+04  0.00000000000E+00 0. -1.
    9000010    2    1    2  501    0  0.20075862804E+03  0.38829192092E+03 -0.47352130583E+03  0.10316222271E+04  0.80557268435E+03 0.  0.
   -9000010    2    1    2    0  502 -0.20075862804E+03 -0.38829192092E+03 -0.36442799657E+03  0.11436015564E+04  0.99193856283E+03 0.  0.
        -13    1    3    3    0    0  0.29173650422E+03  0.19655090765E+03  0.14290093247E+03  0.37968820743E+03  0.10566000000E+00 0.  1.
          4    1    3    3  501    0 -0.90977876179E+02  0.19174101326E+03 -0.61642223830E+03  0.65193401966E+03  0.00000000000E+00 0.  1.
         13    1    4    4    0    0 -0.25899759723E+01 -0.70406623878E+03 -0.17529966103E+03  0.72556595764E+03  0.10566000000E+00 0. -1.
         -4    1    4    4    0  502 -0.19816865207E+03  0.31577431787E+03 -0.18912833554E+03  0.41803559871E+03  0.00000000000E+00 0. -1.
<mgrwt>
<rscale>  2 0.10394482E+04</rscale>
<asrwt>0</asrwt>
<pdfrwt beam="1">  1       21 0.10286727E+00 0.10839819E+04</pdfrwt>
<pdfrwt beam="2">  1       21 0.23178254E+00 0.10839819E+04</pdfrwt>
<totfact> 0.30046833E+01</totfact>
</mgrwt>
</event>
<event>
 8    1  0.5815007E-006  0.1043203E+04  0.7818608E-02  0.8774120E-01
         21   -1    0    0  503  502  0.00000000000E+00  0.00000000000E+00  0.48886597544E+03  0.48886597544E+03  0.00000000000E+00 0. -1.
         21   -1    0    0  501  503 -0.00000000000E+00 -0.00000000000E+00 -0.22786113910E+04  0.22786113910E+04  0.00000000000E+00 0. -1.
    9000010    2    1    2  501    0  0.21839989508E+03  0.28729689622E+03 -0.39205378837E+03  0.11144407919E+04  0.97879215609E+03 0.  0.
   -9000010    2    1    2    0  502 -0.21839989508E+03 -0.28729689622E+03 -0.13976916272E+04  0.16530365746E+04  0.80545019180E+03 0.  0.
        -13    1    3    3    0    0  0.52472408749E+03  0.45433186917E+03 -0.25025177904E+03  0.73782028937E+03  0.10566000000E+00 0.  1.
          4    1    3    3  501    0 -0.30632419241E+03 -0.16703497295E+03 -0.14180200933E+03  0.37662050248E+03  0.00000000000E+00 0.  1.
         13    1    4    4    0    0 -0.47064979669E+03 -0.38191677466E+03 -0.86673673121E+03  0.10576408777E+04  0.10566000000E+00 0. -1.
         -4    1    4    4    0  502  0.25224990161E+03  0.94619878440E+02 -0.53095489597E+03  0.59539569684E+03  0.00000000000E+00 0. -1.
<mgrwt>
<rscale>  2 0.10005019E+04</rscale>
<asrwt>0</asrwt>
<pdfrwt beam="1">  1       21 0.75210150E-01 0.10432028E+04</pdfrwt>
<pdfrwt beam="2">  1       21 0.35055560E+00 0.10432028E+04</pdfrwt>
<totfact> 0.95127197E+00</totfact>
</mgrwt>
</event>
<event>
 8    1  0.5815007E-006  0.1028920E+04  0.7818608E-02  0.8752796E-01
         21   -1    0    0  503  502  0.00000000000E+00  0.00000000000E+00  0.80189439421E+03  0.80189439421E+03  0.00000000000E+00 0.  1.
         21   -1    0    0  501  503 -0.00000000000E+00 -0.00000000000E+00 -0.12935536255E+04  0.12935536255E+04  0.00000000000E+00 0.  1.
    9000010    2    1    2  501    0  0.86283133178E+02 -0.16857712254E+03 -0.26693263947E+03  0.10422724468E+04  0.98955333060E+03 0.  0.
   -9000010    2    1    2    0  502 -0.86283133178E+02  0.16857712254E+03 -0.22472659182E+03  0.10531755729E+04  0.10113425339E+04 0.  0.
        -13    1    3    3    0    0  0.17074825624E+03 -0.47278931419E+03  0.14508688301E+03  0.52319682473E+03  0.10566000000E+00 0.  1.
          4    1    3    3  501    0 -0.84465123061E+02  0.30421219165E+03 -0.41201952248E+03  0.51907562211E+03  0.00000000000E+00 0.  1.
         13    1    4    4    0    0 -0.14148724928E+03 -0.10500079924E+02 -0.60918015139E+03  0.62548330226E+03  0.10566000000E+00 0. -1.
         -4    1    4    4    0  502  0.55204116106E+02  0.17907720246E+03  0.38445355958E+03  0.42769227062E+03  0.00000000000E+00 0. -1.
<mgrwt>
<rscale>  2 0.10235257E+04</rscale>
<asrwt>0</asrwt>
<pdfrwt beam="1">  1       21 0.12336837E+00 0.10289202E+04</pdfrwt>
<pdfrwt beam="2">  1       21 0.19900825E+00 0.10289202E+04</pdfrwt>
<totfact> 0.32833767E+01</totfact>
</mgrwt>
</event>
<event>
 8    1  0.5815007E-006  0.1055291E+04  0.7818608E-02  0.8734214E-01
         21   -1    0    0  503  502  0.00000000000E+00  0.00000000000E+00  0.11182809964E+04  0.11182809964E+04  0.00000000000E+00 0. -1.
         21   -1    0    0  501  503 -0.00000000000E+00 -0.00000000000E+00 -0.95892121714E+03  0.95892121714E+03  0.00000000000E+00 0. -1.
    9000010    2    1    2  501    0  0.26238403612E+03 -0.59744010712E+02  0.12862643333E+02  0.10553692412E+04  0.10204038702E+04 0.  0.
   -9000010    2    1    2    0  502 -0.26238403612E+03  0.59744010712E+02  0.14649713595E+03  0.10218329724E+04  0.97481612798E+03 0.  0.
        -13    1    3    3    0    0  0.60247040862E+01  0.78216054220E+02  0.49010320868E+03  0.49634183233E+03  0.10566000000E+00 0.  1.
          4    1    3    3  501    0  0.25635933204E+03 -0.13796006493E+03 -0.47724056535E+03  0.55902740885E+03  0.00000000000E+00 0.  1.
         13    1    4    4    0    0 -0.37581631803E+03  0.43262308003E+03  0.23956964099E+03  0.62112338413E+03  0.10566000000E+00 0. -1.
         -4    1    4    4    0  502  0.11343228190E+03 -0.37287906932E+03 -0.93072505039E+02  0.40070958824E+03  0.00000000000E+00 0. -1.
<mgrwt>
<rscale>  2 0.10441110E+04</rscale>
<asrwt>0</asrwt>
<pdfrwt beam="1">  1       21 0.17204323E+00 0.10552909E+04</pdfrwt>
<pdfrwt beam="2">  1       21 0.14752634E+00 0.10552909E+04</pdfrwt>
<totfact> 0.31850820E+01</totfact>
</mgrwt>
</event>
<event>
 8    1  0.5815007E-006  0.1275894E+04  0.7818608E-02  0.8565259E-01
         21   -1    0    0  501  502  0.00000000000E+00  0.00000000000E+00  0.26143794919E+04  0.26143794919E+04  0.00000000000E+00 0. -1.
         21   -1    0    0  502  503 -0.00000000000E+00 -0.00000000000E+00 -0.60291312154E+03  0.60291312154E+03  0.00000000000E+00 0. -1.
   -9000010    2    1    2    0  503  0.78851499075E+03  0.11484811549E+03  0.13047872240E+04  0.18249312132E+04  0.99647290610E+03 0.  0.
    9000010    2    1    2  501    0 -0.78851499075E+03 -0.11484811549E+03  0.70667914632E+03  0.13923614002E+04  0.89684383968E+03 0.  0.
        -13    1    4    4    0    0 -0.55430833357E+03 -0.25148430164E+03 -0.27908252770E+02  0.60932828949E+03  0.10566000000E+00 0.  1.
          4    1    4    4  501    0 -0.23420665718E+03  0.13663618615E+03  0.73458739909E+03  0.78303311075E+03  0.00000000000E+00 0.  1.
         13    1    3    3    0    0  0.23935323823E+03  0.48293804424E+03  0.90202888878E+03  0.10507974375E+04  0.10566000000E+00 0. -1.
         -4    1    3    3    0  503  0.54916175252E+03 -0.36808992876E+03  0.40275833522E+03  0.77413377569E+03  0.00000000000E+00 0. -1.
<mgrwt>
<rscale>  2 0.12564025E+04</rscale>
<asrwt>0</asrwt>
<pdfrwt beam="1">  1       21 0.40221222E+00 0.12758935E+04</pdfrwt>
<pdfrwt beam="2">  1       21 0.92755867E-01 0.12758935E+04</pdfrwt>
<totfact> 0.23388829E+00</totfact>
</mgrwt>
</event>
<event>
 8    1  0.5815007E-006  0.1035318E+04  0.7818608E-02  0.8744246E-01
         21   -1    0    0  501  502  0.00000000000E+00  0.00000000000E+00  0.53348208861E+03  0.53348208861E+03  0.00000000000E+00 0. -1.
         21   -1    0    0  502  503 -0.00000000000E+00 -0.00000000000E+00 -0.19913293658E+04  0.19913293658E+04  0.00000000000E+00 0. -1.
   -9000010    2    1    2    0  503  0.32249181201E+02  0.25961200299E+03 -0.71247885326E+03  0.12567856221E+04  0.10017213094E+04 0.  0.
    9000010    2    1    2  501    0 -0.32249181201E+02 -0.25961200299E+03 -0.74536842389E+03  0.12680258323E+04  0.99190575273E+03 0.  0.
        -13    1    4    4    0    0  0.24516328275E+03  0.16434989726E+00 -0.84109843199E+03  0.87610024865E+03  0.10566000000E+00 0.  1.
          4    1    4    4  501    0 -0.27741246395E+03 -0.25977635289E+03  0.95730008104E+02  0.39192558366E+03  0.00000000000E+00 0.  1.
         13    1    3    3    0    0  0.31883009727E+03  0.32747981623E+03  0.29996052851E+02  0.45803431675E+03  0.10566000000E+00 0. -1.
         -4    1    3    3    0  503 -0.28658091607E+03 -0.67867813236E+02 -0.74247490612E+03  0.79875130531E+03  0.00000000000E+00 0. -1.
<mgrwt>
<rscale>  2 0.10329366E+04</rscale>
<asrwt>0</asrwt>
<pdfrwt beam="1">  1       21 0.82074167E-01 0.10353183E+04</pdfrwt>
<pdfrwt beam="2">  1       21 0.30635837E+00 0.10353183E+04</pdfrwt>
<totfact> 0.15749879E+01</totfact>
</mgrwt>
</event>
<event>
 8    1  0.5815007E-006  0.1042185E+04  0.7818608E-02  0.8736697E-01
         21   -1    0    0  501  502  0.00000000000E+00  0.00000000000E+00  0.15338053442E+04  0.15338053442E+04  0.00000000000E+00 0.  1.
         21   -1    0    0  502  503 -0.00000000000E+00 -0.00000000000E+00 -0.74389311243E+03  0.74389311243E+03  0.00000000000E+00 0.  1.
   -9000010    2    1    2    0  503 -0.25378075357E+03 -0.17800601734E+03  0.13672646454E+03  0.10477388413E+04  0.99144931305E+03 0.  0.
    9000010    2    1    2  501    0  0.25378075357E+03  0.17800601734E+03  0.65318576723E+03  0.12299596153E+04  0.99501668115E+03 0.  0.
        -13    1    4    4    0    0 -0.16257600874E+03  0.39011582189E+03  0.63442601787E+03  0.76231076106E+03  0.10566000000E+00 0.  1.
          4    1    4    4  501    0  0.41635676231E+03 -0.21210980456E+03  0.18759749358E+02  0.46764885428E+03  0.00000000000E+00 0.  1.
         13    1    3    3    0    0 -0.29619286573E+03 -0.21024223852E+03  0.53459725818E+03  0.64631745465E+03  0.10566000000E+00 0. -1.
         -4    1    3    3    0  503  0.42412112159E+02  0.32236221187E+02 -0.39787079364E+03  0.40142138664E+03  0.00000000000E+00 0. -1.
<mgrwt>
<rscale>  2 0.10413323E+04</rscale>
<asrwt>0</asrwt>
<pdfrwt beam="1">  1       21 0.23597005E+00 0.10421847E+04</pdfrwt>
<pdfrwt beam="2">  1       21 0.11444509E+00 0.10421847E+04</pdfrwt>
<totfact> 0.21174730E+01</totfact>
</mgrwt>
</event>
<event>
 8    1  0.5815007E-006  0.1002609E+04  0.7818608E-02  0.8774476E-01
         21   -1    0    0  501  502  0.00000000000E+00  0.00000000000E+00  0.88944902391E+03  0.88944902391E+03  0.00000000000E+00 0. -1.
         21   -1    0    0  502  503 -0.00000000000E+00 -0.00000000000E+00 -0.11319019889E+04  0.11319019889E+04  0.00000000000E+00 0. -1.
   -9000010    2    1    2    0  503 -0.83094194045E+02  0.14325690766E+02 -0.22962157684E+03  0.10285676342E+04  0.99905727521E+03 0.  0.
    9000010    2    1    2  501    0  0.83094194045E+02 -0.14325690766E+02 -0.12831388158E+02  0.99278337859E+03  0.98911289638E+03 0.  0.
        -13    1    4    4    0    0 -0.11393559984E+03 -0.22889033358E+03 -0.42026115542E+03  0.49192637217E+03  0.10566000000E+00 0.  1.
          4    1    4    4  501    0  0.19702979389E+03  0.21456464282E+03  0.40742976726E+03  0.50085700642E+03  0.00000000000E+00 0.  1.
         13    1    3    3    0    0 -0.26936108677E+02 -0.10220484162E+03  0.38563627299E+03  0.39985838720E+03  0.10566000000E+00 0. -1.
         -4    1    3    3    0  503 -0.56158085368E+02  0.11653053238E+03 -0.61525784984E+03  0.62870924704E+03  0.00000000000E+00 0. -1.
<mgrwt>
<rscale>  2 0.10001228E+04</rscale>
<asrwt>0</asrwt>
<pdfrwt beam="1">  1       21 0.13683831E+00 0.10026093E+04</pdfrwt>
<pdfrwt beam="2">  1       21 0.17413877E+00 0.10026093E+04</pdfrwt>
<totfact> 0.38798208E+01</totfact>
</mgrwt>
</event>
<event>
 8    1  0.5815007E-006  0.1450702E+04  0.7818608E-02  0.8451116E-01
         21   -1    0    0  501  502  0.00000000000E+00  0.00000000000E+00  0.80112002517E+03  0.80112002517E+03  0.00000000000E+00 0. -1.
         21   -1    0    0  502  503 -0.00000000000E+00 -0.00000000000E+00 -0.30103466665E+04  0.30103466665E+04  0.00000000000E+00 0. -1.
   -9000010    2    1    2    0  503  0.92065022044E+03  0.77350693305E+02 -0.19303061899E+04  0.24146670537E+04  0.11184610120E+04 0.  0.
    9000010    2    1    2  501    0 -0.92065022044E+03 -0.77350693305E+02 -0.27892045142E+03  0.13967996379E+04  0.10097884195E+04 0.  0.
        -13    1    4    4    0    0 -0.30955371060E+03  0.44273606529E+03 -0.24620847120E+03  0.59368118187E+03  0.10566000000E+00 0.  1.
          4    1    4    4  501    0 -0.61109650984E+03 -0.52008675859E+03 -0.32711980222E+02  0.80311845605E+03  0.00000000000E+00 0.  1.
         13    1    3    3    0    0  0.95782091251E+02 -0.37460878026E+03 -0.10784778386E+04  0.11456964724E+04  0.10566000000E+00 0. -1.
         -4    1    3    3    0  503  0.82486812919E+03  0.45195947357E+03 -0.85182835128E+03  0.12689705814E+04  0.00000000000E+00 0. -1.
<mgrwt>
<rscale>  2 0.14297434E+04</rscale>
<asrwt>0</asrwt>
<pdfrwt beam="1">  1       21 0.12324923E+00 0.14507016E+04</pdfrwt>
<pdfrwt beam="2">  1       21 0.46313026E+00 0.14507016E+04</pdfrwt>
<totfact> 0.39901700E-01</totfact>
</mgrwt>
</event>
<event>
 8    1  0.5815007E-006  0.1263830E+04  0.7818608E-02  0.8566222E-01
         21   -1    0    0  501  502  0.00000000000E+00  0.00000000000E+00  0.11800960373E+04  0.11800960373E+04  0.00000000000E+00 0. -1.
         21   -1    0    0  502  503 -0.00000000000E+00 -0.00000000000E+00 -0.13649707071E+04  0.13649707071E+04  0.00000000000E+00 0. -1.
   -9000010    2    1    2    0  503  0.72230515494E+03  0.17682971117E+03  0.14847684924E+03  0.12380126063E+04  0.97858896117E+03 0.  0.
    9000010    2    1    2  501    0 -0.72230515494E+03 -0.17682971117E+03 -0.33335151899E+03  0.13070541381E+04  0.10218971578E+04 0.  0.
        -13    1    4    4    0    0 -0.53297462330E+03 -0.59399474270E+03 -0.14205372726E+03  0.81059914633E+03  0.10566000000E+00 0.  1.
          4    1    4    4  501    0 -0.18933053164E+03  0.41716503153E+03 -0.19129779174E+03  0.49645499178E+03  0.00000000000E+00 0.  1.
         13    1    3    3    0    0  0.40730931441E+02  0.44676548420E+03  0.22330420034E+03  0.50112192498E+03  0.10566000000E+00 0. -1.
         -4    1    3    3    0  503  0.68157422350E+03 -0.26993577303E+03 -0.74827351097E+02  0.73689068129E+03  0.00000000000E+00 0. -1.
<mgrwt>
<rscale>  2 0.12550509E+04</rscale>
<asrwt>0</asrwt>
<pdfrwt beam="1">  1       21 0.18155324E+00 0.12638304E+04</pdfrwt>
<pdfrwt beam="2">  1       21 0.20999549E+00 0.12638304E+04</pdfrwt>
<totfact> 0.77737500E+00</totfact>
</mgrwt>
</event>
<event>
 8    1  0.5815007E-006  0.1015440E+04  0.7818608E-02  0.8760728E-01
         21   -1    0    0  503  502  0.00000000000E+00  0.00000000000E+00  0.11178776163E+04  0.11178776163E+04  0.00000000000E+00 0. -1.
         21   -1    0    0  501  503 -0.00000000000E+00 -0.00000000000E+00 -0.93528433394E+03  0.93528433394E+03  0.00000000000E+00 0. -1.
    9000010    2    1    2  501    0  0.14499139658E+03 -0.69534585037E+02 -0.38168762126E+02  0.10161571541E+04  0.10026270213E+04 0.  0.
   -9000010    2    1    2    0  502 -0.14499139658E+03  0.69534585037E+02  0.22076204450E+03  0.10370047961E+04  0.10003926745E+04 0.  0.
        -13    1    3    3    0    0 -0.24538006050E+03 -0.26658150440E+03  0.29434076584E+03  0.46681213585E+03  0.10566000000E+00 0.  1.
          4    1    3    3  501    0  0.39037145708E+03  0.19704691936E+03 -0.33250952796E+03  0.54934501829E+03  0.00000000000E+00 0.  1.
         13    1    4    4    0    0 -0.40155721133E+03  0.33019514864E+03 -0.12390812316E+03  0.53444388321E+03  0.10566000000E+00 0. -1.
         -4    1    4    4    0  502  0.25656581474E+03 -0.26066056360E+03  0.34467016766E+03  0.50256091291E+03  0.00000000000E+00 0. -1.
<mgrwt>
<rscale>  2 0.10148881E+04</rscale>
<asrwt>0</asrwt>
<pdfrwt beam="1">  1       21 0.17198117E+00 0.10154401E+04</pdfrwt>
<pdfrwt beam="2">  1       21 0.14388990E+00 0.10154401E+04</pdfrwt>
<totfact> 0.34704851E+01</totfact>
</mgrwt>
</event>
<event>
 8    1  0.5815007E-006  0.1128604E+04  0.7818608E-02  0.8665284E-01
         21   -1    0    0  503  502  0.00000000000E+00  0.00000000000E+00  0.10245153707E+04  0.10245153707E+04  0.00000000000E+00 0.  1.
         21   -1    0    0  501  503 -0.00000000000E+00 -0.00000000000E+00 -0.12316369789E+04  0.12316369789E+04  0.00000000000E+00 0.  1.
    9000010    2    1    2  501    0 -0.33819562948E+03 -0.38144623549E+03 -0.16812630655E+03  0.11268748480E+04  0.99080924184E+03 0.  0.
   -9000010    2    1    2    0  502  0.33819562948E+03  0.38144623549E+03 -0.38995301632E+02  0.11292775016E+04  0.10069108837E+04 0.  0.
        -13    1    3    3    0    0  0.24460036100E+03 -0.41498139557E+03  0.87521074375E+02  0.48959048693E+03  0.10566000000E+00 0.  1.
          4    1    3    3  501    0 -0.58279599048E+03  0.33535160082E+02 -0.25564738093E+03  0.63728436107E+03  0.00000000000E+00 0.  1.
         13    1    4    4    0    0  0.64227817602E+03  0.19574455654E+02 -0.10802405073E+03  0.65159314101E+03  0.10566000000E+00 0. -1.
         -4    1    4    4    0  502 -0.30408254654E+03  0.36187177984E+03  0.69028749101E+02  0.47768436059E+03  0.00000000000E+00 0. -1.
<mgrwt>
<rscale>  2 0.11250014E+04</rscale>
<asrwt>0</asrwt>
<pdfrwt beam="1">  1       21 0.15761775E+00 0.11286040E+04</pdfrwt>
<pdfrwt beam="2">  1       21 0.18948261E+00 0.11286040E+04</pdfrwt>
<totfact> 0.18395416E+01</totfact>
</mgrwt>
</event>
<event>
 8    1  0.5815007E-006  0.1250342E+04  0.7818608E-02  0.8579806E-01
         21   -1    0    0  501  502  0.00000000000E+00  0.00000000000E+00  0.94528254271E+03  0.94528254271E+03  0.00000000000E+00 0.  1.
         21   -1    0    0  502  503 -0.00000000000E+00 -0.00000000000E+00 -0.17767377129E+04  0.17767377129E+04  0.00000000000E+00 0.  1.
   -9000010    2    1    2    0  503  0.10258430433E+03 -0.65355512770E+03 -0.85893897563E+03  0.14713764531E+04  0.99474351385E+03 0.  0.
    9000010    2    1    2  501    0 -0.10258430433E+03  0.65355512770E+03  0.27483805415E+02  0.12506438026E+04  0.10609885564E+04 0.  0.
        -13    1    4    4    0    0 -0.37416065093E+03  0.63871883991E+03  0.35828272940E+03  0.82238949076E+03  0.10566000000E+00 0.  1.
          4    1    4    4  501    0  0.27157634660E+03  0.14836287790E+02 -0.33079892399E+03  0.42825431180E+03  0.00000000000E+00 0.  1.
         13    1    3    3    0    0  0.35433872421E+03 -0.76324581626E+03 -0.85079585531E+03  0.11966426810E+04  0.10566000000E+00 0. -1.
         -4    1    3    3    0  503 -0.25175441988E+03  0.10969068856E+03 -0.81431203243E+01  0.27473377203E+03  0.00000000000E+00 0. -1.
<mgrwt>
<rscale>  2 0.12361783E+04</rscale>
<asrwt>0</asrwt>
<pdfrwt beam="1">  1       21 0.14542808E+00 0.12503418E+04</pdfrwt>
<pdfrwt beam="2">  1       21 0.27334426E+00 0.12503418E+04</pdfrwt>
<totfact> 0.54297936E+00</totfact>
</mgrwt>
</event>
<event>
 8    1  0.5815007E-006  0.1378689E+04  0.7818608E-02  0.8483962E-01
         21   -1    0    0  503  502  0.00000000000E+00  0.00000000000E+00  0.12794459499E+04  0.12794459499E+04  0.00000000000E+00 0.  1.
         21   -1    0    0  501  503 -0.00000000000E+00 -0.00000000000E+00 -0.15578054343E+04  0.15578054343E+04  0.00000000000E+00 0.  1.
    9000010    2    1    2  501    0  0.88706111248E+03  0.34074749488E+03 -0.45925463290E+03  0.14531682404E+04  0.99889781482E+03 0.  0.
   -9000010    2    1    2    0  502 -0.88706111248E+03 -0.34074749488E+03  0.18089514852E+03  0.13840831438E+04  0.98993778676E+03 0.  0.
        -13    1    3    3    0    0 -0.13014935771E+03  0.29138620550E+03 -0.26848347869E+03  0.41704695846E+03  0.10566000000E+00 0.  1.
          4    1    3    3  501    0  0.10172104702E+04  0.49361289387E+02 -0.19077115421E+03  0.10361212819E+04  0.00000000000E+00 0.  1.
         13    1    4    4    0    0 -0.24520928012E+03 -0.41273780204E+03  0.47414205206E+03  0.67475238494E+03  0.10566000000E+00 0. -1.
         -4    1    4    4    0  502 -0.64185183236E+03  0.71990307159E+02 -0.29324690354E+03  0.70933075886E+03  0.00000000000E+00 0. -1.
<mgrwt>
<rscale>  2 0.13770666E+04</rscale>
<asrwt>0</asrwt>
<pdfrwt beam="1">  1       21 0.19683784E+00 0.13786889E+04</pdfrwt>
<pdfrwt beam="2">  1       21 0.23966238E+00 0.13786889E+04</pdfrwt>
<totfact> 0.34308970E+00</totfact>
</mgrwt>
</event>
<event>
 8    1  0.5815007E-006  0.1088038E+04  0.7818608E-02  0.8698453E-01
         21   -1    0    0  501  502  0.00000000000E+00  0.00000000000E+00  0.57839793796E+03  0.57839793796E+03  0.00000000000E+00 0. -1.
         21   -1    0    0  502  503 -0.00000000000E+00 -0.00000000000E+00 -0.20655267456E+04  0.20655267456E+04  0.00000000000E+00 0. -1.
   -9000010    2    1    2    0  503  0.39125865158E+03  0.15813522383E+03 -0.93212867149E+03  0.14327210397E+04  0.10028637176E+04 0.  0.
    9000010    2    1    2  501    0 -0.39125865158E+03 -0.15813522383E+03 -0.55500013612E+03  0.12112036438E+04  0.99040347042E+03 0.  0.
        -13    1    4    4    0    0 -0.22376458440E+03 -0.45702847918E+03  0.54730560055E+02  0.51180178329E+03  0.10566000000E+00 0.  1.
          4    1    4    4  501    0 -0.16749406718E+03  0.29889325535E+03 -0.60973069617E+03  0.69940186051E+03  0.00000000000E+00 0.  1.
         13    1    3    3    0    0  0.39389749900E+03  0.55754980416E+03 -0.65901800948E+03  0.94885287153E+03  0.10566000000E+00 0. -1.
         -4    1    3    3    0  503 -0.26388474152E+01 -0.39941458033E+03 -0.27311066201E+03  0.48386816820E+03  0.00000000000E+00 0. -1.
<mgrwt>
<rscale>  2 0.10851576E+04</rscale>
<asrwt>0</asrwt>
<pdfrwt beam="1">  1       21 0.88984297E-01 0.10880376E+04</pdfrwt>
<pdfrwt beam="2">  1       21 0.31777335E+00 0.10880376E+04</pdfrwt>
<totfact> 0.10552277E+01</totfact>
</mgrwt>
</event>
<event>
 8    1  0.5815007E-006  0.1226698E+04  0.7818608E-02  0.8591929E-01
         21   -1    0    0  501  502  0.00000000000E+00  0.00000000000E+00  0.14407015391E+04  0.14407015391E+04  0.00000000000E+00 0. -1.
         21   -1    0    0  502  503 -0.00000000000E+00 -0.00000000000E+00 -0.10214698034E+04  0.10214698034E+04  0.00000000000E+00 0. -1.
   -9000010    2    1    2    0  503  0.18373283738E+03 -0.68641695000E+03  0.24018814612E+03  0.12224758368E+04  0.96531385638E+03 0.  0.
    9000010    2    1    2  501    0 -0.18373283738E+03  0.68641695000E+03  0.17904358957E+03  0.12396955057E+04  0.99993117522E+03 0.  0.
        -13    1    4    4    0    0 -0.42064041293E+03 -0.65539478698E+02 -0.21290422780E+02  0.42624766688E+03  0.10566000000E+00 0.  1.
          4    1    4    4  501    0  0.23690757555E+03  0.75195642870E+03  0.20033401235E+03  0.81344783884E+03  0.00000000000E+00 0.  1.
         13    1    3    3    0    0 -0.39606653377E+03 -0.21664979160E+03  0.11449430527E+03  0.46574111744E+03  0.10566000000E+00 0. -1.
         -4    1    3    3    0  503  0.57979937115E+03 -0.46976715840E+03  0.12569384085E+03  0.75673471939E+03  0.00000000000E+00 0. -1.
<mgrwt>
<rscale>  2 0.12196246E+04</rscale>
<asrwt>0</asrwt>
<pdfrwt beam="1">  1       21 0.22164639E+00 0.12266981E+04</pdfrwt>
<pdfrwt beam="2">  1       21 0.15714920E+00 0.12266981E+04</pdfrwt>
<totfact> 0.10255398E+01</totfact>
</mgrwt>
</event>
<event>
 8    1  0.5815007E-006  0.1008954E+04  0.7818608E-02  0.8771284E-01
         21   -1    0    0  501  502  0.00000000000E+00  0.00000000000E+00  0.97699487051E+03  0.97699487051E+03  0.00000000000E+00 0.  1.
         21   -1    0    0  502  503 -0.00000000000E+00 -0.00000000000E+00 -0.10221091095E+04  0.10221091095E+04  0.00000000000E+00 0.  1.
   -9000010    2    1    2    0  503  0.14917774077E+03  0.15362121488E+02  0.24728330714E+02  0.98773601779E+03  0.97597180153E+03 0.  0.
    9000010    2    1    2  501    0 -0.14917774077E+03 -0.15362121488E+02 -0.69842569682E+02  0.10113679622E+04  0.99774604850E+03 0.  0.
        -13    1    4    4    0    0  0.40588299992E+03 -0.12369199376E+03 -0.12711145893E+03  0.44294249412E+03  0.10566000000E+00 0.  1.
          4    1    4    4  501    0 -0.55506074068E+03  0.10832987227E+03  0.57268889253E+02  0.56842546807E+03  0.00000000000E+00 0.  1.
         13    1    3    3    0    0  0.29198133869E+03  0.12134158923E+03  0.43662477683E+03  0.53909005772E+03  0.10566000000E+00 0. -1.
         -4    1    3    3    0  503 -0.14280359793E+03 -0.10597946774E+03 -0.41189644612E+03  0.44864596007E+03  0.00000000000E+00 0. -1.
<mgrwt>
<rscale>  2 0.10035281E+04</rscale>
<asrwt>0</asrwt>
<pdfrwt beam="1">  1       21 0.15030690E+00 0.10089535E+04</pdfrwt>
<pdfrwt beam="2">  1       21 0.15724756E+00 0.10089535E+04</pdfrwt>
<totfact> 0.40606399E+01</totfact>
</mgrwt>
</event>
<event>
 8    1  0.5815007E-006  0.1026735E+04  0.7818608E-02  0.8750022E-01
         21   -1    0    0  501  502  0.00000000000E+00  0.00000000000E+00  0.10156598673E+04  0.10156598673E+04  0.00000000000E+00 0.  1.
         21   -1    0    0  502  503 -0.00000000000E+00 -0.00000000000E+00 -0.10389814665E+04  0.10389814665E+04  0.00000000000E+00 0.  1.
   -9000010    2    1    2    0  503  0.22580420198E+03 -0.20657130621E+02  0.30183062384E+02  0.10271780749E+04  0.10013838054E+04 0.  0.
    9000010    2    1    2  501    0 -0.22580420198E+03  0.20657130621E+02 -0.53504661597E+02  0.10274632588E+04  0.10007016262E+04 0.  0.
        -13    1    4    4    0    0 -0.24902092729E+03 -0.22841703240E+02 -0.51016103908E+03  0.56815267543E+03  0.10566000000E+00 0.  1.
          4    1    4    4  501    0  0.23216725308E+02  0.43498833861E+02  0.45665637749E+03  0.45931058335E+03  0.00000000000E+00 0.  1.
         13    1    3    3    0    0 -0.29730205097E+03  0.28909939995E+03  0.57333220909E+02  0.41863358913E+03  0.10566000000E+00 0. -1.
         -4    1    3    3    0  503  0.52310625295E+03 -0.30975653057E+03 -0.27150158524E+02  0.60854448582E+03  0.00000000000E+00 0. -1.
<mgrwt>
<rscale>  2 0.10265682E+04</rscale>
<asrwt>0</asrwt>
<pdfrwt beam="1">  1       21 0.15625537E+00 0.10267345E+04</pdfrwt>
<pdfrwt beam="2">  1       21 0.15984330E+00 0.10267345E+04</pdfrwt>
<totfact> 0.34037747E+01</totfact>
</mgrwt>
</event>
<event>
 8    1  0.5815007E-006  0.1022567E+04  0.7818608E-02  0.8773829E-01
         21   -1    0    0  501  502  0.00000000000E+00  0.00000000000E+00  0.23427703399E+04  0.23427703399E+04  0.00000000000E+00 0. -1.
         21   -1    0    0  502  503 -0.00000000000E+00 -0.00000000000E+00 -0.47306820804E+03  0.47306820804E+03  0.00000000000E+00 0. -1.
   -9000010    2    1    2    0  503  0.18975568331E+03  0.77581797162E+02  0.45726106885E+03  0.11201479575E+04  0.10018071706E+04 0.  0.
    9000010    2    1    2  501    0 -0.18975568331E+03 -0.77581797162E+02  0.14124410630E+04  0.16956905904E+04  0.91561491208E+03 0.  0.
        -13    1    4    4    0    0 -0.35743936969E+03 -0.32310842658E+01  0.10095149594E+03  0.37143580685E+03  0.10566000000E+00 0.  1.
          4    1    4    4  501    0  0.16768368638E+03 -0.74350712896E+02  0.13114895670E+04  0.13242547835E+04  0.00000000000E+00 0.  1.
         13    1    3    3    0    0  0.54051115955E+03 -0.44878570978E+02  0.15040236390E+02  0.54257959749E+03  0.10566000000E+00 0. -1.
         -4    1    3    3    0  503 -0.35075547625E+03  0.12246036814E+03  0.44222083245E+03  0.57756836006E+03  0.00000000000E+00 0. -1.
<mgrwt>
<rscale>  2 0.10008119E+04</rscale>
<asrwt>0</asrwt>
<pdfrwt beam="1">  1       21 0.36042620E+00 0.10225672E+04</pdfrwt>
<pdfrwt beam="2">  1       21 0.72779726E-01 0.10225672E+04</pdfrwt>
<totfact> 0.88144406E+00</totfact>
</mgrwt>
</event>
<event>
 8    1  0.5815007E-006  0.1140684E+04  0.7818608E-02  0.8653904E-01
         21   -1    0    0  503  502  0.00000000000E+00  0.00000000000E+00  0.62787890194E+03  0.62787890194E+03  0.00000000000E+00 0.  1.
         21   -1    0    0  501  503 -0.00000000000E+00 -0.00000000000E+00 -0.22083700917E+04  0.22083700917E+04  0.00000000000E+00 0.  1.
    9000010    2    1    2  501    0  0.37209113677E+03  0.36953168228E+03 -0.11590299853E+04  0.16261951044E+04  0.10129928590E+04 0.  0.
   -9000010    2    1    2    0  502 -0.37209113677E+03 -0.36953168228E+03 -0.42146120444E+03  0.12100538892E+04  0.10057809850E+04 0.  0.
        -13    1    3    3    0    0  0.11588113434E+03  0.59390491247E+03 -0.11332134986E+04  0.12846494958E+04  0.10566000000E+00 0.  1.
          4    1    3    3  501    0  0.25621000243E+03 -0.22437323020E+03 -0.25816486649E+02  0.34154560860E+03  0.00000000000E+00 0.  1.
         13    1    4    4    0    0 -0.39786488355E+03 -0.29201845433E+03 -0.73540395935E+03  0.88565808178E+03  0.10566000000E+00 0. -1.
         -4    1    4    4    0  502  0.25773746779E+02 -0.77513227950E+02  0.31394275491E+03  0.32439580745E+03  0.00000000000E+00 0. -1.
<mgrwt>
<rscale>  2 0.11390807E+04</rscale>
<asrwt>0</asrwt>
<pdfrwt beam="1">  1       21 0.96596754E-01 0.11406840E+04</pdfrwt>
<pdfrwt beam="2">  1       21 0.33974924E+00 0.11406840E+04</pdfrwt>
<totfact> 0.59251837E+00</totfact>
</mgrwt>
</event>
<event>
 8    1  0.5815007E-006  0.1029271E+04  0.7818608E-02  0.8750958E-01
         21   -1    0    0  503  502  0.00000000000E+00  0.00000000000E+00  0.38935822033E+03  0.38935822033E+03  0.00000000000E+00 0.  1.
         21   -1    0    0  501  503 -0.00000000000E+00 -0.00000000000E+00 -0.27447149580E+04  0.27447149580E+04  0.00000000000E+00 0.  1.
    9000010    2    1    2  501    0  0.72794577433E+02  0.23872255079E+03 -0.93206450233E+03  0.13776111053E+04  0.98325002625E+03 0.  0.
   -9000010    2    1    2    0  502 -0.72794577433E+02 -0.23872255079E+03 -0.14232922354E+04  0.17564620731E+04  0.99855431508E+03 0.  0.
        -13    1    3    3    0    0 -0.80271802768E+02  0.54446798578E+03 -0.22955033973E+03  0.59630723582E+03  0.10566000000E+00 0.  1.
          4    1    3    3  501    0  0.15306638020E+03 -0.30574543499E+03 -0.70251416260E+03  0.78130386946E+03  0.00000000000E+00 0.  1.
         13    1    4    4    0    0  0.34723141121E+03  0.10676674110E+02 -0.11400312228E+04  0.11917864089E+04  0.10566000000E+00 0. -1.
         -4    1    4    4    0  502 -0.42002598864E+03 -0.24939922490E+03 -0.28326101262E+03  0.56467566424E+03  0.00000000000E+00 0. -1.
<mgrwt>
<rscale>  2 0.10255403E+04</rscale>
<asrwt>0</asrwt>
<pdfrwt beam="1">  1       21 0.59901269E-01 0.10292707E+04</pdfrwt>
<pdfrwt beam="2">  1       21 0.42226381E+00 0.10292707E+04</pdfrwt>
<totfact> 0.51496486E+00</totfact>
</mgrwt>
</event>
<event>
 8    1  0.5815007E-006  0.1049453E+04  0.7818608E-02  0.8762020E-01
         21   -1    0    0  501  502  0.00000000000E+00  0.00000000000E+00  0.10583619374E+04  0.10583619374E+04  0.00000000000E+00 0.  1.
         21   -1    0    0  502  503 -0.00000000000E+00 -0.00000000000E+00 -0.10072206208E+04  0.10072206208E+04  0.00000000000E+00 0.  1.
   -9000010    2    1    2    0  503 -0.20325077366E+03  0.23369153175E+03 -0.29372840474E+03  0.10897834163E+04  0.10027107807E+04 0.  0.
    9000010    2    1    2  501    0  0.20325077366E+03 -0.23369153175E+03  0.34486972137E+03  0.97579914182E+03  0.85867702394E+03 0.  0.
        -13    1    4    4    0    0 -0.29771241938E+03 -0.20904255021E+03 -0.57685095912E+01  0.36381967967E+03  0.10566000000E+00 0.  1.
          4    1    4    4  501    0  0.50096319304E+03 -0.24648981545E+02  0.35063823096E+03  0.61197946214E+03  0.00000000000E+00 0.  1.
         13    1    3    3    0    0  0.27509648414E+03 -0.22668481205E+03  0.16788365164E+02  0.35685562903E+03  0.10566000000E+00 0. -1.
         -4    1    3    3    0  503 -0.47834725780E+03  0.46037634381E+03 -0.31051676991E+03  0.73292778729E+03  0.00000000000E+00 0. -1.
<mgrwt>
<rscale>  2 0.10134891E+04</rscale>
<asrwt>0</asrwt>
<pdfrwt beam="1">  1       21 0.16282491E+00 0.10494530E+04</pdfrwt>
<pdfrwt beam="2">  1       21 0.15495702E+00 0.10494530E+04</pdfrwt>
<totfact> 0.32769557E+01</totfact>
</mgrwt>
</event>
<event>
 8    1  0.5815007E-006  0.1110213E+04  0.7818608E-02  0.8678099E-01
         21   -1    0    0  501  502  0.00000000000E+00  0.00000000000E+00  0.74019190575E+03  0.74019190575E+03  0.00000000000E+00 0.  1.
         21   -1    0    0  502  503 -0.00000000000E+00 -0.00000000000E+00 -0.18774453100E+04  0.18774453100E+04  0.00000000000E+00 0.  1.
   -9000010    2    1    2    0  503  0.35987932962E+03 -0.32551305333E+03 -0.10144339296E+04  0.15038780703E+04  0.99854953460E+03 0.  0.
    9000010    2    1    2  501    0 -0.35987932962E+03  0.32551305333E+03 -0.12281947460E+03  0.11137591454E+04  0.99493865682E+03 0.  0.
        -13    1    4    4    0    0 -0.60603142473E+03 -0.44111269567E+02  0.10179111218E+03  0.61610172337E+03  0.10566000000E+00 0.  1.
          4    1    4    4  501    0  0.24615209510E+03  0.36962432290E+03 -0.22461058678E+03  0.49765742202E+03  0.00000000000E+00 0.  1.
         13    1    3    3    0    0  0.40219762402E+03 -0.54243450881E+03 -0.26987114103E+03  0.72720600179E+03  0.10566000000E+00 0. -1.
         -4    1    3    3    0  503 -0.42318294394E+02  0.21692145548E+03 -0.74456278858E+03  0.77667206853E+03  0.00000000000E+00 0. -1.
<mgrwt>
<rscale>  2 0.11094005E+04</rscale>
<asrwt>0</asrwt>
<pdfrwt beam="1">  1       21 0.11387568E+00 0.11102131E+04</pdfrwt>
<pdfrwt beam="2">  1       21 0.28883774E+00 0.11102131E+04</pdfrwt>
<totfact> 0.87861180E+00</totfact>
</mgrwt>
</event>
<event>
 8    1  0.5815007E-006  0.1109037E+04  0.7818608E-02  0.8706875E-01
         21   -1    0    0  501  502  0.00000000000E+00  0.00000000000E+00  0.12206013559E+04  0.12206013559E+04  0.00000000000E+00 0. -1.
         21   -1    0    0  502  503 -0.00000000000E+00 -0.00000000000E+00 -0.93306658128E+03  0.93306658128E+03  0.00000000000E+00 0. -1.
   -9000010    2    1    2    0  503  0.34691002267E+03 -0.32612532985E+03 -0.84680847414E+02  0.98383526093E+03  0.85677107802E+03 0.  0.
    9000010    2    1    2  501    0 -0.34691002267E+03  0.32612532985E+03  0.37221562206E+03  0.11698326763E+04  0.10016285372E+04 0.  0.
        -13    1    4    4    0    0 -0.41661329847E+03  0.51797569957E+03 -0.84018190301E+02  0.67001830816E+03  0.10566000000E+00 0.  1.
          4    1    4    4  501    0  0.69703275799E+02 -0.19185036972E+03  0.45623381236E+03  0.49981436810E+03  0.00000000000E+00 0.  1.
         13    1    3    3    0    0  0.98093135910E+02  0.35429127886E+02  0.35054482969E+03  0.36573101482E+03  0.10566000000E+00 0. -1.
         -4    1    3    3    0  503  0.24881688676E+03 -0.36155445774E+03 -0.43522567711E+03  0.61810424611E+03  0.00000000000E+00 0. -1.
<mgrwt>
<rscale>  2 0.10753171E+04</rscale>
<asrwt>0</asrwt>
<pdfrwt beam="1">  1       21 0.18778482E+00 0.11090374E+04</pdfrwt>
<pdfrwt beam="2">  1       21 0.14354870E+00 0.11090374E+04</pdfrwt>
<totfact> 0.25439210E+01</totfact>
</mgrwt>
</event>
<event>
 8    1  0.5815007E-006  0.1184672E+04  0.7818608E-02  0.8619544E-01
         21   -1    0    0  503  502  0.00000000000E+00  0.00000000000E+00  0.31416764694E+04  0.31416764694E+04  0.00000000000E+00 0. -1.
         21   -1    0    0  501  503 -0.00000000000E+00 -0.00000000000E+00 -0.44938098858E+03  0.44938098858E+03  0.00000000000E+00 0. -1.
    9000010    2    1    2  501    0  0.10692357527E+03 -0.61566971627E+03  0.15452943406E+04  0.19471472346E+04  0.10064620727E+04 0.  0.
   -9000010    2    1    2    0  502 -0.10692357527E+03  0.61566971627E+03  0.11470011403E+04  0.16439102234E+04  0.99817200743E+03 0.  0.
        -13    1    3    3    0    0  0.12979050788E+03 -0.84586799686E+03  0.81755928526E+03  0.11835292308E+04  0.10566000000E+00 0.  1.
          4    1    3    3  501    0 -0.22866932618E+02  0.23019828060E+03  0.72773505530E+03  0.76361800379E+03  0.00000000000E+00 0.  1.
         13    1    4    4    0    0  0.40832293586E+03  0.13704730827E+03  0.66146421873E+03  0.78933168470E+03  0.10566000000E+00 0. -1.
         -4    1    4    4    0  502 -0.51524651113E+03  0.47862240800E+03  0.48553692157E+03  0.85457853874E+03  0.00000000000E+00 0. -1.
<mgrwt>
<rscale>  2 0.11829094E+04</rscale>
<asrwt>0</asrwt>
<pdfrwt beam="1">  1       21 0.48333483E+00 0.11846720E+04</pdfrwt>
<pdfrwt beam="2">  1       21 0.69135539E-01 0.11846720E+04</pdfrwt>
<totfact> 0.13457059E+00</totfact>
</mgrwt>
</event>
<event>
 8    1  0.5815007E-006  0.1057034E+04  0.7818608E-02  0.8724535E-01
         21   -1    0    0  503  502  0.00000000000E+00  0.00000000000E+00  0.93538041494E+03  0.93538041494E+03  0.00000000000E+00 0. -1.
         21   -1    0    0  501  503 -0.00000000000E+00 -0.00000000000E+00 -0.11859940312E+04  0.11859940312E+04  0.00000000000E+00 0. -1.
    9000010    2    1    2  501    0  0.97800818001E+02 -0.26332950874E+03 -0.14740064111E+03  0.10672616041E+04  0.10190254915E+04 0.  0.
   -9000010    2    1    2    0  502 -0.97800818001E+02  0.26332950874E+03 -0.10321297514E+03  0.10541128420E+04  0.10107391035E+04 0.  0.
        -13    1    3    3    0    0  0.49854020383E+03  0.10418864201E+03 -0.11751915231E+03  0.52269338075E+03  0.10566000000E+00 0.  1.
          4    1    3    3  501    0 -0.40073938583E+03 -0.36751815075E+03 -0.29881488792E+02  0.54456822333E+03  0.00000000000E+00 0.  1.
         13    1    4    4    0    0 -0.44510496339E+03  0.46418942996E+03 -0.14788615958E+02  0.64327985329E+03  0.10566000000E+00 0. -1.
         -4    1    4    4    0  502  0.34730414539E+03 -0.20085992122E+03 -0.88424359181E+02  0.41083298876E+03  0.00000000000E+00 0. -1.
<mgrwt>
<rscale>  2 0.10550316E+04</rscale>
<asrwt>0</asrwt>
<pdfrwt beam="1">  1       21 0.14390468E+00 0.10570338E+04</pdfrwt>
<pdfrwt beam="2">  1       21 0.18246062E+00 0.10570338E+04</pdfrwt>
<totfact> 0.28189366E+01</totfact>
</mgrwt>
</event>
<event>
 8    1  0.5815007E-006  0.1059809E+04  0.7818608E-02  0.8721107E-01
         21   -1    0    0  503  502  0.00000000000E+00  0.00000000000E+00  0.12798504396E+04  0.12798504396E+04  0.00000000000E+00 0.  1.
         21   -1    0    0  501  503 -0.00000000000E+00 -0.00000000000E+00 -0.87510903994E+03  0.87510903994E+03  0.00000000000E+00 0.  1.
    9000010    2    1    2  501    0  0.94965340577E+02 -0.35850066744E+03  0.17944240333E+03  0.10748929895E+04  0.99280119779E+03 0.  0.
   -9000010    2    1    2    0  502 -0.94965340577E+02  0.35850066744E+03  0.22529899631E+03  0.10800664900E+04  0.98906159598E+03 0.  0.
        -13    1    3    3    0    0  0.46026497320E+03 -0.39886355653E+03  0.31185618191E+03  0.68424430698E+03  0.10566000000E+00 0.  1.
          4    1    3    3  501    0 -0.36529963262E+03  0.40362889086E+02 -0.13241377858E+03  0.39064868253E+03  0.00000000000E+00 0.  1.
         13    1    4    4    0    0  0.12969655832E+03 -0.22383070537E+03 -0.19811338262E+03  0.32583785146E+03  0.10566000000E+00 0. -1.
         -4    1    4    4    0  502 -0.22466189890E+03  0.58233137281E+03  0.42341237893E+03  0.75422863855E+03  0.00000000000E+00 0. -1.
<mgrwt>
<rscale>  2 0.10589324E+04</rscale>
<asrwt>0</asrwt>
<pdfrwt beam="1">  1       21 0.19690007E+00 0.10598091E+04</pdfrwt>
<pdfrwt beam="2">  1       21 0.13463216E+00 0.10598091E+04</pdfrwt>
<totfact> 0.26342832E+01</totfact>
</mgrwt>
</event>
<event>
 8    1  0.5815007E-006  0.1166881E+04  0.7818608E-02  0.8636245E-01
         21   -1    0    0  501  502  0.00000000000E+00  0.00000000000E+00  0.13104340845E+04  0.13104340845E+04  0.00000000000E+00 0. -1.
         21   -1    0    0  502  503 -0.00000000000E+00 -0.00000000000E+00 -0.10398194374E+04  0.10398194374E+04  0.00000000000E+00 0. -1.
   -9000010    2    1    2    0  503  0.39431445654E+03 -0.40875594719E+03 -0.29799652739E+02  0.11453223183E+04  0.99413775625E+03 0.  0.
    9000010    2    1    2  501    0 -0.39431445654E+03  0.40875594719E+03  0.30041429988E+03  0.12049312036E+04  0.10193356361E+04 0.  0.
        -13    1    4    4    0    0 -0.28127526046E+03  0.35040862540E+03  0.67413108453E+03  0.81015721141E+03  0.10566000000E+00 0.  1.
          4    1    4    4  501    0 -0.11303919608E+03  0.58347321784E+02 -0.37371678465E+03  0.39477399223E+03  0.00000000000E+00 0.  1.
         13    1    3    3    0    0  0.41078237273E+03  0.25113924841E+03  0.30748511510E+02  0.48245057981E+03  0.10566000000E+00 0. -1.
         -4    1    3    3    0  503 -0.16467916187E+02 -0.65989519560E+03 -0.60548164249E+02  0.66287173845E+03  0.00000000000E+00 0. -1.
<mgrwt>
<rscale>  2 0.11613550E+04</rscale>
<asrwt>0</asrwt>
<pdfrwt beam="1">  1       21 0.20160524E+00 0.11668807E+04</pdfrwt>
<pdfrwt beam="2">  1       21 0.15997222E+00 0.11668807E+04</pdfrwt>
<totfact> 0.13968431E+01</totfact>
</mgrwt>
</event>
<event>
 8    1  0.5815007E-006  0.1135441E+04  0.7818608E-02  0.8670260E-01
         21   -1    0    0  503  502  0.00000000000E+00  0.00000000000E+00  0.10425339662E+04  0.10425339662E+04  0.00000000000E+00 0. -1.
         21   -1    0    0  501  503 -0.00000000000E+00 -0.00000000000E+00 -0.11814730677E+04  0.11814730677E+04  0.00000000000E+00 0. -1.
    9000010    2    1    2  501    0  0.92337431358E+02  0.33484269911E+03 -0.19372116552E+03  0.11518477543E+04  0.10810085682E+04 0.  0.
   -9000010    2    1    2    0  502 -0.92337431358E+02 -0.33484269911E+03  0.54782063978E+02  0.10721592796E+04  0.10128566591E+04 0.  0.
        -13    1    3    3    0    0 -0.38083729906E+03 -0.18375904244E+03  0.26944982737E+01  0.42286133131E+03  0.10566000000E+00 0.  1.
          4    1    3    3  501    0  0.47317473042E+03  0.51860174155E+03 -0.19641566380E+03  0.72898642294E+03  0.00000000000E+00 0.  1.
         13    1    4    4    0    0 -0.58272196513E+02 -0.30112482008E+03 -0.46124432979E+03  0.55391167985E+03  0.10566000000E+00 0. -1.
         -4    1    4    4    0  502 -0.34065234844E+02 -0.33717879035E+02  0.51602639377E+03  0.51824759976E+03  0.00000000000E+00 0. -1.
<mgrwt>
<rscale>  2 0.11189128E+04</rscale>
<asrwt>0</asrwt>
<pdfrwt beam="1">  1       21 0.16038984E+00 0.11354406E+04</pdfrwt>
<pdfrwt beam="2">  1       21 0.18176509E+00 0.11354406E+04</pdfrwt>
<totfact> 0.20059236E+01</totfact>
</mgrwt>
</event>
<event>
 8    1  0.5815007E-006  0.1058862E+04  0.7818608E-02  0.8723552E-01
         21   -1    0    0  501  502  0.00000000000E+00  0.00000000000E+00  0.47722602369E+03  0.47722602369E+03  0.00000000000E+00 0.  1.
         21   -1    0    0  502  503 -0.00000000000E+00 -0.00000000000E+00 -0.23909784898E+04  0.23909784898E+04  0.00000000000E+00 0.  1.
   -9000010    2    1    2    0  503  0.24349834914E+03 -0.28712219163E+03 -0.71470093292E+03  0.12685443623E+04  0.97809855162E+03 0.  0.
    9000010    2    1    2  501    0 -0.24349834914E+03  0.28712219163E+03 -0.11990515332E+04  0.15996601512E+04  0.98967541199E+03 0.  0.
        -13    1    4    4    0    0  0.29281363087E+03  0.38955689212E+03 -0.74138321655E+03  0.88721106822E+03  0.10566000000E+00 0.  1.
          4    1    4    4  501    0 -0.53631198001E+03 -0.10243470049E+03 -0.45766831667E+03  0.71244908299E+03  0.00000000000E+00 0.  1.
         13    1    3    3    0    0 -0.87004514179E+02 -0.54818246001E+03 -0.62875610258E+03  0.83869424861E+03  0.10566000000E+00 0. -1.
         -4    1    3    3    0  503  0.33050286332E+03  0.26106026838E+03 -0.85944830342E+02  0.42985011371E+03  0.00000000000E+00 0. -1.
<mgrwt>
<rscale>  2 0.10561482E+04</rscale>
<asrwt>0</asrwt>
<pdfrwt beam="1">  1       21 0.73419388E-01 0.10588617E+04</pdfrwt>
<pdfrwt beam="2">  1       21 0.36784285E+00 0.10588617E+04</pdfrwt>
<totfact> 0.75959107E+00</totfact>
</mgrwt>
</event>
<event>
 8    1  0.5815007E-006  0.1726088E+04  0.7818608E-02  0.8292729E-01
         21   -1    0    0  503  502  0.00000000000E+00  0.00000000000E+00  0.17313405950E+04  0.17313405950E+04  0.00000000000E+00 0. -1.
         21   -1    0    0  501  503 -0.00000000000E+00 -0.00000000000E+00 -0.17032910232E+04  0.17032910232E+04  0.00000000000E+00 0.  1.
    9000010    2    1    2  501    0  0.10619099930E+04 -0.89190734929E+03 -0.69536238528E+02  0.17057875803E+04  0.99082007841E+03 0.  0.
   -9000010    2    1    2    0  502 -0.10619099930E+04  0.89190734929E+03  0.97585810304E+02  0.17288440379E+04  0.10277291297E+04 0.  0.
        -13    1    3    3    0    0  0.12324368764E+04 -0.71026167920E+03 -0.17896653994E+03  0.14336670955E+04  0.10566000000E+00 0.  1.
          4    1    3    3  501    0 -0.17052688334E+03 -0.18164567009E+03  0.10943030141E+03  0.27212048484E+03  0.00000000000E+00 0.  1.
         13    1    4    4    0    0 -0.20596874568E+03 -0.47205022865E+02  0.37298716960E+03  0.42868505716E+03  0.10566000000E+00 0. -1.
         -4    1    4    4    0  502 -0.85594124733E+03  0.93911237215E+03 -0.27540135930E+03  0.13001589807E+04  0.00000000000E+00 0. -1.
<mgrwt>
<rscale>  2 0.17206324E+04</rscale>
<asrwt>0</asrwt>
<pdfrwt beam="1">  1       21 0.26636009E+00 0.17260877E+04</pdfrwt>
<pdfrwt beam="2">  1       21 0.26204477E+00 0.17260877E+04</pdfrwt>
<totfact> 0.66819934E-01</totfact>
</mgrwt>
</event>
<event>
 8    1  0.5815007E-006  0.1074175E+04  0.7818608E-02  0.8712132E-01
         21   -1    0    0  501  502  0.00000000000E+00  0.00000000000E+00  0.37340969787E+03  0.37340969787E+03  0.00000000000E+00 0.  1.
         21   -1    0    0  502  503 -0.00000000000E+00 -0.00000000000E+00 -0.32897851725E+04  0.32897851725E+04  0.00000000000E+00 0.  1.
   -9000010    2    1    2    0  503 -0.10724515279E+03  0.23398754963E+03 -0.19815313096E+04  0.22539562394E+04  0.10428809625E+04 0.  0.
    9000010    2    1    2  501    0  0.10724515279E+03 -0.23398754963E+03 -0.93484416499E+03  0.14092386309E+04  0.10226280897E+04 0.  0.
        -13    1    4    4    0    0  0.29075478700E+03  0.33994255018E+03 -0.33357772472E+03  0.55800841676E+03  0.10566000000E+00 0.  1.
          4    1    4    4  501    0 -0.18350963421E+03 -0.57393009980E+03 -0.60126644027E+03  0.85123021416E+03  0.00000000000E+00 0.  1.
         13    1    3    3    0    0  0.72545805559E+02 -0.38801554344E+03 -0.49935881190E+03  0.63653608699E+03  0.10566000000E+00 0. -1.
         -4    1    3    3    0  503 -0.17979095835E+03  0.62200309307E+03 -0.14821724977E+04  0.16174201524E+04  0.00000000000E+00 0. -1.
<mgrwt>
<rscale>  2 0.10692282E+04</rscale>
<asrwt>0</asrwt>
<pdfrwt beam="1">  1       21 0.57447647E-01 0.10741752E+04</pdfrwt>
<pdfrwt beam="2">  1       21 0.50612078E+00 0.10741752E+04</pdfrwt>
<totfact> 0.14677356E+00</totfact>
</mgrwt>
</event>
<event>
 8    1  0.5815007E-006  0.1078101E+04  0.7818608E-02  0.8725641E-01
         21   -1    0    0  501  502  0.00000000000E+00  0.00000000000E+00  0.92316849400E+03  0.92316849400E+03  0.00000000000E+00 0. -1.
         21   -1    0    0  502  503 -0.00000000000E+00 -0.00000000000E+00 -0.13012054298E+04  0.13012054298E+04  0.00000000000E+00 0. -1.
   -9000010    2    1    2    0  503  0.41316518379E+03  0.68020480396E+01 -0.55817063171E+03  0.11313274973E+04  0.89308214358E+03 0.  0.
    9000010    2    1    2  501    0 -0.41316518379E+03 -0.68020480396E+01  0.18013369595E+03  0.10930464264E+04  0.99576634052E+03 0.  0.
        -13    1    4    4    0    0  0.15880899229E+03 -0.36804490716E+03  0.47264758482E+02  0.40362274252E+03  0.10566000000E+00 0.  1.
          4    1    4    4  501    0 -0.57197417608E+03  0.36124285912E+03  0.13286893747E+03  0.68942368389E+03  0.00000000000E+00 0.  1.
         13    1    3    3    0    0 -0.21902881690E+03 -0.22183526883E+03 -0.18122501671E+03  0.36059260528E+03  0.10566000000E+00 0. -1.
         -4    1    3    3    0  503  0.63219400069E+03  0.22863731687E+03 -0.37694561499E+03  0.77073489206E+03  0.00000000000E+00 0. -1.
<mgrwt>
<rscale>  2 0.10537766E+04</rscale>
<asrwt>0</asrwt>
<pdfrwt beam="1">  1       21 0.14202592E+00 0.10781013E+04</pdfrwt>
<pdfrwt beam="2">  1       21 0.20018545E+00 0.10781013E+04</pdfrwt>
<totfact> 0.21096813E+01</totfact>
</mgrwt>
</event>
<event>
 8    1  0.5815007E-006  0.1345575E+04  0.7818608E-02  0.8530087E-01
         21   -1    0    0  503  502  0.00000000000E+00  0.00000000000E+00  0.14449927856E+04  0.14449927856E+04  0.00000000000E+00 0.  1.
         21   -1    0    0  501  503 -0.00000000000E+00 -0.00000000000E+00 -0.12408300217E+04  0.12408300217E+04  0.00000000000E+00 0.  1.
    9000010    2    1    2  501    0  0.49206124164E+03  0.45707143910E+03  0.51675497830E+03  0.13044154819E+04  0.99167811096E+03 0.  0.
   -9000010    2    1    2    0  502 -0.49206124164E+03 -0.45707143910E+03 -0.31259221439E+03  0.13814073254E+04  0.11659904546E+04 0.  0.
        -13    1    3    3    0    0  0.79408017865E+02  0.64157332808E+03  0.40402136077E+02  0.64773012309E+03  0.10566000000E+00 0.  1.
          4    1    3    3  501    0  0.41265322377E+03 -0.18450188897E+03  0.47635284222E+03  0.65668535877E+03  0.00000000000E+00 0.  1.
         13    1    4    4    0    0 -0.82830194200E+03 -0.36452526758E+03 -0.44489337554E+03  0.10084110792E+04  0.10566000000E+00 0. -1.
         -4    1    4    4    0  502  0.33624070036E+03 -0.92546171527E+02  0.13230116115E+03  0.37299624621E+03  0.00000000000E+00 0. -1.
<mgrwt>
<rscale>  2 0.13069746E+04</rscale>
<asrwt>0</asrwt>
<pdfrwt beam="1">  1       21 0.22230658E+00 0.13455751E+04</pdfrwt>
<pdfrwt beam="2">  1       21 0.19089693E+00 0.13455751E+04</pdfrwt>
<totfact> 0.51840819E+00</totfact>
</mgrwt>
</event>
<event>
 8    1  0.5815007E-006  0.1122749E+04  0.7818608E-02  0.8680786E-01
         21   -1    0    0  503  502  0.00000000000E+00  0.00000000000E+00  0.10874174137E+04  0.10874174137E+04  0.00000000000E+00 0. -1.
         21   -1    0    0  501  503 -0.00000000000E+00 -0.00000000000E+00 -0.10940171419E+04  0.10940171419E+04  0.00000000000E+00 0. -1.
    9000010    2    1    2  501    0 -0.27790592915E+03 -0.31393982549E+02 -0.33007139180E+02  0.10583750247E+04  0.10202210222E+04 0.  0.
   -9000010    2    1    2    0  502  0.27790592915E+03  0.31393982549E+02  0.26407410978E+02  0.11230595309E+04  0.10873582992E+04 0.  0.
        -13    1    3    3    0    0 -0.17164252149E+03  0.48167509778E+03 -0.12500650457E+03  0.52640164547E+03  0.10566000000E+00 0.  1.
          4    1    3    3  501    0 -0.10626340766E+03 -0.51306908032E+03  0.91999365390E+02  0.53197337925E+03  0.00000000000E+00 0.  1.
         13    1    4    4    0    0  0.43392182673E+03 -0.59134569614E+02 -0.44133567488E+03  0.62174129517E+03  0.10566000000E+00 0. -1.
         -4    1    4    4    0  502 -0.15601589758E+03  0.90528552163E+02  0.46774308586E+03  0.50131823568E+03  0.00000000000E+00 0. -1.
<mgrwt>
<rscale>  2 0.11061629E+04</rscale>
<asrwt>0</asrwt>
<pdfrwt beam="1">  1       21 0.16729499E+00 0.11227490E+04</pdfrwt>
<pdfrwt beam="2">  1       21 0.16831033E+00 0.11227490E+04</pdfrwt>
<totfact> 0.22692472E+01</totfact>
</mgrwt>
</event>
<event>
 8    1  0.5815007E-006  0.1053288E+04  0.7818608E-02  0.8735942E-01
         21   -1    0    0  503  502  0.00000000000E+00  0.00000000000E+00  0.16068869718E+04  0.16068869718E+04  0.00000000000E+00 0. -1.
         21   -1    0    0  501  503 -0.00000000000E+00 -0.00000000000E+00 -0.78589015549E+03  0.78589015549E+03  0.00000000000E+00 0. -1.
    9000010    2    1    2  501    0  0.25891997201E+03  0.18390432336E+03 -0.71696086111E+02  0.10120831326E+04  0.95828575403E+03 0.  0.
   -9000010    2    1    2    0  502 -0.25891997201E+03 -0.18390432336E+03  0.89269290246E+03  0.13806939948E+04  0.10042683591E+04 0.  0.
        -13    1    3    3    0    0 -0.32225392098E+03  0.23773863024E+03  0.81462695163E+02  0.40866052876E+03  0.10566000000E+00 0.  1.
          4    1    3    3  501    0  0.58117389299E+03 -0.53834306877E+02 -0.15315878127E+03  0.60342260380E+03  0.00000000000E+00 0.  1.
         13    1    4    4    0    0  0.21456544704E+03  0.29464369783E+03  0.43063487952E+03  0.56418051221E+03  0.10566000000E+00 0. -1.
         -4    1    4    4    0  502 -0.47348541905E+03 -0.47854802119E+03  0.46205802295E+03  0.81651348256E+03  0.00000000000E+00 0. -1.
<mgrwt>
<rscale>  2 0.10421764E+04</rscale>
<asrwt>0</asrwt>
<pdfrwt beam="1">  1       21 0.24721338E+00 0.10532878E+04</pdfrwt>
<pdfrwt beam="2">  1       21 0.12090618E+00 0.10532878E+04</pdfrwt>
<totfact> 0.15001027E+01</totfact>
</mgrwt>
</event>
<event>
 8    1  0.5815007E-006  0.1081982E+04  0.7818608E-02  0.8702225E-01
         21   -1    0    0  503  502  0.00000000000E+00  0.00000000000E+00  0.11423670491E+04  0.11423670491E+04  0.00000000000E+00 0. -1.
         21   -1    0    0  501  503 -0.00000000000E+00 -0.00000000000E+00 -0.10688487935E+04  0.10688487935E+04  0.00000000000E+00 0. -1.
    9000010    2    1    2  501    0 -0.39071856723E+03  0.93606735502E+02 -0.19930707382E+03  0.11001851915E+04  0.10046197918E+04 0.  0.
   -9000010    2    1    2    0  502  0.39071856723E+03 -0.93606735502E+02  0.27282532946E+03  0.11110306511E+04  0.99926584434E+03 0.  0.
        -13    1    3    3    0    0  0.18364128935E+03  0.26836594743E+03 -0.35352309225E+03  0.48033633302E+03  0.10566000000E+00 0.  1.
          4    1    3    3  501    0 -0.57435985658E+03 -0.17475921193E+03  0.15421601843E+03  0.61984885847E+03  0.00000000000E+00 0.  1.
         13    1    4    4    0    0  0.67401120144E+03 -0.16571691473E+03 -0.23901231685E+02  0.69449584271E+03  0.10566000000E+00 0. -1.
         -4    1    4    4    0  502 -0.28329263421E+03  0.72110179229E+02  0.29672656115E+03  0.41653480843E+03  0.00000000000E+00 0. -1.
<mgrwt>
<rscale>  2 0.10807371E+04</rscale>
<asrwt>0</asrwt>
<pdfrwt beam="1">  1       21 0.17574878E+00 0.10819816E+04</pdfrwt>
<pdfrwt beam="2">  1       21 0.16443828E+00 0.10819816E+04</pdfrwt>
<totfact> 0.20979812E+01</totfact>
</mgrwt>
</event>
<event>
 8    1  0.5815007E-006  0.1050417E+04  0.7818608E-02  0.8732823E-01
         21   -1    0    0  501  502  0.00000000000E+00  0.00000000000E+00  0.10945691889E+04  0.10945691889E+04  0.00000000000E+00 0. -1.
         21   -1    0    0  502  503 -0.00000000000E+00 -0.00000000000E+00 -0.10391969475E+04  0.10391969475E+04  0.00000000000E+00 0. -1.
   -9000010    2    1    2    0  503  0.26720907019E+02  0.28294730917E+03 -0.20459463924E+03  0.10516575351E+04  0.99164077068E+03 0.  0.
    9000010    2    1    2  501    0 -0.26720907019E+02 -0.28294730917E+03  0.25996688067E+03  0.10821086013E+04  0.10112383791E+04 0.  0.
        -13    1    4    4    0    0  0.16844860826E+03 -0.43045882210E+03 -0.24342116666E+03  0.52242090951E+03  0.10566000000E+00 0.  1.
          4    1    4    4  501    0 -0.19516951528E+03  0.14751151293E+03  0.50338804732E+03  0.55968769178E+03  0.00000000000E+00 0.  1.
         13    1    3    3    0    0  0.49070053015E+03  0.93661973766E+02  0.25587187301E+02  0.50021424504E+03  0.10566000000E+00 0. -1.
         -4    1    3    3    0  503 -0.46397962313E+03  0.18928533541E+03 -0.23018182654E+03  0.55144329006E+03  0.00000000000E+00 0. -1.
<mgrwt>
<rscale>  2 0.10456719E+04</rscale>
<asrwt>0</asrwt>
<pdfrwt beam="1">  1       21 0.16839526E+00 0.10504172E+04</pdfrwt>
<pdfrwt beam="2">  1       21 0.15987645E+00 0.10504172E+04</pdfrwt>
<totfact> 0.26627429E+01</totfact>
</mgrwt>
</event>
<event>
 8    1  0.5815007E-006  0.1682211E+04  0.7818608E-02  0.8329879E-01
         21   -1    0    0  501  502  0.00000000000E+00  0.00000000000E+00  0.16510732398E+04  0.16510732398E+04  0.00000000000E+00 0.  1.
         21   -1    0    0  502  503 -0.00000000000E+00 -0.00000000000E+00 -0.16108236614E+04  0.16108236614E+04  0.00000000000E+00 0. -1.
   -9000010    2    1    2    0  503  0.12488013619E+04  0.52028944602E+03  0.26194404967E+03  0.17024832713E+04  0.99981431018E+03 0.  0.
    9000010    2    1    2  501    0 -0.12488013619E+04 -0.52028944602E+03 -0.22169447133E+03  0.15594136299E+04  0.74324725465E+03 0.  0.
        -13    1    4    4    0    0 -0.45065362975E+03 -0.39889313186E+03  0.21801915705E+03  0.64010685722E+03  0.10566000000E+00 0.  1.
          4    1    4    4  501    0 -0.79814773212E+03 -0.12139631416E+03 -0.43971362837E+03  0.91930677271E+03  0.00000000000E+00 0.  1.
         13    1    3    3    0    0 -0.89284203655E+02  0.16041526240E+03  0.25823514394E+03  0.31684400919E+03  0.10566000000E+00 0. -1.
         -4    1    3    3    0  503  0.13380855655E+04  0.35987418362E+03  0.37089057285E+01  0.13856392621E+04  0.00000000000E+00 0. -1.
<mgrwt>
<rscale>  2 0.16464263E+04</rscale>
<asrwt>0</asrwt>
<pdfrwt beam="1">  1       21 0.25401127E+00 0.16822112E+04</pdfrwt>
<pdfrwt beam="2">  1       21 0.24781902E+00 0.16822112E+04</pdfrwt>
<totfact> 0.10501054E+00</totfact>
</mgrwt>
</event>
<event>
 8    1  0.5815007E-006  0.1136049E+04  0.7818608E-02  0.8670123E-01
         21   -1    0    0  503  502  0.00000000000E+00  0.00000000000E+00  0.14462730853E+04  0.14462730853E+04  0.00000000000E+00 0.  1.
         21   -1    0    0  501  503 -0.00000000000E+00 -0.00000000000E+00 -0.84099305862E+03  0.84099305862E+03  0.00000000000E+00 0.  1.
    9000010    2    1    2  501    0  0.53976446877E+02 -0.50880632998E+03  0.31143367861E+03  0.11779636642E+04  0.10143027751E+04 0.  0.
   -9000010    2    1    2    0  502 -0.53976446877E+02  0.50880632998E+03  0.29384634806E+03  0.11093024798E+04  0.93936626355E+03 0.  0.
        -13    1    3    3    0    0  0.53563496524E+02 -0.28295678214E+03  0.68407617085E+03  0.74222220892E+03  0.10566000000E+00 0.  1.
          4    1    3    3  501    0  0.41295035339E+00 -0.22584954784E+03 -0.37264249224E+03  0.43574145523E+03  0.00000000000E+00 0.  1.
         13    1    4    4    0    0  0.90107089467E+02 -0.20628777536E+03  0.30582291083E+03  0.37973885472E+03  0.10566000000E+00 0. -1.
         -4    1    4    4    0  502 -0.14408353634E+03  0.71509410534E+03 -0.11976562770E+02  0.72956362504E+03  0.00000000000E+00 0. -1.
<mgrwt>
<rscale>  2 0.11190793E+04</rscale>
<asrwt>0</asrwt>
<pdfrwt beam="1">  1       21 0.22250355E+00 0.11360491E+04</pdfrwt>
<pdfrwt beam="2">  1       21 0.12938355E+00 0.11360491E+04</pdfrwt>
<totfact> 0.18505028E+01</totfact>
</mgrwt>
</event>
<event>
 8    1  0.5815007E-006  0.1071596E+04  0.7818608E-02  0.8715056E-01
         21   -1    0    0  501  502  0.00000000000E+00  0.00000000000E+00  0.14224541585E+04  0.14224541585E+04  0.00000000000E+00 0.  1.
         21   -1    0    0  502  503 -0.00000000000E+00 -0.00000000000E+00 -0.86270004030E+03  0.86270004030E+03  0.00000000000E+00 0.  1.
   -9000010    2    1    2    0  503  0.32201088485E+03  0.20225424052E+03 -0.48518791117E+02  0.10726937093E+04  0.10018582401E+04 0.  0.
    9000010    2    1    2  501    0 -0.32201088485E+03 -0.20225424052E+03  0.60827290935E+03  0.12124604895E+04  0.97747977910E+03 0.  0.
        -13    1    4    4    0    0  0.11544236406E+03 -0.50010133173E+03  0.36620019664E+03  0.63050049691E+03  0.10566000000E+00 0.  1.
          4    1    4    4  501    0 -0.43745324891E+03  0.29784709121E+03  0.24207271271E+03  0.58195999258E+03  0.00000000000E+00 0.  1.
         13    1    3    3    0    0  0.26890070110E+02 -0.16108064188E+03 -0.43565224368E+03  0.46525577659E+03  0.10566000000E+00 0. -1.
         -4    1    3    3    0  503  0.29512081474E+03  0.36333488239E+03  0.38713345256E+03  0.60743793275E+03  0.00000000000E+00 0. -1.
<mgrwt>
<rscale>  2 0.10658609E+04</rscale>
<asrwt>0</asrwt>
<pdfrwt beam="1">  1       21 0.21883910E+00 0.10715959E+04</pdfrwt>
<pdfrwt beam="2">  1       21 0.13272308E+00 0.10715959E+04</pdfrwt>
<totfact> 0.18571750E+01</totfact>
</mgrwt>
</event>
<event>
 8    1  0.5815007E-006  0.1144019E+04  0.7818608E-02  0.8657289E-01
         21   -1    0    0  503  502  0.00000000000E+00  0.00000000000E+00  0.14823700617E+04  0.14823700617E+04  0.00000000000E+00 0. -1.
         21   -1    0    0  501  503 -0.00000000000E+00 -0.00000000000E+00 -0.87127423689E+03  0.87127423689E+03  0.00000000000E+00 0. -1.
    9000010    2    1    2  501    0 -0.39060014765E+03  0.38058273162E+03  0.47012544107E+03  0.12368502308E+04  0.10056683709E+04 0.  0.
   -9000010    2    1    2    0  502  0.39060014765E+03 -0.38058273162E+03  0.14097038377E+03  0.11167940678E+04  0.96433637793E+03 0.  0.
        -13    1    3    3    0    0  0.27885884374E+03 -0.26254110324E+02 -0.65764062732E+02  0.28770897823E+03  0.10566000000E+00 0.  1.
          4    1    3    3  501    0 -0.66945899139E+03  0.40683684194E+03  0.53588950381E+03  0.94914125261E+03  0.00000000000E+00 0.  1.
         13    1    4    4    0    0  0.37307876333E+03  0.56007591279E+02  0.44581728579E+03  0.58401855913E+03  0.10566000000E+00 0. -1.
         -4    1    4    4    0  502  0.17521384319E+02 -0.43659032290E+03 -0.30484690202E+03  0.53277550866E+03  0.00000000000E+00 0. -1.
<mgrwt>
<rscale>  2 0.11348707E+04</rscale>
<asrwt>0</asrwt>
<pdfrwt beam="1">  1       21 0.22805693E+00 0.11440195E+04</pdfrwt>
<pdfrwt beam="2">  1       21 0.13404219E+00 0.11440195E+04</pdfrwt>
<totfact> 0.15146773E+01</totfact>
</mgrwt>
</event>
<event>
 8    1  0.5815007E-006  0.1164923E+04  0.7818608E-02  0.8642507E-01
         21   -1    0    0  501  502  0.00000000000E+00  0.00000000000E+00  0.22121243808E+04  0.22121243808E+04  0.00000000000E+00 0.  1.
         21   -1    0    0  502  503 -0.00000000000E+00 -0.00000000000E+00 -0.59047000917E+03  0.59047000917E+03  0.00000000000E+00 0.  1.
   -9000010    2    1    2    0  503 -0.40744041134E+03  0.33764371136E+03  0.87518893283E+03  0.14570522386E+04  0.10378027718E+04 0.  0.
    9000010    2    1    2  501    0  0.40744041134E+03 -0.33764371136E+03  0.74646543881E+03  0.13455421514E+04  0.98654045291E+03 0.  0.
        -13    1    4    4    0    0  0.80752758797E+02  0.20285111416E+03 -0.13833397218E+03  0.25846833770E+03  0.10566000000E+00 0.  1.
          4    1    4    4  501    0  0.32668765255E+03 -0.54049482552E+03  0.88479941098E+03  0.10870738137E+04  0.00000000000E+00 0.  1.
         13    1    3    3    0    0 -0.50800947382E+03  0.41117452168E+03  0.87286502655E+02  0.65936109794E+03  0.10566000000E+00 0. -1.
         -4    1    3    3    0  503  0.10056906247E+03 -0.73530810320E+02  0.78790243018E+03  0.79769114065E+03  0.00000000000E+00 0. -1.
<mgrwt>
<rscale>  2 0.11533965E+04</rscale>
<asrwt>0</asrwt>
<pdfrwt beam="1">  1       21 0.34032682E+00 0.11649230E+04</pdfrwt>
<pdfrwt beam="2">  1       21 0.90841542E-01 0.11649230E+04</pdfrwt>
<totfact> 0.68364778E+00</totfact>
</mgrwt>
</event>
<event>
 8    1  0.5815007E-006  0.1147268E+04  0.7818608E-02  0.8652986E-01
         21   -1    0    0  503  502  0.00000000000E+00  0.00000000000E+00  0.14178685170E+04  0.14178685170E+04  0.00000000000E+00 0.  1.
         21   -1    0    0  501  503 -0.00000000000E+00 -0.00000000000E+00 -0.10557132552E+04  0.10557132552E+04  0.00000000000E+00 0.  1.
    9000010    2    1    2  501    0 -0.10237323105E+03 -0.55136956378E+03 -0.28676428206E+03  0.11555069644E+04  0.96874863460E+03 0.  0.
   -9000010    2    1    2    0  502  0.10237323105E+03  0.55136956378E+03  0.64891954391E+03  0.13180748078E+04  0.10008675988E+04 0.  0.
        -13    1    3    3    0    0 -0.32515254417E+03 -0.14443530248E+03 -0.52483401606E+03  0.63406347407E+03  0.10566000000E+00 0.  1.
          4    1    3    3  501    0  0.22277931312E+03 -0.40693426130E+03  0.23806973399E+03  0.52144349034E+03  0.00000000000E+00 0.  1.
         13    1    4    4    0    0  0.15277004795E+03  0.17969167067E+03 -0.25020866186E+03  0.34384905074E+03  0.10566000000E+00 0. -1.
         -4    1    4    4    0  502 -0.50396816906E+02  0.37167789310E+03  0.89912820577E+03  0.97422575710E+03  0.00000000000E+00 0. -1.
<mgrwt>
<rscale>  2 0.11402262E+04</rscale>
<asrwt>0</asrwt>
<pdfrwt beam="1">  1       21 0.21813362E+00 0.11472683E+04</pdfrwt>
<pdfrwt beam="2">  1       21 0.16241742E+00 0.11472683E+04</pdfrwt>
<totfact> 0.99769958E+00</totfact>
</mgrwt>
</event>
<event>
 8    1  0.5815007E-006  0.1052214E+04  0.7818608E-02  0.8733710E-01
         21   -1    0    0  503  502  0.00000000000E+00  0.00000000000E+00  0.72663788729E+03  0.72663788729E+03  0.00000000000E+00 0. -1.
         21   -1    0    0  501  503 -0.00000000000E+00 -0.00000000000E+00 -0.15083050231E+04  0.15083050231E+04  0.00000000000E+00 0. -1.
    9000010    2    1    2  501    0  0.12784736302E+03 -0.16646362013E+03 -0.53624669960E+03  0.11544870389E+04  0.10006121702E+04 0.  0.
   -9000010    2    1    2    0  502 -0.12784736302E+03  0.16646362013E+03 -0.24542043621E+03  0.10804558715E+04  0.10310667362E+04 0.  0.
        -13    1    3    3    0    0 -0.27158573492E+02 -0.29285258733E+03  0.22315726101E+03  0.36918748669E+03  0.10566000000E+00 0.  1.
          4    1    3    3  501    0  0.15500593652E+03  0.12638896720E+03 -0.75940396061E+03  0.78529955226E+03  0.00000000000E+00 0.  1.
         13    1    4    4    0    0 -0.52953997806E+03 -0.12305082869E+03 -0.42402614376E+02  0.54529999787E+03  0.10566000000E+00 0. -1.
         -4    1    4    4    0  502  0.40169261504E+03  0.28951444882E+03 -0.20301782183E+03  0.53515587358E+03  0.00000000000E+00 0. -1.
<mgrwt>
<rscale>  2 0.10446770E+04</rscale>
<asrwt>0</asrwt>
<pdfrwt beam="1">  1       21 0.11179044E+00 0.10522137E+04</pdfrwt>
<pdfrwt beam="2">  1       21 0.23204693E+00 0.10522137E+04</pdfrwt>
<totfact> 0.24089523E+01</totfact>
</mgrwt>
</event>
<event>
 8    1  0.5815007E-006  0.1049533E+04  0.7818608E-02  0.8730679E-01
         21   -1    0    0  503  502  0.00000000000E+00  0.00000000000E+00  0.16934360214E+04  0.16934360214E+04  0.00000000000E+00 0.  1.
         21   -1    0    0  501  503 -0.00000000000E+00 -0.00000000000E+00 -0.65103563071E+03  0.65103563071E+03  0.00000000000E+00 0.  1.
    9000010    2    1    2  501    0  0.30672221597E+03 -0.70254419929E+02  0.42902687674E+03  0.11338358004E+04  0.10012518964E+04 0.  0.
   -9000010    2    1    2    0  502 -0.30672221597E+03  0.70254419929E+02  0.61337351394E+03  0.12106358517E+04  0.99518736750E+03 0.  0.
        -13    1    3    3    0    0 -0.30207874150E+03  0.17589797931E+03  0.30842287139E+03  0.46617201112E+03  0.10566000000E+00 0.  1.
          4    1    3    3  501    0  0.60880095748E+03 -0.24615239923E+03  0.12060400535E+03  0.66766378933E+03  0.00000000000E+00 0.  1.
         13    1    4    4    0    0 -0.36604823009E+03  0.18983796639E+02 -0.18350460723E+03  0.40990931110E+03  0.10566000000E+00 0. -1.
         -4    1    4    4    0  502  0.59326014114E+02  0.51270623289E+02  0.79687812117E+03  0.80072654057E+03  0.00000000000E+00 0. -1.
<mgrwt>
<rscale>  2 0.10480840E+04</rscale>
<asrwt>0</asrwt>
<pdfrwt beam="1">  1       21 0.26052862E+00 0.10495330E+04</pdfrwt>
<pdfrwt beam="2">  1       21 0.10015933E+00 0.10495330E+04</pdfrwt>
<totfact> 0.20022684E+01</totfact>
</mgrwt>
</event>
<event>
 8    1  0.5815007E-006  0.1354829E+04  0.7818608E-02  0.8528372E-01
         21   -1    0    0  503  502  0.00000000000E+00  0.00000000000E+00  0.83462792545E+03  0.83462792545E+03  0.00000000000E+00 0.  1.
         21   -1    0    0  501  503 -0.00000000000E+00 -0.00000000000E+00 -0.19299649649E+04  0.19299649649E+04  0.00000000000E+00 0. -1.
    9000010    2    1    2  501    0 -0.29039687925E+03 -0.57642250774E+03 -0.55108976383E+03  0.13045355748E+04  0.99071685318E+03 0.  0.
   -9000010    2    1    2    0  502  0.29039687925E+03  0.57642250774E+03 -0.54424727559E+03  0.14600573155E+04  0.11912048576E+04 0.  0.
        -13    1    3    3    0    0 -0.11002783621E+03 -0.81118657255E+03 -0.58555833655E+03  0.10064831627E+04  0.10566000000E+00 0.  1.
          4    1    3    3  501    0 -0.18036904305E+03  0.23476406482E+03  0.34468572719E+02  0.29805241204E+03  0.00000000000E+00 0.  1.
         13    1    4    4    0    0 -0.37574975932E+03  0.56950161663E+03 -0.34597186267E+03  0.76499445350E+03  0.10566000000E+00 0. -1.
         -4    1    4    4    0  502  0.66614663857E+03  0.69208911074E+01 -0.19827541292E+03  0.69506286204E+03  0.00000000000E+00 0. -1.
<mgrwt>
<rscale>  2 0.13095021E+04</rscale>
<asrwt>0</asrwt>
<pdfrwt beam="1">  1       21 0.12840430E+00 0.13548292E+04</pdfrwt>
<pdfrwt beam="2">  1       21 0.29691769E+00 0.13548292E+04</pdfrwt>
<totfact> 0.52297157E+00</totfact>
</mgrwt>
</event>
<event>
 8    1  0.5815007E-006  0.1129406E+04  0.7818608E-02  0.8666315E-01
         21   -1    0    0  503  502  0.00000000000E+00  0.00000000000E+00  0.70492717767E+03  0.70492717767E+03  0.00000000000E+00 0.  1.
         21   -1    0    0  501  503 -0.00000000000E+00 -0.00000000000E+00 -0.21635600135E+04  0.21635600135E+04  0.00000000000E+00 0.  1.
    9000010    2    1    2  501    0  0.22705843277E+03 -0.40251903804E+03 -0.13442022798E+04  0.17556872617E+04  0.10305245673E+04 0.  0.
   -9000010    2    1    2    0  502 -0.22705843277E+03  0.40251903804E+03 -0.11443055603E+03  0.11127999295E+04  0.10058092379E+04 0.  0.
        -13    1    3    3    0    0  0.35219879142E+03 -0.53005457062E+03 -0.14242002519E+04  0.15599192945E+04  0.10566000000E+00 0.  1.
          4    1    3    3  501    0 -0.12514035865E+03  0.12753553257E+03  0.79997972130E+02  0.19576796719E+03  0.00000000000E+00 0.  1.
         13    1    4    4    0    0 -0.61128915628E+03  0.29104822730E+03 -0.19527678414E+03  0.70463929552E+03  0.10566000000E+00 0. -1.
         -4    1    4    4    0  502  0.38423072351E+03  0.11147081075E+03  0.80846228105E+02  0.40816063399E+03  0.00000000000E+00 0. -1.
<mgrwt>
<rscale>  2 0.11237372E+04</rscale>
<asrwt>0</asrwt>
<pdfrwt beam="1">  1       21 0.10845034E+00 0.11294060E+04</pdfrwt>
<pdfrwt beam="2">  1       21 0.33285538E+00 0.11294060E+04</pdfrwt>
<totfact> 0.48895799E+00</totfact>
</mgrwt>
</event>
<event>
 8    1  0.5815007E-006  0.1291676E+04  0.7818608E-02  0.8547165E-01
         21   -1    0    0  501  502  0.00000000000E+00  0.00000000000E+00  0.10951596559E+04  0.10951596559E+04  0.00000000000E+00 0. -1.
         21   -1    0    0  502  503 -0.00000000000E+00 -0.00000000000E+00 -0.17888068233E+04  0.17888068233E+04  0.00000000000E+00 0.  1.
   -9000010    2    1    2    0  503 -0.25707931568E+03  0.77247830222E+03 -0.95094766499E+03  0.16039724972E+04  0.10028029759E+04 0.  0.
    9000010    2    1    2  501    0  0.25707931568E+03 -0.77247830222E+03  0.25730049763E+03  0.12799939819E+04  0.95360817202E+03 0.  0.
        -13    1    4    4    0    0  0.66800840865E+02  0.14048666127E+03  0.30903304114E+03  0.34597729118E+03  0.10566000000E+00 0.  1.
          4    1    4    4  501    0  0.19027847482E+03 -0.91296496349E+03 -0.51732543508E+02  0.93401669074E+03  0.00000000000E+00 0.  1.
         13    1    3    3    0    0 -0.37644667559E+02 -0.11594074186E+03  0.13630436432E+03  0.18286133412E+03  0.10566000000E+00 0. -1.
         -4    1    3    3    0  503 -0.21943464812E+03  0.88841904408E+03 -0.10872520293E+04  0.14211111631E+04  0.00000000000E+00 0. -1.
<mgrwt>
<rscale>  2 0.12821179E+04</rscale>
<asrwt>0</asrwt>
<pdfrwt beam="1">  1       21 0.16848610E+00 0.12916758E+04</pdfrwt>
<pdfrwt beam="2">  1       21 0.27520105E+00 0.12916758E+04</pdfrwt>
<totfact> 0.32810172E+00</totfact>
</mgrwt>
</event>
<event>
 8    1  0.5815007E-006  0.1081536E+04  0.7818608E-02  0.8705807E-01
         21   -1    0    0  501  502  0.00000000000E+00  0.00000000000E+00  0.88182035589E+03  0.88182035589E+03  0.00000000000E+00 0. -1.
         21   -1    0    0  502  503 -0.00000000000E+00 -0.00000000000E+00 -0.13043910999E+04  0.13043910999E+04  0.00000000000E+00 0. -1.
   -9000010    2    1    2    0  503  0.17688689409E+03  0.32583205982E+03 -0.16990968397E+03  0.10948011349E+04  0.10160042913E+04 0.  0.
    9000010    2    1    2  501    0 -0.17688689409E+03 -0.32583205982E+03 -0.25266106004E+03  0.10914103208E+04  0.99492882795E+03 0.  0.
        -13    1    4    4    0    0 -0.16581228461E+03  0.31693087072E+03 -0.27026621208E+03  0.44831097142E+03  0.10566000000E+00 0.  1.
          4    1    4    4  501    0 -0.11074609476E+02 -0.64276293054E+03  0.17605152040E+02  0.64309934942E+03  0.00000000000E+00 0.  1.
         13    1    3    3    0    0  0.27831262534E+03  0.61391362041E+03  0.10705966052E+03  0.68250247826E+03  0.10566000000E+00 0. -1.
         -4    1    3    3    0  503 -0.10142573126E+03 -0.28808156059E+03 -0.27696934450E+03  0.41229865668E+03  0.00000000000E+00 0. -1.
<mgrwt>
<rscale>  2 0.10765583E+04</rscale>
<asrwt>0</asrwt>
<pdfrwt beam="1">  1       21 0.13566467E+00 0.10815360E+04</pdfrwt>
<pdfrwt beam="2">  1       21 0.20067555E+00 0.10815360E+04</pdfrwt>
<totfact> 0.23948500E+01</totfact>
</mgrwt>
</event>
<event>
 8    1  0.5815007E-006  0.1077868E+04  0.7818608E-02  0.8705825E-01
         21   -1    0    0  501  502  0.00000000000E+00  0.00000000000E+00  0.64196338197E+03  0.64196338197E+03  0.00000000000E+00 0. -1.
         21   -1    0    0  502  503 -0.00000000000E+00 -0.00000000000E+00 -0.18114864020E+04  0.18114864020E+04  0.00000000000E+00 0. -1.
   -9000010    2    1    2    0  503 -0.36209827514E+03 -0.16771752386E+03 -0.67730936825E+03  0.12685140774E+04  0.99555796197E+03 0.  0.
    9000010    2    1    2  501    0  0.36209827514E+03  0.16771752386E+03 -0.49221365177E+03  0.11849357065E+04  0.10012761961E+04 0.  0.
        -13    1    4    4    0    0  0.44568311305E+03 -0.17811336121E+03 -0.63974716305E+03  0.79977137389E+03  0.10566000000E+00 0.  1.
          4    1    4    4  501    0 -0.83584837913E+02  0.34583088507E+03  0.14753351128E+03  0.38516433265E+03  0.00000000000E+00 0.  1.
         13    1    3    3    0    0 -0.23993744145E+03  0.25799896404E+03  0.10663602754E+03  0.36810962334E+03  0.10566000000E+00 0. -1.
         -4    1    3    3    0  503 -0.12216083368E+03 -0.42571648791E+03 -0.78394539579E+03  0.90040445409E+03  0.00000000000E+00 0. -1.
<mgrwt>
<rscale>  2 0.10765376E+04</rscale>
<asrwt>0</asrwt>
<pdfrwt beam="1">  1       21 0.98763598E-01 0.10778675E+04</pdfrwt>
<pdfrwt beam="2">  1       21 0.27869021E+00 0.10778675E+04</pdfrwt>
<totfact> 0.15296792E+01</totfact>
</mgrwt>
</event>
<event>
 8    1  0.5815007E-006  0.1100844E+04  0.7818608E-02  0.8686127E-01
         21   -1    0    0  503  502  0.00000000000E+00  0.00000000000E+00  0.12516606965E+04  0.12516606965E+04  0.00000000000E+00 0.  1.
         21   -1    0    0  501  503 -0.00000000000E+00 -0.00000000000E+00 -0.16015602899E+04  0.16015602899E+04  0.00000000000E+00 0.  1.
    9000010    2    1    2  501    0 -0.46640459953E+03  0.85514827833E+02 -0.10745673845E+04  0.15352678448E+04  0.98868916016E+03 0.  0.
   -9000010    2    1    2    0  502  0.46640459953E+03 -0.85514827833E+02  0.72466779099E+03  0.13179531415E+04  0.99348429266E+03 0.  0.
        -13    1    3    3    0    0  0.66738610293E+02 -0.32924096929E+03 -0.66577186477E+03  0.74572504655E+03  0.10566000000E+00 0.  1.
          4    1    3    3  501    0 -0.53314320982E+03  0.41475579712E+03 -0.40879551970E+03  0.78954279830E+03  0.00000000000E+00 0.  1.
         13    1    4    4    0    0 -0.42181692573E+02 -0.71690909109E+02  0.79940334110E+03  0.80371922620E+03  0.10566000000E+00 0. -1.
         -4    1    4    4    0  502  0.50858629210E+03 -0.13823918724E+02 -0.74735550107E+02  0.51423391534E+03  0.00000000000E+00 0. -1.
<mgrwt>
<rscale>  2 0.10997608E+04</rscale>
<asrwt>0</asrwt>
<pdfrwt beam="1">  1       21 0.19256319E+00 0.11008438E+04</pdfrwt>
<pdfrwt beam="2">  1       21 0.24639389E+00 0.11008438E+04</pdfrwt>
<totfact> 0.35111617E+00</totfact>
</mgrwt>
</event>
<event>
 8    1  0.5815007E-006  0.1109170E+04  0.7818608E-02  0.8710815E-01
         21   -1    0    0  503  502  0.00000000000E+00  0.00000000000E+00  0.67150196217E+03  0.67150196217E+03  0.00000000000E+00 0.  1.
         21   -1    0    0  501  503 -0.00000000000E+00 -0.00000000000E+00 -0.17115905083E+04  0.17115905083E+04  0.00000000000E+00 0.  1.
    9000010    2    1    2  501    0 -0.43682940208E+03  0.20510695516E+03 -0.18102934559E+03  0.98015212682E+03  0.83368925755E+03 0.  0.
   -9000010    2    1    2    0  502  0.43682940208E+03 -0.20510695516E+03 -0.85905920058E+03  0.14029403437E+04  0.99868418846E+03 0.  0.
        -13    1    3    3    0    0 -0.44281873809E+03  0.41824328992E+03 -0.35495796913E+03  0.70499011013E+03  0.10566000000E+00 0.  1.
          4    1    3    3  501    0  0.59893360071E+01 -0.21313633476E+03  0.17392862354E+03  0.27516201669E+03  0.00000000000E+00 0.  1.
         13    1    4    4    0    0  0.43748093615E+03 -0.99490328190E+02  0.81905815269E+02  0.45606629851E+03  0.10566000000E+00 0. -1.
         -4    1    4    4    0  502 -0.65153406927E+00 -0.10561662697E+03 -0.94096501585E+03  0.94687404518E+03  0.00000000000E+00 0. -1.
<mgrwt>
<rscale>  2 0.10707495E+04</rscale>
<asrwt>0</asrwt>
<pdfrwt beam="1">  1       21 0.10330799E+00 0.11091704E+04</pdfrwt>
<pdfrwt beam="2">  1       21 0.26332162E+00 0.11091704E+04</pdfrwt>
<totfact> 0.17390797E+01</totfact>
</mgrwt>
</event>
<event>
 8    1  0.5815007E-006  0.1226026E+04  0.7818608E-02  0.8588824E-01
         21   -1    0    0  501  502  0.00000000000E+00  0.00000000000E+00  0.16489661519E+04  0.16489661519E+04  0.00000000000E+00 0. -1.
         21   -1    0    0  502  503 -0.00000000000E+00 -0.00000000000E+00 -0.12623973294E+04  0.12623973294E+04  0.00000000000E+00 0. -1.
   -9000010    2    1    2    0  503  0.15033828260E+03  0.68677926604E+03 -0.58065853445E+03  0.13565780280E+04  0.10044263303E+04 0.  0.
    9000010    2    1    2  501    0 -0.15033828260E+03 -0.68677926604E+03  0.96722735694E+03  0.15547854532E+04  0.99376138285E+03 0.  0.
        -13    1    4    4    0    0 -0.30735795889E+03 -0.56023372986E+02 -0.79751979294E+02  0.32244057216E+03  0.10566000000E+00 0.  1.
          4    1    4    4  501    0  0.15701967628E+03 -0.63075589306E+03  0.10469793362E+04  0.12323448811E+04  0.00000000000E+00 0.  1.
         13    1    3    3    0    0  0.18619479997E+03  0.81006851694E+03 -0.74654153718E+02  0.83453745242E+03  0.10566000000E+00 0. -1.
         -4    1    3    3    0  503 -0.35856517362E+02 -0.12328925089E+03 -0.50600438073E+03  0.52204057557E+03  0.00000000000E+00 0. -1.
<mgrwt>
<rscale>  2 0.12238396E+04</rscale>
<asrwt>0</asrwt>
<pdfrwt beam="1">  1       21 0.25368710E+00 0.12260259E+04</pdfrwt>
<pdfrwt beam="2">  1       21 0.19421497E+00 0.12260259E+04</pdfrwt>
<totfact> 0.29297535E+00</totfact>
</mgrwt>
</event>
<event>
 8    1  0.5815007E-006  0.1108192E+04  0.7818608E-02  0.8680654E-01
         21   -1    0    0  501  502  0.00000000000E+00  0.00000000000E+00  0.12565937307E+04  0.12565937307E+04  0.00000000000E+00 0. -1.
         21   -1    0    0  502  503 -0.00000000000E+00 -0.00000000000E+00 -0.99613460109E+03  0.99613460109E+03  0.00000000000E+00 0. -1.
   -9000010    2    1    2    0  503  0.43554076099E+03  0.19648668727E+03  0.30962475788E+03  0.11434460926E+04  0.99161419073E+03 0.  0.
    9000010    2    1    2  501    0 -0.43554076099E+03 -0.19648668727E+03 -0.49165628281E+02  0.11092822392E+04  0.99989352152E+03 0.  0.
        -13    1    4    4    0    0 -0.14710199253E+03  0.29164651307E+03  0.29991978075E+03  0.44345075357E+03  0.10566000000E+00 0.  1.
          4    1    4    4  501    0 -0.28843876845E+03 -0.48813320033E+03 -0.34908540903E+03  0.66583148560E+03  0.00000000000E+00 0.  1.
         13    1    3    3    0    0  0.42050864429E+03  0.51971670863E+03  0.43370802726E+03  0.79689123550E+03  0.10566000000E+00 0. -1.
         -4    1    3    3    0  503  0.15032116696E+02 -0.32323002136E+03 -0.12408326938E+03  0.34655485710E+03  0.00000000000E+00 0. -1.
<mgrwt>
<rscale>  2 0.11063213E+04</rscale>
<asrwt>0</asrwt>
<pdfrwt beam="1">  1       21 0.19332211E+00 0.11081921E+04</pdfrwt>
<pdfrwt beam="2">  1       21 0.15325148E+00 0.11081921E+04</pdfrwt>
<totfact> 0.18806821E+01</totfact>
</mgrwt>
</event>
<event>
 8    1  0.5815007E-006  0.1168718E+04  0.7818608E-02  0.8632417E-01
         21   -1    0    0  501  502  0.00000000000E+00  0.00000000000E+00  0.14789985339E+04  0.14789985339E+04  0.00000000000E+00 0. -1.
         21   -1    0    0  502  503 -0.00000000000E+00 -0.00000000000E+00 -0.11655293776E+04  0.11655293776E+04  0.00000000000E+00 0. -1.
   -9000010    2    1    2    0  503 -0.44430109645E+03 -0.41620511400E+03 -0.45481799864E+03  0.12540975218E+04  0.99763270855E+03 0.  0.
    9000010    2    1    2  501    0  0.44430109645E+03  0.41620511400E+03  0.76828715492E+03  0.13904303896E+04  0.98610412975E+03 0.  0.
        -13    1    4    4    0    0  0.20952271919E+03 -0.31763086547E+03  0.33208616291E+03  0.50504491614E+03  0.10566000000E+00 0.  1.
          4    1    4    4  501    0  0.23477837726E+03  0.73383597948E+03  0.43620099202E+03  0.88538547347E+03  0.00000000000E+00 0.  1.
         13    1    3    3    0    0  0.15437626714E+03  0.21177387758E+03  0.23918169266E+02  0.26315831180E+03  0.10566000000E+00 0. -1.
         -4    1    3    3    0  503 -0.59867736359E+03 -0.62797899158E+03 -0.47873616790E+03  0.99093921005E+03  0.00000000000E+00 0. -1.
<mgrwt>
<rscale>  2 0.11662536E+04</rscale>
<asrwt>0</asrwt>
<pdfrwt beam="1">  1       21 0.22753824E+00 0.11687178E+04</pdfrwt>
<pdfrwt beam="2">  1       21 0.17931221E+00 0.11687178E+04</pdfrwt>
<totfact> 0.60907892E+00</totfact>
</mgrwt>
</event>
<event>
 8    1  0.5815007E-006  0.1041528E+04  0.7818608E-02  0.8736918E-01
         21   -1    0    0  503  502  0.00000000000E+00  0.00000000000E+00  0.69610295452E+03  0.69610295452E+03  0.00000000000E+00 0.  1.
         21   -1    0    0  501  503 -0.00000000000E+00 -0.00000000000E+00 -0.16364488313E+04  0.16364488313E+04  0.00000000000E+00 0.  1.
    9000010    2    1    2  501    0 -0.29962060293E+03 -0.13398628344E+03 -0.72960504473E+03  0.12716540894E+04  0.98846131530E+03 0.  0.
   -9000010    2    1    2    0  502  0.29962060293E+03  0.13398628344E+03 -0.21074083209E+03  0.10608976965E+04  0.98659383451E+03 0.  0.
        -13    1    3    3    0    0 -0.54856637963E+03 -0.21222246988E+03 -0.10870542308E+03  0.59814741474E+03  0.10566000000E+00 0.  1.
          4    1    3    3  501    0  0.24894577670E+03  0.78236186444E+02 -0.62089962164E+03  0.67350667462E+03  0.00000000000E+00 0.  1.
         13    1    4    4    0    0 -0.19394211529E+03  0.14479807061E+03  0.27636168576E+03  0.36736333221E+03  0.10566000000E+00 0. -1.
         -4    1    4    4    0  502  0.49356271822E+03 -0.10811787171E+02 -0.48710251785E+03  0.69353436429E+03  0.00000000000E+00 0. -1.
<mgrwt>
<rscale>  2 0.10410847E+04</rscale>
<asrwt>0</asrwt>
<pdfrwt beam="1">  1       21 0.10709276E+00 0.10415280E+04</pdfrwt>
<pdfrwt beam="2">  1       21 0.25176136E+00 0.10415280E+04</pdfrwt>
<totfact> 0.19439408E+01</totfact>
</mgrwt>
</event>
<event>
 8    1  0.5815007E-006  0.1122751E+04  0.7818608E-02  0.8670119E-01
         21   -1    0    0  501  502  0.00000000000E+00  0.00000000000E+00  0.13462352126E+04  0.13462352126E+04  0.00000000000E+00 0.  1.
         21   -1    0    0  502  503 -0.00000000000E+00 -0.00000000000E+00 -0.93853739201E+03  0.93853739201E+03  0.00000000000E+00 0.  1.
   -9000010    2    1    2    0  503  0.32440850168E+03  0.38583053353E+03  0.61507711798E+02  0.11098613253E+04  0.98686518135E+03 0.  0.
    9000010    2    1    2  501    0 -0.32440850168E+03 -0.38583053353E+03  0.34619010880E+03  0.11749112793E+04  0.10032262189E+04 0.  0.
        -13    1    4    4    0    0 -0.39902321142E+03 -0.38845947987E+03  0.65353958617E+03  0.85862348711E+03  0.10566000000E+00 0.  1.
          4    1    4    4  501    0  0.74614709745E+02  0.26289463404E+01 -0.30734947738E+03  0.31628779223E+03  0.00000000000E+00 0.  1.
         13    1    3    3    0    0  0.36520118097E+02  0.18285718504E+03  0.50800438561E+03  0.54114594714E+03  0.10566000000E+00 0. -1.
         -4    1    3    3    0  503  0.28788838358E+03  0.20297334850E+03 -0.44649667381E+03  0.56871537813E+03  0.00000000000E+00 0. -1.
<mgrwt>
<rscale>  2 0.11190839E+04</rscale>
<asrwt>0</asrwt>
<pdfrwt beam="1">  1       21 0.20711311E+00 0.11227506E+04</pdfrwt>
<pdfrwt beam="2">  1       21 0.14439037E+00 0.11227506E+04</pdfrwt>
<totfact> 0.17568623E+01</totfact>
</mgrwt>
</event>
<event>
 8    1  0.5815007E-006  0.1003596E+04  0.7818608E-02  0.8785204E-01
         21   -1    0    0  503  502  0.00000000000E+00  0.00000000000E+00  0.70927753471E+03  0.70927753471E+03  0.00000000000E+00 0.  1.
         21   -1    0    0  501  503 -0.00000000000E+00 -0.00000000000E+00 -0.13400485793E+04  0.13400485793E+04  0.00000000000E+00 0.  1.
    9000010    2    1    2  501    0 -0.16807661707E+03 -0.11568074593E+03 -0.33151295477E+03  0.10020624276E+04  0.92336151391E+03 0.  0.
   -9000010    2    1    2    0  502  0.16807661707E+03  0.11568074593E+03 -0.29925808981E+03  0.10472636864E+04  0.98263627066E+03 0.  0.
        -13    1    3    3    0    0  0.19231341637E+03 -0.39461577035E+03 -0.32516090318E+03  0.54629266922E+03  0.10566000000E+00 0.  1.
          4    1    3    3  501    0 -0.36039003344E+03  0.27893502442E+03 -0.63520515891E+01  0.45576975834E+03  0.00000000000E+00 0.  1.
         13    1    4    4    0    0  0.25871877875E+03 -0.31772731366E+03  0.13069478485E+03  0.43007812113E+03  0.10566000000E+00 0. -1.
         -4    1    4    4    0  502 -0.90642161685E+02  0.43340805959E+03 -0.42995287466E+03  0.61718556530E+03  0.00000000000E+00 0. -1.
<mgrwt>
<rscale>  2 0.98878162E+03</rscale>
<asrwt>0</asrwt>
<pdfrwt beam="1">  1       21 0.10911962E+00 0.10035964E+04</pdfrwt>
<pdfrwt beam="2">  1       21 0.20616132E+00 0.10035964E+04</pdfrwt>
<totfact> 0.40781546E+01</totfact>
</mgrwt>
</event>
<event>
 8    1  0.5815007E-006  0.1041727E+04  0.7818608E-02  0.8749292E-01
         21   -1    0    0  503  502  0.00000000000E+00  0.00000000000E+00  0.12666311215E+04  0.12666311215E+04  0.00000000000E+00 0. -1.
         21   -1    0    0  501  503 -0.00000000000E+00 -0.00000000000E+00 -0.81456471188E+03  0.81456471188E+03  0.00000000000E+00 0. -1.
    9000010    2    1    2  501    0 -0.17496770781E+03  0.15727256038E+03  0.28746449946E+03  0.10265443554E+04  0.95697916289E+03 0.  0.
   -9000010    2    1    2    0  502  0.17496770781E+03 -0.15727256038E+03  0.16460191016E+03  0.10546514779E+04  0.10148140687E+04 0.  0.
        -13    1    3    3    0    0  0.33418635956E+03 -0.13225430902E+03  0.25356311827E+03  0.43984769100E+03  0.10566000000E+00 0.  1.
          4    1    3    3  501    0 -0.50915406736E+03  0.28952686940E+03  0.33901381190E+02  0.58669666444E+03  0.00000000000E+00 0.  1.
         13    1    4    4    0    0  0.90006334407E+01 -0.54060491634E+03 -0.11397469990E+03  0.55256215067E+03  0.10566000000E+00 0. -1.
         -4    1    4    4    0  502  0.16596707437E+03  0.38333235595E+03  0.27857661006E+03  0.50208932728E+03  0.00000000000E+00 0. -1.
<mgrwt>
<rscale>  2 0.10273697E+04</rscale>
<asrwt>0</asrwt>
<pdfrwt beam="1">  1       21 0.19486633E+00 0.10417274E+04</pdfrwt>
<pdfrwt beam="2">  1       21 0.12531765E+00 0.10417274E+04</pdfrwt>
<totfact> 0.33752083E+01</totfact>
</mgrwt>
</event>
<event>
 8    1  0.5815007E-006  0.1103007E+04  0.7818608E-02  0.8685126E-01
         21   -1    0    0  503  502  0.00000000000E+00  0.00000000000E+00  0.19507441714E+04  0.19507441714E+04  0.00000000000E+00 0.  1.
         21   -1    0    0  501  503 -0.00000000000E+00 -0.00000000000E+00 -0.63782030696E+03  0.63782030696E+03  0.00000000000E+00 0.  1.
    9000010    2    1    2  501    0  0.18402563617E+03  0.43456850268E+03  0.88081363593E+03  0.14115438448E+04  0.99694942014E+03 0.  0.
   -9000010    2    1    2    0  502 -0.18402563617E+03 -0.43456850268E+03  0.43211022846E+03  0.11770206335E+04  0.98789832667E+03 0.  0.
        -13    1    3    3    0    0 -0.96333940408E+02  0.48009676203E+03  0.99220046997E+03  0.11064514959E+04  0.10566000000E+00 0.  1.
          4    1    3    3  501    0  0.28035957658E+03 -0.45528259357E+02 -0.11138683404E+03  0.30509234893E+03  0.00000000000E+00 0.  1.
         13    1    4    4    0    0 -0.20643077215E+02 -0.57540884133E+03 -0.11657081667E+03  0.58746083936E+03  0.10566000000E+00 0. -1.
         -4    1    4    4    0  502 -0.16338255895E+03  0.14084033866E+03  0.54868104514E+03  0.58955979413E+03  0.00000000000E+00 0. -1.
<mgrwt>
<rscale>  2 0.11009573E+04</rscale>
<asrwt>0</asrwt>
<pdfrwt beam="1">  1       21 0.30011449E+00 0.11030065E+04</pdfrwt>
<pdfrwt beam="2">  1       21 0.98126202E-01 0.11030065E+04</pdfrwt>
<totfact> 0.10900532E+01</totfact>
</mgrwt>
</event>
<event>
 8    1  0.5815007E-006  0.1076287E+04  0.7818608E-02  0.8716791E-01
         21   -1    0    0  503  502  0.00000000000E+00  0.00000000000E+00  0.70948140523E+03  0.70948140523E+03  0.00000000000E+00 0. -1.
         21   -1    0    0  501  503 -0.00000000000E+00 -0.00000000000E+00 -0.16826470732E+04  0.16826470732E+04  0.00000000000E+00 0. -1.
    9000010    2    1    2  501    0 -0.32638108183E+03 -0.21559474502E+03 -0.82052631916E+03  0.13533870940E+04  0.10026901221E+04 0.  0.
   -9000010    2    1    2    0  502  0.32638108183E+03  0.21559474502E+03 -0.15263934881E+03  0.10387413844E+04  0.95009430495E+03 0.  0.
        -13    1    3    3    0    0 -0.59399323797E+03  0.15994111719E+03 -0.46708294254E+03  0.77238307471E+03  0.10566000000E+00 0.  1.
          4    1    3    3  501    0  0.26761215614E+03 -0.37553586222E+03 -0.35344337662E+03  0.58100401926E+03  0.00000000000E+00 0.  1.
         13    1    4    4    0    0  0.79661531233E+02 -0.51722889993E+02 -0.51594851404E+03  0.52461804888E+03  0.10566000000E+00 0. -1.
         -4    1    4    4    0  502  0.24671955059E+03  0.26731763502E+03  0.36330916523E+03  0.51412333557E+03  0.00000000000E+00 0. -1.
<mgrwt>
<rscale>  2 0.10638681E+04</rscale>
<asrwt>0</asrwt>
<pdfrwt beam="1">  1       21 0.10915099E+00 0.10762868E+04</pdfrwt>
<pdfrwt beam="2">  1       21 0.25886878E+00 0.10762868E+04</pdfrwt>
<totfact> 0.16277922E+01</totfact>
</mgrwt>
</event>
<event>
 8    1  0.5815007E-006  0.1365089E+04  0.7818608E-02  0.8494066E-01
         21   -1    0    0  501  502  0.00000000000E+00  0.00000000000E+00  0.28924787528E+04  0.28924787528E+04  0.00000000000E+00 0. -1.
         21   -1    0    0  502  503 -0.00000000000E+00 -0.00000000000E+00 -0.66100756887E+03  0.66100756887E+03  0.00000000000E+00 0.  1.
   -9000010    2    1    2    0  503  0.43653534464E+03  0.80533503372E+03  0.78450333528E+03  0.15744566279E+04  0.10120971132E+04 0.  0.
    9000010    2    1    2  501    0 -0.43653534464E+03 -0.80533503372E+03  0.14469678487E+04  0.19790296938E+04  0.99182405200E+03 0.  0.
        -13    1    4    4    0    0  0.17446248401E+03 -0.57534572834E+03  0.33148015365E+03  0.68654130894E+03  0.10566000000E+00 0.  1.
          4    1    4    4  501    0 -0.61099782865E+03 -0.22998930538E+03  0.11154876951E+04  0.12924883849E+04  0.00000000000E+00 0.  1.
         13    1    3    3    0    0  0.56526452438E+03  0.63315936773E+03  0.97203912181E+02  0.85432041950E+03  0.10566000000E+00 0. -1.
         -4    1    3    3    0  503 -0.12872917974E+03  0.17217566600E+03  0.68729942310E+03  0.72013620842E+03  0.00000000000E+00 0. -1.
<mgrwt>
<rscale>  2 0.13613331E+04</rscale>
<asrwt>0</asrwt>
<pdfrwt beam="1">  1       21 0.44499672E+00 0.13650891E+04</pdfrwt>
<pdfrwt beam="2">  1       21 0.10169347E+00 0.13650891E+04</pdfrwt>
<totfact> 0.91727981E-01</totfact>
</mgrwt>
</event>
<event>
 8    1  0.5815007E-006  0.1405146E+04  0.7818608E-02  0.8467139E-01
         21   -1    0    0  501  502  0.00000000000E+00  0.00000000000E+00  0.11608534169E+04  0.11608534169E+04  0.00000000000E+00 0. -1.
         21   -1    0    0  502  503 -0.00000000000E+00 -0.00000000000E+00 -0.22973866625E+04  0.22973866625E+04  0.00000000000E+00 0.  1.
   -9000010    2    1    2    0  503  0.97321696737E+03  0.98405730086E+02 -0.14551683654E+04  0.20228570596E+04  0.10087619929E+04 0.  0.
    9000010    2    1    2  501    0 -0.97321696737E+03 -0.98405730086E+02  0.31863511984E+03  0.14353830198E+04  0.10009800801E+04 0.  0.
        -13    1    4    4    0    0 -0.11700585604E+04  0.14681059893E+02  0.29756969868E+03  0.12073940140E+04  0.10566000000E+00 0.  1.
          4    1    4    4  501    0  0.19684159304E+03 -0.11308678998E+03  0.21065421156E+02  0.22798900585E+03  0.00000000000E+00 0.  1.
         13    1    3    3    0    0  0.91618634575E+02  0.13847373497E+02  0.15765398410E+03  0.18286747612E+03  0.10566000000E+00 0. -1.
         -4    1    3    3    0  503  0.88159833280E+03  0.84558356589E+02 -0.16128223495E+04  0.18399895835E+04  0.00000000000E+00 0. -1.
<mgrwt>
<rscale>  2 0.14037500E+04</rscale>
<asrwt>0</asrwt>
<pdfrwt beam="1">  1       21 0.17859283E+00 0.14051462E+04</pdfrwt>
<pdfrwt beam="2">  1       21 0.35344410E+00 0.14051462E+04</pdfrwt>
<totfact> 0.74036802E-01</totfact>
</mgrwt>
</event>
<event>
 8    1  0.5815007E-006  0.1343524E+04  0.7818608E-02  0.8513359E-01
         21   -1    0    0  501  502  0.00000000000E+00  0.00000000000E+00  0.22434740518E+04  0.22434740518E+04  0.00000000000E+00 0.  1.
         21   -1    0    0  502  503 -0.00000000000E+00 -0.00000000000E+00 -0.89550993982E+03  0.89550993982E+03  0.00000000000E+00 0.  1.
   -9000010    2    1    2    0  503  0.57938661624E+03  0.93936550774E+01  0.93645083518E+02  0.13009492687E+04  0.11610006487E+04 0.  0.
    9000010    2    1    2  501    0 -0.57938661624E+03 -0.93936550774E+01  0.12543190285E+04  0.18380347229E+04  0.12121379152E+04 0.  0.
        -13    1    4    4    0    0 -0.94993029867E+03  0.61650034820E+02  0.77165696616E+03  0.12254071910E+04  0.10566000000E+00 0.  1.
          4    1    4    4  501    0  0.37054368243E+03 -0.71043689898E+02  0.48266206231E+03  0.61262753191E+03  0.00000000000E+00 0.  1.
         13    1    3    3    0    0  0.68220314513E+03  0.19760779212E+03 -0.36212891266E+03  0.79723731177E+03  0.10566000000E+00 0. -1.
         -4    1    3    3    0  503 -0.10281652889E+03 -0.18821413704E+03  0.45577399618E+03  0.50371195696E+03  0.00000000000E+00 0. -1.
<mgrwt>
<rscale>  2 0.13318859E+04</rscale>
<asrwt>0</asrwt>
<pdfrwt beam="1">  1       21 0.34514985E+00 0.13435235E+04</pdfrwt>
<pdfrwt beam="2">  1       21 0.13777076E+00 0.13435235E+04</pdfrwt>
<totfact> 0.19495105E+00</totfact>
</mgrwt>
</event>
<event>
 8    1  0.5815007E-006  0.1199467E+04  0.7818608E-02  0.8609806E-01
         21   -1    0    0  501  502  0.00000000000E+00  0.00000000000E+00  0.11368769336E+04  0.11368769336E+04  0.00000000000E+00 0. -1.
         21   -1    0    0  502  503 -0.00000000000E+00 -0.00000000000E+00 -0.13846363708E+04  0.13846363708E+04  0.00000000000E+00 0. -1.
   -9000010    2    1    2    0  503 -0.35600269561E+03 -0.53094158466E+03 -0.51809316215E+03  0.13065763543E+04  0.10149307166E+04 0.  0.
    9000010    2    1    2  501    0  0.35600269561E+03  0.53094158466E+03  0.27033372492E+03  0.12149369501E+04  0.99717329697E+03 0.  0.
        -13    1    4    4    0    0 -0.37438917311E+02  0.73863166514E+03  0.17043693884E+03  0.75896453841E+03  0.10566000000E+00 0.  1.
          4    1    4    4  501    0  0.39344161292E+03 -0.20769008049E+03  0.99896786081E+02  0.45597241165E+03  0.00000000000E+00 0.  1.
         13    1    3    3    0    0 -0.30573224330E+03  0.24907662155E+03 -0.29878520933E+03  0.49475648604E+03  0.10566000000E+00 0. -1.
         -4    1    3    3    0  503 -0.50270452309E+02 -0.78001820621E+03 -0.21930795282E+03  0.81181986830E+03  0.00000000000E+00 0. -1.
<mgrwt>
<rscale>  2 0.11957025E+04</rscale>
<asrwt>0</asrwt>
<pdfrwt beam="1">  1       21 0.17490414E+00 0.11994671E+04</pdfrwt>
<pdfrwt beam="2">  1       21 0.21302098E+00 0.11994671E+04</pdfrwt>
<totfact> 0.84672548E+00</totfact>
</mgrwt>
</event>
<event>
 8    1  0.5815007E-006  0.1157737E+04  0.7818608E-02  0.8654931E-01
         21   -1    0    0  501  502  0.00000000000E+00  0.00000000000E+00  0.20882500443E+04  0.20882500443E+04  0.00000000000E+00 0.  1.
         21   -1    0    0  502  503 -0.00000000000E+00 -0.00000000000E+00 -0.60033481985E+03  0.60033481985E+03  0.00000000000E+00 0.  1.
   -9000010    2    1    2    0  503  0.38846823541E+03  0.65698568040E+02  0.66800705809E+03  0.12699223612E+04  0.10056070316E+04 0.  0.
    9000010    2    1    2  501    0 -0.38846823541E+03 -0.65698568040E+02  0.81990816636E+03  0.14186625029E+04  0.10886367733E+04 0.  0.
        -13    1    4    4    0    0 -0.32969280115E+03  0.40823872793E+02 -0.20248544316E+03  0.38905564843E+03  0.10566000000E+00 0.  1.
          4    1    4    4  501    0 -0.58775434263E+02 -0.10652244083E+03  0.10223936095E+04  0.10296068545E+04  0.00000000000E+00 0.  1.
         13    1    3    3    0    0  0.18322829350E+03 -0.41359910835E+03  0.40657721187E+02  0.45419147000E+03  0.10566000000E+00 0. -1.
         -4    1    3    3    0  503  0.20523994192E+03  0.47929767639E+03  0.62734933690E+03  0.81573089120E+03  0.00000000000E+00 0. -1.
<mgrwt>
<rscale>  2 0.11378014E+04</rscale>
<asrwt>0</asrwt>
<pdfrwt beam="1">  1       21 0.32126923E+00 0.11577365E+04</pdfrwt>
<pdfrwt beam="2">  1       21 0.92359204E-01 0.11577365E+04</pdfrwt>
<totfact> 0.89316481E+00</totfact>
</mgrwt>
</event>
<event>
 8    1  0.5815007E-006  0.1168425E+04  0.7818608E-02  0.8632340E-01
         21   -1    0    0  501  502  0.00000000000E+00  0.00000000000E+00  0.81881446476E+03  0.81881446476E+03  0.00000000000E+00 0. -1.
         21   -1    0    0  502  503 -0.00000000000E+00 -0.00000000000E+00 -0.16850784133E+04  0.16850784133E+04  0.00000000000E+00 0. -1.
   -9000010    2    1    2    0  503  0.25615246663E+03 -0.52256625245E+03 -0.26583661953E+03  0.11902225965E+04  0.10036289885E+04 0.  0.
    9000010    2    1    2  501    0 -0.25615246663E+03  0.52256625245E+03 -0.60042732898E+03  0.13136702815E+04  0.10131767155E+04 0.  0.
        -13    1    4    4    0    0 -0.26129398124E+03  0.73616391476E+03 -0.72549850505E+03  0.10660956552E+04  0.10566000000E+00 0.  1.
          4    1    4    4  501    0  0.51415146046E+01 -0.21359766230E+03  0.12507117607E+03  0.24757462632E+03  0.00000000000E+00 0.  1.
         13    1    3    3    0    0  0.19234461861E+03  0.95966632864E+02  0.28673622849E+03  0.35836255778E+03  0.10566000000E+00 0. -1.
         -4    1    3    3    0  503  0.63807848026E+02 -0.61853288532E+03 -0.55257284802E+03  0.83186003874E+03  0.00000000000E+00 0. -1.
<mgrwt>
<rscale>  2 0.11663520E+04</rscale>
<asrwt>0</asrwt>
<pdfrwt beam="1">  1       21 0.12597146E+00 0.11684249E+04</pdfrwt>
<pdfrwt beam="2">  1       21 0.25924283E+00 0.11684249E+04</pdfrwt>
<totfact> 0.10650768E+01</totfact>
</mgrwt>
</event>
<event>
 8    1  0.5815007E-006  0.1106907E+04  0.7818608E-02  0.8681726E-01
         21   -1    0    0  501  502  0.00000000000E+00  0.00000000000E+00  0.81451204430E+03  0.81451204430E+03  0.00000000000E+00 0. -1.
         21   -1    0    0  502  503 -0.00000000000E+00 -0.00000000000E+00 -0.15394656885E+04  0.15394656885E+04  0.00000000000E+00 0. -1.
   -9000010    2    1    2    0  503  0.40162508643E+03  0.18525452108E+03 -0.56567198039E+03  0.12430717248E+04  0.10147022105E+04 0.  0.
    9000010    2    1    2  501    0 -0.40162508643E+03 -0.18525452108E+03 -0.15928166380E+03  0.11109060080E+04  0.10065384059E+04 0.  0.
        -13    1    4    4    0    0  0.35953069233E+02  0.25236176769E-01 -0.51567069572E+03  0.51692252941E+03  0.10566000000E+00 0.  1.
          4    1    4    4  501    0 -0.43757815567E+03 -0.18527975726E+03  0.35638903192E+03  0.59398347859E+03  0.00000000000E+00 0.  1.
         13    1    3    3    0    0 -0.15277073243E+03 -0.19903813910E+03  0.12268104949E+03  0.27929505648E+03  0.10566000000E+00 0. -1.
         -4    1    3    3    0  503  0.55439581886E+03  0.38429266018E+03 -0.68835302988E+03  0.96377666832E+03  0.00000000000E+00 0. -1.
<mgrwt>
<rscale>  2 0.11050322E+04</rscale>
<asrwt>0</asrwt>
<pdfrwt beam="1">  1       21 0.12530955E+00 0.11069067E+04</pdfrwt>
<pdfrwt beam="2">  1       21 0.23684087E+00 0.11069067E+04</pdfrwt>
<totfact> 0.15960679E+01</totfact>
</mgrwt>
</event>
<event>
 8    1  0.5815007E-006  0.1219418E+04  0.7818608E-02  0.8593962E-01
         21   -1    0    0  501  502  0.00000000000E+00  0.00000000000E+00  0.83384058069E+03  0.83384058069E+03  0.00000000000E+00 0. -1.
         21   -1    0    0  502  503 -0.00000000000E+00 -0.00000000000E+00 -0.18195434348E+04  0.18195434348E+04  0.00000000000E+00 0. -1.
   -9000010    2    1    2    0  503 -0.35163469361E+02  0.69325033018E+03 -0.26862758678E+03  0.12387543553E+04  0.99021163518E+03 0.  0.
    9000010    2    1    2  501    0  0.35163469361E+02 -0.69325033018E+03 -0.71707526733E+03  0.14146296602E+04  0.10025705195E+04 0.  0.
        -13    1    4    4    0    0  0.27136617227E+03 -0.14560489853E+03  0.16535931995E+03  0.34954842552E+03  0.10566000000E+00 0.  1.
          4    1    4    4  501    0 -0.23620270290E+03 -0.54764543166E+03 -0.88243458727E+03  0.10650812347E+04  0.00000000000E+00 0.  1.
         13    1    3    3    0    0 -0.49466733444E+03  0.31410184900E+03 -0.26477376625E+03  0.64300925481E+03  0.10566000000E+00 0. -1.
         -4    1    3    3    0  503  0.45950386508E+03  0.37914848118E+03 -0.38538205323E+01  0.59574510047E+03  0.00000000000E+00 0. -1.
<mgrwt>
<rscale>  2 0.12168748E+04</rscale>
<asrwt>0</asrwt>
<pdfrwt beam="1">  1       21 0.12828317E+00 0.12194179E+04</pdfrwt>
<pdfrwt beam="2">  1       21 0.27992976E+00 0.12194179E+04</pdfrwt>
<totfact> 0.71072637E+00</totfact>
</mgrwt>
</event>
<event>
 8    1  0.5815007E-006  0.1080046E+04  0.7818608E-02  0.8710173E-01
         21   -1    0    0  501  502  0.00000000000E+00  0.00000000000E+00  0.24588920843E+04  0.24588920843E+04  0.00000000000E+00 0. -1.
         21   -1    0    0  502  503 -0.00000000000E+00 -0.00000000000E+00 -0.46099906858E+03  0.46099906858E+03  0.00000000000E+00 0. -1.
   -9000010    2    1    2    0  503 -0.24955927816E+03 -0.33603931663E+03  0.10615907139E+04  0.14904992321E+04  0.95885914573E+03 0.  0.
    9000010    2    1    2  501    0  0.24955927816E+03  0.33603931663E+03  0.93630230182E+03  0.14293919208E+04  0.99563899442E+03 0.  0.
        -13    1    4    4    0    0 -0.35870187424E+03  0.21594413827E+03  0.57667466397E+03  0.71263776540E+03  0.10566000000E+00 0.  1.
          4    1    4    4  501    0  0.60826115240E+03  0.12009517836E+03  0.35962763784E+03  0.71675415540E+03  0.00000000000E+00 0.  1.
         13    1    3    3    0    0 -0.42471783992E+03 -0.30412665588E+03  0.11705090289E+04  0.12817837822E+04  0.10566000000E+00 0. -1.
         -4    1    3    3    0  503  0.17515856177E+03 -0.31912660743E+02 -0.10891831501E+03  0.20871544989E+03  0.00000000000E+00 0. -1.
<mgrwt>
<rscale>  2 0.10714928E+04</rscale>
<asrwt>0</asrwt>
<pdfrwt beam="1">  1       21 0.37829108E+00 0.10800460E+04</pdfrwt>
<pdfrwt beam="2">  1       21 0.70922935E-01 0.10800460E+04</pdfrwt>
<totfact> 0.69375005E+00</totfact>
</mgrwt>
</event>
<event>
 8    1  0.5815007E-006  0.1543546E+04  0.7818608E-02  0.8385036E-01
         21   -1    0    0  503  502  0.00000000000E+00  0.00000000000E+00  0.12349664724E+04  0.12349664724E+04  0.00000000000E+00 0.  1.
         21   -1    0    0  501  503 -0.00000000000E+00 -0.00000000000E+00 -0.19282710478E+04  0.19282710478E+04  0.00000000000E+00 0. -1.
    9000010    2    1    2  501    0  0.11669828161E+04 -0.17678901915E+03 -0.32042252256E+03  0.15764535587E+04  0.99470195504E+03 0.  0.
   -9000010    2    1    2    0  502 -0.11669828161E+04  0.17678901915E+03 -0.37288205278E+03  0.15867839616E+04  0.99284392787E+03 0.  0.
        -13    1    3    3    0    0  0.10765800266E+04  0.11140809778E+03 -0.53364039905E+03  0.12067346040E+04  0.10566000000E+00 0.  1.
          4    1    3    3  501    0  0.90402789454E+02 -0.28819711693E+03  0.21321787649E+03  0.36971895461E+03  0.00000000000E+00 0.  1.
         13    1    4    4    0    0 -0.95450165285E+03  0.24957010905E+03  0.16830415597E+03  0.10008421178E+04  0.10566000000E+00 0. -1.
         -4    1    4    4    0  502 -0.21248116322E+03 -0.72781089903E+02 -0.54118620875E+03  0.58594184379E+03  0.00000000000E+00 0. -1.
<mgrwt>
<rscale>  2 0.15432471E+04</rscale>
<asrwt>0</asrwt>
<pdfrwt beam="1">  1       21 0.18999484E+00 0.15435463E+04</pdfrwt>
<pdfrwt beam="2">  1       21 0.29665708E+00 0.15435463E+04</pdfrwt>
<totfact> 0.14652894E+00</totfact>
</mgrwt>
</event>
<event>
 8    1  0.5815007E-006  0.1061782E+04  0.7818608E-02  0.8727901E-01
         21   -1    0    0  501  502  0.00000000000E+00  0.00000000000E+00  0.96394653742E+03  0.96394653742E+03  0.00000000000E+00 0.  1.
         21   -1    0    0  502  503 -0.00000000000E+00 -0.00000000000E+00 -0.13097454331E+04  0.13097454331E+04  0.00000000000E+00 0.  1.
   -9000010    2    1    2    0  503  0.36539353972E+03 -0.51236751231E+02 -0.59781848058E+03  0.11824106719E+04  0.95108906925E+03 0.  0.
    9000010    2    1    2  501    0 -0.36539353972E+03  0.51236751231E+02  0.25201958488E+03  0.10912812987E+04  0.99561205203E+03 0.  0.
        -13    1    4    4    0    0  0.32249683443E+03 -0.78496858473E+02  0.20405935828E+03  0.38962314854E+03  0.10566000000E+00 0.  1.
          4    1    4    4  501    0 -0.68789037415E+03  0.12973360970E+03  0.47960226594E+02  0.70165815015E+03  0.00000000000E+00 0.  1.
         13    1    3    3    0    0  0.81858982447E+02 -0.17772012527E+02 -0.81774419419E+03  0.82202330608E+03  0.10566000000E+00 0. -1.
         -4    1    3    3    0  503  0.28353455727E+03 -0.33464738704E+02  0.21992571361E+03  0.36038736578E+03  0.00000000000E+00 0. -1.
<mgrwt>
<rscale>  2 0.10512176E+04</rscale>
<asrwt>0</asrwt>
<pdfrwt beam="1">  1       21 0.14829947E+00 0.10617820E+04</pdfrwt>
<pdfrwt beam="2">  1       21 0.20149930E+00 0.10617820E+04</pdfrwt>
<totfact> 0.18139202E+01</totfact>
</mgrwt>
</event>
<event>
 8    1  0.5815007E-006  0.1231278E+04  0.7818608E-02  0.8586213E-01
         21   -1    0    0  501  502  0.00000000000E+00  0.00000000000E+00  0.57745063270E+03  0.57745063270E+03  0.00000000000E+00 0.  1.
         21   -1    0    0  502  503 -0.00000000000E+00 -0.00000000000E+00 -0.26160451999E+04  0.26160451999E+04  0.00000000000E+00 0.  1.
   -9000010    2    1    2    0  503 -0.69415978857E+03 -0.20544030614E+03 -0.87438696337E+03  0.15101648453E+04  0.99598281455E+03 0.  0.
    9000010    2    1    2  501    0  0.69415978857E+03  0.20544030614E+03 -0.11642076039E+04  0.16833309873E+04  0.97681131059E+03 0.  0.
        -13    1    4    4    0    0  0.45514350281E+03 -0.32082288381E+03 -0.27067860765E+03  0.61915252623E+03  0.10566000000E+00 0.  1.
          4    1    4    4  501    0  0.23901628575E+03  0.52626318995E+03 -0.89352899622E+03  0.10641784611E+04  0.00000000000E+00 0.  1.
         13    1    3    3    0    0 -0.66935122860E+03  0.24691164778E+03 -0.76106250750E+03  0.10431742810E+04  0.10566000000E+00 0. -1.
         -4    1    3    3    0  503 -0.24808559964E+02 -0.45235195393E+03 -0.11332445586E+03  0.46699056432E+03  0.00000000000E+00 0. -1.
<mgrwt>
<rscale>  2 0.12273957E+04</rscale>
<asrwt>0</asrwt>
<pdfrwt beam="1">  1       21 0.88838560E-01 0.12312779E+04</pdfrwt>
<pdfrwt beam="2">  1       21 0.40246849E+00 0.12312779E+04</pdfrwt>
<totfact> 0.26241428E+00</totfact>
</mgrwt>
</event>
<event>
 8    1  0.5815007E-006  0.1201086E+04  0.7818608E-02  0.8614776E-01
         21   -1    0    0  503  502  0.00000000000E+00  0.00000000000E+00  0.12233177659E+04  0.12233177659E+04  0.00000000000E+00 0.  1.
         21   -1    0    0  501  503 -0.00000000000E+00 -0.00000000000E+00 -0.11473630842E+04  0.11473630842E+04  0.00000000000E+00 0.  1.
    9000010    2    1    2  501    0 -0.23062985953E+02  0.59621930139E+03 -0.91362865813E+02  0.12045560936E+04  0.10424005241E+04 0.  0.
   -9000010    2    1    2    0  502  0.23062985953E+02 -0.59621930139E+03  0.16731754751E+03  0.11661247565E+04  0.98784737144E+03 0.  0.
        -13    1    3    3    0    0  0.39307280166E+03  0.40894862580E+03 -0.36305731916E+03  0.67346554040E+03  0.10566000000E+00 0.  1.
          4    1    3    3  501    0 -0.41613578761E+03  0.18727067559E+03  0.27169445334E+03  0.53109055315E+03  0.00000000000E+00 0.  1.
         13    1    4    4    0    0  0.15817829687E+03 -0.52517598228E+03 -0.33393721181E+03  0.64214037294E+03  0.10566000000E+00 0. -1.
         -4    1    4    4    0  502 -0.13511531092E+03 -0.71043319108E+02  0.50125475932E+03  0.52398438352E+03  0.00000000000E+00 0. -1.
<mgrwt>
<rscale>  2 0.11891527E+04</rscale>
<asrwt>0</asrwt>
<pdfrwt beam="1">  1       21 0.18820273E+00 0.12010863E+04</pdfrwt>
<pdfrwt beam="2">  1       21 0.17651740E+00 0.12010863E+04</pdfrwt>
<totfact> 0.12832233E+01</totfact>
</mgrwt>
</event>
<event>
 8    1  0.5815007E-006  0.1051032E+04  0.7818608E-02  0.8730384E-01
         21   -1    0    0  503  502  0.00000000000E+00  0.00000000000E+00  0.13269397352E+04  0.13269397352E+04  0.00000000000E+00 0. -1.
         21   -1    0    0  501  503 -0.00000000000E+00 -0.00000000000E+00 -0.99565145405E+03  0.99565145405E+03  0.00000000000E+00 0. -1.
    9000010    2    1    2  501    0 -0.26298600597E+03 -0.11769157659E+03  0.64678027619E+03  0.12252295670E+04  0.99992490697E+03 0.  0.
   -9000010    2    1    2    0  502  0.26298600597E+03  0.11769157659E+03 -0.31549199506E+03  0.10973616223E+04  0.10107692044E+04 0.  0.
        -13    1    3    3    0    0 -0.57346086882E+03  0.16341864719E+03  0.50996985298E+03  0.78462238333E+03  0.10566000000E+00 0.  1.
          4    1    3    3  501    0  0.31047486285E+03 -0.28111022378E+03  0.13681042321E+03  0.44060718364E+03  0.00000000000E+00 0.  1.
         13    1    4    4    0    0  0.23610230853E+03  0.11181805886E+03 -0.68174060032E+03  0.73008070490E+03  0.10566000000E+00 0. -1.
         -4    1    4    4    0  502  0.26883697435E+02  0.58735177320E+01  0.36624860526E+03  0.36728091736E+03  0.00000000000E+00 0. -1.
<mgrwt>
<rscale>  2 0.10484156E+04</rscale>
<asrwt>0</asrwt>
<pdfrwt beam="1">  1       21 0.20414457E+00 0.10510316E+04</pdfrwt>
<pdfrwt beam="2">  1       21 0.15317715E+00 0.10510316E+04</pdfrwt>
<totfact> 0.15694318E+01</totfact>
</mgrwt>
</event>
<event>
 8    1  0.5815007E-006  0.1066201E+04  0.7818608E-02  0.8717990E-01
         21   -1    0    0  501  502  0.00000000000E+00  0.00000000000E+00  0.86322731575E+03  0.86322731575E+03  0.00000000000E+00 0. -1.
         21   -1    0    0  502  503 -0.00000000000E+00 -0.00000000000E+00 -0.13884837341E+04  0.13884837341E+04  0.00000000000E+00 0. -1.
   -9000010    2    1    2    0  503 -0.12956106649E+03  0.28419851507E+03 -0.54713205682E+03  0.11852859840E+04  0.10039892980E+04 0.  0.
    9000010    2    1    2  501    0  0.12956106649E+03 -0.28419851507E+03  0.21875638489E+02  0.10664250658E+04  0.10194258244E+04 0.  0.
        -13    1    4    4    0    0  0.29776804437E+03  0.32111820697E+03  0.11996505742E+02  0.43809432593E+03  0.10566000000E+00 0.  1.
          4    1    4    4  501    0 -0.16820697788E+03 -0.60531672204E+03  0.98791327473E+01  0.62833073986E+03  0.00000000000E+00 0.  1.
         13    1    3    3    0    0  0.11824280744E+03  0.33347446617E+03  0.19312979180E+03  0.40309516090E+03  0.10566000000E+00 0. -1.
         -4    1    3    3    0  503 -0.24780387392E+03 -0.49275951105E+02 -0.74026184862E+03  0.78219082315E+03  0.00000000000E+00 0. -1.
<mgrwt>
<rscale>  2 0.10624940E+04</rscale>
<asrwt>0</asrwt>
<pdfrwt beam="1">  1       21 0.13280420E+00 0.10662007E+04</pdfrwt>
<pdfrwt beam="2">  1       21 0.21361288E+00 0.10662007E+04</pdfrwt>
<totfact> 0.20332922E+01</totfact>
</mgrwt>
</event>
<event>
 8    1  0.5815007E-006  0.1032402E+04  0.7818608E-02  0.8770719E-01
         21   -1    0    0  501  502  0.00000000000E+00  0.00000000000E+00  0.81427635370E+03  0.81427635370E+03  0.00000000000E+00 0.  1.
         21   -1    0    0  502  503 -0.00000000000E+00 -0.00000000000E+00 -0.11752611093E+04  0.11752611093E+04  0.00000000000E+00 0.  1.
   -9000010    2    1    2    0  503  0.27817591100E+03  0.28182266872E+03 -0.17531055894E+03  0.10471808922E+04  0.95344017900E+03 0.  0.
    9000010    2    1    2  501    0 -0.27817591100E+03 -0.28182266872E+03 -0.18567419667E+03  0.94235657076E+03  0.83471860233E+03 0.  0.
        -13    1    4    4    0    0  0.22550095430E+03 -0.40689933140E+02 -0.29479044602E+03  0.37337349836E+03  0.10566000000E+00 0.  1.
          4    1    4    4  501    0 -0.50367686530E+03 -0.24113273558E+03  0.10911624935E+03  0.56898307240E+03  0.00000000000E+00 0.  1.
         13    1    3    3    0    0 -0.27610480291E+03  0.17628440171E+03  0.18645336855E+03  0.37692827207E+03  0.10566000000E+00 0. -1.
         -4    1    3    3    0  503  0.55428071391E+03  0.10553826701E+03 -0.36176392749E+03  0.67025262017E+03  0.00000000000E+00 0. -1.
<mgrwt>
<rscale>  2 0.10041324E+04</rscale>
<asrwt>0</asrwt>
<pdfrwt beam="1">  1       21 0.12527329E+00 0.10324021E+04</pdfrwt>
<pdfrwt beam="2">  1       21 0.18080940E+00 0.10324021E+04</pdfrwt>
<totfact> 0.43878591E+01</totfact>
</mgrwt>
</event>
<event>
 8    1  0.5815007E-006  0.1150208E+04  0.7818608E-02  0.8653014E-01
         21   -1    0    0  503  502  0.00000000000E+00  0.00000000000E+00  0.11816779328E+04  0.11816779328E+04  0.00000000000E+00 0. -1.
         21   -1    0    0  501  503 -0.00000000000E+00 -0.00000000000E+00 -0.14059755685E+04  0.14059755685E+04  0.00000000000E+00 0. -1.
    9000010    2    1    2  501    0 -0.48514146307E+03 -0.37963814281E+02 -0.73220478723E+03  0.13302957498E+04  0.99837840578E+03 0.  0.
   -9000010    2    1    2    0  502  0.48514146307E+03  0.37963814281E+02  0.50790715151E+03  0.12573577516E+04  0.10421973664E+04 0.  0.
        -13    1    3    3    0    0 -0.38774508472E+03 -0.49674176972E+03 -0.51312741107E+03  0.81264899414E+03  0.10566000000E+00 0.  1.
          4    1    3    3  501    0 -0.97396378348E+02  0.45877795544E+03 -0.21907737616E+03  0.51764675567E+03  0.00000000000E+00 0.  1.
         13    1    4    4    0    0 -0.88400445702E+02  0.25085565480E+02  0.65798114756E+03  0.66436671056E+03  0.10566000000E+00 0. -1.
         -4    1    4    4    0  502  0.57354190877E+03  0.12878248802E+02 -0.15007399604E+03  0.59299104099E+03  0.00000000000E+00 0. -1.
<mgrwt>
<rscale>  2 0.11401907E+04</rscale>
<asrwt>0</asrwt>
<pdfrwt beam="1">  1       21 0.18179661E+00 0.11502082E+04</pdfrwt>
<pdfrwt beam="2">  1       21 0.21630393E+00 0.11502082E+04</pdfrwt>
<totfact> 0.70916977E+00</totfact>
</mgrwt>
</event>
<event>
 8    1  0.5815007E-006  0.1059706E+04  0.7818608E-02  0.8720552E-01
         21   -1    0    0  503  502  0.00000000000E+00  0.00000000000E+00  0.10986719613E+04  0.10986719613E+04  0.00000000000E+00 0.  1.
         21   -1    0    0  501  503 -0.00000000000E+00 -0.00000000000E+00 -0.11106816646E+04  0.11106816646E+04  0.00000000000E+00 0.  1.
    9000010    2    1    2  501    0  0.19373761871E+03 -0.28763492885E+03  0.30687879125E+03  0.11032454342E+04  0.10013529739E+04 0.  0.
   -9000010    2    1    2    0  502 -0.19373761871E+03  0.28763492885E+03 -0.31888849463E+03  0.11061081917E+04  0.10007583837E+04 0.  0.
        -13    1    3    3    0    0  0.28298976740E+03  0.12205643997E+03  0.54128399877E+03  0.62287186602E+03  0.10566000000E+00 0.  1.
          4    1    3    3  501    0 -0.89252148687E+02 -0.40969136881E+03 -0.23440520752E+03  0.48037356821E+03  0.00000000000E+00 0.  1.
         13    1    4    4    0    0 -0.26713910682E+03  0.55322876365E+03  0.81847662000E+02  0.61977771682E+03  0.10566000000E+00 0. -1.
         -4    1    4    4    0  502  0.73401488107E+02 -0.26559383481E+03 -0.40073615663E+03  0.48633047486E+03  0.00000000000E+00 0. -1.
<mgrwt>
<rscale>  2 0.10595651E+04</rscale>
<asrwt>0</asrwt>
<pdfrwt beam="1">  1       21 0.16902646E+00 0.10597056E+04</pdfrwt>
<pdfrwt beam="2">  1       21 0.17087410E+00 0.10597056E+04</pdfrwt>
<totfact> 0.21168477E+01</totfact>
</mgrwt>
</event>
<event>
 8    1  0.5815007E-006  0.1104701E+04  0.7818608E-02  0.8683556E-01
         21   -1    0    0  501  502  0.00000000000E+00  0.00000000000E+00  0.13086438299E+04  0.13086438299E+04  0.00000000000E+00 0.  1.
         21   -1    0    0  502  503 -0.00000000000E+00 -0.00000000000E+00 -0.92655513795E+03  0.92655513795E+03  0.00000000000E+00 0.  1.
   -9000010    2    1    2    0  503  0.39982363428E+03  0.26441449981E+03  0.20987102630E+03  0.11171545945E+04  0.98702308686E+03 0.  0.
    9000010    2    1    2  501    0 -0.39982363428E+03 -0.26441449981E+03  0.17221766565E+03  0.11180443734E+04  0.99528404503E+03 0.  0.
        -13    1    4    4    0    0 -0.14549202830E+03  0.25756987469E+02 -0.40083179645E+03  0.42719725294E+03  0.10566000000E+00 0.  1.
          4    1    4    4  501    0 -0.25433160597E+03 -0.29017148728E+03  0.57304946211E+03  0.69084712046E+03  0.00000000000E+00 0.  1.
         13    1    3    3    0    0  0.57325787260E+03 -0.35719301233E+02 -0.17379395658E+03  0.60008733321E+03  0.10566000000E+00 0. -1.
         -4    1    3    3    0  503 -0.17343423832E+03  0.30013380105E+03  0.38366498288E+03  0.51706726124E+03  0.00000000000E+00 0. -1.
<mgrwt>
<rscale>  2 0.11028371E+04</rscale>
<asrwt>0</asrwt>
<pdfrwt beam="1">  1       21 0.20132982E+00 0.11047010E+04</pdfrwt>
<pdfrwt beam="2">  1       21 0.14254694E+00 0.11047010E+04</pdfrwt>
<totfact> 0.20324565E+01</totfact>
</mgrwt>
</event>
<event>
 8    1  0.5815007E-006  0.1494591E+04  0.7818608E-02  0.8417961E-01
         21   -1    0    0  501  502  0.00000000000E+00  0.00000000000E+00  0.14478392820E+04  0.14478392820E+04  0.00000000000E+00 0.  1.
         21   -1    0    0  502  503 -0.00000000000E+00 -0.00000000000E+00 -0.19167046852E+04  0.19167046852E+04  0.00000000000E+00 0. -1.
   -9000010    2    1    2    0  503  0.10956083342E+04 -0.48139071011E+02 -0.10113913475E+04  0.17745324754E+04  0.96092562478E+03 0.  0.
    9000010    2    1    2  501    0 -0.10956083342E+04  0.48139071011E+02  0.54252594441E+03  0.15900114918E+04  0.10154443124E+04 0.  0.
        -13    1    4    4    0    0 -0.27486420639E+03 -0.41189494800E+03  0.40381429456E+03  0.63896304729E+03  0.10566000000E+00 0.  1.
          4    1    4    4  501    0 -0.82074412778E+03  0.46003401901E+03  0.13871164985E+03  0.95104844448E+03  0.00000000000E+00 0.  1.
         13    1    3    3    0    0  0.91897535606E+03 -0.44522921033E+03 -0.66271879907E+03  0.12173499795E+04  0.10566000000E+00 0. -1.
         -4    1    3    3    0  503  0.17663297812E+03  0.39709013932E+03 -0.34867254847E+03  0.55718249592E+03  0.00000000000E+00 0. -1.
<mgrwt>
<rscale>  2 0.14853833E+04</rscale>
<asrwt>0</asrwt>
<pdfrwt beam="1">  1       21 0.22274450E+00 0.14945910E+04</pdfrwt>
<pdfrwt beam="2">  1       21 0.29487765E+00 0.14945910E+04</pdfrwt>
<totfact> 0.84724022E-01</totfact>
</mgrwt>
</event>
<event>
 8    1  0.5815007E-006  0.1107537E+04  0.7818608E-02  0.8682241E-01
         21   -1    0    0  503  502  0.00000000000E+00  0.00000000000E+00  0.97750922167E+03  0.97750922167E+03  0.00000000000E+00 0. -1.
         21   -1    0    0  501  503 -0.00000000000E+00 -0.00000000000E+00 -0.12629206187E+04  0.12629206187E+04  0.00000000000E+00 0. -1.
    9000010    2    1    2  501    0 -0.32858364389E+03  0.31472773908E+03  0.47295143879E+01  0.11075470750E+04  0.10097610580E+04 0.  0.
   -9000010    2    1    2    0  502  0.32858364389E+03 -0.31472773908E+03 -0.29014091145E+03  0.11328827654E+04  0.99610283147E+03 0.  0.
        -13    1    3    3    0    0  0.19805704259E+03 -0.12061736231E+03  0.28637709208E+03  0.36849286321E+03  0.10566000000E+00 0.  1.
          4    1    3    3  501    0 -0.52664068648E+03  0.43534510139E+03 -0.28164757769E+03  0.73905421180E+03  0.00000000000E+00 0.  1.
         13    1    4    4    0    0 -0.33652658868E+03 -0.54844896034E+02 -0.24016063818E+03  0.41705545292E+03  0.10566000000E+00 0. -1.
         -4    1    4    4    0  502  0.66511023257E+03 -0.25988284305E+03 -0.49980273270E+02  0.71582731248E+03  0.00000000000E+00 0. -1.
<mgrwt>
<rscale>  2 0.11044143E+04</rscale>
<asrwt>0</asrwt>
<pdfrwt beam="1">  1       21 0.15038603E+00 0.11075370E+04</pdfrwt>
<pdfrwt beam="2">  1       21 0.19429548E+00 0.11075370E+04</pdfrwt>
<totfact> 0.19592791E+01</totfact>
</mgrwt>
</event>
<event>
 8    1  0.5815007E-006  0.1467618E+04  0.7818608E-02  0.8430869E-01
         21   -1    0    0  503  502  0.00000000000E+00  0.00000000000E+00  0.41918461669E+04  0.41918461669E+04  0.00000000000E+00 0. -1.
         21   -1    0    0  501  503 -0.00000000000E+00 -0.00000000000E+00 -0.51003214308E+03  0.51003214308E+03  0.00000000000E+00 0. -1.
    9000010    2    1    2  501    0  0.20575079362E+03 -0.10495672938E+04  0.16816872764E+04  0.22210699070E+04  0.98038489523E+03 0.  0.
   -9000010    2    1    2    0  502 -0.20575079362E+03  0.10495672938E+04  0.20001267474E+04  0.24808084030E+04  0.10049768322E+04 0.  0.
        -13    1    3    3    0    0 -0.20177359903E+03  0.51637871769E+02  0.55987959605E+02  0.21567039169E+03  0.10566000000E+00 0.  1.
          4    1    3    3  501    0  0.40752439265E+03 -0.11012051656E+04  0.16256993168E+04  0.20053995153E+04  0.00000000000E+00 0.  1.
         13    1    4    4    0    0 -0.14134824469E+03  0.81363218948E+03  0.50969903576E+03  0.97044823883E+03  0.10566000000E+00 0. -1.
         -4    1    4    4    0  502 -0.64402548928E+02  0.23593510434E+03  0.14904277117E+04  0.15103601642E+04  0.00000000000E+00 0. -1.
<mgrwt>
<rscale>  2 0.14634180E+04</rscale>
<asrwt>0</asrwt>
<pdfrwt beam="1">  1       21 0.64489939E+00 0.14676182E+04</pdfrwt>
<pdfrwt beam="2">  1       21 0.78466486E-01 0.14676182E+04</pdfrwt>
<totfact> 0.58930182E-02</totfact>
</mgrwt>
</event>
<event>
 8    1  0.5815007E-006  0.1052576E+04  0.7818608E-02  0.8730521E-01
         21   -1    0    0  503  502  0.00000000000E+00  0.00000000000E+00  0.74266141592E+03  0.74266141592E+03  0.00000000000E+00 0. -1.
         21   -1    0    0  501  503 -0.00000000000E+00 -0.00000000000E+00 -0.15265283558E+04  0.15265283558E+04  0.00000000000E+00 0. -1.
    9000010    2    1    2  501    0 -0.10316426510E+03  0.24089326936E+03 -0.61793034792E+03  0.12205549862E+04  0.10194332380E+04 0.  0.
   -9000010    2    1    2    0  502  0.10316426510E+03 -0.24089326936E+03 -0.16593659195E+03  0.10486347855E+04  0.10017122980E+04 0.  0.
        -13    1    3    3    0    0 -0.48560107999E+03  0.36800653084E+03 -0.53115877101E+03  0.80831112006E+03  0.10566000000E+00 0.  1.
          4    1    3    3  501    0  0.38243681489E+03 -0.12711326148E+03 -0.86771576909E+02  0.41224386616E+03  0.00000000000E+00 0.  1.
         13    1    4    4    0    0 -0.99566061789E+02 -0.59085861298E+03 -0.22471648038E+03  0.63994125426E+03  0.10566000000E+00 0. -1.
         -4    1    4    4    0  502  0.20273032688E+03  0.34996534362E+03  0.58779888428E+02  0.40869353121E+03  0.00000000000E+00 0. -1.
<mgrwt>
<rscale>  2 0.10482613E+04</rscale>
<asrwt>0</asrwt>
<pdfrwt beam="1">  1       21 0.11425560E+00 0.10525762E+04</pdfrwt>
<pdfrwt beam="2">  1       21 0.23485052E+00 0.10525762E+04</pdfrwt>
<totfact> 0.21630003E+01</totfact>
</mgrwt>
</event>
<event>
 8    1  0.5815007E-006  0.1135664E+04  0.7818608E-02  0.8656851E-01
         21   -1    0    0  501  502  0.00000000000E+00  0.00000000000E+00  0.54943328749E+03  0.54943328749E+03  0.00000000000E+00 0.  1.
         21   -1    0    0  502  503 -0.00000000000E+00 -0.00000000000E+00 -0.23513949079E+04  0.23513949079E+04  0.00000000000E+00 0.  1.
   -9000010    2    1    2    0  503  0.48920037479E+02 -0.55893692464E+03 -0.97428067717E+03  0.14955566969E+04  0.98623695928E+03 0.  0.
    9000010    2    1    2  501    0 -0.48920037479E+02  0.55893692464E+03 -0.82768094324E+03  0.14052714985E+04  0.98738471984E+03 0.  0.
        -13    1    4    4    0    0  0.44652054989E+02  0.31293156391E+03 -0.10273656485E+04  0.10748954166E+04  0.10566000000E+00 0.  1.
          4    1    4    4  501    0 -0.93572092468E+02  0.24600536073E+03  0.19968470527E+03  0.33037608194E+03  0.00000000000E+00 0.  1.
         13    1    3    3    0    0 -0.22146293750E+03  0.65171156102E+02  0.77068306929E+02  0.24337758190E+03  0.10566000000E+00 0. -1.
         -4    1    3    3    0  503  0.27038297498E+03 -0.62410808075E+03 -0.10513489841E+04  0.12521791150E+04  0.00000000000E+00 0. -1.
<mgrwt>
<rscale>  2 0.11354143E+04</rscale>
<asrwt>0</asrwt>
<pdfrwt beam="1">  1       21 0.84528198E-01 0.11356638E+04</pdfrwt>
<pdfrwt beam="2">  1       21 0.36175306E+00 0.11356638E+04</pdfrwt>
<totfact> 0.58491201E+00</totfact>
</mgrwt>
</event>
<event>
 8    1  0.5815007E-006  0.1027086E+04  0.7818608E-02  0.8749829E-01
         21   -1    0    0  503  502  0.00000000000E+00  0.00000000000E+00  0.82992692646E+03  0.82992692646E+03  0.00000000000E+00 0. -1.
         21   -1    0    0  501  503 -0.00000000000E+00 -0.00000000000E+00 -0.13107042531E+04  0.13107042531E+04  0.00000000000E+00 0. -1.
    9000010    2    1    2  501    0  0.12755346026E+01  0.20234066671E+03 -0.50635477131E+02  0.10271104970E+04  0.10057080337E+04 0.  0.
   -9000010    2    1    2    0  502 -0.12755346026E+01 -0.20234066671E+03 -0.43014184950E+03  0.11135206826E+04  0.10069572620E+04 0.  0.
        -13    1    3    3    0    0  0.18082762025E+02 -0.29860783632E+03  0.29351857044E+03  0.41910236047E+03  0.10566000000E+00 0.  1.
          4    1    3    3  501    0 -0.16807227422E+02  0.50094850304E+03 -0.34415404757E+03  0.60800813650E+03  0.00000000000E+00 0.  1.
         13    1    4    4    0    0  0.20848631183E+03 -0.18763069819E+03 -0.71004214443E+03  0.76343413544E+03  0.10566000000E+00 0. -1.
         -4    1    4    4    0  502 -0.20976184643E+03 -0.14709968521E+02  0.27990029493E+03  0.35008654715E+03  0.00000000000E+00 0. -1.
<mgrwt>
<rscale>  2 0.10267800E+04</rscale>
<asrwt>0</asrwt>
<pdfrwt beam="1">  1       21 0.12768107E+00 0.10270863E+04</pdfrwt>
<pdfrwt beam="2">  1       21 0.20164681E+00 0.10270863E+04</pdfrwt>
<totfact> 0.28405161E+01</totfact>
</mgrwt>
</event>
<event>
 8    1  0.5815007E-006  0.1139897E+04  0.7818608E-02  0.8655496E-01
         21   -1    0    0  501  502  0.00000000000E+00  0.00000000000E+00  0.15161608319E+04  0.15161608319E+04  0.00000000000E+00 0. -1.
         21   -1    0    0  502  503 -0.00000000000E+00 -0.00000000000E+00 -0.90361828762E+03  0.90361828762E+03  0.00000000000E+00 0. -1.
   -9000010    2    1    2    0  503 -0.11144305883E+03  0.53615004634E+03  0.64462456508E+01  0.11287652458E+04  0.98701215726E+03 0.  0.
    9000010    2    1    2  501    0  0.11144305883E+03 -0.53615004634E+03  0.60609629859E+03  0.12910138736E+04  0.99974380279E+03 0.  0.
        -13    1    4    4    0    0 -0.34006791766E+02  0.11003121235E+02 -0.25663069985E+03  0.25910781122E+03  0.10566000000E+00 0.  1.
          4    1    4    4  501    0  0.14544985060E+03 -0.54715316758E+03  0.86272699845E+03  0.10319060624E+04  0.00000000000E+00 0.  1.
         13    1    3    3    0    0  0.13919554531E+03  0.77136373874E+03 -0.19499549438E+02  0.78406483206E+03  0.10566000000E+00 0. -1.
         -4    1    3    3    0  503 -0.25063860414E+03 -0.23521369240E+03  0.25945795089E+02  0.34470041378E+03  0.00000000000E+00 0. -1.
<mgrwt>
<rscale>  2 0.11370988E+04</rscale>
<asrwt>0</asrwt>
<pdfrwt beam="1">  1       21 0.23325551E+00 0.11398965E+04</pdfrwt>
<pdfrwt beam="2">  1       21 0.13901820E+00 0.11398965E+04</pdfrwt>
<totfact> 0.12450910E+01</totfact>
</mgrwt>
</event>
<event>
 8    1  0.5815007E-006  0.1248316E+04  0.7818608E-02  0.8589602E-01
         21   -1    0    0  501  502  0.00000000000E+00  0.00000000000E+00  0.89803103701E+03  0.89803103701E+03  0.00000000000E+00 0. -1.
         21   -1    0    0  502  503 -0.00000000000E+00 -0.00000000000E+00 -0.16113975828E+04  0.16113975828E+04  0.00000000000E+00 0. -1.
   -9000010    2    1    2    0  503  0.13588333961E+03 -0.38323817772E+03 -0.44616616198E+03  0.12328361436E+04  0.10749348493E+04 0.  0.
    9000010    2    1    2  501    0 -0.13588333961E+03  0.38323817772E+03 -0.26720038377E+03  0.12765924761E+04  0.11802357909E+04 0.  0.
        -13    1    4    4    0    0 -0.35358192419E+02  0.76937994493E+03  0.42693984015E+02  0.77137441548E+03  0.10566000000E+00 0.  1.
          4    1    4    4  501    0 -0.10052514719E+03 -0.38614176721E+03 -0.30989436778E+03  0.50521806063E+03  0.00000000000E+00 0.  1.
         13    1    3    3    0    0  0.22762894833E+03 -0.73438033298E+03 -0.20044894874E+03  0.79454968618E+03  0.10566000000E+00 0. -1.
         -4    1    3    3    0  503 -0.91745608719E+02  0.35114215527E+03 -0.24571721323E+03  0.43828645747E+03  0.00000000000E+00 0. -1.
<mgrwt>
<rscale>  2 0.12227814E+04</rscale>
<asrwt>0</asrwt>
<pdfrwt beam="1">  1       21 0.13815862E+00 0.12483158E+04</pdfrwt>
<pdfrwt beam="2">  1       21 0.24790732E+00 0.12483158E+04</pdfrwt>
<totfact> 0.96793193E+00</totfact>
</mgrwt>
</event>
<event>
 8    1  0.5815007E-006  0.1076035E+04  0.7818608E-02  0.8706261E-01
         21   -1    0    0  501  502  0.00000000000E+00  0.00000000000E+00  0.68591400313E+03  0.68591400313E+03  0.00000000000E+00 0. -1.
         21   -1    0    0  502  503 -0.00000000000E+00 -0.00000000000E+00 -0.16914638089E+04  0.16914638089E+04  0.00000000000E+00 0. -1.
   -9000010    2    1    2    0  503 -0.19342850073E+03  0.37570244924E+03 -0.55646997244E+03  0.12113915265E+04  0.98956742320E+03 0.  0.
    9000010    2    1    2  501    0  0.19342850073E+03 -0.37570244924E+03 -0.44907983335E+03  0.11659862855E+04  0.98958799813E+03 0.  0.
        -13    1    4    4    0    0 -0.26943658853E+02  0.30862429964E+03  0.15197302811E+02  0.31017074049E+03  0.10566000000E+00 0.  1.
          4    1    4    4  501    0  0.22037215959E+03 -0.68432674888E+03 -0.46427713617E+03  0.85581554503E+03  0.00000000000E+00 0.  1.
         13    1    3    3    0    0 -0.17926620322E+03  0.71448124077E+03 -0.36740593512E+03  0.82316884499E+03  0.10566000000E+00 0. -1.
         -4    1    3    3    0  503 -0.14162297511E+02 -0.33877879153E+03 -0.18906403732E+03  0.38822268155E+03  0.00000000000E+00 0. -1.
<mgrwt>
<rscale>  2 0.10760303E+04</rscale>
<asrwt>0</asrwt>
<pdfrwt beam="1">  1       21 0.10552523E+00 0.10760350E+04</pdfrwt>
<pdfrwt beam="2">  1       21 0.26022520E+00 0.10760350E+04</pdfrwt>
<totfact> 0.17425871E+01</totfact>
</mgrwt>
</event>
<event>
 8    1  0.5815007E-006  0.1249799E+04  0.7818608E-02  0.8576383E-01
         21   -1    0    0  501  502  0.00000000000E+00  0.00000000000E+00  0.13361566180E+04  0.13361566180E+04  0.00000000000E+00 0.  1.
         21   -1    0    0  502  503 -0.00000000000E+00 -0.00000000000E+00 -0.12008443036E+04  0.12008443036E+04  0.00000000000E+00 0.  1.
   -9000010    2    1    2    0  503  0.44195264979E+03 -0.53573020995E+03  0.36075921298E+03  0.12670306996E+04  0.99643895019E+03 0.  0.
    9000010    2    1    2  501    0 -0.44195264979E+03  0.53573020995E+03 -0.22544689853E+03  0.12699702220E+04  0.10390712479E+04 0.  0.
        -13    1    4    4    0    0 -0.15669514161E+03 -0.31295747403E+03 -0.11193861495E+03  0.36745885843E+03  0.10566000000E+00 0.  1.
          4    1    4    4  501    0 -0.28525750818E+03  0.84868768398E+03 -0.11350828358E+03  0.90251136356E+03  0.00000000000E+00 0.  1.
         13    1    3    3    0    0  0.26201636252E+03  0.24888586499E+02  0.58144815529E+03  0.63824288827E+03  0.10566000000E+00 0. -1.
         -4    1    3    3    0  503  0.17993628727E+03 -0.56061879645E+03 -0.22068894231E+03  0.62878781132E+03  0.00000000000E+00 0. -1.
<mgrwt>
<rscale>  2 0.12409014E+04</rscale>
<asrwt>0</asrwt>
<pdfrwt beam="1">  1       21 0.20556256E+00 0.12497992E+04</pdfrwt>
<pdfrwt beam="2">  1       21 0.18474528E+00 0.12497992E+04</pdfrwt>
<totfact> 0.79450368E+00</totfact>
</mgrwt>
</event>
<event>
 8    1  0.5815007E-006  0.1111686E+04  0.7818608E-02  0.8704013E-01
         21   -1    0    0  503  502  0.00000000000E+00  0.00000000000E+00  0.16176809302E+04  0.16176809302E+04  0.00000000000E+00 0. -1.
         21   -1    0    0  501  503 -0.00000000000E+00 -0.00000000000E+00 -0.75875183356E+03  0.75875183356E+03  0.00000000000E+00 0. -1.
    9000010    2    1    2  501    0  0.47518098817E+03 -0.70575285888E+02  0.23092116148E+02  0.98558083631E+03  0.86026652648E+03 0.  0.
   -9000010    2    1    2    0  502 -0.47518098817E+03  0.70575285888E+02  0.83583698047E+03  0.13908519274E+04  0.10025306896E+04 0.  0.
        -13    1    3    3    0    0  0.35376887533E+03  0.22903462081E+03 -0.30865097167E+03  0.52237410747E+03  0.10566000000E+00 0.  1.
          4    1    3    3  501    0  0.12141211285E+03 -0.29960990669E+03  0.33174308781E+03  0.46320672884E+03  0.00000000000E+00 0.  1.
         13    1    4    4    0    0 -0.18387451079E+03  0.51631356451E+03  0.58699587175E+03  0.80309009285E+03  0.10566000000E+00 0. -1.
         -4    1    4    4    0  502 -0.29130647739E+03 -0.44573827863E+03  0.24884110872E+03  0.58776183458E+03  0.00000000000E+00 0. -1.
<mgrwt>
<rscale>  2 0.10786482E+04</rscale>
<asrwt>0</asrwt>
<pdfrwt beam="1">  1       21 0.24887399E+00 0.11116859E+04</pdfrwt>
<pdfrwt beam="2">  1       21 0.11673105E+00 0.11116859E+04</pdfrwt>
<totfact> 0.15882432E+01</totfact>
</mgrwt>
</event>
<event>
 8    1  0.5815007E-006  0.1372951E+04  0.7818608E-02  0.8487542E-01
         21   -1    0    0  503  502  0.00000000000E+00  0.00000000000E+00  0.15737744205E+04  0.15737744205E+04  0.00000000000E+00 0. -1.
         21   -1    0    0  501  503 -0.00000000000E+00 -0.00000000000E+00 -0.12058279538E+04  0.12058279538E+04  0.00000000000E+00 0. -1.
    9000010    2    1    2  501    0 -0.93978555097E+03  0.50025670486E+02  0.38733406575E+02  0.13734973075E+04  0.99964750156E+03 0.  0.
   -9000010    2    1    2    0  502  0.93978555097E+03 -0.50025670486E+02  0.32921306014E+03  0.14061050668E+04  0.99148916812E+03 0.  0.
        -13    1    3    3    0    0  0.79207096783E+02 -0.28160059849E+03  0.72460274987E+02  0.30136881701E+03  0.10566000000E+00 0.  1.
          4    1    3    3  501    0 -0.10189926478E+04  0.33162626898E+03 -0.33726868411E+02  0.10721284905E+04  0.00000000000E+00 0.  1.
         13    1    4    4    0    0  0.68779536387E+03  0.91295036586E+02  0.66643426729E+03  0.96204567982E+03  0.10566000000E+00 0. -1.
         -4    1    4    4    0  502  0.25199018709E+03 -0.14132070707E+03 -0.33722120716E+03  0.44405938701E+03  0.00000000000E+00 0. -1.
<mgrwt>
<rscale>  2 0.13714665E+04</rscale>
<asrwt>0</asrwt>
<pdfrwt beam="1">  1       21 0.24211914E+00 0.13729510E+04</pdfrwt>
<pdfrwt beam="2">  1       21 0.18551199E+00 0.13729510E+04</pdfrwt>
<totfact> 0.40576185E+00</totfact>
</mgrwt>
</event>
<event>
 8    1  0.5815007E-006  0.1189057E+04  0.7818608E-02  0.8615019E-01
         21   -1    0    0  503  502  0.00000000000E+00  0.00000000000E+00  0.95997323348E+03  0.95997323348E+03  0.00000000000E+00 0.  1.
         21   -1    0    0  501  503 -0.00000000000E+00 -0.00000000000E+00 -0.15794563497E+04  0.15794563497E+04  0.00000000000E+00 0.  1.
    9000010    2    1    2  501    0  0.65370979214E+03  0.73191334309E+02 -0.64149132101E+03  0.13510613907E+04  0.99053637129E+03 0.  0.
   -9000010    2    1    2    0  502 -0.65370979214E+03 -0.73191334309E+02  0.22008204767E+02  0.11883681925E+04  0.98946507570E+03 0.  0.
        -13    1    3    3    0    0  0.23446992636E+03  0.52301107936E+03 -0.28188984061E+03  0.63873204781E+03  0.10566000000E+00 0.  1.
          4    1    3    3  501    0  0.41923986577E+03 -0.44981974505E+03 -0.35960148040E+03  0.71232934292E+03  0.00000000000E+00 0.  1.
         13    1    4    4    0    0  0.17283121473E+03  0.23275186106E+03  0.92250411292E+02  0.30422722949E+03  0.10566000000E+00 0. -1.
         -4    1    4    4    0  502 -0.82654100687E+03 -0.30594319537E+03 -0.70242206525E+02  0.88414096297E+03  0.00000000000E+00 0. -1.
<mgrwt>
<rscale>  2 0.11888335E+04</rscale>
<asrwt>0</asrwt>
<pdfrwt beam="1">  1       21 0.14768819E+00 0.11890567E+04</pdfrwt>
<pdfrwt beam="2">  1       21 0.24299328E+00 0.11890567E+04</pdfrwt>
<totfact> 0.87013955E+00</totfact>
</mgrwt>
</event>
<event>
 8    1  0.5815007E-006  0.1278574E+04  0.7818608E-02  0.8550355E-01
         21   -1    0    0  503  502  0.00000000000E+00  0.00000000000E+00  0.11241972447E+04  0.11241972447E+04  0.00000000000E+00 0.  1.
         21   -1    0    0  501  503 -0.00000000000E+00 -0.00000000000E+00 -0.14497573471E+04  0.14497573471E+04  0.00000000000E+00 0. -1.
    9000010    2    1    2  501    0 -0.70030816438E+03 -0.38321216331E+03 -0.14362069489E+03  0.12825006686E+04  0.99342738720E+03 0.  0.
   -9000010    2    1    2    0  502  0.70030816438E+03  0.38321216331E+03 -0.18193940756E+03  0.12914539233E+04  0.99873329810E+03 0.  0.
        -13    1    3    3    0    0 -0.19606176399E+03 -0.74340879704E+01  0.40367478556E+03  0.44883050768E+03  0.10566000000E+00 0.  1.
          4    1    3    3  501    0 -0.50424640039E+03 -0.37577807534E+03 -0.54729548045E+03  0.83367016088E+03  0.00000000000E+00 0.  1.
         13    1    4    4    0    0  0.88683519460E+03  0.50517954264E+03 -0.26356731243E+03  0.10541113660E+04  0.10566000000E+00 0. -1.
         -4    1    4    4    0  502 -0.18652703022E+03 -0.12196737932E+03  0.81627904869E+02  0.23734255724E+03  0.00000000000E+00 0. -1.
<mgrwt>
<rscale>  2 0.12775376E+04</rscale>
<asrwt>0</asrwt>
<pdfrwt beam="1">  1       21 0.17295342E+00 0.12785739E+04</pdfrwt>
<pdfrwt beam="2">  1       21 0.22303959E+00 0.12785739E+04</pdfrwt>
<totfact> 0.72634592E+00</totfact>
</mgrwt>
</event>
<event>
 8    1  0.5815007E-006  0.1261018E+04  0.7818608E-02  0.8568432E-01
         21   -1    0    0  501  502  0.00000000000E+00  0.00000000000E+00  0.11031807645E+04  0.11031807645E+04  0.00000000000E+00 0.  1.
         21   -1    0    0  502  503 -0.00000000000E+00 -0.00000000000E+00 -0.14025249295E+04  0.14025249295E+04  0.00000000000E+00 0.  1.
   -9000010    2    1    2    0  503  0.61930299630E+03 -0.41283536814E+03 -0.19649873337E+03  0.12762361568E+04  0.10179379811E+04 0.  0.
    9000010    2    1    2  501    0 -0.61930299630E+03  0.41283536814E+03 -0.10284543163E+03  0.12294695371E+04  0.97316438357E+03 0.  0.
        -13    1    4    4    0    0 -0.83954237954E+03  0.43591549393E+03 -0.23079879670E+03  0.97371547210E+03  0.10566000000E+00 0.  1.
          4    1    4    4  501    0  0.22023938324E+03 -0.23080125791E+02  0.12795336507E+03  0.25575406501E+03  0.00000000000E+00 0.  1.
         13    1    3    3    0    0  0.76501248231E+03 -0.28242399764E+03  0.19513104700E+03  0.83850077471E+03  0.10566000000E+00 0. -1.
         -4    1    3    3    0  503 -0.14570948601E+03 -0.13041137051E+03 -0.39162978036E+03  0.43773538209E+03  0.00000000000E+00 0. -1.
<mgrwt>
<rscale>  2 0.12519566E+04</rscale>
<asrwt>0</asrwt>
<pdfrwt beam="1">  1       21 0.16972012E+00 0.12610182E+04</pdfrwt>
<pdfrwt beam="2">  1       21 0.21577306E+00 0.12610182E+04</pdfrwt>
<totfact> 0.88052194E+00</totfact>
</mgrwt>
</event>
<event>
 8    1  0.5815007E-006  0.1075571E+04  0.7818608E-02  0.8718350E-01
         21   -1    0    0  503  502  0.00000000000E+00  0.00000000000E+00  0.12981800567E+04  0.12981800567E+04  0.00000000000E+00 0.  1.
         21   -1    0    0  501  503 -0.00000000000E+00 -0.00000000000E+00 -0.85313198992E+03  0.85313198992E+03  0.00000000000E+00 0.  1.
    9000010    2    1    2  501    0 -0.10120645978E+03  0.29606578748E+03  0.13197843330E+03  0.10311045400E+04  0.97358131013E+03 0.  0.
   -9000010    2    1    2    0  502  0.10120645978E+03 -0.29606578748E+03  0.31306963352E+03  0.11202075067E+04  0.10290551806E+04 0.  0.
        -13    1    3    3    0    0 -0.22367696474E+03  0.33641101731E+03  0.49903438992E+03  0.64205847912E+03  0.10566000000E+00 0.  1.
          4    1    3    3  501    0  0.12247050497E+03 -0.40345229827E+02 -0.36705595662E+03  0.38904606083E+03  0.00000000000E+00 0.  1.
         13    1    4    4    0    0 -0.23391274123E+03  0.18761813454E+03 -0.18238266968E+03  0.35096892210E+03  0.10566000000E+00 0. -1.
         -4    1    4    4    0  502  0.33511920101E+03 -0.48368392202E+03  0.49545230320E+03  0.76923858461E+03  0.00000000000E+00 0. -1.
<mgrwt>
<rscale>  2 0.10620822E+04</rscale>
<asrwt>0</asrwt>
<pdfrwt beam="1">  1       21 0.19972001E+00 0.10755707E+04</pdfrwt>
<pdfrwt beam="2">  1       21 0.13125108E+00 0.10755707E+04</pdfrwt>
<totfact> 0.26869973E+01</totfact>
</mgrwt>
</event>
<event>
 8    1  0.5815007E-006  0.1077146E+04  0.7818608E-02  0.8709866E-01
         21   -1    0    0  501  502  0.00000000000E+00  0.00000000000E+00  0.17271894823E+04  0.17271894823E+04  0.00000000000E+00 0.  1.
         21   -1    0    0  502  503 -0.00000000000E+00 -0.00000000000E+00 -0.65901702668E+03  0.65901702668E+03  0.00000000000E+00 0.  1.
   -9000010    2    1    2    0  503  0.19417651209E+03 -0.24280470173E+03  0.50254698169E+03  0.11695816452E+04  0.10093112082E+04 0.  0.
    9000010    2    1    2  501    0 -0.19417651209E+03  0.24280470173E+03  0.56562547391E+03  0.12166248637E+04  0.10313026914E+04 0.  0.
        -13    1    4    4    0    0  0.96101933705E+02 -0.25912740498E+03 -0.13467370385E+03  0.30744041918E+03  0.10566000000E+00 0.  1.
          4    1    4    4  501    0 -0.29027844579E+03  0.50193210671E+03  0.70029917776E+03  0.90918444455E+03  0.00000000000E+00 0.  1.
         13    1    3    3    0    0  0.56621220686E+03 -0.78210165052E+02  0.70127319215E+02  0.57587407059E+03  0.10566000000E+00 0. -1.
         -4    1    3    3    0  503 -0.37203569477E+03 -0.16459453668E+03  0.43241966248E+03  0.59370757464E+03  0.00000000000E+00 0. -1.
<mgrwt>
<rscale>  2 0.10718481E+04</rscale>
<asrwt>0</asrwt>
<pdfrwt beam="1">  1       21 0.26572146E+00 0.10771462E+04</pdfrwt>
<pdfrwt beam="2">  1       21 0.10138724E+00 0.10771462E+04</pdfrwt>
<totfact> 0.17684954E+01</totfact>
</mgrwt>
</event>
<event>
 8    1  0.5815007E-006  0.1233336E+04  0.7818608E-02  0.8621768E-01
         21   -1    0    0  501  502  0.00000000000E+00  0.00000000000E+00  0.44948037368E+03  0.44948037368E+03  0.00000000000E+00 0.  1.
         21   -1    0    0  502  503 -0.00000000000E+00 -0.00000000000E+00 -0.32138324960E+04  0.32138324960E+04  0.00000000000E+00 0. -1.
   -9000010    2    1    2    0  503  0.58344842454E+03  0.33826389390E+03 -0.18811816738E+04  0.21463724762E+04  0.78309373046E+03 0.  0.
    9000010    2    1    2  501    0 -0.58344842454E+03 -0.33826389390E+03 -0.88317044847E+03  0.15169403934E+04  0.10326100862E+04 0.  0.
        -13    1    4    4    0    0 -0.56398211680E+03 -0.38709576157E+03 -0.10991675429E+04  0.12946382719E+04  0.10566000000E+00 0.  1.
          4    1    4    4  501    0 -0.19466307742E+02  0.48831867671E+02  0.21599709440E+03  0.22230212151E+03  0.00000000000E+00 0.  1.
         13    1    3    3    0    0  0.70803765290E+03  0.16188381744E+03 -0.17474261377E+04  0.18923587942E+04  0.10566000000E+00 0. -1.
         -4    1    3    3    0  503 -0.12458922836E+03  0.17638007646E+03 -0.13375553618E+03  0.25401368202E+03  0.00000000000E+00 0. -1.
<mgrwt>
<rscale>  2 0.11800111E+04</rscale>
<asrwt>0</asrwt>
<pdfrwt beam="1">  1       21 0.69150829E-01 0.12333362E+04</pdfrwt>
<pdfrwt beam="2">  1       21 0.49443575E+00 0.12333362E+04</pdfrwt>
<totfact> 0.11159459E+00</totfact>
</mgrwt>
</event>
<event>
 8    1  0.5815007E-006  0.1195743E+04  0.7818608E-02  0.8614099E-01
         21   -1    0    0  501  502  0.00000000000E+00  0.00000000000E+00  0.12455460034E+04  0.12455460034E+04  0.00000000000E+00 0. -1.
         21   -1    0    0  502  503 -0.00000000000E+00 -0.00000000000E+00 -0.11290569140E+04  0.11290569140E+04  0.00000000000E+00 0. -1.
   -9000010    2    1    2    0  503  0.39060433983E+03 -0.46407228448E+03 -0.99553738118E+00  0.11731024514E+04  0.10041083282E+04 0.  0.
    9000010    2    1    2  501    0 -0.39060433983E+03  0.46407228448E+03  0.11748462677E+03  0.12015004660E+04  0.10304687753E+04 0.  0.
        -13    1    4    4    0    0 -0.57277932369E+02  0.23079596732E+03  0.55515385045E+03  0.60393985537E+03  0.10566000000E+00 0.  1.
          4    1    4    4  501    0 -0.33332640746E+03  0.23327631716E+03 -0.43766922369E+03  0.59756061067E+03  0.00000000000E+00 0.  1.
         13    1    3    3    0    0  0.52675516993E+03 -0.71433178875E+03 -0.17584676724E+02  0.88772188521E+03  0.10566000000E+00 0. -1.
         -4    1    3    3    0  503 -0.13615083010E+03  0.25025950427E+03  0.16589139343E+02  0.28538056619E+03  0.00000000000E+00 0. -1.
<mgrwt>
<rscale>  2 0.11900419E+04</rscale>
<asrwt>0</asrwt>
<pdfrwt beam="1">  1       21 0.19162246E+00 0.11957428E+04</pdfrwt>
<pdfrwt beam="2">  1       21 0.17370106E+00 0.11957428E+04</pdfrwt>
<totfact> 0.12729255E+01</totfact>
</mgrwt>
</event>
<event>
 8    1  0.5815007E-006  0.1332951E+04  0.7818608E-02  0.8516970E-01
         21   -1    0    0  503  502  0.00000000000E+00  0.00000000000E+00  0.12709682998E+04  0.12709682998E+04  0.00000000000E+00 0. -1.
         21   -1    0    0  501  503 -0.00000000000E+00 -0.00000000000E+00 -0.14094874059E+04  0.14094874059E+04  0.00000000000E+00 0. -1.
    9000010    2    1    2  501    0  0.56132958645E+03 -0.63072548640E+03 -0.28988809689E+03  0.13389377409E+04  0.99790461548E+03 0.  0.
   -9000010    2    1    2    0  502 -0.56132958645E+03  0.63072548640E+03  0.15136899073E+03  0.13415179648E+04  0.10314321765E+04 0.  0.
        -13    1    3    3    0    0 -0.11727521890E+02 -0.39019478483E+03 -0.54226257523E+03  0.66816032248E+03  0.10566000000E+00 0.  1.
          4    1    3    3  501    0  0.57305710834E+03 -0.24053070157E+03  0.25237447834E+03  0.67077741847E+03  0.00000000000E+00 0.  1.
         13    1    4    4    0    0 -0.76385556600E+03  0.77171119922E+03  0.13543132227E+03  0.10942372480E+04  0.10566000000E+00 0. -1.
         -4    1    4    4    0  502  0.20252597955E+03 -0.14098571282E+03  0.15937668458E+02  0.24728071678E+03  0.00000000000E+00 0. -1.
<mgrwt>
<rscale>  2 0.13264608E+04</rscale>
<asrwt>0</asrwt>
<pdfrwt beam="1">  1       21 0.19553358E+00 0.13329508E+04</pdfrwt>
<pdfrwt beam="2">  1       21 0.21684422E+00 0.13329508E+04</pdfrwt>
<totfact> 0.52509535E+00</totfact>
</mgrwt>
</event>
<event>
 8    1  0.5815007E-006  0.1193465E+04  0.7818608E-02  0.8624876E-01
         21   -1    0    0  503  502  0.00000000000E+00  0.00000000000E+00  0.99004512749E+03  0.99004512749E+03  0.00000000000E+00 0.  1.
         21   -1    0    0  501  503 -0.00000000000E+00 -0.00000000000E+00 -0.22033020027E+04  0.22033020027E+04  0.00000000000E+00 0.  1.
    9000010    2    1    2  501    0 -0.55836529432E+03  0.15595304616E+03 -0.15846746881E+04  0.19434233143E+04  0.96416137499E+03 0.  0.
   -9000010    2    1    2    0  502  0.55836529432E+03 -0.15595304616E+03  0.37141781288E+03  0.12499238159E+04  0.10431995012E+04 0.  0.
        -13    1    3    3    0    0  0.11399696426E+03  0.35423762335E+03 -0.29238536914E+03  0.47325343834E+03  0.10566000000E+00 0.  1.
          4    1    3    3  501    0 -0.67236225858E+03 -0.19828457719E+03 -0.12922893189E+04  0.14701698760E+04  0.00000000000E+00 0.  1.
         13    1    4    4    0    0  0.12340006738E+03 -0.43425073610E+03 -0.18763279111E+03  0.48888378363E+03  0.10566000000E+00 0. -1.
         -4    1    4    4    0  502  0.43496522694E+03  0.27829768994E+03  0.55905060399E+03  0.76104003225E+03  0.00000000000E+00 0. -1.
<mgrwt>
<rscale>  2 0.11759763E+04</rscale>
<asrwt>0</asrwt>
<pdfrwt beam="1">  1       21 0.15231464E+00 0.11934649E+04</pdfrwt>
<pdfrwt beam="2">  1       21 0.33896953E+00 0.11934649E+04</pdfrwt>
<totfact> 0.16369862E+00</totfact>
</mgrwt>
</event>
<event>
 8    1  0.5815007E-006  0.1087104E+04  0.7818608E-02  0.8696819E-01
         21   -1    0    0  501  502  0.00000000000E+00  0.00000000000E+00  0.13904957576E+04  0.13904957576E+04  0.00000000000E+00 0. -1.
         21   -1    0    0  502  503 -0.00000000000E+00 -0.00000000000E+00 -0.86680946820E+03  0.86680946820E+03  0.00000000000E+00 0. -1.
   -9000010    2    1    2    0  503 -0.24171028903E+03 -0.32661842672E+03  0.10389078889E+03  0.10919624934E+04  0.10082089716E+04 0.  0.
    9000010    2    1    2  501    0  0.24171028903E+03  0.32661842672E+03  0.41979550054E+03  0.11653427325E+04  0.10083114406E+04 0.  0.
        -13    1    4    4    0    0  0.46568391939E+03  0.14162162643E+03 -0.16370077943E+03  0.51353301179E+03  0.10566000000E+00 0.  1.
          4    1    4    4  501    0 -0.22397363036E+03  0.18499680029E+03  0.58349627997E+03  0.65180972066E+03  0.00000000000E+00 0.  1.
         13    1    3    3    0    0 -0.15370754516E+03 -0.11391384044E+03 -0.45171490823E+03  0.49055962121E+03  0.10566000000E+00 0. -1.
         -4    1    3    3    0  503 -0.88002743864E+02 -0.21270458628E+03  0.55560569712E+03  0.60140287215E+03  0.00000000000E+00 0. -1.
<mgrwt>
<rscale>  2 0.10870804E+04</rscale>
<asrwt>0</asrwt>
<pdfrwt beam="1">  1       21 0.21392242E+00 0.10871041E+04</pdfrwt>
<pdfrwt beam="2">  1       21 0.13335530E+00 0.10871041E+04</pdfrwt>
<totfact> 0.19888653E+01</totfact>
</mgrwt>
</event>
<event>
 8    1  0.5815007E-006  0.1172300E+04  0.7818608E-02  0.8656206E-01
         21   -1    0    0  501  502  0.00000000000E+00  0.00000000000E+00  0.18096136980E+04  0.18096136980E+04  0.00000000000E+00 0. -1.
         21   -1    0    0  502  503 -0.00000000000E+00 -0.00000000000E+00 -0.74222523721E+03  0.74222523721E+03  0.00000000000E+00 0. -1.
   -9000010    2    1    2    0  503 -0.34420483625E+03  0.45611269729E+03  0.11391254185E+03  0.10407453660E+04  0.86235670565E+03 0.  0.
    9000010    2    1    2  501    0  0.34420483625E+03 -0.45611269729E+03  0.95347591897E+03  0.15110935692E+04  0.10236071927E+04 0.  0.
        -13    1    4    4    0    0  0.50154596322E+03  0.12708136021E+03  0.22350179547E+03  0.56360543741E+03  0.10566000000E+00 0.  1.
          4    1    4    4  501    0 -0.15734112697E+03 -0.58319405750E+03  0.72997412350E+03  0.94748813181E+03  0.00000000000E+00 0.  1.
         13    1    3    3    0    0 -0.18181980189E+03 -0.24386495666E+03 -0.37231496568E+02  0.30645514019E+03  0.10566000000E+00 0. -1.
         -4    1    3    3    0  503 -0.16238503435E+03  0.69997765395E+03  0.15114403842E+03  0.73429022584E+03  0.00000000000E+00 0. -1.
<mgrwt>
<rscale>  2 0.11362161E+04</rscale>
<asrwt>0</asrwt>
<pdfrwt beam="1">  1       21 0.27840211E+00 0.11723001E+04</pdfrwt>
<pdfrwt beam="2">  1       21 0.11418850E+00 0.11723001E+04</pdfrwt>
<totfact> 0.10210562E+01</totfact>
</mgrwt>
</event>
<event>
 8    1  0.5815007E-006  0.1134184E+04  0.7818608E-02  0.8659651E-01
         21   -1    0    0  503  502  0.00000000000E+00  0.00000000000E+00  0.68058079959E+03  0.68058079959E+03  0.00000000000E+00 0. -1.
         21   -1    0    0  501  503 -0.00000000000E+00 -0.00000000000E+00 -0.19667821411E+04  0.19667821411E+04  0.00000000000E+00 0. -1.
    9000010    2    1    2  501    0  0.82770367618E+02 -0.52920423330E+03 -0.93107425025E+03  0.14674031697E+04  0.99973233846E+03 0.  0.
   -9000010    2    1    2    0  502 -0.82770367618E+02  0.52920423330E+03 -0.35512709130E+03  0.11799597711E+04  0.98958665919E+03 0.  0.
        -13    1    3    3    0    0  0.15817546159E+03 -0.58872737568E+03 -0.84545460447E+02  0.61544077341E+03  0.10566000000E+00 0.  1.
          4    1    3    3  501    0 -0.75405093976E+02  0.59523142377E+02 -0.84652878981E+03  0.85196239626E+03  0.00000000000E+00 0.  1.
         13    1    4    4    0    0 -0.42614448320E+03  0.91568468000E+02 -0.43757115383E+03  0.61761835362E+03  0.10566000000E+00 0. -1.
         -4    1    4    4    0  502  0.34337411558E+03  0.43763576530E+03  0.82444062532E+02  0.56234141744E+03  0.00000000000E+00 0. -1.
<mgrwt>
<rscale>  2 0.11319439E+04</rscale>
<asrwt>0</asrwt>
<pdfrwt beam="1">  1       21 0.10470474E+00 0.11341838E+04</pdfrwt>
<pdfrwt beam="2">  1       21 0.30258186E+00 0.11341838E+04</pdfrwt>
<totfact> 0.87657831E+00</totfact>
</mgrwt>
</event>
<event>
 8    1  0.5815007E-006  0.1076118E+04  0.7818608E-02  0.8715474E-01
         21   -1    0    0  501  502  0.00000000000E+00  0.00000000000E+00  0.22170312637E+04  0.22170312637E+04  0.00000000000E+00 0. -1.
         21   -1    0    0  502  503 -0.00000000000E+00 -0.00000000000E+00 -0.50686737768E+03  0.50686737768E+03  0.00000000000E+00 0. -1.
   -9000010    2    1    2    0  503 -0.10558512996E+03 -0.43528877495E+03  0.97154765899E+03  0.14186849141E+04  0.93173896264E+03 0.  0.
    9000010    2    1    2  501    0  0.10558512996E+03  0.43528877495E+03  0.73861622704E+03  0.13052137273E+04  0.97847044198E+03 0.  0.
        -13    1    4    4    0    0 -0.11465303020E+03 -0.27625964929E+03  0.36503040758E+03  0.47192363872E+03  0.10566000000E+00 0.  1.
          4    1    4    4  501    0  0.22023816017E+03  0.71154842424E+03  0.37358581946E+03  0.83329008858E+03  0.00000000000E+00 0.  1.
         13    1    3    3    0    0  0.35079640113E+03 -0.37959258732E+03  0.74339863356E+03  0.90542265652E+03  0.10566000000E+00 0. -1.
         -4    1    3    3    0  503 -0.45638153110E+03 -0.55696187637E+02  0.22814902543E+03  0.51326225757E+03  0.00000000000E+00 0. -1.
<mgrwt>
<rscale>  2 0.10653809E+04</rscale>
<asrwt>0</asrwt>
<pdfrwt beam="1">  1       21 0.34108173E+00 0.10761175E+04</pdfrwt>
<pdfrwt beam="2">  1       21 0.77979598E-01 0.10761175E+04</pdfrwt>
<totfact> 0.10086690E+01</totfact>
</mgrwt>
</event>
<event>
 8    1  0.5815007E-006  0.1065460E+04  0.7818608E-02  0.8715846E-01
         21   -1    0    0  501  502  0.00000000000E+00  0.00000000000E+00  0.11493515489E+04  0.11493515489E+04  0.00000000000E+00 0.  1.
         21   -1    0    0  502  503 -0.00000000000E+00 -0.00000000000E+00 -0.10800694718E+04  0.10800694718E+04  0.00000000000E+00 0.  1.
   -9000010    2    1    2    0  503 -0.34391802263E+03  0.16043141624E+03 -0.29462438599E+03  0.11054445557E+04  0.99558339247E+03 0.  0.
    9000010    2    1    2  501    0  0.34391802263E+03 -0.16043141624E+03  0.36390646305E+03  0.11239764650E+04  0.99341699927E+03 0.  0.
        -13    1    4    4    0    0  0.30232472545E+03 -0.48270096529E+03 -0.78619308805E+02  0.57496214518E+03  0.10566000000E+00 0.  1.
          4    1    4    4  501    0  0.41593297175E+02  0.32226954905E+03  0.44252577185E+03  0.54901431982E+03  0.00000000000E+00 0.  1.
         13    1    3    3    0    0 -0.22114121997E+03 -0.82133159192E+02 -0.63058316628E+03  0.67326401640E+03  0.10566000000E+00 0. -1.
         -4    1    3    3    0  503 -0.12277680265E+03  0.24256457543E+03  0.33595878029E+03  0.43218053933E+03  0.00000000000E+00 0. -1.
<mgrwt>
<rscale>  2 0.10649532E+04</rscale>
<asrwt>0</asrwt>
<pdfrwt beam="1">  1       21 0.17682332E+00 0.10654596E+04</pdfrwt>
<pdfrwt beam="2">  1       21 0.16616453E+00 0.10654596E+04</pdfrwt>
<totfact> 0.19946653E+01</totfact>
</mgrwt>
</event>
<event>
 8    1  0.5815007E-006  0.1140829E+04  0.7818608E-02  0.8656277E-01
         21   -1    0    0  503  502  0.00000000000E+00  0.00000000000E+00  0.10192320869E+04  0.10192320869E+04  0.00000000000E+00 0.  1.
         21   -1    0    0  501  503 -0.00000000000E+00 -0.00000000000E+00 -0.14184776093E+04  0.14184776093E+04  0.00000000000E+00 0.  1.
    9000010    2    1    2  501    0  0.13944761662E+03 -0.44889202359E+03  0.21129232168E+03  0.11602309001E+04  0.10394910340E+04 0.  0.
   -9000010    2    1    2    0  502 -0.13944761662E+03  0.44889202359E+03 -0.61053784402E+03  0.12774787961E+04  0.10189435357E+04 0.  0.
        -13    1    3    3    0    0  0.59066211516E+03 -0.30024881277E+03  0.80353608944E+02  0.66744872275E+03  0.10566000000E+00 0.  1.
          4    1    3    3  501    0 -0.45121449855E+03 -0.14864321082E+03  0.13093871273E+03  0.49278217735E+03  0.00000000000E+00 0.  1.
         13    1    4    4    0    0  0.28336209562E+03  0.34131725070E+03  0.89565797038E+02  0.45256335028E+03  0.10566000000E+00 0. -1.
         -4    1    4    4    0  502 -0.42280971223E+03  0.10757477289E+03 -0.70010364106E+03  0.82491544582E+03  0.00000000000E+00 0. -1.
<mgrwt>
<rscale>  2 0.11361276E+04</rscale>
<asrwt>0</asrwt>
<pdfrwt beam="1">  1       21 0.15680494E+00 0.11408292E+04</pdfrwt>
<pdfrwt beam="2">  1       21 0.21822732E+00 0.11408292E+04</pdfrwt>
<totfact> 0.11155992E+01</totfact>
</mgrwt>
</event>
<event>
 8    1  0.5815007E-006  0.1068413E+04  0.7818608E-02  0.8738635E-01
         21   -1    0    0  503  502  0.00000000000E+00  0.00000000000E+00  0.10587263109E+04  0.10587263109E+04  0.00000000000E+00 0.  1.
         21   -1    0    0  501  503 -0.00000000000E+00 -0.00000000000E+00 -0.10962013931E+04  0.10962013931E+04  0.00000000000E+00 0.  1.
    9000010    2    1    2  501    0  0.31784240744E+03  0.16118715000E+03 -0.38780462562E+03  0.11366174335E+04  0.10072247362E+04 0.  0.
   -9000010    2    1    2    0  502 -0.31784240744E+03 -0.16118715000E+03  0.35032954339E+03  0.10183102704E+04  0.88725414884E+03 0.  0.
        -13    1    3    3    0    0  0.12833604964E+03 -0.32607943184E+03 -0.49148194983E+03  0.60361614929E+03  0.10566000000E+00 0.  1.
          4    1    3    3  501    0  0.18950635780E+03  0.48726658184E+03  0.10367732421E+03  0.53300128422E+03  0.00000000000E+00 0.  1.
         13    1    4    4    0    0  0.27459709556E+03 -0.17030378014E+03 -0.12807129454E+02  0.32337435914E+03  0.10566000000E+00 0. -1.
         -4    1    4    4    0  502 -0.59243950300E+03  0.91166301454E+01  0.36313667284E+03  0.69493591130E+03  0.00000000000E+00 0. -1.
<mgrwt>
<rscale>  2 0.10391687E+04</rscale>
<asrwt>0</asrwt>
<pdfrwt beam="1">  1       21 0.16288097E+00 0.10684132E+04</pdfrwt>
<pdfrwt beam="2">  1       21 0.16864637E+00 0.10684132E+04</pdfrwt>
<totfact> 0.24867389E+01</totfact>
</mgrwt>
</event>
<event>
 8    1  0.5815007E-006  0.1160725E+04  0.7818608E-02  0.8656429E-01
         21   -1    0    0  501  502  0.00000000000E+00  0.00000000000E+00  0.85673588921E+03  0.85673588921E+03  0.00000000000E+00 0.  1.
         21   -1    0    0  502  503 -0.00000000000E+00 -0.00000000000E+00 -0.14681822276E+04  0.14681822276E+04  0.00000000000E+00 0.  1.
   -9000010    2    1    2    0  503  0.31402269572E+03  0.49051389420E+03 -0.43809756590E+03  0.11513199843E+04  0.89128788570E+03 0.  0.
    9000010    2    1    2  501    0 -0.31402269572E+03 -0.49051389420E+03 -0.17334877248E+03  0.11735981325E+04  0.10040262177E+04 0.  0.
        -13    1    4    4    0    0  0.26697727080E+03 -0.17050641113E+03  0.23522337529E+03  0.39456222172E+03  0.10566000000E+00 0.  1.
          4    1    4    4  501    0 -0.58099996653E+03 -0.32000748307E+03 -0.40857214777E+03  0.77903591076E+03  0.00000000000E+00 0.  1.
         13    1    3    3    0    0  0.55062371695E+03  0.44965953898E+03 -0.73398610965E+02  0.71468003045E+03  0.10566000000E+00 0. -1.
         -4    1    3    3    0  503 -0.23660102122E+03  0.40854355221E+02 -0.36469895494E+03  0.43663995387E+03  0.00000000000E+00 0. -1.
<mgrwt>
<rscale>  2 0.11359387E+04</rscale>
<asrwt>0</asrwt>
<pdfrwt beam="1">  1       21 0.13180552E+00 0.11607251E+04</pdfrwt>
<pdfrwt beam="2">  1       21 0.22587419E+00 0.11607251E+04</pdfrwt>
<totfact> 0.16461269E+01</totfact>
</mgrwt>
</event>
<event>
 8    1  0.5815007E-006  0.1113212E+04  0.7818608E-02  0.8675182E-01
         21   -1    0    0  503  502  0.00000000000E+00  0.00000000000E+00  0.14358924622E+04  0.14358924622E+04  0.00000000000E+00 0.  1.
         21   -1    0    0  501  503 -0.00000000000E+00 -0.00000000000E+00 -0.10798873898E+04  0.10798873898E+04  0.00000000000E+00 0.  1.
    9000010    2    1    2  501    0  0.17996523116E+03  0.46890183890E+03 -0.38688246327E+03  0.11774512951E+04  0.99219811173E+03 0.  0.
   -9000010    2    1    2    0  502 -0.17996523116E+03 -0.46890183890E+03  0.74288753562E+03  0.13383285569E+04  0.99347119575E+03 0.  0.
        -13    1    3    3    0    0 -0.21699631025E+03  0.40531497215E+03  0.17038605666E+03  0.49030505278E+03  0.10566000000E+00 0.  1.
          4    1    3    3  501    0  0.39696154141E+03  0.63586866747E+02 -0.55726851993E+03  0.68714624228E+03  0.00000000000E+00 0.  1.
         13    1    4    4    0    0 -0.54970934914E+03 -0.28868773429E+03  0.19020575458E+03  0.64938372070E+03  0.10566000000E+00 0. -1.
         -4    1    4    4    0  502  0.36974411799E+03 -0.18021410461E+03  0.55268178104E+03  0.68894483624E+03  0.00000000000E+00 0. -1.
<mgrwt>
<rscale>  2 0.11129281E+04</rscale>
<asrwt>0</asrwt>
<pdfrwt beam="1">  1       21 0.22090653E+00 0.11132122E+04</pdfrwt>
<pdfrwt beam="2">  1       21 0.16613652E+00 0.11132122E+04</pdfrwt>
<totfact> 0.89040206E+00</totfact>
</mgrwt>
</event>
<event>
 8    1  0.5815007E-006  0.1419356E+04  0.7818608E-02  0.8457503E-01
         21   -1    0    0  501  502  0.00000000000E+00  0.00000000000E+00  0.67442328703E+03  0.67442328703E+03  0.00000000000E+00 0.  1.
         21   -1    0    0  502  503 -0.00000000000E+00 -0.00000000000E+00 -0.30037515226E+04  0.30037515226E+04  0.00000000000E+00 0.  1.
   -9000010    2    1    2    0  503  0.63910576692E+03  0.78558560932E+03 -0.10261674533E+04  0.17513118472E+04  0.99421959990E+03 0.  0.
    9000010    2    1    2  501    0 -0.63910576692E+03 -0.78558560932E+03 -0.13031607822E+04  0.19268629625E+04  0.99447067376E+03 0.  0.
        -13    1    4    4    0    0 -0.70755142715E+03 -0.80396344033E+03 -0.14269965653E+04  0.17841820098E+04  0.10566000000E+00 0.  1.
          4    1    4    4  501    0  0.68445660234E+02  0.18377831013E+02  0.12383578311E+03  0.14268095268E+03  0.00000000000E+00 0.  1.
         13    1    3    3    0    0  0.64527360678E+03  0.10075496485E+04 -0.84574145773E+03  0.14652006505E+04  0.10566000000E+00 0. -1.
         -4    1    3    3    0  503 -0.61678398627E+01 -0.22196403919E+03 -0.18042599561E+03  0.28611119663E+03  0.00000000000E+00 0. -1.
<mgrwt>
<rscale>  2 0.14193125E+04</rscale>
<asrwt>0</asrwt>
<pdfrwt beam="1">  1       21 0.10375743E+00 0.14193565E+04</pdfrwt>
<pdfrwt beam="2">  1       21 0.46211561E+00 0.14193565E+04</pdfrwt>
<totfact> 0.65495570E-01</totfact>
</mgrwt>
</event>
<event>
 8    1  0.5815007E-006  0.1318995E+04  0.7818608E-02  0.8524296E-01
         21   -1    0    0  501  502  0.00000000000E+00  0.00000000000E+00  0.92839028293E+03  0.92839028293E+03  0.00000000000E+00 0. -1.
         21   -1    0    0  502  503 -0.00000000000E+00 -0.00000000000E+00 -0.18611698840E+04  0.18611698840E+04  0.00000000000E+00 0.  1.
   -9000010    2    1    2    0  503  0.91445732509E+02 -0.84925875445E+03 -0.54804747157E+03  0.14156002046E+04  0.98689672924E+03 0.  0.
    9000010    2    1    2  501    0 -0.91445732509E+02  0.84925875445E+03 -0.38473212946E+03  0.13739599623E+04  0.10050594075E+04 0.  0.
        -13    1    4    4    0    0 -0.50862345382E+03  0.45917395000E+03  0.16674425568E+00  0.68522884725E+03  0.10566000000E+00 0.  1.
          4    1    4    4  501    0  0.41717772132E+03  0.39008480445E+03 -0.38489887371E+03  0.68873111503E+03  0.00000000000E+00 0.  1.
         13    1    3    3    0    0  0.24377546626E+03 -0.98702385050E+03 -0.23878047988E+03  0.10443460577E+04  0.10566000000E+00 0. -1.
         -4    1    3    3    0  503 -0.15232973375E+03  0.13776509605E+03 -0.30926699169E+03  0.37125414695E+03  0.00000000000E+00 0. -1.
<mgrwt>
<rscale>  2 0.13155345E+04</rscale>
<asrwt>0</asrwt>
<pdfrwt beam="1">  1       21 0.14282928E+00 0.13189948E+04</pdfrwt>
<pdfrwt beam="2">  1       21 0.28633383E+00 0.13189948E+04</pdfrwt>
<totfact> 0.45703570E+00</totfact>
</mgrwt>
</event>
<event>
 8    1  0.5815007E-006  0.1306947E+04  0.7818608E-02  0.8534062E-01
         21   -1    0    0  501  502  0.00000000000E+00  0.00000000000E+00  0.78148893383E+03  0.78148893383E+03  0.00000000000E+00 0.  1.
         21   -1    0    0  502  503 -0.00000000000E+00 -0.00000000000E+00 -0.21593829865E+04  0.21593829865E+04  0.00000000000E+00 0.  1.
   -9000010    2    1    2    0  503 -0.86192574694E+03  0.10318883544E+03 -0.57276610782E+03  0.14058341290E+04  0.94590943275E+03 0.  0.
    9000010    2    1    2  501    0  0.86192574694E+03 -0.10318883544E+03 -0.80512794480E+03  0.15350377913E+04  0.97700874317E+03 0.  0.
        -13    1    4    4    0    0  0.58575640921E+03  0.22838595927E+03 -0.81773139059E+01  0.62875877484E+03  0.10566000000E+00 0.  1.
          4    1    4    4  501    0  0.27616933773E+03 -0.33157479471E+03 -0.79695063089E+03  0.90627901646E+03  0.00000000000E+00 0.  1.
         13    1    3    3    0    0 -0.51204789672E+03  0.21539333351E+02  0.20274142178E+03  0.55114525008E+03  0.10566000000E+00 0. -1.
         -4    1    3    3    0  503 -0.34987785022E+03  0.81649502087E+02 -0.77550752960E+03  0.85468887891E+03  0.00000000000E+00 0. -1.
<mgrwt>
<rscale>  2 0.13011377E+04</rscale>
<asrwt>0</asrwt>
<pdfrwt beam="1">  1       21 0.12022907E+00 0.13069468E+04</pdfrwt>
<pdfrwt beam="2">  1       21 0.33221277E+00 0.13069468E+04</pdfrwt>
<totfact> 0.35878756E+00</totfact>
</mgrwt>
</event>
<event>
 8    1  0.5815007E-006  0.1071841E+04  0.7818608E-02  0.8716537E-01
         21   -1    0    0  501  502  0.00000000000E+00  0.00000000000E+00  0.15160212363E+04  0.15160212363E+04  0.00000000000E+00 0. -1.
         21   -1    0    0  502  503 -0.00000000000E+00 -0.00000000000E+00 -0.79917234147E+03  0.79917234147E+03  0.00000000000E+00 0. -1.
   -9000010    2    1    2    0  503  0.92339345588E+02 -0.34083765290E+03  0.67790772564E+03  0.12426452133E+04  0.97975067297E+03 0.  0.
    9000010    2    1    2  501    0 -0.92339345588E+02  0.34083765290E+03  0.38941169192E+02  0.10725483645E+04  0.10120013435E+04 0.  0.
        -13    1    4    4    0    0 -0.18961602195E+03 -0.32341695320E+03 -0.97742657449E+02  0.38743567162E+03  0.10566000000E+00 0.  1.
          4    1    4    4  501    0  0.97276676364E+02  0.66425460610E+03  0.13668382664E+03  0.68511269288E+03  0.00000000000E+00 0.  1.
         13    1    3    3    0    0  0.14334443146E+02 -0.48963315074E+03  0.86321675877E+03  0.99251664084E+03  0.10566000000E+00 0. -1.
         -4    1    3    3    0  503  0.78004902442E+02  0.14879549784E+03 -0.18530903313E+03  0.25012857242E+03  0.00000000000E+00 0. -1.
<mgrwt>
<rscale>  2 0.10641600E+04</rscale>
<asrwt>0</asrwt>
<pdfrwt beam="1">  1       21 0.23323404E+00 0.10718412E+04</pdfrwt>
<pdfrwt beam="2">  1       21 0.12294959E+00 0.10718412E+04</pdfrwt>
<totfact> 0.18052198E+01</totfact>
</mgrwt>
</event>
<event>
 8    1  0.5815007E-006  0.1277809E+04  0.7818608E-02  0.8551272E-01
         21   -1    0    0  501  502  0.00000000000E+00  0.00000000000E+00  0.13403030206E+04  0.13403030206E+04  0.00000000000E+00 0.  1.
         21   -1    0    0  502  503 -0.00000000000E+00 -0.00000000000E+00 -0.12957185621E+04  0.12957185621E+04  0.00000000000E+00 0.  1.
   -9000010    2    1    2    0  503  0.47786981790E+03  0.62309560957E+03 -0.31225654300E+03  0.13154082054E+04  0.10080609588E+04 0.  0.
    9000010    2    1    2  501    0 -0.47786981790E+03 -0.62309560957E+03  0.35684100157E+03  0.13206133773E+04  0.10000382444E+04 0.  0.
        -13    1    4    4    0    0 -0.18810052559E+03  0.12160802799E+03 -0.23618900792E+03  0.32550818549E+03  0.10566000000E+00 0.  1.
          4    1    4    4  501    0 -0.28976929231E+03 -0.74470363756E+03  0.59303000948E+03  0.99510519178E+03  0.00000000000E+00 0.  1.
         13    1    3    3    0    0  0.45055627134E+03 -0.35282919586E+01  0.21199093137E+03  0.49794936352E+03  0.10566000000E+00 0. -1.
         -4    1    3    3    0  503  0.27313546561E+02  0.62662390153E+03 -0.52424747437E+03  0.81745884188E+03  0.00000000000E+00 0. -1.
<mgrwt>
<rscale>  2 0.12762257E+04</rscale>
<asrwt>0</asrwt>
<pdfrwt beam="1">  1       21 0.20620046E+00 0.12778085E+04</pdfrwt>
<pdfrwt beam="2">  1       21 0.19934132E+00 0.12778085E+04</pdfrwt>
<totfact> 0.59769476E+00</totfact>
</mgrwt>
</event>
<event>
 8    1  0.5815007E-006  0.1267809E+04  0.7818608E-02  0.8562350E-01
         21   -1    0    0  503  502  0.00000000000E+00  0.00000000000E+00  0.26627118143E+04  0.26627118143E+04  0.00000000000E+00 0.  1.
         21   -1    0    0  501  503 -0.00000000000E+00 -0.00000000000E+00 -0.74751710506E+03  0.74751710506E+03  0.00000000000E+00 0.  1.
    9000010    2    1    2  501    0  0.46877302857E+03  0.61679200553E+03  0.18345407558E+03  0.12810132237E+04  0.10035730920E+04 0.  0.
   -9000010    2    1    2    0  502 -0.46877302857E+03 -0.61679200553E+03  0.17317406336E+04  0.21292156957E+04  0.96667126063E+03 0.  0.
        -13    1    3    3    0    0 -0.20332111328E+03  0.30110736550E+03 -0.23109321310E+03  0.43059169171E+03  0.10566000000E+00 0.  1.
          4    1    3    3  501    0  0.67209414185E+03  0.31568464003E+03  0.41454728868E+03  0.85042153195E+03  0.00000000000E+00 0.  1.
         13    1    4    4    0    0 -0.76682226394E+02  0.48255407116E+01  0.12457552199E+04  0.12481224013E+04  0.10566000000E+00 0. -1.
         -4    1    4    4    0  502 -0.39209080218E+03 -0.62161754624E+03  0.48598541374E+03  0.88109329433E+03  0.00000000000E+00 0. -1.
<mgrwt>
<rscale>  2 0.12604945E+04</rscale>
<asrwt>0</asrwt>
<pdfrwt beam="1">  1       21 0.40964797E+00 0.12678089E+04</pdfrwt>
<pdfrwt beam="2">  1       21 0.11500263E+00 0.12678089E+04</pdfrwt>
<totfact> 0.11751605E+00</totfact>
</mgrwt>
</event>
<event>
 8    1  0.5815007E-006  0.1069259E+04  0.7818608E-02  0.8715068E-01
         21   -1    0    0  503  502  0.00000000000E+00  0.00000000000E+00  0.95870223572E+03  0.95870223572E+03  0.00000000000E+00 0.  1.
         21   -1    0    0  501  503 -0.00000000000E+00 -0.00000000000E+00 -0.11819840531E+04  0.11819840531E+04  0.00000000000E+00 0.  1.
    9000010    2    1    2  501    0 -0.15437746175E+03  0.33221486350E+03 -0.46163930778E+02  0.10702553723E+04  0.10045478272E+04 0.  0.
   -9000010    2    1    2    0  502  0.15437746175E+03 -0.33221486350E+03 -0.17711788662E+03  0.10704309166E+04  0.99007700972E+03 0.  0.
        -13    1    3    3    0    0  0.24154518669E+03  0.43582138172E+03 -0.30670158322E+03  0.58510702123E+03  0.10566000000E+00 0.  1.
          4    1    3    3  501    0 -0.39592264844E+03 -0.10360651823E+03  0.26053765244E+03  0.48514835103E+03  0.00000000000E+00 0.  1.
         13    1    4    4    0    0 -0.40221620142E+03 -0.81366934731E+02  0.61499933194E+02  0.41494662753E+03  0.10566000000E+00 0. -1.
         -4    1    4    4    0  502  0.55659366317E+03 -0.25084792877E+03 -0.23861781981E+03  0.65548428904E+03  0.00000000000E+00 0. -1.
<mgrwt>
<rscale>  2 0.10658472E+04</rscale>
<asrwt>0</asrwt>
<pdfrwt beam="1">  1       21 0.14749265E+00 0.10692593E+04</pdfrwt>
<pdfrwt beam="2">  1       21 0.18184370E+00 0.10692593E+04</pdfrwt>
<totfact> 0.26390078E+01</totfact>
</mgrwt>
</event>
<event>
 8    1  0.5815007E-006  0.1086687E+04  0.7818608E-02  0.8699676E-01
         21   -1    0    0  501  502  0.00000000000E+00  0.00000000000E+00  0.14897427415E+04  0.14897427415E+04  0.00000000000E+00 0. -1.
         21   -1    0    0  502  503 -0.00000000000E+00 -0.00000000000E+00 -0.11967630468E+04  0.11967630468E+04  0.00000000000E+00 0. -1.
   -9000010    2    1    2    0  503 -0.38666312437E+03 -0.11034064218E+03 -0.64280931889E+03  0.12524243815E+04  0.99683478163E+03 0.  0.
    9000010    2    1    2  501    0  0.38666312437E+03  0.11034064218E+03  0.93578901360E+03  0.14340814069E+04  0.10095568208E+04 0.  0.
        -13    1    4    4    0    0 -0.14399043221E+03  0.20273875953E+03 -0.98877246574E+02  0.26760599814E+03  0.10566000000E+00 0.  1.
          4    1    4    4  501    0  0.53065355659E+03 -0.92398117353E+02  0.10346662602E+04  0.11664754087E+04  0.00000000000E+00 0.  1.
         13    1    3    3    0    0 -0.39019187926E+03  0.35225374988E+03 -0.58457087564E+03  0.78616507602E+03  0.10566000000E+00 0. -1.
         -4    1    3    3    0  503  0.35287548908E+01 -0.46259439206E+03 -0.58238443254E+02  0.46625930548E+03  0.00000000000E+00 0. -1.
<mgrwt>
<rscale>  2 0.10837226E+04</rscale>
<asrwt>0</asrwt>
<pdfrwt beam="1">  1       21 0.22919119E+00 0.10866869E+04</pdfrwt>
<pdfrwt beam="2">  1       21 0.18411739E+00 0.10866869E+04</pdfrwt>
<totfact> 0.55129330E+00</totfact>
</mgrwt>
</event>
<event>
 8    1  0.5815007E-006  0.1044421E+04  0.7818608E-02  0.8801412E-01
         21   -1    0    0  503  502  0.00000000000E+00  0.00000000000E+00  0.15811123051E+04  0.15811123051E+04  0.00000000000E+00 0. -1.
         21   -1    0    0  501  503 -0.00000000000E+00 -0.00000000000E+00 -0.53019905321E+03  0.53019905321E+03  0.00000000000E+00 0. -1.
    9000010    2    1    2  501    0 -0.24110540329E+03 -0.22798377146E+03  0.51480230215E+03  0.93733085043E+03  0.70954865746E+03 0.  0.
   -9000010    2    1    2    0  502  0.24110540329E+03  0.22798377146E+03  0.53611094974E+03  0.11739805079E+04  0.99030645102E+03 0.  0.
        -13    1    3    3    0    0  0.21826047227E+03 -0.92081555665E+01  0.71250316977E+01  0.21857081489E+03  0.10566000000E+00 0.  1.
          4    1    3    3  501    0 -0.45936587556E+03 -0.21877561590E+03  0.50767727046E+03  0.71876003553E+03  0.00000000000E+00 0.  1.
         13    1    4    4    0    0 -0.14377669214E+02  0.39303328694E+03 -0.15199823797E+03  0.42164600974E+03  0.10566000000E+00 0. -1.
         -4    1    4    4    0  502  0.25548307251E+03 -0.16504951548E+03  0.68810918771E+03  0.75233449815E+03  0.00000000000E+00 0. -1.
<mgrwt>
<rscale>  2 0.97194014E+03</rscale>
<asrwt>0</asrwt>
<pdfrwt beam="1">  1       21 0.24324804E+00 0.10444210E+04</pdfrwt>
<pdfrwt beam="2">  1       21 0.81569086E-01 0.10444210E+04</pdfrwt>
<totfact> 0.45172696E+01</totfact>
</mgrwt>
</event>
<event>
 8    1  0.5815007E-006  0.1785647E+04  0.7818608E-02  0.8262725E-01
         21   -1    0    0  501  502  0.00000000000E+00  0.00000000000E+00  0.23835812179E+04  0.23835812179E+04  0.00000000000E+00 0.  1.
         21   -1    0    0  502  503 -0.00000000000E+00 -0.00000000000E+00 -0.13415434944E+04  0.13415434944E+04  0.00000000000E+00 0. -1.
   -9000010    2    1    2    0  503 -0.95556161154E+03  0.11203280170E+04  0.35742897385E+03  0.18127377550E+04  0.99500243114E+03 0.  0.
    9000010    2    1    2  501    0  0.95556161154E+03 -0.11203280170E+04  0.68460874961E+03  0.19123869573E+04  0.10100999334E+04 0.  0.
        -13    1    4    4    0    0  0.53013698997E+03  0.36015389626E+02  0.71482132019E+02  0.53614554254E+03  0.10566000000E+00 0.  1.
          4    1    4    4  501    0  0.42542462157E+03 -0.11563434066E+04  0.61312661759E+03  0.13762414148E+04  0.00000000000E+00 0.  1.
         13    1    3    3    0    0 -0.35610459381E+03  0.91437161819E+03  0.58128760927E+03  0.11405179673E+04  0.10566000000E+00 0. -1.
         -4    1    3    3    0  503 -0.59945701773E+03  0.20595639877E+03 -0.22385863542E+03  0.67221978769E+03  0.00000000000E+00 0. -1.
<mgrwt>
<rscale>  2 0.17835189E+04</rscale>
<asrwt>0</asrwt>
<pdfrwt beam="1">  1       21 0.36670480E+00 0.17856469E+04</pdfrwt>
<pdfrwt beam="2">  1       21 0.20639131E+00 0.17856469E+04</pdfrwt>
<totfact> 0.33605338E-01</totfact>
</mgrwt>
</event>
<event>
 8    1  0.5815007E-006  0.1110240E+04  0.7818608E-02  0.8688008E-01
         21   -1    0    0  503  502  0.00000000000E+00  0.00000000000E+00  0.11108191158E+04  0.11108191158E+04  0.00000000000E+00 0. -1.
         21   -1    0    0  501  503 -0.00000000000E+00 -0.00000000000E+00 -0.10602378718E+04  0.10602378718E+04  0.00000000000E+00 0. -1.
    9000010    2    1    2  501    0 -0.10332574373E+03 -0.35762756035E+03  0.22383933313E+02  0.11104651487E+04  0.10459723347E+04 0.  0.
   -9000010    2    1    2    0  502  0.10332574373E+03  0.35762756035E+03  0.28197310654E+02  0.10605918388E+04  0.99271661565E+03 0.  0.
        -13    1    3    3    0    0 -0.29162704386E+03  0.30450450319E+03  0.19373246369E+02  0.42207186475E+03  0.10566000000E+00 0.  1.
          4    1    3    3  501    0  0.18830130013E+03 -0.66213206354E+03  0.30106869443E+01  0.68839328399E+03  0.00000000000E+00 0.  1.
         13    1    4    4    0    0  0.47657866635E+03  0.40693110299E+03  0.18400689993E+03  0.65312992443E+03  0.10566000000E+00 0. -1.
         -4    1    4    4    0  502 -0.37325292262E+03 -0.49303542642E+02 -0.15580958928E+03  0.40746191438E+03  0.00000000000E+00 0. -1.
<mgrwt>
<rscale>  2 0.10975169E+04</rscale>
<asrwt>0</asrwt>
<pdfrwt beam="1">  1       21 0.17089525E+00 0.11102395E+04</pdfrwt>
<pdfrwt beam="2">  1       21 0.16311352E+00 0.11102395E+04</pdfrwt>
<totfact> 0.23489135E+01</totfact>
</mgrwt>
</event>
<event>
 8    1  0.5815007E-006  0.1106878E+04  0.7818608E-02  0.8681712E-01
         21   -1    0    0  503  502  0.00000000000E+00  0.00000000000E+00  0.13273991437E+04  0.13273991437E+04  0.00000000000E+00 0. -1.
         21   -1    0    0  501  503 -0.00000000000E+00 -0.00000000000E+00 -0.97360096159E+03  0.97360096159E+03  0.00000000000E+00 0. -1.
    9000010    2    1    2  501    0 -0.32138975349E+03 -0.34067921737E+03 -0.10125485581E+03  0.11042329087E+04  0.99484876645E+03 0.  0.
   -9000010    2    1    2    0  502  0.32138975349E+03  0.34067921737E+03  0.45505303794E+03  0.11967671966E+04  0.10029081477E+04 0.  0.
        -13    1    3    3    0    0  0.24146687795E+03  0.19143587376E+03  0.57757966218E+02  0.31351226569E+03  0.10566000000E+00 0.  1.
          4    1    3    3  501    0 -0.56285663144E+03 -0.53211509114E+03 -0.15901282203E+03  0.79072064305E+03  0.00000000000E+00 0.  1.
         13    1    4    4    0    0 -0.29583128605E+03 -0.13121290841E+03  0.19307044263E+03  0.37684105949E+03  0.10566000000E+00 0. -1.
         -4    1    4    4    0  502  0.61722103954E+03  0.47189212578E+03  0.26198259532E+03  0.81992613708E+03  0.00000000000E+00 0. -1.
<mgrwt>
<rscale>  2 0.11050490E+04</rscale>
<asrwt>0</asrwt>
<pdfrwt beam="1">  1       21 0.20421525E+00 0.11068778E+04</pdfrwt>
<pdfrwt beam="2">  1       21 0.14978476E+00 0.11068778E+04</pdfrwt>
<totfact> 0.16591934E+01</totfact>
</mgrwt>
</event>
<event>
 8    1  0.1233849E-005  0.1010721E+04  0.7818608E-02  0.8790202E-01
         21   -1    0    0  503  502  0.00000000000E+00  0.00000000000E+00  0.86011065740E+03  0.86011065740E+03  0.00000000000E+00 0.  1.
         21   -1    0    0  501  503 -0.00000000000E+00 -0.00000000000E+00 -0.10813301037E+04  0.10813301037E+04  0.00000000000E+00 0.  1.
    9000010    2    1    2  501    0 -0.31320668903E+03 -0.22114211180E+03 -0.22329702952E+03  0.10350935527E+04  0.93517636609E+03 0.  0.
   -9000010    2    1    2    0  502  0.31320668903E+03  0.22114211180E+03  0.20775832726E+01  0.90634720840E+03  0.82125433463E+03 0.  0.
        -13    1    3    3    0    0 -0.47813322757E+03 -0.34119493841E+03 -0.44268182019E+03  0.73552197411E+03  0.10566000000E+00 0.  1.
          4    1    3    3  501    0  0.16492653854E+03  0.12005282661E+03  0.21938479067E+03  0.29957157854E+03  0.00000000000E+00 0.  1.
         13    1    4    4    0    0  0.12597728297E+03 -0.10784431738E+02  0.39409532853E+03  0.41388128603E+03  0.10566000000E+00 0. -1.
         -4    1    4    4    0  502  0.18722940606E+03  0.23192654354E+03 -0.39201774526E+03  0.49246592237E+03  0.00000000000E+00 0. -1.
<mgrwt>
<rscale>  2 0.98355094E+03</rscale>
<asrwt>0</asrwt>
<pdfrwt beam="1">  1       21 0.13232472E+00 0.10107211E+04</pdfrwt>
<pdfrwt beam="2">  1       21 0.16635848E+00 0.10107211E+04</pdfrwt>
<totfact> 0.49642878E+01</totfact>
</mgrwt>
</event>
<event>
 8    1  0.5815007E-006  0.1214789E+04  0.7818608E-02  0.8596846E-01
         21   -1    0    0  501  502  0.00000000000E+00  0.00000000000E+00  0.19679177568E+04  0.19679177568E+04  0.00000000000E+00 0. -1.
         21   -1    0    0  502  503 -0.00000000000E+00 -0.00000000000E+00 -0.77124854539E+03  0.77124854539E+03  0.00000000000E+00 0.  1.
   -9000010    2    1    2    0  503  0.64039148244E+03  0.19079006569E+03  0.34614026879E+03  0.12562260741E+04  0.10058771116E+04 0.  0.
    9000010    2    1    2  501    0 -0.64039148244E+03 -0.19079006569E+03  0.85052894258E+03  0.14829402280E+04  0.10144999447E+04 0.  0.
        -13    1    4    4    0    0  0.27146615683E+03  0.35974043141E+02  0.22133089563E+03  0.35210138115E+03  0.10566000000E+00 0.  1.
          4    1    4    4  501    0 -0.91185763927E+03 -0.22676410883E+03  0.62919804695E+03  0.11308388469E+04  0.00000000000E+00 0.  1.
         13    1    3    3    0    0  0.65511675954E+03  0.16761264720E+02  0.63896113534E+03  0.91527605249E+03  0.10566000000E+00 0. -1.
         -4    1    3    3    0  503 -0.14725277095E+02  0.17402880097E+03 -0.29282086655E+03  0.34095002162E+03  0.00000000000E+00 0. -1.
<mgrwt>
<rscale>  2 0.12129870E+04</rscale>
<asrwt>0</asrwt>
<pdfrwt beam="1">  1       21 0.30275658E+00 0.12147890E+04</pdfrwt>
<pdfrwt beam="2">  1       21 0.11865362E+00 0.12147890E+04</pdfrwt>
<totfact> 0.61113635E+00</totfact>
</mgrwt>
</event>
<event>
 8    1  0.5815007E-006  0.1159787E+04  0.7818608E-02  0.8648332E-01
         21   -1    0    0  501  502  0.00000000000E+00  0.00000000000E+00  0.24618384249E+04  0.24618384249E+04  0.00000000000E+00 0.  1.
         21   -1    0    0  502  503 -0.00000000000E+00 -0.00000000000E+00 -0.52136108793E+03  0.52136108793E+03  0.00000000000E+00 0.  1.
   -9000010    2    1    2    0  503  0.41647949124E+03 -0.26200528028E+03  0.96866398837E+03  0.14700809535E+04  0.99031618885E+03 0.  0.
    9000010    2    1    2  501    0 -0.41647949124E+03  0.26200528028E+03  0.97181334855E+03  0.15131185593E+04  0.10502402852E+04 0.  0.
        -13    1    4    4    0    0 -0.63156206778E+03  0.26924045668E+03  0.10741529832E+04  0.12748198742E+04  0.10566000000E+00 0.  1.
          4    1    4    4  501    0  0.21508257654E+03 -0.72351763984E+01 -0.10233963470E+03  0.23829868514E+03  0.00000000000E+00 0.  1.
         13    1    3    3    0    0 -0.94153918571E+02  0.19894383169E+03 -0.64047952216E+02  0.22922861928E+03  0.10566000000E+00 0. -1.
         -4    1    3    3    0  503  0.51063340981E+03 -0.46094911198E+03  0.10327119406E+04  0.12408523342E+04  0.00000000000E+00 0. -1.
<mgrwt>
<rscale>  2 0.11460523E+04</rscale>
<asrwt>0</asrwt>
<pdfrwt beam="1">  1       21 0.37874437E+00 0.11597873E+04</pdfrwt>
<pdfrwt beam="2">  1       21 0.80209400E-01 0.11597873E+04</pdfrwt>
<totfact> 0.50377119E+00</totfact>
</mgrwt>
</event>
<event>
 8    1  0.5815007E-006  0.1221611E+04  0.7818608E-02  0.8591104E-01
         21   -1    0    0  503  502  0.00000000000E+00  0.00000000000E+00  0.10363295567E+04  0.10363295567E+04  0.00000000000E+00 0. -1.
         21   -1    0    0  501  503 -0.00000000000E+00 -0.00000000000E+00 -0.14394945690E+04  0.14394945690E+04  0.00000000000E+00 0.  1.
    9000010    2    1    2  501    0 -0.60508879876E+03  0.35516795475E+03 -0.13968500946E+03  0.12261217858E+04  0.99578411374E+03 0.  0.
   -9000010    2    1    2    0  502  0.60508879876E+03 -0.35516795475E+03 -0.26348000284E+03  0.12497023400E+04  0.10000287477E+04 0.  0.
        -13    1    3    3    0    0 -0.37801998896E+03 -0.27005090815E+03 -0.28531721047E+03  0.54519035831E+03  0.10566000000E+00 0.  1.
          4    1    3    3  501    0 -0.22706880981E+03  0.62521886290E+03  0.14563220101E+03  0.68093142745E+03  0.00000000000E+00 0.  1.
         13    1    4    4    0    0 -0.23109447319E+03  0.11098178420E+03  0.15060814817E+01  0.25636671275E+03  0.10566000000E+00 0. -1.
         -4    1    4    4    0  502  0.83618327196E+03 -0.46614973894E+03 -0.26498608432E+03  0.99333562722E+03  0.00000000000E+00 0. -1.
<mgrwt>
<rscale>  2 0.12207423E+04</rscale>
<asrwt>0</asrwt>
<pdfrwt beam="1">  1       21 0.15943532E+00 0.12216113E+04</pdfrwt>
<pdfrwt beam="2">  1       21 0.22146070E+00 0.12216113E+04</pdfrwt>
<totfact> 0.98378983E+00</totfact>
</mgrwt>
</event>
<event>
 8    1  0.5815007E-006  0.1367792E+04  0.7818608E-02  0.8491252E-01
         21   -1    0    0  501  502  0.00000000000E+00  0.00000000000E+00  0.10514068178E+04  0.10514068178E+04  0.00000000000E+00 0. -1.
         21   -1    0    0  502  503 -0.00000000000E+00 -0.00000000000E+00 -0.24400843346E+04  0.24400843346E+04  0.00000000000E+00 0. -1.
   -9000010    2    1    2    0  503  0.76143189206E+03  0.52001520730E+03 -0.16086478864E+04  0.21061240639E+04  0.99890750720E+03 0.  0.
    9000010    2    1    2  501    0 -0.76143189206E+03 -0.52001520730E+03  0.21997036964E+03  0.13853670885E+04  0.10102775185E+04 0.  0.
        -13    1    4    4    0    0 -0.74151307841E+03 -0.31446631397E+03  0.56458769338E+03  0.98361068658E+03  0.10566000000E+00 0.  1.
          4    1    4    4  501    0 -0.19918813652E+02 -0.20554889334E+03 -0.34461732373E+03  0.40175640195E+03  0.00000000000E+00 0.  1.
         13    1    3    3    0    0  0.36645511901E+03  0.72396271257E+03 -0.13928967377E+04  0.16120089008E+04  0.10566000000E+00 0. -1.
         -4    1    3    3    0  503  0.39497677305E+03 -0.20394750527E+03 -0.21575114874E+03  0.49411516303E+03  0.00000000000E+00 0. -1.
<mgrwt>
<rscale>  2 0.13656931E+04</rscale>
<asrwt>0</asrwt>
<pdfrwt beam="1">  1       21 0.16175489E+00 0.13677920E+04</pdfrwt>
<pdfrwt beam="2">  1       21 0.37539759E+00 0.13677920E+04</pdfrwt>
<totfact> 0.72503067E-01</totfact>
</mgrwt>
</event>
<event>
 8    1  0.5815007E-006  0.1102997E+04  0.7818608E-02  0.8685122E-01
         21   -1    0    0  503  502  0.00000000000E+00  0.00000000000E+00  0.11884328832E+04  0.11884328832E+04  0.00000000000E+00 0.  1.
         21   -1    0    0  501  503 -0.00000000000E+00 -0.00000000000E+00 -0.10372130046E+04  0.10372130046E+04  0.00000000000E+00 0.  1.
    9000010    2    1    2  501    0  0.47749596712E+03 -0.29536609531E+02  0.23434652981E+03  0.11276177196E+04  0.99384536801E+03 0.  0.
   -9000010    2    1    2    0  502 -0.47749596712E+03  0.29536609531E+02 -0.83126651228E+02  0.10980281682E+04  0.98482536933E+03 0.  0.
        -13    1    3    3    0    0  0.45951909412E+03  0.27206469714E+03 -0.22363238068E+03  0.57895461838E+03  0.10566000000E+00 0.  1.
          4    1    3    3  501    0  0.17976873000E+02 -0.30160130667E+03  0.45797891049E+03  0.54866310118E+03  0.00000000000E+00 0.  1.
         13    1    4    4    0    0 -0.77049121646E+03 -0.94980256350E+02 -0.68417207785E+02  0.77933233554E+03  0.10566000000E+00 0. -1.
         -4    1    4    4    0  502  0.29299524934E+03  0.12451686588E+03 -0.14709443443E+02  0.31869583265E+03  0.00000000000E+00 0. -1.
<mgrwt>
<rscale>  2 0.11009617E+04</rscale>
<asrwt>0</asrwt>
<pdfrwt beam="1">  1       21 0.18283583E+00 0.11029975E+04</pdfrwt>
<pdfrwt beam="2">  1       21 0.15957123E+00 0.11029975E+04</pdfrwt>
<totfact> 0.20122056E+01</totfact>
</mgrwt>
</event>
<event>
 8    1  0.5815007E-006  0.1082812E+04  0.7818608E-02  0.8702267E-01
         21   -1    0    0  503  502  0.00000000000E+00  0.00000000000E+00  0.14127029639E+04  0.14127029639E+04  0.00000000000E+00 0. -1.
         21   -1    0    0  501  503 -0.00000000000E+00 -0.00000000000E+00 -0.85539072592E+03  0.85539072592E+03  0.00000000000E+00 0. -1.
    9000010    2    1    2  501    0 -0.31455654781E+02  0.42156897178E+03  0.60662507355E+02  0.10845095147E+04  0.99688068068E+03 0.  0.
   -9000010    2    1    2    0  502  0.31455654781E+02 -0.42156897178E+03  0.49664973064E+03  0.11835841751E+04  0.98767438385E+03 0.  0.
        -13    1    3    3    0    0 -0.50344863439E+03  0.21842738422E+03  0.13540990107E+03  0.56524941585E+03  0.10566000000E+00 0.  1.
          4    1    3    3  501    0  0.47199297961E+03  0.20314158755E+03 -0.74747393716E+02  0.51926009885E+03  0.00000000000E+00 0.  1.
         13    1    4    4    0    0  0.76130814406E+02 -0.40010717520E+03  0.78854226151E+03  0.88751369674E+03  0.10566000000E+00 0. -1.
         -4    1    4    4    0  502 -0.44675159625E+02 -0.21461796580E+02 -0.29189253087E+03  0.29607047840E+03  0.00000000000E+00 0. -1.
<mgrwt>
<rscale>  2 0.10806879E+04</rscale>
<asrwt>0</asrwt>
<pdfrwt beam="1">  1       21 0.21733892E+00 0.10828116E+04</pdfrwt>
<pdfrwt beam="2">  1       21 0.13159857E+00 0.10828116E+04</pdfrwt>
<totfact> 0.19492340E+01</totfact>
</mgrwt>
</event>
<event>
 8    1  0.5815007E-006  0.1098724E+04  0.7818608E-02  0.8688131E-01
         21   -1    0    0  501  502  0.00000000000E+00  0.00000000000E+00  0.63214712046E+03  0.63214712046E+03  0.00000000000E+00 0. -1.
         21   -1    0    0  502  503 -0.00000000000E+00 -0.00000000000E+00 -0.19079626402E+04  0.19079626402E+04  0.00000000000E+00 0. -1.
   -9000010    2    1    2    0  503  0.40429891949E+03  0.16717646252E+03 -0.72001507934E+03  0.13136273973E+04  0.10078638988E+04 0.  0.
    9000010    2    1    2  501    0 -0.40429891949E+03 -0.16717646252E+03 -0.55580044036E+03  0.12264823633E+04  0.10019677001E+04 0.  0.
        -13    1    4    4    0    0 -0.19487182203E+03  0.26628950205E+03 -0.65640240931E+03  0.73467629609E+03  0.10566000000E+00 0.  1.
          4    1    4    4  501    0 -0.20942709747E+03 -0.43346596457E+03  0.10060196895E+03  0.49180606721E+03  0.00000000000E+00 0.  1.
         13    1    3    3    0    0  0.22983728394E+03 -0.27397848710E+03  0.95515912746E+02  0.37015225143E+03  0.10566000000E+00 0. -1.
         -4    1    3    3    0  503  0.17446163555E+03  0.44115494962E+03 -0.81553099209E+03  0.94347514589E+03  0.00000000000E+00 0. -1.
<mgrwt>
<rscale>  2 0.10973703E+04</rscale>
<asrwt>0</asrwt>
<pdfrwt beam="1">  1       21 0.97253403E-01 0.10987244E+04</pdfrwt>
<pdfrwt beam="2">  1       21 0.29353271E+00 0.10987244E+04</pdfrwt>
<totfact> 0.12432686E+01</totfact>
</mgrwt>
</event>
<event>
 8    1  0.5815007E-006  0.1051123E+04  0.7818608E-02  0.8728140E-01
         21   -1    0    0  503  502  0.00000000000E+00  0.00000000000E+00  0.12501628774E+04  0.12501628774E+04  0.00000000000E+00 0.  1.
         21   -1    0    0  501  503 -0.00000000000E+00 -0.00000000000E+00 -0.10386148910E+04  0.10386148910E+04  0.00000000000E+00 0.  1.
    9000010    2    1    2  501    0 -0.30707929225E+03  0.12688504238E+03 -0.33690290967E+03  0.11037948958E+04  0.99722720363E+03 0.  0.
   -9000010    2    1    2    0  502  0.30707929225E+03 -0.12688504238E+03  0.54845089612E+03  0.11849828727E+04  0.99648809191E+03 0.  0.
        -13    1    3    3    0    0  0.13495968528E+03  0.46932072213E+03 -0.11146660093E+03  0.50090006105E+03  0.10566000000E+00 0.  1.
          4    1    3    3  501    0 -0.44203897753E+03 -0.34243567976E+03 -0.22543630874E+03  0.60289483472E+03  0.00000000000E+00 0.  1.
         13    1    4    4    0    0 -0.34001953476E+03 -0.87763508326E+02  0.25533726391E+02  0.35209047099E+03  0.10566000000E+00 0. -1.
         -4    1    4    4    0  502  0.64709882701E+03 -0.39121534049E+02  0.52291716973E+03  0.83289240166E+03  0.00000000000E+00 0. -1.
<mgrwt>
<rscale>  2 0.10509477E+04</rscale>
<asrwt>0</asrwt>
<pdfrwt beam="1">  1       21 0.19233275E+00 0.10511230E+04</pdfrwt>
<pdfrwt beam="2">  1       21 0.15978691E+00 0.10511230E+04</pdfrwt>
<totfact> 0.17006444E+01</totfact>
</mgrwt>
</event>
<event>
 8    1  0.5815007E-006  0.1524003E+04  0.7818608E-02  0.8397773E-01
         21   -1    0    0  503  502  0.00000000000E+00  0.00000000000E+00  0.30981171803E+04  0.30981171803E+04  0.00000000000E+00 0. -1.
         21   -1    0    0  501  503 -0.00000000000E+00 -0.00000000000E+00 -0.83601408075E+03  0.83601408075E+03  0.00000000000E+00 0.  1.
    9000010    2    1    2  501    0  0.10185151563E+04  0.53375305524E+03  0.47917807796E+03  0.15975596357E+04  0.10001598431E+04 0.  0.
   -9000010    2    1    2    0  502 -0.10185151563E+04 -0.53375305524E+03  0.17829250216E+04  0.23365716253E+04  0.97901985687E+03 0.  0.
        -13    1    3    3    0    0  0.10090976000E+04  0.54021638562E+03  0.72276895818E+03  0.13537011072E+04  0.10566000000E+00 0.  1.
          4    1    3    3  501    0  0.94175562490E+01 -0.64633303802E+01 -0.24359088021E+03  0.24385852851E+03  0.00000000000E+00 0.  1.
         13    1    4    4    0    0  0.12190546415E+02 -0.28169100963E+03  0.24772867628E+02  0.28304088125E+03  0.10566000000E+00 0. -1.
         -4    1    4    4    0  502 -0.10307057027E+04 -0.25206204561E+03  0.17581521540E+04  0.20535307441E+04  0.00000000000E+00 0. -1.
<mgrwt>
<rscale>  2 0.15205439E+04</rscale>
<asrwt>0</asrwt>
<pdfrwt beam="1">  1       21 0.47663341E+00 0.15240030E+04</pdfrwt>
<pdfrwt beam="2">  1       21 0.12861755E+00 0.15240030E+04</pdfrwt>
<totfact> 0.28078286E-01</totfact>
</mgrwt>
</event>
<event>
 8    1  0.5815007E-006  0.1272411E+04  0.7818608E-02  0.8554052E-01
         21   -1    0    0  501  502  0.00000000000E+00  0.00000000000E+00  0.12987534024E+04  0.12987534024E+04  0.00000000000E+00 0. -1.
         21   -1    0    0  502  503 -0.00000000000E+00 -0.00000000000E+00 -0.13294989407E+04  0.13294989407E+04  0.00000000000E+00 0. -1.
   -9000010    2    1    2    0  503  0.70840182844E+03 -0.32146159273E+03 -0.34471446162E+03  0.13176772454E+04  0.10061185600E+04 0.  0.
    9000010    2    1    2  501    0 -0.70840182844E+03  0.32146159273E+03  0.31396892330E+03  0.13105750977E+04  0.10069061008E+04 0.  0.
        -13    1    4    4    0    0 -0.71641006555E+03  0.22375739904E+03  0.62986554138E+03  0.97981700691E+03  0.10566000000E+00 0.  1.
          4    1    4    4  501    0  0.80082371169E+01  0.97704193689E+02 -0.31589661808E+03  0.33075809081E+03  0.00000000000E+00 0.  1.
         13    1    3    3    0    0  0.68569260937E+03  0.15270570784E+03  0.44366360671E+02  0.70389045517E+03  0.10566000000E+00 0. -1.
         -4    1    3    3    0  503  0.22709219065E+02 -0.47416730057E+03 -0.38908082229E+03  0.61378679021E+03  0.00000000000E+00 0. -1.
<mgrwt>
<rscale>  2 0.12722555E+04</rscale>
<asrwt>0</asrwt>
<pdfrwt beam="1">  1       21 0.19980822E+00 0.12724113E+04</pdfrwt>
<pdfrwt beam="2">  1       21 0.20453830E+00 0.12724113E+04</pdfrwt>
<totfact> 0.61115962E+00</totfact>
</mgrwt>
</event>
<event>
 8    1  0.5815007E-006  0.1208744E+04  0.7818608E-02  0.8603921E-01
         21   -1    0    0  501  502  0.00000000000E+00  0.00000000000E+00  0.15848398093E+04  0.15848398093E+04  0.00000000000E+00 0.  1.
         21   -1    0    0  502  503 -0.00000000000E+00 -0.00000000000E+00 -0.98956164561E+03  0.98956164561E+03  0.00000000000E+00 0. -1.
   -9000010    2    1    2    0  503  0.20524796938E+03  0.62163206388E+03 -0.73776412769E+02  0.12109936728E+04  0.10161247781E+04 0.  0.
    9000010    2    1    2  501    0 -0.20524796938E+03 -0.62163206388E+03  0.66905457646E+03  0.13634077821E+04  0.99130903467E+03 0.  0.
        -13    1    4    4    0    0 -0.53890006055E+03 -0.30569620437E+03  0.65798709238E+03  0.90377567434E+03  0.10566000000E+00 0.  1.
          4    1    4    4  501    0  0.33365209118E+03 -0.31593585951E+03  0.11067484081E+02  0.45963210775E+03  0.00000000000E+00 0.  1.
         13    1    3    3    0    0  0.60916433693E+03  0.24539105626E+03 -0.42526643111E+02  0.65810826345E+03  0.10566000000E+00 0. -1.
         -4    1    3    3    0  503 -0.40391636756E+03  0.37624100762E+03 -0.31249769659E+02  0.55288540937E+03  0.00000000000E+00 0. -1.
<mgrwt>
<rscale>  2 0.12035141E+04</rscale>
<asrwt>0</asrwt>
<pdfrwt beam="1">  1       21 0.24382151E+00 0.12087443E+04</pdfrwt>
<pdfrwt beam="2">  1       21 0.15224025E+00 0.12087443E+04</pdfrwt>
<totfact> 0.77803791E+00</totfact>
</mgrwt>
</event>
<event>
 8    1  0.5815007E-006  0.1346147E+04  0.7818608E-02  0.8504313E-01
         21   -1    0    0  503  502  0.00000000000E+00  0.00000000000E+00  0.48929426249E+03  0.48929426249E+03  0.00000000000E+00 0. -1.
         21   -1    0    0  501  503 -0.00000000000E+00 -0.00000000000E+00 -0.38458230161E+04  0.38458230161E+04  0.00000000000E+00 0. -1.
    9000010    2    1    2  501    0 -0.74095585447E+03  0.51335068272E+03 -0.21026698687E+04  0.24954776945E+04  0.99681685646E+03 0.  0.
   -9000010    2    1    2    0  502  0.74095585447E+03 -0.51335068272E+03 -0.12538588849E+04  0.18396395840E+04  0.99978357373E+03 0.  0.
        -13    1    3    3    0    0  0.24147248767E+03  0.81682919610E+02 -0.57095390198E+03  0.62527548410E+03  0.10566000000E+00 0.  1.
          4    1    3    3  501    0 -0.98242834214E+03  0.43166776311E+03 -0.15317159667E+04  0.18702022104E+04  0.00000000000E+00 0.  1.
         13    1    4    4    0    0  0.80279216345E+03 -0.48242876021E+03 -0.46123638527E+03  0.10440075578E+04  0.10566000000E+00 0. -1.
         -4    1    4    4    0  502 -0.61836308979E+02 -0.30921922505E+02 -0.79262249959E+03  0.79563202629E+03  0.00000000000E+00 0. -1.
<mgrwt>
<rscale>  2 0.13455962E+04</rscale>
<asrwt>0</asrwt>
<pdfrwt beam="1">  1       21 0.75276041E-01 0.13461470E+04</pdfrwt>
<pdfrwt beam="2">  1       21 0.59166507E+00 0.13461470E+04</pdfrwt>
<totfact> 0.17577702E-01</totfact>
</mgrwt>
</event>
<event>
 8    1  0.5815007E-006  0.9878060E+03  0.7818608E-02  0.8792449E-01
         21   -1    0    0  501  502  0.00000000000E+00  0.00000000000E+00  0.76385185334E+03  0.76385185334E+03  0.00000000000E+00 0. -1.
         21   -1    0    0  502  503 -0.00000000000E+00 -0.00000000000E+00 -0.12442666782E+04  0.12442666782E+04  0.00000000000E+00 0. -1.
   -9000010    2    1    2    0  503 -0.72966718725E+02  0.12263351339E+03 -0.25498649346E+03  0.99491633643E+03  0.95104010641E+03 0.  0.
    9000010    2    1    2  501    0  0.72966718725E+02 -0.12263351339E+03 -0.22542833145E+03  0.10132021951E+04  0.97744444087E+03 0.  0.
        -13    1    4    4    0    0  0.93150987140E+02  0.13513433466E+03  0.34767784589E+03  0.38447144301E+03  0.10566000000E+00 0.  1.
          4    1    4    4  501    0 -0.20184268414E+02 -0.25776784805E+03 -0.57310617734E+03  0.62873075214E+03  0.00000000000E+00 0.  1.
         13    1    3    3    0    0  0.23075276696E+03  0.45053897296E+03 -0.69259342989E+02  0.51091004430E+03  0.10566000000E+00 0. -1.
         -4    1    3    3    0  503 -0.30371948569E+03 -0.32790545957E+03 -0.18572715047E+03  0.48400629213E+03  0.00000000000E+00 0. -1.
<mgrwt>
<rscale>  2 0.98121031E+03</rscale>
<asrwt>0</asrwt>
<pdfrwt beam="1">  1       21 0.11751567E+00 0.98780603E+03</pdfrwt>
<pdfrwt beam="2">  1       21 0.19142564E+00 0.98780603E+03</pdfrwt>
<totfact> 0.43564193E+01</totfact>
</mgrwt>
</event>
<event>
 8    1  0.5815007E-006  0.1119986E+04  0.7818608E-02  0.8677103E-01
         21   -1    0    0  503  502  0.00000000000E+00  0.00000000000E+00  0.11792241091E+04  0.11792241091E+04  0.00000000000E+00 0.  1.
         21   -1    0    0  501  503 -0.00000000000E+00 -0.00000000000E+00 -0.11668212637E+04  0.11668212637E+04  0.00000000000E+00 0.  1.
    9000010    2    1    2  501    0  0.47883610705E+03  0.16240403165E+03 -0.39725755640E+03  0.11534892545E+04  0.95763500735E+03 0.  0.
   -9000010    2    1    2    0  502 -0.47883610705E+03 -0.16240403165E+03  0.40966040180E+03  0.11925561182E+04  0.99935447329E+03 0.  0.
        -13    1    3    3    0    0 -0.24801844159E+03 -0.13779826972E+03 -0.18578745427E+03  0.33914377458E+03  0.10566000000E+00 0.  1.
          4    1    3    3  501    0  0.72685454864E+03  0.30020230137E+03 -0.21147010213E+03  0.81434547995E+03  0.00000000000E+00 0.  1.
         13    1    4    4    0    0 -0.45363382633E+03  0.14241019894E+03  0.64876054111E+03  0.80433485814E+03  0.10566000000E+00 0. -1.
         -4    1    4    4    0  502 -0.25202280720E+02 -0.30481423059E+03 -0.23910013931E+03  0.38822126003E+03  0.00000000000E+00 0. -1.
<mgrwt>
<rscale>  2 0.11106031E+04</rscale>
<asrwt>0</asrwt>
<pdfrwt beam="1">  1       21 0.18141909E+00 0.11199859E+04</pdfrwt>
<pdfrwt beam="2">  1       21 0.17951096E+00 0.11199859E+04</pdfrwt>
<totfact> 0.13994060E+01</totfact>
</mgrwt>
</event>
<event>
 8    1  0.5815007E-006  0.1060920E+04  0.7818608E-02  0.8720513E-01
         21   -1    0    0  501  502  0.00000000000E+00  0.00000000000E+00  0.87880252459E+03  0.87880252459E+03  0.00000000000E+00 0. -1.
         21   -1    0    0  502  503 -0.00000000000E+00 -0.00000000000E+00 -0.12829796346E+04  0.12829796346E+04  0.00000000000E+00 0. -1.
   -9000010    2    1    2    0  503  0.33368985535E+02  0.39258596532E+03 -0.11456798177E+03  0.10670883778E+04  0.98504545794E+03 0.  0.
    9000010    2    1    2  501    0 -0.33368985535E+02 -0.39258596532E+03 -0.28960912827E+03  0.10946937814E+04  0.97940992367E+03 0.  0.
        -13    1    4    4    0    0  0.21738224323E+03 -0.64001523422E+03 -0.69923381732E+02  0.67953206708E+03  0.10566000000E+00 0.  1.
          4    1    4    4  501    0 -0.25075122877E+03  0.24742926890E+03 -0.21968574654E+03  0.41516171436E+03  0.00000000000E+00 0.  1.
         13    1    3    3    0    0  0.48507015216E+03  0.38325161771E+02 -0.40188163585E+02  0.48823864062E+03  0.10566000000E+00 0. -1.
         -4    1    3    3    0  503 -0.45170116663E+03  0.35426080355E+03 -0.74379818186E+02  0.57884973717E+03  0.00000000000E+00 0. -1.
<mgrwt>
<rscale>  2 0.10596102E+04</rscale>
<asrwt>0</asrwt>
<pdfrwt beam="1">  1       21 0.13520039E+00 0.10609203E+04</pdfrwt>
<pdfrwt beam="2">  1       21 0.19738148E+00 0.10609203E+04</pdfrwt>
<totfact> 0.25786737E+01</totfact>
</mgrwt>
</event>
<event>
 8    1  0.5815007E-006  0.1294493E+04  0.7818608E-02  0.8539556E-01
         21   -1    0    0  503  502  0.00000000000E+00  0.00000000000E+00  0.18563316794E+04  0.18563316794E+04  0.00000000000E+00 0. -1.
         21   -1    0    0  501  503 -0.00000000000E+00 -0.00000000000E+00 -0.90108102540E+03  0.90108102540E+03  0.00000000000E+00 0. -1.
    9000010    2    1    2  501    0  0.81172054197E+03 -0.83907082145E+02  0.40850732117E+03  0.13521935745E+04  0.99780689248E+03 0.  0.
   -9000010    2    1    2    0  502 -0.81172054197E+03  0.83907082145E+02  0.54674333286E+03  0.14052191304E+04  0.10048790453E+04 0.  0.
        -13    1    3    3    0    0 -0.59770104014E+02 -0.20941221933E+03 -0.18880538370E+03  0.28822461209E+03  0.10566000000E+00 0.  1.
          4    1    3    3  501    0  0.87149064598E+03  0.12550513718E+03  0.59731270487E+03  0.10639689624E+04  0.00000000000E+00 0.  1.
         13    1    4    4    0    0 -0.41031274880E+01  0.33886120209E+03  0.43431565955E+03  0.55088460972E+03  0.10566000000E+00 0. -1.
         -4    1    4    4    0  502 -0.80761741448E+03 -0.25495411994E+03  0.11242767331E+03  0.85433452065E+03  0.00000000000E+00 0. -1.
<mgrwt>
<rscale>  2 0.12931204E+04</rscale>
<asrwt>0</asrwt>
<pdfrwt beam="1">  1       21 0.28558949E+00 0.12944932E+04</pdfrwt>
<pdfrwt beam="2">  1       21 0.13862785E+00 0.12944932E+04</pdfrwt>
<totfact> 0.50838479E+00</totfact>
</mgrwt>
</event>
<event>
 8    1  0.5815007E-006  0.1525343E+04  0.7818608E-02  0.8396231E-01
         21   -1    0    0  501  502  0.00000000000E+00  0.00000000000E+00  0.17652116856E+04  0.17652116856E+04  0.00000000000E+00 0.  1.
         21   -1    0    0  502  503 -0.00000000000E+00 -0.00000000000E+00 -0.13458442363E+04  0.13458442363E+04  0.00000000000E+00 0.  1.
   -9000010    2    1    2    0  503  0.40603289404E+03 -0.10672899776E+04 -0.41413393057E+02  0.15176346646E+04  0.99876388534E+03 0.  0.
    9000010    2    1    2  501    0 -0.40603289404E+03  0.10672899776E+04  0.46078084243E+03  0.15934212573E+04  0.10112871557E+04 0.  0.
        -13    1    4    4    0    0 -0.27938121970E+03  0.75888247788E+03  0.78596482667E+03  0.11276955268E+04  0.10566000000E+00 0.  1.
          4    1    4    4  501    0 -0.12665167434E+03  0.30840749972E+03 -0.32518398424E+03  0.46572573056E+03  0.00000000000E+00 0.  1.
         13    1    3    3    0    0  0.41074279305E+03 -0.32044405593E+03 -0.43021515891E+03  0.67563239202E+03  0.10566000000E+00 0. -1.
         -4    1    3    3    0  503 -0.47098990143E+01 -0.74684592167E+03  0.38880176585E+03  0.84200227255E+03  0.00000000000E+00 0. -1.
<mgrwt>
<rscale>  2 0.15232707E+04</rscale>
<asrwt>0</asrwt>
<pdfrwt beam="1">  1       21 0.27157103E+00 0.15253433E+04</pdfrwt>
<pdfrwt beam="2">  1       21 0.20705296E+00 0.15253433E+04</pdfrwt>
<totfact> 0.16291766E+00</totfact>
</mgrwt>
</event>
<event>
 8    1  0.5815007E-006  0.1093904E+04  0.7818608E-02  0.8700401E-01
         21   -1    0    0  503  502  0.00000000000E+00  0.00000000000E+00  0.65133776757E+03  0.65133776757E+03  0.00000000000E+00 0. -1.
         21   -1    0    0  501  503 -0.00000000000E+00 -0.00000000000E+00 -0.18023196023E+04  0.18023196023E+04  0.00000000000E+00 0. -1.
    9000010    2    1    2  501    0 -0.18650608414E+03 -0.36567142986E+03 -0.76363532199E+03  0.13340782094E+04  0.10139653100E+04 0.  0.
   -9000010    2    1    2    0  502  0.18650608414E+03  0.36567142986E+03 -0.38734651275E+03  0.11195791605E+04  0.96691264422E+03 0.  0.
        -13    1    3    3    0    0 -0.69996585998E+00 -0.52930070402E+03  0.21067169444E+01  0.52930536994E+03  0.10566000000E+00 0.  1.
          4    1    3    3  501    0 -0.18580611828E+03  0.16362927417E+03 -0.76574203893E+03  0.80477283947E+03  0.00000000000E+00 0.  1.
         13    1    4    4    0    0  0.57957402862E+03  0.29089575931E+03 -0.27157097846E+03  0.70304850825E+03  0.10566000000E+00 0. -1.
         -4    1    4    4    0  502 -0.39306794449E+03  0.74775670543E+02 -0.11577553429E+03  0.41653065221E+03  0.00000000000E+00 0. -1.
<mgrwt>
<rscale>  2 0.10828717E+04</rscale>
<asrwt>0</asrwt>
<pdfrwt beam="1">  1       21 0.10020581E+00 0.10939039E+04</pdfrwt>
<pdfrwt beam="2">  1       21 0.27727993E+00 0.10939039E+04</pdfrwt>
<totfact> 0.15019634E+01</totfact>
</mgrwt>
</event>
<event>
 8    1  0.5815007E-006  0.1368342E+04  0.7818608E-02  0.8499551E-01
         21   -1    0    0  503  502  0.00000000000E+00  0.00000000000E+00  0.15668214577E+04  0.15668214577E+04  0.00000000000E+00 0. -1.
         21   -1    0    0  501  503 -0.00000000000E+00 -0.00000000000E+00 -0.11946573707E+04  0.11946573707E+04  0.00000000000E+00 0. -1.
    9000010    2    1    2  501    0 -0.90755834944E+03  0.11140868405E+03 -0.98316110542E+02  0.13718696692E+04  0.10179814728E+04 0.  0.
   -9000010    2    1    2    0  502  0.90755834944E+03 -0.11140868405E+03  0.47048019759E+03  0.13896091593E+04  0.93465926768E+03 0.  0.
        -13    1    3    3    0    0 -0.10258973267E+04 -0.14554897984E+02  0.18252351228E+03  0.10421094058E+04  0.10566000000E+00 0.  1.
          4    1    3    3  501    0  0.11833897726E+03  0.12596358203E+03 -0.28083962282E+03  0.32976026335E+03  0.00000000000E+00 0.  1.
         13    1    4    4    0    0  0.11969049923E+03  0.34891567154E+03  0.13582038284E+02  0.36912388758E+03  0.10566000000E+00 0. -1.
         -4    1    4    4    0  502  0.78786785021E+03 -0.46032435559E+03  0.45689815930E+03  0.10204852717E+04  0.00000000000E+00 0. -1.
<mgrwt>
<rscale>  2 0.13528817E+04</rscale>
<asrwt>0</asrwt>
<pdfrwt beam="1">  1       21 0.24104946E+00 0.13683422E+04</pdfrwt>
<pdfrwt beam="2">  1       21 0.18379344E+00 0.13683422E+04</pdfrwt>
<totfact> 0.42703954E+00</totfact>
</mgrwt>
</event>
<event>
 8    1  0.5815007E-006  0.1083665E+04  0.7818608E-02  0.8700305E-01
         21   -1    0    0  501  502  0.00000000000E+00  0.00000000000E+00  0.14333212319E+04  0.14333212319E+04  0.00000000000E+00 0.  1.
         21   -1    0    0  502  503 -0.00000000000E+00 -0.00000000000E+00 -0.84803573002E+03  0.84803573002E+03  0.00000000000E+00 0.  1.
   -9000010    2    1    2    0  503  0.99684474404E+02  0.48652710590E+03  0.75670880721E+02  0.10863037784E+04  0.96316364012E+03 0.  0.
    9000010    2    1    2  501    0 -0.99684474404E+02 -0.48652710590E+03  0.50961462116E+03  0.11950531835E+04  0.96010386420E+03 0.  0.
        -13    1    4    4    0    0 -0.18298106969E+03 -0.88691938875E+00 -0.23766691071E+03  0.29994737889E+03  0.10566000000E+00 0.  1.
          4    1    4    4  501    0  0.83296595286E+02 -0.48564018651E+03  0.74728153187E+03  0.89510580460E+03  0.00000000000E+00 0.  1.
         13    1    3    3    0    0 -0.15030123435E+03  0.83692348488E+02  0.45030852930E+03  0.48205046724E+03  0.10566000000E+00 0. -1.
         -4    1    3    3    0  503  0.24998570876E+03  0.40283475741E+03 -0.37463764858E+03  0.60425331120E+03  0.00000000000E+00 0. -1.
<mgrwt>
<rscale>  2 0.10829847E+04</rscale>
<asrwt>0</asrwt>
<pdfrwt beam="1">  1       21 0.22051096E+00 0.10836650E+04</pdfrwt>
<pdfrwt beam="2">  1       21 0.13046704E+00 0.10836650E+04</pdfrwt>
<totfact> 0.18910005E+01</totfact>
</mgrwt>
</event>
<event>
 8    1  0.5815007E-006  0.1085492E+04  0.7818608E-02  0.8712640E-01
         21   -1    0    0  503  502  0.00000000000E+00  0.00000000000E+00  0.14845881418E+04  0.14845881418E+04  0.00000000000E+00 0.  1.
         21   -1    0    0  501  503 -0.00000000000E+00 -0.00000000000E+00 -0.79317448977E+03  0.79317448977E+03  0.00000000000E+00 0.  1.
    9000010    2    1    2  501    0  0.33037263989E+03 -0.22670657434E+03  0.58716169166E+02  0.10213398647E+04  0.93762763332E+03 0.  0.
   -9000010    2    1    2    0  502 -0.33037263989E+03  0.22670657434E+03  0.63269748285E+03  0.12564227668E+04  0.10088360184E+04 0.  0.
        -13    1    3    3    0    0  0.86976745077E+02  0.22276825340E+03  0.35687252791E+03  0.42959127232E+03  0.10566000000E+00 0.  1.
          4    1    3    3  501    0  0.24339589481E+03 -0.44947482774E+03 -0.29815635875E+03  0.59174859243E+03  0.00000000000E+00 0.  1.
         13    1    4    4    0    0 -0.64550799661E+03 -0.72191878081E+02  0.34534149557E+03  0.73563102210E+03  0.10566000000E+00 0. -1.
         -4    1    4    4    0  502  0.31513535672E+03  0.29889845242E+03  0.28735598728E+03  0.52079174470E+03  0.00000000000E+00 0. -1.
<mgrwt>
<rscale>  2 0.10686432E+04</rscale>
<asrwt>0</asrwt>
<pdfrwt beam="1">  1       21 0.22839817E+00 0.10854916E+04</pdfrwt>
<pdfrwt beam="2">  1       21 0.12202685E+00 0.10854916E+04</pdfrwt>
<totfact> 0.19970746E+01</totfact>
</mgrwt>
</event>
<event>
 8    1  0.5815007E-006  0.1086200E+04  0.7818608E-02  0.8698015E-01
         21   -1    0    0  501  502  0.00000000000E+00  0.00000000000E+00  0.10135449442E+04  0.10135449442E+04  0.00000000000E+00 0. -1.
         21   -1    0    0  502  503 -0.00000000000E+00 -0.00000000000E+00 -0.11641641127E+04  0.11641641127E+04  0.00000000000E+00 0. -1.
   -9000010    2    1    2    0  503  0.34506041985E+03 -0.27702627791E+03 -0.12435523602E+03  0.10932949132E+04  0.99197746477E+03 0.  0.
    9000010    2    1    2  501    0 -0.34506041985E+03  0.27702627791E+03 -0.26263932461E+02  0.10844141436E+04  0.98967367792E+03 0.  0.
        -13    1    4    4    0    0 -0.49125165044E+03  0.16845093178E+03 -0.40868288093E+03  0.66085218378E+03  0.10566000000E+00 0.  1.
          4    1    4    4  501    0  0.14619123059E+03  0.10857534613E+03  0.38241894847E+03  0.42356195985E+03  0.00000000000E+00 0.  1.
         13    1    3    3    0    0  0.27141291263E+03  0.35546416634E+03 -0.17108560769E+02  0.44756279639E+03  0.10566000000E+00 0. -1.
         -4    1    3    3    0  503  0.73647507218E+02 -0.63249044425E+03 -0.10724667525E+03  0.64573211686E+03  0.00000000000E+00 0. -1.
<mgrwt>
<rscale>  2 0.10856733E+04</rscale>
<asrwt>0</asrwt>
<pdfrwt beam="1">  1       21 0.15592999E+00 0.10861996E+04</pdfrwt>
<pdfrwt beam="2">  1       21 0.17910217E+00 0.10861996E+04</pdfrwt>
<totfact> 0.23298358E+01</totfact>
</mgrwt>
</event>
<event>
 8    1  0.5815007E-006  0.1128308E+04  0.7818608E-02  0.8664851E-01
         21   -1    0    0  501  502  0.00000000000E+00  0.00000000000E+00  0.32934129206E+04  0.32934129206E+04  0.00000000000E+00 0. -1.
         21   -1    0    0  502  503 -0.00000000000E+00 -0.00000000000E+00 -0.42309528004E+03  0.42309528004E+03  0.00000000000E+00 0. -1.
   -9000010    2    1    2    0  503  0.48260955140E+03 -0.14599740189E+03  0.85512730815E+03  0.14069475852E+04  0.99701132087E+03 0.  0.
    9000010    2    1    2  501    0 -0.48260955140E+03  0.14599740189E+03  0.20151903325E+04  0.23095606155E+04  0.10093814641E+04 0.  0.
        -13    1    4    4    0    0 -0.11691262197E+03  0.40800760339E+03  0.26022248669E+03  0.49784989640E+03  0.10566000000E+00 0.  1.
          4    1    4    4  501    0 -0.36569692943E+03 -0.26201020150E+03  0.17549678458E+04  0.18117107191E+04  0.00000000000E+00 0.  1.
         13    1    3    3    0    0  0.45021306094E+02 -0.50943531766E+03  0.58562703152E+03  0.77750259942E+03  0.10566000000E+00 0. -1.
         -4    1    3    3    0  503  0.43758824530E+03  0.36343791577E+03  0.26950027663E+03  0.62944498580E+03  0.00000000000E+00 0. -1.
<mgrwt>
<rscale>  2 0.11255343E+04</rscale>
<asrwt>0</asrwt>
<pdfrwt beam="1">  1       21 0.50667889E+00 0.11283077E+04</pdfrwt>
<pdfrwt beam="2">  1       21 0.65091584E-01 0.11283077E+04</pdfrwt>
<totfact> 0.10788990E+00</totfact>
</mgrwt>
</event>
<event>
 8    1  0.5815007E-006  0.1146763E+04  0.7818608E-02  0.8651372E-01
         21   -1    0    0  501  502  0.00000000000E+00  0.00000000000E+00  0.77584370563E+03  0.77584370563E+03  0.00000000000E+00 0.  1.
         21   -1    0    0  502  503 -0.00000000000E+00 -0.00000000000E+00 -0.17136500040E+04  0.17136500040E+04  0.00000000000E+00 0.  1.
   -9000010    2    1    2    0  503 -0.40256722512E+03 -0.36668561456E+03 -0.66723378943E+03  0.13112425911E+04  0.98875552711E+03 0.  0.
    9000010    2    1    2  501    0  0.40256722512E+03  0.36668561456E+03 -0.27057250895E+03  0.11782511185E+04  0.10092311455E+04 0.  0.
        -13    1    4    4    0    0  0.29222711817E+03  0.24715339287E+03  0.36096662087E+03  0.52609733011E+03  0.10566000000E+00 0.  1.
          4    1    4    4  501    0  0.11034010695E+03  0.11953222169E+03 -0.63153912982E+03  0.65215378839E+03  0.00000000000E+00 0.  1.
         13    1    3    3    0    0 -0.26638352223E+03 -0.14691741584E+03 -0.90821396592E+03  0.95780871110E+03  0.10566000000E+00 0. -1.
         -4    1    3    3    0  503 -0.13618370289E+03 -0.21976819871E+03  0.24098017649E+03  0.35343388004E+03  0.00000000000E+00 0. -1.
<mgrwt>
<rscale>  2 0.11422422E+04</rscale>
<asrwt>0</asrwt>
<pdfrwt beam="1">  1       21 0.11936057E+00 0.11467634E+04</pdfrwt>
<pdfrwt beam="2">  1       21 0.26363845E+00 0.11467634E+04</pdfrwt>
<totfact> 0.11584082E+01</totfact>
</mgrwt>
</event>
<event>
 8    1  0.5815007E-006  0.1190741E+04  0.7818608E-02  0.8613867E-01
         21   -1    0    0  501  502  0.00000000000E+00  0.00000000000E+00  0.10824546734E+04  0.10824546734E+04  0.00000000000E+00 0.  1.
         21   -1    0    0  502  503 -0.00000000000E+00 -0.00000000000E+00 -0.21510840981E+04  0.21510840981E+04  0.00000000000E+00 0.  1.
   -9000010    2    1    2    0  503  0.50190481672E+03  0.40284226265E+03 -0.15466283237E+04  0.19519026993E+04  0.10018356365E+04 0.  0.
    9000010    2    1    2  501    0 -0.50190481672E+03 -0.40284226265E+03  0.47799889902E+03  0.12816360721E+04  0.99995886931E+03 0.  0.
        -13    1    4    4    0    0  0.60056830048E+02  0.14571123151E+03 -0.19266910623E+03  0.24891761987E+03  0.10566000000E+00 0.  1.
          4    1    4    4  501    0 -0.56196164677E+03 -0.54855349416E+03  0.67066800525E+03  0.10327184523E+04  0.00000000000E+00 0.  1.
         13    1    3    3    0    0  0.62183505795E+03  0.15626699522E+03 -0.36272020302E+03  0.73665743051E+03  0.10566000000E+00 0. -1.
         -4    1    3    3    0  503 -0.11993024122E+03  0.24657526743E+03 -0.11839081207E+04  0.12152452688E+04  0.00000000000E+00 0. -1.
<mgrwt>
<rscale>  2 0.11903465E+04</rscale>
<asrwt>0</asrwt>
<pdfrwt beam="1">  1       21 0.16653149E+00 0.11907414E+04</pdfrwt>
<pdfrwt beam="2">  1       21 0.33093601E+00 0.11907414E+04</pdfrwt>
<totfact> 0.14043004E+00</totfact>
</mgrwt>
</event>
<event>
 8    1  0.5815007E-006  0.1150979E+04  0.7818608E-02  0.8645793E-01
         21   -1    0    0  501  502  0.00000000000E+00  0.00000000000E+00  0.14328478249E+04  0.14328478249E+04  0.00000000000E+00 0. -1.
         21   -1    0    0  502  503 -0.00000000000E+00 -0.00000000000E+00 -0.96027488193E+03  0.96027488193E+03  0.00000000000E+00 0. -1.
   -9000010    2    1    2    0  503  0.79800226139E+02  0.56659137271E+03  0.48500148623E+03  0.12489912412E+04  0.99867853652E+03 0.  0.
    9000010    2    1    2  501    0 -0.79800226139E+02 -0.56659137271E+03 -0.12428543261E+02  0.11441314656E+04  0.99070100542E+03 0.  0.
        -13    1    4    4    0    0 -0.46110329537E+03 -0.21479801282E+03 -0.25775222501E+03  0.57025490439E+03  0.10566000000E+00 0.  1.
          4    1    4    4  501    0  0.38130306923E+03 -0.35179335990E+03  0.24532368175E+03  0.57387656121E+03  0.00000000000E+00 0.  1.
         13    1    3    3    0    0 -0.53505161837E+02 -0.30435156096E+02 -0.27019636130E+03  0.27711944337E+03  0.10566000000E+00 0. -1.
         -4    1    3    3    0  503  0.13330538798E+03  0.59702652881E+03  0.75519784753E+03  0.97187179786E+03  0.00000000000E+00 0. -1.
<mgrwt>
<rscale>  2 0.11492463E+04</rscale>
<asrwt>0</asrwt>
<pdfrwt beam="1">  1       21 0.22043813E+00 0.11509790E+04</pdfrwt>
<pdfrwt beam="2">  1       21 0.14773460E+00 0.11509790E+04</pdfrwt>
<totfact> 0.12890994E+01</totfact>
</mgrwt>
</event>
<event>
 8    1  0.5815007E-006  0.1076717E+04  0.7818608E-02  0.8706674E-01
         21   -1    0    0  501  502  0.00000000000E+00  0.00000000000E+00  0.20682034204E+04  0.20682034204E+04  0.00000000000E+00 0.  1.
         21   -1    0    0  502  503 -0.00000000000E+00 -0.00000000000E+00 -0.56962435614E+03  0.56962435614E+03  0.00000000000E+00 0.  1.
   -9000010    2    1    2    0  503  0.27342905532E+03  0.27421393967E+03  0.56345508916E+03  0.12152373576E+04  0.10046708241E+04 0.  0.
    9000010    2    1    2  501    0 -0.27342905532E+03 -0.27421393967E+03  0.93512397513E+03  0.14225904190E+04  0.99967490636E+03 0.  0.
        -13    1    4    4    0    0  0.40938056858E+01 -0.53120023707E+03  0.15140025709E+03  0.55236989429E+03  0.10566000000E+00 0.  1.
          4    1    4    4  501    0 -0.27752286101E+03  0.25698629740E+03  0.78372371804E+03  0.87022052472E+03  0.00000000000E+00 0.  1.
         13    1    3    3    0    0 -0.15608047123E+03  0.52570716800E+03  0.15092006316E+03  0.56877589314E+03  0.10566000000E+00 0. -1.
         -4    1    3    3    0  503  0.42950952655E+03 -0.25149322834E+03  0.41253502601E+03  0.64646146442E+03  0.00000000000E+00 0. -1.
<mgrwt>
<rscale>  2 0.10755504E+04</rscale>
<asrwt>0</asrwt>
<pdfrwt beam="1">  1       21 0.31818514E+00 0.10767173E+04</pdfrwt>
<pdfrwt beam="2">  1       21 0.87634517E-01 0.10767173E+04</pdfrwt>
<totfact> 0.10929907E+01</totfact>
</mgrwt>
</event>
<event>
 8    1  0.5815007E-006  0.1215331E+04  0.7818608E-02  0.8598795E-01
         21   -1    0    0  501  502  0.00000000000E+00  0.00000000000E+00  0.89416938545E+03  0.89416938545E+03  0.00000000000E+00 0. -1.
         21   -1    0    0  502  503 -0.00000000000E+00 -0.00000000000E+00 -0.21463511309E+04  0.21463511309E+04  0.00000000000E+00 0.  1.
   -9000010    2    1    2    0  503  0.93914632835E+02 -0.66334654539E+03 -0.13713498456E+04  0.18193615128E+04  0.99026628623E+03 0.  0.
    9000010    2    1    2  501    0 -0.93914632835E+02  0.66334654539E+03  0.11916810012E+03  0.12211590036E+04  0.10139919519E+04 0.  0.
        -13    1    4    4    0    0  0.88928341265E+02  0.80746880659E+03  0.35790132681E+03  0.88769786211E+03  0.10566000000E+00 0.  1.
          4    1    4    4  501    0 -0.18284297410E+03 -0.14412226120E+03 -0.23873322669E+03  0.33346114148E+03  0.00000000000E+00 0.  1.
         13    1    3    3    0    0  0.29201679283E+03 -0.86465634135E+03 -0.10238073402E+04  0.13715268415E+04  0.10566000000E+00 0. -1.
         -4    1    3    3    0  503 -0.19810216000E+03  0.20130979597E+03 -0.34754250537E+03  0.44783467126E+03  0.00000000000E+00 0. -1.
<mgrwt>
<rscale>  2 0.12103693E+04</rscale>
<asrwt>0</asrwt>
<pdfrwt beam="1">  1       21 0.13756452E+00 0.12153305E+04</pdfrwt>
<pdfrwt beam="2">  1       21 0.33020786E+00 0.12153305E+04</pdfrwt>
<totfact> 0.25581176E+00</totfact>
</mgrwt>
</event>
<event>
 8    1  0.5815007E-006  0.1087366E+04  0.7818608E-02  0.8707736E-01
         21   -1    0    0  503  502  0.00000000000E+00  0.00000000000E+00  0.61921835884E+03  0.61921835884E+03  0.00000000000E+00 0.  1.
         21   -1    0    0  501  503 -0.00000000000E+00 -0.00000000000E+00 -0.18363222599E+04  0.18363222599E+04  0.00000000000E+00 0.  1.
    9000010    2    1    2  501    0 -0.27128352912E+03 -0.27775495630E+03 -0.47998989655E+03  0.11418808024E+04  0.96060340267E+03 0.  0.
   -9000010    2    1    2    0  502  0.27128352912E+03  0.27775495630E+03 -0.73711400454E+03  0.13136598164E+04  0.10156881847E+04 0.  0.
        -13    1    3    3    0    0 -0.10278337388E+03  0.17269476824E+03  0.21655207726E+03  0.29543648768E+03  0.10566000000E+00 0.  1.
          4    1    3    3  501    0 -0.16850015524E+03 -0.45044972454E+03 -0.69654197381E+03  0.84644431473E+03  0.00000000000E+00 0.  1.
         13    1    4    4    0    0 -0.17471232371E+03 -0.13768787594E+03 -0.66340614653E+03  0.69970713420E+03  0.10566000000E+00 0. -1.
         -4    1    4    4    0  502  0.44599585283E+03  0.41544283224E+03 -0.73707858015E+02  0.61395268216E+03  0.00000000000E+00 0. -1.
<mgrwt>
<rscale>  2 0.10743163E+04</rscale>
<asrwt>0</asrwt>
<pdfrwt beam="1">  1       21 0.95264363E-01 0.10873661E+04</pdfrwt>
<pdfrwt beam="2">  1       21 0.28251112E+00 0.10873661E+04</pdfrwt>
<totfact> 0.15735932E+01</totfact>
</mgrwt>
</event>
<event>
 8    1  0.5815007E-006  0.1109583E+04  0.7818608E-02  0.8682405E-01
         21   -1    0    0  501  502  0.00000000000E+00  0.00000000000E+00  0.77617630069E+03  0.77617630069E+03  0.00000000000E+00 0.  1.
         21   -1    0    0  502  503 -0.00000000000E+00 -0.00000000000E+00 -0.16484917074E+04  0.16484917074E+04  0.00000000000E+00 0.  1.
   -9000010    2    1    2    0  503  0.40930641564E+01  0.42757281944E+03 -0.71948562124E+03  0.13046095167E+04  0.10007552962E+04 0.  0.
    9000010    2    1    2  501    0 -0.40930641564E+01 -0.42757281944E+03 -0.15282978547E+03  0.11200584914E+04  0.10238841788E+04 0.  0.
        -13    1    4    4    0    0 -0.17195814164E+03 -0.43252585866E+03 -0.53109204929E+03  0.70619189805E+03  0.10566000000E+00 0.  1.
          4    1    4    4  501    0  0.16786507749E+03  0.49530392204E+01  0.37826226382E+03  0.41386659332E+03  0.00000000000E+00 0.  1.
         13    1    3    3    0    0  0.48301259626E+03  0.11681725401E+03 -0.21023132391E+03  0.53957822389E+03  0.10566000000E+00 0. -1.
         -4    1    3    3    0  503 -0.47891953210E+03  0.31075556542E+03 -0.50925429732E+03  0.76503129283E+03  0.00000000000E+00 0. -1.
<mgrwt>
<rscale>  2 0.11042175E+04</rscale>
<asrwt>0</asrwt>
<pdfrwt beam="1">  1       21 0.11941174E+00 0.11095828E+04</pdfrwt>
<pdfrwt beam="2">  1       21 0.25361411E+00 0.11095828E+04</pdfrwt>
<totfact> 0.13780078E+01</totfact>
</mgrwt>
</event>
<event>
 8    1  0.5815007E-006  0.1151515E+04  0.7818608E-02  0.8645508E-01
         21   -1    0    0  501  502  0.00000000000E+00  0.00000000000E+00  0.25063216977E+04  0.25063216977E+04  0.00000000000E+00 0. -1.
         21   -1    0    0  502  503 -0.00000000000E+00 -0.00000000000E+00 -0.52991175222E+03  0.52991175222E+03  0.00000000000E+00 0. -1.
   -9000010    2    1    2    0  503  0.42812583233E+03  0.40523248321E+03  0.84744675543E+03  0.14236131874E+04  0.98030781400E+03 0.  0.
    9000010    2    1    2  501    0 -0.42812583233E+03 -0.40523248321E+03  0.11289631901E+04  0.16126202626E+04  0.98918205251E+03 0.  0.
        -13    1    4    4    0    0  0.32465805421E+03 -0.13331240241E+03  0.33175820512E+03  0.48294778872E+03  0.10566000000E+00 0.  1.
          4    1    4    4  501    0 -0.75278388654E+03 -0.27192008080E+03  0.79720498496E+03  0.11296724739E+04  0.00000000000E+00 0.  1.
         13    1    3    3    0    0  0.53973731097E+03  0.36465169609E+03  0.10223363637E+04  0.12122123890E+04  0.10566000000E+00 0. -1.
         -4    1    3    3    0  503 -0.11161147865E+03  0.40580787122E+02 -0.17488960830E+03  0.21140079835E+03  0.00000000000E+00 0. -1.
<mgrwt>
<rscale>  2 0.11496065E+04</rscale>
<asrwt>0</asrwt>
<pdfrwt beam="1">  1       21 0.38558795E+00 0.11515148E+04</pdfrwt>
<pdfrwt beam="2">  1       21 0.81524886E-01 0.11515148E+04</pdfrwt>
<totfact> 0.43410413E+00</totfact>
</mgrwt>
</event>
<event>
 8    1  0.5815007E-006  0.1083034E+04  0.7818608E-02  0.8706662E-01
         21   -1    0    0  501  502  0.00000000000E+00  0.00000000000E+00  0.47877742185E+03  0.47877742185E+03  0.00000000000E+00 0.  1.
         21   -1    0    0  502  503 -0.00000000000E+00 -0.00000000000E+00 -0.23845865582E+04  0.23845865582E+04  0.00000000000E+00 0.  1.
   -9000010    2    1    2    0  503 -0.10016024765E+03 -0.31934355562E+03 -0.93518333022E+03  0.14309194026E+04  0.10300243171E+04 0.  0.
    9000010    2    1    2  501    0  0.10016024765E+03  0.31934355562E+03 -0.97062580609E+03  0.14324445774E+04  0.99888469312E+03 0.  0.
        -13    1    4    4    0    0  0.10625492674E+03  0.56201955829E+03 -0.10339108587E+04  0.11815785070E+04  0.10566000000E+00 0.  1.
          4    1    4    4  501    0 -0.60946790910E+01 -0.24267600267E+03  0.63285052606E+02  0.25086607038E+03  0.00000000000E+00 0.  1.
         13    1    3    3    0    0 -0.39491760457E+03 -0.13482285088E+01  0.56714023572E+01  0.39496064119E+03  0.10566000000E+00 0. -1.
         -4    1    3    3    0  503  0.29475735693E+03 -0.31799532711E+03 -0.94085473258E+03  0.10359587614E+04  0.00000000000E+00 0. -1.
<mgrwt>
<rscale>  2 0.10755641E+04</rscale>
<asrwt>0</asrwt>
<pdfrwt beam="1">  1       21 0.73658065E-01 0.10830339E+04</pdfrwt>
<pdfrwt beam="2">  1       21 0.36685947E+00 0.10830339E+04</pdfrwt>
<totfact> 0.76185944E+00</totfact>
</mgrwt>
</event>
<event>
 8    1  0.5815007E-006  0.1011396E+04  0.7818608E-02  0.8764280E-01
         21   -1    0    0  503  502  0.00000000000E+00  0.00000000000E+00  0.32895482336E+04  0.32895482336E+04  0.00000000000E+00 0. -1.
         21   -1    0    0  501  503 -0.00000000000E+00 -0.00000000000E+00 -0.31130652981E+03  0.31130652981E+03  0.00000000000E+00 0. -1.
    9000010    2    1    2  501    0  0.15633065367E+03 -0.46709417942E+02  0.13983924493E+04  0.17249961044E+04  0.99673922110E+03 0.  0.
   -9000010    2    1    2    0  502 -0.15633065367E+03  0.46709417942E+02  0.15798492545E+04  0.18758586590E+04  0.99814878586E+03 0.  0.
        -13    1    3    3    0    0 -0.34743705527E+03  0.21492097312E+03  0.81126697152E+03  0.90832683672E+03  0.10566000000E+00 0.  1.
          4    1    3    3  501    0  0.50376770893E+03 -0.26163039106E+03  0.58712547777E+03  0.81666926766E+03  0.00000000000E+00 0.  1.
         13    1    4    4    0    0  0.28819282348E+03  0.35426927047E+03  0.88120365617E+03  0.99251282829E+03  0.10566000000E+00 0. -1.
         -4    1    4    4    0  502 -0.44452347714E+03 -0.30755985253E+03  0.69864559829E+03  0.88334583070E+03  0.00000000000E+00 0. -1.
<mgrwt>
<rscale>  2 0.10110481E+04</rscale>
<asrwt>0</asrwt>
<pdfrwt beam="1">  1       21 0.50608432E+00 0.10113961E+04</pdfrwt>
<pdfrwt beam="2">  1       21 0.47893315E-01 0.10113961E+04</pdfrwt>
<totfact> 0.22357744E+00</totfact>
</mgrwt>
</event>
<event>
 8    1  0.5815007E-006  0.1118772E+04  0.7818608E-02  0.8671631E-01
         21   -1    0    0  503  502  0.00000000000E+00  0.00000000000E+00  0.16253856786E+04  0.16253856786E+04  0.00000000000E+00 0. -1.
         21   -1    0    0  501  503 -0.00000000000E+00 -0.00000000000E+00 -0.76725440622E+03  0.76725440622E+03  0.00000000000E+00 0. -1.
    9000010    2    1    2  501    0  0.49274876299E+03  0.84811554164E+02  0.48113725974E+03  0.12178443269E+04  0.10008283562E+04 0.  0.
   -9000010    2    1    2    0  502 -0.49274876299E+03 -0.84811554164E+02  0.37699401264E+03  0.11747957579E+04  0.99399509261E+03 0.  0.
        -13    1    3    3    0    0  0.26594507932E+03  0.41265122553E+03 -0.11166812120E+03  0.50346558929E+03  0.10566000000E+00 0.  1.
          4    1    3    3  501    0  0.22680368367E+03 -0.32783967136E+03  0.59280538094E+03  0.71437873759E+03  0.00000000000E+00 0.  1.
         13    1    4    4    0    0 -0.50874433780E+03  0.12564211572E+02 -0.23098001231E+03  0.55886531285E+03  0.10566000000E+00 0. -1.
         -4    1    4    4    0  502  0.15995574812E+02 -0.97375765736E+02  0.60797402494E+03  0.61593044508E+03  0.00000000000E+00 0. -1.
<mgrwt>
<rscale>  2 0.11172421E+04</rscale>
<asrwt>0</asrwt>
<pdfrwt beam="1">  1       21 0.25005934E+00 0.11187724E+04</pdfrwt>
<pdfrwt beam="2">  1       21 0.11803914E+00 0.11187724E+04</pdfrwt>
<totfact> 0.15073178E+01</totfact>
</mgrwt>
</event>
<event>
 8    1  0.5815007E-006  0.1199012E+04  0.7818608E-02  0.8608831E-01
         21   -1    0    0  501  502  0.00000000000E+00  0.00000000000E+00  0.19396799832E+04  0.19396799832E+04  0.00000000000E+00 0.  1.
         21   -1    0    0  502  503 -0.00000000000E+00 -0.00000000000E+00 -0.88917145282E+03  0.88917145282E+03  0.00000000000E+00 0. -1.
   -9000010    2    1    2    0  503 -0.64894770078E+03  0.88161150042E+02 -0.59957191794E+02  0.12005102049E+04  0.10043527172E+04 0.  0.
    9000010    2    1    2  501    0  0.64894770078E+03 -0.88161150042E+02  0.11104657222E+04  0.16283412311E+04  0.99471379710E+03 0.  0.
        -13    1    4    4    0    0  0.27030304303E+03  0.43079551869E+03  0.70275830105E+03  0.86747781231E+03  0.10566000000E+00 0.  1.
          4    1    4    4  501    0  0.37864465775E+03 -0.51895666873E+03  0.40770742115E+03  0.76086341883E+03  0.00000000000E+00 0.  1.
         13    1    3    3    0    0  0.26009804031E+03  0.12271992590E+03 -0.41874977419E+02  0.29062810546E+03  0.10566000000E+00 0. -1.
         -4    1    3    3    0  503 -0.90904574109E+03 -0.34558775858E+02 -0.18082214375E+02  0.90988209943E+03  0.00000000000E+00 0. -1.
<mgrwt>
<rscale>  2 0.11969913E+04</rscale>
<asrwt>0</asrwt>
<pdfrwt beam="1">  1       21 0.29841230E+00 0.11990120E+04</pdfrwt>
<pdfrwt beam="2">  1       21 0.13679561E+00 0.11990120E+04</pdfrwt>
<totfact> 0.43725052E+00</totfact>
</mgrwt>
</event>
<event>
 8    1  0.5815007E-006  0.1748778E+04  0.7818608E-02  0.8280715E-01
         21   -1    0    0  503  502  0.00000000000E+00  0.00000000000E+00  0.43881459494E+04  0.43881459494E+04  0.00000000000E+00 0. -1.
         21   -1    0    0  501  503 -0.00000000000E+00 -0.00000000000E+00 -0.79996865720E+03  0.79996865720E+03  0.00000000000E+00 0.  1.
    9000010    2    1    2  501    0  0.60543954428E+03 -0.13031781376E+04  0.83396848929E+03  0.19256167673E+04  0.97348148067E+03 0.  0.
   -9000010    2    1    2    0  502 -0.60543954428E+03  0.13031781376E+04  0.27542088029E+04  0.32624978393E+04  0.99669239065E+03 0.  0.
        -13    1    3    3    0    0  0.22499348240E+03 -0.64805753519E+03  0.93677353959E+03  0.11610965988E+04  0.10566000000E+00 0.  1.
          4    1    3    3  501    0  0.38044606188E+03 -0.65512060239E+03 -0.10280505029E+03  0.76452016850E+03  0.00000000000E+00 0.  1.
         13    1    4    4    0    0 -0.86812397873E+02 -0.11844095077E+03  0.35607299642E+02  0.15110440826E+03  0.10566000000E+00 0. -1.
         -4    1    4    4    0  502 -0.51862714640E+03  0.14216190883E+04  0.27186015032E+04  0.31113934310E+04  0.00000000000E+00 0. -1.
<mgrwt>
<rscale>  2 0.17454882E+04</rscale>
<asrwt>0</asrwt>
<pdfrwt beam="1">  1       21 0.67509936E+00 0.17487784E+04</pdfrwt>
<pdfrwt beam="2">  1       21 0.12307210E+00 0.17487784E+04</pdfrwt>
<totfact> 0.96182072E-03</totfact>
</mgrwt>
</event>
<event>
 8    1  0.5815007E-006  0.1166883E+04  0.7818608E-02  0.8637873E-01
         21   -1    0    0  503  502  0.00000000000E+00  0.00000000000E+00  0.93039156535E+03  0.93039156535E+03  0.00000000000E+00 0. -1.
         21   -1    0    0  501  503 -0.00000000000E+00 -0.00000000000E+00 -0.15771450825E+04  0.15771450825E+04  0.00000000000E+00 0. -1.
    9000010    2    1    2  501    0  0.54887706297E+03 -0.16663558177E+03 -0.70770890797E+03  0.13390623971E+04  0.98142893658E+03 0.  0.
   -9000010    2    1    2    0  502 -0.54887706297E+03  0.16663558177E+03  0.60955390836E+02  0.11684742507E+04  0.10161609457E+04 0.  0.
        -13    1    3    3    0    0 -0.23829974507E+03  0.15529123827E+03 -0.14464661479E+03  0.31909997104E+03  0.10566000000E+00 0.  1.
          4    1    3    3  501    0  0.78717680804E+03 -0.32192682004E+03 -0.56306229317E+03  0.10199624261E+04  0.00000000000E+00 0.  1.
         13    1    4    4    0    0 -0.20205018128E+03 -0.16010114076E+03 -0.41913168964E+03  0.49206507238E+03  0.10566000000E+00 0. -1.
         -4    1    4    4    0  502 -0.34682688168E+03  0.32673672254E+03  0.48008708048E+03  0.67640917835E+03  0.00000000000E+00 0. -1.
<mgrwt>
<rscale>  2 0.11592799E+04</rscale>
<asrwt>0</asrwt>
<pdfrwt beam="1">  1       21 0.14313716E+00 0.11668832E+04</pdfrwt>
<pdfrwt beam="2">  1       21 0.24263770E+00 0.11668832E+04</pdfrwt>
<totfact> 0.96727504E+00</totfact>
</mgrwt>
</event>
<event>
 8    1  0.5815007E-006  0.1031383E+04  0.7818608E-02  0.8749841E-01
         21   -1    0    0  501  502  0.00000000000E+00  0.00000000000E+00  0.50695602954E+03  0.50695602954E+03  0.00000000000E+00 0.  1.
         21   -1    0    0  502  503 -0.00000000000E+00 -0.00000000000E+00 -0.20611669706E+04  0.20611669706E+04  0.00000000000E+00 0.  1.
   -9000010    2    1    2    0  503 -0.25708402645E+03  0.10977920269E+03 -0.77265358065E+03  0.12740665057E+04  0.97370849610E+03 0.  0.
    9000010    2    1    2  501    0  0.25708402645E+03 -0.10977920269E+03 -0.78155736040E+03  0.12940564944E+04  0.99277723234E+03 0.  0.
        -13    1    4    4    0    0  0.50735376857E+03 -0.39709113553E+03 -0.55775701929E+03  0.85216320041E+03  0.10566000000E+00 0.  1.
          4    1    4    4  501    0 -0.25026974212E+03  0.28731193284E+03 -0.22380034111E+03  0.44189329397E+03  0.00000000000E+00 0.  1.
         13    1    3    3    0    0 -0.11167402277E+02 -0.38722668406E+03 -0.55835499912E+03  0.67958040873E+03  0.10566000000E+00 0. -1.
         -4    1    3    3    0  503 -0.24591662417E+03  0.49700588675E+03 -0.21429858154E+03  0.59448609702E+03  0.00000000000E+00 0. -1.
<mgrwt>
<rscale>  2 0.10267664E+04</rscale>
<asrwt>0</asrwt>
<pdfrwt beam="1">  1       21 0.77993235E-01 0.10313827E+04</pdfrwt>
<pdfrwt beam="2">  1       21 0.31710261E+00 0.10313827E+04</pdfrwt>
<totfact> 0.15005652E+01</totfact>
</mgrwt>
</event>
<event>
 8    1  0.5815007E-006  0.1060134E+04  0.7818608E-02  0.8730345E-01
         21   -1    0    0  501  502  0.00000000000E+00  0.00000000000E+00  0.19051027263E+04  0.19051027263E+04  0.00000000000E+00 0. -1.
         21   -1    0    0  502  503 -0.00000000000E+00 -0.00000000000E+00 -0.58180253229E+03  0.58180253229E+03  0.00000000000E+00 0. -1.
   -9000010    2    1    2    0  503 -0.34971059206E+02 -0.19586583243E+03  0.46243052661E+03  0.11566008468E+04  0.10412958886E+04 0.  0.
    9000010    2    1    2  501    0  0.34971059206E+02  0.19586583243E+03  0.86086966740E+03  0.13303044118E+04  0.99449828781E+03 0.  0.
        -13    1    4    4    0    0  0.95616410519E+02 -0.31917962034E+03  0.71930221465E+03  0.79272556106E+03  0.10566000000E+00 0.  1.
          4    1    4    4  501    0 -0.60645351312E+02  0.51504545277E+03  0.14156745275E+03  0.53757885071E+03  0.00000000000E+00 0.  1.
         13    1    3    3    0    0 -0.25133104631E+03 -0.52312988553E+03  0.42505858811E+02  0.58192691222E+03  0.10566000000E+00 0. -1.
         -4    1    3    3    0  503  0.21635998711E+03  0.32726405310E+03  0.41992466780E+03  0.57467393459E+03  0.00000000000E+00 0. -1.
<mgrwt>
<rscale>  2 0.10484603E+04</rscale>
<asrwt>0</asrwt>
<pdfrwt beam="1">  1       21 0.29309272E+00 0.10601337E+04</pdfrwt>
<pdfrwt beam="2">  1       21 0.89508083E-01 0.10601337E+04</pdfrwt>
<totfact> 0.15619021E+01</totfact>
</mgrwt>
</event>
<event>
 8    1  0.5815007E-006  0.1238168E+04  0.7818608E-02  0.8610060E-01
         21   -1    0    0  503  502  0.00000000000E+00  0.00000000000E+00  0.14696887614E+04  0.14696887614E+04  0.00000000000E+00 0. -1.
         21   -1    0    0  501  503 -0.00000000000E+00 -0.00000000000E+00 -0.12478395907E+04  0.12478395907E+04  0.00000000000E+00 0. -1.
    9000010    2    1    2  501    0 -0.66698344632E+03 -0.25478046474E+03 -0.58839966965E+03  0.13708659994E+04  0.10115727429E+04 0.  0.
   -9000010    2    1    2    0  502  0.66698344632E+03  0.25478046474E+03  0.81024884034E+03  0.13466623527E+04  0.80449754872E+03 0.  0.
        -13    1    3    3    0    0 -0.95966387759E+02  0.27507405228E+03 -0.51078950824E+03  0.58803164431E+03  0.10566000000E+00 0.  1.
          4    1    3    3  501    0 -0.57101705857E+03 -0.52985451702E+03 -0.77610161412E+02  0.78283435511E+03  0.00000000000E+00 0.  1.
         13    1    4    4    0    0  0.95286130124E+02  0.77044358713E+02 -0.16305661986E+03  0.20396752743E+03  0.10566000000E+00 0. -1.
         -4    1    4    4    0  502  0.57169731620E+03  0.17773610603E+03  0.97330546020E+03  0.11426948252E+04  0.00000000000E+00 0. -1.
<mgrwt>
<rscale>  2 0.11953666E+04</rscale>
<asrwt>0</asrwt>
<pdfrwt beam="1">  1       21 0.22610596E+00 0.12381678E+04</pdfrwt>
<pdfrwt beam="2">  1       21 0.19197532E+00 0.12381678E+04</pdfrwt>
<totfact> 0.48609853E+00</totfact>
</mgrwt>
</event>
<event>
 8    1  0.5815007E-006  0.1089090E+04  0.7818608E-02  0.8700542E-01
         21   -1    0    0  501  502  0.00000000000E+00  0.00000000000E+00  0.14089751057E+04  0.14089751057E+04  0.00000000000E+00 0. -1.
         21   -1    0    0  502  503 -0.00000000000E+00 -0.00000000000E+00 -0.82873485454E+03  0.82873485454E+03  0.00000000000E+00 0. -1.
   -9000010    2    1    2    0  503 -0.31480456854E+03 -0.20281676413E+03  0.18876768334E+03  0.10803989855E+04  0.99568678481E+03 0.  0.
    9000010    2    1    2  501    0  0.31480456854E+03  0.20281676413E+03  0.39147256780E+03  0.11573109747E+04  0.10226834137E+04 0.  0.
        -13    1    4    4    0    0  0.19950091465E+03  0.56746373908E+03 -0.11671568210E+02  0.60162442336E+03  0.10566000000E+00 0.  1.
          4    1    4    4  501    0  0.11530365389E+03 -0.36464697495E+03  0.40314413601E+03  0.55568655134E+03  0.00000000000E+00 0.  1.
         13    1    3    3    0    0 -0.36562127905E+03  0.23127541900E+03  0.40514434128E+03  0.59271341098E+03  0.10566000000E+00 0. -1.
         -4    1    3    3    0  503  0.50816710507E+02 -0.43409218312E+03 -0.21637665793E+03  0.48768557454E+03  0.00000000000E+00 0. -1.
<mgrwt>
<rscale>  2 0.10827070E+04</rscale>
<asrwt>0</asrwt>
<pdfrwt beam="1">  1       21 0.21676540E+00 0.10890904E+04</pdfrwt>
<pdfrwt beam="2">  1       21 0.12749767E+00 0.10890904E+04</pdfrwt>
<totfact> 0.21540933E+01</totfact>
</mgrwt>
</event>
<event>
 8    1  0.5815007E-006  0.1248124E+04  0.7818608E-02  0.8578478E-01
         21   -1    0    0  503  502  0.00000000000E+00  0.00000000000E+00  0.36400176346E+03  0.36400176346E+03  0.00000000000E+00 0.  1.
         21   -1    0    0  501  503 -0.00000000000E+00 -0.00000000000E+00 -0.41489344071E+04  0.41489344071E+04  0.00000000000E+00 0.  1.
    9000010    2    1    2  501    0 -0.31481881939E+03 -0.66086607990E+03 -0.18431556477E+04  0.22259911945E+04  0.10109199729E+04 0.  0.
   -9000010    2    1    2    0  502  0.31481881939E+03  0.66086607990E+03 -0.19417769959E+04  0.22869449761E+04  0.96112671227E+03 0.  0.
        -13    1    3    3    0    0 -0.28732937124E+02 -0.66713401968E+03 -0.18203138133E+04  0.19389264483E+04  0.10566000000E+00 0.  1.
          4    1    3    3  501    0 -0.28608588227E+03  0.62679397831E+01 -0.22841834404E+02  0.28706474618E+03  0.00000000000E+00 0.  1.
         13    1    4    4    0    0 -0.16880078582E+03 -0.11283642668E+03 -0.80011035653E+03  0.82547099178E+03  0.10566000000E+00 0. -1.
         -4    1    4    4    0  502  0.48361960521E+03  0.77370250658E+03 -0.11416666394E+04  0.14614739843E+04  0.00000000000E+00 0. -1.
<mgrwt>
<rscale>  2 0.12380076E+04</rscale>
<asrwt>0</asrwt>
<pdfrwt beam="1">  1       21 0.56000268E-01 0.12481242E+04</pdfrwt>
<pdfrwt beam="2">  1       21 0.63829763E+00 0.12481242E+04</pdfrwt>
<totfact> 0.15376996E-01</totfact>
</mgrwt>
</event>
<event>
 8    1  0.5815007E-006  0.1242375E+04  0.7818608E-02  0.8578656E-01
         21   -1    0    0  503  502  0.00000000000E+00  0.00000000000E+00  0.14578720091E+04  0.14578720091E+04  0.00000000000E+00 0.  1.
         21   -1    0    0  501  503 -0.00000000000E+00 -0.00000000000E+00 -0.10537552956E+04  0.10537552956E+04  0.00000000000E+00 0.  1.
    9000010    2    1    2  501    0 -0.72826295921E+03  0.14103518213E+03  0.77604689055E+02  0.12447966314E+04  0.99661341819E+03 0.  0.
   -9000010    2    1    2    0  502  0.72826295921E+03 -0.14103518213E+03  0.32651202446E+03  0.12668306734E+04  0.97364880350E+03 0.  0.
        -13    1    3    3    0    0 -0.72485702706E+03 -0.67816561549E+02 -0.32032424350E+03  0.79537690929E+03  0.10566000000E+00 0.  1.
          4    1    3    3  501    0 -0.34059321445E+01  0.20885174368E+03  0.39792893256E+03  0.44941972206E+03  0.00000000000E+00 0.  1.
         13    1    4    4    0    0  0.51976577147E+03 -0.53979685824E+03  0.32512226704E+03  0.81684858147E+03  0.10566000000E+00 0. -1.
         -4    1    4    4    0  502  0.20849718773E+03  0.39876167610E+03  0.13897574194E+01  0.44998209192E+03  0.00000000000E+00 0. -1.
<mgrwt>
<rscale>  2 0.12377633E+04</rscale>
<asrwt>0</asrwt>
<pdfrwt beam="1">  1       21 0.22428800E+00 0.12423752E+04</pdfrwt>
<pdfrwt beam="2">  1       21 0.16211620E+00 0.12423752E+04</pdfrwt>
<totfact> 0.88434460E+00</totfact>
</mgrwt>
</event>
<event>
 8    1  0.5815007E-006  0.1061530E+04  0.7818608E-02  0.8720930E-01
         21   -1    0    0  501  502  0.00000000000E+00  0.00000000000E+00  0.27156718094E+04  0.27156718094E+04  0.00000000000E+00 0. -1.
         21   -1    0    0  502  503 -0.00000000000E+00 -0.00000000000E+00 -0.41745660003E+03  0.41745660003E+03  0.00000000000E+00 0. -1.
   -9000010    2    1    2    0  503 -0.24426132377E+03 -0.12267317281E+03  0.95247149820E+03  0.14191063023E+04  0.10158486309E+04 0.  0.
    9000010    2    1    2  501    0  0.24426132377E+03  0.12267317281E+03  0.13457437111E+04  0.17140221070E+04  0.10257355145E+04 0.  0.
        -13    1    4    4    0    0  0.16558130122E+03  0.73470991014E+02 -0.13778377871E+03  0.22759511127E+03  0.10566000000E+00 0.  1.
          4    1    4    4  501    0  0.78680022551E+02  0.49202181798E+02  0.14835274898E+04  0.14864269958E+04  0.00000000000E+00 0.  1.
         13    1    3    3    0    0 -0.36918254958E+03 -0.42372421199E+03  0.93722741827E+03  0.10928097764E+04  0.10566000000E+00 0. -1.
         -4    1    3    3    0  503  0.12492122581E+03  0.30105103918E+03  0.15244079935E+02  0.32629652591E+03  0.00000000000E+00 0. -1.
<mgrwt>
<rscale>  2 0.10591342E+04</rscale>
<asrwt>0</asrwt>
<pdfrwt beam="1">  1       21 0.41779565E+00 0.10615299E+04</pdfrwt>
<pdfrwt beam="2">  1       21 0.64224094E-01 0.10615299E+04</pdfrwt>
<totfact> 0.46749824E+00</totfact>
</mgrwt>
</event>
<event>
 8    1  0.5815007E-006  0.1514520E+04  0.7818608E-02  0.8402164E-01
         21   -1    0    0  503  502  0.00000000000E+00  0.00000000000E+00  0.13769675884E+04  0.13769675884E+04  0.00000000000E+00 0.  1.
         21   -1    0    0  501  503 -0.00000000000E+00 -0.00000000000E+00 -0.16598201587E+04  0.16598201587E+04  0.00000000000E+00 0. -1.
    9000010    2    1    2  501    0  0.66354347985E+03  0.91907641979E+03 -0.96071108299E+02  0.15175635146E+04  0.10043793844E+04 0.  0.
   -9000010    2    1    2    0  502 -0.66354347985E+03 -0.91907641979E+03 -0.18678146203E+03  0.15192242326E+04  0.99406415244E+03 0.  0.
        -13    1    3    3    0    0  0.88623554208E+03  0.76121779220E+03 -0.26311930575E+03  0.11975382012E+04  0.10566000000E+00 0.  1.
          4    1    3    3  501    0 -0.22269206223E+03  0.15785862759E+03  0.16704819745E+03  0.32002531331E+03  0.00000000000E+00 0.  1.
         13    1    4    4    0    0  0.24588001387E+02 -0.38024297065E+03  0.32983200104E+03  0.50396274328E+03  0.10566000000E+00 0. -1.
         -4    1    4    4    0  502 -0.68813148124E+03 -0.53883344914E+03 -0.51661346307E+03  0.10152614893E+04  0.00000000000E+00 0. -1.
<mgrwt>
<rscale>  2 0.15128114E+04</rscale>
<asrwt>0</asrwt>
<pdfrwt beam="1">  1       21 0.21184117E+00 0.15145195E+04</pdfrwt>
<pdfrwt beam="2">  1       21 0.25535695E+00 0.15145195E+04</pdfrwt>
<totfact> 0.19635577E+00</totfact>
</mgrwt>
</event>
<event>
 8    1  0.5815007E-006  0.1109942E+04  0.7818608E-02  0.8678627E-01
         21   -1    0    0  501  502  0.00000000000E+00  0.00000000000E+00  0.16149946948E+04  0.16149946948E+04  0.00000000000E+00 0. -1.
         21   -1    0    0  502  503 -0.00000000000E+00 -0.00000000000E+00 -0.86968081815E+03  0.86968081815E+03  0.00000000000E+00 0. -1.
   -9000010    2    1    2    0  503  0.40801418231E+03  0.21510006724E+03 -0.70027987221E+02  0.11074483411E+04  0.10043875234E+04 0.  0.
    9000010    2    1    2  501    0 -0.40801418231E+03 -0.21510006724E+03  0.81534186382E+03  0.13772271719E+04  0.10095685792E+04 0.  0.
        -13    1    4    4    0    0 -0.18519448777E+03 -0.45328735763E+03  0.91363256061E+03  0.10365765258E+04  0.10566000000E+00 0.  1.
          4    1    4    4  501    0 -0.22281969454E+03  0.23818729039E+03 -0.98290696784E+02  0.34065064605E+03  0.00000000000E+00 0.  1.
         13    1    3    3    0    0  0.96895257341E+02  0.55720089277E+03  0.16444285469E+03  0.58898471069E+03  0.10566000000E+00 0. -1.
         -4    1    3    3    0  503  0.31111892497E+03 -0.34210082553E+03 -0.23447084191E+03  0.51846363036E+03  0.00000000000E+00 0. -1.
<mgrwt>
<rscale>  2 0.11087630E+04</rscale>
<asrwt>0</asrwt>
<pdfrwt beam="1">  1       21 0.24846072E+00 0.11099425E+04</pdfrwt>
<pdfrwt beam="2">  1       21 0.13379705E+00 0.11099425E+04</pdfrwt>
<totfact> 0.10849782E+01</totfact>
</mgrwt>
</event>
<event>
 8    1  0.5815007E-006  0.1124705E+04  0.7818608E-02  0.8667147E-01
         21   -1    0    0  501  502  0.00000000000E+00  0.00000000000E+00  0.25981160070E+04  0.25981160070E+04  0.00000000000E+00 0.  1.
         21   -1    0    0  502  503 -0.00000000000E+00 -0.00000000000E+00 -0.49438028314E+03  0.49438028314E+03  0.00000000000E+00 0.  1.
   -9000010    2    1    2    0  503 -0.19900019571E+03  0.43086557921E+03  0.82558966639E+03  0.13951916927E+04  0.10196643255E+04 0.  0.
    9000010    2    1    2  501    0  0.19900019571E+03 -0.43086557921E+03  0.12781460575E+04  0.16973045975E+04  0.10109101479E+04 0.  0.
        -13    1    4    4    0    0 -0.32878707862E+03 -0.48268294905E+03  0.61389261782E+03  0.84731808062E+03  0.10566000000E+00 0.  1.
          4    1    4    4  501    0  0.52778727433E+03  0.51817369834E+02  0.66425343968E+03  0.84998651689E+03  0.00000000000E+00 0.  1.
         13    1    3    3    0    0 -0.11638812593E+03  0.75532177365E+03  0.42987138300E+03  0.87683897877E+03  0.10566000000E+00 0. -1.
         -4    1    3    3    0  503 -0.82612069781E+02 -0.32445619443E+03  0.39571828339E+03  0.51835271388E+03  0.00000000000E+00 0. -1.
<mgrwt>
<rscale>  2 0.11227172E+04</rscale>
<asrwt>0</asrwt>
<pdfrwt beam="1">  1       21 0.39971015E+00 0.11247051E+04</pdfrwt>
<pdfrwt beam="2">  1       21 0.76058507E-01 0.11247051E+04</pdfrwt>
<totfact> 0.41190701E+00</totfact>
</mgrwt>
</event>
<event>
 8    1  0.5815007E-006  0.1101480E+04  0.7818608E-02  0.8689987E-01
         21   -1    0    0  501  502  0.00000000000E+00  0.00000000000E+00  0.10507614827E+04  0.10507614827E+04  0.00000000000E+00 0.  1.
         21   -1    0    0  502  503 -0.00000000000E+00 -0.00000000000E+00 -0.12738798330E+04  0.12738798330E+04  0.00000000000E+00 0.  1.
   -9000010    2    1    2    0  503  0.26715630856E+03  0.22386303407E+03 -0.50301066895E+03  0.11881564630E+04  0.10184345321E+04 0.  0.
    9000010    2    1    2  501    0 -0.26715630856E+03 -0.22386303407E+03  0.27989231859E+03  0.11364848527E+04  0.10448784423E+04 0.  0.
        -13    1    4    4    0    0  0.35268533994E+02 -0.59021889682E+03  0.12622621884E+02  0.59140642320E+03  0.10566000000E+00 0.  1.
          4    1    4    4  501    0 -0.30242484256E+03  0.36635586275E+03  0.26726969671E+03  0.54507842954E+03  0.00000000000E+00 0.  1.
         13    1    3    3    0    0  0.40666609021E+03  0.21962165821E+03  0.17629328009E+03  0.49466181726E+03  0.10566000000E+00 0. -1.
         -4    1    3    3    0  503 -0.13950978165E+03  0.42413758509E+01 -0.67930394904E+03  0.69349464571E+03  0.00000000000E+00 0. -1.
<mgrwt>
<rscale>  2 0.10951627E+04</rscale>
<asrwt>0</asrwt>
<pdfrwt beam="1">  1       21 0.16165561E+00 0.11014800E+04</pdfrwt>
<pdfrwt beam="2">  1       21 0.19598151E+00 0.11014800E+04</pdfrwt>
<totfact> 0.15161547E+01</totfact>
</mgrwt>
</event>
<event>
 8    1  0.5815007E-006  0.1003142E+04  0.7818608E-02  0.8778346E-01
         21   -1    0    0  501  502  0.00000000000E+00  0.00000000000E+00  0.69791757897E+03  0.69791757897E+03  0.00000000000E+00 0. -1.
         21   -1    0    0  502  503 -0.00000000000E+00 -0.00000000000E+00 -0.14046585380E+04  0.14046585380E+04  0.00000000000E+00 0. -1.
   -9000010    2    1    2    0  503  0.70648470068E+02  0.12280566309E+03 -0.39751272285E+03  0.10528539148E+04  0.96457895674E+03 0.  0.
    9000010    2    1    2  501    0 -0.70648470068E+02 -0.12280566309E+03 -0.30922823620E+03  0.10497222022E+04  0.99308718780E+03 0.  0.
        -13    1    4    4    0    0  0.13141946698E+03 -0.45260042114E+03  0.10515258558E+03  0.48288227854E+03  0.10566000000E+00 0.  1.
          4    1    4    4  501    0 -0.20206793705E+03  0.32979475805E+03 -0.41438082179E+03  0.56683992368E+03  0.00000000000E+00 0.  1.
         13    1    3    3    0    0 -0.23592844235E+03  0.48047904962E+02  0.24097290608E+03  0.34064465901E+03  0.10566000000E+00 0. -1.
         -4    1    3    3    0  503  0.30657691242E+03  0.74757758129E+02 -0.63848562893E+03  0.71220925575E+03  0.00000000000E+00 0. -1.
<mgrwt>
<rscale>  2 0.99601318E+03</rscale>
<asrwt>0</asrwt>
<pdfrwt beam="1">  1       21 0.10737194E+00 0.10031424E+04</pdfrwt>
<pdfrwt beam="2">  1       21 0.21610131E+00 0.10031424E+04</pdfrwt>
<totfact> 0.35760764E+01</totfact>
</mgrwt>
</event>
<event>
 8    1  0.5815007E-006  0.1187554E+04  0.7818608E-02  0.8616531E-01
         21   -1    0    0  503  502  0.00000000000E+00  0.00000000000E+00  0.12999862449E+04  0.12999862449E+04  0.00000000000E+00 0.  1.
         21   -1    0    0  501  503 -0.00000000000E+00 -0.00000000000E+00 -0.11315336932E+04  0.11315336932E+04  0.00000000000E+00 0.  1.
    9000010    2    1    2  501    0  0.46132341054E+03  0.44735015111E+03 -0.16952164522E+03  0.11968089636E+04  0.99532540421E+03 0.  0.
   -9000010    2    1    2    0  502 -0.46132341054E+03 -0.44735015111E+03  0.33797419692E+03  0.12347109746E+04  0.99867070963E+03 0.  0.
        -13    1    3    3    0    0  0.48281659207E+03  0.27371708392E+03  0.34490347536E+03  0.65344573003E+03  0.10566000000E+00 0.  1.
          4    1    3    3  501    0 -0.21493181534E+02  0.17363306719E+03 -0.51442512059E+03  0.54336323354E+03  0.00000000000E+00 0.  1.
         13    1    4    4    0    0 -0.13389655538E+03 -0.73412870706E+03  0.27310708705E+03  0.79464503914E+03  0.10566000000E+00 0. -1.
         -4    1    4    4    0  502 -0.32742685516E+03  0.28677855595E+03  0.64867109877E+02  0.44006593549E+03  0.00000000000E+00 0. -1.
<mgrwt>
<rscale>  2 0.11868505E+04</rscale>
<asrwt>0</asrwt>
<pdfrwt beam="1">  1       21 0.19999789E+00 0.11875541E+04</pdfrwt>
<pdfrwt beam="2">  1       21 0.17408211E+00 0.11875541E+04</pdfrwt>
<totfact> 0.10870571E+01</totfact>
</mgrwt>
</event>
<event>
 8    1  0.5815007E-006  0.1332373E+04  0.7818608E-02  0.8551353E-01
         21   -1    0    0  503  502  0.00000000000E+00  0.00000000000E+00  0.10635291595E+04  0.10635291595E+04  0.00000000000E+00 0.  1.
         21   -1    0    0  501  503 -0.00000000000E+00 -0.00000000000E+00 -0.14774425859E+04  0.14774425859E+04  0.00000000000E+00 0.  1.
    9000010    2    1    2  501    0  0.17603473344E+03 -0.43885686665E+03  0.70200207143E+02  0.11233742272E+04  0.10165913675E+04 0.  0.
   -9000010    2    1    2    0  502 -0.17603473344E+03  0.43885686665E+03 -0.48411363347E+03  0.14175975182E+04  0.12456456706E+04 0.  0.
        -13    1    3    3    0    0  0.14291642724E+03 -0.77242808784E+03  0.34961019655E+02  0.78631580178E+03  0.10566000000E+00 0.  1.
          4    1    3    3  501    0  0.33118306195E+02  0.33357122119E+03  0.35239187488E+02  0.33705842542E+03  0.00000000000E+00 0.  1.
         13    1    4    4    0    0 -0.26785660253E+03  0.57582452851E+03 -0.82369685973E+03  0.10400949837E+04  0.10566000000E+00 0. -1.
         -4    1    4    4    0  502  0.91821869092E+02 -0.13696766186E+03  0.33958322626E+03  0.37750253456E+03  0.00000000000E+00 0. -1.
<mgrwt>
<rscale>  2 0.12761096E+04</rscale>
<asrwt>0</asrwt>
<pdfrwt beam="1">  1       21 0.16361987E+00 0.13323726E+04</pdfrwt>
<pdfrwt beam="2">  1       21 0.22729886E+00 0.13323726E+04</pdfrwt>
<totfact> 0.80104601E+00</totfact>
</mgrwt>
</event>
<event>
 8    1  0.5815007E-006  0.1101728E+04  0.7818608E-02  0.8685521E-01
         21   -1    0    0  503  502  0.00000000000E+00  0.00000000000E+00  0.28420623276E+04  0.28420623276E+04  0.00000000000E+00 0.  1.
         21   -1    0    0  501  503 -0.00000000000E+00 -0.00000000000E+00 -0.42526885364E+03  0.42526885364E+03  0.00000000000E+00 0.  1.
    9000010    2    1    2  501    0 -0.35196488114E+03 -0.31404097987E+03  0.11799790390E+04  0.16109752361E+04  0.99014628430E+03 0.  0.
   -9000010    2    1    2    0  502  0.35196488114E+03  0.31404097987E+03  0.12368144350E+04  0.16563559451E+04  0.99564253416E+03 0.  0.
        -13    1    3    3    0    0 -0.18142589207E+03 -0.54984557421E+03  0.11861235429E+04  0.13198994583E+04  0.10566000000E+00 0.  1.
          4    1    3    3  501    0 -0.17053898906E+03  0.23580459435E+03 -0.61445039082E+01  0.29107577782E+03  0.00000000000E+00 0.  1.
         13    1    4    4    0    0 -0.33430424996E+02 -0.33723326826E+03  0.30474707505E+03  0.45575723961E+03  0.10566000000E+00 0. -1.
         -4    1    4    4    0  502  0.38539530613E+03  0.65127424813E+03  0.93206735991E+03  0.12005987055E+04  0.00000000000E+00 0. -1.
<mgrwt>
<rscale>  2 0.11004850E+04</rscale>
<asrwt>0</asrwt>
<pdfrwt beam="1">  1       21 0.43724035E+00 0.11017282E+04</pdfrwt>
<pdfrwt beam="2">  1       21 0.65425979E-01 0.11017282E+04</pdfrwt>
<totfact> 0.32594177E+00</totfact>
</mgrwt>
</event>
<event>
 8    1  0.5815007E-006  0.1034985E+04  0.7818608E-02  0.8759736E-01
         21   -1    0    0  503  502  0.00000000000E+00  0.00000000000E+00  0.16875288220E+04  0.16875288220E+04  0.00000000000E+00 0.  1.
         21   -1    0    0  501  503 -0.00000000000E+00 -0.00000000000E+00 -0.61513853994E+03  0.61513853994E+03  0.00000000000E+00 0.  1.
    9000010    2    1    2  501    0  0.18130830596E+03 -0.14849627172E+03  0.78699773803E+03  0.13002153431E+04  0.10081025019E+04 0.  0.
   -9000010    2    1    2    0  502 -0.18130830596E+03  0.14849627172E+03  0.28539254408E+03  0.10024520189E+04  0.93195348671E+03 0.  0.
        -13    1    3    3    0    0 -0.88316188645E+02  0.32872245643E+03  0.65233150256E+03  0.73579521807E+03  0.10566000000E+00 0.  1.
          4    1    3    3  501    0  0.26962449461E+03 -0.47721872815E+03  0.13466623548E+03  0.56442012506E+03  0.00000000000E+00 0.  1.
         13    1    4    4    0    0 -0.11567551893E+03  0.53139114004E+03  0.28496467664E+03  0.61397251363E+03  0.10566000000E+00 0. -1.
         -4    1    4    4    0  502 -0.65632787038E+02 -0.38289486832E+03  0.42786743822E+00  0.38847950524E+03  0.00000000000E+00 0. -1.
<mgrwt>
<rscale>  2 0.10159631E+04</rscale>
<asrwt>0</asrwt>
<pdfrwt beam="1">  1       21 0.25961982E+00 0.10349853E+04</pdfrwt>
<pdfrwt beam="2">  1       21 0.94636699E-01 0.10349853E+04</pdfrwt>
<totfact> 0.23613751E+01</totfact>
</mgrwt>
</event>
<event>
 8    1  0.5815007E-006  0.1188619E+04  0.7818608E-02  0.8618274E-01
         21   -1    0    0  503  502  0.00000000000E+00  0.00000000000E+00  0.17340741074E+04  0.17340741074E+04  0.00000000000E+00 0.  1.
         21   -1    0    0  501  503 -0.00000000000E+00 -0.00000000000E+00 -0.82662956736E+03  0.82662956736E+03  0.00000000000E+00 0.  1.
    9000010    2    1    2  501    0  0.61732920369E+03 -0.18402645371E+03  0.24361539213E+03  0.12133270169E+04  0.99892587775E+03 0.  0.
   -9000010    2    1    2    0  502 -0.61732920369E+03  0.18402645371E+03  0.66382914790E+03  0.13473766578E+04  0.97969058336E+03 0.  0.
        -13    1    3    3    0    0  0.12672923964E+03 -0.23068108588E+03 -0.35247475394E+03  0.43990058751E+03  0.10566000000E+00 0.  1.
          4    1    3    3  501    0  0.49059996405E+03  0.46654632171E+02  0.59609014607E+03  0.77342642939E+03  0.00000000000E+00 0.  1.
         13    1    4    4    0    0 -0.45617616581E+03  0.19451810147E+03 -0.14966364690E+03  0.51800888450E+03  0.10566000000E+00 0. -1.
         -4    1    4    4    0  502 -0.16115303789E+03 -0.10491647768E+02  0.81349279479E+03  0.82936777335E+03  0.00000000000E+00 0. -1.
<mgrwt>
<rscale>  2 0.11845681E+04</rscale>
<asrwt>0</asrwt>
<pdfrwt beam="1">  1       21 0.26678063E+00 0.11886185E+04</pdfrwt>
<pdfrwt beam="2">  1       21 0.12717378E+00 0.11886185E+04</pdfrwt>
<totfact> 0.91085753E+00</totfact>
</mgrwt>
</event>
<event>
 8    1  0.5815007E-006  0.1294263E+04  0.7818608E-02  0.8541207E-01
         21   -1    0    0  501  502  0.00000000000E+00  0.00000000000E+00  0.10593899659E+04  0.10593899659E+04  0.00000000000E+00 0. -1.
         21   -1    0    0  502  503 -0.00000000000E+00 -0.00000000000E+00 -0.19249585264E+04  0.19249585264E+04  0.00000000000E+00 0. -1.
   -9000010    2    1    2    0  503 -0.50076948483E+03  0.62491769588E+03 -0.10769787982E+04  0.16729327892E+04  0.99876352645E+03 0.  0.
    9000010    2    1    2  501    0  0.50076948483E+03 -0.62491769588E+03  0.21141023767E+03  0.13114157031E+04  0.10167716824E+04 0.  0.
        -13    1    4    4    0    0  0.74310232403E+03 -0.64935428225E+03 -0.31146472407E+01  0.98684941103E+03  0.10566000000E+00 0.  1.
          4    1    4    4  501    0 -0.24233283920E+03  0.24436586375E+02  0.21452488491E+03  0.32456629208E+03  0.00000000000E+00 0.  1.
         13    1    3    3    0    0  0.78762581922E+02  0.68165446520E+03 -0.46946570614E+03  0.83141711231E+03  0.10566000000E+00 0. -1.
         -4    1    3    3    0  503 -0.57953206675E+03 -0.56736769325E+02 -0.60751309204E+03  0.84151567685E+03  0.00000000000E+00 0. -1.
<mgrwt>
<rscale>  2 0.12907239E+04</rscale>
<asrwt>0</asrwt>
<pdfrwt beam="1">  1       21 0.16298307E+00 0.12942631E+04</pdfrwt>
<pdfrwt beam="2">  1       21 0.29614746E+00 0.12942631E+04</pdfrwt>
<totfact> 0.25911391E+00</totfact>
</mgrwt>
</event>
<event>
 8    1  0.5815007E-006  0.1299103E+04  0.7818608E-02  0.8540473E-01
         21   -1    0    0  503  502  0.00000000000E+00  0.00000000000E+00  0.17201470700E+04  0.17201470700E+04  0.00000000000E+00 0. -1.
         21   -1    0    0  501  503 -0.00000000000E+00 -0.00000000000E+00 -0.97159333000E+03  0.97159333000E+03  0.00000000000E+00 0. -1.
    9000010    2    1    2  501    0  0.71524405624E+03 -0.48614027005E+03  0.52127355534E+03  0.13729060535E+04  0.93018196617E+03 0.  0.
   -9000010    2    1    2    0  502 -0.71524405624E+03  0.48614027005E+03  0.22728018463E+03  0.13188343464E+04  0.96941287841E+03 0.  0.
        -13    1    3    3    0    0  0.57303079030E+03 -0.11965941818E+03 -0.14156476777E+03  0.60226510577E+03  0.10566000000E+00 0.  1.
          4    1    3    3  501    0  0.14221326594E+03 -0.36648085187E+03  0.66283832311E+03  0.77064094777E+03  0.00000000000E+00 0.  1.
         13    1    4    4    0    0  0.64765781803E+02  0.40933694923E+03  0.32811437049E+03  0.52859284500E+03  0.10566000000E+00 0. -1.
         -4    1    4    4    0  502 -0.78000983804E+03  0.76803320821E+02 -0.10083418587E+03  0.79024150142E+03  0.00000000000E+00 0. -1.
<mgrwt>
<rscale>  2 0.12917896E+04</rscale>
<asrwt>0</asrwt>
<pdfrwt beam="1">  1       21 0.26463801E+00 0.12991027E+04</pdfrwt>
<pdfrwt beam="2">  1       21 0.14947590E+00 0.12991027E+04</pdfrwt>
<totfact> 0.57094471E+00</totfact>
</mgrwt>
</event>
<event>
 8    1  0.5815007E-006  0.1108879E+04  0.7818608E-02  0.8679706E-01
         21   -1    0    0  501  502  0.00000000000E+00  0.00000000000E+00  0.37805945355E+03  0.37805945355E+03  0.00000000000E+00 0.  1.
         21   -1    0    0  502  503 -0.00000000000E+00 -0.00000000000E+00 -0.32359977852E+04  0.32359977852E+04  0.00000000000E+00 0.  1.
   -9000010    2    1    2    0  503  0.42498450943E+03 -0.19782736374E+03 -0.14443737032E+04  0.18209415705E+04  0.10049205489E+04 0.  0.
    9000010    2    1    2  501    0 -0.42498450943E+03  0.19782736374E+03 -0.14135646285E+04  0.17931156683E+04  0.99867479279E+03 0.  0.
        -13    1    4    4    0    0  0.25930827086E+03 -0.17271705028E+03 -0.53811545446E+03  0.62180399829E+03  0.10566000000E+00 0.  1.
          4    1    4    4  501    0 -0.68429278028E+03  0.37054441403E+03 -0.87544917402E+03  0.11713116700E+04  0.00000000000E+00 0.  1.
         13    1    3    3    0    0  0.59003223717E+01 -0.53133007964E+03 -0.47154567487E+03  0.71042367781E+03  0.10566000000E+00 0. -1.
         -4    1    3    3    0  503  0.41908418706E+03  0.33350271590E+03 -0.97282802832E+03  0.11105178927E+04  0.00000000000E+00 0. -1.
<mgrwt>
<rscale>  2 0.11074621E+04</rscale>
<asrwt>0</asrwt>
<pdfrwt beam="1">  1       21 0.58162996E-01 0.11088791E+04</pdfrwt>
<pdfrwt beam="2">  1       21 0.49784579E+00 0.11088791E+04</pdfrwt>
<totfact> 0.16184048E+00</totfact>
</mgrwt>
</event>
<event>
 8    1  0.5815007E-006  0.1229240E+04  0.7818608E-02  0.8611891E-01
         21   -1    0    0  503  502  0.00000000000E+00  0.00000000000E+00  0.13214772877E+04  0.13214772877E+04  0.00000000000E+00 0. -1.
         21   -1    0    0  501  503 -0.00000000000E+00 -0.00000000000E+00 -0.11128990879E+04  0.11128990879E+04  0.00000000000E+00 0. -1.
    9000010    2    1    2  501    0  0.50043020504E+03 -0.51005290079E+03 -0.24500140216E+03  0.12534177892E+04  0.10002230329E+04 0.  0.
   -9000010    2    1    2    0  502 -0.50043020504E+03  0.51005290079E+03  0.45357960203E+03  0.11809585864E+04  0.82361664366E+03 0.  0.
        -13    1    3    3    0    0  0.75358346628E+03 -0.59702578229E+03 -0.18372796825E+03  0.97881755341E+03  0.10566000000E+00 0.  1.
          4    1    3    3  501    0 -0.25315326123E+03  0.86972881499E+02 -0.61273433905E+02  0.27460023578E+03  0.00000000000E+00 0.  1.
         13    1    4    4    0    0 -0.32060261022E+03  0.62460300163E+03  0.25292359905E+02  0.70253445321E+03  0.10566000000E+00 0. -1.
         -4    1    4    4    0  502 -0.17982759482E+03 -0.11455010083E+03  0.42828724212E+03  0.47842413320E+03  0.00000000000E+00 0. -1.
<mgrwt>
<rscale>  2 0.11929492E+04</rscale>
<asrwt>0</asrwt>
<pdfrwt beam="1">  1       21 0.20330420E+00 0.12292398E+04</pdfrwt>
<pdfrwt beam="2">  1       21 0.17121524E+00 0.12292398E+04</pdfrwt>
<totfact> 0.10734234E+01</totfact>
</mgrwt>
</event>
<event>
 8    1  0.5815007E-006  0.1188886E+04  0.7818608E-02  0.8619399E-01
         21   -1    0    0  501  502  0.00000000000E+00  0.00000000000E+00  0.16113027993E+04  0.16113027993E+04  0.00000000000E+00 0.  1.
         21   -1    0    0  502  503 -0.00000000000E+00 -0.00000000000E+00 -0.88115429203E+03  0.88115429203E+03  0.00000000000E+00 0.  1.
   -9000010    2    1    2    0  503  0.13066180483E+03 -0.58694195023E+03  0.17004703970E+03  0.11782412579E+04  0.99888092677E+03 0.  0.
    9000010    2    1    2  501    0 -0.13066180483E+03  0.58694195023E+03  0.56010146762E+03  0.13142158335E+04  0.10256101807E+04 0.  0.
        -13    1    4    4    0    0 -0.61075272121E+02 -0.29220028885E+03  0.21187123601E+03  0.36606096416E+03  0.10566000000E+00 0.  1.
          4    1    4    4  501    0 -0.69586532712E+02  0.87914223907E+03  0.34823023160E+03  0.94815486934E+03  0.00000000000E+00 0.  1.
         13    1    3    3    0    0  0.34949093076E+03 -0.39978533141E+03 -0.31262530956E+03  0.61620355179E+03  0.10566000000E+00 0. -1.
         -4    1    3    3    0  503 -0.21882912593E+03 -0.18715661881E+03  0.48267234926E+03  0.56203770608E+03  0.00000000000E+00 0. -1.
<mgrwt>
<rscale>  2 0.11830987E+04</rscale>
<asrwt>0</asrwt>
<pdfrwt beam="1">  1       21 0.24789274E+00 0.11888859E+04</pdfrwt>
<pdfrwt beam="2">  1       21 0.13556220E+00 0.11888859E+04</pdfrwt>
<totfact> 0.10364554E+01</totfact>
</mgrwt>
</event>
<event>
 8    1  0.5815007E-006  0.1044117E+04  0.7818608E-02  0.8734949E-01
         21   -1    0    0  503  502  0.00000000000E+00  0.00000000000E+00  0.17944773226E+04  0.17944773226E+04  0.00000000000E+00 0. -1.
         21   -1    0    0  501  503 -0.00000000000E+00 -0.00000000000E+00 -0.60661924687E+03  0.60661924687E+03  0.00000000000E+00 0. -1.
    9000010    2    1    2  501    0 -0.20493979204E+03 -0.20919322141E+03  0.54549357709E+03  0.11780255785E+04  0.10022070139E+04 0.  0.
   -9000010    2    1    2    0  502  0.20493979204E+03  0.20919322141E+03  0.64236449864E+03  0.12230709910E+04  0.99875341181E+03 0.  0.
        -13    1    3    3    0    0 -0.20199273623E+03 -0.11589056598E+03 -0.27037193088E+03  0.35683705097E+03  0.10566000000E+00 0.  1.
          4    1    3    3  501    0 -0.29470558154E+01 -0.93302655430E+02  0.81586550797E+03  0.82118852753E+03  0.00000000000E+00 0.  1.
         13    1    4    4    0    0  0.49606669676E+03 -0.83704411325E+02  0.56437894552E+02  0.50623496838E+03  0.10566000000E+00 0. -1.
         -4    1    4    4    0  502 -0.29112690472E+03  0.29289763274E+03  0.58592660408E+03  0.71683602259E+03  0.00000000000E+00 0. -1.
<mgrwt>
<rscale>  2 0.10432877E+04</rscale>
<asrwt>0</asrwt>
<pdfrwt beam="1">  1       21 0.27607343E+00 0.10441173E+04</pdfrwt>
<pdfrwt beam="2">  1       21 0.93326039E-01 0.10441173E+04</pdfrwt>
<totfact> 0.18609134E+01</totfact>
</mgrwt>
</event>
<event>
 8    1  0.5815007E-006  0.1106447E+04  0.7818608E-02  0.8689408E-01
         21   -1    0    0  501  502  0.00000000000E+00  0.00000000000E+00  0.10191844961E+04  0.10191844961E+04  0.00000000000E+00 0. -1.
         21   -1    0    0  502  503 -0.00000000000E+00 -0.00000000000E+00 -0.12399780023E+04  0.12399780023E+04  0.00000000000E+00 0. -1.
   -9000010    2    1    2    0  503 -0.26593665289E+03 -0.23463048161E+03 -0.40584802449E+03  0.11785320876E+04  0.10480703680E+04 0.  0.
    9000010    2    1    2  501    0  0.26593665289E+03  0.23463048161E+03  0.18505451822E+03  0.10806304108E+04  0.10038641062E+04 0.  0.
        -13    1    4    4    0    0  0.54386737443E+03 -0.47491240934E+02 -0.14525947819E+03  0.56493138176E+03  0.10566000000E+00 0.  1.
          4    1    4    4  501    0 -0.27793072154E+03  0.28212172255E+03  0.33031399641E+03  0.51569902902E+03  0.00000000000E+00 0.  1.
         13    1    3    3    0    0  0.22477014567E+03 -0.46010549761E+03 -0.15700683772E+02  0.51231358556E+03  0.10566000000E+00 0. -1.
         -4    1    3    3    0  503 -0.49070679855E+03  0.22547501600E+03 -0.39014734071E+03  0.66621850204E+03  0.00000000000E+00 0. -1.
<mgrwt>
<rscale>  2 0.10958510E+04</rscale>
<asrwt>0</asrwt>
<pdfrwt beam="1">  1       21 0.15679761E+00 0.11064471E+04</pdfrwt>
<pdfrwt beam="2">  1       21 0.19076585E+00 0.11064471E+04</pdfrwt>
<totfact> 0.18351477E+01</totfact>
</mgrwt>
</event>
<event>
 8    1  0.5815007E-006  0.1182336E+04  0.7818608E-02  0.8658517E-01
         21   -1    0    0  501  502  0.00000000000E+00  0.00000000000E+00  0.12982623121E+04  0.12982623121E+04  0.00000000000E+00 0. -1.
         21   -1    0    0  502  503 -0.00000000000E+00 -0.00000000000E+00 -0.94275062304E+03  0.94275062304E+03  0.00000000000E+00 0. -1.
   -9000010    2    1    2    0  503  0.41821490421E+03  0.12280746372E+03  0.38175203366E+03  0.12424388156E+04  0.10990606061E+04 0.  0.
    9000010    2    1    2  501    0 -0.41821490421E+03 -0.12280746372E+03 -0.26240344578E+02  0.99857411960E+03  0.89804027605E+03 0.  0.
        -13    1    4    4    0    0 -0.30702794786E+03  0.37497897840E+03 -0.54767331444E+02  0.48772417079E+03  0.10566000000E+00 0.  1.
          4    1    4    4  501    0 -0.11118695634E+03 -0.49778644212E+03  0.28526986866E+02  0.51084994881E+03  0.00000000000E+00 0.  1.
         13    1    3    3    0    0  0.33679753310E+03  0.55438275262E+03  0.46147617422E+03  0.79607354261E+03  0.10566000000E+00 0. -1.
         -4    1    3    3    0  503  0.81417371103E+02 -0.43157528890E+03 -0.79724140559E+02  0.44636527295E+03  0.00000000000E+00 0. -1.
<mgrwt>
<rscale>  2 0.11333483E+04</rscale>
<asrwt>0</asrwt>
<pdfrwt beam="1">  1       21 0.19973266E+00 0.11823365E+04</pdfrwt>
<pdfrwt beam="2">  1       21 0.14503856E+00 0.11823365E+04</pdfrwt>
<totfact> 0.19534994E+01</totfact>
</mgrwt>
</event>
<event>
 8    1  0.5815007E-006  0.1018335E+04  0.7818608E-02  0.8771270E-01
         21   -1    0    0  503  502  0.00000000000E+00  0.00000000000E+00  0.76792041416E+03  0.76792041416E+03  0.00000000000E+00 0. -1.
         21   -1    0    0  501  503 -0.00000000000E+00 -0.00000000000E+00 -0.12749869386E+04  0.12749869386E+04  0.00000000000E+00 0. -1.
    9000010    2    1    2  501    0 -0.32828907837E+02  0.18404264243E+03 -0.27542559197E+03  0.10549239067E+04  0.10010273526E+04 0.  0.
   -9000010    2    1    2    0  502  0.32828907837E+02 -0.18404264243E+03 -0.23164093250E+03  0.98798344612E+03  0.94207448579E+03 0.  0.
        -13    1    3    3    0    0  0.99716940561E+02 -0.35338537051E+03 -0.33647447391E+03  0.49803591344E+03  0.10566000000E+00 0.  1.
          4    1    3    3  501    0 -0.13254584840E+03  0.53742801294E+03  0.61048881935E+02  0.55688799323E+03  0.00000000000E+00 0.  1.
         13    1    4    4    0    0 -0.24199577505E+03 -0.15243979498E+03  0.28385162482E+03  0.40295359821E+03  0.10566000000E+00 0. -1.
         -4    1    4    4    0  502  0.27482468288E+03 -0.31602847451E+02 -0.51549255733E+03  0.58502984791E+03  0.00000000000E+00 0. -1.
<mgrwt>
<rscale>  2 0.10035429E+04</rscale>
<asrwt>0</asrwt>
<pdfrwt beam="1">  1       21 0.11814160E+00 0.10183345E+04</pdfrwt>
<pdfrwt beam="2">  1       21 0.19615184E+00 0.10183345E+04</pdfrwt>
<totfact> 0.39122798E+01</totfact>
</mgrwt>
</event>
<event>
 8    1  0.5815007E-006  0.1307494E+04  0.7818608E-02  0.8530370E-01
         21   -1    0    0  503  502  0.00000000000E+00  0.00000000000E+00  0.18777658151E+04  0.18777658151E+04  0.00000000000E+00 0. -1.
         21   -1    0    0  501  503 -0.00000000000E+00 -0.00000000000E+00 -0.90963617538E+03  0.90963617538E+03  0.00000000000E+00 0. -1.
    9000010    2    1    2  501    0 -0.84080673097E+03  0.12020388317E+03  0.54582995540E+03  0.14134011462E+04  0.98912462689E+03 0.  0.
   -9000010    2    1    2    0  502  0.84080673097E+03 -0.12020388317E+03  0.42229968436E+03  0.13740008443E+04  0.99405048380E+03 0.  0.
        -13    1    3    3    0    0 -0.39421661804E+03  0.44691722489E+03  0.61427139622E+03  0.85584525892E+03  0.10566000000E+00 0.  1.
          4    1    3    3  501    0 -0.44659011293E+03 -0.32671334172E+03 -0.68441440821E+02  0.55755588728E+03  0.00000000000E+00 0.  1.
         13    1    4    4    0    0  0.44897263166E+03 -0.47416060137E+03  0.52279137493E+03  0.83649000756E+03  0.10566000000E+00 0. -1.
         -4    1    4    4    0  502  0.39183409930E+03  0.35395671820E+03 -0.10049169058E+03  0.53751083674E+03  0.00000000000E+00 0. -1.
<mgrwt>
<rscale>  2 0.13065580E+04</rscale>
<asrwt>0</asrwt>
<pdfrwt beam="1">  1       21 0.28888705E+00 0.13074943E+04</pdfrwt>
<pdfrwt beam="2">  1       21 0.13994403E+00 0.13074943E+04</pdfrwt>
<totfact> 0.46710989E+00</totfact>
</mgrwt>
</event>
<event>
 8    1  0.5815007E-006  0.1281710E+04  0.7818608E-02  0.8547888E-01
         21   -1    0    0  503  502  0.00000000000E+00  0.00000000000E+00  0.14076186714E+04  0.14076186714E+04  0.00000000000E+00 0. -1.
         21   -1    0    0  501  503 -0.00000000000E+00 -0.00000000000E+00 -0.11680530915E+04  0.11680530915E+04  0.00000000000E+00 0. -1.
    9000010    2    1    2  501    0  0.67072860035E+03  0.44176677444E+03  0.51557510209E+02  0.12827461571E+04  0.99887175770E+03 0.  0.
   -9000010    2    1    2    0  502 -0.67072860035E+03 -0.44176677444E+03  0.18800806974E+03  0.12929256058E+04  0.99562786701E+03 0.  0.
        -13    1    3    3    0    0  0.23625350465E+03 -0.32123424852E+03  0.68252557517E+02  0.40455603278E+03  0.10566000000E+00 0.  1.
          4    1    3    3  501    0  0.43447509569E+03  0.76300102296E+03 -0.16695047307E+02  0.87819012430E+03  0.00000000000E+00 0.  1.
         13    1    4    4    0    0 -0.74059179142E+02 -0.31709549402E+03  0.50882468615E+03  0.60410006352E+03  0.10566000000E+00 0. -1.
         -4    1    4    4    0  502 -0.59666942120E+03 -0.12467128042E+03 -0.32081661641E+03  0.68882554230E+03  0.00000000000E+00 0. -1.
<mgrwt>
<rscale>  2 0.12810775E+04</rscale>
<asrwt>0</asrwt>
<pdfrwt beam="1">  1       21 0.21655672E+00 0.12817096E+04</pdfrwt>
<pdfrwt beam="2">  1       21 0.17970048E+00 0.12817096E+04</pdfrwt>
<totfact> 0.71471003E+00</totfact>
</mgrwt>
</event>
<event>
 8    1  0.5815007E-006  0.1008318E+04  0.7818608E-02  0.8768050E-01
         21   -1    0    0  503  502  0.00000000000E+00  0.00000000000E+00  0.14520245333E+04  0.14520245333E+04  0.00000000000E+00 0.  1.
         21   -1    0    0  501  503 -0.00000000000E+00 -0.00000000000E+00 -0.69666611395E+03  0.69666611395E+03  0.00000000000E+00 0.  1.
    9000010    2    1    2  501    0  0.23686886027E+02  0.11186004933E+03  0.36146034128E+03  0.10661654752E+04  0.99648457233E+03 0.  0.
   -9000010    2    1    2    0  502 -0.23686886027E+02 -0.11186004933E+03  0.39389807805E+03  0.10825251721E+04  0.10018140112E+04 0.  0.
        -13    1    3    3    0    0 -0.25869431189E+03  0.93823642465E+01 -0.26558770213E+03  0.37087412211E+03  0.10566000000E+00 0.  1.
          4    1    3    3  501    0  0.28238119792E+03  0.10247768509E+03  0.62704804341E+03  0.69529135305E+03  0.00000000000E+00 0.  1.
         13    1    4    4    0    0 -0.34566333212E+03 -0.36474070900E+03 -0.16565700921E+02  0.50278559803E+03  0.10566000000E+00 0. -1.
         -4    1    4    4    0  502  0.32197644609E+03  0.25288065966E+03  0.41046377898E+03  0.57973957405E+03  0.00000000000E+00 0. -1.
<mgrwt>
<rscale>  2 0.10069916E+04</rscale>
<asrwt>0</asrwt>
<pdfrwt beam="1">  1       21 0.22338839E+00 0.10083179E+04</pdfrwt>
<pdfrwt beam="2">  1       21 0.10717940E+00 0.10083179E+04</pdfrwt>
<totfact> 0.31627362E+01</totfact>
</mgrwt>
</event>
<event>
 8    1  0.5815007E-006  0.1222273E+04  0.7818608E-02  0.8599506E-01
         21   -1    0    0  503  502  0.00000000000E+00  0.00000000000E+00  0.86547165792E+03  0.86547165792E+03  0.00000000000E+00 0.  1.
         21   -1    0    0  501  503 -0.00000000000E+00 -0.00000000000E+00 -0.16568194411E+04  0.16568194411E+04  0.00000000000E+00 0.  1.
    9000010    2    1    2  501    0  0.59876110037E+03  0.32083074983E+03 -0.36735031225E+03  0.12762822841E+04  0.10161215436E+04 0.  0.
   -9000010    2    1    2    0  502 -0.59876110037E+03 -0.32083074983E+03 -0.42399747095E+03  0.12460088150E+04  0.95462918785E+03 0.  0.
        -13    1    3    3    0    0  0.44930434330E+03  0.66627517427E+03 -0.89782933718E+02  0.80861485710E+03  0.10566000000E+00 0.  1.
          4    1    3    3  501    0  0.14945675707E+03 -0.34544442444E+03 -0.27756737853E+03  0.46766742696E+03  0.00000000000E+00 0.  1.
         13    1    4    4    0    0 -0.45307979827E+03  0.22823947685E+03 -0.44887769685E+03  0.67739630962E+03  0.10566000000E+00 0. -1.
         -4    1    4    4    0  502 -0.14568130210E+03 -0.54907022669E+03  0.24880225900E+02  0.56861250536E+03  0.00000000000E+00 0. -1.
<mgrwt>
<rscale>  2 0.12094155E+04</rscale>
<asrwt>0</asrwt>
<pdfrwt beam="1">  1       21 0.13314949E+00 0.12222726E+04</pdfrwt>
<pdfrwt beam="2">  1       21 0.25489529E+00 0.12222726E+04</pdfrwt>
<totfact> 0.96513316E+00</totfact>
</mgrwt>
</event>
<event>
 8    1  0.5815007E-006  0.1016232E+04  0.7818608E-02  0.8760058E-01
         21   -1    0    0  503  502  0.00000000000E+00  0.00000000000E+00  0.12371527497E+04  0.12371527497E+04  0.00000000000E+00 0.  1.
         21   -1    0    0  501  503 -0.00000000000E+00 -0.00000000000E+00 -0.83327801609E+03  0.83327801609E+03  0.00000000000E+00 0.  1.
    9000010    2    1    2  501    0 -0.15651207146E+03  0.11823953621E+03  0.17521270382E+03  0.10287906909E+04  0.99460252245E+03 0.  0.
   -9000010    2    1    2    0  502  0.15651207146E+03 -0.11823953621E+03  0.22866202981E+03  0.10416400749E+04  0.99712140954E+03 0.  0.
        -13    1    3    3    0    0 -0.30014001569E+02  0.53526624053E+03 -0.49660217906E+02  0.53840220742E+03  0.10566000000E+00 0.  1.
          4    1    3    3  501    0 -0.12649806989E+03 -0.41702670432E+03  0.22487292172E+03  0.49038848348E+03  0.00000000000E+00 0.  1.
         13    1    4    4    0    0  0.35620383359E+03 -0.84882804487E+02 -0.30137648892E+03  0.47425105250E+03  0.10566000000E+00 0. -1.
         -4    1    4    4    0  502 -0.19969176213E+03 -0.33356731722E+02  0.53003851873E+03  0.56738902241E+03  0.00000000000E+00 0. -1.
<mgrwt>
<rscale>  2 0.10156137E+04</rscale>
<asrwt>0</asrwt>
<pdfrwt beam="1">  1       21 0.19033119E+00 0.10162321E+04</pdfrwt>
<pdfrwt beam="2">  1       21 0.12819662E+00 0.10162321E+04</pdfrwt>
<totfact> 0.34551938E+01</totfact>
</mgrwt>
</event>
<event>
 8    1  0.5815007E-006  0.1005626E+04  0.7818608E-02  0.8776598E-01
         21   -1    0    0  503  502  0.00000000000E+00  0.00000000000E+00  0.11343781331E+04  0.11343781331E+04  0.00000000000E+00 0.  1.
         21   -1    0    0  501  503 -0.00000000000E+00 -0.00000000000E+00 -0.86456479610E+03  0.86456479610E+03  0.00000000000E+00 0.  1.
    9000010    2    1    2  501    0  0.55361092868E+02 -0.89728724504E+02  0.14572657144E+03  0.10161300173E+04  0.10000839384E+04 0.  0.
   -9000010    2    1    2    0  502 -0.55361092868E+02  0.89728724504E+02  0.12408676553E+03  0.98281291189E+03  0.96923041625E+03 0.  0.
        -13    1    3    3    0    0  0.43036129062E+03  0.20918988571E+03 -0.81602025306E+02  0.48541750118E+03  0.10566000000E+00 0.  1.
          4    1    3    3  501    0 -0.37500019775E+03 -0.29891861022E+03  0.22732859674E+03  0.53071251610E+03  0.00000000000E+00 0.  1.
         13    1    4    4    0    0  0.14829267687E+03 -0.40956330454E+03  0.47281005027E+02  0.43814189830E+03  0.10566000000E+00 0. -1.
         -4    1    4    4    0  502 -0.20365376974E+03  0.49929202905E+03  0.76805760501E+02  0.54467101359E+03  0.00000000000E+00 0. -1.
<mgrwt>
<rscale>  2 0.99786730E+03</rscale>
<asrwt>0</asrwt>
<pdfrwt beam="1">  1       21 0.17451971E+00 0.10056262E+04</pdfrwt>
<pdfrwt beam="2">  1       21 0.13300997E+00 0.10056262E+04</pdfrwt>
<totfact> 0.41833846E+01</totfact>
</mgrwt>
</event>
<event>
 8    1  0.5815007E-006  0.1121410E+04  0.7818608E-02  0.8670429E-01
         21   -1    0    0  503  502  0.00000000000E+00  0.00000000000E+00  0.11387664729E+04  0.11387664729E+04  0.00000000000E+00 0. -1.
         21   -1    0    0  501  503 -0.00000000000E+00 -0.00000000000E+00 -0.10941624834E+04  0.10941624834E+04  0.00000000000E+00 0. -1.
    9000010    2    1    2  501    0 -0.15036272838E+03  0.46654898035E+03  0.44544370173E+02  0.11222945337E+04  0.10086049366E+04 0.  0.
   -9000010    2    1    2    0  502  0.15036272838E+03 -0.46654898035E+03  0.59619377952E-01  0.11106344226E+04  0.99661021270E+03 0.  0.
        -13    1    3    3    0    0  0.11419897813E+03 -0.20921257468E+03  0.27211743229E+03  0.36174468362E+03  0.10566000000E+00 0.  1.
          4    1    3    3  501    0 -0.26456170651E+03  0.67576155502E+03 -0.22757306211E+03  0.76054985004E+03  0.00000000000E+00 0.  1.
         13    1    4    4    0    0 -0.52997722832E+02 -0.24742651778E+03 -0.48143520543E+03  0.54388280771E+03  0.10566000000E+00 0. -1.
         -4    1    4    4    0  502  0.20336045121E+03 -0.21912246256E+03  0.48149482481E+03  0.56675161493E+03  0.00000000000E+00 0. -1.
<mgrwt>
<rscale>  2 0.11187065E+04</rscale>
<asrwt>0</asrwt>
<pdfrwt beam="1">  1       21 0.17519484E+00 0.11214102E+04</pdfrwt>
<pdfrwt beam="2">  1       21 0.16833269E+00 0.11214102E+04</pdfrwt>
<totfact> 0.19485702E+01</totfact>
</mgrwt>
</event>
<event>
 8    1  0.5815007E-006  0.1174404E+04  0.7818608E-02  0.8639905E-01
         21   -1    0    0  501  502  0.00000000000E+00  0.00000000000E+00  0.83143444685E+03  0.83143444685E+03  0.00000000000E+00 0. -1.
         21   -1    0    0  502  503 -0.00000000000E+00 -0.00000000000E+00 -0.20554557225E+04  0.20554557225E+04  0.00000000000E+00 0. -1.
   -9000010    2    1    2    0  503 -0.47071436139E+03  0.40539759496E+03 -0.13327967089E+04  0.17763929410E+04  0.99664717600E+03 0.  0.
    9000010    2    1    2  501    0  0.47071436139E+03 -0.40539759496E+03  0.10877543320E+03  0.11104972284E+04  0.91403106045E+03 0.  0.
        -13    1    4    4    0    0  0.32385530713E+03 -0.27699754816E+03 -0.38829001766E+03  0.57652324379E+03  0.10566000000E+00 0.  1.
          4    1    4    4  501    0  0.14685905426E+03 -0.12840004680E+03  0.49706545086E+03  0.53397398464E+03  0.00000000000E+00 0.  1.
         13    1    3    3    0    0 -0.51345860539E+03 -0.20394576979E+03 -0.75518383004E+03  0.93570093768E+03  0.10566000000E+00 0. -1.
         -4    1    3    3    0  503  0.42744243991E+02  0.60934336475E+03 -0.57761287885E+03  0.84069200328E+03  0.00000000000E+00 0. -1.
<mgrwt>
<rscale>  2 0.11566958E+04</rscale>
<asrwt>0</asrwt>
<pdfrwt beam="1">  1       21 0.12791299E+00 0.11744040E+04</pdfrwt>
<pdfrwt beam="2">  1       21 0.31622395E+00 0.11744040E+04</pdfrwt>
<totfact> 0.40026682E+00</totfact>
</mgrwt>
</event>
<event>
 8    1  0.5815007E-006  0.1152777E+04  0.7818608E-02  0.8643816E-01
         21   -1    0    0  503  502  0.00000000000E+00  0.00000000000E+00  0.15212875365E+04  0.15212875365E+04  0.00000000000E+00 0. -1.
         21   -1    0    0  501  503 -0.00000000000E+00 -0.00000000000E+00 -0.13792228928E+04  0.13792228928E+04  0.00000000000E+00 0. -1.
    9000010    2    1    2  501    0  0.14811881219E+03  0.56244878419E+03 -0.80975137591E+03  0.14087552377E+04  0.99529202323E+03 0.  0.
   -9000010    2    1    2    0  502 -0.14811881219E+03 -0.56244878419E+03  0.95181601962E+03  0.14917551917E+04  0.99050088311E+03 0.  0.
        -13    1    3    3    0    0  0.49547074482E+03  0.52373823491E+03 -0.27858650240E+03  0.77291878497E+03  0.10566000000E+00 0.  1.
          4    1    3    3  501    0 -0.34735193263E+03  0.38710549280E+02 -0.53116487351E+03  0.63583645270E+03  0.00000000000E+00 0.  1.
         13    1    4    4    0    0 -0.50969828425E+03 -0.10554639126E+03  0.65864371261E+03  0.83949028166E+03  0.10566000000E+00 0. -1.
         -4    1    4    4    0  502  0.36157947207E+03 -0.45690239293E+03  0.29317230700E+03  0.65226491005E+03  0.00000000000E+00 0. -1.
<mgrwt>
<rscale>  2 0.11517418E+04</rscale>
<asrwt>0</asrwt>
<pdfrwt beam="1">  1       21 0.23404424E+00 0.11527767E+04</pdfrwt>
<pdfrwt beam="2">  1       21 0.21218814E+00 0.11527767E+04</pdfrwt>
<totfact> 0.30073099E+00</totfact>
</mgrwt>
</event>
<event>
 8    1  0.5815007E-006  0.1063659E+04  0.7818608E-02  0.8742629E-01
         21   -1    0    0  503  502  0.00000000000E+00  0.00000000000E+00  0.95259755608E+03  0.95259755608E+03  0.00000000000E+00 0.  1.
         21   -1    0    0  501  503 -0.00000000000E+00 -0.00000000000E+00 -0.10722373493E+04  0.10722373493E+04  0.00000000000E+00 0.  1.
    9000010    2    1    2  501    0 -0.24771872516E+03  0.18153343584E+03  0.14987922955E+02  0.95269030475E+03  0.90170683917E+03 0.  0.
   -9000010    2    1    2    0  502  0.24771872516E+03 -0.18153343584E+03 -0.13462771614E+03  0.10721446006E+04  0.10183567486E+04 0.  0.
        -13    1    3    3    0    0 -0.37409146277E+03 -0.27579871711E+03  0.86834826551E+02  0.47281037758E+03  0.10566000000E+00 0.  1.
          4    1    3    3  501    0  0.12637273762E+03  0.45733215296E+03 -0.71846903595E+02  0.47987992717E+03  0.00000000000E+00 0.  1.
         13    1    4    4    0    0  0.31722601219E+03 -0.32443291638E+03  0.34298203205E+03  0.56879323618E+03  0.10566000000E+00 0. -1.
         -4    1    4    4    0  502 -0.69507287032E+02  0.14289948054E+03 -0.47760974820E+03  0.50335136442E+03  0.00000000000E+00 0. -1.
<mgrwt>
<rscale>  2 0.10347279E+04</rscale>
<asrwt>0</asrwt>
<pdfrwt beam="1">  1       21 0.14655347E+00 0.10636585E+04</pdfrwt>
<pdfrwt beam="2">  1       21 0.16495959E+00 0.10636585E+04</pdfrwt>
<totfact> 0.37215886E+01</totfact>
</mgrwt>
</event>
<event>
 8    1  0.5815007E-006  0.1026032E+04  0.7818608E-02  0.8756859E-01
         21   -1    0    0  503  502  0.00000000000E+00  0.00000000000E+00  0.14748213115E+04  0.14748213115E+04  0.00000000000E+00 0. -1.
         21   -1    0    0  501  503 -0.00000000000E+00 -0.00000000000E+00 -0.70455635664E+03  0.70455635664E+03  0.00000000000E+00 0. -1.
    9000010    2    1    2  501    0 -0.19862349848E+03  0.37144181896E+02  0.25185212565E+03  0.10298149356E+04  0.97788461694E+03 0.  0.
   -9000010    2    1    2    0  502  0.19862349848E+03 -0.37144181896E+02  0.51841282916E+03  0.11495627325E+04  0.10059381840E+04 0.  0.
        -13    1    3    3    0    0 -0.32776219076E+02 -0.76509093514E+02  0.61184655087E+03  0.61748209278E+03  0.10566000000E+00 0.  1.
          4    1    3    3  501    0 -0.16584727941E+03  0.11365327541E+03 -0.35999442522E+03  0.41233284285E+03  0.00000000000E+00 0.  1.
         13    1    4    4    0    0 -0.28361692472E+03  0.16204470996E+03 -0.98899441920E+02  0.34128896670E+03  0.10566000000E+00 0. -1.
         -4    1    4    4    0  502  0.48224042320E+03 -0.19918889185E+03  0.61731227108E+03  0.80827376577E+03  0.00000000000E+00 0. -1.
<mgrwt>
<rscale>  2 0.10190901E+04</rscale>
<asrwt>0</asrwt>
<pdfrwt beam="1">  1       21 0.22689559E+00 0.10260325E+04</pdfrwt>
<pdfrwt beam="2">  1       21 0.10839329E+00 0.10260325E+04</pdfrwt>
<totfact> 0.28772503E+01</totfact>
</mgrwt>
</event>
<event>
 8    1  0.5815007E-006  0.1117629E+04  0.7818608E-02  0.8686299E-01
         21   -1    0    0  503  502  0.00000000000E+00  0.00000000000E+00  0.11216575224E+04  0.11216575224E+04  0.00000000000E+00 0.  1.
         21   -1    0    0  501  503 -0.00000000000E+00 -0.00000000000E+00 -0.10475776244E+04  0.10475776244E+04  0.00000000000E+00 0.  1.
    9000010    2    1    2  501    0 -0.10371301160E+02 -0.30762184646E+03 -0.23698776906E+02  0.10473375153E+04  0.10008074113E+04 0.  0.
   -9000010    2    1    2    0  502  0.10371301160E+02  0.30762184646E+03  0.97778674997E+02  0.11218976315E+04  0.10744090757E+04 0.  0.
        -13    1    3    3    0    0  0.71999172989E+02 -0.66679692063E+03  0.46221027306E+02  0.67226364531E+03  0.10566000000E+00 0.  1.
          4    1    3    3  501    0 -0.82370474149E+02  0.35917507417E+03 -0.69919804213E+02  0.37507386998E+03  0.00000000000E+00 0.  1.
         13    1    4    4    0    0  0.38726135735E+03 -0.47961400918E+01 -0.30098780891E+03  0.49049774121E+03  0.10566000000E+00 0. -1.
         -4    1    4    4    0  502 -0.37689005619E+03  0.31241798656E+03  0.39876648391E+03  0.63139989030E+03  0.00000000000E+00 0. -1.
<mgrwt>
<rscale>  2 0.10995551E+04</rscale>
<asrwt>0</asrwt>
<pdfrwt beam="1">  1       21 0.17256270E+00 0.11176286E+04</pdfrwt>
<pdfrwt beam="2">  1       21 0.16116579E+00 0.11176286E+04</pdfrwt>
<totfact> 0.23604394E+01</totfact>
</mgrwt>
</event>
<event>
 8    1  0.5815007E-006  0.1064141E+04  0.7818608E-02  0.8722055E-01
         21   -1    0    0  501  502  0.00000000000E+00  0.00000000000E+00  0.12179647647E+04  0.12179647647E+04  0.00000000000E+00 0.  1.
         21   -1    0    0  502  503 -0.00000000000E+00 -0.00000000000E+00 -0.90892897752E+03  0.90892897752E+03  0.00000000000E+00 0.  1.
   -9000010    2    1    2    0  503  0.39066572154E+03 -0.14462905277E+02  0.18869097650E+03  0.10807402128E+04  0.98973038817E+03 0.  0.
    9000010    2    1    2  501    0 -0.39066572154E+03  0.14462905277E+02  0.12034481064E+03  0.10461535294E+04  0.96287353898E+03 0.  0.
        -13    1    4    4    0    0 -0.32454419105E+02  0.29740856067E+03  0.40849628980E+03  0.50633424852E+03  0.10566000000E+00 0.  1.
          4    1    4    4  501    0 -0.35821130243E+03 -0.28294565539E+03 -0.28815147916E+03  0.53981928091E+03  0.00000000000E+00 0.  1.
         13    1    3    3    0    0  0.11063644635E+03  0.40067573341E+03 -0.18593382365E+03  0.45536014818E+03  0.10566000000E+00 0. -1.
         -4    1    3    3    0  503  0.28002927518E+03 -0.41513863869E+03  0.37462480015E+03  0.62538006459E+03  0.00000000000E+00 0. -1.
<mgrwt>
<rscale>  2 0.10578520E+04</rscale>
<asrwt>0</asrwt>
<pdfrwt beam="1">  1       21 0.18737920E+00 0.10641406E+04</pdfrwt>
<pdfrwt beam="2">  1       21 0.13983523E+00 0.10641406E+04</pdfrwt>
<totfact> 0.27993018E+01</totfact>
</mgrwt>
</event>
<event>
 8    1  0.5815007E-006  0.1144801E+04  0.7818608E-02  0.8649954E-01
         21   -1    0    0  503  502  0.00000000000E+00  0.00000000000E+00  0.24159666578E+04  0.24159666578E+04  0.00000000000E+00 0. -1.
         21   -1    0    0  501  503 -0.00000000000E+00 -0.00000000000E+00 -0.59625226091E+03  0.59625226091E+03  0.00000000000E+00 0. -1.
    9000010    2    1    2  501    0  0.55619860026E+03  0.71843735614E+02  0.13672822898E+04  0.17812585122E+04  0.99443583098E+03 0.  0.
   -9000010    2    1    2    0  502 -0.55619860026E+03 -0.71843735614E+02  0.45243210708E+03  0.12309604065E+04  0.99802319893E+03 0.  0.
        -13    1    3    3    0    0  0.46351353669E+02  0.48075763066E+03  0.49866938726E+03  0.69422439915E+03  0.10566000000E+00 0.  1.
          4    1    3    3  501    0  0.50984724659E+03 -0.40891389505E+03  0.86861290253E+03  0.10870341130E+04  0.00000000000E+00 0.  1.
         13    1    4    4    0    0 -0.25404512915E+03  0.34633434058E+03 -0.13395535073E+03  0.44992271588E+03  0.10566000000E+00 0. -1.
         -4    1    4    4    0  502 -0.30215347111E+03 -0.41817807619E+03  0.58638745781E+03  0.78103769063E+03  0.00000000000E+00 0. -1.
<mgrwt>
<rscale>  2 0.11440184E+04</rscale>
<asrwt>0</asrwt>
<pdfrwt beam="1">  1       21 0.37168717E+00 0.11448007E+04</pdfrwt>
<pdfrwt beam="2">  1       21 0.91731118E-01 0.11448007E+04</pdfrwt>
<totfact> 0.40341930E+00</totfact>
</mgrwt>
</event>
<event>
 8    1  0.5815007E-006  0.1038881E+04  0.7818608E-02  0.8742234E-01
         21   -1    0    0  501  502  0.00000000000E+00  0.00000000000E+00  0.80961245683E+03  0.80961245683E+03  0.00000000000E+00 0. -1.
         21   -1    0    0  502  503 -0.00000000000E+00 -0.00000000000E+00 -0.13537523748E+04  0.13537523748E+04  0.00000000000E+00 0. -1.
   -9000010    2    1    2    0  503  0.23255014119E+03 -0.11090031574E+03 -0.85233213889E+02  0.10276403585E+04  0.99116172115E+03 0.  0.
    9000010    2    1    2  501    0 -0.23255014119E+03  0.11090031574E+03 -0.45890670409E+03  0.11357244731E+04  0.10064274776E+04 0.  0.
        -13    1    4    4    0    0  0.96210559279E+02 -0.28068194682E+03 -0.54182819449E+03  0.61775126912E+03  0.10566000000E+00 0.  1.
          4    1    4    4  501    0 -0.32876070046E+03  0.39158226256E+03  0.82921490399E+02  0.51797320403E+03  0.00000000000E+00 0.  1.
         13    1    3    3    0    0 -0.34475415045E+03  0.12948795208E+03  0.88197090558E+02  0.37868363040E+03  0.10566000000E+00 0. -1.
         -4    1    3    3    0  503  0.57730429164E+03 -0.24038826782E+03 -0.17343030445E+03  0.64895672810E+03  0.00000000000E+00 0. -1.
<mgrwt>
<rscale>  2 0.10351661E+04</rscale>
<asrwt>0</asrwt>
<pdfrwt beam="1">  1       21 0.12455576E+00 0.10388815E+04</pdfrwt>
<pdfrwt beam="2">  1       21 0.20826959E+00 0.10388815E+04</pdfrwt>
<totfact> 0.27028220E+01</totfact>
</mgrwt>
</event>
<event>
 8    1  0.5815007E-006  0.1274478E+04  0.7818608E-02  0.8560632E-01
         21   -1    0    0  503  502  0.00000000000E+00  0.00000000000E+00  0.15416313654E+04  0.15416313654E+04  0.00000000000E+00 0. -1.
         21   -1    0    0  501  503 -0.00000000000E+00 -0.00000000000E+00 -0.10396159568E+04  0.10396159568E+04  0.00000000000E+00 0. -1.
    9000010    2    1    2  501    0 -0.73842217221E+03  0.30741323326E+03  0.62007176044E+02  0.12759851737E+04  0.99223136069E+03 0.  0.
   -9000010    2    1    2    0  502  0.73842217221E+03 -0.30741323326E+03  0.44000823253E+03  0.13052621485E+04  0.93291576852E+03 0.  0.
        -13    1    3    3    0    0 -0.35552587267E+02  0.24533526858E+03 -0.37241023437E+03  0.44737319354E+03  0.10566000000E+00 0.  1.
          4    1    3    3  501    0 -0.70286958494E+03  0.62077964681E+02  0.43441741041E+03  0.82861198013E+03  0.00000000000E+00 0.  1.
         13    1    4    4    0    0  0.87214102694E+03 -0.11183074120E+03  0.55717270141E+03  0.10409502946E+04  0.10566000000E+00 0. -1.
         -4    1    4    4    0  502 -0.13371885473E+03 -0.19558249205E+03 -0.11716446888E+03  0.26431185383E+03  0.00000000000E+00 0. -1.
<mgrwt>
<rscale>  2 0.12629174E+04</rscale>
<asrwt>0</asrwt>
<pdfrwt beam="1">  1       21 0.23717406E+00 0.12744776E+04</pdfrwt>
<pdfrwt beam="2">  1       21 0.15994092E+00 0.12744776E+04</pdfrwt>
<totfact> 0.73570408E+00</totfact>
</mgrwt>
</event>
<event>
 8    1  0.5815007E-006  0.1000682E+04  0.7818608E-02  0.8779613E-01
         21   -1    0    0  503  502  0.00000000000E+00  0.00000000000E+00  0.69922260886E+03  0.69922260886E+03  0.00000000000E+00 0.  1.
         21   -1    0    0  501  503 -0.00000000000E+00 -0.00000000000E+00 -0.13986782173E+04  0.13986782173E+04  0.00000000000E+00 0.  1.
    9000010    2    1    2  501    0 -0.12974437743E+03 -0.15507209770E+03 -0.36443055630E+03  0.10426258008E+04  0.95570809937E+03 0.  0.
   -9000010    2    1    2    0  502  0.12974437743E+03  0.15507209770E+03 -0.33502505208E+03  0.10552750253E+04  0.98004215958E+03 0.  0.
        -13    1    3    3    0    0  0.27843021175E+03  0.26964459802E+03 -0.15510271286E+03  0.41747868779E+03  0.10566000000E+00 0.  1.
          4    1    3    3  501    0 -0.40817458919E+03 -0.42471669572E+03 -0.20932784345E+03  0.62514711303E+03  0.00000000000E+00 0.  1.
         13    1    4    4    0    0  0.50099003775E+03  0.30605240168E+03 -0.11554309304E+03  0.59833879032E+03  0.10566000000E+00 0. -1.
         -4    1    4    4    0  502 -0.37124566031E+03 -0.15098030398E+03 -0.21948195905E+03  0.45693623498E+03  0.00000000000E+00 0. -1.
<mgrwt>
<rscale>  2 0.99467271E+03</rscale>
<asrwt>0</asrwt>
<pdfrwt beam="1">  1       21 0.10757271E+00 0.10006816E+04</pdfrwt>
<pdfrwt beam="2">  1       21 0.21518126E+00 0.10006816E+04</pdfrwt>
<totfact> 0.36177845E+01</totfact>
</mgrwt>
</event>
<event>
 8    1  0.5815007E-006  0.1407165E+04  0.7818608E-02  0.8466213E-01
         21   -1    0    0  501  502  0.00000000000E+00  0.00000000000E+00  0.12571182550E+04  0.12571182550E+04  0.00000000000E+00 0.  1.
         21   -1    0    0  502  503 -0.00000000000E+00 -0.00000000000E+00 -0.19959748008E+04  0.19959748008E+04  0.00000000000E+00 0.  1.
   -9000010    2    1    2    0  503  0.70048089406E+03 -0.70008746935E+03 -0.11231125924E+04  0.17944063545E+04  0.98879538930E+03 0.  0.
    9000010    2    1    2  501    0 -0.70048089406E+03  0.70008746935E+03  0.38425604665E+03  0.14586867013E+04  0.99965905958E+03 0.  0.
        -13    1    4    4    0    0 -0.42363243922E+02 -0.24757644096E+03  0.37665752366E+02  0.25398318570E+03  0.10566000000E+00 0.  1.
          4    1    4    4  501    0 -0.65811765014E+03  0.94766391031E+03  0.34659029429E+03  0.12047035156E+04  0.00000000000E+00 0.  1.
         13    1    3    3    0    0  0.62847798071E+03 -0.88429016496E+03 -0.61025335396E+03  0.12447340420E+04  0.10566000000E+00 0. -1.
         -4    1    3    3    0  503  0.72002913354E+02  0.18420269561E+03 -0.51285923849E+03  0.54967231247E+03  0.00000000000E+00 0. -1.
<mgrwt>
<rscale>  2 0.14052372E+04</rscale>
<asrwt>0</asrwt>
<pdfrwt beam="1">  1       21 0.19340281E+00 0.14071653E+04</pdfrwt>
<pdfrwt beam="2">  1       21 0.30707305E+00 0.14071653E+04</pdfrwt>
<totfact> 0.11898858E+00</totfact>
</mgrwt>
</event>
<event>
 8    1  0.5815007E-006  0.1095729E+04  0.7818608E-02  0.8693643E-01
         21   -1    0    0  503  502  0.00000000000E+00  0.00000000000E+00  0.93005470825E+03  0.93005470825E+03  0.00000000000E+00 0. -1.
         21   -1    0    0  501  503 -0.00000000000E+00 -0.00000000000E+00 -0.13486307755E+04  0.13486307755E+04  0.00000000000E+00 0. -1.
    9000010    2    1    2  501    0  0.26429196012E+03  0.26516853293E+03  0.70919681455E+02  0.10785904859E+04  0.10090407544E+04 0.  0.
   -9000010    2    1    2    0  502 -0.26429196012E+03 -0.26516853293E+03 -0.48949574870E+03  0.12000949979E+04  0.10297850868E+04 0.  0.
        -13    1    3    3    0    0  0.27218251871E+03  0.61318032596E+03  0.21112942685E+03  0.70331293297E+03  0.10566000000E+00 0.  1.
          4    1    3    3  501    0 -0.78905585901E+01 -0.34801179303E+03 -0.14020974539E+03  0.37527755290E+03  0.00000000000E+00 0.  1.
         13    1    4    4    0    0 -0.55741263516E+03 -0.47042597408E+03 -0.39726317840E+03  0.83055853918E+03  0.10566000000E+00 0. -1.
         -4    1    4    4    0  502  0.29312067504E+03  0.20525744115E+03 -0.92232570293E+02  0.36953645870E+03  0.00000000000E+00 0. -1.
<mgrwt>
<rscale>  2 0.10908280E+04</rscale>
<asrwt>0</asrwt>
<pdfrwt beam="1">  1       21 0.14308534E+00 0.10957289E+04</pdfrwt>
<pdfrwt beam="2">  1       21 0.20748166E+00 0.10957289E+04</pdfrwt>
<totfact> 0.18043509E+01</totfact>
</mgrwt>
</event>
<event>
 8    1  0.5815007E-006  0.1147707E+04  0.7818608E-02  0.8650136E-01
         21   -1    0    0  501  502  0.00000000000E+00  0.00000000000E+00  0.15127747649E+04  0.15127747649E+04  0.00000000000E+00 0.  1.
         21   -1    0    0  502  503 -0.00000000000E+00 -0.00000000000E+00 -0.87382062779E+03  0.87382062779E+03  0.00000000000E+00 0.  1.
   -9000010    2    1    2    0  503 -0.46804696154E+03 -0.24465863637E+03  0.47728327066E+03  0.12429927215E+04  0.10189729038E+04 0.  0.
    9000010    2    1    2  501    0  0.46804696154E+03  0.24465863637E+03  0.16167086643E+03  0.11436026711E+04  0.10013809434E+04 0.  0.
        -13    1    4    4    0    0  0.43861637841E+03 -0.28154969572E+03 -0.13554533756E+03  0.53854164952E+03  0.10566000000E+00 0.  1.
          4    1    4    4  501    0  0.29430583128E+02  0.52620833209E+03  0.29721620398E+03  0.60506102163E+03  0.00000000000E+00 0.  1.
         13    1    3    3    0    0 -0.60550988467E+03  0.19745334021E+03  0.97801567709E+02  0.64435642296E+03  0.10566000000E+00 0. -1.
         -4    1    3    3    0  503  0.13746292313E+03 -0.44211197658E+03  0.37948170295E+03  0.59863629856E+03  0.00000000000E+00 0. -1.
<mgrwt>
<rscale>  2 0.11437896E+04</rscale>
<asrwt>0</asrwt>
<pdfrwt beam="1">  1       21 0.23273458E+00 0.11477071E+04</pdfrwt>
<pdfrwt beam="2">  1       21 0.13443394E+00 0.11477071E+04</pdfrwt>
<totfact> 0.13850659E+01</totfact>
</mgrwt>
</event>
<event>
 8    1  0.5815007E-006  0.1058556E+04  0.7818608E-02  0.8726181E-01
         21   -1    0    0  501  502  0.00000000000E+00  0.00000000000E+00  0.13766842108E+04  0.13766842108E+04  0.00000000000E+00 0.  1.
         21   -1    0    0  502  503 -0.00000000000E+00 -0.00000000000E+00 -0.80489602182E+03  0.80489602182E+03  0.00000000000E+00 0.  1.
   -9000010    2    1    2    0  503 -0.22921512537E+03 -0.17895227680E+03  0.18471319228E+03  0.10745506840E+04  0.10178294150E+04 0.  0.
    9000010    2    1    2  501    0  0.22921512537E+03  0.17895227680E+03  0.38707499670E+03  0.11070295486E+04  0.99555204655E+03 0.  0.
        -13    1    4    4    0    0  0.39264777690E+03 -0.24942022228E+03  0.44640435018E+03  0.64471666568E+03  0.10566000000E+00 0.  1.
          4    1    4    4  501    0 -0.16343265153E+03  0.42837249908E+03 -0.59329353480E+02  0.46231288295E+03  0.00000000000E+00 0.  1.
         13    1    3    3    0    0  0.99473042728E+02 -0.11097984685E+03  0.55507045385E+03  0.57473005189E+03  0.10566000000E+00 0. -1.
         -4    1    3    3    0  503 -0.32868816809E+03 -0.67972429955E+02 -0.37035726158E+03  0.49982063211E+03  0.00000000000E+00 0. -1.
<mgrwt>
<rscale>  2 0.10531641E+04</rscale>
<asrwt>0</asrwt>
<pdfrwt beam="1">  1       21 0.21179757E+00 0.10585557E+04</pdfrwt>
<pdfrwt beam="2">  1       21 0.12383016E+00 0.10585557E+04</pdfrwt>
<totfact> 0.25709220E+01</totfact>
</mgrwt>
</event>
<event>
 8    1  0.5815007E-006  0.1394599E+04  0.7818608E-02  0.8474208E-01
         21   -1    0    0  503  502  0.00000000000E+00  0.00000000000E+00  0.29244173137E+04  0.29244173137E+04  0.00000000000E+00 0. -1.
         21   -1    0    0  501  503 -0.00000000000E+00 -0.00000000000E+00 -0.85721398543E+03  0.85721398543E+03  0.00000000000E+00 0. -1.
    9000010    2    1    2  501    0 -0.23335349577E+03  0.95402537689E+03  0.13141548606E+03  0.14007768897E+04  0.99009473836E+03 0.  0.
   -9000010    2    1    2    0  502  0.23335349577E+03 -0.95402537689E+03  0.19357878422E+04  0.23808544095E+04  0.97804645867E+03 0.  0.
        -13    1    3    3    0    0 -0.57174145040E+02 -0.86708419275E+02 -0.25609324986E+03  0.27635302897E+03  0.10566000000E+00 0.  1.
          4    1    3    3  501    0 -0.17617935074E+03  0.10407337962E+04  0.38750873592E+03  0.11244238607E+04  0.00000000000E+00 0.  1.
         13    1    4    4    0    0 -0.30507458538E+03 -0.25161690776E+03  0.22571622677E+03  0.45533437945E+03  0.10566000000E+00 0. -1.
         -4    1    4    4    0  502  0.53842808115E+03 -0.70240846913E+03  0.17100716155E+04  0.19255200301E+04  0.00000000000E+00 0. -1.
<mgrwt>
<rscale>  2 0.13924620E+04</rscale>
<asrwt>0</asrwt>
<pdfrwt beam="1">  1       21 0.44991035E+00 0.13945988E+04</pdfrwt>
<pdfrwt beam="2">  1       21 0.13187908E+00 0.13945988E+04</pdfrwt>
<totfact> 0.40974128E-01</totfact>
</mgrwt>
</event>
<event>
 8    1  0.5815007E-006  0.1033981E+04  0.7818608E-02  0.8745829E-01
         21   -1    0    0  501  502  0.00000000000E+00  0.00000000000E+00  0.16602908856E+04  0.16602908856E+04  0.00000000000E+00 0. -1.
         21   -1    0    0  502  503 -0.00000000000E+00 -0.00000000000E+00 -0.63701940797E+03  0.63701940797E+03  0.00000000000E+00 0. -1.
   -9000010    2    1    2    0  503 -0.11012125757E+03 -0.56564703614E+02  0.51551345743E+03  0.11553662832E+04  0.10265431635E+04 0.  0.
    9000010    2    1    2  501    0  0.11012125757E+03  0.56564703614E+02  0.50775802020E+03  0.11419440104E+04  0.10153283502E+04 0.  0.
        -13    1    4    4    0    0  0.52127793560E+03 -0.12077704724E+03  0.11718960520E+03  0.54776929087E+03  0.10566000000E+00 0.  1.
          4    1    4    4  501    0 -0.41115667803E+03  0.17734175086E+03  0.39056841500E+03  0.59417471949E+03  0.00000000000E+00 0.  1.
         13    1    3    3    0    0  0.10646537875E+03  0.44603542622E+03  0.36959140954E+03  0.58896544847E+03  0.10566000000E+00 0. -1.
         -4    1    3    3    0  503 -0.21658663633E+03 -0.50260012984E+03  0.14592204789E+03  0.56640083475E+03  0.00000000000E+00 0. -1.
<mgrwt>
<rscale>  2 0.10311866E+04</rscale>
<asrwt>0</asrwt>
<pdfrwt beam="1">  1       21 0.25542937E+00 0.10339812E+04</pdfrwt>
<pdfrwt beam="2">  1       21 0.98002986E-01 0.10339812E+04</pdfrwt>
<totfact> 0.23150352E+01</totfact>
</mgrwt>
</event>
<event>
 8    1  0.5815007E-006  0.1250274E+04  0.7818608E-02  0.8574275E-01
         21   -1    0    0  501  502  0.00000000000E+00  0.00000000000E+00  0.19599828686E+04  0.19599828686E+04  0.00000000000E+00 0.  1.
         21   -1    0    0  502  503 -0.00000000000E+00 -0.00000000000E+00 -0.12840822690E+04  0.12840822690E+04  0.00000000000E+00 0.  1.
   -9000010    2    1    2    0  503  0.17689623748E+03  0.70385210018E+03 -0.67486363356E+03  0.14207836774E+04  0.10180792092E+04 0.  0.
    9000010    2    1    2  501    0 -0.17689623748E+03 -0.70385210018E+03  0.13507642331E+04  0.18232814603E+04  0.98645385716E+03 0.  0.
        -13    1    4    4    0    0 -0.94192083179E+02 -0.46855977217E+03  0.29672440371E+02  0.47885370784E+03  0.10566000000E+00 0.  1.
          4    1    4    4  501    0 -0.82704154303E+02 -0.23529232801E+03  0.13210917928E+04  0.13444277525E+04  0.00000000000E+00 0.  1.
         13    1    3    3    0    0 -0.91301825791E+01  0.76351958647E+03 -0.86109317025E+03  0.11508809574E+04  0.10566000000E+00 0. -1.
         -4    1    3    3    0  503  0.18602642006E+03 -0.59667486294E+02  0.18622953670E+03  0.26990271992E+03  0.00000000000E+00 0. -1.
<mgrwt>
<rscale>  2 0.12438207E+04</rscale>
<asrwt>0</asrwt>
<pdfrwt beam="1">  1       21 0.30153582E+00 0.12502741E+04</pdfrwt>
<pdfrwt beam="2">  1       21 0.19755112E+00 0.12502741E+04</pdfrwt>
<totfact> 0.12468971E+00</totfact>
</mgrwt>
</event>
<event>
 8    1  0.5815007E-006  0.1242416E+04  0.7818608E-02  0.8581210E-01
         21   -1    0    0  501  502  0.00000000000E+00  0.00000000000E+00  0.14274016812E+04  0.14274016812E+04  0.00000000000E+00 0. -1.
         21   -1    0    0  502  503 -0.00000000000E+00 -0.00000000000E+00 -0.11469820903E+04  0.11469820903E+04  0.00000000000E+00 0. -1.
   -9000010    2    1    2    0  503  0.62435177360E+03  0.34413975246E+03 -0.22908077565E+03  0.12315552006E+04  0.97775400987E+03 0.  0.
    9000010    2    1    2  501    0 -0.62435177360E+03 -0.34413975246E+03  0.50950036655E+03  0.13428285709E+04  0.10175218134E+04 0.  0.
        -13    1    4    4    0    0 -0.57804991991E+03 -0.16892187994E+03 -0.18108174943E+03  0.62886160844E+03  0.10566000000E+00 0.  1.
          4    1    4    4  501    0 -0.46301853694E+02 -0.17521787252E+03  0.69058211598E+03  0.71396696241E+03  0.00000000000E+00 0.  1.
         13    1    3    3    0    0  0.74046456633E+03  0.14208452237E+03  0.16677376584E+03  0.77219769854E+03  0.10566000000E+00 0. -1.
         -4    1    3    3    0  503 -0.11611279273E+03  0.20205523009E+03 -0.39585454149E+03  0.45935750202E+03  0.00000000000E+00 0. -1.
<mgrwt>
<rscale>  2 0.12342474E+04</rscale>
<asrwt>0</asrwt>
<pdfrwt beam="1">  1       21 0.21960026E+00 0.12424162E+04</pdfrwt>
<pdfrwt beam="2">  1       21 0.17645878E+00 0.12424162E+04</pdfrwt>
<totfact> 0.72627963E+00</totfact>
</mgrwt>
</event>
<event>
 8    1  0.5815007E-006  0.1205149E+04  0.7818608E-02  0.8634531E-01
         21   -1    0    0  503  502  0.00000000000E+00  0.00000000000E+00  0.10822919141E+04  0.10822919141E+04  0.00000000000E+00 0.  1.
         21   -1    0    0  501  503 -0.00000000000E+00 -0.00000000000E+00 -0.12682433348E+04  0.12682433348E+04  0.00000000000E+00 0.  1.
    9000010    2    1    2  501    0  0.11592492693E+03  0.34454459857E+03 -0.41032194529E+03  0.11246780324E+04  0.98203208130E+03 0.  0.
   -9000010    2    1    2    0  502 -0.11592492693E+03 -0.34454459857E+03  0.22437052465E+03  0.12258572165E+04  0.11490144532E+04 0.  0.
        -13    1    3    3    0    0  0.54338233289E+03  0.20287201391E+03 -0.32976000707E+03  0.66720543099E+03  0.10566000000E+00 0.  1.
          4    1    3    3  501    0 -0.42745740596E+03  0.14167258466E+03 -0.80561938221E+02  0.45747260141E+03  0.00000000000E+00 0.  1.
         13    1    4    4    0    0  0.42360750970E+03 -0.44599443619E+03 -0.40252581375E+02  0.61642083098E+03  0.10566000000E+00 0. -1.
         -4    1    4    4    0  502 -0.53953243663E+03  0.10144983762E+03  0.26462310602E+03  0.60943638550E+03  0.00000000000E+00 0. -1.
<mgrwt>
<rscale>  2 0.11635456E+04</rscale>
<asrwt>0</asrwt>
<pdfrwt beam="1">  1       21 0.16650645E+00 0.12051489E+04</pdfrwt>
<pdfrwt beam="2">  1       21 0.19511436E+00 0.12051489E+04</pdfrwt>
<totfact> 0.13700719E+01</totfact>
</mgrwt>
</event>
<event>
 8    1  0.5815007E-006  0.1149367E+04  0.7818608E-02  0.8648056E-01
         21   -1    0    0  503  502  0.00000000000E+00  0.00000000000E+00  0.21795427116E+04  0.21795427116E+04  0.00000000000E+00 0. -1.
         21   -1    0    0  501  503 -0.00000000000E+00 -0.00000000000E+00 -0.74594514923E+03  0.74594514923E+03  0.00000000000E+00 0. -1.
    9000010    2    1    2  501    0  0.47406445251E+02 -0.55134494753E+03  0.66577321501E+02  0.11394896372E+04  0.99386894077E+03 0.  0.
   -9000010    2    1    2    0  502 -0.47406445251E+02  0.55134494753E+03  0.13670202408E+04  0.17859982235E+04  0.10073811063E+04 0.  0.
        -13    1    3    3    0    0 -0.98608440464E+02  0.27188999338E+03 -0.55632826786E+02  0.29452133303E+03  0.10566000000E+00 0.  1.
          4    1    3    3  501    0  0.14601488571E+03 -0.82323494091E+03  0.12221014829E+03  0.84496830422E+03  0.00000000000E+00 0.  1.
         13    1    4    4    0    0 -0.12414236443E+03 -0.19165726565E+03  0.84346778057E+03  0.87383164405E+03  0.10566000000E+00 0. -1.
         -4    1    4    4    0  502  0.76735919178E+02  0.74300221318E+03  0.52355246026E+03  0.91216657949E+03  0.00000000000E+00 0. -1.
<mgrwt>
<rscale>  2 0.11463998E+04</rscale>
<asrwt>0</asrwt>
<pdfrwt beam="1">  1       21 0.33531426E+00 0.11493674E+04</pdfrwt>
<pdfrwt beam="2">  1       21 0.11476079E+00 0.11493674E+04</pdfrwt>
<totfact> 0.40093438E+00</totfact>
</mgrwt>
</event>
<event>
 8    1  0.5815007E-006  0.1323834E+04  0.7818608E-02  0.8533711E-01
         21   -1    0    0  501  502  0.00000000000E+00  0.00000000000E+00  0.12346830861E+04  0.12346830861E+04  0.00000000000E+00 0. -1.
         21   -1    0    0  502  503 -0.00000000000E+00 -0.00000000000E+00 -0.13291882533E+04  0.13291882533E+04  0.00000000000E+00 0. -1.
   -9000010    2    1    2    0  503  0.59157024973E+03 -0.42687942272E+03 -0.81187706526E+02  0.12399699942E+04  0.99937617588E+03 0.  0.
    9000010    2    1    2  501    0 -0.59157024973E+03  0.42687942272E+03 -0.13317460686E+02  0.13239013451E+04  0.11046972504E+04 0.  0.
        -13    1    4    4    0    0 -0.66223113876E+03  0.73958285618E+03  0.61693376963E+02  0.99465519967E+03  0.10566000000E+00 0.  1.
          4    1    4    4  501    0  0.70660889033E+02 -0.31270343346E+03 -0.75010837648E+02  0.32924614546E+03  0.00000000000E+00 0.  1.
         13    1    3    3    0    0 -0.53158404712E+02  0.16989941089E+03 -0.28692840059E+03  0.33766780131E+03  0.10566000000E+00 0. -1.
         -4    1    3    3    0  503  0.64472865444E+03 -0.59677883361E+03  0.20574069406E+03  0.90230219289E+03  0.00000000000E+00 0. -1.
<mgrwt>
<rscale>  2 0.13016517E+04</rscale>
<asrwt>0</asrwt>
<pdfrwt beam="1">  1       21 0.18995124E+00 0.13238344E+04</pdfrwt>
<pdfrwt beam="2">  1       21 0.20449050E+00 0.13238344E+04</pdfrwt>
<totfact> 0.72488706E+00</totfact>
</mgrwt>
</event>
<event>
 8    1  0.5815007E-006  0.1040623E+04  0.7818608E-02  0.8760168E-01
         21   -1    0    0  503  502  0.00000000000E+00  0.00000000000E+00  0.10627655139E+04  0.10627655139E+04  0.00000000000E+00 0.  1.
         21   -1    0    0  501  503 -0.00000000000E+00 -0.00000000000E+00 -0.92969025881E+03  0.92969025881E+03  0.00000000000E+00 0.  1.
    9000010    2    1    2  501    0  0.30233713457E+03 -0.19757112822E+02  0.12392044712E+03  0.95179224479E+03  0.89373044794E+03 0.  0.
   -9000010    2    1    2    0  502 -0.30233713457E+03  0.19757112822E+02  0.91548079206E+01  0.10406635279E+04  0.99553939214E+03 0.  0.
        -13    1    3    3    0    0  0.59959024236E+03 -0.72418183272E+02  0.20742352013E+03  0.63857449046E+03  0.10566000000E+00 0.  1.
          4    1    3    3  501    0 -0.29725310778E+03  0.52661070450E+02 -0.83503073006E+02  0.31321775433E+03  0.00000000000E+00 0.  1.
         13    1    4    4    0    0  0.55801072309E+02  0.46549726914E+03  0.37109679004E+01  0.46884459013E+03  0.10566000000E+00 0. -1.
         -4    1    4    4    0  502 -0.35813820688E+03 -0.44574015631E+03  0.54438400202E+01  0.57181893775E+03  0.00000000000E+00 0. -1.
<mgrwt>
<rscale>  2 0.10154945E+04</rscale>
<asrwt>0</asrwt>
<pdfrwt beam="1">  1       21 0.16350239E+00 0.10406233E+04</pdfrwt>
<pdfrwt beam="2">  1       21 0.14302927E+00 0.10406233E+04</pdfrwt>
<totfact> 0.41428130E+01</totfact>
</mgrwt>
</event>
<event>
 8    1  0.5815007E-006  0.1151463E+04  0.7818608E-02  0.8646901E-01
         21   -1    0    0  501  502  0.00000000000E+00  0.00000000000E+00  0.10897914841E+04  0.10897914841E+04  0.00000000000E+00 0.  1.
         21   -1    0    0  502  503 -0.00000000000E+00 -0.00000000000E+00 -0.12169546524E+04  0.12169546524E+04  0.00000000000E+00 0.  1.
   -9000010    2    1    2    0  503 -0.38104192624E+03  0.38505880624E+03 -0.19402775566E+03  0.11676959242E+04  0.10160727177E+04 0.  0.
    9000010    2    1    2  501    0  0.38104192624E+03 -0.38505880624E+03  0.66864587374E+02  0.11390502124E+04  0.99975060862E+03 0.  0.
        -13    1    4    4    0    0  0.41491260930E+03  0.17357793529E+03  0.29153028640E+03  0.53597732417E+03  0.10566000000E+00 0.  1.
          4    1    4    4  501    0 -0.33870683054E+02 -0.55863674153E+03 -0.22466569903E+03  0.60307288820E+03  0.00000000000E+00 0.  1.
         13    1    3    3    0    0 -0.53323143028E+03  0.65304299349E+03 -0.13270105378E+03  0.85346967751E+03  0.10566000000E+00 0. -1.
         -4    1    3    3    0  503  0.15218950404E+03 -0.26798418725E+03 -0.61326701881E+02  0.31422624671E+03  0.00000000000E+00 0. -1.
<mgrwt>
<rscale>  2 0.11478518E+04</rscale>
<asrwt>0</asrwt>
<pdfrwt beam="1">  1       21 0.16766023E+00 0.11514630E+04</pdfrwt>
<pdfrwt beam="2">  1       21 0.18722379E+00 0.11514630E+04</pdfrwt>
<totfact> 0.15652378E+01</totfact>
</mgrwt>
</event>
<event>
 8    1  0.5815007E-006  0.1099678E+04  0.7818608E-02  0.8687383E-01
         21   -1    0    0  503  502  0.00000000000E+00  0.00000000000E+00  0.57061961730E+03  0.57061961730E+03  0.00000000000E+00 0. -1.
         21   -1    0    0  501  503 -0.00000000000E+00 -0.00000000000E+00 -0.26656818392E+04  0.26656818392E+04  0.00000000000E+00 0. -1.
    9000010    2    1    2  501    0 -0.23266302225E+03 -0.37604493774E+03 -0.17895433228E+04  0.21004184751E+04  0.10068518208E+04 0.  0.
   -9000010    2    1    2    0  502  0.23266302225E+03  0.37604493774E+03 -0.30551889909E+03  0.11358829814E+04  0.10006730099E+04 0.  0.
        -13    1    3    3    0    0  0.19856502522E+03 -0.10011412548E+03  0.16721300218E+02  0.22300340895E+03  0.10566000000E+00 0.  1.
          4    1    3    3  501    0 -0.43122804746E+03 -0.27593081226E+03 -0.18062646230E+04  0.18774150661E+04  0.00000000000E+00 0.  1.
         13    1    4    4    0    0  0.38179456348E+03  0.27312776536E+03  0.26376463157E+03  0.53845859353E+03  0.10566000000E+00 0. -1.
         -4    1    4    4    0  502 -0.14913154123E+03  0.10291717238E+03 -0.56928353066E+03  0.59742438789E+03  0.00000000000E+00 0. -1.
<mgrwt>
<rscale>  2 0.10982620E+04</rscale>
<asrwt>0</asrwt>
<pdfrwt beam="1">  1       21 0.87787632E-01 0.10996783E+04</pdfrwt>
<pdfrwt beam="2">  1       21 0.41010490E+00 0.10996783E+04</pdfrwt>
<totfact> 0.24602085E+00</totfact>
</mgrwt>
</event>
<event>
 8    1  0.5815007E-006  0.1033450E+04  0.7818608E-02  0.8749095E-01
         21   -1    0    0  501  502  0.00000000000E+00  0.00000000000E+00  0.13323224512E+04  0.13323224512E+04  0.00000000000E+00 0. -1.
         21   -1    0    0  502  503 -0.00000000000E+00 -0.00000000000E+00 -0.80317630943E+03  0.80317630943E+03  0.00000000000E+00 0. -1.
   -9000010    2    1    2    0  503  0.33219576028E+03 -0.81950424096E+02  0.10118378531E+03  0.10383919538E+04  0.97516654786E+03 0.  0.
    9000010    2    1    2  501    0 -0.33219576028E+03  0.81950424096E+02  0.42796235644E+03  0.10971068068E+04  0.95048496671E+03 0.  0.
        -13    1    4    4    0    0 -0.48461816405E+03  0.41218239299E+03  0.34629154749E+03  0.72433896557E+03  0.10566000000E+00 0.  1.
          4    1    4    4  501    0  0.15242240378E+03 -0.33023196889E+03  0.81670808959E+02  0.37276784127E+03  0.00000000000E+00 0.  1.
         13    1    3    3    0    0  0.62205349877E+03  0.17267110237E+03  0.31523557349E+02  0.64634326078E+03  0.10566000000E+00 0. -1.
         -4    1    3    3    0  503 -0.28985773849E+03 -0.25462152646E+03  0.69660227958E+02  0.39204869297E+03  0.00000000000E+00 0. -1.
<mgrwt>
<rscale>  2 0.10275865E+04</rscale>
<asrwt>0</asrwt>
<pdfrwt beam="1">  1       21 0.20497268E+00 0.10334504E+04</pdfrwt>
<pdfrwt beam="2">  1       21 0.12356559E+00 0.10334504E+04</pdfrwt>
<totfact> 0.29348547E+01</totfact>
</mgrwt>
</event>
<event>
 8    1  0.5815007E-006  0.1369224E+04  0.7818608E-02  0.8489469E-01
         21   -1    0    0  501  502  0.00000000000E+00  0.00000000000E+00  0.22554211929E+04  0.22554211929E+04  0.00000000000E+00 0. -1.
         21   -1    0    0  502  503 -0.00000000000E+00 -0.00000000000E+00 -0.82941308482E+03  0.82941308482E+03  0.00000000000E+00 0. -1.
   -9000010    2    1    2    0  503  0.92661658319E+03 -0.67105273244E+02  0.70374917991E+03  0.15367925332E+04  0.10016720880E+04 0.  0.
    9000010    2    1    2  501    0 -0.92661658319E+03  0.67105273244E+02  0.72225892816E+03  0.15480417445E+04  0.10058100584E+04 0.  0.
        -13    1    4    4    0    0 -0.39282619917E+03  0.10759661812E+03  0.89682070303E+03  0.98497555276E+03  0.10566000000E+00 0.  1.
          4    1    4    4  501    0 -0.53379038402E+03 -0.40491344878E+02 -0.17456177487E+03  0.56306619178E+03  0.00000000000E+00 0.  1.
         13    1    3    3    0    0  0.10351520117E+04 -0.55343489656E+02  0.85949099425E+03  0.13465984441E+04  0.10566000000E+00 0. -1.
         -4    1    3    3    0  503 -0.10853542852E+03 -0.11761783588E+02 -0.15574181434E+03  0.19019408910E+03  0.00000000000E+00 0. -1.
<mgrwt>
<rscale>  2 0.13684645E+04</rscale>
<asrwt>0</asrwt>
<pdfrwt beam="1">  1       21 0.34698787E+00 0.13692243E+04</pdfrwt>
<pdfrwt beam="2">  1       21 0.12760201E+00 0.13692243E+04</pdfrwt>
<totfact> 0.23575393E+00</totfact>
</mgrwt>
</event>
<event>
 8    1  0.5815007E-006  0.1114960E+04  0.7818608E-02  0.8679496E-01
         21   -1    0    0  503  502  0.00000000000E+00  0.00000000000E+00  0.55601124101E+03  0.55601124101E+03  0.00000000000E+00 0. -1.
         21   -1    0    0  501  503 -0.00000000000E+00 -0.00000000000E+00 -0.26750074769E+04  0.26750074769E+04  0.00000000000E+00 0. -1.
    9000010    2    1    2  501    0  0.30314212884E+03 -0.26252635335E+03 -0.17441090214E+04  0.20547208970E+04  0.10095278351E+04 0.  0.
   -9000010    2    1    2    0  502 -0.30314212884E+03  0.26252635335E+03 -0.37488721451E+03  0.11762978209E+04  0.10403465304E+04 0.  0.
        -13    1    3    3    0    0 -0.23118091660E+03 -0.43549171557E+03 -0.57313579366E+03  0.75603062085E+03  0.10566000000E+00 0.  1.
          4    1    3    3  501    0  0.53432304544E+03  0.17296536222E+03 -0.11709732277E+04  0.12986902762E+04  0.00000000000E+00 0.  1.
         13    1    4    4    0    0 -0.35404128811E+03  0.49843621407E+01  0.29241487911E+03  0.45921296829E+03  0.10566000000E+00 0. -1.
         -4    1    4    4    0  502  0.50899159268E+02  0.25754199121E+03 -0.66730209362E+03  0.71708485258E+03  0.00000000000E+00 0. -1.
<mgrwt>
<rscale>  2 0.11077149E+04</rscale>
<asrwt>0</asrwt>
<pdfrwt beam="1">  1       21 0.85540190E-01 0.11149602E+04</pdfrwt>
<pdfrwt beam="2">  1       21 0.41153962E+00 0.11149602E+04</pdfrwt>
<totfact> 0.25608602E+00</totfact>
</mgrwt>
</event>
<event>
 8    1  0.5815007E-006  0.1063697E+04  0.7818608E-02  0.8717245E-01
         21   -1    0    0  501  502  0.00000000000E+00  0.00000000000E+00  0.25278332699E+04  0.25278332699E+04  0.00000000000E+00 0. -1.
         21   -1    0    0  502  503 -0.00000000000E+00 -0.00000000000E+00 -0.59763427411E+03  0.59763427411E+03  0.00000000000E+00 0.  1.
   -9000010    2    1    2    0  503  0.56917965256E+02 -0.36695682450E+03  0.18103553138E+03  0.10789925382E+04  0.99677182344E+03 0.  0.
    9000010    2    1    2  501    0 -0.56917965256E+02  0.36695682450E+03  0.17491634644E+04  0.20464750058E+04  0.99528395872E+03 0.  0.
        -13    1    4    4    0    0 -0.51379461651E+03  0.94770573984E+02  0.74136503707E+03  0.90696664713E+03  0.10566000000E+00 0.  1.
          4    1    4    4  501    0  0.45687665125E+03  0.27218625052E+03  0.10077984273E+04  0.11395083587E+04  0.00000000000E+00 0.  1.
         13    1    3    3    0    0 -0.24478416297E+03 -0.42400456188E+03 -0.25003896316E+03  0.54974416704E+03  0.10566000000E+00 0. -1.
         -4    1    3    3    0  503  0.30170212822E+03  0.57047737375E+02  0.43107449453E+03  0.52924837114E+03  0.00000000000E+00 0. -1.
<mgrwt>
<rscale>  2 0.10633482E+04</rscale>
<asrwt>0</asrwt>
<pdfrwt beam="1">  1       21 0.38889742E+00 0.10636969E+04</pdfrwt>
<pdfrwt beam="2">  1       21 0.91943736E-01 0.10636969E+04</pdfrwt>
<totfact> 0.30915112E+00</totfact>
</mgrwt>
</event>
<event>
 8    1  0.5815007E-006  0.1304845E+04  0.7818608E-02  0.8534527E-01
         21   -1    0    0  503  502  0.00000000000E+00  0.00000000000E+00  0.22280808884E+04  0.22280808884E+04  0.00000000000E+00 0.  1.
         21   -1    0    0  501  503 -0.00000000000E+00 -0.00000000000E+00 -0.78002182202E+03  0.78002182202E+03  0.00000000000E+00 0.  1.
    9000010    2    1    2  501    0  0.74840486131E+03  0.36771117456E+03  0.44444976569E+03  0.13619398719E+04  0.98082785246E+03 0.  0.
   -9000010    2    1    2    0  502 -0.74840486131E+03 -0.36771117456E+03  0.10036093007E+04  0.16461628385E+04  0.10036429236E+04 0.  0.
        -13    1    3    3    0    0  0.61117411045E+03  0.15387812266E+02  0.68160214743E+03  0.91561568171E+03  0.10566000000E+00 0.  1.
          4    1    3    3  501    0  0.13723075086E+03  0.35232336229E+03 -0.23715238174E+03  0.44632419021E+03  0.00000000000E+00 0.  1.
         13    1    4    4    0    0 -0.87494858767E+03 -0.58017930479E+03  0.73812815006E+03  0.12833457188E+04  0.10566000000E+00 0. -1.
         -4    1    4    4    0  502  0.12654372636E+03  0.21246813023E+03  0.26548115063E+03  0.36281711975E+03  0.00000000000E+00 0. -1.
<mgrwt>
<rscale>  2 0.13004564E+04</rscale>
<asrwt>0</asrwt>
<pdfrwt beam="1">  1       21 0.34278167E+00 0.13048450E+04</pdfrwt>
<pdfrwt beam="2">  1       21 0.12000336E+00 0.13048450E+04</pdfrwt>
<totfact> 0.30415887E+00</totfact>
</mgrwt>
</event>
<event>
 8    1  0.5815007E-006  0.1248083E+04  0.7818608E-02  0.8571450E-01
         21   -1    0    0  503  502  0.00000000000E+00  0.00000000000E+00  0.91778081817E+03  0.91778081817E+03  0.00000000000E+00 0.  1.
         21   -1    0    0  501  503 -0.00000000000E+00 -0.00000000000E+00 -0.28078489069E+04  0.28078489069E+04  0.00000000000E+00 0.  1.
    9000010    2    1    2  501    0 -0.73119787401E+03 -0.10106889936E+03 -0.21178565589E+04  0.24582572677E+04  0.10064030687E+04 0.  0.
   -9000010    2    1    2    0  502  0.73119787401E+03  0.10106889936E+03  0.22778847018E+03  0.12673724574E+04  0.10047288715E+04 0.  0.
        -13    1    3    3    0    0 -0.60678579482E+03 -0.13310666835E+03 -0.40718662959E+03  0.74277005085E+03  0.10566000000E+00 0.  1.
          4    1    3    3  501    0 -0.12441207918E+03  0.32037768981E+02 -0.17106699293E+04  0.17154872169E+04  0.00000000000E+00 0.  1.
         13    1    4    4    0    0  0.18863190154E+03  0.51501126786E+03  0.17540755298E+01  0.54847213990E+03  0.10566000000E+00 0. -1.
         -4    1    4    4    0  502  0.54256597247E+03 -0.41394236849E+03  0.22603439465E+03  0.71890031748E+03  0.00000000000E+00 0. -1.
<mgrwt>
<rscale>  2 0.12477459E+04</rscale>
<asrwt>0</asrwt>
<pdfrwt beam="1">  1       21 0.14119705E+00 0.12480835E+04</pdfrwt>
<pdfrwt beam="2">  1       21 0.43197675E+00 0.12480835E+04</pdfrwt>
<totfact> 0.45836107E-01</totfact>
</mgrwt>
</event>
<event>
 8    1  0.5815007E-006  0.1342894E+04  0.7818608E-02  0.8509755E-01
         21   -1    0    0  501  502  0.00000000000E+00  0.00000000000E+00  0.20029189626E+04  0.20029189626E+04  0.00000000000E+00 0. -1.
         21   -1    0    0  502  503 -0.00000000000E+00 -0.00000000000E+00 -0.99440663216E+03  0.99440663216E+03  0.00000000000E+00 0. -1.
   -9000010    2    1    2    0  503  0.69812551965E+03  0.51973961845E+03  0.12260189724E+02  0.13429495321E+04  0.10226703385E+04 0.  0.
    9000010    2    1    2  501    0 -0.69812551965E+03 -0.51973961845E+03  0.99625214071E+03  0.16543760627E+04  0.99344517553E+03 0.  0.
        -13    1    4    4    0    0 -0.37796375103E+03 -0.39248090097E+03 -0.55433533405E+02  0.54769584854E+03  0.10566000000E+00 0.  1.
          4    1    4    4  501    0 -0.32016176862E+03 -0.12725871748E+03  0.10516856741E+04  0.11066802142E+04  0.00000000000E+00 0.  1.
         13    1    3    3    0    0  0.12036960702E+03 -0.30097313960E+03  0.89568266309E+02  0.33629772308E+03  0.10566000000E+00 0. -1.
         -4    1    3    3    0  503  0.57775591263E+03  0.82071275805E+03 -0.77308076585E+02  0.10066518090E+04  0.00000000000E+00 0. -1.
<mgrwt>
<rscale>  2 0.13373290E+04</rscale>
<asrwt>0</asrwt>
<pdfrwt beam="1">  1       21 0.30814138E+00 0.13428936E+04</pdfrwt>
<pdfrwt beam="2">  1       21 0.15298564E+00 0.13428936E+04</pdfrwt>
<totfact> 0.25795337E+00</totfact>
</mgrwt>
</event>
<event>
 8    1  0.5815007E-006  0.1192277E+04  0.7818608E-02  0.8614729E-01
         21   -1    0    0  503  502  0.00000000000E+00  0.00000000000E+00  0.19741981368E+04  0.19741981368E+04  0.00000000000E+00 0.  1.
         21   -1    0    0  501  503 -0.00000000000E+00 -0.00000000000E+00 -0.74351791203E+03  0.74351791203E+03  0.00000000000E+00 0.  1.
    9000010    2    1    2  501    0 -0.39175205315E+03 -0.51942148727E+03  0.34172542483E+03  0.12402826660E+04  0.99912785621E+03 0.  0.
   -9000010    2    1    2    0  502  0.39175205315E+03  0.51942148727E+03  0.88895479998E+03  0.14774333829E+04  0.98453055401E+03 0.  0.
        -13    1    3    3    0    0 -0.24565460830E+03  0.82169560211E+01  0.58998287596E+03  0.63913497013E+03  0.10566000000E+00 0.  1.
          4    1    3    3  501    0 -0.14609744485E+03 -0.52763844329E+03 -0.24825745114E+03  0.60114769589E+03  0.00000000000E+00 0.  1.
         13    1    4    4    0    0 -0.17265505347E+03 -0.59632061344E+02  0.58619814062E+03  0.61399838880E+03  0.10566000000E+00 0. -1.
         -4    1    4    4    0  502  0.56440710662E+03  0.57905354861E+03  0.30275665936E+03  0.86343499405E+03  0.00000000000E+00 0. -1.
<mgrwt>
<rscale>  2 0.11892140E+04</rscale>
<asrwt>0</asrwt>
<pdfrwt beam="1">  1       21 0.30372279E+00 0.11922772E+04</pdfrwt>
<pdfrwt beam="2">  1       21 0.11438737E+00 0.11922772E+04</pdfrwt>
<totfact> 0.66889376E+00</totfact>
</mgrwt>
</event>
<event>
 8    1  0.5815007E-006  0.1082295E+04  0.7818608E-02  0.8707411E-01
         21   -1    0    0  501  502  0.00000000000E+00  0.00000000000E+00  0.11966153842E+04  0.11966153842E+04  0.00000000000E+00 0. -1.
         21   -1    0    0  502  503 -0.00000000000E+00 -0.00000000000E+00 -0.96363901443E+03  0.96363901443E+03  0.00000000000E+00 0. -1.
   -9000010    2    1    2    0  503  0.62395979208E+02  0.31930563084E+03  0.23420681761E+03  0.10779586005E+04  0.10006460748E+04 0.  0.
    9000010    2    1    2  501    0 -0.62395979208E+02 -0.31930563084E+03 -0.12304478519E+01  0.10822957981E+04  0.10322370544E+04 0.  0.
        -13    1    4    4    0    0 -0.35205839719E+03 -0.47431055693E+03  0.27640798499E+03  0.65216332677E+03  0.10566000000E+00 0.  1.
          4    1    4    4  501    0  0.28966241798E+03  0.15500492609E+03 -0.27763843284E+03  0.43013247133E+03  0.00000000000E+00 0.  1.
         13    1    3    3    0    0  0.70493900424E+02 -0.18848352027E+03  0.47503190133E+03  0.51589799947E+03  0.10566000000E+00 0. -1.
         -4    1    3    3    0  503 -0.80979212159E+01  0.50778915111E+03 -0.24082508372E+03  0.56206060106E+03  0.00000000000E+00 0. -1.
<mgrwt>
<rscale>  2 0.10746936E+04</rscale>
<asrwt>0</asrwt>
<pdfrwt beam="1">  1       21 0.18409467E+00 0.10822951E+04</pdfrwt>
<pdfrwt beam="2">  1       21 0.14825216E+00 0.10822951E+04</pdfrwt>
<totfact> 0.24838271E+01</totfact>
</mgrwt>
</event>
<event>
 8    1  0.5815007E-006  0.1211422E+04  0.7818608E-02  0.8598361E-01
         21   -1    0    0  501  502  0.00000000000E+00  0.00000000000E+00  0.19590580630E+04  0.19590580630E+04  0.00000000000E+00 0.  1.
         21   -1    0    0  502  503 -0.00000000000E+00 -0.00000000000E+00 -0.14533335668E+04  0.14533335668E+04  0.00000000000E+00 0.  1.
   -9000010    2    1    2    0  503  0.39790594101E+03  0.55576781354E+03 -0.93590876308E+03  0.15293488681E+04  0.99788563829E+03 0.  0.
    9000010    2    1    2  501    0 -0.39790594101E+03 -0.55576781354E+03  0.14416332593E+04  0.18830427617E+04  0.10001682796E+04 0.  0.
        -13    1    4    4    0    0  0.79408736484E+02  0.98288940137E+02 -0.86856664474E+02  0.15333151832E+03  0.10566000000E+00 0.  1.
          4    1    4    4  501    0 -0.47731467750E+03 -0.65405675368E+03  0.15284899238E+04  0.17297112434E+04  0.00000000000E+00 0.  1.
         13    1    3    3    0    0  0.82487798149E+02  0.59985576832E+03 -0.10321442466E+04  0.11966423595E+04  0.10566000000E+00 0. -1.
         -4    1    3    3    0  503  0.31541814286E+03 -0.44087954780E+02  0.96235483477E+02  0.33270650863E+03  0.00000000000E+00 0. -1.
<mgrwt>
<rscale>  2 0.12109509E+04</rscale>
<asrwt>0</asrwt>
<pdfrwt beam="1">  1       21 0.30139355E+00 0.12114221E+04</pdfrwt>
<pdfrwt beam="2">  1       21 0.22358978E+00 0.12114221E+04</pdfrwt>
<totfact> 0.79561174E-01</totfact>
</mgrwt>
</event>
<event>
 8    1  0.5815007E-006  0.1205535E+04  0.7818608E-02  0.8602605E-01
         21   -1    0    0  503  502  0.00000000000E+00  0.00000000000E+00  0.13985488344E+04  0.13985488344E+04  0.00000000000E+00 0. -1.
         21   -1    0    0  501  503 -0.00000000000E+00 -0.00000000000E+00 -0.10640262155E+04  0.10640262155E+04  0.00000000000E+00 0. -1.
    9000010    2    1    2  501    0 -0.42762387027E+03 -0.51239488022E+03  0.35885371864E+03  0.12567949254E+04  0.10026698387E+04 0.  0.
   -9000010    2    1    2    0  502  0.42762387027E+03  0.51239488022E+03 -0.24331099758E+02  0.12057801245E+04  0.10039437328E+04 0.  0.
        -13    1    3    3    0    0 -0.25702255205E+03  0.15376299407E+03 -0.20880483541E+03  0.36510699947E+03  0.10566000000E+00 0.  1.
          4    1    3    3  501    0 -0.17060131823E+03 -0.66615787430E+03  0.56765855406E+03  0.89168792594E+03  0.00000000000E+00 0.  1.
         13    1    4    4    0    0  0.20219414035E+03  0.40219133582E+03 -0.49704738712E+03  0.67059410764E+03  0.10566000000E+00 0. -1.
         -4    1    4    4    0  502  0.22542972992E+03  0.11020354440E+03  0.47271628736E+03  0.53518601688E+03  0.00000000000E+00 0. -1.
<mgrwt>
<rscale>  2 0.12052694E+04</rscale>
<asrwt>0</asrwt>
<pdfrwt beam="1">  1       21 0.21516136E+00 0.12055346E+04</pdfrwt>
<pdfrwt beam="2">  1       21 0.16369634E+00 0.12055346E+04</pdfrwt>
<totfact> 0.10122225E+01</totfact>
</mgrwt>
</event>
<event>
 8    1  0.5815007E-006  0.1052807E+04  0.7818608E-02  0.8728325E-01
         21   -1    0    0  501  502  0.00000000000E+00  0.00000000000E+00  0.59108291286E+03  0.59108291286E+03  0.00000000000E+00 0.  1.
         21   -1    0    0  502  503 -0.00000000000E+00 -0.00000000000E+00 -0.19856402152E+04  0.19856402152E+04  0.00000000000E+00 0.  1.
   -9000010    2    1    2    0  503 -0.25201457825E+03  0.17510369965E+03 -0.10180865704E+04  0.14586294865E+04  0.99846234818E+03 0.  0.
    9000010    2    1    2  501    0  0.25201457825E+03 -0.17510369965E+03 -0.37647073195E+03  0.11180936416E+04  0.10070901281E+04 0.  0.
        -13    1    4    4    0    0  0.49772309284E+03  0.73200507378E+02  0.11410418063E+03  0.51585498605E+03  0.10566000000E+00 0.  1.
          4    1    4    4  501    0 -0.24570851460E+03 -0.24830420703E+03 -0.49057491258E+03  0.60223865554E+03  0.00000000000E+00 0.  1.
         13    1    3    3    0    0 -0.38846969244E+03  0.34055951534E+03 -0.11345730903E+03  0.52892537996E+03  0.10566000000E+00 0. -1.
         -4    1    3    3    0  503  0.13645511419E+03 -0.16545581570E+03 -0.90462926141E+03  0.92970410655E+03  0.00000000000E+00 0. -1.
<mgrwt>
<rscale>  2 0.10507387E+04</rscale>
<asrwt>0</asrwt>
<pdfrwt beam="1">  1       21 0.90935834E-01 0.10528073E+04</pdfrwt>
<pdfrwt beam="2">  1       21 0.30548311E+00 0.10528073E+04</pdfrwt>
<totfact> 0.12274049E+01</totfact>
</mgrwt>
</event>
<event>
 8    1  0.5815007E-006  0.1325093E+04  0.7818608E-02  0.8541914E-01
         21   -1    0    0  501  502  0.00000000000E+00  0.00000000000E+00  0.19046093208E+04  0.19046093208E+04  0.00000000000E+00 0.  1.
         21   -1    0    0  502  503 -0.00000000000E+00 -0.00000000000E+00 -0.84679111341E+03  0.84679111341E+03  0.00000000000E+00 0. -1.
   -9000010    2    1    2    0  503 -0.41018442077E+03 -0.76344700166E+03  0.36184752652E+03  0.13736102465E+04  0.10023816107E+04 0.  0.
    9000010    2    1    2  501    0  0.41018442077E+03  0.76344700166E+03  0.69597068085E+03  0.13777901876E+04  0.81414251160E+03 0.  0.
        -13    1    4    4    0    0 -0.21121598008E+03  0.41075144210E+03  0.37295124906E+03  0.59365106146E+03  0.10566000000E+00 0.  1.
          4    1    4    4  501    0  0.62140040085E+03  0.35269555956E+03  0.32301943178E+03  0.78413912619E+03  0.00000000000E+00 0.  1.
         13    1    3    3    0    0 -0.65393694326E+03 -0.33495444514E+03  0.46560623671E+03  0.86983744740E+03  0.10566000000E+00 0. -1.
         -4    1    3    3    0  503  0.24375252249E+03 -0.42849255652E+03 -0.10375871019E+03  0.50377279914E+03  0.00000000000E+00 0. -1.
<mgrwt>
<rscale>  2 0.12896988E+04</rscale>
<asrwt>0</asrwt>
<pdfrwt beam="1">  1       21 0.29301682E+00 0.13250930E+04</pdfrwt>
<pdfrwt beam="2">  1       21 0.13027556E+00 0.13250930E+04</pdfrwt>
<totfact> 0.53751642E+00</totfact>
</mgrwt>
</event>
<event>
 8    1  0.5815007E-006  0.1096360E+04  0.7818608E-02  0.8702753E-01
         21   -1    0    0  503  502  0.00000000000E+00  0.00000000000E+00  0.98001523962E+03  0.98001523962E+03  0.00000000000E+00 0. -1.
         21   -1    0    0  501  503 -0.00000000000E+00 -0.00000000000E+00 -0.13188795687E+04  0.13188795687E+04  0.00000000000E+00 0. -1.
    9000010    2    1    2  501    0  0.37496159041E+03  0.27107793443E+03 -0.57706847756E+03  0.12389568138E+04  0.99394492694E+03 0.  0.
   -9000010    2    1    2    0  502 -0.37496159041E+03 -0.27107793443E+03  0.23820414850E+03  0.10599379945E+04  0.92338935183E+03 0.  0.
        -13    1    3    3    0    0  0.35699295037E+03  0.31426649545E+03  0.15893709134E+03  0.50146625704E+03  0.10566000000E+00 0.  1.
          4    1    3    3  501    0  0.17968640037E+02 -0.43188561028E+02 -0.73600556890E+03  0.73749055674E+03  0.00000000000E+00 0.  1.
         13    1    4    4    0    0 -0.18300628942E+03 -0.52174819748E+03 -0.13693777774E+03  0.56961781019E+03  0.10566000000E+00 0. -1.
         -4    1    4    4    0  502 -0.19195530099E+03  0.25067026306E+03  0.37514192623E+03  0.49032018434E+03  0.00000000000E+00 0. -1.
<mgrwt>
<rscale>  2 0.10801191E+04</rscale>
<asrwt>0</asrwt>
<pdfrwt beam="1">  1       21 0.15077158E+00 0.10963603E+04</pdfrwt>
<pdfrwt beam="2">  1       21 0.20290455E+00 0.10963603E+04</pdfrwt>
<totfact> 0.16681706E+01</totfact>
</mgrwt>
</event>
<event>
 8    1  0.5815007E-006  0.1105181E+04  0.7818608E-02  0.8684921E-01
         21   -1    0    0  501  502  0.00000000000E+00  0.00000000000E+00  0.14550452066E+04  0.14550452066E+04  0.00000000000E+00 0.  1.
         21   -1    0    0  502  503 -0.00000000000E+00 -0.00000000000E+00 -0.83774685854E+03  0.83774685854E+03  0.00000000000E+00 0.  1.
   -9000010    2    1    2    0  503 -0.25589053269E+03 -0.38299868141E+03  0.43787283178E+03  0.11887633645E+04  0.10046182187E+04 0.  0.
    9000010    2    1    2  501    0  0.25589053269E+03  0.38299868141E+03  0.17942551629E+03  0.11040287007E+04  0.98717673257E+03 0.  0.
        -13    1    4    4    0    0  0.33470422083E+03  0.38063888680E+03  0.53666649445E+03  0.73818955222E+03  0.10566000000E+00 0.  1.
          4    1    4    4  501    0 -0.78813688142E+02  0.23597946173E+01 -0.35724097815E+03  0.36583914845E+03  0.00000000000E+00 0.  1.
         13    1    3    3    0    0 -0.21044132165E+03 -0.20657084518E+03  0.76193006078E+03  0.81700336145E+03  0.10566000000E+00 0. -1.
         -4    1    3    3    0  503 -0.45449211038E+02 -0.17642783623E+03 -0.32405722901E+03  0.37176000303E+03  0.00000000000E+00 0. -1.
<mgrwt>
<rscale>  2 0.11012023E+04</rscale>
<asrwt>0</asrwt>
<pdfrwt beam="1">  1       21 0.22385311E+00 0.11051813E+04</pdfrwt>
<pdfrwt beam="2">  1       21 0.12888413E+00 0.11051813E+04</pdfrwt>
<totfact> 0.18399710E+01</totfact>
</mgrwt>
</event>
<event>
 8    1  0.5815007E-006  0.1161326E+04  0.7818608E-02  0.8639523E-01
         21   -1    0    0  503  502  0.00000000000E+00  0.00000000000E+00  0.18118782640E+04  0.18118782640E+04  0.00000000000E+00 0.  1.
         21   -1    0    0  501  503 -0.00000000000E+00 -0.00000000000E+00 -0.74282299184E+03  0.74282299184E+03  0.00000000000E+00 0.  1.
    9000010    2    1    2  501    0  0.54003533171E+03  0.23457070758E+03  0.39769716927E+03  0.12275344826E+04  0.10010076379E+04 0.  0.
   -9000010    2    1    2    0  502 -0.54003533171E+03 -0.23457070758E+03  0.67135810292E+03  0.13271667733E+04  0.98182909173E+03 0.  0.
        -13    1    3    3    0    0 -0.25370050712E+03  0.23544020227E+03  0.15214901443E+02  0.34644991059E+03  0.10566000000E+00 0.  1.
          4    1    3    3  501    0  0.79373583882E+03 -0.86949469145E+00  0.38248226783E+03  0.88108457202E+03  0.00000000000E+00 0.  1.
         13    1    4    4    0    0  0.11527240863E+03  0.19490425438E+03  0.46459595293E+03  0.51684118181E+03  0.10566000000E+00 0. -1.
         -4    1    4    4    0  502 -0.65530774034E+03 -0.42947496196E+03  0.20676214999E+03  0.81032559146E+03  0.00000000000E+00 0. -1.
<mgrwt>
<rscale>  2 0.11571813E+04</rscale>
<asrwt>0</asrwt>
<pdfrwt beam="1">  1       21 0.27875050E+00 0.11613259E+04</pdfrwt>
<pdfrwt beam="2">  1       21 0.11428046E+00 0.11613259E+04</pdfrwt>
<totfact> 0.10152764E+01</totfact>
</mgrwt>
</event>
<event>
 8    1  0.5815007E-006  0.1161230E+04  0.7818608E-02  0.8646759E-01
         21   -1    0    0  501  502  0.00000000000E+00  0.00000000000E+00  0.19852739154E+04  0.19852739154E+04  0.00000000000E+00 0.  1.
         21   -1    0    0  502  503 -0.00000000000E+00 -0.00000000000E+00 -0.81883017599E+03  0.81883017599E+03  0.00000000000E+00 0.  1.
   -9000010    2    1    2    0  503 -0.78659777784E+02  0.56945306352E+03 -0.44204202877E+02  0.11620713651E+04  0.10089557443E+04 0.  0.
    9000010    2    1    2  501    0  0.78659777784E+02 -0.56945306352E+03  0.12106479423E+04  0.16420327263E+04  0.94875649232E+03 0.  0.
        -13    1    4    4    0    0  0.33676794470E+03 -0.72684919765E+03  0.95179279152E+03  0.12440385580E+04  0.10566000000E+00 0.  1.
          4    1    4    4  501    0 -0.25810816691E+03  0.15739613413E+03  0.25885515081E+03  0.39799416825E+03  0.00000000000E+00 0.  1.
         13    1    3    3    0    0 -0.53352940005E+03  0.20267302804E+03  0.38012541713E+02  0.57199208168E+03  0.10566000000E+00 0. -1.
         -4    1    3    3    0  503  0.45486962226E+03  0.36678003548E+03 -0.82216744590E+02  0.59007928346E+03  0.00000000000E+00 0. -1.
<mgrwt>
<rscale>  2 0.11480308E+04</rscale>
<asrwt>0</asrwt>
<pdfrwt beam="1">  1       21 0.30542676E+00 0.11612303E+04</pdfrwt>
<pdfrwt beam="2">  1       21 0.12597387E+00 0.11612303E+04</pdfrwt>
<totfact> 0.49958638E+00</totfact>
</mgrwt>
</event>
<event>
 8    1  0.5815007E-006  0.1165019E+04  0.7818608E-02  0.8650514E-01
         21   -1    0    0  503  502  0.00000000000E+00  0.00000000000E+00  0.24360065630E+04  0.24360065630E+04  0.00000000000E+00 0. -1.
         21   -1    0    0  501  503 -0.00000000000E+00 -0.00000000000E+00 -0.61352453789E+03  0.61352453789E+03  0.00000000000E+00 0. -1.
    9000010    2    1    2  501    0 -0.43037332852E+03  0.22849013192E+03  0.27957159985E+03  0.11161809221E+04  0.96450538054E+03 0.  0.
   -9000010    2    1    2    0  502  0.43037332852E+03 -0.22849013192E+03  0.15429104253E+04  0.19333501789E+04  0.10582255862E+04 0.  0.
        -13    1    3    3    0    0 -0.47633540211E+03  0.46534809039E+03  0.46473053707E+03  0.81204602319E+03  0.10566000000E+00 0.  1.
          4    1    3    3  501    0  0.45962073592E+02 -0.23685795847E+03 -0.18515893721E+03  0.30413489890E+03  0.00000000000E+00 0.  1.
         13    1    4    4    0    0  0.72770956155E+03 -0.72184021244E+02  0.13759984482E+04  0.15582501338E+04  0.10566000000E+00 0. -1.
         -4    1    4    4    0  502 -0.29733623303E+03 -0.15630611068E+03  0.16691197715E+03  0.37510004508E+03  0.00000000000E+00 0. -1.
<mgrwt>
<rscale>  2 0.11433160E+04</rscale>
<asrwt>0</asrwt>
<pdfrwt beam="1">  1       21 0.37477024E+00 0.11650195E+04</pdfrwt>
<pdfrwt beam="2">  1       21 0.94388392E-01 0.11650195E+04</pdfrwt>
<totfact> 0.35531891E+00</totfact>
</mgrwt>
</event>
<event>
 8    1  0.5815007E-006  0.1148640E+04  0.7818608E-02  0.8650583E-01
         21   -1    0    0  501  502  0.00000000000E+00  0.00000000000E+00  0.63173806488E+03  0.63173806488E+03  0.00000000000E+00 0. -1.
         21   -1    0    0  502  503 -0.00000000000E+00 -0.00000000000E+00 -0.21312753747E+04  0.21312753747E+04  0.00000000000E+00 0. -1.
   -9000010    2    1    2    0  503 -0.31814034888E+03 -0.46711501450E+03 -0.48614100617E+03  0.12472796834E+04  0.99998190602E+03 0.  0.
    9000010    2    1    2  501    0  0.31814034888E+03  0.46711501450E+03 -0.10133963037E+04  0.15157337562E+04  0.97522665727E+03 0.  0.
        -13    1    4    4    0    0  0.17370838668E+03 -0.24486619229E+03 -0.62167239840E+03  0.69036992825E+03  0.10566000000E+00 0.  1.
          4    1    4    4  501    0  0.14443196220E+03  0.71198120680E+03 -0.39172390526E+03  0.82536382795E+03  0.00000000000E+00 0.  1.
         13    1    3    3    0    0 -0.53360883011E+03 -0.20285712681E+03 -0.65327009857E+03  0.86755474197E+03  0.10566000000E+00 0. -1.
         -4    1    3    3    0  503  0.21546848123E+03 -0.26425788770E+03  0.16712909240E+03  0.37972494142E+03  0.00000000000E+00 0. -1.
<mgrwt>
<rscale>  2 0.11432304E+04</rscale>
<asrwt>0</asrwt>
<pdfrwt beam="1">  1       21 0.97190472E-01 0.11486399E+04</pdfrwt>
<pdfrwt beam="2">  1       21 0.32788852E+00 0.11486399E+04</pdfrwt>
<totfact> 0.70536260E+00</totfact>
</mgrwt>
</event>
<event>
 8    1  0.5815007E-006  0.1052157E+04  0.7818608E-02  0.8738927E-01
         21   -1    0    0  503  502  0.00000000000E+00  0.00000000000E+00  0.58960292649E+03  0.58960292649E+03  0.00000000000E+00 0. -1.
         21   -1    0    0  501  503 -0.00000000000E+00 -0.00000000000E+00 -0.17874702955E+04  0.17874702955E+04  0.00000000000E+00 0. -1.
    9000010    2    1    2  501    0  0.10587848433E+03  0.28985840668E+03 -0.65354419508E+03  0.12386097679E+04  0.10058856758E+04 0.  0.
   -9000010    2    1    2    0  502 -0.10587848433E+03 -0.28985840668E+03 -0.54432317397E+03  0.11384634542E+04  0.95109577300E+03 0.  0.
        -13    1    3    3    0    0  0.26568031257E+03 -0.31536190304E+03 -0.35932783641E+03  0.54695124422E+03  0.10566000000E+00 0.  1.
          4    1    3    3  501    0 -0.15980182825E+03  0.60522030971E+03 -0.29421635867E+03  0.69165852363E+03  0.00000000000E+00 0.  1.
         13    1    4    4    0    0 -0.30604660138E+03 -0.41874289160E+01 -0.69429755189E+03  0.75876950288E+03  0.10566000000E+00 0. -1.
         -4    1    4    4    0  502  0.20016811705E+03 -0.28567097776E+03  0.14997437793E+03  0.37969395130E+03  0.00000000000E+00 0. -1.
<mgrwt>
<rscale>  2 0.10388435E+04</rscale>
<asrwt>0</asrwt>
<pdfrwt beam="1">  1       21 0.90708140E-01 0.10521569E+04</pdfrwt>
<pdfrwt beam="2">  1       21 0.27499544E+00 0.10521569E+04</pdfrwt>
<totfact> 0.20333587E+01</totfact>
</mgrwt>
</event>
<event>
 8    1  0.5815007E-006  0.1153983E+04  0.7818608E-02  0.8642463E-01
         21   -1    0    0  503  502  0.00000000000E+00  0.00000000000E+00  0.12125699888E+04  0.12125699888E+04  0.00000000000E+00 0. -1.
         21   -1    0    0  501  503 -0.00000000000E+00 -0.00000000000E+00 -0.11142448783E+04  0.11142448783E+04  0.00000000000E+00 0. -1.
    9000010    2    1    2  501    0  0.25307294826E+03 -0.50627443861E+03  0.19722302399E+03  0.11707147209E+04  0.10056422387E+04 0.  0.
   -9000010    2    1    2    0  502 -0.25307294826E+03  0.50627443861E+03 -0.98897913542E+02  0.11561001462E+04  0.10032083664E+04 0.  0.
        -13    1    3    3    0    0  0.22718249576E+03  0.22283387007E+03 -0.16246664149E+03  0.35729853175E+03  0.10566000000E+00 0.  1.
          4    1    3    3  501    0  0.25890452503E+02 -0.72910830868E+03  0.35968966548E+03  0.81341618915E+03  0.00000000000E+00 0.  1.
         13    1    4    4    0    0 -0.18576760989E+03 -0.85429727690E+02 -0.42898165807E+03  0.47521902043E+03  0.10566000000E+00 0. -1.
         -4    1    4    4    0  502 -0.67305338372E+02  0.59170416630E+03  0.33008374453E+03  0.68088112574E+03  0.00000000000E+00 0. -1.
<mgrwt>
<rscale>  2 0.11534522E+04</rscale>
<asrwt>0</asrwt>
<pdfrwt beam="1">  1       21 0.18654923E+00 0.11539827E+04</pdfrwt>
<pdfrwt beam="2">  1       21 0.17142229E+00 0.11539827E+04</pdfrwt>
<totfact> 0.14728649E+01</totfact>
</mgrwt>
</event>
<event>
 8    1  0.5815007E-006  0.1056111E+04  0.7818608E-02  0.8731007E-01
         21   -1    0    0  501  502  0.00000000000E+00  0.00000000000E+00  0.10764609322E+04  0.10764609322E+04  0.00000000000E+00 0. -1.
         21   -1    0    0  502  503 -0.00000000000E+00 -0.00000000000E+00 -0.10654788043E+04  0.10654788043E+04  0.00000000000E+00 0. -1.
   -9000010    2    1    2    0  503  0.30078046660E+03 -0.43065753784E+02 -0.25214986315E+03  0.10535427670E+04  0.97675445231E+03 0.  0.
    9000010    2    1    2  501    0 -0.30078046660E+03  0.43065753784E+02  0.26313199109E+03  0.10883969696E+04  0.10114573497E+04 0.  0.
        -13    1    4    4    0    0 -0.25654055082E+03 -0.32451069678E+03 -0.22879004160E+03  0.47272099682E+03  0.10566000000E+00 0.  1.
          4    1    4    4  501    0 -0.44239915779E+02  0.36757645056E+03  0.49192203269E+03  0.61567597273E+03  0.00000000000E+00 0.  1.
         13    1    3    3    0    0  0.48061188215E+03  0.32675253705E+03 -0.20427906392E+02  0.58152584831E+03  0.10566000000E+00 0. -1.
         -4    1    3    3    0  503 -0.17983141555E+03 -0.36981829083E+03 -0.23172195676E+03  0.47201691866E+03  0.00000000000E+00 0. -1.
<mgrwt>
<rscale>  2 0.10477142E+04</rscale>
<asrwt>0</asrwt>
<pdfrwt beam="1">  1       21 0.16560937E+00 0.10561106E+04</pdfrwt>
<pdfrwt beam="2">  1       21 0.16391982E+00 0.10561106E+04</pdfrwt>
<totfact> 0.25916516E+01</totfact>
</mgrwt>
</event>
<event>
 8    1  0.5815007E-006  0.1087745E+04  0.7818608E-02  0.8699491E-01
         21   -1    0    0  503  502  0.00000000000E+00  0.00000000000E+00  0.13751338094E+04  0.13751338094E+04  0.00000000000E+00 0.  1.
         21   -1    0    0  501  503 -0.00000000000E+00 -0.00000000000E+00 -0.86269926726E+03  0.86269926726E+03  0.00000000000E+00 0.  1.
    9000010    2    1    2  501    0  0.38090038834E+03 -0.31807356120E+02  0.39809961454E+03  0.11440954285E+04  0.10021847298E+04 0.  0.
   -9000010    2    1    2    0  502 -0.38090038834E+03  0.31807356120E+02  0.11433492764E+03  0.10937376483E+04  0.10183775105E+04 0.  0.
        -13    1    3    3    0    0  0.30340694964E+03 -0.29262469501E+03 -0.21510364747E+03  0.47323839610E+03  0.10566000000E+00 0.  1.
          4    1    3    3  501    0  0.77493438698E+02  0.26081733890E+03  0.61320326202E+03  0.67085703235E+03  0.00000000000E+00 0.  1.
         13    1    4    4    0    0  0.11663626598E+03  0.46628104524E+02 -0.37515408716E+03  0.39562456818E+03  0.10566000000E+00 0. -1.
         -4    1    4    4    0  502 -0.49753665431E+03 -0.14820748405E+02  0.48948901480E+03  0.69811308008E+03  0.00000000000E+00 0. -1.
<mgrwt>
<rscale>  2 0.10839390E+04</rscale>
<asrwt>0</asrwt>
<pdfrwt beam="1">  1       21 0.21155905E+00 0.10877452E+04</pdfrwt>
<pdfrwt beam="2">  1       21 0.13272296E+00 0.10877452E+04</pdfrwt>
<totfact> 0.21018005E+01</totfact>
</mgrwt>
</event>
<event>
 8    1  0.5815007E-006  0.1088086E+04  0.7818608E-02  0.8699629E-01
         21   -1    0    0  501  502  0.00000000000E+00  0.00000000000E+00  0.19717481143E+04  0.19717481143E+04  0.00000000000E+00 0.  1.
         21   -1    0    0  502  503 -0.00000000000E+00 -0.00000000000E+00 -0.59917241093E+03  0.59917241093E+03  0.00000000000E+00 0.  1.
   -9000010    2    1    2    0  503  0.27973223421E+03  0.33550987747E+03  0.83076947659E+03  0.13554017337E+04  0.97781334397E+03 0.  0.
    9000010    2    1    2  501    0 -0.27973223421E+03 -0.33550987747E+03  0.54180622676E+03  0.12155187915E+04  0.99655152626E+03 0.  0.
        -13    1    4    4    0    0 -0.46948830488E+03  0.13259050703E+03  0.18485770532E+02  0.48820205433E+03  0.10566000000E+00 0.  1.
          4    1    4    4  501    0  0.18975607067E+03 -0.46810038450E+03  0.52332045623E+03  0.72731673721E+03  0.00000000000E+00 0.  1.
         13    1    3    3    0    0  0.21809627968E+03  0.12257887762E+03 -0.18790359202E+03  0.31288870147E+03  0.10566000000E+00 0. -1.
         -4    1    3    3    0  503  0.61635954530E+02  0.21293099985E+03  0.10186730686E+04  0.10425130322E+04  0.00000000000E+00 0. -1.
<mgrwt>
<rscale>  2 0.10837770E+04</rscale>
<asrwt>0</asrwt>
<pdfrwt beam="1">  1       21 0.30334586E+00 0.10880864E+04</pdfrwt>
<pdfrwt beam="2">  1       21 0.92180372E-01 0.10880864E+04</pdfrwt>
<totfact> 0.12179631E+01</totfact>
</mgrwt>
</event>
<event>
 8    1  0.5815007E-006  0.1055605E+04  0.7818608E-02  0.8727610E-01
         21   -1    0    0  503  502  0.00000000000E+00  0.00000000000E+00  0.12859193781E+04  0.12859193781E+04  0.00000000000E+00 0. -1.
         21   -1    0    0  501  503 -0.00000000000E+00 -0.00000000000E+00 -0.86733234192E+03  0.86733234192E+03  0.00000000000E+00 0. -1.
    9000010    2    1    2  501    0  0.24456193039E+03 -0.23545799336E+03  0.74156201214E+02  0.10582068008E+04  0.99952563084E+03 0.  0.
   -9000010    2    1    2    0  502 -0.24456193039E+03  0.23545799336E+03  0.34443083500E+03  0.10950449192E+04  0.98246616765E+03 0.  0.
        -13    1    3    3    0    0 -0.31715069693E+03  0.35633029195E+02  0.25533395206E+03  0.40871715840E+03  0.10566000000E+00 0.  1.
          4    1    3    3  501    0  0.56171262733E+03 -0.27109102256E+03 -0.18117775085E+03  0.64948964242E+03  0.00000000000E+00 0.  1.
         13    1    4    4    0    0 -0.46236218428E+03  0.36943927690E+03 -0.82338169739E+02  0.59753138339E+03  0.10566000000E+00 0. -1.
         -4    1    4    4    0  502  0.21780025389E+03 -0.13398128354E+03  0.42676900474E+03  0.49751353583E+03  0.00000000000E+00 0. -1.
<mgrwt>
<rscale>  2 0.10515473E+04</rscale>
<asrwt>0</asrwt>
<pdfrwt beam="1">  1       21 0.19783375E+00 0.10556053E+04</pdfrwt>
<pdfrwt beam="2">  1       21 0.13343575E+00 0.10556053E+04</pdfrwt>
<totfact> 0.26611586E+01</totfact>
</mgrwt>
</event>
<event>
 8    1  0.5815007E-006  0.1130539E+04  0.7818608E-02  0.8669871E-01
         21   -1    0    0  501  502  0.00000000000E+00  0.00000000000E+00  0.61201788578E+03  0.61201788578E+03  0.00000000000E+00 0. -1.
         21   -1    0    0  502  503 -0.00000000000E+00 -0.00000000000E+00 -0.20187802712E+04  0.20187802712E+04  0.00000000000E+00 0. -1.
   -9000010    2    1    2    0  503 -0.31991496282E+03 -0.29641002907E+03 -0.59323730015E+03  0.12379801487E+04  0.99521850134E+03 0.  0.
    9000010    2    1    2  501    0  0.31991496282E+03  0.29641002907E+03 -0.81352508522E+03  0.13928180083E+04  0.10430313759E+04 0.  0.
        -13    1    4    4    0    0 -0.66706263364E+01  0.57498289793E+03 -0.13620875121E+03  0.59093372322E+03  0.10566000000E+00 0.  1.
          4    1    4    4  501    0  0.32658558915E+03 -0.27857286886E+03 -0.67731633401E+03  0.80188428506E+03  0.00000000000E+00 0.  1.
         13    1    3    3    0    0 -0.46209607709E+03 -0.57987129534E+03 -0.28097385958E+03  0.79292485429E+03  0.10566000000E+00 0. -1.
         -4    1    3    3    0  503  0.14218111427E+03  0.28346126627E+03 -0.31226344057E+03  0.44505529437E+03  0.00000000000E+00 0. -1.
<mgrwt>
<rscale>  2 0.11193864E+04</rscale>
<asrwt>0</asrwt>
<pdfrwt beam="1">  1       21 0.94156600E-01 0.11305392E+04</pdfrwt>
<pdfrwt beam="2">  1       21 0.31058157E+00 0.11305392E+04</pdfrwt>
<totfact> 0.10164295E+01</totfact>
</mgrwt>
</event>
<event>
 8    1  0.5815007E-006  0.1098859E+04  0.7818608E-02  0.8696059E-01
         21   -1    0    0  501  502  0.00000000000E+00  0.00000000000E+00  0.17913741608E+04  0.17913741608E+04  0.00000000000E+00 0.  1.
         21   -1    0    0  502  503 -0.00000000000E+00 -0.00000000000E+00 -0.64830405489E+03  0.64830405489E+03  0.00000000000E+00 0.  1.
   -9000010    2    1    2    0  503 -0.27169679056E+03  0.17451329813E+03  0.60904081822E+03  0.12563524290E+04  0.10503412162E+04 0.  0.
    9000010    2    1    2  501    0  0.27169679056E+03 -0.17451329813E+03  0.53402928769E+03  0.11833257867E+04  0.10053848020E+04 0.  0.
        -13    1    4    4    0    0  0.36957409712E+03 -0.34660400407E+03  0.74051510451E+03  0.89726360679E+03  0.10566000000E+00 0.  1.
          4    1    4    4  501    0 -0.97877306564E+02  0.17209070594E+03 -0.20648581682E+03  0.28606217989E+03  0.00000000000E+00 0.  1.
         13    1    3    3    0    0  0.33673746552E+03 -0.12618199109E+03  0.24149057199E+02  0.36041254652E+03  0.10566000000E+00 0. -1.
         -4    1    3    3    0  503 -0.60843425608E+03  0.30069528922E+03  0.58489176102E+03  0.89593988249E+03  0.00000000000E+00 0. -1.
<mgrwt>
<rscale>  2 0.10879760E+04</rscale>
<asrwt>0</asrwt>
<pdfrwt beam="1">  1       21 0.27559602E+00 0.10988588E+04</pdfrwt>
<pdfrwt beam="2">  1       21 0.99739086E-01 0.10988588E+04</pdfrwt>
<totfact> 0.15615195E+01</totfact>
</mgrwt>
</event>
<event>
 8    1  0.5815007E-006  0.1308674E+04  0.7818608E-02  0.8546897E-01
         21   -1    0    0  503  502  0.00000000000E+00  0.00000000000E+00  0.96092779823E+03  0.96092779823E+03  0.00000000000E+00 0.  1.
         21   -1    0    0  501  503 -0.00000000000E+00 -0.00000000000E+00 -0.19370046543E+04  0.19370046543E+04  0.00000000000E+00 0.  1.
    9000010    2    1    2  501    0 -0.24395831366E+03 -0.69845533133E+03 -0.10654360269E+04  0.16875368015E+04  0.10794771977E+04 0.  0.
   -9000010    2    1    2    0  502  0.24395831366E+03  0.69845533133E+03  0.89359170885E+02  0.12103956510E+04  0.95379089000E+03 0.  0.
        -13    1    3    3    0    0 -0.63466921418E+03 -0.55512266073E+03 -0.91687691771E+03  0.12456442001E+04  0.10566000000E+00 0.  1.
          4    1    3    3  501    0  0.39071090052E+03 -0.14333267061E+03 -0.14855910923E+03  0.44189260141E+03  0.00000000000E+00 0.  1.
         13    1    4    4    0    0  0.50759711857E+03  0.28990860728E+03 -0.23054091527E+03  0.62837167356E+03  0.10566000000E+00 0. -1.
         -4    1    4    4    0  502 -0.26363880491E+03  0.40854672405E+03  0.31990008615E+03  0.58202397743E+03  0.00000000000E+00 0. -1.
<mgrwt>
<rscale>  2 0.12825038E+04</rscale>
<asrwt>0</asrwt>
<pdfrwt beam="1">  1       21 0.14783505E+00 0.13086736E+04</pdfrwt>
<pdfrwt beam="2">  1       21 0.29800071E+00 0.13086736E+04</pdfrwt>
<totfact> 0.34071246E+00</totfact>
</mgrwt>
</event>
<event>
 8    1  0.5815007E-006  0.1113817E+04  0.7818608E-02  0.8675758E-01
         21   -1    0    0  503  502  0.00000000000E+00  0.00000000000E+00  0.70972579744E+03  0.70972579744E+03  0.00000000000E+00 0.  1.
         21   -1    0    0  501  503 -0.00000000000E+00 -0.00000000000E+00 -0.20207511180E+04  0.20207511180E+04  0.00000000000E+00 0.  1.
    9000010    2    1    2  501    0 -0.23174374838E+03  0.44936365544E+03 -0.11645379361E+04  0.16070680424E+04  0.98533559190E+03 0.  0.
   -9000010    2    1    2    0  502  0.23174374838E+03 -0.44936365544E+03 -0.14648738454E+03  0.11234088731E+04  0.99244953650E+03 0.  0.
        -13    1    3    3    0    0  0.11382027202E+03  0.46530868250E+03 -0.11666113254E+04  0.12611301361E+04  0.10566000000E+00 0.  1.
          4    1    3    3  501    0 -0.34556402040E+03 -0.15945027061E+02  0.20733893871E+01  0.34593790632E+03  0.00000000000E+00 0.  1.
         13    1    4    4    0    0 -0.15158615730E+03  0.14660186481E+03  0.23737187460E+03  0.31751517738E+03  0.10566000000E+00 0. -1.
         -4    1    4    4    0  502  0.38332990568E+03 -0.59596552026E+03 -0.38385925914E+03  0.80589369569E+03  0.00000000000E+00 0. -1.
<mgrwt>
<rscale>  2 0.11122304E+04</rscale>
<asrwt>0</asrwt>
<pdfrwt beam="1">  1       21 0.10918858E+00 0.11138173E+04</pdfrwt>
<pdfrwt beam="2">  1       21 0.31088479E+00 0.11138173E+04</pdfrwt>
<totfact> 0.68742612E+00</totfact>
</mgrwt>
</event>
<event>
 8    1  0.5815007E-006  0.1246302E+04  0.7818608E-02  0.8586132E-01
         21   -1    0    0  501  502  0.00000000000E+00  0.00000000000E+00  0.88745384973E+03  0.88745384973E+03  0.00000000000E+00 0. -1.
         21   -1    0    0  502  503 -0.00000000000E+00 -0.00000000000E+00 -0.17290817933E+04  0.17290817933E+04  0.00000000000E+00 0. -1.
   -9000010    2    1    2    0  503 -0.14026828148E+03 -0.61609014051E+03 -0.71520081679E+03  0.14369343089E+04  0.10742559041E+04 0.  0.
    9000010    2    1    2  501    0  0.14026828148E+03  0.61609014051E+03 -0.12642712680E+03  0.11796013342E+04  0.98804515950E+03 0.  0.
        -13    1    4    4    0    0 -0.11418033898E+03  0.89109832394E+02  0.37939251266E+03  0.40609900501E+03  0.10566000000E+00 0.  1.
          4    1    4    4  501    0  0.25444862046E+03  0.52698030812E+03 -0.50581963946E+03  0.77350232919E+03  0.00000000000E+00 0.  1.
         13    1    3    3    0    0 -0.19601285028E+03 -0.54852341078E+03 -0.98992354558E+03  0.11485850456E+04  0.10566000000E+00 0. -1.
         -4    1    3    3    0  503  0.55744568795E+02 -0.67566729730E+02  0.27472272880E+03  0.28834926328E+03  0.00000000000E+00 0. -1.
<mgrwt>
<rscale>  2 0.12275071E+04</rscale>
<asrwt>0</asrwt>
<pdfrwt beam="1">  1       21 0.13653136E+00 0.12463017E+04</pdfrwt>
<pdfrwt beam="2">  1       21 0.26601258E+00 0.12463017E+04</pdfrwt>
<totfact> 0.74146919E+00</totfact>
</mgrwt>
</event>
<event>
 8    1  0.5815007E-006  0.1178713E+04  0.7818608E-02  0.8622826E-01
         21   -1    0    0  501  502  0.00000000000E+00  0.00000000000E+00  0.11582540101E+04  0.11582540101E+04  0.00000000000E+00 0. -1.
         21   -1    0    0  502  503 -0.00000000000E+00 -0.00000000000E+00 -0.11994993243E+04  0.11994993243E+04  0.00000000000E+00 0. -1.
   -9000010    2    1    2    0  503  0.39145494087E+03  0.48374761372E+03 -0.26435089938E+01  0.11784081920E+04  0.10006948357E+04 0.  0.
    9000010    2    1    2  501    0 -0.39145494087E+03 -0.48374761372E+03 -0.38601805229E+02  0.11793451424E+04  0.10010575113E+04 0.  0.
        -13    1    4    4    0    0 -0.16088416566E+03 -0.26114025390E+02 -0.47755746959E+03  0.50460559352E+03  0.10566000000E+00 0.  1.
          4    1    4    4  501    0 -0.23057077521E+03 -0.45763358833E+03  0.43895566436E+03  0.67473954888E+03  0.00000000000E+00 0.  1.
         13    1    3    3    0    0 -0.25295779008E+01  0.62139700833E+03 -0.27555497484E+03  0.67975818940E+03  0.10566000000E+00 0. -1.
         -4    1    3    3    0  503  0.39398451878E+03 -0.13764939461E+03  0.27291146585E+03  0.49865000257E+03  0.00000000000E+00 0. -1.
<mgrwt>
<rscale>  2 0.11786362E+04</rscale>
<asrwt>0</asrwt>
<pdfrwt beam="1">  1       21 0.17819293E+00 0.11787132E+04</pdfrwt>
<pdfrwt beam="2">  1       21 0.18453836E+00 0.11787132E+04</pdfrwt>
<totfact> 0.13367084E+01</totfact>
</mgrwt>
</event>
<event>
 8    1  0.5815007E-006  0.1355339E+04  0.7818608E-02  0.8510294E-01
         21   -1    0    0  501  502  0.00000000000E+00  0.00000000000E+00  0.18746753593E+04  0.18746753593E+04  0.00000000000E+00 0.  1.
         21   -1    0    0  502  503 -0.00000000000E+00 -0.00000000000E+00 -0.93008020833E+03  0.93008020833E+03  0.00000000000E+00 0.  1.
   -9000010    2    1    2    0  503 -0.58697336131E+03 -0.70237481666E+03  0.40856507967E+03  0.14155809427E+04  0.99953782868E+03 0.  0.
    9000010    2    1    2  501    0  0.58697336131E+03  0.70237481666E+03  0.53603007132E+03  0.13891746250E+04  0.89700044111E+03 0.  0.
        -13    1    4    4    0    0  0.11596636896E+03  0.30003281609E+03 -0.23628744166E+03  0.39912360956E+03  0.10566000000E+00 0.  1.
          4    1    4    4  501    0  0.47100699235E+03  0.40234200058E+03  0.77231751298E+03  0.99005101542E+03  0.00000000000E+00 0.  1.
         13    1    3    3    0    0 -0.28029640428E+02 -0.17559848533E+03  0.59852493181E+03  0.62438176940E+03  0.10566000000E+00 0. -1.
         -4    1    3    3    0  503 -0.55894372089E+03 -0.52677633134E+03 -0.18995985214E+03  0.79119917328E+03  0.00000000000E+00 0. -1.
<mgrwt>
<rscale>  2 0.13365137E+04</rscale>
<asrwt>0</asrwt>
<pdfrwt beam="1">  1       21 0.28841159E+00 0.13553391E+04</pdfrwt>
<pdfrwt beam="2">  1       21 0.14308926E+00 0.13553391E+04</pdfrwt>
<totfact> 0.43635938E+00</totfact>
</mgrwt>
</event>
<event>
 8    1  0.5815007E-006  0.1054688E+04  0.7818608E-02  0.8728536E-01
         21   -1    0    0  501  502  0.00000000000E+00  0.00000000000E+00  0.51394278808E+03  0.51394278808E+03  0.00000000000E+00 0. -1.
         21   -1    0    0  502  503 -0.00000000000E+00 -0.00000000000E+00 -0.21667074964E+04  0.21667074964E+04  0.00000000000E+00 0. -1.
   -9000010    2    1    2    0  503 -0.35537296666E+03  0.52668934236E+02 -0.99355679209E+03  0.14368968353E+04  0.97388574998E+03 0.  0.
    9000010    2    1    2  501    0  0.35537296666E+03 -0.52668934236E+02 -0.65920791627E+03  0.12437534493E+04  0.99161666162E+03 0.  0.
        -13    1    4    4    0    0  0.63529328544E+03 -0.16620623978E+03 -0.18627518907E+03  0.68258371640E+03  0.10566000000E+00 0.  1.
          4    1    4    4  501    0 -0.27992031878E+03  0.11353730555E+03 -0.47293272720E+03  0.56116973286E+03  0.00000000000E+00 0.  1.
         13    1    3    3    0    0 -0.40866437700E+03  0.45227635210E+03 -0.74775437015E+03  0.96472642804E+03  0.10566000000E+00 0. -1.
         -4    1    3    3    0  503  0.53291410348E+02 -0.39960741787E+03 -0.24580242194E+03  0.47217040723E+03  0.00000000000E+00 0. -1.
<mgrwt>
<rscale>  2 0.10505002E+04</rscale>
<asrwt>0</asrwt>
<pdfrwt beam="1">  1       21 0.79068120E-01 0.10546884E+04</pdfrwt>
<pdfrwt beam="2">  1       21 0.33333962E+00 0.10546884E+04</pdfrwt>
<totfact> 0.11103287E+01</totfact>
</mgrwt>
</event>
<event>
 8    1  0.5815007E-006  0.1068881E+04  0.7818608E-02  0.8716726E-01
         21   -1    0    0  503  502  0.00000000000E+00  0.00000000000E+00  0.10843176025E+04  0.10843176025E+04  0.00000000000E+00 0.  1.
         21   -1    0    0  501  503 -0.00000000000E+00 -0.00000000000E+00 -0.10455094869E+04  0.10455094869E+04  0.00000000000E+00 0.  1.
    9000010    2    1    2  501    0 -0.28245484025E+03 -0.25854494241E+03  0.12891966534E+03  0.10571544455E+04  0.97689764942E+03 0.  0.
   -9000010    2    1    2    0  502  0.28245484025E+03  0.25854494241E+03 -0.90111549764E+02  0.10726726439E+04  0.99793801690E+03 0.  0.
        -13    1    3    3    0    0 -0.18466506329E+03 -0.56068668707E+03 -0.17692124129E+03  0.61625634556E+03  0.10566000000E+00 0.  1.
          4    1    3    3  501    0 -0.97789776967E+02  0.30214174465E+03  0.30584090663E+03  0.44089809992E+03  0.00000000000E+00 0.  1.
         13    1    4    4    0    0  0.10473681416E+03 -0.34004173383E+03  0.17233953062E+03  0.39534681732E+03  0.10566000000E+00 0. -1.
         -4    1    4    4    0  502  0.17771802609E+03  0.59858667624E+03 -0.26245108039E+03  0.67732582659E+03  0.00000000000E+00 0. -1.
<mgrwt>
<rscale>  2 0.10639426E+04</rscale>
<asrwt>0</asrwt>
<pdfrwt beam="1">  1       21 0.16681809E+00 0.10688810E+04</pdfrwt>
<pdfrwt beam="2">  1       21 0.16084761E+00 0.10688810E+04</pdfrwt>
<totfact> 0.26821178E+01</totfact>
</mgrwt>
</event>
<event>
 8    1  0.5815007E-006  0.1073228E+04  0.7818608E-02  0.8709213E-01
         21   -1    0    0  503  502  0.00000000000E+00  0.00000000000E+00  0.10423977525E+04  0.10423977525E+04  0.00000000000E+00 0.  1.
         21   -1    0    0  501  503 -0.00000000000E+00 -0.00000000000E+00 -0.11293608958E+04  0.11293608958E+04  0.00000000000E+00 0.  1.
    9000010    2    1    2  501    0  0.14820084843E+03  0.37826088365E+03  0.12433956588E+03  0.10779269055E+04  0.99066709765E+03 0.  0.
   -9000010    2    1    2    0  502 -0.14820084843E+03 -0.37826088365E+03 -0.21130270914E+03  0.10938317428E+04  0.99336511873E+03 0.  0.
        -13    1    3    3    0    0 -0.23642065046E+03 -0.15606124038E+03 -0.19728173849E+03  0.34520997989E+03  0.10566000000E+00 0.  1.
          4    1    3    3  501    0  0.38462149889E+03  0.53432212403E+03  0.32162130437E+03  0.73271692560E+03  0.00000000000E+00 0.  1.
         13    1    4    4    0    0 -0.49109666553E+02 -0.80505328747E+02 -0.59257069356E+03  0.60002742049E+03  0.10566000000E+00 0. -1.
         -4    1    4    4    0  502 -0.99091181874E+02 -0.29775555491E+03  0.38126798442E+03  0.49380432232E+03  0.00000000000E+00 0. -1.
<mgrwt>
<rscale>  2 0.10726036E+04</rscale>
<asrwt>0</asrwt>
<pdfrwt beam="1">  1       21 0.16036889E+00 0.10732283E+04</pdfrwt>
<pdfrwt beam="2">  1       21 0.17374783E+00 0.10732283E+04</pdfrwt>
<totfact> 0.23665917E+01</totfact>
</mgrwt>
</event>
<event>
 8    1  0.5815007E-006  0.1121288E+04  0.7818608E-02  0.8671420E-01
         21   -1    0    0  503  502  0.00000000000E+00  0.00000000000E+00  0.19202774666E+04  0.19202774666E+04  0.00000000000E+00 0. -1.
         21   -1    0    0  501  503 -0.00000000000E+00 -0.00000000000E+00 -0.67268752212E+03  0.67268752212E+03  0.00000000000E+00 0. -1.
    9000010    2    1    2  501    0  0.49317738154E+03  0.17287648435E+02  0.36945401807E+03  0.11805862472E+04  0.10068588894E+04 0.  0.
   -9000010    2    1    2    0  502 -0.49317738154E+03 -0.17287648435E+02  0.87813592644E+03  0.14123787416E+04  0.99003444988E+03 0.  0.
        -13    1    3    3    0    0  0.26928574215E+03 -0.37976211552E+03 -0.15035740755E+03  0.48922534325E+03  0.10566000000E+00 0.  1.
          4    1    3    3  501    0  0.22389163939E+03  0.39704976396E+03  0.51981142563E+03  0.69136090391E+03  0.00000000000E+00 0.  1.
         13    1    4    4    0    0 -0.31658407717E+03 -0.18490924634E+03  0.10514352820E+04  0.11135228200E+04  0.10566000000E+00 0. -1.
         -4    1    4    4    0  502 -0.17659330436E+03  0.16762159791E+03 -0.17329935555E+03  0.29885592158E+03  0.00000000000E+00 0. -1.
<mgrwt>
<rscale>  2 0.11174985E+04</rscale>
<asrwt>0</asrwt>
<pdfrwt beam="1">  1       21 0.29542730E+00 0.11212884E+04</pdfrwt>
<pdfrwt beam="2">  1       21 0.10349039E+00 0.11212884E+04</pdfrwt>
<totfact> 0.10189687E+01</totfact>
</mgrwt>
</event>
<event>
 8    1  0.5815007E-006  0.1182285E+04  0.7818608E-02  0.8629677E-01
         21   -1    0    0  501  502  0.00000000000E+00  0.00000000000E+00  0.14605821137E+04  0.14605821137E+04  0.00000000000E+00 0.  1.
         21   -1    0    0  502  503 -0.00000000000E+00 -0.00000000000E+00 -0.93337851907E+03  0.93337851907E+03  0.00000000000E+00 0.  1.
   -9000010    2    1    2    0  503 -0.15024120207E+03  0.50254582477E+03  0.11332176133E+03  0.11877034870E+04  0.10595626582E+04 0.  0.
    9000010    2    1    2  501    0  0.15024120207E+03 -0.50254582477E+03  0.41388183327E+03  0.12062571457E+04  0.10043074255E+04 0.  0.
        -13    1    4    4    0    0 -0.41453885913E+03 -0.19929205224E+03  0.31536163010E+03  0.55768517706E+03  0.10566000000E+00 0.  1.
          4    1    4    4  501    0  0.56478006120E+03 -0.30325377253E+03  0.98520203178E+02  0.64857196865E+03  0.00000000000E+00 0.  1.
         13    1    3    3    0    0 -0.19711142686E+03  0.31921366921E+03 -0.45440814755E+03  0.58926823853E+03  0.10566000000E+00 0. -1.
         -4    1    3    3    0  503  0.46870224791E+02  0.18333215556E+03  0.56772990888E+03  0.59843524851E+03  0.00000000000E+00 0. -1.
<mgrwt>
<rscale>  2 0.11697742E+04</rscale>
<asrwt>0</asrwt>
<pdfrwt beam="1">  1       21 0.22470494E+00 0.11822850E+04</pdfrwt>
<pdfrwt beam="2">  1       21 0.14359669E+00 0.11822850E+04</pdfrwt>
<totfact> 0.12968667E+01</totfact>
</mgrwt>
</event>
<event>
 8    1  0.5815007E-006  0.1325867E+04  0.7818608E-02  0.8521505E-01
         21   -1    0    0  501  502  0.00000000000E+00  0.00000000000E+00  0.24350839087E+04  0.24350839087E+04  0.00000000000E+00 0. -1.
         21   -1    0    0  502  503 -0.00000000000E+00 -0.00000000000E+00 -0.89004406044E+03  0.89004406044E+03  0.00000000000E+00 0. -1.
   -9000010    2    1    2    0  503 -0.18438981657E+03  0.84154926964E+03  0.16144567940E+02  0.13014076751E+04  0.97529303913E+03 0.  0.
    9000010    2    1    2  501    0  0.18438981657E+03 -0.84154926964E+03  0.15288952804E+04  0.20237202940E+04  0.10078284936E+04 0.  0.
        -13    1    4    4    0    0 -0.11891608529E+03 -0.66918556593E+03  0.15307475831E+04  0.16748547791E+04  0.10566000000E+00 0.  1.
          4    1    4    4  501    0  0.30330590186E+03 -0.17236370370E+03 -0.18523026975E+01  0.34886551489E+03  0.00000000000E+00 0.  1.
         13    1    3    3    0    0  0.24831507130E+03  0.31270889353E+02 -0.24107264906E+03  0.34749716034E+03  0.10566000000E+00 0. -1.
         -4    1    3    3    0  503 -0.43270488786E+03  0.81027838028E+03  0.25721721700E+03  0.95391051481E+03  0.00000000000E+00 0. -1.
<mgrwt>
<rscale>  2 0.13196839E+04</rscale>
<asrwt>0</asrwt>
<pdfrwt beam="1">  1       21 0.37462829E+00 0.13258669E+04</pdfrwt>
<pdfrwt beam="2">  1       21 0.13692986E+00 0.13258669E+04</pdfrwt>
<totfact> 0.12374320E+00</totfact>
</mgrwt>
</event>
<event>
 8    1  0.5815007E-006  0.1246051E+04  0.7818608E-02  0.8577339E-01
         21   -1    0    0  501  502  0.00000000000E+00  0.00000000000E+00  0.14583743572E+04  0.14583743572E+04  0.00000000000E+00 0.  1.
         21   -1    0    0  502  503 -0.00000000000E+00 -0.00000000000E+00 -0.10455703883E+04  0.10455703883E+04  0.00000000000E+00 0.  1.
   -9000010    2    1    2    0  503 -0.43063648228E+03  0.54207001000E+03  0.13994158793E+03  0.12283679761E+04  0.10049958015E+04 0.  0.
    9000010    2    1    2  501    0  0.43063648228E+03 -0.54207001000E+03  0.27286238097E+03  0.12755767694E+04  0.10360282525E+04 0.  0.
        -13    1    4    4    0    0  0.13297523847E+03 -0.80086961879E+03  0.33130723401E+03  0.87683467930E+03  0.10566000000E+00 0.  1.
          4    1    4    4  501    0  0.29766124381E+03  0.25879960879E+03 -0.58444853035E+02  0.39874209011E+03  0.00000000000E+00 0.  1.
         13    1    3    3    0    0 -0.38639249538E+03  0.44488075318E+03  0.54914062132E+03  0.80546475912E+03  0.10566000000E+00 0. -1.
         -4    1    3    3    0  503 -0.44243986897E+02  0.97189256825E+02 -0.40919903339E+03  0.42290321700E+03  0.00000000000E+00 0. -1.
<mgrwt>
<rscale>  2 0.12395804E+04</rscale>
<asrwt>0</asrwt>
<pdfrwt beam="1">  1       21 0.22436529E+00 0.12460506E+04</pdfrwt>
<pdfrwt beam="2">  1       21 0.16085698E+00 0.12460506E+04</pdfrwt>
<totfact> 0.90488744E+00</totfact>
</mgrwt>
</event>
<event>
 8    1  0.5815007E-006  0.1511176E+04  0.7818608E-02  0.8408080E-01
         21   -1    0    0  503  502  0.00000000000E+00  0.00000000000E+00  0.14947035928E+04  0.14947035928E+04  0.00000000000E+00 0.  1.
         21   -1    0    0  501  503 -0.00000000000E+00 -0.00000000000E+00 -0.15360218150E+04  0.15360218150E+04  0.00000000000E+00 0. -1.
    9000010    2    1    2  501    0  0.11072529476E+04  0.25590506690E+03 -0.27368159228E+03  0.15017890105E+04  0.94285318316E+03 0.  0.
   -9000010    2    1    2    0  502 -0.11072529476E+04 -0.25590506690E+03  0.23236337006E+03  0.15289363972E+04  0.99607092008E+03 0.  0.
        -13    1    3    3    0    0 -0.83873685412E+02 -0.15806074012E+03 -0.15225259443E+03  0.23494436862E+03  0.10566000000E+00 0.  1.
          4    1    3    3  501    0  0.11911266330E+04  0.41396580702E+03 -0.12142899784E+03  0.12668446419E+04  0.00000000000E+00 0.  1.
         13    1    4    4    0    0 -0.37829250633E+03 -0.28286037507E+03  0.55715670535E+03  0.73043741526E+03  0.10566000000E+00 0. -1.
         -4    1    4    4    0  502 -0.72896044126E+03  0.26955308170E+02 -0.32479333529E+03  0.79849898197E+03  0.00000000000E+00 0. -1.
<mgrwt>
<rscale>  2 0.15024675E+04</rscale>
<asrwt>0</asrwt>
<pdfrwt beam="1">  1       21 0.22995440E+00 0.15111763E+04</pdfrwt>
<pdfrwt beam="2">  1       21 0.23631105E+00 0.15111763E+04</pdfrwt>
<totfact> 0.19767791E+00</totfact>
</mgrwt>
</event>
<event>
 8    1  0.5815007E-006  0.1187066E+04  0.7818608E-02  0.8646206E-01
         21   -1    0    0  503  502  0.00000000000E+00  0.00000000000E+00  0.13874951487E+04  0.13874951487E+04  0.00000000000E+00 0. -1.
         21   -1    0    0  501  503 -0.00000000000E+00 -0.00000000000E+00 -0.10465177815E+04  0.10465177815E+04  0.00000000000E+00 0. -1.
    9000010    2    1    2  501    0 -0.91024773347E+02  0.27832312888E+03 -0.30212707971E+03  0.10839358038E+04  0.99894283176E+03 0.  0.
   -9000010    2    1    2    0  502  0.91024773347E+02 -0.27832312888E+03  0.64310444686E+03  0.13500771264E+04  0.11503806518E+04 0.  0.
        -13    1    3    3    0    0  0.32808167891E+03 -0.21293289461E+03 -0.67595319027E+02  0.39692208803E+03  0.10566000000E+00 0.  1.
          4    1    3    3  501    0 -0.41910645226E+03  0.49125602350E+03 -0.23453176068E+03  0.68701371581E+03  0.00000000000E+00 0.  1.
         13    1    4    4    0    0 -0.18748335791E+03  0.40584055929E+03  0.21163917952E+03  0.49461876484E+03  0.10566000000E+00 0. -1.
         -4    1    4    4    0  502  0.27850813126E+03 -0.68416368817E+03  0.43146526734E+03  0.85545836153E+03  0.00000000000E+00 0. -1.
<mgrwt>
<rscale>  2 0.11487261E+04</rscale>
<asrwt>0</asrwt>
<pdfrwt beam="1">  1       21 0.21346079E+00 0.11870657E+04</pdfrwt>
<pdfrwt beam="2">  1       21 0.16100274E+00 0.11870657E+04</pdfrwt>
<totfact> 0.11041432E+01</totfact>
</mgrwt>
</event>
<event>
 8    1  0.5815007E-006  0.1034311E+04  0.7818608E-02  0.8743530E-01
         21   -1    0    0  501  502  0.00000000000E+00  0.00000000000E+00  0.11164195815E+04  0.11164195815E+04  0.00000000000E+00 0.  1.
         21   -1    0    0  502  503 -0.00000000000E+00 -0.00000000000E+00 -0.10462171907E+04  0.10462171907E+04  0.00000000000E+00 0.  1.
   -9000010    2    1    2    0  503 -0.88203337622E+02  0.27397959578E+03 -0.28230983172E+03  0.10699039519E+04  0.99103530586E+03 0.  0.
    9000010    2    1    2  501    0  0.88203337622E+02 -0.27397959578E+03  0.35251222252E+03  0.10927328204E+04  0.99345634126E+03 0.  0.
        -13    1    4    4    0    0 -0.40943221683E+03 -0.10773055212E+02  0.33562636790E+03  0.52952419104E+03  0.10566000000E+00 0.  1.
          4    1    4    4  501    0  0.49763555446E+03 -0.26320654057E+03  0.16885854616E+02  0.56320862932E+03  0.00000000000E+00 0.  1.
         13    1    3    3    0    0 -0.72011858061E+02  0.61060432028E+03 -0.37525876406E+03  0.72030722251E+03  0.10566000000E+00 0. -1.
         -4    1    3    3    0  503 -0.16191479561E+02 -0.33662472450E+03  0.92948932340E+02  0.34959672935E+03  0.00000000000E+00 0. -1.
<mgrwt>
<rscale>  2 0.10337297E+04</rscale>
<asrwt>0</asrwt>
<pdfrwt beam="1">  1       21 0.17175686E+00 0.10343114E+04</pdfrwt>
<pdfrwt beam="2">  1       21 0.16095649E+00 0.10343114E+04</pdfrwt>
<totfact> 0.24513922E+01</totfact>
</mgrwt>
</event>
<event>
 8    1  0.5815007E-006  0.1151817E+04  0.7818608E-02  0.8678525E-01
         21   -1    0    0  503  502  0.00000000000E+00  0.00000000000E+00  0.17383165241E+04  0.17383165241E+04  0.00000000000E+00 0.  1.
         21   -1    0    0  501  503 -0.00000000000E+00 -0.00000000000E+00 -0.80446811243E+03  0.80446811243E+03  0.00000000000E+00 0.  1.
    9000010    2    1    2  501    0  0.35414258633E+03  0.42484829107E+03 -0.42660983442E+02  0.11526070913E+04  0.10103316810E+04 0.  0.
   -9000010    2    1    2    0  502 -0.35414258633E+03 -0.42484829107E+03  0.97650939514E+03  0.13901775452E+04  0.82043279222E+03 0.  0.
        -13    1    3    3    0    0 -0.15317044070E+03 -0.32352040906E+02  0.33674785380E+03  0.37135827264E+03  0.10566000000E+00 0.  1.
          4    1    3    3  501    0  0.50731302703E+03  0.45720033197E+03 -0.37940883724E+03  0.78124881870E+03  0.00000000000E+00 0.  1.
         13    1    4    4    0    0 -0.18824595585E+03 -0.28777805751E+03  0.10927582366E+04  0.11455886369E+04  0.10566000000E+00 0. -1.
         -4    1    4    4    0  502 -0.16589663049E+03 -0.13707023356E+03 -0.11624884142E+03  0.24458890831E+03  0.00000000000E+00 0. -1.
<mgrwt>
<rscale>  2 0.11088858E+04</rscale>
<asrwt>0</asrwt>
<pdfrwt beam="1">  1       21 0.26743331E+00 0.11518173E+04</pdfrwt>
<pdfrwt beam="2">  1       21 0.12376433E+00 0.11518173E+04</pdfrwt>
<totfact> 0.98132879E+00</totfact>
</mgrwt>
</event>
<event>
 8    1  0.5815007E-006  0.1070158E+04  0.7818608E-02  0.8711428E-01
         21   -1    0    0  501  502  0.00000000000E+00  0.00000000000E+00  0.22428579196E+04  0.22428579196E+04  0.00000000000E+00 0.  1.
         21   -1    0    0  502  503 -0.00000000000E+00 -0.00000000000E+00 -0.51694877326E+03  0.51694877326E+03  0.00000000000E+00 0.  1.
   -9000010    2    1    2    0  503 -0.29778058498E+03  0.21571440897E+03  0.10181690912E+04  0.14767889756E+04  0.10045055486E+04 0.  0.
    9000010    2    1    2  501    0  0.29778058498E+03 -0.21571440897E+03  0.70774005507E+03  0.12830177172E+04  0.10050037284E+04 0.  0.
        -13    1    4    4    0    0 -0.28411222443E+03 -0.24545098154E+03  0.57289838024E+03  0.68496606168E+03  0.10566000000E+00 0.  1.
          4    1    4    4  501    0  0.58189280941E+03  0.29736572570E+02  0.13484167483E+03  0.59805165551E+03  0.00000000000E+00 0.  1.
         13    1    3    3    0    0 -0.37151467738E+03  0.35818309378E+03  0.76674161114E+02  0.52172523642E+03  0.10566000000E+00 0. -1.
         -4    1    3    3    0  503  0.73734092398E+02 -0.14246868481E+03  0.94149493011E+03  0.95506373921E+03  0.00000000000E+00 0. -1.
<mgrwt>
<rscale>  2 0.10700412E+04</rscale>
<asrwt>0</asrwt>
<pdfrwt beam="1">  1       21 0.34505506E+00 0.10701582E+04</pdfrwt>
<pdfrwt beam="2">  1       21 0.79530581E-01 0.10701582E+04</pdfrwt>
<totfact> 0.90285494E+00</totfact>
</mgrwt>
</event>
<event>
 8    1  0.5815007E-006  0.1338559E+04  0.7818608E-02  0.8512119E-01
         21   -1    0    0  501  502  0.00000000000E+00  0.00000000000E+00  0.12820830075E+04  0.12820830075E+04  0.00000000000E+00 0.  1.
         21   -1    0    0  502  503 -0.00000000000E+00 -0.00000000000E+00 -0.14607353232E+04  0.14607353232E+04  0.00000000000E+00 0. -1.
   -9000010    2    1    2    0  503 -0.86006380079E+03  0.19699322798E+03 -0.41700881249E+03  0.14020111578E+04  0.10065897196E+04 0.  0.
    9000010    2    1    2  501    0  0.86006380079E+03 -0.19699322798E+03  0.23835649683E+03  0.13408071730E+04  0.98103719713E+03 0.  0.
        -13    1    4    4    0    0 -0.17908308487E+03 -0.85429687686E+02  0.21899024923E+03  0.29550926085E+03  0.10566000000E+00 0.  1.
          4    1    4    4  501    0  0.10391468857E+04 -0.11156354030E+03  0.19366247600E+02  0.10452979121E+04  0.00000000000E+00 0.  1.
         13    1    3    3    0    0 -0.87880349712E+03  0.95556888545E+02 -0.68275198794E+03  0.11169498618E+04  0.10566000000E+00 0. -1.
         -4    1    3    3    0  503  0.18739696334E+02  0.10143633944E+03  0.26574317545E+03  0.28506129600E+03  0.00000000000E+00 0. -1.
<mgrwt>
<rscale>  2 0.13337558E+04</rscale>
<asrwt>0</asrwt>
<pdfrwt beam="1">  1       21 0.19724354E+00 0.13385585E+04</pdfrwt>
<pdfrwt beam="2">  1       21 0.22472851E+00 0.13385585E+04</pdfrwt>
<totfact> 0.44325143E+00</totfact>
</mgrwt>
</event>
<event>
 8    1  0.5815007E-006  0.1476493E+04  0.7818608E-02  0.8424304E-01
         21   -1    0    0  501  502  0.00000000000E+00  0.00000000000E+00  0.97686866205E+03  0.97686866205E+03  0.00000000000E+00 0. -1.
         21   -1    0    0  502  503 -0.00000000000E+00 -0.00000000000E+00 -0.22246988689E+04  0.22246988689E+04  0.00000000000E+00 0. -1.
   -9000010    2    1    2    0  503  0.49349948817E+03 -0.96709577108E+03 -0.69675798928E+03  0.16255881166E+04  0.98906473696E+03 0.  0.
    9000010    2    1    2  501    0 -0.49349948817E+03  0.96709577108E+03 -0.55107221752E+03  0.15759794143E+04  0.10006070908E+04 0.  0.
        -13    1    4    4    0    0 -0.56478905795E+03  0.18618995398E+03  0.36963812322E+02  0.59583530739E+03  0.10566000000E+00 0.  1.
          4    1    4    4  501    0  0.71289569783E+02  0.78090581710E+03 -0.58803602985E+03  0.98014410692E+03  0.00000000000E+00 0.  1.
         13    1    3    3    0    0 -0.48087346419E+02 -0.57225616716E+03 -0.75978278080E+03  0.95239666049E+03  0.10566000000E+00 0. -1.
         -4    1    3    3    0  503  0.54158683459E+03 -0.39483960392E+03  0.63024791523E+02  0.67319145610E+03  0.00000000000E+00 0. -1.
<mgrwt>
<rscale>  2 0.14745394E+04</rscale>
<asrwt>0</asrwt>
<pdfrwt beam="1">  1       21 0.15028749E+00 0.14764926E+04</pdfrwt>
<pdfrwt beam="2">  1       21 0.34226136E+00 0.14764926E+04</pdfrwt>
<totfact> 0.15311657E+00</totfact>
</mgrwt>
</event>
<event>
 8    1  0.5815007E-006  0.1016394E+04  0.7818608E-02  0.8767214E-01
         21   -1    0    0  501  502  0.00000000000E+00  0.00000000000E+00  0.42733612381E+03  0.42733612381E+03  0.00000000000E+00 0.  1.
         21   -1    0    0  502  503 -0.00000000000E+00 -0.00000000000E+00 -0.25179000275E+04  0.25179000275E+04  0.00000000000E+00 0.  1.
   -9000010    2    1    2    0  503  0.21365748203E+03 -0.97374525236E+02 -0.14223381086E+04  0.17288553530E+04  0.95433946717E+03 0.  0.
    9000010    2    1    2  501    0 -0.21365748203E+03  0.97374525236E+02 -0.66822579508E+03  0.12163807983E+04  0.98890101401E+03 0.  0.
        -13    1    4    4    0    0  0.64183096726E+01  0.52242714491E+03 -0.45326600087E+03  0.69168012487E+03  0.10566000000E+00 0.  1.
          4    1    4    4  501    0 -0.22007579170E+03 -0.42505261967E+03 -0.21495979421E+03  0.52470067344E+03  0.00000000000E+00 0.  1.
         13    1    3    3    0    0 -0.40004194109E+02 -0.40430636406E+03 -0.21941715279E+03  0.46174437697E+03  0.10566000000E+00 0. -1.
         -4    1    3    3    0  503  0.25366167614E+03  0.30693183882E+03 -0.12029209558E+04  0.12671109760E+04  0.00000000000E+00 0. -1.
<mgrwt>
<rscale>  2 0.10078892E+04</rscale>
<asrwt>0</asrwt>
<pdfrwt beam="1">  1       21 0.65744018E-01 0.10163939E+04</pdfrwt>
<pdfrwt beam="2">  1       21 0.38736924E+00 0.10163939E+04</pdfrwt>
<totfact> 0.72674452E+00</totfact>
</mgrwt>
</event>
<event>
 8    1  0.5815007E-006  0.1169221E+04  0.7818608E-02  0.8648151E-01
         21   -1    0    0  501  502  0.00000000000E+00  0.00000000000E+00  0.64476287556E+03  0.64476287556E+03  0.00000000000E+00 0.  1.
         21   -1    0    0  502  503 -0.00000000000E+00 -0.00000000000E+00 -0.20204817021E+04  0.20204817021E+04  0.00000000000E+00 0.  1.
   -9000010    2    1    2    0  503 -0.24666046525E+03  0.91011740649E+02 -0.94128065037E+03  0.15010289627E+04  0.11392779126E+04 0.  0.
    9000010    2    1    2  501    0  0.24666046525E+03 -0.91011740649E+02 -0.43443817614E+03  0.11642156149E+04  0.10476339757E+04 0.  0.
        -13    1    4    4    0    0  0.51834799115E+03  0.28065664496E+03 -0.10654539441E+03  0.59900310894E+03  0.10566000000E+00 0.  1.
          4    1    4    4  501    0 -0.27168752590E+03 -0.37166838561E+03 -0.32789278173E+03  0.56521250597E+03  0.00000000000E+00 0.  1.
         13    1    3    3    0    0 -0.64968898200E+03 -0.14098386290E+03 -0.35804563091E+03  0.75509529724E+03  0.10566000000E+00 0. -1.
         -4    1    3    3    0  503  0.40302851675E+03  0.23199560355E+03 -0.58323501946E+03  0.74593366548E+03  0.00000000000E+00 0. -1.
<mgrwt>
<rscale>  2 0.11462799E+04</rscale>
<asrwt>0</asrwt>
<pdfrwt beam="1">  1       21 0.99194291E-01 0.11692214E+04</pdfrwt>
<pdfrwt beam="2">  1       21 0.31084333E+00 0.11692214E+04</pdfrwt>
<totfact> 0.87771262E+00</totfact>
</mgrwt>
</event>
<event>
 8    1  0.5815007E-006  0.1058307E+04  0.7818608E-02  0.8729363E-01
         21   -1    0    0  503  502  0.00000000000E+00  0.00000000000E+00  0.97064944186E+03  0.97064944186E+03  0.00000000000E+00 0.  1.
         21   -1    0    0  501  503 -0.00000000000E+00 -0.00000000000E+00 -0.11287729548E+04  0.11287729548E+04  0.00000000000E+00 0.  1.
    9000010    2    1    2  501    0 -0.17150977744E+03  0.25579700486E+03 -0.18962320609E+03  0.10751603116E+04  0.10125043328E+04 0.  0.
   -9000010    2    1    2    0  502  0.17150977744E+03 -0.25579700486E+03  0.31499693134E+02  0.10242620851E+04  0.97635694132E+03 0.  0.
        -13    1    3    3    0    0 -0.22922098995E+03  0.55177394081E+03  0.15496281521E+03  0.61726026055E+03  0.10566000000E+00 0.  1.
          4    1    3    3  501    0  0.57711212513E+02 -0.29597693595E+03 -0.34458602130E+03  0.45790005103E+03  0.00000000000E+00 0.  1.
         13    1    4    4    0    0 -0.13922054020E+03  0.17119700543E+03  0.34544161702E+03  0.40990327569E+03  0.10566000000E+00 0. -1.
         -4    1    4    4    0  502  0.31073031764E+03 -0.42699401029E+03 -0.31394192389E+03  0.61435880941E+03  0.00000000000E+00 0. -1.
<mgrwt>
<rscale>  2 0.10495666E+04</rscale>
<asrwt>0</asrwt>
<pdfrwt beam="1">  1       21 0.14933068E+00 0.10583065E+04</pdfrwt>
<pdfrwt beam="2">  1       21 0.17365738E+00 0.10583065E+04</pdfrwt>
<totfact> 0.29728719E+01</totfact>
</mgrwt>
</event>
<event>
 8    1  0.5815007E-006  0.1011749E+04  0.7818608E-02  0.8764316E-01
         21   -1    0    0  501  502  0.00000000000E+00  0.00000000000E+00  0.72773581331E+03  0.72773581331E+03  0.00000000000E+00 0.  1.
         21   -1    0    0  502  503 -0.00000000000E+00 -0.00000000000E+00 -0.14024998305E+04  0.14024998305E+04  0.00000000000E+00 0.  1.
   -9000010    2    1    2    0  503 -0.16279800384E+03 -0.11003986942E+03 -0.33537020118E+03  0.10630785340E+04  0.98946997664E+03 0.  0.
    9000010    2    1    2  501    0  0.16279800384E+03  0.11003986942E+03 -0.33939381597E+03  0.10671571098E+04  0.99248383953E+03 0.  0.
        -13    1    4    4    0    0  0.12209078940E+03  0.52634662150E+03 -0.35848796855E+03  0.64842930345E+03  0.10566000000E+00 0.  1.
          4    1    4    4  501    0  0.40707214445E+02 -0.41630675208E+03  0.19094152579E+02  0.41872780633E+03  0.00000000000E+00 0.  1.
         13    1    3    3    0    0  0.29244146084E+03 -0.23459709249E+03 -0.44161707896E+03  0.57929565804E+03  0.10566000000E+00 0. -1.
         -4    1    3    3    0  503 -0.45523946468E+03  0.12455722307E+03  0.10624687779E+03  0.48378287595E+03  0.00000000000E+00 0. -1.
<mgrwt>
<rscale>  2 0.10110092E+04</rscale>
<asrwt>0</asrwt>
<pdfrwt beam="1">  1       21 0.11195936E+00 0.10117490E+04</pdfrwt>
<pdfrwt beam="2">  1       21 0.21576920E+00 0.10117490E+04</pdfrwt>
<totfact> 0.32058735E+01</totfact>
</mgrwt>
</event>
<event>
 8    1  0.5815007E-006  0.1170728E+04  0.7818608E-02  0.8642573E-01
         21   -1    0    0  503  502  0.00000000000E+00  0.00000000000E+00  0.16536153548E+04  0.16536153548E+04  0.00000000000E+00 0. -1.
         21   -1    0    0  501  503 -0.00000000000E+00 -0.00000000000E+00 -0.80465930404E+03  0.80465930404E+03  0.00000000000E+00 0. -1.
    9000010    2    1    2  501    0 -0.68297394542E+02  0.45751178188E+03  0.20292198500E+03  0.11211271139E+04  0.10008831644E+04 0.  0.
   -9000010    2    1    2    0  502  0.68297394542E+02 -0.45751178188E+03  0.64603406573E+03  0.13371475450E+04  0.10754636108E+04 0.  0.
        -13    1    3    3    0    0  0.24813449653E+03 -0.15641365672E+03 -0.16710038008E+03  0.33757741122E+03  0.10566000000E+00 0.  1.
          4    1    3    3  501    0 -0.31643189107E+03  0.61392543860E+03  0.37002236507E+03  0.78354970264E+03  0.00000000000E+00 0.  1.
         13    1    4    4    0    0  0.17836412452E+02 -0.16165258138E+03 -0.30185414450E+03  0.34287844842E+03  0.10566000000E+00 0. -1.
         -4    1    4    4    0  502  0.50460982091E+02 -0.29585920050E+03  0.94788821023E+03  0.99426909653E+03  0.00000000000E+00 0. -1.
<mgrwt>
<rscale>  2 0.11533136E+04</rscale>
<asrwt>0</asrwt>
<pdfrwt beam="1">  1       21 0.25440236E+00 0.11707278E+04</pdfrwt>
<pdfrwt beam="2">  1       21 0.12379374E+00 0.11707278E+04</pdfrwt>
<totfact> 0.12130147E+01</totfact>
</mgrwt>
</event>
<event>
 8    1  0.5815007E-006  0.1210571E+04  0.7818608E-02  0.8599290E-01
         21   -1    0    0  501  502  0.00000000000E+00  0.00000000000E+00  0.16817074427E+04  0.16817074427E+04  0.00000000000E+00 0. -1.
         21   -1    0    0  502  503 -0.00000000000E+00 -0.00000000000E+00 -0.89411983046E+03  0.89411983046E+03  0.00000000000E+00 0. -1.
   -9000010    2    1    2    0  503 -0.64059511600E+03 -0.23201591925E+03  0.17709035741E+03  0.12200290530E+04  0.99645190857E+03 0.  0.
    9000010    2    1    2  501    0  0.64059511600E+03  0.23201591925E+03  0.61049725481E+03  0.13557982201E+04  0.10006440057E+04 0.  0.
        -13    1    4    4    0    0  0.58985990867E+03 -0.21431398933E+03  0.65164484989E+03  0.90471333550E+03  0.10566000000E+00 0.  1.
          4    1    4    4  501    0  0.50735207323E+02  0.44632990858E+03 -0.41147595083E+02  0.45108488462E+03  0.00000000000E+00 0.  1.
         13    1    3    3    0    0 -0.71436363114E+03 -0.17374585735E+03  0.49645668856E+03  0.88711457840E+03  0.10566000000E+00 0. -1.
         -4    1    3    3    0  503  0.73768515140E+02 -0.58270061898E+02 -0.31936633115E+03  0.33291447462E+03  0.00000000000E+00 0. -1.
<mgrwt>
<rscale>  2 0.12097043E+04</rscale>
<asrwt>0</asrwt>
<pdfrwt beam="1">  1       21 0.25872422E+00 0.12105709E+04</pdfrwt>
<pdfrwt beam="2">  1       21 0.13755690E+00 0.12105709E+04</pdfrwt>
<totfact> 0.82435412E+00</totfact>
</mgrwt>
</event>
<event>
 8    1  0.5815007E-006  0.1066309E+04  0.7818608E-02  0.8714707E-01
         21   -1    0    0  503  502  0.00000000000E+00  0.00000000000E+00  0.21300208913E+04  0.21300208913E+04  0.00000000000E+00 0.  1.
         21   -1    0    0  501  503 -0.00000000000E+00 -0.00000000000E+00 -0.53377932502E+03  0.53377932502E+03  0.00000000000E+00 0.  1.
    9000010    2    1    2  501    0  0.35134771634E+03  0.10724877732E+03  0.78294909347E+03  0.13228848932E+04  0.10010332860E+04 0.  0.
   -9000010    2    1    2    0  502 -0.35134771634E+03 -0.10724877732E+03  0.81329247280E+03  0.13409153231E+04  0.10008305249E+04 0.  0.
        -13    1    3    3    0    0  0.50895967050E+03  0.20617714893E+03  0.93382550177E+03  0.10833185320E+04  0.10566000000E+00 0.  1.
          4    1    3    3  501    0 -0.15761195416E+03 -0.98928371609E+02 -0.15087640830E+03  0.23956636113E+03  0.00000000000E+00 0.  1.
         13    1    4    4    0    0 -0.32469771870E+03 -0.53403575364E+02  0.10481008614E+04  0.10985426607E+04  0.10566000000E+00 0. -1.
         -4    1    4    4    0  502 -0.26649997641E+02 -0.53845201951E+02 -0.23480838863E+03  0.24237266248E+03  0.00000000000E+00 0. -1.
<mgrwt>
<rscale>  2 0.10662615E+04</rscale>
<asrwt>0</asrwt>
<pdfrwt beam="1">  1       21 0.32769552E+00 0.10663091E+04</pdfrwt>
<pdfrwt beam="2">  1       21 0.82119897E-01 0.10663091E+04</pdfrwt>
<totfact> 0.11058903E+01</totfact>
</mgrwt>
</event>
<event>
 8    1  0.5815007E-006  0.1318301E+04  0.7818608E-02  0.8525280E-01
         21   -1    0    0  503  502  0.00000000000E+00  0.00000000000E+00  0.20894430979E+04  0.20894430979E+04  0.00000000000E+00 0. -1.
         21   -1    0    0  501  503 -0.00000000000E+00 -0.00000000000E+00 -0.10840277468E+04  0.10840277468E+04  0.00000000000E+00 0.  1.
    9000010    2    1    2  501    0 -0.73334582807E+03  0.39393491255E+03 -0.27616574353E+03  0.13469170844E+04  0.10222217448E+04 0.  0.
   -9000010    2    1    2    0  502  0.73334582807E+03 -0.39393491255E+03  0.12815810946E+04  0.18265537602E+04  0.10004337650E+04 0.  0.
        -13    1    3    3    0    0 -0.32755673865E+03 -0.26356952045E+03  0.17137527979E+03  0.45401740807E+03  0.10566000000E+00 0.  1.
          4    1    3    3  501    0 -0.40578908942E+03  0.65750443300E+03 -0.44754102332E+03  0.89289967637E+03  0.00000000000E+00 0.  1.
         13    1    4    4    0    0  0.97056338025E+03 -0.21463628463E+03  0.10771000195E+04  0.14656761146E+04  0.10566000000E+00 0. -1.
         -4    1    4    4    0  502 -0.23721755219E+03 -0.17929862792E+03  0.20448107510E+03  0.36087764563E+03  0.00000000000E+00 0. -1.
<mgrwt>
<rscale>  2 0.13140755E+04</rscale>
<asrwt>0</asrwt>
<pdfrwt beam="1">  1       21 0.32145278E+00 0.13183012E+04</pdfrwt>
<pdfrwt beam="2">  1       21 0.16677350E+00 0.13183012E+04</pdfrwt>
<totfact> 0.15861669E+00</totfact>
</mgrwt>
</event>
<event>
 8    1  0.5815007E-006  0.1181603E+04  0.7818608E-02  0.8623148E-01
         21   -1    0    0  501  502  0.00000000000E+00  0.00000000000E+00  0.66801448788E+03  0.66801448788E+03  0.00000000000E+00 0. -1.
         21   -1    0    0  502  503 -0.00000000000E+00 -0.00000000000E+00 -0.20767143434E+04  0.20767143434E+04  0.00000000000E+00 0. -1.
   -9000010    2    1    2    0  503  0.38632216542E+03 -0.46673404012E+03 -0.79764141302E+03  0.14144738702E+04  0.99870867921E+03 0.  0.
    9000010    2    1    2  501    0 -0.38632216542E+03  0.46673404012E+03 -0.61105844250E+03  0.13302549611E+04  0.10144458397E+04 0.  0.
        -13    1    4    4    0    0 -0.83363998473E+02 -0.13820220341E+03  0.21096106743E+03  0.26562000754E+03  0.10566000000E+00 0.  1.
          4    1    4    4  501    0 -0.30295816694E+03  0.60493624354E+03 -0.82201950993E+03  0.10646349536E+04  0.00000000000E+00 0.  1.
         13    1    3    3    0    0 -0.10884670816E+03 -0.22238686878E+03 -0.82526630251E+03  0.86160780319E+03  0.10566000000E+00 0. -1.
         -4    1    3    3    0  503  0.49516887358E+03 -0.24434717135E+03  0.27624889494E+02  0.55286606699E+03  0.00000000000E+00 0. -1.
<mgrwt>
<rscale>  2 0.11782178E+04</rscale>
<asrwt>0</asrwt>
<pdfrwt beam="1">  1       21 0.10277146E+00 0.11816031E+04</pdfrwt>
<pdfrwt beam="2">  1       21 0.31949451E+00 0.11816031E+04</pdfrwt>
<totfact> 0.69321855E+00</totfact>
</mgrwt>
</event>
<event>
 8    1  0.5815007E-006  0.1206344E+04  0.7818608E-02  0.8602506E-01
         21   -1    0    0  503  502  0.00000000000E+00  0.00000000000E+00  0.16735598454E+04  0.16735598454E+04  0.00000000000E+00 0.  1.
         21   -1    0    0  501  503 -0.00000000000E+00 -0.00000000000E+00 -0.93001923130E+03  0.93001923130E+03  0.00000000000E+00 0.  1.
    9000010    2    1    2  501    0  0.67407000229E+03 -0.13537031708E+02  0.33043471454E+02  0.12067969605E+04  0.10003566433E+04 0.  0.
   -9000010    2    1    2    0  502 -0.67407000229E+03  0.13537031708E+02  0.71049714268E+03  0.13967821162E+04  0.99581146365E+03 0.  0.
        -13    1    3    3    0    0 -0.11856478358E+03 -0.32564961595E+03  0.72294068793E+02  0.35402220809E+03  0.10566000000E+00 0.  1.
          4    1    3    3  501    0  0.79263478587E+03  0.31211258425E+03 -0.39250597340E+02  0.85277475245E+03  0.00000000000E+00 0.  1.
         13    1    4    4    0    0 -0.84151709266E+03 -0.17655407957E+03  0.74928642322E+03  0.11405053772E+04  0.10566000000E+00 0. -1.
         -4    1    4    4    0  502  0.16744709037E+03  0.19009111128E+03 -0.38789280543E+02  0.25627673899E+03  0.00000000000E+00 0. -1.
<mgrwt>
<rscale>  2 0.12054018E+04</rscale>
<asrwt>0</asrwt>
<pdfrwt beam="1">  1       21 0.25747075E+00 0.12063445E+04</pdfrwt>
<pdfrwt beam="2">  1       21 0.14307988E+00 0.12063445E+04</pdfrwt>
<totfact> 0.74885734E+00</totfact>
</mgrwt>
</event>
<event>
 8    1  0.5815007E-006  0.1041640E+04  0.7818608E-02  0.8746562E-01
         21   -1    0    0  503  502  0.00000000000E+00  0.00000000000E+00  0.21969906115E+04  0.21969906115E+04  0.00000000000E+00 0.  1.
         21   -1    0    0  501  503 -0.00000000000E+00 -0.00000000000E+00 -0.47336642246E+03  0.47336642246E+03  0.00000000000E+00 0.  1.
    9000010    2    1    2  501    0 -0.23055326235E+02 -0.28169503429E+03  0.80976381415E+03  0.12846607798E+04  0.95642681058E+03 0.  0.
   -9000010    2    1    2    0  502  0.23055326235E+02  0.28169503429E+03  0.91386037487E+03  0.13856962541E+04  0.10025615610E+04 0.  0.
        -13    1    3    3    0    0  0.36274203994E+03 -0.95807462638E+02  0.75026142844E+01  0.37525612296E+03  0.10566000000E+00 0.  1.
          4    1    3    3  501    0 -0.38579736617E+03 -0.18588757165E+03  0.80226119986E+03  0.90940465682E+03  0.00000000000E+00 0.  1.
         13    1    4    4    0    0 -0.16916811584E+02  0.55495435590E+03  0.95678894518E+03  0.11062122818E+04  0.10566000000E+00 0. -1.
         -4    1    4    4    0  502  0.39972137820E+02 -0.27325932160E+03 -0.42928570312E+02  0.27948397234E+03  0.00000000000E+00 0. -1.
<mgrwt>
<rscale>  2 0.10303770E+04</rscale>
<asrwt>0</asrwt>
<pdfrwt beam="1">  1       21 0.33799855E+00 0.10416397E+04</pdfrwt>
<pdfrwt beam="2">  1       21 0.72825605E-01 0.10416397E+04</pdfrwt>
<totfact> 0.12588918E+01</totfact>
</mgrwt>
</event>
<event>
 8    1  0.5815007E-006  0.1237412E+04  0.7818608E-02  0.8579084E-01
         21   -1    0    0  503  502  0.00000000000E+00  0.00000000000E+00  0.84136390709E+03  0.84136390709E+03  0.00000000000E+00 0.  1.
         21   -1    0    0  501  503 -0.00000000000E+00 -0.00000000000E+00 -0.18190269840E+04  0.18190269840E+04  0.00000000000E+00 0.  1.
    9000010    2    1    2  501    0 -0.37914086737E+03  0.63060377669E+03 -0.46603316519E+03  0.13222609952E+04  0.99487602644E+03 0.  0.
   -9000010    2    1    2    0  502  0.37914086737E+03 -0.63060377669E+03 -0.51162991174E+03  0.13381298959E+04  0.99368885026E+03 0.  0.
        -13    1    3    3    0    0 -0.49153843673E+03 -0.61683845728E+02 -0.36125901572E+03  0.61312561455E+03  0.10566000000E+00 0.  1.
          4    1    3    3  501    0  0.11239756936E+03  0.69228762242E+03 -0.10477414947E+03  0.70913538069E+03  0.00000000000E+00 0.  1.
         13    1    4    4    0    0 -0.24196222603E+03 -0.48059937943E+03 -0.31702867859E+02  0.53900516262E+03  0.10566000000E+00 0. -1.
         -4    1    4    4    0  502  0.62110309341E+03 -0.15000439726E+03 -0.47992704388E+03  0.79912473325E+03  0.00000000000E+00 0. -1.
<mgrwt>
<rscale>  2 0.12371729E+04</rscale>
<asrwt>0</asrwt>
<pdfrwt beam="1">  1       21 0.12944060E+00 0.12374115E+04</pdfrwt>
<pdfrwt beam="2">  1       21 0.27985030E+00 0.12374115E+04</pdfrwt>
<totfact> 0.69095709E+00</totfact>
</mgrwt>
</event>
<event>
 8    1  0.5815007E-006  0.1065950E+04  0.7818608E-02  0.8720262E-01
         21   -1    0    0  501  502  0.00000000000E+00  0.00000000000E+00  0.64715001035E+03  0.64715001035E+03  0.00000000000E+00 0. -1.
         21   -1    0    0  502  503 -0.00000000000E+00 -0.00000000000E+00 -0.17219404579E+04  0.17219404579E+04  0.00000000000E+00 0. -1.
   -9000010    2    1    2    0  503  0.14978555216E+03  0.29562738728E+03 -0.59815972307E+03  0.12014319871E+04  0.98783222345E+03 0.  0.
    9000010    2    1    2  501    0 -0.14978555216E+03 -0.29562738728E+03 -0.47663072445E+03  0.11676584811E+04  0.10131230020E+04 0.  0.
        -13    1    4    4    0    0 -0.82978719917E+02  0.37620253836E+03 -0.11652486190E+03  0.40248213927E+03  0.10566000000E+00 0.  1.
          4    1    4    4  501    0 -0.66806832247E+02 -0.67182992564E+03 -0.36010586255E+03  0.76517634181E+03  0.00000000000E+00 0.  1.
         13    1    3    3    0    0  0.28202099448E+02  0.65060818470E+03 -0.47665961490E+03  0.80702587818E+03  0.10566000000E+00 0. -1.
         -4    1    3    3    0  503  0.12158345272E+03 -0.35498079742E+03 -0.12150010818E+03  0.39440610897E+03  0.00000000000E+00 0. -1.
<mgrwt>
<rscale>  2 0.10598967E+04</rscale>
<asrwt>0</asrwt>
<pdfrwt beam="1">  1       21 0.99561540E-01 0.10659500E+04</pdfrwt>
<pdfrwt beam="2">  1       21 0.26491392E+00 0.10659500E+04</pdfrwt>
<totfact> 0.18846275E+01</totfact>
</mgrwt>
</event>
<event>
 8    1  0.5815007E-006  0.1254409E+04  0.7818608E-02  0.8567382E-01
         21   -1    0    0  501  502  0.00000000000E+00  0.00000000000E+00  0.22265106883E+04  0.22265106883E+04  0.00000000000E+00 0.  1.
         21   -1    0    0  502  503 -0.00000000000E+00 -0.00000000000E+00 -0.70594096332E+03  0.70594096332E+03  0.00000000000E+00 0.  1.
   -9000010    2    1    2    0  503 -0.73446658127E+03 -0.13744466781E+03  0.69323496155E+03  0.14297789247E+04  0.10026768502E+04 0.  0.
    9000010    2    1    2  501    0  0.73446658127E+03  0.13744466781E+03  0.82733476340E+03  0.15026727269E+04  0.10075764575E+04 0.  0.
        -13    1    4    4    0    0  0.70067274692E+02  0.48140655105E+03  0.45869465922E+03  0.66862731916E+03  0.10566000000E+00 0.  1.
          4    1    4    4  501    0  0.66439930658E+03 -0.34396188324E+03  0.36864010419E+03  0.83404540771E+03  0.00000000000E+00 0.  1.
         13    1    3    3    0    0 -0.23997938171E+02  0.11731072708E+03  0.66372559863E+03  0.67444005602E+03  0.10566000000E+00 0. -1.
         -4    1    3    3    0  503 -0.71046864310E+03 -0.25475539489E+03  0.29509362915E+02  0.75533886869E+03  0.00000000000E+00 0. -1.
<mgrwt>
<rscale>  2 0.12534250E+04</rscale>
<asrwt>0</asrwt>
<pdfrwt beam="1">  1       21 0.34254010E+00 0.12544092E+04</pdfrwt>
<pdfrwt beam="2">  1       21 0.10860630E+00 0.12544092E+04</pdfrwt>
<totfact> 0.40595759E+00</totfact>
</mgrwt>
</event>
<event>
 8    1  0.5815007E-006  0.1043894E+04  0.7818608E-02  0.8734835E-01
         21   -1    0    0  503  502  0.00000000000E+00  0.00000000000E+00  0.11177434440E+04  0.11177434440E+04  0.00000000000E+00 0. -1.
         21   -1    0    0  501  503 -0.00000000000E+00 -0.00000000000E+00 -0.98027092478E+03  0.98027092478E+03  0.00000000000E+00 0. -1.
    9000010    2    1    2  501    0  0.28914096540E+03 -0.20833853643E+03  0.15828047227E+03  0.10558256878E+04  0.98117670756E+03 0.  0.
   -9000010    2    1    2    0  502 -0.28914096540E+03  0.20833853643E+03 -0.20807953074E+02  0.10421886810E+04  0.97914086432E+03 0.  0.
        -13    1    3    3    0    0  0.44789721141E+03  0.23187751219E+03 -0.11027420913E+03  0.51627464107E+03  0.10566000000E+00 0.  1.
          4    1    3    3  501    0 -0.15875624601E+03 -0.44021604862E+03  0.26855468140E+03  0.53955104672E+03  0.00000000000E+00 0.  1.
         13    1    4    4    0    0 -0.33264081330E+03  0.57160867004E+03  0.70507917975E+02  0.66509981206E+03  0.10566000000E+00 0. -1.
         -4    1    4    4    0  502  0.43499847906E+02 -0.36327013362E+03 -0.91315871049E+02  0.37708886890E+03  0.00000000000E+00 0. -1.
<mgrwt>
<rscale>  2 0.10434156E+04</rscale>
<asrwt>0</asrwt>
<pdfrwt beam="1">  1       21 0.17196053E+00 0.10438942E+04</pdfrwt>
<pdfrwt beam="2">  1       21 0.15081091E+00 0.10438942E+04</pdfrwt>
<totfact> 0.29886689E+01</totfact>
</mgrwt>
</event>
<event>
 8    1  0.5815007E-006  0.1079472E+04  0.7818608E-02  0.8710742E-01
         21   -1    0    0  501  502  0.00000000000E+00  0.00000000000E+00  0.10030809588E+04  0.10030809588E+04  0.00000000000E+00 0.  1.
         21   -1    0    0  502  503 -0.00000000000E+00 -0.00000000000E+00 -0.11341085076E+04  0.11341085076E+04  0.00000000000E+00 0.  1.
   -9000010    2    1    2    0  503 -0.29368863457E+03  0.81672497994E+02 -0.15898027645E+03  0.10573556303E+04  0.99990138995E+03 0.  0.
    9000010    2    1    2  501    0  0.29368863457E+03 -0.81672497994E+02  0.27952727608E+02  0.10798338361E+04  0.10355367437E+04 0.  0.
        -13    1    4    4    0    0  0.67989163469E+02  0.24853982557E+03  0.43726780392E+03  0.50754085033E+03  0.10566000000E+00 0.  1.
          4    1    4    4  501    0  0.22569947110E+03 -0.33021232356E+03 -0.40931507631E+03  0.57229298579E+03  0.00000000000E+00 0.  1.
         13    1    3    3    0    0 -0.48676785242E+03 -0.33121931885E+03 -0.69600076091E+02  0.59286875536E+03  0.10566000000E+00 0. -1.
         -4    1    3    3    0  503  0.19307921785E+03  0.41289181684E+03 -0.89380200359E+02  0.46448687494E+03  0.00000000000E+00 0. -1.
<mgrwt>
<rscale>  2 0.10708347E+04</rscale>
<asrwt>0</asrwt>
<pdfrwt beam="1">  1       21 0.15432015E+00 0.10794720E+04</pdfrwt>
<pdfrwt beam="2">  1       21 0.17447823E+00 0.10794720E+04</pdfrwt>
<totfact> 0.26310612E+01</totfact>
</mgrwt>
</event>
<event>
 8    1  0.5815007E-006  0.1175343E+04  0.7818608E-02  0.8625637E-01
         21   -1    0    0  501  502  0.00000000000E+00  0.00000000000E+00  0.10833107641E+04  0.10833107641E+04  0.00000000000E+00 0. -1.
         21   -1    0    0  502  503 -0.00000000000E+00 -0.00000000000E+00 -0.13760767912E+04  0.13760767912E+04  0.00000000000E+00 0. -1.
   -9000010    2    1    2    0  503 -0.21366692336E+03 -0.58753321834E+03 -0.48176873980E+03  0.12689448292E+04  0.99361512873E+03 0.  0.
    9000010    2    1    2  501    0  0.21366692336E+03  0.58753321834E+03  0.18900271269E+03  0.11904427261E+04  0.99528037354E+03 0.  0.
        -13    1    4    4    0    0 -0.33606473659E+03  0.49327678982E+03 -0.13599984344E+02  0.59703138049E+03  0.10566000000E+00 0.  1.
          4    1    4    4  501    0  0.54973165995E+03  0.94256428521E+02  0.20260269703E+03  0.59341134562E+03  0.00000000000E+00 0.  1.
         13    1    3    3    0    0  0.14014834842E+01  0.51514919133E+02 -0.58461208097E+03  0.58687907394E+03  0.10566000000E+00 0. -1.
         -4    1    3    3    0  503 -0.21506840684E+03 -0.63904813748E+03  0.10284334117E+03  0.68206575523E+03  0.00000000000E+00 0. -1.
<mgrwt>
<rscale>  2 0.11749907E+04</rscale>
<asrwt>0</asrwt>
<pdfrwt beam="1">  1       21 0.16666320E+00 0.11753433E+04</pdfrwt>
<pdfrwt beam="2">  1       21 0.21170412E+00 0.11753433E+04</pdfrwt>
<totfact> 0.10211654E+01</totfact>
</mgrwt>
</event>
<event>
 8    1  0.5815007E-006  0.1121979E+04  0.7818608E-02  0.8668939E-01
         21   -1    0    0  501  502  0.00000000000E+00  0.00000000000E+00  0.14213889618E+04  0.14213889618E+04  0.00000000000E+00 0. -1.
         21   -1    0    0  502  503 -0.00000000000E+00 -0.00000000000E+00 -0.93586900088E+03  0.93586900088E+03  0.00000000000E+00 0. -1.
   -9000010    2    1    2    0  503  0.45341046754E+03  0.15906238508E+03 -0.43054498098E+02  0.11170049355E+04  0.10074544365E+04 0.  0.
    9000010    2    1    2  501    0 -0.45341046754E+03 -0.15906238508E+03  0.52857445906E+03  0.12402530272E+04  0.10138810178E+04 0.  0.
        -13    1    4    4    0    0  0.25552864913E+03  0.17799391888E+03  0.35911891568E+02  0.31347472116E+03  0.10566000000E+00 0.  1.
          4    1    4    4  501    0 -0.70893911667E+03 -0.33705630396E+03  0.49266256750E+03  0.92677830606E+03  0.00000000000E+00 0.  1.
         13    1    3    3    0    0  0.69086343304E+03  0.15894069600E+03 -0.29765021962E+03  0.76886285667E+03  0.10566000000E+00 0. -1.
         -4    1    3    3    0  503 -0.23745296550E+03  0.12168907432E+00  0.25459572152E+03  0.34814207883E+03  0.00000000000E+00 0. -1.
<mgrwt>
<rscale>  2 0.11205251E+04</rscale>
<asrwt>0</asrwt>
<pdfrwt beam="1">  1       21 0.21867522E+00 0.11219789E+04</pdfrwt>
<pdfrwt beam="2">  1       21 0.14397985E+00 0.11219789E+04</pdfrwt>
<totfact> 0.14464810E+01</totfact>
</mgrwt>
</event>
<event>
 8    1  0.5815007E-006  0.1079487E+04  0.7818608E-02  0.8703822E-01
         21   -1    0    0  501  502  0.00000000000E+00  0.00000000000E+00  0.33588711950E+04  0.33588711950E+04  0.00000000000E+00 0. -1.
         21   -1    0    0  502  503 -0.00000000000E+00 -0.00000000000E+00 -0.34632345799E+03  0.34632345799E+03  0.00000000000E+00 0. -1.
   -9000010    2    1    2    0  503  0.25105060783E+03  0.32183488972E+03  0.14652662504E+04  0.18199717412E+04  0.99934370966E+03 0.  0.
    9000010    2    1    2  501    0 -0.25105060783E+03 -0.32183488972E+03  0.15472814866E+04  0.18852229118E+04  0.99668516827E+03 0.  0.
        -13    1    4    4    0    0 -0.52619139335E+03  0.11813478273E+03  0.61261123217E+03  0.81616526651E+03  0.10566000000E+00 0.  1.
          4    1    4    4  501    0  0.27514078551E+03 -0.43996967246E+03  0.93467025439E+03  0.10690576453E+04  0.00000000000E+00 0.  1.
         13    1    3    3    0    0  0.99661017690E+02  0.31454174937E+02 -0.14388704565E+03  0.17783468908E+03  0.10566000000E+00 0. -1.
         -4    1    3    3    0  503  0.15138959014E+03  0.29038071479E+03  0.16091532961E+04  0.16421370521E+04  0.00000000000E+00 0. -1.
<mgrwt>
<rscale>  2 0.10788712E+04</rscale>
<asrwt>0</asrwt>
<pdfrwt beam="1">  1       21 0.51674939E+00 0.10794869E+04</pdfrwt>
<pdfrwt beam="2">  1       21 0.53280534E-01 0.10794869E+04</pdfrwt>
<totfact> 0.14643403E+00</totfact>
</mgrwt>
</event>
<event>
 8    1  0.5815007E-006  0.1102618E+04  0.7818608E-02  0.8685891E-01
         21   -1    0    0  503  502  0.00000000000E+00  0.00000000000E+00  0.61176511947E+03  0.61176511947E+03  0.00000000000E+00 0.  1.
         21   -1    0    0  501  503 -0.00000000000E+00 -0.00000000000E+00 -0.22320620539E+04  0.22320620539E+04  0.00000000000E+00 0.  1.
    9000010    2    1    2  501    0 -0.41829805880E+03  0.21736120071E+03 -0.13017708305E+04  0.17059818511E+04  0.99676859076E+03 0.  0.
   -9000010    2    1    2    0  502  0.41829805880E+03 -0.21736120071E+03 -0.31852610396E+03  0.11378453223E+04  0.98540039629E+03 0.  0.
        -13    1    3    3    0    0  0.15783913506E+03 -0.27172298185E+03 -0.58676015064E+03  0.66560803553E+03  0.10566000000E+00 0.  1.
          4    1    3    3  501    0 -0.57613719386E+03  0.48908418256E+03 -0.71501067983E+03  0.10403738155E+04  0.00000000000E+00 0.  1.
         13    1    4    4    0    0 -0.28779845088E+03 -0.10037364571E+02  0.82775427327E+02  0.29963390921E+03  0.10566000000E+00 0. -1.
         -4    1    4    4    0  502  0.70609650968E+03 -0.20732383614E+03 -0.40130153129E+03  0.83821141309E+03  0.00000000000E+00 0. -1.
<mgrwt>
<rscale>  2 0.11000426E+04</rscale>
<asrwt>0</asrwt>
<pdfrwt beam="1">  1       21 0.94117709E-01 0.11026181E+04</pdfrwt>
<pdfrwt beam="2">  1       21 0.34339417E+00 0.11026181E+04</pdfrwt>
<totfact> 0.60202529E+00</totfact>
</mgrwt>
</event>
<event>
 8    1  0.5815007E-006  0.1136540E+04  0.7818608E-02  0.8661699E-01
         21   -1    0    0  501  502  0.00000000000E+00  0.00000000000E+00  0.15825490201E+04  0.15825490201E+04  0.00000000000E+00 0. -1.
         21   -1    0    0  502  503 -0.00000000000E+00 -0.00000000000E+00 -0.89994157351E+03  0.89994157351E+03  0.00000000000E+00 0. -1.
   -9000010    2    1    2    0  503  0.15394281757E+03  0.47311420498E+03 -0.76551962710E+02  0.11391154190E+04  0.10218553189E+04 0.  0.
    9000010    2    1    2  501    0 -0.15394281757E+03 -0.47311420498E+03  0.75915940927E+03  0.13433751746E+04  0.99035266897E+03 0.  0.
        -13    1    4    4    0    0 -0.27282443415E+03  0.24623001254E+03  0.16505999382E+03  0.40287368203E+03  0.10566000000E+00 0.  1.
          4    1    4    4  501    0  0.11888161657E+03 -0.71934421752E+03  0.59409941545E+03  0.94050149254E+03  0.00000000000E+00 0.  1.
         13    1    3    3    0    0  0.34184216085E+03 -0.22714099953E+03 -0.37472674266E+01  0.41044262666E+03  0.10566000000E+00 0. -1.
         -4    1    3    3    0  503 -0.18789934328E+03  0.70025520451E+03 -0.72804695284E+02  0.72867279234E+03  0.00000000000E+00 0. -1.
<mgrwt>
<rscale>  2 0.11294140E+04</rscale>
<asrwt>0</asrwt>
<pdfrwt beam="1">  1       21 0.24346908E+00 0.11365402E+04</pdfrwt>
<pdfrwt beam="2">  1       21 0.13845255E+00 0.11365402E+04</pdfrwt>
<totfact> 0.10605635E+01</totfact>
</mgrwt>
</event>
<event>
 8    1  0.5815007E-006  0.1239705E+04  0.7818608E-02  0.8577459E-01
         21   -1    0    0  501  502  0.00000000000E+00  0.00000000000E+00  0.17195895656E+04  0.17195895656E+04  0.00000000000E+00 0. -1.
         21   -1    0    0  502  503 -0.00000000000E+00 -0.00000000000E+00 -0.90932347810E+03  0.90932347810E+03  0.00000000000E+00 0. -1.
   -9000010    2    1    2    0  503  0.23109626830E+03 -0.69714940468E+03  0.22868808470E+03  0.12606215261E+04  0.99872199056E+03 0.  0.
    9000010    2    1    2  501    0 -0.23109626830E+03  0.69714940468E+03  0.58157800280E+03  0.13682915176E+04  0.99727926180E+03 0.  0.
        -13    1    4    4    0    0 -0.52918754619E+03  0.70842775370E+03  0.60130583593E+03  0.10693353360E+04  0.10566000000E+00 0.  1.
          4    1    4    4  501    0  0.29809127789E+03 -0.11278349017E+02 -0.19727833132E+02  0.29895618159E+03  0.00000000000E+00 0.  1.
         13    1    3    3    0    0 -0.17262918202E+03 -0.55242308216E+03  0.49005786043E+03  0.75837247703E+03  0.10566000000E+00 0. -1.
         -4    1    3    3    0  503  0.40372545032E+03 -0.14472632252E+03 -0.26136977573E+03  0.50224904911E+03  0.00000000000E+00 0. -1.
<mgrwt>
<rscale>  2 0.12394144E+04</rscale>
<asrwt>0</asrwt>
<pdfrwt beam="1">  1       21 0.26455224E+00 0.12397050E+04</pdfrwt>
<pdfrwt beam="2">  1       21 0.13989592E+00 0.12397050E+04</pdfrwt>
<totfact> 0.70741663E+00</totfact>
</mgrwt>
</event>
<event>
 8    1  0.5815007E-006  0.1326444E+04  0.7818608E-02  0.8527739E-01
         21   -1    0    0  503  502  0.00000000000E+00  0.00000000000E+00  0.11831677600E+04  0.11831677600E+04  0.00000000000E+00 0. -1.
         21   -1    0    0  501  503 -0.00000000000E+00 -0.00000000000E+00 -0.15105742542E+04  0.15105742542E+04  0.00000000000E+00 0.  1.
    9000010    2    1    2  501    0  0.36432679600E+03  0.66709729865E+03 -0.50182004194E+03  0.14181945919E+04  0.10870601298E+04 0.  0.
   -9000010    2    1    2    0  502 -0.36432679600E+03 -0.66709729865E+03  0.17441354776E+03  0.12755474223E+04  0.10093801667E+04 0.  0.
        -13    1    3    3    0    0  0.25732067272E+03  0.97017949028E+03 -0.40678525738E+03  0.10830218967E+04  0.10566000000E+00 0.  1.
          4    1    3    3  501    0  0.10700612327E+03 -0.30308219163E+03 -0.95034784568E+02  0.33517269516E+03  0.00000000000E+00 0.  1.
         13    1    4    4    0    0  0.25775843097E+03  0.92229018939E+02 -0.21385572165E+02  0.27459598419E+03  0.10566000000E+00 0. -1.
         -4    1    4    4    0  502 -0.62208522697E+03 -0.75932631759E+03  0.19579911993E+03  0.10009514382E+04  0.00000000000E+00 0. -1.
<mgrwt>
<rscale>  2 0.13104370E+04</rscale>
<asrwt>0</asrwt>
<pdfrwt beam="1">  1       21 0.18202581E+00 0.13264436E+04</pdfrwt>
<pdfrwt beam="2">  1       21 0.23239604E+00 0.13264436E+04</pdfrwt>
<totfact> 0.51562893E+00</totfact>
</mgrwt>
</event>
<event>
 8    1  0.5815007E-006  0.1219112E+04  0.7818608E-02  0.8624179E-01
         21   -1    0    0  501  502  0.00000000000E+00  0.00000000000E+00  0.11197607198E+04  0.11197607198E+04  0.00000000000E+00 0. -1.
         21   -1    0    0  502  503 -0.00000000000E+00 -0.00000000000E+00 -0.11619781375E+04  0.11619781375E+04  0.00000000000E+00 0. -1.
   -9000010    2    1    2    0  503 -0.74421138614E+02 -0.46064887282E+03 -0.82439706995E+02  0.10619639866E+04  0.95038692841E+03 0.  0.
    9000010    2    1    2  501    0  0.74421138614E+02  0.46064887282E+03  0.40222289238E+02  0.12197748707E+04  0.11262757267E+04 0.  0.
        -13    1    4    4    0    0  0.13289713237E+03  0.81168286796E+03  0.17201136435E+03  0.84028486037E+03  0.10566000000E+00 0.  1.
          4    1    4    4  501    0 -0.58475993757E+02 -0.35103399514E+03 -0.13178907512E+03  0.37949001029E+03  0.00000000000E+00 0.  1.
         13    1    3    3    0    0 -0.17663875539E+03  0.24125271761E+03 -0.17530309623E+03  0.34660541019E+03  0.10566000000E+00 0. -1.
         -4    1    3    3    0  503  0.10221761678E+03 -0.70190159043E+03  0.92863389236E+02  0.71535857644E+03  0.00000000000E+00 0. -1.
<mgrwt>
<rscale>  2 0.11768792E+04</rscale>
<asrwt>0</asrwt>
<pdfrwt beam="1">  1       21 0.17227088E+00 0.12191115E+04</pdfrwt>
<pdfrwt beam="2">  1       21 0.17876587E+00 0.12191115E+04</pdfrwt>
<totfact> 0.16544257E+01</totfact>
</mgrwt>
</event>
<event>
 8    1  0.5815007E-006  0.1022991E+04  0.7818608E-02  0.8753484E-01
         21   -1    0    0  503  502  0.00000000000E+00  0.00000000000E+00  0.17778562802E+04  0.17778562802E+04  0.00000000000E+00 0.  1.
         21   -1    0    0  501  503 -0.00000000000E+00 -0.00000000000E+00 -0.59175081779E+03  0.59175081779E+03  0.00000000000E+00 0.  1.
    9000010    2    1    2  501    0 -0.22633709092E+03  0.43469127995E+02  0.50066897245E+03  0.11389383402E+04  0.99669106495E+03 0.  0.
   -9000010    2    1    2    0  502  0.22633709092E+03 -0.43469127995E+02  0.68543648996E+03  0.12306687578E+04  0.99579333491E+03 0.  0.
        -13    1    3    3    0    0 -0.39079418897E+03  0.11356618462E+03  0.73742597981E+03  0.84226745354E+03  0.10566000000E+00 0.  1.
          4    1    3    3  501    0  0.16445709805E+03 -0.70097056624E+02 -0.23675700736E+03  0.29667088664E+03  0.00000000000E+00 0.  1.
         13    1    4    4    0    0  0.93961623989E+02 -0.16601198292E+03 -0.22932374287E+03  0.29829206403E+03  0.10566000000E+00 0. -1.
         -4    1    4    4    0  502  0.13237546693E+03  0.12254285493E+03  0.91476023283E+03  0.93237669378E+03  0.00000000000E+00 0. -1.
<mgrwt>
<rscale>  2 0.10227725E+04</rscale>
<asrwt>0</asrwt>
<pdfrwt beam="1">  1       21 0.27351635E+00 0.10229913E+04</pdfrwt>
<pdfrwt beam="2">  1       21 0.91038588E-01 0.10229913E+04</pdfrwt>
<totfact> 0.20776229E+01</totfact>
</mgrwt>
</event>
<event>
 8    1  0.5815007E-006  0.1019574E+04  0.7818608E-02  0.8758757E-01
         21   -1    0    0  503  502  0.00000000000E+00  0.00000000000E+00  0.62575994125E+03  0.62575994125E+03  0.00000000000E+00 0.  1.
         21   -1    0    0  501  503 -0.00000000000E+00 -0.00000000000E+00 -0.16468272565E+04  0.16468272565E+04  0.00000000000E+00 0.  1.
    9000010    2    1    2  501    0  0.68282446245E+01 -0.19270486628E+03 -0.46735045095E+03  0.11123569555E+04  0.99082781653E+03 0.  0.
   -9000010    2    1    2    0  502 -0.68282446245E+01  0.19270486628E+03 -0.55371686426E+03  0.11602302422E+04  0.10011743398E+04 0.  0.
        -13    1    3    3    0    0 -0.46924048689E+03  0.22625798923E+02 -0.11979389852E+03  0.48481867806E+03  0.10566000000E+00 0.  1.
          4    1    3    3  501    0  0.47606873151E+03 -0.21533066521E+03 -0.34755655243E+03  0.62753827743E+03  0.00000000000E+00 0.  1.
         13    1    4    4    0    0 -0.15747077996E+01  0.17345258936E+03  0.27832294568E+03  0.32795114532E+03  0.10566000000E+00 0. -1.
         -4    1    4    4    0  502 -0.52535368249E+01  0.19252276922E+02 -0.83203980994E+03  0.83227909690E+03  0.00000000000E+00 0. -1.
<mgrwt>
<rscale>  2 0.10170253E+04</rscale>
<asrwt>0</asrwt>
<pdfrwt beam="1">  1       21 0.96270760E-01 0.10195743E+04</pdfrwt>
<pdfrwt beam="2">  1       21 0.25335804E+00 0.10195743E+04</pdfrwt>
<totfact> 0.25172689E+01</totfact>
</mgrwt>
</event>
<event>
 8    1  0.5815007E-006  0.1237170E+04  0.7818608E-02  0.8580088E-01
         21   -1    0    0  501  502  0.00000000000E+00  0.00000000000E+00  0.14624808986E+04  0.14624808986E+04  0.00000000000E+00 0.  1.
         21   -1    0    0  502  503 -0.00000000000E+00 -0.00000000000E+00 -0.10859929070E+04  0.10859929070E+04  0.00000000000E+00 0. -1.
   -9000010    2    1    2    0  503  0.67435898302E+03  0.26260803900E+03 -0.68876359338E+02  0.12335822020E+04  0.99662333711E+03 0.  0.
    9000010    2    1    2  501    0 -0.67435898302E+03 -0.26260803900E+03  0.44536435095E+03  0.13148916036E+04  0.10034278768E+04 0.  0.
        -13    1    4    4    0    0 -0.29252795005E+03  0.34306369374E+03 -0.35769062502E+02  0.45226622306E+03  0.10566000000E+00 0.  1.
          4    1    4    4  501    0 -0.38183103297E+03 -0.60567173274E+03  0.48113341345E+03  0.86262538052E+03  0.00000000000E+00 0.  1.
         13    1    3    3    0    0  0.35902446975E+03  0.62172623075E+03 -0.18575451090E+03  0.74158399751E+03  0.10566000000E+00 0. -1.
         -4    1    3    3    0  503  0.31533451327E+03 -0.35911819175E+03  0.11687815156E+03  0.49199820449E+03  0.00000000000E+00 0. -1.
<mgrwt>
<rscale>  2 0.12357899E+04</rscale>
<asrwt>0</asrwt>
<pdfrwt beam="1">  1       21 0.22499706E+00 0.12371704E+04</pdfrwt>
<pdfrwt beam="2">  1       21 0.16707583E+00 0.12371704E+04</pdfrwt>
<totfact> 0.79325553E+00</totfact>
</mgrwt>
</event>
<event>
 8    1  0.5815007E-006  0.1061069E+04  0.7818608E-02  0.8720919E-01
         21   -1    0    0  501  502  0.00000000000E+00  0.00000000000E+00  0.18256082150E+04  0.18256082150E+04  0.00000000000E+00 0.  1.
         21   -1    0    0  502  503 -0.00000000000E+00 -0.00000000000E+00 -0.71343562382E+03  0.71343562382E+03  0.00000000000E+00 0.  1.
   -9000010    2    1    2    0  503 -0.19532674541E+03 -0.30607053937E+03  0.76273622994E+02  0.10561566389E+04  0.98884653401E+03 0.  0.
    9000010    2    1    2  501    0  0.19532674541E+03  0.30607053937E+03  0.10358989682E+04  0.14828871999E+04  0.99701357203E+03 0.  0.
        -13    1    4    4    0    0  0.27702497592E+03  0.55395488139E+03  0.27351944365E+03  0.67706849367E+03  0.10566000000E+00 0.  1.
          4    1    4    4  501    0 -0.81698230512E+02 -0.24788434202E+03  0.76237952455E+03  0.80581870625E+03  0.00000000000E+00 0.  1.
         13    1    3    3    0    0 -0.59457935050E+03 -0.14720738966E+03  0.12021999330E+03  0.62421749220E+03  0.10566000000E+00 0. -1.
         -4    1    3    3    0  503  0.39925260509E+03 -0.15886314971E+03 -0.43946370307E+02  0.43193914672E+03  0.00000000000E+00 0. -1.
<mgrwt>
<rscale>  2 0.10591464E+04</rscale>
<asrwt>0</asrwt>
<pdfrwt beam="1">  1       21 0.28086280E+00 0.10610692E+04</pdfrwt>
<pdfrwt beam="2">  1       21 0.10975933E+00 0.10610692E+04</pdfrwt>
<totfact> 0.11192132E+01</totfact>
</mgrwt>
</event>
<event>
 8    1  0.5815007E-006  0.1058473E+04  0.7818608E-02  0.8722308E-01
         21   -1    0    0  503  502  0.00000000000E+00  0.00000000000E+00  0.90535498814E+03  0.90535498814E+03  0.00000000000E+00 0. -1.
         21   -1    0    0  501  503 -0.00000000000E+00 -0.00000000000E+00 -0.12930468932E+04  0.12930468932E+04  0.00000000000E+00 0. -1.
    9000010    2    1    2  501    0 -0.36104265886E+03  0.64187164430E+02  0.42867415128E+02  0.10557088858E+04  0.98904592547E+03 0.  0.
   -9000010    2    1    2    0  502  0.36104265886E+03 -0.64187164430E+02 -0.43055932016E+03  0.11426929955E+04  0.99292203129E+03 0.  0.
        -13    1    3    3    0    0  0.10147087006E+03  0.63750440269E+02  0.43384014673E+03  0.45008636969E+03  0.10566000000E+00 0.  1.
          4    1    3    3  501    0 -0.46251352892E+03  0.43672416086E+00 -0.39097273160E+03  0.60562251611E+03  0.00000000000E+00 0.  1.
         13    1    4    4    0    0 -0.31309025490E+03 -0.18946012685E+03 -0.88817990475E+02  0.37657574799E+03  0.10566000000E+00 0. -1.
         -4    1    4    4    0  502  0.67413291376E+03  0.12527296242E+03 -0.34174132968E+03  0.76611724751E+03  0.00000000000E+00 0. -1.
<mgrwt>
<rscale>  2 0.10575634E+04</rscale>
<asrwt>0</asrwt>
<pdfrwt beam="1">  1       21 0.13928538E+00 0.10584734E+04</pdfrwt>
<pdfrwt beam="2">  1       21 0.19893029E+00 0.10584734E+04</pdfrwt>
<totfact> 0.22971871E+01</totfact>
</mgrwt>
</event>
<event>
 8    1  0.5815007E-006  0.1117694E+04  0.7818608E-02  0.8674725E-01
         21   -1    0    0  501  502  0.00000000000E+00  0.00000000000E+00  0.69823884444E+03  0.69823884444E+03  0.00000000000E+00 0.  1.
         21   -1    0    0  502  503 -0.00000000000E+00 -0.00000000000E+00 -0.17629114839E+04  0.17629114839E+04  0.00000000000E+00 0.  1.
   -9000010    2    1    2    0  503  0.27039701646E+03  0.41438454591E+03 -0.51572267810E+03  0.12309385134E+04  0.10022028960E+04 0.  0.
    9000010    2    1    2  501    0 -0.27039701646E+03 -0.41438454591E+03 -0.54894996133E+03  0.12302118149E+04  0.98348662983E+03 0.  0.
        -13    1    4    4    0    0 -0.25801493626E+03  0.71579103739E+02 -0.67656143446E+03  0.72761986035E+03  0.10566000000E+00 0.  1.
          4    1    4    4  501    0 -0.12382080200E+02 -0.48596364965E+03  0.12761147312E+03  0.50259195454E+03  0.00000000000E+00 0.  1.
         13    1    3    3    0    0 -0.96990716781E+02 -0.28339359633E+03 -0.27448911018E+03  0.40627996794E+03  0.10566000000E+00 0. -1.
         -4    1    3    3    0  503  0.36738773324E+03  0.69777814225E+03 -0.24123356792E+03  0.82465854547E+03  0.00000000000E+00 0. -1.
<mgrwt>
<rscale>  2 0.11134824E+04</rscale>
<asrwt>0</asrwt>
<pdfrwt beam="1">  1       21 0.10742136E+00 0.11176939E+04</pdfrwt>
<pdfrwt beam="2">  1       21 0.27121715E+00 0.11176939E+04</pdfrwt>
<totfact> 0.13727901E+01</totfact>
</mgrwt>
</event>
<event>
 8    1  0.5815007E-006  0.1182913E+04  0.7818608E-02  0.8622928E-01
         21   -1    0    0  503  502  0.00000000000E+00  0.00000000000E+00  0.16743876901E+04  0.16743876901E+04  0.00000000000E+00 0.  1.
         21   -1    0    0  501  503 -0.00000000000E+00 -0.00000000000E+00 -0.82768535844E+03  0.82768535844E+03  0.00000000000E+00 0.  1.
    9000010    2    1    2  501    0 -0.39638963441E+03  0.44585721823E+03  0.51698899317E+03  0.12909533862E+04  0.10214546613E+04 0.  0.
   -9000010    2    1    2    0  502  0.39638963441E+03 -0.44585721823E+03  0.32971333844E+03  0.12111196623E+04  0.10010926778E+04 0.  0.
        -13    1    3    3    0    0 -0.46537548077E+03 -0.20864049714E+03  0.12559946146E+03  0.52524321132E+03  0.10566000000E+00 0.  1.
          4    1    3    3  501    0  0.68985846365E+02  0.65449771537E+03  0.39138953171E+03  0.76571017491E+03  0.00000000000E+00 0.  1.
         13    1    4    4    0    0 -0.56000763631E+01 -0.63620047627E+03 -0.33170451240E+02  0.63708923776E+03  0.10566000000E+00 0. -1.
         -4    1    4    4    0  502  0.40198971077E+03  0.19034325805E+03  0.36288378968E+03  0.57403042451E+03  0.00000000000E+00 0. -1.
<mgrwt>
<rscale>  2 0.11785040E+04</rscale>
<asrwt>0</asrwt>
<pdfrwt beam="1">  1       21 0.25759811E+00 0.11829129E+04</pdfrwt>
<pdfrwt beam="2">  1       21 0.12733621E+00 0.11829129E+04</pdfrwt>
<totfact> 0.10582437E+01</totfact>
</mgrwt>
</event>
<event>
 8    1  0.5815007E-006  0.1315432E+04  0.7818608E-02  0.8527048E-01
         21   -1    0    0  503  502  0.00000000000E+00  0.00000000000E+00  0.26024329665E+04  0.26024329665E+04  0.00000000000E+00 0.  1.
         21   -1    0    0  501  503 -0.00000000000E+00 -0.00000000000E+00 -0.66634161896E+03  0.66634161896E+03  0.00000000000E+00 0. -1.
    9000010    2    1    2  501    0  0.73702953571E+03 -0.40529762146E+03  0.76799689703E+03  0.15095684891E+04  0.99070635965E+03 0.  0.
   -9000010    2    1    2    0  502 -0.73702953571E+03  0.40529762146E+03  0.11680944505E+04  0.17592060963E+04  0.10113766586E+04 0.  0.
        -13    1    3    3    0    0  0.60864936088E+03 -0.64157311209E+03  0.85185497200E+03  0.12278953568E+04  0.10566000000E+00 0.  1.
          4    1    3    3  501    0  0.12838017483E+03  0.23627549063E+03 -0.83858074974E+02  0.28167313237E+03  0.00000000000E+00 0.  1.
         13    1    4    4    0    0 -0.83939871900E+03  0.58689970221E+03  0.11643205224E+04  0.15507042787E+04  0.10566000000E+00 0. -1.
         -4    1    4    4    0  502  0.10236918328E+03 -0.18160208075E+03  0.37739280739E+01  0.20850181762E+03  0.00000000000E+00 0. -1.
<mgrwt>
<rscale>  2 0.13114577E+04</rscale>
<asrwt>0</asrwt>
<pdfrwt beam="1">  1       21 0.40037430E+00 0.13154320E+04</pdfrwt>
<pdfrwt beam="2">  1       21 0.10251410E+00 0.13154320E+04</pdfrwt>
<totfact> 0.18433798E+00</totfact>
</mgrwt>
</event>
<event>
 8    1  0.5815007E-006  0.1683588E+04  0.7818608E-02  0.8312189E-01
         21   -1    0    0  501  502  0.00000000000E+00  0.00000000000E+00  0.21176142750E+04  0.21176142750E+04  0.00000000000E+00 0. -1.
         21   -1    0    0  502  503 -0.00000000000E+00 -0.00000000000E+00 -0.15482704475E+04  0.15482704475E+04  0.00000000000E+00 0.  1.
   -9000010    2    1    2    0  503 -0.10291014079E+04  0.87227463204E+03 -0.40235505022E+03  0.17220051473E+04  0.99171538235E+03 0.  0.
    9000010    2    1    2  501    0  0.10291014079E+04 -0.87227463204E+03  0.97169887774E+03  0.19438795752E+04  0.10072518813E+04 0.  0.
        -13    1    4    4    0    0  0.11331833831E+04 -0.89380342759E+03  0.60997260708E+03  0.15668617487E+04  0.10566000000E+00 0.  1.
          4    1    4    4  501    0 -0.10408197525E+03  0.21528795544E+02  0.36172627066E+03  0.37701782650E+03  0.00000000000E+00 0.  1.
         13    1    3    3    0    0 -0.39054610015E+02 -0.59621577848E+02  0.21666060378E+03  0.22808293119E+03  0.10566000000E+00 0. -1.
         -4    1    3    3    0  503 -0.99004679788E+03  0.93189620989E+03 -0.61901565400E+03  0.14939222161E+04  0.00000000000E+00 0. -1.
<mgrwt>
<rscale>  2 0.16812712E+04</rscale>
<asrwt>0</asrwt>
<pdfrwt beam="1">  1       21 0.32578681E+00 0.16835882E+04</pdfrwt>
<pdfrwt beam="2">  1       21 0.23819545E+00 0.16835882E+04</pdfrwt>
<totfact> 0.37999012E-01</totfact>
</mgrwt>
</event>
<event>
 8    1  0.5815007E-006  0.1227427E+04  0.7818608E-02  0.8598052E-01
         21   -1    0    0  503  502  0.00000000000E+00  0.00000000000E+00  0.13988309746E+04  0.13988309746E+04  0.00000000000E+00 0.  1.
         21   -1    0    0  501  503 -0.00000000000E+00 -0.00000000000E+00 -0.13043663767E+04  0.13043663767E+04  0.00000000000E+00 0.  1.
    9000010    2    1    2  501    0 -0.45801814934E+03  0.38552232078E+03 -0.58191912045E+03  0.13017436372E+04  0.99874849154E+03 0.  0.
   -9000010    2    1    2    0  502  0.45801814934E+03 -0.38552232078E+03  0.67638371834E+03  0.14014537140E+04  0.10715267113E+04 0.  0.
        -13    1    3    3    0    0 -0.74183550331E+03  0.36060872623E+03 -0.59418673856E+03  0.10165709315E+04  0.10566000000E+00 0.  1.
          4    1    3    3  501    0  0.28381735398E+03  0.24913594550E+02  0.12267618110E+02  0.28517270568E+03  0.00000000000E+00 0.  1.
         13    1    4    4    0    0  0.83293963978E+02  0.44037384223E+02 -0.27592875804E+03  0.29157137432E+03  0.10566000000E+00 0. -1.
         -4    1    4    4    0  502  0.37472418536E+03 -0.42955970500E+03  0.95231247639E+03  0.11098823397E+04  0.00000000000E+00 0. -1.
<mgrwt>
<rscale>  2 0.12113664E+04</rscale>
<asrwt>0</asrwt>
<pdfrwt beam="1">  1       21 0.21520477E+00 0.12274272E+04</pdfrwt>
<pdfrwt beam="2">  1       21 0.20067175E+00 0.12274272E+04</pdfrwt>
<totfact> 0.50280839E+00</totfact>
</mgrwt>
</event>
<event>
 8    1  0.5815007E-006  0.1095670E+04  0.7818608E-02  0.8692707E-01
         21   -1    0    0  501  502  0.00000000000E+00  0.00000000000E+00  0.10375016633E+04  0.10375016633E+04  0.00000000000E+00 0. -1.
         21   -1    0    0  502  503 -0.00000000000E+00 -0.00000000000E+00 -0.12042008707E+04  0.12042008707E+04  0.00000000000E+00 0. -1.
   -9000010    2    1    2    0  503  0.43137525294E+03  0.28260693562E+02 -0.33973491204E+03  0.11471327852E+04  0.10067822707E+04 0.  0.
    9000010    2    1    2  501    0 -0.43137525294E+03 -0.28260693562E+02  0.17303570462E+03  0.10945697488E+04  0.99058482942E+03 0.  0.
        -13    1    4    4    0    0 -0.15703935505E+03 -0.49423924799E+03  0.19332811472E+03  0.55345240482E+03  0.10566000000E+00 0.  1.
          4    1    4    4  501    0 -0.27433589790E+03  0.46597855443E+03 -0.20292410099E+02  0.54111734399E+03  0.00000000000E+00 0.  1.
         13    1    3    3    0    0  0.67351823967E+03 -0.25591010823E+03 -0.25501180073E+03  0.76429564459E+03  0.10566000000E+00 0. -1.
         -4    1    3    3    0  503 -0.24214298673E+03  0.28417080179E+03 -0.84723111308E+02  0.38283714057E+03  0.00000000000E+00 0. -1.
<mgrwt>
<rscale>  2 0.10919353E+04</rscale>
<asrwt>0</asrwt>
<pdfrwt beam="1">  1       21 0.15961564E+00 0.10956705E+04</pdfrwt>
<pdfrwt beam="2">  1       21 0.18526167E+00 0.10956705E+04</pdfrwt>
<totfact> 0.19245506E+01</totfact>
</mgrwt>
</event>
<event>
 8    1  0.5815007E-006  0.1031305E+04  0.7818608E-02  0.8745751E-01
         21   -1    0    0  501  502  0.00000000000E+00  0.00000000000E+00  0.71279175645E+03  0.71279175645E+03  0.00000000000E+00 0. -1.
         21   -1    0    0  502  503 -0.00000000000E+00 -0.00000000000E+00 -0.15016944875E+04  0.15016944875E+04  0.00000000000E+00 0. -1.
   -9000010    2    1    2    0  503  0.13227121089E+03  0.19587985282E+03 -0.48363459141E+03  0.11390755339E+04  0.10038555992E+04 0.  0.
    9000010    2    1    2  501    0 -0.13227121089E+03 -0.19587985282E+03 -0.30526813962E+03  0.10754107100E+04  0.10037205628E+04 0.  0.
        -13    1    4    4    0    0 -0.11006135969E+02  0.40608781998E+03 -0.45903712348E+02  0.40882222853E+03  0.10566000000E+00 0.  1.
          4    1    4    4  501    0 -0.12126507492E+03 -0.60196767281E+03 -0.25936442727E+03  0.66658848147E+03  0.00000000000E+00 0.  1.
         13    1    3    3    0    0  0.50768746581E+03  0.35876934323E+03 -0.30738216631E+03  0.69350256806E+03  0.10566000000E+00 0. -1.
         -4    1    3    3    0  503 -0.37541625492E+03 -0.16288949040E+03 -0.17625242509E+03  0.44557296585E+03  0.00000000000E+00 0. -1.
<mgrwt>
<rscale>  2 0.10312725E+04</rscale>
<asrwt>0</asrwt>
<pdfrwt beam="1">  1       21 0.10966027E+00 0.10313053E+04</pdfrwt>
<pdfrwt beam="2">  1       21 0.23102992E+00 0.10313053E+04</pdfrwt>
<totfact> 0.25947860E+01</totfact>
</mgrwt>
</event>
<event>
 8    1  0.5815007E-006  0.1062725E+04  0.7818608E-02  0.8723860E-01
         21   -1    0    0  501  502  0.00000000000E+00  0.00000000000E+00  0.10096713368E+04  0.10096713368E+04  0.00000000000E+00 0. -1.
         21   -1    0    0  502  503 -0.00000000000E+00 -0.00000000000E+00 -0.12621335334E+04  0.12621335334E+04  0.00000000000E+00 0. -1.
   -9000010    2    1    2    0  503  0.28418822383E+03  0.95759614921E+02 -0.54441903775E+03  0.11697058840E+04  0.99090207180E+03 0.  0.
    9000010    2    1    2  501    0 -0.28418822383E+03 -0.95759614921E+02  0.29195684112E+03  0.11020989863E+04  0.10195344663E+04 0.  0.
        -13    1    4    4    0    0  0.41330368702E+02  0.28750187126E+03 -0.23507565120E+03  0.37366575747E+03  0.10566000000E+00 0.  1.
          4    1    4    4  501    0 -0.32551859253E+03 -0.38326148618E+03  0.52703249232E+03  0.72843322881E+03  0.00000000000E+00 0.  1.
         13    1    3    3    0    0 -0.11844510597E+03  0.17931712639E+03 -0.69831821203E+03  0.73063822194E+03  0.10566000000E+00 0. -1.
         -4    1    3    3    0  503  0.40263332980E+03 -0.83557511469E+02  0.15389917428E+03  0.43906766202E+03  0.00000000000E+00 0. -1.
<mgrwt>
<rscale>  2 0.10557978E+04</rscale>
<asrwt>0</asrwt>
<pdfrwt beam="1">  1       21 0.15533405E+00 0.10627245E+04</pdfrwt>
<pdfrwt beam="2">  1       21 0.19417439E+00 0.10627245E+04</pdfrwt>
<totfact> 0.17931576E+01</totfact>
</mgrwt>
</event>
<event>
 8    1  0.5815007E-006  0.1167269E+04  0.7818608E-02  0.8637806E-01
         21   -1    0    0  503  502  0.00000000000E+00  0.00000000000E+00  0.12587479609E+04  0.12587479609E+04  0.00000000000E+00 0.  1.
         21   -1    0    0  501  503 -0.00000000000E+00 -0.00000000000E+00 -0.11258868077E+04  0.11258868077E+04  0.00000000000E+00 0.  1.
    9000010    2    1    2  501    0 -0.40948084851E+03  0.42648133454E+03 -0.23648375487E+03  0.11603259302E+04  0.96998495033E+03 0.  0.
   -9000010    2    1    2    0  502  0.40948084851E+03 -0.42648133454E+03  0.36934490810E+03  0.12243088384E+04  0.10064569423E+04 0.  0.
        -13    1    3    3    0    0 -0.34842503507E+03  0.61376986634E+03 -0.47518950549E+03  0.85083402093E+03  0.10566000000E+00 0.  1.
          4    1    3    3  501    0 -0.61055813436E+02 -0.18728853179E+03  0.23870575062E+03  0.30949190922E+03  0.00000000000E+00 0.  1.
         13    1    4    4    0    0  0.30603767146E+03  0.29743497193E+03  0.62683483768E+02  0.43134191679E+03  0.10566000000E+00 0. -1.
         -4    1    4    4    0  502  0.10344317704E+03 -0.72391630647E+03  0.30666142434E+03  0.79296692165E+03  0.00000000000E+00 0. -1.
<mgrwt>
<rscale>  2 0.11593646E+04</rscale>
<asrwt>0</asrwt>
<pdfrwt beam="1">  1       21 0.19365353E+00 0.11672688E+04</pdfrwt>
<pdfrwt beam="2">  1       21 0.17321335E+00 0.11672688E+04</pdfrwt>
<totfact> 0.12453412E+01</totfact>
</mgrwt>
</event>
<event>
 8    1  0.5815007E-006  0.1176995E+04  0.7818608E-02  0.8626991E-01
         21   -1    0    0  501  502  0.00000000000E+00  0.00000000000E+00  0.96948334972E+03  0.96948334972E+03  0.00000000000E+00 0.  1.
         21   -1    0    0  502  503 -0.00000000000E+00 -0.00000000000E+00 -0.14479855072E+04  0.14479855072E+04  0.00000000000E+00 0.  1.
   -9000010    2    1    2    0  503  0.56070152789E+03  0.24309913029E+03 -0.44138021389E+02  0.11628810372E+04  0.98836266179E+03 0.  0.
    9000010    2    1    2  501    0 -0.56070152789E+03 -0.24309913029E+03 -0.43436413611E+03  0.12545878197E+04  0.10059000965E+04 0.  0.
        -13    1    4    4    0    0 -0.70240870382E+03 -0.21426782305E+03  0.62585785860E+02  0.73702488353E+03  0.10566000000E+00 0.  1.
          4    1    4    4  501    0  0.14170717593E+03 -0.28831307235E+02 -0.49694992197E+03  0.51756293620E+03  0.00000000000E+00 0.  1.
         13    1    3    3    0    0  0.47759812811E+03 -0.20940654261E+03 -0.33384142421E+03  0.61919397586E+03  0.10566000000E+00 0. -1.
         -4    1    3    3    0  503  0.83103399779E+02  0.45250567290E+03  0.28970340282E+03  0.54368706134E+03  0.00000000000E+00 0. -1.
<mgrwt>
<rscale>  2 0.11732395E+04</rscale>
<asrwt>0</asrwt>
<pdfrwt beam="1">  1       21 0.14915129E+00 0.11769955E+04</pdfrwt>
<pdfrwt beam="2">  1       21 0.22276700E+00 0.11769955E+04</pdfrwt>
<totfact> 0.11956817E+01</totfact>
</mgrwt>
</event>
<event>
 8    1  0.5815007E-006  0.1223963E+04  0.7818608E-02  0.8591846E-01
         21   -1    0    0  503  502  0.00000000000E+00  0.00000000000E+00  0.16482824378E+04  0.16482824378E+04  0.00000000000E+00 0. -1.
         21   -1    0    0  501  503 -0.00000000000E+00 -0.00000000000E+00 -0.10368381375E+04  0.10368381375E+04  0.00000000000E+00 0. -1.
    9000010    2    1    2  501    0 -0.53748416166E+03  0.39236805920E+03 -0.18648593174E+03  0.12380885069E+04  0.10272508117E+04 0.  0.
   -9000010    2    1    2    0  502  0.53748416166E+03 -0.39236805920E+03  0.79793023202E+03  0.14470320685E+04  0.10071579986E+04 0.  0.
        -13    1    3    3    0    0 -0.59937630422E+03  0.37516840171E+03 -0.53311393959E+03  0.88555844949E+03  0.10566000000E+00 0.  1.
          4    1    3    3  501    0  0.61892142564E+02  0.17199657485E+02  0.34662800785E+03  0.35253005738E+03  0.00000000000E+00 0.  1.
         13    1    4    4    0    0 -0.16530669063E+03  0.14218045733E+03 -0.49060813244E+02  0.22349174252E+03  0.10566000000E+00 0. -1.
         -4    1    4    4    0  502  0.70279085229E+03 -0.53454851653E+03  0.84699104526E+03  0.12235403260E+04  0.00000000000E+00 0. -1.
<mgrwt>
<rscale>  2 0.12197379E+04</rscale>
<asrwt>0</asrwt>
<pdfrwt beam="1">  1       21 0.25358191E+00 0.12239633E+04</pdfrwt>
<pdfrwt beam="2">  1       21 0.15951356E+00 0.12239633E+04</pdfrwt>
<totfact> 0.56838414E+00</totfact>
</mgrwt>
</event>
<event>
 8    1  0.5815007E-006  0.1418193E+04  0.7818608E-02  0.8459525E-01
         21   -1    0    0  503  502  0.00000000000E+00  0.00000000000E+00  0.17091331032E+04  0.17091331032E+04  0.00000000000E+00 0.  1.
         21   -1    0    0  501  503 -0.00000000000E+00 -0.00000000000E+00 -0.11816833294E+04  0.11816833294E+04  0.00000000000E+00 0. -1.
    9000010    2    1    2  501    0  0.94218709079E+03  0.35917237864E+03  0.40891567275E+03  0.14676787223E+04  0.98496065546E+03 0.  0.
   -9000010    2    1    2    0  502 -0.94218709079E+03 -0.35917237864E+03  0.11853410106E+03  0.14231377103E+04  0.99727092499E+03 0.  0.
        -13    1    3    3    0    0  0.12213497479E+03  0.45192611042E+03  0.43910345835E+03  0.64184579118E+03  0.10566000000E+00 0.  1.
          4    1    3    3  501    0  0.82005211599E+03 -0.92753731784E+02 -0.30187785604E+02  0.82583293111E+03  0.00000000000E+00 0.  1.
         13    1    4    4    0    0  0.37294227462E+02  0.23285734619E+03  0.14770876047E+03  0.27826478785E+03  0.10566000000E+00 0. -1.
         -4    1    4    4    0  502 -0.97948131825E+03 -0.59202972482E+03 -0.29174659412E+02  0.11448729225E+04  0.00000000000E+00 0. -1.
<mgrwt>
<rscale>  2 0.14160304E+04</rscale>
<asrwt>0</asrwt>
<pdfrwt beam="1">  1       21 0.26294356E+00 0.14181927E+04</pdfrwt>
<pdfrwt beam="2">  1       21 0.18179743E+00 0.14181927E+04</pdfrwt>
<totfact> 0.30415475E+00</totfact>
</mgrwt>
</event>
<event>
 8    1  0.5815007E-006  0.1035814E+04  0.7818608E-02  0.8744878E-01
         21   -1    0    0  503  502  0.00000000000E+00  0.00000000000E+00  0.86239882432E+03  0.86239882432E+03  0.00000000000E+00 0.  1.
         21   -1    0    0  501  503 -0.00000000000E+00 -0.00000000000E+00 -0.12286841550E+04  0.12286841550E+04  0.00000000000E+00 0.  1.
    9000010    2    1    2  501    0  0.23279240294E+02  0.29336496976E+03 -0.21985297128E+03  0.10449701485E+04  0.97827519328E+03 0.  0.
   -9000010    2    1    2    0  502 -0.23279240294E+02 -0.29336496976E+03 -0.14643235945E+03  0.10461128309E+04  0.99312873812E+03 0.  0.
        -13    1    3    3    0    0  0.20222198536E+03 -0.28958815051E+03  0.84888910108E+02  0.36326459572E+03  0.10566000000E+00 0.  1.
          4    1    3    3  501    0 -0.17894274507E+03  0.58295312026E+03 -0.30474188139E+03  0.68170555279E+03  0.00000000000E+00 0.  1.
         13    1    4    4    0    0  0.80822315501E+02  0.31695884916E+03  0.14978206891E+03  0.35976358636E+03  0.10566000000E+00 0. -1.
         -4    1    4    4    0  502 -0.10410155579E+03 -0.61032381892E+03 -0.29621442835E+03  0.68634924450E+03  0.00000000000E+00 0. -1.
<mgrwt>
<rscale>  2 0.10322368E+04</rscale>
<asrwt>0</asrwt>
<pdfrwt beam="1">  1       21 0.13267674E+00 0.10358135E+04</pdfrwt>
<pdfrwt beam="2">  1       21 0.18902833E+00 0.10358135E+04</pdfrwt>
<totfact> 0.31905490E+01</totfact>
</mgrwt>
</event>
<event>
 8    1  0.5815007E-006  0.1269268E+04  0.7818608E-02  0.8559439E-01
         21   -1    0    0  501  502  0.00000000000E+00  0.00000000000E+00  0.11180134701E+04  0.11180134701E+04  0.00000000000E+00 0.  1.
         21   -1    0    0  502  503 -0.00000000000E+00 -0.00000000000E+00 -0.14366513365E+04  0.14366513365E+04  0.00000000000E+00 0.  1.
   -9000010    2    1    2    0  503 -0.50959816875E+03 -0.59327379469E+03 -0.29566496535E+03  0.12851888739E+04  0.97602693657E+03 0.  0.
    9000010    2    1    2  501    0  0.50959816875E+03  0.59327379469E+03 -0.22972901003E+02  0.12694759326E+04  0.99968860167E+03 0.  0.
        -13    1    4    4    0    0  0.13207779972E+03  0.42922725648E+03 -0.47801689765E+03  0.65588165738E+03  0.10566000000E+00 0.  1.
          4    1    4    4  501    0  0.37752036903E+03  0.16404653821E+03  0.45504399665E+03  0.61359427525E+03  0.00000000000E+00 0.  1.
         13    1    3    3    0    0 -0.42460383519E+03 -0.49974545540E+03 -0.64126937759E+03  0.91720246557E+03  0.10566000000E+00 0. -1.
         -4    1    3    3    0  503 -0.84994333561E+02 -0.93528339289E+02  0.34560441224E+03  0.36798640837E+03  0.00000000000E+00 0. -1.
<mgrwt>
<rscale>  2 0.12646046E+04</rscale>
<asrwt>0</asrwt>
<pdfrwt beam="1">  1       21 0.17200207E+00 0.12692681E+04</pdfrwt>
<pdfrwt beam="2">  1       21 0.22102328E+00 0.12692681E+04</pdfrwt>
<totfact> 0.76755866E+00</totfact>
</mgrwt>
</event>
<event>
 8    1  0.5815007E-006  0.1104393E+04  0.7818608E-02  0.8689477E-01
         21   -1    0    0  503  502  0.00000000000E+00  0.00000000000E+00  0.14583688672E+04  0.14583688672E+04  0.00000000000E+00 0. -1.
         21   -1    0    0  501  503 -0.00000000000E+00 -0.00000000000E+00 -0.84662541036E+03  0.84662541036E+03  0.00000000000E+00 0. -1.
    9000010    2    1    2  501    0  0.53271827368E+02 -0.44152925746E+03  0.63945709350E+02  0.10722062144E+04  0.97352510995E+03 0.  0.
   -9000010    2    1    2    0  502 -0.53271827368E+02  0.44152925746E+03  0.54779774749E+03  0.12327880631E+04  0.10108897386E+04 0.  0.
        -13    1    3    3    0    0 -0.29266063412E+03  0.10750084959E+03  0.24721673178E+03  0.39789798072E+03  0.10566000000E+00 0.  1.
          4    1    3    3  501    0  0.34593246148E+03 -0.54903010706E+03 -0.18327102243E+03  0.67430823369E+03  0.00000000000E+00 0.  1.
         13    1    4    4    0    0 -0.65789006143E+02  0.46175357288E+03 -0.18341819792E+03  0.50118539672E+03  0.10566000000E+00 0. -1.
         -4    1    4    4    0  502  0.12517178775E+02 -0.20224315418E+02  0.73121594541E+03  0.73160266642E+03  0.00000000000E+00 0. -1.
<mgrwt>
<rscale>  2 0.10957687E+04</rscale>
<asrwt>0</asrwt>
<pdfrwt beam="1">  1       21 0.22436444E+00 0.11043931E+04</pdfrwt>
<pdfrwt beam="2">  1       21 0.13025006E+00 0.11043931E+04</pdfrwt>
<totfact> 0.17694625E+01</totfact>
</mgrwt>
</event>
<event>
 8    1  0.5815007E-006  0.1083249E+04  0.7818608E-02  0.8723995E-01
         21   -1    0    0  503  502  0.00000000000E+00  0.00000000000E+00  0.12822607062E+04  0.12822607062E+04  0.00000000000E+00 0. -1.
         21   -1    0    0  501  503 -0.00000000000E+00 -0.00000000000E+00 -0.10237763404E+04  0.10237763404E+04  0.00000000000E+00 0. -1.
    9000010    2    1    2  501    0 -0.22248824591E+02  0.41695338192E+03  0.62810158749E+03  0.11614649638E+04  0.88325767762E+03 0.  0.
   -9000010    2    1    2    0  502  0.22248824591E+02 -0.41695338192E+03 -0.36961722173E+03  0.11445720828E+04  0.99954150949E+03 0.  0.
        -13    1    3    3    0    0 -0.17097872686E+03  0.11375467025E+03 -0.18789238471E+03  0.27834764134E+03  0.10566000000E+00 0.  1.
          4    1    3    3  501    0  0.14872990227E+03  0.30319871168E+03  0.81599397220E+03  0.88311732248E+03  0.00000000000E+00 0.  1.
         13    1    4    4    0    0 -0.10423997991E+03  0.22879240495E+03 -0.41475426018E+03  0.48500829423E+03  0.10566000000E+00 0. -1.
         -4    1    4    4    0  502  0.12648880450E+03 -0.64574578687E+03  0.45137038453E+02  0.65956378855E+03  0.00000000000E+00 0. -1.
<mgrwt>
<rscale>  2 0.10556443E+04</rscale>
<asrwt>0</asrwt>
<pdfrwt beam="1">  1       21 0.19727088E+00 0.10832490E+04</pdfrwt>
<pdfrwt beam="2">  1       21 0.15750405E+00 0.10832490E+04</pdfrwt>
<totfact> 0.16153897E+01</totfact>
</mgrwt>
</event>
<event>
 8    1  0.5815007E-006  0.1198248E+04  0.7818608E-02  0.8613925E-01
         21   -1    0    0  501  502  0.00000000000E+00  0.00000000000E+00  0.43913103331E+03  0.43913103331E+03  0.00000000000E+00 0. -1.
         21   -1    0    0  502  503 -0.00000000000E+00 -0.00000000000E+00 -0.38189132308E+04  0.38189132308E+04  0.00000000000E+00 0.  1.
   -9000010    2    1    2    0  503 -0.62686501499E+03  0.16170403602E+03 -0.25391041424E+04  0.27943028437E+04  0.97055169555E+03 0.  0.
    9000010    2    1    2  501    0  0.62686501499E+03 -0.16170403602E+03 -0.84067805507E+03  0.14637414205E+04  0.10083111679E+04 0.  0.
        -13    1    4    4    0    0  0.82734790201E+03 -0.36750426965E+03 -0.57533688231E+03  0.10726492803E+04  0.10566000000E+00 0.  1.
          4    1    4    4  501    0 -0.20048288702E+03  0.20580023363E+03 -0.26534117277E+03  0.39109214018E+03  0.00000000000E+00 0.  1.
         13    1    3    3    0    0 -0.76138780650E+03  0.40912341573E+03 -0.16655294921E+04  0.18764545988E+04  0.10566000000E+00 0. -1.
         -4    1    3    3    0  503  0.13452279151E+03 -0.24741937971E+03 -0.87357465032E+03  0.91784824485E+03  0.00000000000E+00 0. -1.
<mgrwt>
<rscale>  2 0.11902702E+04</rscale>
<asrwt>0</asrwt>
<pdfrwt beam="1">  1       21 0.67558618E-01 0.11982485E+04</pdfrwt>
<pdfrwt beam="2">  1       21 0.58752513E+00 0.11982485E+04</pdfrwt>
<totfact> 0.25190456E-01</totfact>
</mgrwt>
</event>
<event>
 8    1  0.5815007E-006  0.1074000E+04  0.7818608E-02  0.8708709E-01
         21   -1    0    0  503  502  0.00000000000E+00  0.00000000000E+00  0.11746119319E+04  0.11746119319E+04  0.00000000000E+00 0.  1.
         21   -1    0    0  501  503 -0.00000000000E+00 -0.00000000000E+00 -0.99528763120E+03  0.99528763120E+03  0.00000000000E+00 0.  1.
    9000010    2    1    2  501    0 -0.37508510788E+03  0.12410080825E+03  0.22813912039E+03  0.10947909236E+04  0.99520342609E+03 0.  0.
   -9000010    2    1    2    0  502  0.37508510788E+03 -0.12410080825E+03 -0.48814819652E+02  0.10751086396E+04  0.99869207043E+03 0.  0.
        -13    1    3    3    0    0  0.99796115938E+02  0.26146088931E+03 -0.27292793903E+03  0.39091013348E+03  0.10566000000E+00 0.  1.
          4    1    3    3  501    0 -0.47488122382E+03 -0.13736008106E+03  0.50106705942E+03  0.70388079007E+03  0.00000000000E+00 0.  1.
         13    1    4    4    0    0  0.16163934251E+03 -0.27561740124E+03  0.42624556987E+03  0.53270773030E+03  0.10566000000E+00 0. -1.
         -4    1    4    4    0  502  0.21344576537E+03  0.15151659299E+03 -0.47506038952E+03  0.54240090929E+03  0.00000000000E+00 0. -1.
<mgrwt>
<rscale>  2 0.10731881E+04</rscale>
<asrwt>0</asrwt>
<pdfrwt beam="1">  1       21 0.18070953E+00 0.10739999E+04</pdfrwt>
<pdfrwt beam="2">  1       21 0.15312117E+00 0.10739999E+04</pdfrwt>
<totfact> 0.23989176E+01</totfact>
</mgrwt>
</event>
<event>
 8    1  0.5815007E-006  0.1060330E+04  0.7818608E-02  0.8723746E-01
         21   -1    0    0  501  502  0.00000000000E+00  0.00000000000E+00  0.90180253454E+03  0.90180253454E+03  0.00000000000E+00 0. -1.
         21   -1    0    0  502  503 -0.00000000000E+00 -0.00000000000E+00 -0.12262709642E+04  0.12262709642E+04  0.00000000000E+00 0. -1.
   -9000010    2    1    2    0  503  0.27360290687E+02 -0.31719239458E+03 -0.16669946845E+03  0.10560701524E+04  0.99304373184E+03 0.  0.
    9000010    2    1    2  501    0 -0.27360290687E+02  0.31719239458E+03 -0.15776896123E+03  0.10720033463E+04  0.10114052248E+04 0.  0.
        -13    1    4    4    0    0 -0.23715748144E+02  0.38235907907E+03  0.37450790422E+03  0.53573975356E+03  0.10566000000E+00 0.  1.
          4    1    4    4  501    0 -0.36445425434E+01 -0.65166684493E+02 -0.53227686545E+03  0.53626359279E+03  0.00000000000E+00 0.  1.
         13    1    3    3    0    0 -0.11345841927E+03  0.20527462706E+03 -0.40247021506E+03  0.46582482822E+03  0.10566000000E+00 0. -1.
         -4    1    3    3    0  503  0.14081870995E+03 -0.52246702164E+03  0.23577074661E+03  0.59024532419E+03  0.00000000000E+00 0. -1.
<mgrwt>
<rscale>  2 0.10559279E+04</rscale>
<asrwt>0</asrwt>
<pdfrwt beam="1">  1       21 0.13873885E+00 0.10603302E+04</pdfrwt>
<pdfrwt beam="2">  1       21 0.18865707E+00 0.10603302E+04</pdfrwt>
<totfact> 0.28012486E+01</totfact>
</mgrwt>
</event>
<event>
 8    1  0.5815007E-006  0.1408760E+04  0.7818608E-02  0.8476295E-01
         21   -1    0    0  501  502  0.00000000000E+00  0.00000000000E+00  0.15592528884E+04  0.15592528884E+04  0.00000000000E+00 0. -1.
         21   -1    0    0  502  503 -0.00000000000E+00 -0.00000000000E+00 -0.16093067592E+04  0.16093067592E+04  0.00000000000E+00 0.  1.
   -9000010    2    1    2    0  503  0.50508311640E+03 -0.77560843743E+03 -0.81900254910E+03  0.15636025831E+04  0.95781546224E+03 0.  0.
    9000010    2    1    2  501    0 -0.50508311640E+03  0.77560843743E+03  0.76894867831E+03  0.16049570646E+04  0.10620394092E+04 0.  0.
        -13    1    4    4    0    0 -0.77033546383E+02 -0.22578581478E+03  0.37972851798E+03  0.44844972958E+03  0.10566000000E+00 0.  1.
          4    1    4    4  501    0 -0.42804957002E+03  0.10013942522E+04  0.38922016032E+03  0.11565073350E+04  0.00000000000E+00 0.  1.
         13    1    3    3    0    0  0.61463920248E+03 -0.54592219162E+03 -0.13408890132E+03  0.83294191463E+03  0.10566000000E+00 0. -1.
         -4    1    3    3    0  503 -0.10955608608E+03 -0.22968624581E+03 -0.68491364778E+03  0.73066066846E+03  0.00000000000E+00 0. -1.
<mgrwt>
<rscale>  2 0.13891517E+04</rscale>
<asrwt>0</asrwt>
<pdfrwt beam="1">  1       21 0.23988506E+00 0.14087601E+04</pdfrwt>
<pdfrwt beam="2">  1       21 0.24758565E+00 0.14087601E+04</pdfrwt>
<totfact> 0.14038495E+00</totfact>
</mgrwt>
</event>
<event>
 8    1  0.5815007E-006  0.1036086E+04  0.7818608E-02  0.8742702E-01
         21   -1    0    0  501  502  0.00000000000E+00  0.00000000000E+00  0.81709307931E+03  0.81709307931E+03  0.00000000000E+00 0.  1.
         21   -1    0    0  502  503 -0.00000000000E+00 -0.00000000000E+00 -0.13166001343E+04  0.13166001343E+04  0.00000000000E+00 0.  1.
   -9000010    2    1    2    0  503 -0.23994724657E+03 -0.13388481545E+03 -0.34252513874E+03  0.10857823610E+04  0.99302569944E+03 0.  0.
    9000010    2    1    2  501    0  0.23994724657E+03  0.13388481545E+03 -0.15698191623E+03  0.10479108526E+04  0.99898649045E+03 0.  0.
        -13    1    4    4    0    0 -0.35164165382E+03 -0.12087380177E+03 -0.15745345708E+03  0.40379936969E+03  0.10566000000E+00 0.  1.
          4    1    4    4  501    0  0.59158890039E+03  0.25475861721E+03  0.47154085058E+00  0.64411148294E+03  0.00000000000E+00 0.  1.
         13    1    3    3    0    0 -0.29496589881E+03  0.15181129798E+03  0.25683195217E+03  0.41954048014E+03  0.10566000000E+00 0. -1.
         -4    1    3    3    0  503  0.55018652233E+02 -0.28569611343E+03 -0.59935709091E+03  0.66624188081E+03  0.00000000000E+00 0. -1.
<mgrwt>
<rscale>  2 0.10346463E+04</rscale>
<asrwt>0</asrwt>
<pdfrwt beam="1">  1       21 0.12570663E+00 0.10360858E+04</pdfrwt>
<pdfrwt beam="2">  1       21 0.20255386E+00 0.10360858E+04</pdfrwt>
<totfact> 0.29162657E+01</totfact>
</mgrwt>
</event>
<event>
 8    1  0.5815007E-006  0.1019144E+04  0.7818608E-02  0.8764627E-01
         21   -1    0    0  501  502  0.00000000000E+00  0.00000000000E+00  0.13803375272E+04  0.13803375272E+04  0.00000000000E+00 0. -1.
         21   -1    0    0  502  503 -0.00000000000E+00 -0.00000000000E+00 -0.74386921349E+03  0.74386921349E+03  0.00000000000E+00 0. -1.
   -9000010    2    1    2    0  503  0.12891359245E+03  0.19185117305E+03  0.16812992807E+03  0.10329192724E+04  0.99258700559E+03 0.  0.
    9000010    2    1    2  501    0 -0.12891359245E+03 -0.19185117305E+03  0.46833838569E+03  0.10912874683E+04  0.95819721775E+03 0.  0.
        -13    1    4    4    0    0  0.14506663016E+03 -0.34074148263E+03 -0.14937847412E+03  0.39932821696E+03  0.10566000000E+00 0.  1.
          4    1    4    4  501    0 -0.27398022261E+03  0.14889030958E+03  0.61771685980E+03  0.69195925137E+03  0.00000000000E+00 0.  1.
         13    1    3    3    0    0  0.14183993769E+03 -0.33247717486E+03  0.32435397167E+03  0.48565949988E+03  0.10566000000E+00 0. -1.
         -4    1    3    3    0  503 -0.12926345231E+02  0.52432834791E+03 -0.15622404360E+03  0.54725977252E+03  0.00000000000E+00 0. -1.
<mgrwt>
<rscale>  2 0.10106733E+04</rscale>
<asrwt>0</asrwt>
<pdfrwt beam="1">  1       21 0.21235962E+00 0.10191440E+04</pdfrwt>
<pdfrwt beam="2">  1       21 0.11444142E+00 0.10191440E+04</pdfrwt>
<totfact> 0.31991827E+01</totfact>
</mgrwt>
</event>
<event>
 8    1  0.5815007E-006  0.1179657E+04  0.7818608E-02  0.8625886E-01
         21   -1    0    0  503  502  0.00000000000E+00  0.00000000000E+00  0.17949567755E+04  0.17949567755E+04  0.00000000000E+00 0. -1.
         21   -1    0    0  501  503 -0.00000000000E+00 -0.00000000000E+00 -0.82459162345E+03  0.82459162345E+03  0.00000000000E+00 0. -1.
    9000010    2    1    2  501    0  0.49207280491E+03  0.34120152439E+03  0.12900394496E+03  0.11866900381E+04  0.10163843285E+04 0.  0.
   -9000010    2    1    2    0  502 -0.49207280491E+03 -0.34120152439E+03  0.84136120714E+03  0.14328583609E+04  0.99329767740E+03 0.  0.
        -13    1    3    3    0    0 -0.68296113195E+02  0.54707476029E+03  0.19784153462E+03  0.58574434390E+03  0.10566000000E+00 0.  1.
          4    1    3    3  501    0  0.56036891810E+03 -0.20587323590E+03 -0.68837589659E+02  0.60094569421E+03  0.00000000000E+00 0.  1.
         13    1    4    4    0    0 -0.29052660862E+03  0.31485365200E+03  0.13789551384E+03  0.45005968092E+03  0.10566000000E+00 0. -1.
         -4    1    4    4    0  502 -0.20154619629E+03 -0.65605517639E+03  0.70346569329E+03  0.98279867997E+03  0.00000000000E+00 0. -1.
<mgrwt>
<rscale>  2 0.11746677E+04</rscale>
<asrwt>0</asrwt>
<pdfrwt beam="1">  1       21 0.27614720E+00 0.11796573E+04</pdfrwt>
<pdfrwt beam="2">  1       21 0.12686025E+00 0.11796573E+04</pdfrwt>
<totfact> 0.78735042E+00</totfact>
</mgrwt>
</event>
<event>
 8    1  0.5815007E-006  0.1087198E+04  0.7818608E-02  0.8697195E-01
         21   -1    0    0  503  502  0.00000000000E+00  0.00000000000E+00  0.51852566857E+03  0.51852566857E+03  0.00000000000E+00 0. -1.
         21   -1    0    0  501  503 -0.00000000000E+00 -0.00000000000E+00 -0.29361193454E+04  0.29361193454E+04  0.00000000000E+00 0. -1.
    9000010    2    1    2  501    0 -0.37003241586E+03 -0.20918243628E+03 -0.20275720462E+04  0.22996055559E+04  0.99822644213E+03 0.  0.
   -9000010    2    1    2    0  502  0.37003241586E+03  0.20918243628E+03 -0.39002163061E+03  0.11550394581E+04  0.10006587814E+04 0.  0.
        -13    1    3    3    0    0 -0.41554559386E+03  0.14179440525E+03 -0.28962975739E+03  0.52599353747E+03  0.10566000000E+00 0.  1.
          4    1    3    3  501    0  0.45513177999E+02 -0.35097684152E+03 -0.17379422888E+04  0.17736120185E+04  0.00000000000E+00 0.  1.
         13    1    4    4    0    0 -0.82417853870E+02 -0.89978582360E+02  0.27263619822E+03  0.29869609248E+03  0.10566000000E+00 0. -1.
         -4    1    4    4    0  502  0.45245026973E+03  0.29916101864E+03 -0.66265782883E+03  0.85634336557E+03  0.00000000000E+00 0. -1.
<mgrwt>
<rscale>  2 0.10866379E+04</rscale>
<asrwt>0</asrwt>
<pdfrwt beam="1">  1       21 0.79773180E-01 0.10871979E+04</pdfrwt>
<pdfrwt beam="2">  1       21 0.45171067E+00 0.10871979E+04</pdfrwt>
<totfact> 0.16152116E+00</totfact>
</mgrwt>
</event>
<event>
 8    1  0.5815007E-006  0.1086227E+04  0.7818608E-02  0.8699184E-01
         21   -1    0    0  501  502  0.00000000000E+00  0.00000000000E+00  0.11148167276E+04  0.11148167276E+04  0.00000000000E+00 0. -1.
         21   -1    0    0  502  503 -0.00000000000E+00 -0.00000000000E+00 -0.10947512393E+04  0.10947512393E+04  0.00000000000E+00 0. -1.
   -9000010    2    1    2    0  503  0.35762072172E+03 -0.19574830268E+03 -0.21106426129E+03  0.11065426308E+04  0.10068160174E+04 0.  0.
    9000010    2    1    2  501    0 -0.35762072172E+03  0.19574830268E+03  0.23112974961E+03  0.11030253361E+04  0.99851587480E+03 0.  0.
        -13    1    4    4    0    0 -0.21631660832E+03  0.58391439191E+03  0.28795092013E+03  0.68605002419E+03  0.10566000000E+00 0.  1.
          4    1    4    4  501    0 -0.14130411339E+03 -0.38816608923E+03 -0.56821170521E+02  0.41697531187E+03  0.00000000000E+00 0.  1.
         13    1    3    3    0    0  0.45186287410E+03  0.16647515461E+03  0.22529834052E+03  0.53165156587E+03  0.10566000000E+00 0. -1.
         -4    1    3    3    0  503 -0.94242152380E+02 -0.36222345729E+03 -0.43636260181E+03  0.57489106495E+03  0.00000000000E+00 0. -1.
<mgrwt>
<rscale>  2 0.10842994E+04</rscale>
<asrwt>0</asrwt>
<pdfrwt beam="1">  1       21 0.17151027E+00 0.10862267E+04</pdfrwt>
<pdfrwt beam="2">  1       21 0.16842327E+00 0.10862267E+04</pdfrwt>
<totfact> 0.21032875E+01</totfact>
</mgrwt>
</event>
<event>
 8    1  0.5815007E-006  0.1008423E+04  0.7818608E-02  0.8780203E-01
         21   -1    0    0  501  502  0.00000000000E+00  0.00000000000E+00  0.29927602887E+04  0.29927602887E+04  0.00000000000E+00 0. -1.
         21   -1    0    0  502  503 -0.00000000000E+00 -0.00000000000E+00 -0.33882035705E+03  0.33882035705E+03  0.00000000000E+00 0. -1.
   -9000010    2    1    2    0  503  0.38761713509E+03 -0.30435607522E+03  0.90999573214E+03  0.13170685841E+04  0.81467647493E+03 0.  0.
    9000010    2    1    2  501    0 -0.38761713509E+03  0.30435607522E+03  0.17439441995E+04  0.20145120616E+04  0.87979418702E+03 0.  0.
        -13    1    4    4    0    0 -0.28275607246E+03  0.45747704320E+03  0.17480198700E+04  0.18288820953E+04  0.10566000000E+00 0.  1.
          4    1    4    4  501    0 -0.10486106263E+03 -0.15312096798E+03 -0.40756705084E+01  0.18562996628E+03  0.00000000000E+00 0.  1.
         13    1    3    3    0    0  0.11300694952E+03  0.20093434384E+03  0.64289302495E+03  0.68297630550E+03  0.10566000000E+00 0. -1.
         -4    1    3    3    0  503  0.27461018556E+03 -0.50529041906E+03  0.26710270719E+03  0.63409227861E+03  0.00000000000E+00 0. -1.
<mgrwt>
<rscale>  2 0.99404891E+03</rscale>
<asrwt>0</asrwt>
<pdfrwt beam="1">  1       21 0.46042464E+00 0.10084233E+04</pdfrwt>
<pdfrwt beam="2">  1       21 0.52126211E-01 0.10084233E+04</pdfrwt>
<totfact> 0.38538403E+00</totfact>
</mgrwt>
</event>
<event>
 8    1  0.5815007E-006  0.1073930E+04  0.7818608E-02  0.8708787E-01
         21   -1    0    0  503  502  0.00000000000E+00  0.00000000000E+00  0.21102630540E+04  0.21102630540E+04  0.00000000000E+00 0. -1.
         21   -1    0    0  501  503 -0.00000000000E+00 -0.00000000000E+00 -0.61996619563E+03  0.61996619563E+03  0.00000000000E+00 0. -1.
    9000010    2    1    2  501    0  0.29456764893E+03  0.23792419862E+03  0.12193346601E+04  0.16226432485E+04  0.10014070474E+04 0.  0.
   -9000010    2    1    2    0  502 -0.29456764893E+03 -0.23792419862E+03  0.27096219830E+03  0.11075860011E+04  0.10049617967E+04 0.  0.
        -13    1    3    3    0    0  0.29049172123E+03 -0.57816330565E+02  0.12858211325E+04  0.13194939045E+04  0.10566000000E+00 0.  1.
          4    1    3    3  501    0  0.40759277039E+01  0.29574052919E+03 -0.66486472356E+02  0.30314934405E+03  0.00000000000E+00 0.  1.
         13    1    4    4    0    0 -0.16534581112E+03 -0.30489616986E+03 -0.33630722285E+03  0.48311848542E+03  0.10566000000E+00 0. -1.
         -4    1    4    4    0  502 -0.12922183781E+03  0.66971971240E+02  0.60726942115E+03  0.62446751570E+03  0.00000000000E+00 0. -1.
<mgrwt>
<rscale>  2 0.10730979E+04</rscale>
<asrwt>0</asrwt>
<pdfrwt beam="1">  1       21 0.32465585E+00 0.10739303E+04</pdfrwt>
<pdfrwt beam="2">  1       21 0.95379416E-01 0.10739303E+04</pdfrwt>
<totfact> 0.79275924E+00</totfact>
</mgrwt>
</event>
<event>
 8    1  0.5815007E-006  0.1105212E+04  0.7818608E-02  0.8684930E-01
         21   -1    0    0  503  502  0.00000000000E+00  0.00000000000E+00  0.24733023679E+04  0.24733023679E+04  0.00000000000E+00 0.  1.
         21   -1    0    0  501  503 -0.00000000000E+00 -0.00000000000E+00 -0.49677509829E+03  0.49677509829E+03  0.00000000000E+00 0.  1.
    9000010    2    1    2  501    0 -0.52137685076E+03 -0.53674257594E+02  0.12062729620E+04  0.16360284287E+04  0.97302611180E+03 0.  0.
   -9000010    2    1    2    0  502  0.52137685076E+03  0.53674257594E+02  0.77025430760E+03  0.13340490375E+04  0.95481955863E+03 0.  0.
        -13    1    3    3    0    0 -0.61100612112E+03  0.15853442222E+03  0.12511198932E+04  0.14013431562E+04  0.10566000000E+00 0.  1.
          4    1    3    3  501    0  0.89629270358E+02 -0.21220867981E+03 -0.44846931213E+02  0.23468527251E+03  0.00000000000E+00 0.  1.
         13    1    4    4    0    0  0.66793299421E+03 -0.27939202306E+03  0.48131822501E+03  0.86940303208E+03  0.10566000000E+00 0. -1.
         -4    1    4    4    0  502 -0.14655614345E+03  0.33306628066E+03  0.28893608259E+03  0.46464600538E+03  0.00000000000E+00 0. -1.
<mgrwt>
<rscale>  2 0.11011919E+04</rscale>
<asrwt>0</asrwt>
<pdfrwt beam="1">  1       21 0.38050805E+00 0.11052125E+04</pdfrwt>
<pdfrwt beam="2">  1       21 0.76426940E-01 0.11052125E+04</pdfrwt>
<totfact> 0.55671245E+00</totfact>
</mgrwt>
</event>
<event>
 8    1  0.5815007E-006  0.1071360E+04  0.7818608E-02  0.8716756E-01
         21   -1    0    0  503  502  0.00000000000E+00  0.00000000000E+00  0.12467797028E+04  0.12467797028E+04  0.00000000000E+00 0.  1.
         21   -1    0    0  501  503 -0.00000000000E+00 -0.00000000000E+00 -0.99505304028E+03  0.99505304028E+03  0.00000000000E+00 0.  1.
    9000010    2    1    2  501    0  0.29560468739E+03  0.21701997904E+03 -0.23032539619E+03  0.10670192781E+04  0.97519257036E+03 0.  0.
   -9000010    2    1    2    0  502 -0.29560468739E+03 -0.21701997904E+03  0.48205205865E+03  0.11748134649E+04  0.10066442706E+04 0.  0.
        -13    1    3    3    0    0  0.27779006522E+03  0.27772286585E+02 -0.59418421379E+03  0.65650096063E+03  0.10566000000E+00 0.  1.
          4    1    3    3  501    0  0.17814622168E+02  0.18924769245E+03  0.36385881760E+03  0.41051831750E+03  0.00000000000E+00 0.  1.
         13    1    4    4    0    0 -0.60317215436E+03 -0.32055825150E+03  0.12876162805E+03  0.69509266176E+03  0.10566000000E+00 0. -1.
         -4    1    4    4    0  502  0.30756746698E+03  0.10353827247E+03  0.35329043060E+03  0.47972080314E+03  0.00000000000E+00 0. -1.
<mgrwt>
<rscale>  2 0.10639087E+04</rscale>
<asrwt>0</asrwt>
<pdfrwt beam="1">  1       21 0.19181226E+00 0.10713601E+04</pdfrwt>
<pdfrwt beam="2">  1       21 0.15308508E+00 0.10713601E+04</pdfrwt>
<totfact> 0.19554324E+01</totfact>
</mgrwt>
</event>
<event>
 8    1  0.5815007E-006  0.1156056E+04  0.7818608E-02  0.8648779E-01
         21   -1    0    0  501  502  0.00000000000E+00  0.00000000000E+00  0.15863137519E+04  0.15863137519E+04  0.00000000000E+00 0. -1.
         21   -1    0    0  502  503 -0.00000000000E+00 -0.00000000000E+00 -0.81387057293E+03  0.81387057293E+03  0.00000000000E+00 0. -1.
   -9000010    2    1    2    0  503  0.53671762640E+03  0.90765448643E+02  0.43020465097E+03  0.11945343341E+04  0.97238472655E+03 0.  0.
    9000010    2    1    2  501    0 -0.53671762640E+03 -0.90765448643E+02  0.34223852795E+03  0.12056499907E+04  0.10198825976E+04 0.  0.
        -13    1    4    4    0    0 -0.65427730752E+03 -0.38741488861E+03  0.43153731869E+03  0.87429603661E+03  0.10566000000E+00 0.  1.
          4    1    4    4  501    0  0.11755968111E+03  0.29664943997E+03 -0.89298790740E+02  0.33135395408E+03  0.00000000000E+00 0.  1.
         13    1    3    3    0    0  0.27771734569E+03  0.37412082747E+02  0.73760579849E+03  0.78904303632E+03  0.10566000000E+00 0. -1.
         -4    1    3    3    0  503  0.25900028071E+03  0.53353365895E+02 -0.30740114752E+03  0.40549129776E+03  0.00000000000E+00 0. -1.
<mgrwt>
<rscale>  2 0.11454921E+04</rscale>
<asrwt>0</asrwt>
<pdfrwt beam="1">  1       21 0.24404827E+00 0.11560557E+04</pdfrwt>
<pdfrwt beam="2">  1       21 0.12521086E+00 0.11560557E+04</pdfrwt>
<totfact> 0.14014611E+01</totfact>
</mgrwt>
</event>
<event>
 8    1  0.5815007E-006  0.1233533E+04  0.7818608E-02  0.8600030E-01
         21   -1    0    0  501  502  0.00000000000E+00  0.00000000000E+00  0.90326328805E+03  0.90326328805E+03  0.00000000000E+00 0. -1.
         21   -1    0    0  502  503 -0.00000000000E+00 -0.00000000000E+00 -0.15556351351E+04  0.15556351351E+04  0.00000000000E+00 0. -1.
   -9000010    2    1    2    0  503  0.16269921286E+03  0.45111209046E+03 -0.30606791616E+03  0.11776759436E+04  0.10311497984E+04 0.  0.
    9000010    2    1    2  501    0 -0.16269921286E+03 -0.45111209046E+03 -0.34630393093E+03  0.12812224796E+04  0.11364996602E+04 0.  0.
        -13    1    4    4    0    0 -0.49338809282E+03  0.10857715080E+03 -0.37709115539E+03  0.63041141999E+03  0.10566000000E+00 0.  1.
          4    1    4    4  501    0  0.33068887996E+03 -0.55968924126E+03  0.30787224462E+02  0.65081105960E+03  0.00000000000E+00 0.  1.
         13    1    3    3    0    0  0.16922936161E+03  0.60468137490E+03 -0.58564104339E+03  0.85863472143E+03  0.10566000000E+00 0. -1.
         -4    1    3    3    0  503 -0.65301487509E+01 -0.15356928444E+03  0.27957312723E+03  0.31904122216E+03  0.00000000000E+00 0. -1.
<mgrwt>
<rscale>  2 0.12087130E+04</rscale>
<asrwt>0</asrwt>
<pdfrwt beam="1">  1       21 0.13896358E+00 0.12335334E+04</pdfrwt>
<pdfrwt beam="2">  1       21 0.23932848E+00 0.12335334E+04</pdfrwt>
<totfact> 0.11028616E+01</totfact>
</mgrwt>
</event>
<event>
 8    1  0.5815007E-006  0.1379575E+04  0.7818608E-02  0.8483709E-01
         21   -1    0    0  501  502  0.00000000000E+00  0.00000000000E+00  0.13760514093E+04  0.13760514093E+04  0.00000000000E+00 0. -1.
         21   -1    0    0  502  503 -0.00000000000E+00 -0.00000000000E+00 -0.14828171269E+04  0.14828171269E+04  0.00000000000E+00 0.  1.
   -9000010    2    1    2    0  503  0.14540033762E+03  0.93697533279E+03 -0.43926783349E+03  0.14397899479E+04  0.99044173582E+03 0.  0.
    9000010    2    1    2  501    0 -0.14540033762E+03 -0.93697533279E+03  0.33250211597E+03  0.14190785883E+04  0.10020790140E+04 0.  0.
        -13    1    4    4    0    0 -0.10469134778E+03  0.18029816232E+03  0.20741210391E+03  0.29408756799E+03  0.10566000000E+00 0.  1.
          4    1    4    4  501    0 -0.40708989847E+02 -0.11172734951E+04  0.12509001205E+03  0.11249910203E+04  0.00000000000E+00 0.  1.
         13    1    3    3    0    0  0.26528596056E+03  0.50265224768E+03 -0.71359707255E+03  0.91228105104E+03  0.10566000000E+00 0. -1.
         -4    1    3    3    0  503 -0.11988562294E+03  0.43432308511E+03  0.27432923906E+03  0.52750889685E+03  0.00000000000E+00 0. -1.
<mgrwt>
<rscale>  2 0.13774625E+04</rscale>
<asrwt>0</asrwt>
<pdfrwt beam="1">  1       21 0.21170022E+00 0.13795747E+04</pdfrwt>
<pdfrwt beam="2">  1       21 0.22812571E+00 0.13795747E+04</pdfrwt>
<totfact> 0.32021099E+00</totfact>
</mgrwt>
</event>
<event>
 8    1  0.5815007E-006  0.1135933E+04  0.7818608E-02  0.8656956E-01
         21   -1    0    0  501  502  0.00000000000E+00  0.00000000000E+00  0.62819752948E+03  0.62819752948E+03  0.00000000000E+00 0. -1.
         21   -1    0    0  502  503 -0.00000000000E+00 -0.00000000000E+00 -0.21214434821E+04  0.21214434821E+04  0.00000000000E+00 0. -1.
   -9000010    2    1    2    0  503 -0.21628557751E+02 -0.54294248225E+03 -0.99922387969E+03  0.15109317551E+04  0.99459141025E+03 0.  0.
    9000010    2    1    2  501    0  0.21628557751E+02  0.54294248225E+03 -0.49402207289E+03  0.12387092564E+04  0.99754121714E+03 0.  0.
        -13    1    4    4    0    0  0.49939901767E+03  0.23017785514E+03 -0.14216818978E+03  0.56797273632E+03  0.10566000000E+00 0.  1.
          4    1    4    4  501    0 -0.47777045992E+03  0.31276462711E+03 -0.35185388311E+03  0.67073652011E+03  0.00000000000E+00 0.  1.
         13    1    3    3    0    0  0.10646139653E+03 -0.74553596884E+03 -0.10227298272E+04  0.12700922094E+04  0.10566000000E+00 0. -1.
         -4    1    3    3    0  503 -0.12808995428E+03  0.20259348658E+03  0.23505947553E+02  0.24083954568E+03  0.00000000000E+00 0. -1.
<mgrwt>
<rscale>  2 0.11352846E+04</rscale>
<asrwt>0</asrwt>
<pdfrwt beam="1">  1       21 0.96645774E-01 0.11359326E+04</pdfrwt>
<pdfrwt beam="2">  1       21 0.32637592E+00 0.11359326E+04</pdfrwt>
<totfact> 0.73535478E+00</totfact>
</mgrwt>
</event>
<event>
 8    1  0.5815007E-006  0.1159566E+04  0.7818608E-02  0.8640354E-01
         21   -1    0    0  503  502  0.00000000000E+00  0.00000000000E+00  0.59210140097E+03  0.59210140097E+03  0.00000000000E+00 0. -1.
         21   -1    0    0  501  503 -0.00000000000E+00 -0.00000000000E+00 -0.22511736709E+04  0.22511736709E+04  0.00000000000E+00 0. -1.
    9000010    2    1    2  501    0  0.26486496512E+03  0.48771355799E+03 -0.91398197860E+03  0.14764676397E+04  0.10181236023E+04 0.  0.
   -9000010    2    1    2    0  502 -0.26486496512E+03 -0.48771355799E+03 -0.74509029137E+03  0.13668074322E+04  0.10024894264E+04 0.  0.
        -13    1    3    3    0    0  0.50552521443E+02  0.77673923336E+03 -0.75047605420E+03  0.10812463702E+04  0.10566000000E+00 0.  1.
          4    1    3    3  501    0  0.21431244367E+03 -0.28902567537E+03 -0.16350592440E+03  0.39522126948E+03  0.00000000000E+00 0.  1.
         13    1    4    4    0    0  0.15311278111E+03 -0.59639599481E+03 -0.15391281848E+03  0.63468171016E+03  0.10566000000E+00 0. -1.
         -4    1    4    4    0  502 -0.41797774623E+03  0.10868243681E+03 -0.59117747289E+03  0.73212572203E+03  0.00000000000E+00 0. -1.
<mgrwt>
<rscale>  2 0.11561252E+04</rscale>
<asrwt>0</asrwt>
<pdfrwt beam="1">  1       21 0.91092522E-01 0.11595661E+04</pdfrwt>
<pdfrwt beam="2">  1       21 0.34633442E+00 0.11595661E+04</pdfrwt>
<totfact> 0.61668271E+00</totfact>
</mgrwt>
</event>
<event>
 8    1  0.5815007E-006  0.1046315E+04  0.7818608E-02  0.8733817E-01
         21   -1    0    0  501  502  0.00000000000E+00  0.00000000000E+00  0.24324206846E+04  0.24324206846E+04  0.00000000000E+00 0.  1.
         21   -1    0    0  502  503 -0.00000000000E+00 -0.00000000000E+00 -0.45552216448E+03  0.45552216448E+03  0.00000000000E+00 0.  1.
   -9000010    2    1    2    0  503  0.27369785111E+03 -0.23861242812E+02  0.11819508781E+04  0.15738965385E+04  0.10023285705E+04 0.  0.
    9000010    2    1    2  501    0 -0.27369785111E+03  0.23861242812E+02  0.79494764209E+03  0.13140463106E+04  0.10096019414E+04 0.  0.
        -13    1    4    4    0    0 -0.58905830376E+03  0.53234491601E+02  0.17323626352E+03  0.61630707483E+03  0.10566000000E+00 0.  1.
          4    1    4    4  501    0  0.31536045265E+03 -0.29373248788E+02  0.62171137858E+03  0.69773923574E+03  0.00000000000E+00 0.  1.
         13    1    3    3    0    0  0.46071325510E+03  0.37020846750E+03  0.55969802367E+03  0.81398581173E+03  0.10566000000E+00 0. -1.
         -4    1    3    3    0  503 -0.18701540399E+03 -0.39406971031E+03  0.62225285438E+03  0.75991072679E+03  0.00000000000E+00 0. -1.
<mgrwt>
<rscale>  2 0.10445569E+04</rscale>
<asrwt>0</asrwt>
<pdfrwt beam="1">  1       21 0.37421856E+00 0.10463154E+04</pdfrwt>
<pdfrwt beam="2">  1       21 0.70080335E-01 0.10463154E+04</pdfrwt>
<totfact> 0.76777142E+00</totfact>
</mgrwt>
</event>
<event>
 8    1  0.5815007E-006  0.1012340E+04  0.7818608E-02  0.8766006E-01
         21   -1    0    0  501  502  0.00000000000E+00  0.00000000000E+00  0.13087093941E+04  0.13087093941E+04  0.00000000000E+00 0.  1.
         21   -1    0    0  502  503 -0.00000000000E+00 -0.00000000000E+00 -0.79766269340E+03  0.79766269340E+03  0.00000000000E+00 0.  1.
   -9000010    2    1    2    0  503 -0.16585869901E+03  0.12994921010E+03  0.73435674555E+02  0.10149996891E+04  0.99016951342E+03 0.  0.
    9000010    2    1    2  501    0  0.16585869901E+03 -0.12994921010E+03  0.43761102619E+03  0.10913723985E+04  0.97734047119E+03 0.  0.
        -13    1    4    4    0    0 -0.37314134433E+03  0.98704856227E+02  0.50001395423E+02  0.38920079933E+03  0.10566000000E+00 0.  1.
          4    1    4    4  501    0  0.53900004334E+03 -0.22865406632E+03  0.38760963077E+03  0.70217159913E+03  0.00000000000E+00 0.  1.
         13    1    3    3    0    0 -0.12699049297E+01  0.72887277503E+02 -0.45385854176E+03  0.45967570631E+03  0.10566000000E+00 0. -1.
         -4    1    3    3    0  503 -0.16458879408E+03  0.57061932595E+02  0.52729421631E+03  0.55532398278E+03  0.00000000000E+00 0. -1.
<mgrwt>
<rscale>  2 0.10091888E+04</rscale>
<asrwt>0</asrwt>
<pdfrwt beam="1">  1       21 0.20133991E+00 0.10123397E+04</pdfrwt>
<pdfrwt beam="2">  1       21 0.12271734E+00 0.10123397E+04</pdfrwt>
<totfact> 0.32081151E+01</totfact>
</mgrwt>
</event>
<event>
 8    1  0.5815007E-006  0.1045863E+04  0.7818608E-02  0.8736400E-01
         21   -1    0    0  503  502  0.00000000000E+00  0.00000000000E+00  0.57569236682E+03  0.57569236682E+03  0.00000000000E+00 0.  1.
         21   -1    0    0  501  503 -0.00000000000E+00 -0.00000000000E+00 -0.18905594894E+04  0.18905594894E+04  0.00000000000E+00 0.  1.
    9000010    2    1    2  501    0  0.23103152025E+03  0.13633220039E+03 -0.79184452837E+03  0.13118105482E+04  0.10108744359E+04 0.  0.
   -9000010    2    1    2    0  502 -0.23103152025E+03 -0.13633220039E+03 -0.52302259421E+03  0.11544413080E+04  0.99358948635E+03 0.  0.
        -13    1    3    3    0    0  0.53142493035E+03  0.15319679725E+03 -0.10635247975E+03  0.56319852308E+03  0.10566000000E+00 0.  1.
          4    1    3    3  501    0 -0.30039341009E+03 -0.16864596867E+02 -0.68549204863E+03  0.74861202514E+03  0.00000000000E+00 0.  1.
         13    1    4    4    0    0 -0.39213268548E+03  0.79913589297E+02  0.15158156026E+03  0.42793831957E+03  0.10566000000E+00 0. -1.
         -4    1    4    4    0  502  0.16110116523E+03 -0.21624578968E+03 -0.67460415447E+03  0.72650298845E+03  0.00000000000E+00 0. -1.
<mgrwt>
<rscale>  2 0.10416634E+04</rscale>
<asrwt>0</asrwt>
<pdfrwt beam="1">  1       21 0.88568056E-01 0.10458629E+04</pdfrwt>
<pdfrwt beam="2">  1       21 0.29085531E+00 0.10458629E+04</pdfrwt>
<totfact> 0.16698187E+01</totfact>
</mgrwt>
</event>
<event>
 8    1  0.5815007E-006  0.1085480E+04  0.7818608E-02  0.8700352E-01
         21   -1    0    0  503  502  0.00000000000E+00  0.00000000000E+00  0.51378934400E+03  0.51378934400E+03  0.00000000000E+00 0.  1.
         21   -1    0    0  501  503 -0.00000000000E+00 -0.00000000000E+00 -0.23387072831E+04  0.23387072831E+04  0.00000000000E+00 0. -1.
    9000010    2    1    2  501    0  0.25250681732E+01  0.40025265630E+03 -0.11494113191E+04  0.15739914152E+04  0.99804510406E+03 0.  0.
   -9000010    2    1    2    0  502 -0.25250681732E+01 -0.40025265630E+03 -0.67550662006E+03  0.12785052120E+04  0.10089885125E+04 0.  0.
        -13    1    3    3    0    0  0.72759888036E+02  0.58672969623E+03 -0.23187754463E+03  0.63506924395E+03  0.10566000000E+00 0.  1.
          4    1    3    3  501    0 -0.70234819863E+02 -0.18647703993E+03 -0.91753377444E+03  0.93892217120E+03  0.00000000000E+00 0.  1.
         13    1    4    4    0    0  0.32842991248E+03 -0.22880941135E+03 -0.79250072730E+03  0.88784985672E+03  0.10566000000E+00 0. -1.
         -4    1    4    4    0  502 -0.33095498066E+03 -0.17144324494E+03  0.11699410724E+03  0.39065535525E+03  0.00000000000E+00 0. -1.
<mgrwt>
<rscale>  2 0.10829297E+04</rscale>
<asrwt>0</asrwt>
<pdfrwt beam="1">  1       21 0.79044515E-01 0.10854798E+04</pdfrwt>
<pdfrwt beam="2">  1       21 0.35980112E+00 0.10854798E+04</pdfrwt>
<totfact> 0.71989944E+00</totfact>
</mgrwt>
</event>
<event>
 8    1  0.5815007E-006  0.1109165E+04  0.7818608E-02  0.8695389E-01
         21   -1    0    0  501  502  0.00000000000E+00  0.00000000000E+00  0.19661300171E+04  0.19661300171E+04  0.00000000000E+00 0. -1.
         21   -1    0    0  502  503 -0.00000000000E+00 -0.00000000000E+00 -0.58707023354E+03  0.58707023354E+03  0.00000000000E+00 0. -1.
   -9000010    2    1    2    0  503 -0.46127264614E+03  0.16555279356E+03  0.54267138959E+03  0.11640302746E+04  0.90570086761E+03 0.  0.
    9000010    2    1    2  501    0  0.46127264614E+03 -0.16555279356E+03  0.83638839399E+03  0.13891699761E+04  0.99502135417E+03 0.  0.
        -13    1    4    4    0    0 -0.24542862304E+03 -0.22651732364E+03  0.50694219182E+03  0.60707141584E+03  0.10566000000E+00 0.  1.
          4    1    4    4  501    0  0.70670126918E+03  0.60964530087E+02  0.32944620217E+03  0.78209856023E+03  0.00000000000E+00 0.  1.
         13    1    3    3    0    0  0.69348431825E+02  0.42109624111E+03  0.13448392757E+03  0.44745635230E+03  0.10566000000E+00 0. -1.
         -4    1    3    3    0  503 -0.53062107797E+03 -0.25554344756E+03  0.40818746203E+03  0.71657392231E+03  0.00000000000E+00 0. -1.
<mgrwt>
<rscale>  2 0.10887664E+04</rscale>
<asrwt>0</asrwt>
<pdfrwt beam="1">  1       21 0.30248154E+00 0.11091653E+04</pdfrwt>
<pdfrwt beam="2">  1       21 0.90318499E-01 0.11091653E+04</pdfrwt>
<totfact> 0.12956120E+01</totfact>
</mgrwt>
</event>
<event>
 8    1  0.5815007E-006  0.1020206E+04  0.7818608E-02  0.8755873E-01
         21   -1    0    0  503  502  0.00000000000E+00  0.00000000000E+00  0.88302042300E+03  0.88302042300E+03  0.00000000000E+00 0.  1.
         21   -1    0    0  501  503 -0.00000000000E+00 -0.00000000000E+00 -0.13111428143E+04  0.13111428143E+04  0.00000000000E+00 0.  1.
    9000010    2    1    2  501    0 -0.20038271252E+03 -0.12371028506E+03  0.13487792570E+03  0.10289213577E+04  0.99248659406E+03 0.  0.
   -9000010    2    1    2    0  502  0.20038271252E+03  0.12371028506E+03 -0.56300031704E+03  0.11652418796E+04  0.99265392508E+03 0.  0.
        -13    1    3    3    0    0  0.39211873806E+02  0.29263195354E+03 -0.27045676574E+03  0.40039718353E+03  0.10566000000E+00 0.  1.
          4    1    3    3  501    0 -0.23959458632E+03 -0.41634223860E+03  0.40533469144E+03  0.62852417417E+03  0.00000000000E+00 0.  1.
         13    1    4    4    0    0  0.16367210252E+03  0.17728104074E+02  0.27459822389E+03  0.32016720404E+03  0.10566000000E+00 0. -1.
         -4    1    4    4    0  502  0.36710609998E+02  0.10598218098E+03 -0.83759854093E+03  0.84507467560E+03  0.00000000000E+00 0. -1.
<mgrwt>
<rscale>  2 0.10201648E+04</rscale>
<asrwt>0</asrwt>
<pdfrwt beam="1">  1       21 0.13584930E+00 0.10202055E+04</pdfrwt>
<pdfrwt beam="2">  1       21 0.20171428E+00 0.10202055E+04</pdfrwt>
<totfact> 0.23735361E+01</totfact>
</mgrwt>
</event>
<event>
 8    1  0.5815007E-006  0.1089501E+04  0.7818608E-02  0.8703336E-01
         21   -1    0    0  503  502  0.00000000000E+00  0.00000000000E+00  0.14836005130E+04  0.14836005130E+04  0.00000000000E+00 0. -1.
         21   -1    0    0  501  503 -0.00000000000E+00 -0.00000000000E+00 -0.77601242698E+03  0.77601242698E+03  0.00000000000E+00 0. -1.
    9000010    2    1    2  501    0  0.29109185698E+03  0.14343368756E+03  0.25835747822E+03  0.10811310623E+04  0.99839275605E+03 0.  0.
   -9000010    2    1    2    0  502 -0.29109185698E+03 -0.14343368756E+03  0.44923060780E+03  0.11784818777E+04  0.10400498571E+04 0.  0.
        -13    1    3    3    0    0  0.42555368884E+03 -0.34188150175E+03  0.14802690229E+03  0.56558896584E+03  0.10566000000E+00 0.  1.
          4    1    3    3  501    0 -0.13446183186E+03  0.48531518931E+03  0.11033057593E+03  0.51554209642E+03  0.00000000000E+00 0.  1.
         13    1    4    4    0    0 -0.50380835841E+03 -0.19651432976E+03  0.67424613439E+03  0.86431973523E+03  0.10566000000E+00 0. -1.
         -4    1    4    4    0  502  0.21271650143E+03  0.53080642197E+02 -0.22501552659E+03  0.31416214247E+03  0.00000000000E+00 0. -1.
<mgrwt>
<rscale>  2 0.10794387E+04</rscale>
<asrwt>0</asrwt>
<pdfrwt beam="1">  1       21 0.22824623E+00 0.10895005E+04</pdfrwt>
<pdfrwt beam="2">  1       21 0.11938653E+00 0.10895005E+04</pdfrwt>
<totfact> 0.21270862E+01</totfact>
</mgrwt>
</event>
<event>
 8    1  0.5815007E-006  0.1262963E+04  0.7818608E-02  0.8560901E-01
         21   -1    0    0  501  502  0.00000000000E+00  0.00000000000E+00  0.13572754224E+04  0.13572754224E+04  0.00000000000E+00 0. -1.
         21   -1    0    0  502  503 -0.00000000000E+00 -0.00000000000E+00 -0.13499636978E+04  0.13499636978E+04  0.00000000000E+00 0.  1.
   -9000010    2    1    2    0  503 -0.65114465108E+03  0.40021081068E+03  0.49288072902E+03  0.13541486948E+04  0.10033091373E+04 0.  0.
    9000010    2    1    2  501    0  0.65114465108E+03 -0.40021081068E+03 -0.48556900446E+03  0.13530904254E+04  0.10054443752E+04 0.  0.
        -13    1    4    4    0    0  0.57154675608E+03 -0.66344768159E+03 -0.59328350757E+03  0.10577399738E+04  0.10566000000E+00 0.  1.
          4    1    4    4  501    0  0.79597895008E+02  0.26323687092E+03  0.10771450311E+03  0.29535045163E+03  0.00000000000E+00 0.  1.
         13    1    3    3    0    0  0.10822497177E+03 -0.66419079408E+02 -0.19194833659E+03  0.23014846015E+03  0.10566000000E+00 0. -1.
         -4    1    3    3    0  503 -0.75936962286E+03  0.46662989008E+03  0.68482906560E+03  0.11240002347E+04  0.00000000000E+00 0. -1.
<mgrwt>
<rscale>  2 0.12625383E+04</rscale>
<asrwt>0</asrwt>
<pdfrwt beam="1">  1       21 0.20881160E+00 0.12629634E+04</pdfrwt>
<pdfrwt beam="2">  1       21 0.20768672E+00 0.12629634E+04</pdfrwt>
<totfact> 0.49288583E+00</totfact>
</mgrwt>
</event>
<event>
 8    1  0.5815007E-006  0.1176841E+04  0.7818608E-02  0.8631524E-01
         21   -1    0    0  503  502  0.00000000000E+00  0.00000000000E+00  0.17394488711E+04  0.17394488711E+04  0.00000000000E+00 0. -1.
         21   -1    0    0  501  503 -0.00000000000E+00 -0.00000000000E+00 -0.92510444652E+03  0.92510444652E+03  0.00000000000E+00 0. -1.
    9000010    2    1    2  501    0 -0.42585078544E+03 -0.24356335294E+03  0.94512714293E+03  0.14804672644E+04  0.10285164103E+04 0.  0.
   -9000010    2    1    2    0  502  0.42585078544E+03  0.24356335294E+03 -0.13078271836E+03  0.11840860532E+04  0.10697119536E+04 0.  0.
        -13    1    3    3    0    0 -0.53404493304E+03 -0.54513818416E+03  0.85832525004E+03  0.11485216047E+04  0.10566000000E+00 0.  1.
          4    1    3    3  501    0  0.10819414760E+03  0.30157483122E+03  0.86801892889E+02  0.33194565973E+03  0.00000000000E+00 0.  1.
         13    1    4    4    0    0  0.12688250812E+03  0.37908428292E+03  0.39645887575E+03  0.56301306890E+03  0.10566000000E+00 0. -1.
         -4    1    4    4    0  502  0.29896827733E+03 -0.13552092999E+03 -0.52724159411E+03  0.62107298434E+03  0.00000000000E+00 0. -1.
<mgrwt>
<rscale>  2 0.11673994E+04</rscale>
<asrwt>0</asrwt>
<pdfrwt beam="1">  1       21 0.26760752E+00 0.11768414E+04</pdfrwt>
<pdfrwt beam="2">  1       21 0.14232376E+00 0.11768414E+04</pdfrwt>
<totfact> 0.64703612E+00</totfact>
</mgrwt>
</event>
<event>
 8    1  0.5815007E-006  0.1448640E+04  0.7818608E-02  0.8440084E-01
         21   -1    0    0  501  502  0.00000000000E+00  0.00000000000E+00  0.23782795773E+04  0.23782795773E+04  0.00000000000E+00 0. -1.
         21   -1    0    0  502  503 -0.00000000000E+00 -0.00000000000E+00 -0.10858654903E+04  0.10858654903E+04  0.00000000000E+00 0.  1.
   -9000010    2    1    2    0  503  0.47818872406E+03  0.91609525610E+03 -0.10704461213E+03  0.14499346192E+04  0.10114133066E+04 0.  0.
    9000010    2    1    2  501    0 -0.47818872406E+03 -0.91609525610E+03  0.13994586991E+04  0.20142104485E+04  0.10152162854E+04 0.  0.
        -13    1    4    4    0    0  0.25993339276E+03 -0.37037822302E+03  0.17792391237E+03  0.48621222374E+03  0.10566000000E+00 0.  1.
          4    1    4    4  501    0 -0.73812211682E+03 -0.54571703308E+03  0.12215347867E+04  0.15279982247E+04  0.00000000000E+00 0.  1.
         13    1    3    3    0    0  0.79511120150E+03  0.72049133958E+03 -0.97113473912E+02  0.10773767359E+04  0.10566000000E+00 0. -1.
         -4    1    3    3    0  503 -0.31692247744E+03  0.19560391652E+03 -0.99311382166E+01  0.37255788325E+03  0.00000000000E+00 0. -1.
<mgrwt>
<rscale>  2 0.14479743E+04</rscale>
<asrwt>0</asrwt>
<pdfrwt beam="1">  1       21 0.36588916E+00 0.14486404E+04</pdfrwt>
<pdfrwt beam="2">  1       21 0.16705623E+00 0.14486404E+04</pdfrwt>
<totfact> 0.75005352E-01</totfact>
</mgrwt>
</event>
<event>
 8    1  0.5815007E-006  0.1222336E+04  0.7818608E-02  0.8606353E-01
         21   -1    0    0  503  502  0.00000000000E+00  0.00000000000E+00  0.11890882847E+04  0.11890882847E+04  0.00000000000E+00 0.  1.
         21   -1    0    0  501  503 -0.00000000000E+00 -0.00000000000E+00 -0.12687108066E+04  0.12687108066E+04  0.00000000000E+00 0.  1.
    9000010    2    1    2  501    0 -0.37549734494E+03 -0.47482044061E+03 -0.38408476832E+03  0.12812595267E+04  0.10619096754E+04 0.  0.
   -9000010    2    1    2    0  502  0.37549734494E+03  0.47482044061E+03  0.30446224640E+03  0.11765395646E+04  0.96181878787E+03 0.  0.
        -13    1    3    3    0    0  0.20291515190E+03 -0.24472589732E+03  0.24111538260E+03  0.39900120624E+03  0.10566000000E+00 0.  1.
          4    1    3    3  501    0 -0.57841249684E+03 -0.23009454329E+03 -0.62520015093E+03  0.88225832049E+03  0.00000000000E+00 0.  1.
         13    1    4    4    0    0 -0.10338089307E+03  0.60745641880E+03  0.28589918672E+03  0.67928584994E+03  0.10566000000E+00 0. -1.
         -4    1    4    4    0  502  0.47887823801E+03 -0.13263597819E+03  0.18563059678E+02  0.49725371465E+03  0.00000000000E+00 0. -1.
<mgrwt>
<rscale>  2 0.12002777E+04</rscale>
<asrwt>0</asrwt>
<pdfrwt beam="1">  1       21 0.18293666E+00 0.12223358E+04</pdfrwt>
<pdfrwt beam="2">  1       21 0.19518628E+00 0.12223358E+04</pdfrwt>
<totfact> 0.99614695E+00</totfact>
</mgrwt>
</event>
<event>
 8    1  0.5815007E-006  0.1115207E+04  0.7818608E-02  0.8714043E-01
         21   -1    0    0  503  502  0.00000000000E+00  0.00000000000E+00  0.76547016390E+03  0.76547016390E+03  0.00000000000E+00 0. -1.
         21   -1    0    0  501  503 -0.00000000000E+00 -0.00000000000E+00 -0.14687492318E+04  0.14687492318E+04  0.00000000000E+00 0. -1.
    9000010    2    1    2  501    0 -0.25518959376E+02 -0.38569058530E+03 -0.37450007217E+02  0.93536801791E+03  0.85094205503E+03 0.  0.
   -9000010    2    1    2    0  502  0.25518959376E+02  0.38569058530E+03 -0.66582906071E+03  0.12988513778E+04  0.10460774917E+04 0.  0.
        -13    1    3    3    0    0  0.21385079544E+03 -0.35007287688E+03  0.30842589992E+03  0.51323457477E+03  0.10566000000E+00 0.  1.
          4    1    3    3  501    0 -0.23936975482E+03 -0.35617708423E+02 -0.34587590714E+03  0.42213344314E+03  0.00000000000E+00 0.  1.
         13    1    4    4    0    0  0.39414859530E+03  0.57786440147E+03 -0.41978814600E+03  0.81578335381E+03  0.10566000000E+00 0. -1.
         -4    1    4    4    0  502 -0.36862963593E+03 -0.19217381617E+03 -0.24604091471E+03  0.48306802400E+03  0.00000000000E+00 0. -1.
<mgrwt>
<rscale>  2 0.10670263E+04</rscale>
<asrwt>0</asrwt>
<pdfrwt beam="1">  1       21 0.11776464E+00 0.11152070E+04</pdfrwt>
<pdfrwt beam="2">  1       21 0.22596142E+00 0.11152070E+04</pdfrwt>
<totfact> 0.22856675E+01</totfact>
</mgrwt>
</event>
<event>
 8    1  0.5815007E-006  0.1187845E+04  0.7818608E-02  0.8616748E-01
         21   -1    0    0  501  502  0.00000000000E+00  0.00000000000E+00  0.16313188585E+04  0.16313188585E+04  0.00000000000E+00 0.  1.
         21   -1    0    0  502  503 -0.00000000000E+00 -0.00000000000E+00 -0.91017680484E+03  0.91017680484E+03  0.00000000000E+00 0.  1.
   -9000010    2    1    2    0  503 -0.19815019198E+03  0.57498954932E+03  0.65457147012E+03  0.13517867076E+04  0.10143899708E+04 0.  0.
    9000010    2    1    2  501    0  0.19815019198E+03 -0.57498954932E+03  0.66570583514E+02  0.11897089557E+04  0.10203427249E+04 0.  0.
        -13    1    4    4    0    0 -0.43940330691E+02 -0.78131957406E+03 -0.16055673553E+03  0.79885512201E+03  0.10566000000E+00 0.  1.
          4    1    4    4  501    0  0.24209052268E+03  0.20633002474E+03  0.22712731905E+03  0.39085383372E+03  0.00000000000E+00 0.  1.
         13    1    3    3    0    0  0.23698900957E+02  0.23665602407E+03 -0.25960565909E+03  0.35208354268E+03  0.10566000000E+00 0. -1.
         -4    1    3    3    0  503 -0.22184909294E+03  0.33833352526E+03  0.91417712921E+03  0.99970316491E+03  0.00000000000E+00 0. -1.
<mgrwt>
<rscale>  2 0.11865656E+04</rscale>
<asrwt>0</asrwt>
<pdfrwt beam="1">  1       21 0.25097213E+00 0.11878450E+04</pdfrwt>
<pdfrwt beam="2">  1       21 0.14002720E+00 0.11878450E+04</pdfrwt>
<totfact> 0.89404514E+00</totfact>
</mgrwt>
</event>
<event>
 8    1  0.5815007E-006  0.1503296E+04  0.7818608E-02  0.8408651E-01
         21   -1    0    0  501  502  0.00000000000E+00  0.00000000000E+00  0.20813610221E+04  0.20813610221E+04  0.00000000000E+00 0.  1.
         21   -1    0    0  502  503 -0.00000000000E+00 -0.00000000000E+00 -0.12972557600E+04  0.12972557600E+04  0.00000000000E+00 0. -1.
   -9000010    2    1    2    0  503  0.81243652938E+03 -0.77039789072E+03 -0.29762790649E+03  0.15324750856E+04  0.10031607513E+04 0.  0.
    9000010    2    1    2  501    0 -0.81243652938E+03  0.77039789072E+03  0.10817331686E+04  0.18461416965E+04  0.99223308320E+03 0.  0.
        -13    1    4    4    0    0 -0.66812598468E+03  0.46517187423E+03  0.12319225920E+04  0.14766213082E+04  0.10566000000E+00 0.  1.
          4    1    4    4  501    0 -0.14431054470E+03  0.30522601649E+03 -0.15018942347E+03  0.36952038830E+03  0.00000000000E+00 0.  1.
         13    1    3    3    0    0 -0.72249083414E+02 -0.20822240241E+03 -0.42283585426E+03  0.47682981213E+03  0.10566000000E+00 0. -1.
         -4    1    3    3    0  503  0.88468561279E+03 -0.56217548831E+03  0.12520794777E+03  0.10556452734E+04  0.00000000000E+00 0. -1.
<mgrwt>
<rscale>  2 0.15014748E+04</rscale>
<asrwt>0</asrwt>
<pdfrwt beam="1">  1       21 0.32020939E+00 0.15032956E+04</pdfrwt>
<pdfrwt beam="2">  1       21 0.19957781E+00 0.15032956E+04</pdfrwt>
<totfact> 0.84410381E-01</totfact>
</mgrwt>
</event>
<event>
 8    1  0.5815007E-006  0.1152531E+04  0.7818608E-02  0.8644262E-01
         21   -1    0    0  503  502  0.00000000000E+00  0.00000000000E+00  0.22504446941E+04  0.22504446941E+04  0.00000000000E+00 0. -1.
         21   -1    0    0  501  503 -0.00000000000E+00 -0.00000000000E+00 -0.85336097422E+03  0.85336097422E+03  0.00000000000E+00 0. -1.
    9000010    2    1    2  501    0 -0.46653538354E+03 -0.33036808421E+03 -0.16656144932E+03  0.11645040343E+04  0.10007640053E+04 0.  0.
   -9000010    2    1    2    0  502  0.46653538354E+03  0.33036808421E+03  0.15636451692E+04  0.19393016340E+04  0.99453822318E+03 0.  0.
        -13    1    3    3    0    0 -0.17875250982E+03 -0.44563827222E+03  0.32751938611E+03  0.58121845194E+03  0.10566000000E+00 0.  1.
          4    1    3    3  501    0 -0.28778287372E+03  0.11527018801E+03 -0.49408083543E+03  0.58328558236E+03  0.00000000000E+00 0.  1.
         13    1    4    4    0    0  0.52817674961E+03 -0.10874103915E+03  0.33925881750E+03  0.63709642036E+03  0.10566000000E+00 0. -1.
         -4    1    4    4    0  502 -0.61641366074E+02  0.43910912336E+03  0.12243863517E+04  0.13022052136E+04  0.00000000000E+00 0. -1.
<mgrwt>
<rscale>  2 0.11511778E+04</rscale>
<asrwt>0</asrwt>
<pdfrwt beam="1">  1       21 0.34622226E+00 0.11525307E+04</pdfrwt>
<pdfrwt beam="2">  1       21 0.13128630E+00 0.11525307E+04</pdfrwt>
<totfact> 0.22961556E+00</totfact>
</mgrwt>
</event>
<event>
 8    1  0.5815007E-006  0.1192752E+04  0.7818608E-02  0.8629725E-01
         21   -1    0    0  503  502  0.00000000000E+00  0.00000000000E+00  0.87157178618E+03  0.87157178618E+03  0.00000000000E+00 0.  1.
         21   -1    0    0  501  503 -0.00000000000E+00 -0.00000000000E+00 -0.15194169167E+04  0.15194169167E+04  0.00000000000E+00 0. -1.
    9000010    2    1    2  501    0  0.52105520127E+03  0.33466701163E+03 -0.39438905263E+03  0.11716044899E+04  0.91302454760E+03 0.  0.
   -9000010    2    1    2    0  502 -0.52105520127E+03 -0.33466701163E+03 -0.25345607788E+03  0.12193842130E+04  0.10193906729E+04 0.  0.
        -13    1    3    3    0    0 -0.12825625703E+03  0.36277899798E+03 -0.35003056433E+03  0.52017273667E+03  0.10566000000E+00 0.  1.
          4    1    3    3  501    0  0.64931145830E+03 -0.28111986348E+02 -0.44358488299E+02  0.65143175325E+03  0.00000000000E+00 0.  1.
         13    1    4    4    0    0 -0.25437451215E+03  0.24113846956E+03 -0.43568469647E+03  0.55917378322E+03  0.10566000000E+00 0. -1.
         -4    1    4    4    0  502 -0.26668068912E+03 -0.57580548119E+03  0.18222861859E+03  0.66021042975E+03  0.00000000000E+00 0. -1.
<mgrwt>
<rscale>  2 0.11697124E+04</rscale>
<asrwt>0</asrwt>
<pdfrwt beam="1">  1       21 0.13408797E+00 0.11927522E+04</pdfrwt>
<pdfrwt beam="2">  1       21 0.23375644E+00 0.11927522E+04</pdfrwt>
<totfact> 0.13588164E+01</totfact>
</mgrwt>
</event>
<event>
 8    1  0.5815007E-006  0.1079367E+04  0.7818608E-02  0.8706246E-01
         21   -1    0    0  501  502  0.00000000000E+00  0.00000000000E+00  0.19782750901E+04  0.19782750901E+04  0.00000000000E+00 0.  1.
         21   -1    0    0  502  503 -0.00000000000E+00 -0.00000000000E+00 -0.58270337107E+03  0.58270337107E+03  0.00000000000E+00 0.  1.
   -9000010    2    1    2    0  503 -0.39779165214E+03  0.56683031783E+02  0.75450722425E+03  0.13169334792E+04  0.10017891358E+04 0.  0.
    9000010    2    1    2  501    0  0.39779165214E+03 -0.56683031783E+02  0.64106449477E+03  0.12440449819E+04  0.98753889340E+03 0.  0.
        -13    1    4    4    0    0  0.11625371885E+02  0.43367224785E+02 -0.25725035040E+03  0.26113908057E+03  0.10566000000E+00 0.  1.
          4    1    4    4  501    0  0.38616628026E+03 -0.10005025657E+03  0.89831484517E+03  0.98290590135E+03  0.00000000000E+00 0.  1.
         13    1    3    3    0    0 -0.64782124999E+03 -0.63990616577E+02  0.17457978925E+03  0.67397721395E+03  0.10566000000E+00 0. -1.
         -4    1    3    3    0  503  0.25002959785E+03  0.12067364836E+03  0.57992743501E+03  0.64295626529E+03  0.00000000000E+00 0. -1.
<mgrwt>
<rscale>  2 0.10760483E+04</rscale>
<asrwt>0</asrwt>
<pdfrwt beam="1">  1       21 0.30435001E+00 0.10793668E+04</pdfrwt>
<pdfrwt beam="2">  1       21 0.89646674E-01 0.10793668E+04</pdfrwt>
<totfact> 0.12892768E+01</totfact>
</mgrwt>
</event>
<event>
 8    1  0.5815007E-006  0.1287227E+04  0.7818608E-02  0.8549854E-01
         21   -1    0    0  501  502  0.00000000000E+00  0.00000000000E+00  0.11514722266E+04  0.11514722266E+04  0.00000000000E+00 0.  1.
         21   -1    0    0  502  503 -0.00000000000E+00 -0.00000000000E+00 -0.14219644556E+04  0.14219644556E+04  0.00000000000E+00 0.  1.
   -9000010    2    1    2    0  503  0.28086422288E+03  0.70101521115E+03 -0.29487208883E+03  0.12859785866E+04  0.99824062156E+03 0.  0.
    9000010    2    1    2  501    0 -0.28086422288E+03 -0.70101521115E+03  0.24379859821E+02  0.12874580955E+04  0.10424235857E+04 0.  0.
        -13    1    4    4    0    0  0.19813466046E+03 -0.43441552859E+03  0.40003980200E+03  0.62290131602E+03  0.10566000000E+00 0.  1.
          4    1    4    4  501    0 -0.47899888334E+03 -0.26659968256E+03 -0.37565994218E+03  0.66455677947E+03  0.00000000000E+00 0.  1.
         13    1    3    3    0    0 -0.20048484749E+03 -0.11903590724E+03 -0.23833115751E+03  0.33341486633E+03  0.10566000000E+00 0. -1.
         -4    1    3    3    0  503  0.48134907037E+03  0.82005111839E+03 -0.56540931327E+02  0.95256372030E+03  0.00000000000E+00 0. -1.
<mgrwt>
<rscale>  2 0.12782559E+04</rscale>
<asrwt>0</asrwt>
<pdfrwt beam="1">  1       21 0.17714958E+00 0.12872272E+04</pdfrwt>
<pdfrwt beam="2">  1       21 0.21876376E+00 0.12872272E+04</pdfrwt>
<totfact> 0.72093018E+00</totfact>
</mgrwt>
</event>
<event>
 8    1  0.5815007E-006  0.1122397E+04  0.7818608E-02  0.8669105E-01
         21   -1    0    0  501  502  0.00000000000E+00  0.00000000000E+00  0.10721709749E+04  0.10721709749E+04  0.00000000000E+00 0. -1.
         21   -1    0    0  502  503 -0.00000000000E+00 -0.00000000000E+00 -0.12076113159E+04  0.12076113159E+04  0.00000000000E+00 0. -1.
   -9000010    2    1    2    0  503  0.45641161840E+03 -0.16568924745E+03  0.14327827582E+03  0.11232963878E+04  0.10027470361E+04 0.  0.
    9000010    2    1    2  501    0 -0.45641161840E+03  0.16568924745E+03 -0.27871861684E+03  0.11564859031E+04  0.10119343282E+04 0.  0.
        -13    1    4    4    0    0 -0.20665178404E+03  0.56949280473E+03  0.18512664456E+00  0.60582758267E+03  0.10566000000E+00 0.  1.
          4    1    4    4  501    0 -0.24975983436E+03 -0.40380355728E+03 -0.27890374348E+03  0.55065832043E+03  0.00000000000E+00 0.  1.
         13    1    3    3    0    0  0.27749464239E+03  0.32414444178E+03  0.36028437710E+03  0.55846015009E+03  0.10566000000E+00 0. -1.
         -4    1    3    3    0  503  0.17891697601E+03 -0.48983368923E+03 -0.21700610128E+03  0.56483623769E+03  0.00000000000E+00 0. -1.
<mgrwt>
<rscale>  2 0.11203225E+04</rscale>
<asrwt>0</asrwt>
<pdfrwt beam="1">  1       21 0.16494938E+00 0.11223972E+04</pdfrwt>
<pdfrwt beam="2">  1       21 0.18578636E+00 0.11223972E+04</pdfrwt>
<totfact> 0.17052773E+01</totfact>
</mgrwt>
</event>
<event>
 8    1  0.5815007E-006  0.1454862E+04  0.7818608E-02  0.8442889E-01
         21   -1    0    0  503  502  0.00000000000E+00  0.00000000000E+00  0.20097268242E+04  0.20097268242E+04  0.00000000000E+00 0. -1.
         21   -1    0    0  501  503 -0.00000000000E+00 -0.00000000000E+00 -0.10877872370E+04  0.10877872370E+04  0.00000000000E+00 0. -1.
    9000010    2    1    2  501    0 -0.13904524228E+03  0.98301917635E+03  0.82439933782E+02  0.14571958258E+04  0.10634674662E+04 0.  0.
   -9000010    2    1    2    0  502  0.13904524228E+03 -0.98301917635E+03  0.83949965341E+03  0.16403182353E+04  0.10001119760E+04 0.  0.
        -13    1    3    3    0    0 -0.62637031610E+01  0.52176688556E+03 -0.48609634205E+03  0.71314064655E+03  0.10566000000E+00 0.  1.
          4    1    3    3  501    0 -0.13278153912E+03  0.46125229079E+03  0.56853627583E+03  0.74405517929E+03  0.00000000000E+00 0.  1.
         13    1    4    4    0    0  0.11944791540E+03 -0.84532117854E+03  0.68045246680E+02  0.85642621757E+03  0.10566000000E+00 0. -1.
         -4    1    4    4    0  502  0.19597326877E+02 -0.13769799781E+03  0.77145440673E+03  0.78389201775E+03  0.00000000000E+00 0. -1.
<mgrwt>
<rscale>  2 0.14433132E+04</rscale>
<asrwt>0</asrwt>
<pdfrwt beam="1">  1       21 0.30918874E+00 0.14548620E+04</pdfrwt>
<pdfrwt beam="2">  1       21 0.16735188E+00 0.14548620E+04</pdfrwt>
<totfact> 0.18643863E+00</totfact>
</mgrwt>
</event>
<event>
 8    1  0.5815007E-006  0.1061639E+04  0.7818608E-02  0.8722825E-01
         21   -1    0    0  503  502  0.00000000000E+00  0.00000000000E+00  0.71888093434E+03  0.71888093434E+03  0.00000000000E+00 0. -1.
         21   -1    0    0  501  503 -0.00000000000E+00 -0.00000000000E+00 -0.15413174241E+04  0.15413174241E+04  0.00000000000E+00 0. -1.
    9000010    2    1    2  501    0  0.36186506680E+03  0.21436417099E+02 -0.43969945439E+03  0.11490922700E+04  0.99783344709E+03 0.  0.
   -9000010    2    1    2    0  502 -0.36186506680E+03 -0.21436417099E+02 -0.38273703541E+03  0.11111060885E+04  0.97809163943E+03 0.  0.
        -13    1    3    3    0    0 -0.73073039131E+02 -0.28503002223E+03  0.17004210443E+03  0.33984718781E+03  0.10566000000E+00 0.  1.
          4    1    3    3  501    0  0.43493810593E+03  0.30646643933E+03 -0.60974155882E+03  0.80924508215E+03  0.00000000000E+00 0.  1.
         13    1    4    4    0    0  0.18978901089E+03 -0.81263324458E+02 -0.50265981659E+03  0.54340638470E+03  0.10566000000E+00 0. -1.
         -4    1    4    4    0  502 -0.55165407769E+03  0.59826907360E+02  0.11992278118E+03  0.56769970382E+03  0.00000000000E+00 0. -1.
<mgrwt>
<rscale>  2 0.10569750E+04</rscale>
<asrwt>0</asrwt>
<pdfrwt beam="1">  1       21 0.11059707E+00 0.10616390E+04</pdfrwt>
<pdfrwt beam="2">  1       21 0.23712576E+00 0.10616390E+04</pdfrwt>
<totfact> 0.22701395E+01</totfact>
</mgrwt>
</event>
<event>
 8    1  0.5815007E-006  0.1166367E+04  0.7818608E-02  0.8632515E-01
         21   -1    0    0  501  502  0.00000000000E+00  0.00000000000E+00  0.17032191865E+04  0.17032191865E+04  0.00000000000E+00 0. -1.
         21   -1    0    0  502  503 -0.00000000000E+00 -0.00000000000E+00 -0.83398460261E+03  0.83398460261E+03  0.00000000000E+00 0. -1.
   -9000010    2    1    2    0  503  0.57846941328E+03 -0.15887953122E+03  0.17120356092E+03  0.11779175105E+04  0.99915435982E+03 0.  0.
    9000010    2    1    2  501    0 -0.57846941328E+03  0.15887953122E+03  0.69803102300E+03  0.13592862786E+04  0.10002711186E+04 0.  0.
        -13    1    4    4    0    0 -0.15239203686E+03  0.54137138904E+03  0.50264236129E+03  0.75429150087E+03  0.10566000000E+00 0.  1.
          4    1    4    4  501    0 -0.42607737642E+03 -0.38249185782E+03  0.19538866171E+03  0.60499477776E+03  0.00000000000E+00 0.  1.
         13    1    3    3    0    0  0.65638530835E+03 -0.36291077722E+03 -0.17351141271E+03  0.76983902651E+03  0.10566000000E+00 0. -1.
         -4    1    3    3    0  503 -0.77915895068E+02  0.20403124600E+03  0.34471497364E+03  0.40807848400E+03  0.00000000000E+00 0. -1.
<mgrwt>
<rscale>  2 0.11661275E+04</rscale>
<asrwt>0</asrwt>
<pdfrwt beam="1">  1       21 0.26203372E+00 0.11663670E+04</pdfrwt>
<pdfrwt beam="2">  1       21 0.12830532E+00 0.11663670E+04</pdfrwt>
<totfact> 0.96504145E+00</totfact>
</mgrwt>
</event>
<event>
 8    1  0.5815007E-006  0.1073267E+04  0.7818608E-02  0.8712058E-01
         21   -1    0    0  501  502  0.00000000000E+00  0.00000000000E+00  0.62796844516E+03  0.62796844516E+03  0.00000000000E+00 0.  1.
         21   -1    0    0  502  503 -0.00000000000E+00 -0.00000000000E+00 -0.19783600099E+04  0.19783600099E+04  0.00000000000E+00 0. -1.
   -9000010    2    1    2    0  503  0.34018610690E+03  0.15865479537E+03 -0.10535420222E+04  0.14927655132E+04  0.98868607430E+03 0.  0.
    9000010    2    1    2  501    0 -0.34018610690E+03 -0.15865479537E+03 -0.29684954257E+03  0.11135629419E+04  0.10054873660E+04 0.  0.
        -13    1    4    4    0    0 -0.27839519378E+03  0.36024230942E+03 -0.36900687888E+03  0.58604137502E+03  0.10566000000E+00 0.  1.
          4    1    4    4  501    0 -0.61790913127E+02 -0.51889710479E+03  0.72157336307E+02  0.52752156685E+03  0.00000000000E+00 0.  1.
         13    1    3    3    0    0  0.50733519926E+03  0.47790573623E+03 -0.68060995235E+03  0.97417288791E+03  0.10566000000E+00 0. -1.
         -4    1    3    3    0  503 -0.16714909236E+03 -0.31925094086E+03 -0.37293206984E+03  0.51859262531E+03  0.00000000000E+00 0. -1.
<mgrwt>
<rscale>  2 0.10693146E+04</rscale>
<asrwt>0</asrwt>
<pdfrwt beam="1">  1       21 0.96610531E-01 0.10732673E+04</pdfrwt>
<pdfrwt beam="2">  1       21 0.30436308E+00 0.10732673E+04</pdfrwt>
<totfact> 0.10657861E+01</totfact>
</mgrwt>
</event>
<event>
 8    1  0.5815007E-006  0.1174461E+04  0.7818608E-02  0.8626833E-01
         21   -1    0    0  503  502  0.00000000000E+00  0.00000000000E+00  0.12986030473E+04  0.12986030473E+04  0.00000000000E+00 0.  1.
         21   -1    0    0  501  503 -0.00000000000E+00 -0.00000000000E+00 -0.13775340789E+04  0.13775340789E+04  0.00000000000E+00 0.  1.
    9000010    2    1    2  501    0 -0.32212497061E+02  0.60359076601E+03 -0.68334126686E+03  0.13552776818E+04  0.10022289409E+04 0.  0.
   -9000010    2    1    2    0  502  0.32212497061E+02 -0.60359076601E+03  0.60441023528E+03  0.13208594443E+04  0.10069749160E+04 0.  0.
        -13    1    3    3    0    0  0.31222260279E+03  0.20944703502E+03  0.12157470391E+03  0.39513470357E+03  0.10566000000E+00 0.  1.
          4    1    3    3  501    0 -0.34443509985E+03  0.39414373100E+03 -0.80491597076E+03  0.96014297825E+03  0.00000000000E+00 0.  1.
         13    1    4    4    0    0  0.50627447705E+03 -0.22918986477E+03  0.18603239906E+03  0.58604599213E+03  0.10566000000E+00 0. -1.
         -4    1    4    4    0  502 -0.47406197999E+03 -0.37440090124E+03  0.41837783622E+03  0.73481345222E+03  0.00000000000E+00 0. -1.
<mgrwt>
<rscale>  2 0.11734427E+04</rscale>
<asrwt>0</asrwt>
<pdfrwt beam="1">  1       21 0.19978508E+00 0.11744607E+04</pdfrwt>
<pdfrwt beam="2">  1       21 0.21192832E+00 0.11744607E+04</pdfrwt>
<totfact> 0.54731969E+00</totfact>
</mgrwt>
</event>
<event>
 8    1  0.5815007E-006  0.1041083E+04  0.7818608E-02  0.8741356E-01
         21   -1    0    0  503  502  0.00000000000E+00  0.00000000000E+00  0.77542156878E+03  0.77542156878E+03  0.00000000000E+00 0. -1.
         21   -1    0    0  501  503 -0.00000000000E+00 -0.00000000000E+00 -0.13812126585E+04  0.13812126585E+04  0.00000000000E+00 0. -1.
    9000010    2    1    2  501    0  0.10613955529E+03  0.14540427929E+03 -0.20975346395E+03  0.10427677164E+04  0.10054650591E+04 0.  0.
   -9000010    2    1    2    0  502 -0.10613955529E+03 -0.14540427929E+03 -0.39603762576E+03  0.11138665109E+04  0.10253998212E+04 0.  0.
        -13    1    3    3    0    0  0.13169717483E+02  0.39086850219E+03  0.28417158477E+03  0.48343058262E+03  0.10566000000E+00 0.  1.
          4    1    3    3  501    0  0.92969837804E+02 -0.24546422290E+03 -0.49392504871E+03  0.55933713377E+03  0.00000000000E+00 0.  1.
         13    1    4    4    0    0  0.22413000839E+03  0.64865341648E+02  0.26033331123E+03  0.34959293086E+03  0.10566000000E+00 0. -1.
         -4    1    4    4    0  502 -0.33026956368E+03 -0.21026962094E+03 -0.65637093699E+03  0.76427358001E+03  0.00000000000E+00 0. -1.
<mgrwt>
<rscale>  2 0.10361403E+04</rscale>
<asrwt>0</asrwt>
<pdfrwt beam="1">  1       21 0.11929563E+00 0.10410825E+04</pdfrwt>
<pdfrwt beam="2">  1       21 0.21249425E+00 0.10410825E+04</pdfrwt>
<totfact> 0.28313402E+01</totfact>
</mgrwt>
</event>
<event>
 8    1  0.5815007E-006  0.1138233E+04  0.7818608E-02  0.8659036E-01
         21   -1    0    0  501  502  0.00000000000E+00  0.00000000000E+00  0.14426382196E+04  0.14426382196E+04  0.00000000000E+00 0. -1.
         21   -1    0    0  502  503 -0.00000000000E+00 -0.00000000000E+00 -0.98315735768E+03  0.98315735768E+03  0.00000000000E+00 0. -1.
   -9000010    2    1    2    0  503 -0.21002310883E+03 -0.45936985599E+03  0.61903045521E+03  0.12764345543E+04  0.99546777754E+03 0.  0.
    9000010    2    1    2  501    0  0.21002310883E+03  0.45936985599E+03 -0.15954959334E+03  0.11493610229E+04  0.10200217240E+04 0.  0.
        -13    1    4    4    0    0 -0.85067982481E+02  0.69726932607E+03  0.70498763287E+02  0.70596824398E+03  0.10566000000E+00 0.  1.
          4    1    4    4  501    0  0.29509109131E+03 -0.23789947007E+03 -0.23004835662E+03  0.44339277894E+03  0.00000000000E+00 0.  1.
         13    1    3    3    0    0 -0.41951900839E+03  0.12599451546E+03  0.63373500356E+02  0.44259126521E+03  0.10566000000E+00 0. -1.
         -4    1    3    3    0  503  0.20949589957E+03 -0.58536437145E+03  0.55565695486E+03  0.83384328910E+03  0.00000000000E+00 0. -1.
<mgrwt>
<rscale>  2 0.11327053E+04</rscale>
<asrwt>0</asrwt>
<pdfrwt beam="1">  1       21 0.22194434E+00 0.11382331E+04</pdfrwt>
<pdfrwt beam="2">  1       21 0.15125498E+00 0.11382331E+04</pdfrwt>
<totfact> 0.11709925E+01</totfact>
</mgrwt>
</event>
<event>
 8    1  0.5815007E-006  0.1561928E+04  0.7818608E-02  0.8375743E-01
         21   -1    0    0  503  502  0.00000000000E+00  0.00000000000E+00  0.22484396668E+04  0.22484396668E+04  0.00000000000E+00 0.  1.
         21   -1    0    0  501  503 -0.00000000000E+00 -0.00000000000E+00 -0.12366597297E+04  0.12366597297E+04  0.00000000000E+00 0. -1.
    9000010    2    1    2  501    0 -0.11318181998E+04  0.33613710136E+03 -0.11349490088E+03  0.15660456698E+04  0.10225543306E+04 0.  0.
   -9000010    2    1    2    0  502  0.11318181998E+04 -0.33613710136E+03  0.11252748380E+04  0.19190537267E+04  0.10111988710E+04 0.  0.
        -13    1    3    3    0    0 -0.10611500026E+03  0.18291134604E+03  0.36660726179E+03  0.42322316732E+03  0.10566000000E+00 0.  1.
          4    1    3    3  501    0 -0.10257031995E+04  0.15322575532E+03 -0.48010216267E+03  0.11428225025E+04  0.00000000000E+00 0.  1.
         13    1    4    4    0    0  0.12555940463E+04 -0.48100690179E+03  0.87387650256E+03  0.16036035051E+04  0.10566000000E+00 0. -1.
         -4    1    4    4    0  502 -0.12377584650E+03  0.14486980043E+03  0.25139833547E+03  0.31545022163E+03  0.00000000000E+00 0. -1.
<mgrwt>
<rscale>  2 0.15600717E+04</rscale>
<asrwt>0</asrwt>
<pdfrwt beam="1">  1       21 0.34591379E+00 0.15619276E+04</pdfrwt>
<pdfrwt beam="2">  1       21 0.19025534E+00 0.15619276E+04</pdfrwt>
<totfact> 0.65339672E-01</totfact>
</mgrwt>
</event>
<event>
 8    1  0.5815007E-006  0.1222539E+04  0.7818608E-02  0.8602546E-01
         21   -1    0    0  503  502  0.00000000000E+00  0.00000000000E+00  0.19848660905E+04  0.19848660905E+04  0.00000000000E+00 0.  1.
         21   -1    0    0  501  503 -0.00000000000E+00 -0.00000000000E+00 -0.71225491626E+03  0.71225491626E+03  0.00000000000E+00 0.  1.
    9000010    2    1    2  501    0  0.59334482663E+03 -0.24839409764E+03  0.67412209807E+03  0.13960806764E+04  0.10396359655E+04 0.  0.
   -9000010    2    1    2    0  502 -0.59334482663E+03  0.24839409764E+03  0.59848907614E+03  0.13010403303E+04  0.95956190830E+03 0.  0.
        -13    1    3    3    0    0  0.34671638977E+03  0.18646828199E+03 -0.15891666832E+03  0.42454351221E+03  0.10566000000E+00 0.  1.
          4    1    3    3  501    0  0.24662843686E+03 -0.43486237963E+03  0.83303876639E+03  0.97153716419E+03  0.00000000000E+00 0.  1.
         13    1    4    4    0    0  0.18702961351E+03 -0.11257676517E+02  0.41937031782E+03  0.45932372706E+03  0.10566000000E+00 0. -1.
         -4    1    4    4    0  502 -0.78037444014E+03  0.25965177416E+03  0.17911875832E+03  0.84171660327E+03  0.00000000000E+00 0. -1.
<mgrwt>
<rscale>  2 0.12053480E+04</rscale>
<asrwt>0</asrwt>
<pdfrwt beam="1">  1       21 0.30536401E+00 0.12225386E+04</pdfrwt>
<pdfrwt beam="2">  1       21 0.10957768E+00 0.12225386E+04</pdfrwt>
<totfact> 0.72806623E+00</totfact>
</mgrwt>
</event>
<event>
 8    1  0.5815007E-006  0.1086040E+04  0.7818608E-02  0.8699515E-01
         21   -1    0    0  501  502  0.00000000000E+00  0.00000000000E+00  0.59648491097E+03  0.59648491097E+03  0.00000000000E+00 0. -1.
         21   -1    0    0  502  503 -0.00000000000E+00 -0.00000000000E+00 -0.19721956740E+04  0.19721956740E+04  0.00000000000E+00 0. -1.
   -9000010    2    1    2    0  503  0.90314197547E+02  0.43529606025E+03 -0.77770235424E+03  0.13288837526E+04  0.98156597428E+03 0.  0.
    9000010    2    1    2  501    0 -0.90314197547E+02 -0.43529606025E+03 -0.59800840875E+03  0.12397968323E+04  0.99087981818E+03 0.  0.
        -13    1    4    4    0    0 -0.51715353535E+03 -0.95369937628E+02 -0.19265808025E+03  0.56005388238E+03  0.10566000000E+00 0.  1.
          4    1    4    4  501    0  0.42683933780E+03 -0.33992612262E+03 -0.40535032850E+03  0.67974294991E+03  0.00000000000E+00 0.  1.
         13    1    3    3    0    0 -0.17212428054E+03  0.54594031942E+02  0.18646662859E+03  0.25957097491E+03  0.10566000000E+00 0. -1.
         -4    1    3    3    0  503  0.26243847809E+03  0.38070202831E+03 -0.96416898283E+03  0.10693127777E+04  0.00000000000E+00 0. -1.
<mgrwt>
<rscale>  2 0.10839106E+04</rscale>
<asrwt>0</asrwt>
<pdfrwt beam="1">  1       21 0.91766909E-01 0.10860397E+04</pdfrwt>
<pdfrwt beam="2">  1       21 0.30341472E+00 0.10860397E+04</pdfrwt>
<totfact> 0.12312023E+01</totfact>
</mgrwt>
</event>
<event>
 8    1  0.5815007E-006  0.1164716E+04  0.7818608E-02  0.8634979E-01
         21   -1    0    0  501  502  0.00000000000E+00  0.00000000000E+00  0.15639710622E+04  0.15639710622E+04  0.00000000000E+00 0.  1.
         21   -1    0    0  502  503 -0.00000000000E+00 -0.00000000000E+00 -0.86951864013E+03  0.86951864013E+03  0.00000000000E+00 0.  1.
   -9000010    2    1    2    0  503  0.57028119944E+03  0.20029019105E+03  0.45982546685E+03  0.12521990989E+04  0.99560349349E+03 0.  0.
    9000010    2    1    2  501    0 -0.57028119944E+03 -0.20029019105E+03  0.23462695522E+03  0.11812906034E+04  0.98745170748E+03 0.  0.
        -13    1    4    4    0    0 -0.83787125206E+03 -0.81629770877E+02  0.27540939619E+03  0.88574375594E+03  0.10566000000E+00 0.  1.
          4    1    4    4  501    0  0.26759005262E+03 -0.11866042017E+03 -0.40782440963E+02  0.29554684750E+03  0.00000000000E+00 0.  1.
         13    1    3    3    0    0  0.80949108581E+03  0.26509765345E+03  0.16601402772E+03  0.86782097948E+03  0.10566000000E+00 0. -1.
         -4    1    3    3    0  503 -0.23920988637E+03 -0.64807462395E+02  0.29381143913E+03  0.38437811941E+03  0.00000000000E+00 0. -1.
<mgrwt>
<rscale>  2 0.11629719E+04</rscale>
<asrwt>0</asrwt>
<pdfrwt beam="1">  1       21 0.24061093E+00 0.11647159E+04</pdfrwt>
<pdfrwt beam="2">  1       21 0.13377210E+00 0.11647159E+04</pdfrwt>
<totfact> 0.12247622E+01</totfact>
</mgrwt>
</event>
<event>
 8    1  0.5815007E-006  0.1013331E+04  0.7818608E-02  0.8765632E-01
         21   -1    0    0  503  502  0.00000000000E+00  0.00000000000E+00  0.47819914575E+03  0.47819914575E+03  0.00000000000E+00 0.  1.
         21   -1    0    0  501  503 -0.00000000000E+00 -0.00000000000E+00 -0.21886987478E+04  0.21886987478E+04  0.00000000000E+00 0.  1.
    9000010    2    1    2  501    0 -0.10728709395E+03 -0.69077501482E+02 -0.10923250537E+04  0.14798938856E+04  0.99026747289E+03 0.  0.
   -9000010    2    1    2    0  502  0.10728709395E+03  0.69077501482E+02 -0.61817454838E+03  0.11870040080E+04  0.10052644035E+04 0.  0.
        -13    1    3    3    0    0 -0.51649557510E+03  0.14521448923E+03 -0.59040702480E+03  0.79776900985E+03  0.10566000000E+00 0.  1.
          4    1    3    3  501    0  0.40920848115E+03 -0.21429199071E+03 -0.50191802889E+03  0.68212487570E+03  0.00000000000E+00 0.  1.
         13    1    4    4    0    0 -0.41225788690E+03  0.20754033011E+03 -0.38457425367E+03  0.60077193816E+03  0.10566000000E+00 0. -1.
         -4    1    4    4    0  502  0.51954498085E+03 -0.13846282862E+03 -0.23360029471E+03  0.58623206985E+03  0.00000000000E+00 0. -1.
<mgrwt>
<rscale>  2 0.10095909E+04</rscale>
<asrwt>0</asrwt>
<pdfrwt beam="1">  1       21 0.73569101E-01 0.10133305E+04</pdfrwt>
<pdfrwt beam="2">  1       21 0.33672288E+00 0.10133305E+04</pdfrwt>
<totfact> 0.12622291E+01</totfact>
</mgrwt>
</event>
<event>
 8    1  0.5815007E-006  0.1038889E+04  0.7818608E-02  0.8741871E-01
         21   -1    0    0  503  502  0.00000000000E+00  0.00000000000E+00  0.12095548721E+04  0.12095548721E+04  0.00000000000E+00 0. -1.
         21   -1    0    0  501  503 -0.00000000000E+00 -0.00000000000E+00 -0.93754436877E+03  0.93754436877E+03  0.00000000000E+00 0. -1.
    9000010    2    1    2  501    0  0.18729147076E+03  0.12900023530E+03 -0.12848128126E+03  0.10336885004E+04  0.10001426501E+04 0.  0.
   -9000010    2    1    2    0  502 -0.18729147076E+03 -0.12900023530E+03  0.40049178457E+03  0.11134107404E+04  0.10136915959E+04 0.  0.
        -13    1    3    3    0    0  0.45805638825E+03 -0.21002131331E+03 -0.27708829087E+03  0.57506742124E+03  0.10566000000E+00 0.  1.
          4    1    3    3  501    0 -0.27076491749E+03  0.33902154862E+03  0.14860700962E+03  0.45862107919E+03  0.00000000000E+00 0.  1.
         13    1    4    4    0    0  0.37651539838E+03 -0.19181216572E+03  0.34103091280E+03  0.54300814615E+03  0.10566000000E+00 0. -1.
         -4    1    4    4    0  502 -0.56380686914E+03  0.62811930415E+02  0.59460871764E+02  0.57040259428E+03  0.00000000000E+00 0. -1.
<mgrwt>
<rscale>  2 0.10355688E+04</rscale>
<asrwt>0</asrwt>
<pdfrwt beam="1">  1       21 0.18608537E+00 0.10388887E+04</pdfrwt>
<pdfrwt beam="2">  1       21 0.14423759E+00 0.10388887E+04</pdfrwt>
<totfact> 0.26271811E+01</totfact>
</mgrwt>
</event>
<event>
 8    1  0.5815007E-006  0.1126376E+04  0.7818608E-02  0.8667200E-01
         21   -1    0    0  501  502  0.00000000000E+00  0.00000000000E+00  0.10756698224E+04  0.10756698224E+04  0.00000000000E+00 0.  1.
         21   -1    0    0  502  503 -0.00000000000E+00 -0.00000000000E+00 -0.12177965995E+04  0.12177965995E+04  0.00000000000E+00 0.  1.
   -9000010    2    1    2    0  503  0.27094656870E+03  0.40480219794E+03 -0.31161457725E+03  0.11544099719E+04  0.99914056860E+03 0.  0.
    9000010    2    1    2  501    0 -0.27094656870E+03 -0.40480219794E+03  0.16948780012E+03  0.11390564500E+04  0.10156016046E+04 0.  0.
        -13    1    4    4    0    0 -0.29512803977E+03 -0.70097326438E+03  0.29593718622E+03  0.81611451806E+03  0.10566000000E+00 0.  1.
          4    1    4    4  501    0  0.24181471074E+02  0.29617106644E+03 -0.12644938610E+03  0.32294193191E+03  0.00000000000E+00 0.  1.
         13    1    3    3    0    0  0.29283743197E+02  0.71652349489E+03 -0.19866915846E+03  0.74413231487E+03  0.10566000000E+00 0. -1.
         -4    1    3    3    0  503  0.24166282550E+03 -0.31172129695E+03 -0.11294541879E+03  0.41027765699E+03  0.00000000000E+00 0. -1.
<mgrwt>
<rscale>  2 0.11226530E+04</rscale>
<asrwt>0</asrwt>
<pdfrwt beam="1">  1       21 0.16548767E+00 0.11263763E+04</pdfrwt>
<pdfrwt beam="2">  1       21 0.18735332E+00 0.11263763E+04</pdfrwt>
<totfact> 0.16376948E+01</totfact>
</mgrwt>
</event>
<event>
 8    1  0.5815007E-006  0.1233402E+04  0.7818608E-02  0.8582502E-01
         21   -1    0    0  501  502  0.00000000000E+00  0.00000000000E+00  0.14768498708E+04  0.14768498708E+04  0.00000000000E+00 0.  1.
         21   -1    0    0  502  503 -0.00000000000E+00 -0.00000000000E+00 -0.10343970683E+04  0.10343970683E+04  0.00000000000E+00 0. -1.
   -9000010    2    1    2    0  503 -0.13277984758E+03  0.70207632615E+03  0.11530687985E+03  0.12387798343E+04  0.10053547362E+04 0.  0.
    9000010    2    1    2  501    0  0.13277984758E+03 -0.70207632615E+03  0.32714592261E+03  0.12724671048E+04  0.10008028889E+04 0.  0.
        -13    1    4    4    0    0  0.40496570989E+01  0.20140156482E+03 -0.14188065333E+03  0.24639220967E+03  0.10566000000E+00 0.  1.
          4    1    4    4  501    0  0.12873019048E+03 -0.90347789097E+03  0.46902657594E+03  0.10260748951E+04  0.00000000000E+00 0.  1.
         13    1    3    3    0    0  0.54429747153E+02  0.40475396724E+03 -0.42811429475E+03  0.59166733213E+03  0.10566000000E+00 0. -1.
         -4    1    3    3    0  503 -0.18720959473E+03  0.29732235891E+03  0.54342117461E+03  0.64711250218E+03  0.00000000000E+00 0. -1.
<mgrwt>
<rscale>  2 0.12324738E+04</rscale>
<asrwt>0</asrwt>
<pdfrwt beam="1">  1       21 0.22720767E+00 0.12334017E+04</pdfrwt>
<pdfrwt beam="2">  1       21 0.15913801E+00 0.12334017E+04</pdfrwt>
<totfact> 0.89390720E+00</totfact>
</mgrwt>
</event>
<event>
 8    1  0.5815007E-006  0.1045772E+04  0.7818608E-02  0.8745402E-01
         21   -1    0    0  503  502  0.00000000000E+00  0.00000000000E+00  0.18854400996E+04  0.18854400996E+04  0.00000000000E+00 0.  1.
         21   -1    0    0  501  503 -0.00000000000E+00 -0.00000000000E+00 -0.55781675983E+03  0.55781675983E+03  0.00000000000E+00 0.  1.
    9000010    2    1    2  501    0 -0.20365748356E+03  0.16854393381E+03  0.49931557476E+03  0.11091905483E+04  0.95451778458E+03 0.  0.
   -9000010    2    1    2    0  502  0.20365748356E+03 -0.16854393381E+03  0.82830776506E+03  0.13340663111E+04  0.10118081541E+04 0.  0.
        -13    1    3    3    0    0 -0.49287481895E+03 -0.17486568241E+03  0.16157286700E+03  0.54736587083E+03  0.10566000000E+00 0.  1.
          4    1    3    3  501    0  0.28921733539E+03  0.34340961622E+03  0.33774270776E+03  0.56182467750E+03  0.00000000000E+00 0.  1.
         13    1    4    4    0    0  0.27141095823E+03 -0.44964348516E+03  0.79270340890E+02  0.53115625771E+03  0.10566000000E+00 0. -1.
         -4    1    4    4    0  502 -0.67753474676E+02  0.28109955135E+03  0.74903742417E+03  0.80291005343E+03  0.00000000000E+00 0. -1.
<mgrwt>
<rscale>  2 0.10316579E+04</rscale>
<asrwt>0</asrwt>
<pdfrwt beam="1">  1       21 0.29006770E+00 0.10457720E+04</pdfrwt>
<pdfrwt beam="2">  1       21 0.85817964E-01 0.10457720E+04</pdfrwt>
<totfact> 0.18333846E+01</totfact>
</mgrwt>
</event>
<event>
 8    1  0.5815007E-006  0.1232292E+04  0.7818608E-02  0.8584619E-01
         21   -1    0    0  503  502  0.00000000000E+00  0.00000000000E+00  0.13241323758E+04  0.13241323758E+04  0.00000000000E+00 0. -1.
         21   -1    0    0  501  503 -0.00000000000E+00 -0.00000000000E+00 -0.11452164301E+04  0.11452164301E+04  0.00000000000E+00 0. -1.
    9000010    2    1    2  501    0  0.69624249357E+03  0.14245576202E+03 -0.17021268764E+02  0.12215772085E+04  0.99343540239E+03 0.  0.
   -9000010    2    1    2    0  502 -0.69624249357E+03 -0.14245576202E+03  0.19593721445E+03  0.12477715974E+04  0.10067250436E+04 0.  0.
        -13    1    3    3    0    0  0.61497641690E+03 -0.30805148567E+03  0.19809536947E+03  0.71577475349E+03  0.10566000000E+00 0.  1.
          4    1    3    3  501    0  0.81266076664E+02  0.45050724769E+03 -0.21511663823E+03  0.50580245500E+03  0.00000000000E+00 0.  1.
         13    1    4    4    0    0  0.18009928991E+03 -0.15205268806E+03 -0.17756958422E+03  0.29510462988E+03  0.10566000000E+00 0. -1.
         -4    1    4    4    0  502 -0.87634178347E+03  0.95969260348E+01  0.37350679867E+03  0.95266696757E+03  0.00000000000E+00 0. -1.
<mgrwt>
<rscale>  2 0.12295744E+04</rscale>
<asrwt>0</asrwt>
<pdfrwt beam="1">  1       21 0.20371267E+00 0.12322916E+04</pdfrwt>
<pdfrwt beam="2">  1       21 0.17618714E+00 0.12322916E+04</pdfrwt>
<totfact> 0.96810508E+00</totfact>
</mgrwt>
</event>
<event>
 8    1  0.5815007E-006  0.1177588E+04  0.7818608E-02  0.8624555E-01
         21   -1    0    0  501  502  0.00000000000E+00  0.00000000000E+00  0.10655337704E+04  0.10655337704E+04  0.00000000000E+00 0.  1.
         21   -1    0    0  502  503 -0.00000000000E+00 -0.00000000000E+00 -0.13712121179E+04  0.13712121179E+04  0.00000000000E+00 0.  1.
   -9000010    2    1    2    0  503  0.40564258113E+03  0.44224202014E+03 -0.43818434655E+03  0.12564706737E+04  0.10132073451E+04 0.  0.
    9000010    2    1    2  501    0 -0.40564258113E+03 -0.44224202014E+03  0.13250599901E+03  0.11802752146E+04  0.10076546206E+04 0.  0.
        -13    1    4    4    0    0  0.18294483018E+03  0.16236906553E+03  0.22382005479E+03  0.33155384543E+03  0.10566000000E+00 0.  1.
          4    1    4    4  501    0 -0.58858741131E+03 -0.60461108567E+03 -0.91314055775E+02  0.84872136915E+03  0.00000000000E+00 0.  1.
         13    1    3    3    0    0  0.66251485152E+03 -0.40222509472E+00 -0.29363086730E+03  0.72466901939E+03  0.10566000000E+00 0. -1.
         -4    1    3    3    0  503 -0.25687227038E+03  0.44264424524E+03 -0.14455347925E+03  0.53180165428E+03  0.00000000000E+00 0. -1.
<mgrwt>
<rscale>  2 0.11763924E+04</rscale>
<asrwt>0</asrwt>
<pdfrwt beam="1">  1       21 0.16392827E+00 0.11775878E+04</pdfrwt>
<pdfrwt beam="2">  1       21 0.21095571E+00 0.11775878E+04</pdfrwt>
<totfact> 0.10911722E+01</totfact>
</mgrwt>
</event>
<event>
 8    1  0.5815007E-006  0.1309075E+04  0.7818608E-02  0.8533625E-01
         21   -1    0    0  503  502  0.00000000000E+00  0.00000000000E+00  0.13745815808E+04  0.13745815808E+04  0.00000000000E+00 0. -1.
         21   -1    0    0  501  503 -0.00000000000E+00 -0.00000000000E+00 -0.12766598772E+04  0.12766598772E+04  0.00000000000E+00 0. -1.
    9000010    2    1    2  501    0 -0.74976541121E+03 -0.27935894959E+03 -0.23259052655E+03  0.13010876290E+04  0.99927026915E+03 0.  0.
   -9000010    2    1    2    0  502  0.74976541121E+03  0.27935894959E+03  0.33051223018E+03  0.13501538290E+04  0.10360923864E+04 0.  0.
        -13    1    3    3    0    0 -0.58825368716E+03 -0.41933574796E+03 -0.55726857438E+03  0.91237774257E+03  0.10566000000E+00 0.  1.
          4    1    3    3  501    0 -0.16151172406E+03  0.13997679837E+03  0.32467804783E+03  0.38870988646E+03  0.00000000000E+00 0.  1.
         13    1    4    4    0    0 -0.77823312575E+02  0.32169787983E+03  0.39929248216E+03  0.51863329178E+03  0.10566000000E+00 0. -1.
         -4    1    4    4    0  502  0.82758872379E+03 -0.42338930244E+02 -0.68780251977E+02  0.83152053722E+03  0.00000000000E+00 0. -1.
<mgrwt>
<rscale>  2 0.13017777E+04</rscale>
<asrwt>0</asrwt>
<pdfrwt beam="1">  1       21 0.21147409E+00 0.13090749E+04</pdfrwt>
<pdfrwt beam="2">  1       21 0.19640921E+00 0.13090749E+04</pdfrwt>
<totfact> 0.57052208E+00</totfact>
</mgrwt>
</event>
<event>
 8    1  0.5815007E-006  0.1067650E+04  0.7818608E-02  0.8715912E-01
         21   -1    0    0  503  502  0.00000000000E+00  0.00000000000E+00  0.98329929204E+03  0.98329929204E+03  0.00000000000E+00 0.  1.
         21   -1    0    0  501  503 -0.00000000000E+00 -0.00000000000E+00 -0.11839609307E+04  0.11839609307E+04  0.00000000000E+00 0.  1.
    9000010    2    1    2  501    0 -0.93406673384E+02  0.35399774628E+03 -0.29158570273E+03  0.11067515379E+04  0.10029145196E+04 0.  0.
   -9000010    2    1    2    0  502  0.93406673384E+02 -0.35399774628E+03  0.90924064023E+02  0.10605086849E+04  0.99114694891E+03 0.  0.
        -13    1    3    3    0    0  0.43509148129E+03  0.33726186251E+02 -0.20706674882E+03  0.48303074681E+03  0.10566000000E+00 0.  1.
          4    1    3    3  501    0 -0.52849815467E+03  0.32027156002E+03 -0.84518953902E+02  0.62372079108E+03  0.00000000000E+00 0.  1.
         13    1    4    4    0    0  0.22137281925E+02 -0.51587833829E+03 -0.32391106091E+03  0.60953991314E+03  0.10566000000E+00 0. -1.
         -4    1    4    4    0  502  0.71269391460E+02  0.16188059201E+03  0.41483512493E+03  0.45096877176E+03  0.00000000000E+00 0. -1.
<mgrwt>
<rscale>  2 0.10648777E+04</rscale>
<asrwt>0</asrwt>
<pdfrwt beam="1">  1       21 0.15127682E+00 0.10676501E+04</pdfrwt>
<pdfrwt beam="2">  1       21 0.18214783E+00 0.10676501E+04</pdfrwt>
<totfact> 0.24279852E+01</totfact>
</mgrwt>
</event>
<event>
 8    1  0.5815007E-006  0.1265781E+04  0.7818608E-02  0.8591178E-01
         21   -1    0    0  501  502  0.00000000000E+00  0.00000000000E+00  0.81838857124E+03  0.81838857124E+03  0.00000000000E+00 0.  1.
         21   -1    0    0  502  503 -0.00000000000E+00 -0.00000000000E+00 -0.17503803312E+04  0.17503803312E+04  0.00000000000E+00 0.  1.
   -9000010    2    1    2    0  503  0.45353483730E+03  0.62644119395E+03 -0.28591454815E+03  0.12976706817E+04  0.10020377494E+04 0.  0.
    9000010    2    1    2  501    0 -0.45353483730E+03 -0.62644119395E+03 -0.64607721181E+03  0.12710982207E+04  0.77469510456E+03 0.  0.
        -13    1    4    4    0    0 -0.57259386917E+03 -0.48648880350E+03 -0.18360794897E+03  0.77346427521E+03  0.10566000000E+00 0.  1.
          4    1    4    4  501    0  0.11905903188E+03 -0.13995239046E+03 -0.46246926284E+03  0.49763394553E+03  0.00000000000E+00 0.  1.
         13    1    3    3    0    0  0.37278097643E+03 -0.19467421959E+03 -0.20726919472E+03  0.46885417606E+03  0.10566000000E+00 0. -1.
         -4    1    3    3    0  503  0.80753860863E+02  0.82111541354E+03 -0.78645353432E+02  0.82881650564E+03  0.00000000000E+00 0. -1.
<mgrwt>
<rscale>  2 0.12206427E+04</rscale>
<asrwt>0</asrwt>
<pdfrwt beam="1">  1       21 0.12590594E+00 0.12657812E+04</pdfrwt>
<pdfrwt beam="2">  1       21 0.26928928E+00 0.12657812E+04</pdfrwt>
<totfact> 0.88565509E+00</totfact>
</mgrwt>
</event>
<event>
 8    1  0.5815007E-006  0.1104453E+04  0.7818608E-02  0.8686248E-01
         21   -1    0    0  503  502  0.00000000000E+00  0.00000000000E+00  0.89436344850E+03  0.89436344850E+03  0.00000000000E+00 0. -1.
         21   -1    0    0  501  503 -0.00000000000E+00 -0.00000000000E+00 -0.13463548219E+04  0.13463548219E+04  0.00000000000E+00 0. -1.
    9000010    2    1    2  501    0  0.37104173726E+03  0.32799293684E+03 -0.30335036567E+03  0.11453553085E+04  0.98720109454E+03 0.  0.
   -9000010    2    1    2    0  502 -0.37104173726E+03 -0.32799293684E+03 -0.14864100768E+03  0.10953629618E+04  0.96564720863E+03 0.  0.
        -13    1    3    3    0    0  0.47929310364E+03  0.61735880786E+03 -0.13381272835E+03  0.79294365139E+03  0.10566000000E+00 0.  1.
          4    1    3    3  501    0 -0.10825136639E+03 -0.28936587102E+03 -0.16953763732E+03  0.35241165716E+03  0.00000000000E+00 0.  1.
         13    1    4    4    0    0  0.12831711384E+03 -0.52688250327E+03 -0.19883206001E+02  0.54264703722E+03  0.10566000000E+00 0. -1.
         -4    1    4    4    0  502 -0.49935885109E+03  0.19888956643E+03 -0.12875780168E+03  0.55271592459E+03  0.00000000000E+00 0. -1.
<mgrwt>
<rscale>  2 0.10996161E+04</rscale>
<asrwt>0</asrwt>
<pdfrwt beam="1">  1       21 0.13759438E+00 0.11044534E+04</pdfrwt>
<pdfrwt beam="2">  1       21 0.20713151E+00 0.11044534E+04</pdfrwt>
<totfact> 0.20369678E+01</totfact>
</mgrwt>
</event>
<event>
 8    1  0.5815007E-006  0.1212704E+04  0.7818608E-02  0.8600680E-01
         21   -1    0    0  501  502  0.00000000000E+00  0.00000000000E+00  0.39663280091E+03  0.39663280091E+03  0.00000000000E+00 0.  1.
         21   -1    0    0  502  503 -0.00000000000E+00 -0.00000000000E+00 -0.37226473639E+04  0.37226473639E+04  0.00000000000E+00 0.  1.
   -9000010    2    1    2    0  503 -0.24195615869E+03 -0.64707254217E+03 -0.19396469377E+04  0.22773608255E+04  0.97308603371E+03 0.  0.
    9000010    2    1    2  501    0  0.24195615869E+03  0.64707254217E+03 -0.13863676253E+04  0.18419193393E+04  0.99669754818E+03 0.  0.
        -13    1    4    4    0    0  0.55368621883E+03  0.28079940983E+03 -0.38360073389E+03  0.72977138317E+03  0.10566000000E+00 0.  1.
          4    1    4    4  501    0 -0.31173006015E+03  0.36627313235E+03 -0.10027668914E+04  0.11121479562E+04  0.00000000000E+00 0.  1.
         13    1    3    3    0    0  0.11265759229E+03 -0.17774140699E+03 -0.15669004118E+04  0.15809682642E+04  0.10566000000E+00 0. -1.
         -4    1    3    3    0  503 -0.35461375097E+03 -0.46933113518E+03 -0.37274652595E+03  0.69639256130E+03  0.00000000000E+00 0. -1.
<mgrwt>
<rscale>  2 0.12078426E+04</rscale>
<asrwt>0</asrwt>
<pdfrwt beam="1">  1       21 0.61020433E-01 0.12127043E+04</pdfrwt>
<pdfrwt beam="2">  1       21 0.57271496E+00 0.12127043E+04</pdfrwt>
<totfact> 0.41186930E-01</totfact>
</mgrwt>
</event>
<event>
 8    1  0.5815007E-006  0.1028158E+04  0.7818608E-02  0.8750123E-01
         21   -1    0    0  503  502  0.00000000000E+00  0.00000000000E+00  0.13005358500E+04  0.13005358500E+04  0.00000000000E+00 0.  1.
         21   -1    0    0  501  503 -0.00000000000E+00 -0.00000000000E+00 -0.80871643513E+03  0.80871643513E+03  0.00000000000E+00 0.  1.
    9000010    2    1    2  501    0 -0.12536825137E+02 -0.28932217712E+03  0.20364122927E+03  0.10414718174E+04  0.97945357313E+03 0.  0.
   -9000010    2    1    2    0  502  0.12536825137E+02  0.28932217712E+03  0.28817818561E+03  0.10677804678E+04  0.98653128007E+03 0.  0.
        -13    1    3    3    0    0  0.11428737094E+03 -0.36679729187E+03 -0.31821812055E+03  0.49886334791E+03  0.10566000000E+00 0.  1.
          4    1    3    3  501    0 -0.12682419607E+03  0.77475114752E+02  0.52185934982E+03  0.54260846944E+03  0.00000000000E+00 0.  1.
         13    1    4    4    0    0  0.17714445777E+03 -0.15653408090E+03  0.49569624185E+03  0.54917925375E+03  0.10566000000E+00 0. -1.
         -4    1    4    4    0  502 -0.16460763264E+03  0.44585625802E+03 -0.20751805623E+03  0.51860121404E+03  0.00000000000E+00 0. -1.
<mgrwt>
<rscale>  2 0.10264563E+04</rscale>
<asrwt>0</asrwt>
<pdfrwt beam="1">  1       21 0.20008244E+00 0.10281578E+04</pdfrwt>
<pdfrwt beam="2">  1       21 0.12441791E+00 0.10281578E+04</pdfrwt>
<totfact> 0.31445846E+01</totfact>
</mgrwt>
</event>
<event>
 8    1  0.5815007E-006  0.1090433E+04  0.7818608E-02  0.8697271E-01
         21   -1    0    0  501  502  0.00000000000E+00  0.00000000000E+00  0.87959055121E+03  0.87959055121E+03  0.00000000000E+00 0.  1.
         21   -1    0    0  502  503 -0.00000000000E+00 -0.00000000000E+00 -0.14186990253E+04  0.14186990253E+04  0.00000000000E+00 0.  1.
   -9000010    2    1    2    0  503 -0.80999725978E+02 -0.41044492253E+03 -0.55063010906E+03  0.12077957275E+04  0.99022775783E+03 0.  0.
    9000010    2    1    2  501    0  0.80999725978E+02  0.41044492253E+03  0.11521634961E+02  0.10904938490E+04  0.10069846556E+04 0.  0.
        -13    1    4    4    0    0  0.45189316147E+03  0.53370895634E+03  0.19024917702E+02  0.69958175942E+03  0.10566000000E+00 0.  1.
          4    1    4    4  501    0 -0.37089343550E+03 -0.12326403381E+03 -0.75032827407E+01  0.39091208958E+03  0.00000000000E+00 0.  1.
         13    1    3    3    0    0  0.68305634809E+02  0.20154240353E+03 -0.53709184340E+03  0.57771330224E+03  0.10566000000E+00 0. -1.
         -4    1    3    3    0  503 -0.14930536079E+03 -0.61198732606E+03 -0.13538265660E+02  0.63008242529E+03  0.00000000000E+00 0. -1.
<mgrwt>
<rscale>  2 0.10865484E+04</rscale>
<asrwt>0</asrwt>
<pdfrwt beam="1">  1       21 0.13532162E+00 0.10904330E+04</pdfrwt>
<pdfrwt beam="2">  1       21 0.21826139E+00 0.10904330E+04</pdfrwt>
<totfact> 0.17650512E+01</totfact>
</mgrwt>
</event>
<event>
 8    1  0.5815007E-006  0.1231600E+04  0.7818608E-02  0.8584452E-01
         21   -1    0    0  503  502  0.00000000000E+00  0.00000000000E+00  0.13113143028E+04  0.13113143028E+04  0.00000000000E+00 0. -1.
         21   -1    0    0  501  503 -0.00000000000E+00 -0.00000000000E+00 -0.11803683642E+04  0.11803683642E+04  0.00000000000E+00 0. -1.
    9000010    2    1    2  501    0 -0.55673610430E+03 -0.48329953832E+03 -0.13452319528E+03  0.12317971699E+04  0.97759615597E+03 0.  0.
   -9000010    2    1    2    0  502  0.55673610430E+03  0.48329953832E+03  0.26546913381E+03  0.12598854971E+04  0.98656174222E+03 0.  0.
        -13    1    3    3    0    0  0.18838262137E+03  0.14716312886E+03 -0.87663237150E+02  0.25461707099E+03  0.10566000000E+00 0.  1.
          4    1    3    3  501    0 -0.74511872567E+03 -0.63046266719E+03 -0.46859958128E+02  0.97718009892E+03  0.00000000000E+00 0.  1.
         13    1    4    4    0    0 -0.14716135508E+03  0.43526980783E+03 -0.92564358418E+02  0.46870506894E+03  0.10566000000E+00 0. -1.
         -4    1    4    4    0  502  0.70389745938E+03  0.48029730494E+02  0.35803349223E+03  0.79118042816E+03  0.00000000000E+00 0. -1.
<mgrwt>
<rscale>  2 0.12298032E+04</rscale>
<asrwt>0</asrwt>
<pdfrwt beam="1">  1       21 0.20174066E+00 0.12315996E+04</pdfrwt>
<pdfrwt beam="2">  1       21 0.18159513E+00 0.12315996E+04</pdfrwt>
<totfact> 0.90562985E+00</totfact>
</mgrwt>
</event>
<event>
 8    1  0.5815007E-006  0.1111302E+04  0.7818608E-02  0.8685112E-01
         21   -1    0    0  503  502  0.00000000000E+00  0.00000000000E+00  0.18338818431E+04  0.18338818431E+04  0.00000000000E+00 0.  1.
         21   -1    0    0  501  503 -0.00000000000E+00 -0.00000000000E+00 -0.66339925612E+03  0.66339925612E+03  0.00000000000E+00 0.  1.
    9000010    2    1    2  501    0 -0.42590195942E+03  0.21750558875E+03  0.78006501379E+03  0.13577532752E+04  0.10031407530E+04 0.  0.
   -9000010    2    1    2    0  502  0.42590195942E+03 -0.21750558875E+03  0.39041757316E+03  0.11395278240E+04  0.95780823763E+03 0.  0.
        -13    1    3    3    0    0  0.40217040450E+02  0.24690154479E+03 -0.16769566003E+03  0.30116379052E+03  0.10566000000E+00 0.  1.
          4    1    3    3  501    0 -0.46611899987E+03 -0.29395956043E+02  0.94776067382E+03  0.10565894847E+04  0.00000000000E+00 0.  1.
         13    1    4    4    0    0  0.33695718055E+03  0.80555642482E+02 -0.25022477512E+03  0.42736612209E+03  0.10566000000E+00 0. -1.
         -4    1    4    4    0  502  0.88944778870E+02 -0.29806123123E+03  0.64064234829E+03  0.71216170191E+03  0.00000000000E+00 0. -1.
<mgrwt>
<rscale>  2 0.11009734E+04</rscale>
<asrwt>0</asrwt>
<pdfrwt beam="1">  1       21 0.28213567E+00 0.11113022E+04</pdfrwt>
<pdfrwt beam="2">  1       21 0.10206142E+00 0.11113022E+04</pdfrwt>
<totfact> 0.13164513E+01</totfact>
</mgrwt>
</event>
<event>
 8    1  0.5815007E-006  0.1059265E+04  0.7818608E-02  0.8726061E-01
         21   -1    0    0  501  502  0.00000000000E+00  0.00000000000E+00  0.53975280830E+03  0.53975280830E+03  0.00000000000E+00 0.  1.
         21   -1    0    0  502  503 -0.00000000000E+00 -0.00000000000E+00 -0.22130321041E+04  0.22130321041E+04  0.00000000000E+00 0.  1.
   -9000010    2    1    2    0  503 -0.27512571469E+03 -0.41313720760E+01 -0.12382648356E+04  0.16295222374E+04  0.10229035594E+04 0.  0.
    9000010    2    1    2  501    0  0.27512571469E+03  0.41313720760E+01 -0.43501446017E+03  0.11232626750E+04  0.99838380867E+03 0.  0.
        -13    1    4    4    0    0  0.57955750669E+02  0.72849313152E+02  0.32071473492E+03  0.33395185854E+03  0.10566000000E+00 0.  1.
          4    1    4    4  501    0  0.21716996402E+03 -0.68717941076E+02 -0.75572919509E+03  0.78931081648E+03  0.00000000000E+00 0.  1.
         13    1    3    3    0    0 -0.16734417188E+03 -0.50784127515E+03 -0.52190659833E+03  0.74719029781E+03  0.10566000000E+00 0. -1.
         -4    1    3    3    0  503 -0.10778154281E+03  0.50370990307E+03 -0.71635823728E+03  0.88233193955E+03  0.00000000000E+00 0. -1.
<mgrwt>
<rscale>  2 0.10533005E+04</rscale>
<asrwt>0</asrwt>
<pdfrwt beam="1">  1       21 0.83038895E-01 0.10592653E+04</pdfrwt>
<pdfrwt beam="2">  1       21 0.34046647E+00 0.10592653E+04</pdfrwt>
<totfact> 0.87650221E+00</totfact>
</mgrwt>
</event>
<event>
 8    1  0.5815007E-006  0.1206831E+04  0.7818608E-02  0.8603272E-01
         21   -1    0    0  503  502  0.00000000000E+00  0.00000000000E+00  0.11240732817E+04  0.11240732817E+04  0.00000000000E+00 0.  1.
         21   -1    0    0  501  503 -0.00000000000E+00 -0.00000000000E+00 -0.17933873318E+04  0.17933873318E+04  0.00000000000E+00 0.  1.
    9000010    2    1    2  501    0 -0.47260875758E+03 -0.49640668908E+03 -0.11121398527E+04  0.16411266868E+04  0.99330917217E+03 0.  0.
   -9000010    2    1    2    0  502  0.47260875758E+03  0.49640668908E+03  0.44282580264E+03  0.12763339266E+04  0.98140458636E+03 0.  0.
        -13    1    3    3    0    0 -0.28068728652E+03 -0.57869246447E+03 -0.12395705779E+04  0.13964976011E+04  0.10566000000E+00 0.  1.
          4    1    3    3  501    0 -0.19192147106E+03  0.82285775390E+02  0.12743072512E+03  0.24462908574E+03  0.00000000000E+00 0.  1.
         13    1    4    4    0    0  0.81844149627E+02  0.39369581495E+03  0.69292838926E+03  0.80115206007E+03  0.10566000000E+00 0. -1.
         -4    1    4    4    0  502  0.39076460795E+03  0.10271087413E+03 -0.25010258663E+03  0.47518186658E+03  0.00000000000E+00 0. -1.
<mgrwt>
<rscale>  2 0.12043790E+04</rscale>
<asrwt>0</asrwt>
<pdfrwt beam="1">  1       21 0.17293435E+00 0.12068313E+04</pdfrwt>
<pdfrwt beam="2">  1       21 0.27590574E+00 0.12068313E+04</pdfrwt>
<totfact> 0.30291879E+00</totfact>
</mgrwt>
</event>
<event>
 8    1  0.5815007E-006  0.1039003E+04  0.7818608E-02  0.8754087E-01
         21   -1    0    0  501  502  0.00000000000E+00  0.00000000000E+00  0.18909495855E+04  0.18909495855E+04  0.00000000000E+00 0.  1.
         21   -1    0    0  502  503 -0.00000000000E+00 -0.00000000000E+00 -0.54206712977E+03  0.54206712977E+03  0.00000000000E+00 0.  1.
   -9000010    2    1    2    0  503  0.14129438332E+03 -0.32167055200E+03  0.51619737492E+03  0.11015170709E+04  0.90743819669E+03 0.  0.
    9000010    2    1    2  501    0 -0.14129438332E+03  0.32167055200E+03  0.83268508082E+03  0.13314996444E+04  0.97779896318E+03 0.  0.
        -13    1    4    4    0    0 -0.30105597165E+03 -0.27606611276E+03  0.23500871849E+03  0.47124972744E+03  0.10566000000E+00 0.  1.
          4    1    4    4  501    0  0.15976158834E+03  0.59773666476E+03  0.59767636234E+03  0.86024991695E+03  0.00000000000E+00 0.  1.
         13    1    3    3    0    0  0.38170970551E+03  0.53678916686E+02 -0.41367067432E+02  0.38767895328E+03  0.10566000000E+00 0. -1.
         -4    1    3    3    0  503 -0.24041532220E+03 -0.37534946869E+03  0.55756444235E+03  0.71383811762E+03  0.00000000000E+00 0. -1.
<mgrwt>
<rscale>  2 0.10221142E+04</rscale>
<asrwt>0</asrwt>
<pdfrwt beam="1">  1       21 0.29091532E+00 0.10390028E+04</pdfrwt>
<pdfrwt beam="2">  1       21 0.83394944E-01 0.10390028E+04</pdfrwt>
<totfact> 0.19457650E+01</totfact>
</mgrwt>
</event>
<event>
 8    1  0.5815007E-006  0.1031420E+04  0.7818608E-02  0.8747304E-01
         21   -1    0    0  503  502  0.00000000000E+00  0.00000000000E+00  0.17685168633E+04  0.17685168633E+04  0.00000000000E+00 0. -1.
         21   -1    0    0  501  503 -0.00000000000E+00 -0.00000000000E+00 -0.61585418377E+03  0.61585418377E+03  0.00000000000E+00 0. -1.
    9000010    2    1    2  501    0 -0.17763065858E+03 -0.36765388264E+02  0.36690415812E+03  0.10877433006E+04  0.10078008147E+04 0.  0.
   -9000010    2    1    2    0  502  0.17763065858E+03  0.36765388264E+02  0.78575852137E+03  0.12966277464E+04  0.10153436434E+04 0.  0.
        -13    1    3    3    0    0 -0.53490135485E+03  0.66898515239E+02 -0.34867654051E+02  0.54019499741E+03  0.10566000000E+00 0.  1.
          4    1    3    3  501    0  0.35727069627E+03 -0.10366390350E+03  0.40177181217E+03  0.54754830322E+03  0.00000000000E+00 0.  1.
         13    1    4    4    0    0  0.15011127133E+03  0.47248678212E+03  0.69004428235E+03  0.84966950977E+03  0.10566000000E+00 0. -1.
         -4    1    4    4    0  502  0.27519387253E+02 -0.43572139386E+03  0.95714239026E+02  0.44695823663E+03  0.00000000000E+00 0. -1.
<mgrwt>
<rscale>  2 0.10295588E+04</rscale>
<asrwt>0</asrwt>
<pdfrwt beam="1">  1       21 0.27207952E+00 0.10314199E+04</pdfrwt>
<pdfrwt beam="2">  1       21 0.94746798E-01 0.10314199E+04</pdfrwt>
<totfact> 0.19175369E+01</totfact>
</mgrwt>
</event>
<event>
 8    1  0.5815007E-006  0.1124246E+04  0.7818608E-02  0.8666932E-01
         21   -1    0    0  501  502  0.00000000000E+00  0.00000000000E+00  0.26644070039E+04  0.26644070039E+04  0.00000000000E+00 0.  1.
         21   -1    0    0  502  503 -0.00000000000E+00 -0.00000000000E+00 -0.47723423989E+03  0.47723423989E+03  0.00000000000E+00 0.  1.
   -9000010    2    1    2    0  503 -0.30473578823E+02  0.51743565290E+03  0.93054783446E+03  0.14555108495E+04  0.99192956750E+03 0.  0.
    9000010    2    1    2  501    0  0.30473578823E+02 -0.51743565290E+03  0.12566249296E+04  0.16861303943E+04  0.99762778587E+03 0.  0.
        -13    1    4    4    0    0  0.33121365308E+02 -0.63952388332E+03  0.27498700191E+03  0.69692588169E+03  0.10566000000E+00 0.  1.
          4    1    4    4  501    0 -0.26477864845E+01  0.12208823043E+03  0.98163792769E+03  0.98920451266E+03  0.00000000000E+00 0.  1.
         13    1    3    3    0    0  0.28105785940E+03 -0.47541860095E+02 -0.42298191945E+02  0.28817164503E+03  0.10566000000E+00 0. -1.
         -4    1    3    3    0  503 -0.31153143822E+03  0.56497751299E+03  0.97284602640E+03  0.11673392045E+04  0.00000000000E+00 0. -1.
<mgrwt>
<rscale>  2 0.11229807E+04</rscale>
<asrwt>0</asrwt>
<pdfrwt beam="1">  1       21 0.40990876E+00 0.11242462E+04</pdfrwt>
<pdfrwt beam="2">  1       21 0.73420654E-01 0.11242462E+04</pdfrwt>
<totfact> 0.38110165E+00</totfact>
</mgrwt>
</event>
<event>
 8    1  0.5815007E-006  0.1195052E+04  0.7818608E-02  0.8614467E-01
         21   -1    0    0  501  502  0.00000000000E+00  0.00000000000E+00  0.10229504182E+04  0.10229504182E+04  0.00000000000E+00 0.  1.
         21   -1    0    0  502  503 -0.00000000000E+00 -0.00000000000E+00 -0.14488832101E+04  0.14488832101E+04  0.00000000000E+00 0.  1.
   -9000010    2    1    2    0  503 -0.36116028639E+02  0.66150001541E+03 -0.49814702864E+03  0.12746020136E+04  0.96828363254E+03 0.  0.
    9000010    2    1    2  501    0  0.36116028639E+02 -0.66150001541E+03  0.72214236797E+02  0.11972316147E+04  0.99461651165E+03 0.  0.
        -13    1    4    4    0    0  0.30559506475E+03 -0.20892048474E+03  0.42473862092E+03  0.56341726971E+03  0.10566000000E+00 0.  1.
          4    1    4    4  501    0 -0.26947903611E+03 -0.45257953067E+03 -0.35252438412E+03  0.63381434496E+03  0.00000000000E+00 0.  1.
         13    1    3    3    0    0  0.13693379116E+03  0.36752411236E+03  0.24114101371E+03  0.46040616415E+03  0.10566000000E+00 0. -1.
         -4    1    3    3    0  503 -0.17304981980E+03  0.29397590305E+03 -0.73928804236E+03  0.81419584946E+03  0.00000000000E+00 0. -1.
<mgrwt>
<rscale>  2 0.11895576E+04</rscale>
<asrwt>0</asrwt>
<pdfrwt beam="1">  1       21 0.15737699E+00 0.11950517E+04</pdfrwt>
<pdfrwt beam="2">  1       21 0.22290511E+00 0.11950517E+04</pdfrwt>
<totfact> 0.10052066E+01</totfact>
</mgrwt>
</event>
<event>
 8    1  0.5815007E-006  0.1098794E+04  0.7818608E-02  0.8689754E-01
         21   -1    0    0  501  502  0.00000000000E+00  0.00000000000E+00  0.11053182504E+04  0.11053182504E+04  0.00000000000E+00 0.  1.
         21   -1    0    0  502  503 -0.00000000000E+00 -0.00000000000E+00 -0.10806358777E+04  0.10806358777E+04  0.00000000000E+00 0.  1.
   -9000010    2    1    2    0  503 -0.12406324217E+03 -0.40818683011E+03  0.54043552448E+02  0.11001220935E+04  0.10125906076E+04 0.  0.
    9000010    2    1    2  501    0  0.12406324217E+03  0.40818683011E+03 -0.29361179678E+02  0.10858320346E+04  0.99807863030E+03 0.  0.
        -13    1    4    4    0    0  0.24910033664E+03  0.34605526399E+03 -0.46350112890E+03  0.62979245082E+03  0.10566000000E+00 0.  1.
          4    1    4    4  501    0 -0.12503709447E+03  0.62131566121E+02  0.43413994922E+03  0.45603958382E+03  0.00000000000E+00 0.  1.
         13    1    3    3    0    0  0.30948551486E+03 -0.36139136092E+02  0.34006038420E+03  0.46122488781E+03  0.10566000000E+00 0. -1.
         -4    1    3    3    0  503 -0.43354875703E+03 -0.37204769402E+03 -0.28601683176E+03  0.63889720566E+03  0.00000000000E+00 0. -1.
<mgrwt>
<rscale>  2 0.10954388E+04</rscale>
<asrwt>0</asrwt>
<pdfrwt beam="1">  1       21 0.17004896E+00 0.10987938E+04</pdfrwt>
<pdfrwt beam="2">  1       21 0.16625167E+00 0.10987938E+04</pdfrwt>
<totfact> 0.22505648E+01</totfact>
</mgrwt>
</event>
<event>
 8    1  0.5815007E-006  0.1065949E+04  0.7818608E-02  0.8716154E-01
         21   -1    0    0  501  502  0.00000000000E+00  0.00000000000E+00  0.21154820348E+04  0.21154820348E+04  0.00000000000E+00 0.  1.
         21   -1    0    0  502  503 -0.00000000000E+00 -0.00000000000E+00 -0.56228695495E+03  0.56228695495E+03  0.00000000000E+00 0.  1.
   -9000010    2    1    2    0  503 -0.32865134016E+03 -0.12998048053E+03  0.47655035469E+03  0.11627076041E+04  0.99994104993E+03 0.  0.
    9000010    2    1    2  501    0  0.32865134016E+03  0.12998048053E+03  0.10766447251E+04  0.15150613856E+04  0.10056542693E+04 0.  0.
        -13    1    4    4    0    0 -0.22124188669E+03  0.82602120410E+02  0.90760345047E+03  0.93782467295E+03  0.10566000000E+00 0.  1.
          4    1    4    4  501    0  0.54989322685E+03  0.47378360117E+02  0.16904127467E+03  0.57723671270E+03  0.00000000000E+00 0.  1.
         13    1    3    3    0    0 -0.45528638410E+03  0.15838965524E+03  0.64524185318E+03  0.80542537500E+03  0.10566000000E+00 0. -1.
         -4    1    3    3    0  503  0.12663504394E+03 -0.28837013577E+03 -0.16869149849E+03  0.35728222909E+03  0.00000000000E+00 0. -1.
<mgrwt>
<rscale>  2 0.10645993E+04</rscale>
<asrwt>0</asrwt>
<pdfrwt beam="1">  1       21 0.32545877E+00 0.10659489E+04</pdfrwt>
<pdfrwt beam="2">  1       21 0.86505686E-01 0.10659489E+04</pdfrwt>
<totfact> 0.10066509E+01</totfact>
</mgrwt>
</event>
<event>
 8    1  0.5815007E-006  0.1059758E+04  0.7818608E-02  0.8726314E-01
         21   -1    0    0  501  502  0.00000000000E+00  0.00000000000E+00  0.78981890269E+03  0.78981890269E+03  0.00000000000E+00 0.  1.
         21   -1    0    0  502  503 -0.00000000000E+00 -0.00000000000E+00 -0.13906437721E+04  0.13906437721E+04  0.00000000000E+00 0.  1.
   -9000010    2    1    2    0  503  0.15122373730E+03  0.21517938020E+03 -0.36498608788E+03  0.11208488733E+04  0.10266043873E+04 0.  0.
    9000010    2    1    2  501    0 -0.15122373730E+03 -0.21517938020E+03 -0.23583878151E+03  0.10596138015E+04  0.99899484133E+03 0.  0.
        -13    1    4    4    0    0 -0.40921942882E+03  0.23890950845E+03 -0.25280748966E+03  0.53707535053E+03  0.10566000000E+00 0.  1.
          4    1    4    4  501    0  0.25799569153E+03 -0.45408888865E+03  0.16968708155E+02  0.52253845093E+03  0.00000000000E+00 0.  1.
         13    1    3    3    0    0  0.11193026427E+03  0.16040032478E+03  0.35093477916E+03  0.40176097201E+03  0.10566000000E+00 0. -1.
         -4    1    3    3    0  503  0.39293473029E+02  0.54779055422E+02 -0.71592086703E+03  0.71908790130E+03  0.00000000000E+00 0. -1.
<mgrwt>
<rscale>  2 0.10530133E+04</rscale>
<asrwt>0</asrwt>
<pdfrwt beam="1">  1       21 0.12151060E+00 0.10597582E+04</pdfrwt>
<pdfrwt beam="2">  1       21 0.21394519E+00 0.10597582E+04</pdfrwt>
<totfact> 0.26109668E+01</totfact>
</mgrwt>
</event>
<event>
 8    1  0.5815007E-006  0.1101017E+04  0.7818608E-02  0.8686969E-01
         21   -1    0    0  503  502  0.00000000000E+00  0.00000000000E+00  0.46032461530E+03  0.46032461530E+03  0.00000000000E+00 0. -1.
         21   -1    0    0  501  503 -0.00000000000E+00 -0.00000000000E+00 -0.26227604418E+04  0.26227604418E+04  0.00000000000E+00 0. -1.
    9000010    2    1    2  501    0  0.32477361620E+03  0.31516019515E+03 -0.11847558188E+04  0.16173700266E+04  0.10037109157E+04 0.  0.
   -9000010    2    1    2    0  502 -0.32477361620E+03 -0.31516019515E+03 -0.97768000768E+03  0.14657150305E+04  0.99381009394E+03 0.  0.
        -13    1    3    3    0    0  0.45874874436E+03 -0.24793393899E+03 -0.59121599128E+03  0.78832607978E+03  0.10566000000E+00 0.  1.
          4    1    3    3  501    0 -0.13397512816E+03  0.56309413414E+03 -0.59353982750E+03  0.82904394678E+03  0.00000000000E+00 0.  1.
         13    1    4    4    0    0 -0.67505825766E+03 -0.16513571535E+03 -0.50767465567E+03  0.86064337730E+03  0.10566000000E+00 0. -1.
         -4    1    4    4    0  502  0.35028464146E+03 -0.15002447980E+03 -0.47000535201E+03  0.60507165320E+03  0.00000000000E+00 0. -1.
<mgrwt>
<rscale>  2 0.10987560E+04</rscale>
<asrwt>0</asrwt>
<pdfrwt beam="1">  1       21 0.70819171E-01 0.11010175E+04</pdfrwt>
<pdfrwt beam="2">  1       21 0.40350161E+00 0.11010175E+04</pdfrwt>
<totfact> 0.46215475E+00</totfact>
</mgrwt>
</event>
<event>
 8    1  0.5815007E-006  0.1488270E+04  0.7818608E-02  0.8417362E-01
         21   -1    0    0  501  502  0.00000000000E+00  0.00000000000E+00  0.13887229738E+04  0.13887229738E+04  0.00000000000E+00 0.  1.
         21   -1    0    0  502  503 -0.00000000000E+00 -0.00000000000E+00 -0.17504578922E+04  0.17504578922E+04  0.00000000000E+00 0. -1.
   -9000010    2    1    2    0  503 -0.11004085460E+04 -0.99489738245E+01 -0.66007399340E+03  0.16213025041E+04  0.99092188537E+03 0.  0.
    9000010    2    1    2  501    0  0.11004085460E+04  0.99489738245E+01  0.29833907499E+03  0.15178783619E+04  0.10019733369E+04 0.  0.
        -13    1    4    4    0    0  0.67472906096E+03 -0.65365663372E+02 -0.33099113915E+03  0.75437863239E+03  0.10566000000E+00 0.  1.
          4    1    4    4  501    0  0.42567948501E+03  0.75314637197E+02  0.62933021415E+03  0.76349972952E+03  0.00000000000E+00 0.  1.
         13    1    3    3    0    0 -0.12467807061E+04 -0.11929665610E+03 -0.42296449543E+03  0.13219655052E+04  0.10566000000E+00 0. -1.
         -4    1    3    3    0  503  0.14637216016E+03  0.10934768228E+03 -0.23710949796E+03  0.29933699891E+03  0.00000000000E+00 0. -1.
<mgrwt>
<rscale>  2 0.14864124E+04</rscale>
<asrwt>0</asrwt>
<pdfrwt beam="1">  1       21 0.21364969E+00 0.14882703E+04</pdfrwt>
<pdfrwt beam="2">  1       21 0.26930121E+00 0.14882703E+04</pdfrwt>
<totfact> 0.15147171E+00</totfact>
</mgrwt>
</event>
<event>
 8    1  0.5815007E-006  0.1321062E+04  0.7818608E-02  0.8525722E-01
         21   -1    0    0  501  502  0.00000000000E+00  0.00000000000E+00  0.16299272083E+04  0.16299272083E+04  0.00000000000E+00 0.  1.
         21   -1    0    0  502  503 -0.00000000000E+00 -0.00000000000E+00 -0.11049650030E+04  0.11049650030E+04  0.00000000000E+00 0.  1.
   -9000010    2    1    2    0  503  0.19380051302E+03 -0.78409737978E+03 -0.49685257405E+02  0.13219955452E+04  0.10453880891E+04 0.  0.
    9000010    2    1    2  501    0 -0.19380051302E+03  0.78409737978E+03  0.57464746267E+03  0.14128966662E+04  0.10068217038E+04 0.  0.
        -13    1    4    4    0    0 -0.17234130830E+03 -0.13350156525E+03  0.43218878408E+03  0.48405717712E+03  0.10566000000E+00 0.  1.
          4    1    4    4  501    0 -0.21459204723E+02  0.91759894502E+03  0.14245867859E+03  0.92883948908E+03  0.00000000000E+00 0.  1.
         13    1    3    3    0    0  0.53713730075E+03 -0.81364503204E+03 -0.89906094970E+01  0.97499515909E+03  0.10566000000E+00 0. -1.
         -4    1    3    3    0  503 -0.34333678774E+03  0.29547652263E+02 -0.40694647908E+02  0.34700038607E+03  0.00000000000E+00 0. -1.
<mgrwt>
<rscale>  2 0.13134197E+04</rscale>
<asrwt>0</asrwt>
<pdfrwt beam="1">  1       21 0.25075803E+00 0.13210615E+04</pdfrwt>
<pdfrwt beam="2">  1       21 0.16999462E+00 0.13210615E+04</pdfrwt>
<totfact> 0.47563166E+00</totfact>
</mgrwt>
</event>
<event>
 8    1  0.5815007E-006  0.1114874E+04  0.7818608E-02  0.8698430E-01
         21   -1    0    0  503  502  0.00000000000E+00  0.00000000000E+00  0.29287827058E+04  0.29287827058E+04  0.00000000000E+00 0.  1.
         21   -1    0    0  501  503 -0.00000000000E+00 -0.00000000000E+00 -0.39110324804E+03  0.39110324804E+03  0.00000000000E+00 0.  1.
    9000010    2    1    2  501    0 -0.39186749278E+03  0.24967707906E+03  0.15876232728E+04  0.19399723463E+04  0.10134329145E+04 0.  0.
   -9000010    2    1    2    0  502  0.39186749278E+03 -0.24967707906E+03  0.95005618498E+03  0.13799136076E+04  0.88637240147E+03 0.  0.
        -13    1    3    3    0    0 -0.29670524389E+03  0.51160699600E+03  0.38548894419E+03  0.70595853799E+03  0.10566000000E+00 0.  1.
          4    1    3    3  501    0 -0.95162248896E+02 -0.26192991694E+03  0.12021343286E+04  0.12340138083E+04  0.00000000000E+00 0.  1.
         13    1    4    4    0    0  0.60726090241E+03  0.20446472335E+02  0.79660887231E+03  0.10018830113E+04  0.10566000000E+00 0. -1.
         -4    1    4    4    0  502 -0.21539340963E+03 -0.27012355139E+03  0.15344731267E+03  0.37803059624E+03  0.00000000000E+00 0. -1.
<mgrwt>
<rscale>  2 0.10851851E+04</rscale>
<asrwt>0</asrwt>
<pdfrwt beam="1">  1       21 0.45058194E+00 0.11148745E+04</pdfrwt>
<pdfrwt beam="2">  1       21 0.60169732E-01 0.11148745E+04</pdfrwt>
<totfact> 0.31890355E+00</totfact>
</mgrwt>
</event>
<event>
 8    1  0.5815007E-006  0.1055498E+04  0.7818608E-02  0.8727311E-01
         21   -1    0    0  501  502  0.00000000000E+00  0.00000000000E+00  0.25525056594E+03  0.25525056594E+03  0.00000000000E+00 0. -1.
         21   -1    0    0  502  503 -0.00000000000E+00 -0.00000000000E+00 -0.47583074092E+04  0.47583074092E+04  0.00000000000E+00 0. -1.
   -9000010    2    1    2    0  503 -0.30948104544E+03  0.32101301356E+02 -0.30388724603E+04  0.32169583836E+04  0.10085962525E+04 0.  0.
    9000010    2    1    2  501    0  0.30948104544E+03 -0.32101301356E+02 -0.14641843830E+04  0.17965995916E+04  0.99354173248E+03 0.  0.
        -13    1    4    4    0    0 -0.30329614831E+03 -0.20443089151E+03 -0.31415102632E+03  0.48215290260E+03  0.10566000000E+00 0.  1.
          4    1    4    4  501    0  0.61277719375E+03  0.17232959016E+03 -0.11500333566E+04  0.13144466890E+04  0.00000000000E+00 0.  1.
         13    1    3    3    0    0 -0.15184855447E+03  0.40570095580E+03 -0.25273747974E+04  0.25642298311E+04  0.10566000000E+00 0. -1.
         -4    1    3    3    0  503 -0.15763249097E+03 -0.37359965445E+03 -0.51149766287E+03  0.65272855241E+03  0.00000000000E+00 0. -1.
<mgrwt>
<rscale>  2 0.10518852E+04</rscale>
<asrwt>0</asrwt>
<pdfrwt beam="1">  1       21 0.39269321E-01 0.10554977E+04</pdfrwt>
<pdfrwt beam="2">  1       21 0.73204724E+00 0.10554977E+04</pdfrwt>
<totfact> 0.57310664E-02</totfact>
</mgrwt>
</event>
<event>
 8    1  0.5815007E-006  0.1066242E+04  0.7818608E-02  0.8717833E-01
         21   -1    0    0  503  502  0.00000000000E+00  0.00000000000E+00  0.61025811877E+03  0.61025811877E+03  0.00000000000E+00 0. -1.
         21   -1    0    0  501  503 -0.00000000000E+00 -0.00000000000E+00 -0.25676492642E+04  0.25676492642E+04  0.00000000000E+00 0. -1.
    9000010    2    1    2  501    0 -0.22087152354E+03  0.27740241176E+03 -0.18302868449E+04  0.21182117610E+04  0.10055519887E+04 0.  0.
   -9000010    2    1    2    0  502  0.22087152354E+03 -0.27740241176E+03 -0.12710430051E+03  0.10596956219E+04  0.99048623410E+03 0.  0.
        -13    1    3    3    0    0  0.33903153468E+03  0.11053359272E+03 -0.12295875527E+04  0.12802521695E+04  0.10566000000E+00 0.  1.
          4    1    3    3  501    0 -0.55990305822E+03  0.16686881904E+03 -0.60069929221E+03  0.83795959153E+03  0.00000000000E+00 0.  1.
         13    1    4    4    0    0  0.14609168539E+03 -0.60105723387E+03  0.13910547686E+03  0.63400546037E+03  0.10566000000E+00 0. -1.
         -4    1    4    4    0  502  0.74779838154E+02  0.32365482211E+03 -0.26620977737E+03  0.42569016154E+03  0.00000000000E+00 0. -1.
<mgrwt>
<rscale>  2 0.10626747E+04</rscale>
<asrwt>0</asrwt>
<pdfrwt beam="1">  1       21 0.93885864E-01 0.10662416E+04</pdfrwt>
<pdfrwt beam="2">  1       21 0.39502297E+00 0.10662416E+04</pdfrwt>
<totfact> 0.26541088E+00</totfact>
</mgrwt>
</event>
<event>
 8    1  0.5815007E-006  0.1034451E+04  0.7818608E-02  0.8743399E-01
         21   -1    0    0  503  502  0.00000000000E+00  0.00000000000E+00  0.15175732659E+04  0.15175732659E+04  0.00000000000E+00 0. -1.
         21   -1    0    0  501  503 -0.00000000000E+00 -0.00000000000E+00 -0.71568154037E+03  0.71568154037E+03  0.00000000000E+00 0. -1.
    9000010    2    1    2  501    0  0.26687419850E+02 -0.24546983515E+03  0.25519635418E+03  0.10632273443E+04  0.10021774035E+04 0.  0.
   -9000010    2    1    2    0  502 -0.26687419850E+02  0.24546983515E+03  0.54669537137E+03  0.11700274620E+04  0.10045500358E+04 0.  0.
        -13    1    3    3    0    0 -0.45359644351E+03 -0.24841504505E+03  0.26858044512E+03  0.58274800286E+03  0.10566000000E+00 0.  1.
          4    1    3    3  501    0  0.48028386336E+03  0.29452098986E+01 -0.13384090943E+02  0.48047934144E+03  0.00000000000E+00 0.  1.
         13    1    4    4    0    0 -0.45648958669E+03  0.25712532633E+03  0.52165672290E+03  0.73933884242E+03  0.10566000000E+00 0. -1.
         -4    1    4    4    0  502  0.42980216684E+03 -0.11655491179E+02  0.25038648468E+02  0.43068861955E+03  0.00000000000E+00 0. -1.
<mgrwt>
<rscale>  2 0.10338743E+04</rscale>
<asrwt>0</asrwt>
<pdfrwt beam="1">  1       21 0.23347281E+00 0.10344508E+04</pdfrwt>
<pdfrwt beam="2">  1       21 0.11010485E+00 0.10344508E+04</pdfrwt>
<totfact> 0.24599305E+01</totfact>
</mgrwt>
</event>
<event>
 8    1  0.5815007E-006  0.1048672E+04  0.7818608E-02  0.8731944E-01
         21   -1    0    0  503  502  0.00000000000E+00  0.00000000000E+00  0.94904389805E+03  0.94904389805E+03  0.00000000000E+00 0.  1.
         21   -1    0    0  501  503 -0.00000000000E+00 -0.00000000000E+00 -0.11570689003E+04  0.11570689003E+04  0.00000000000E+00 0.  1.
    9000010    2    1    2  501    0  0.15478883787E+03  0.27089462347E+03 -0.20785332082E+02  0.10408566010E+04  0.99277739320E+03 0.  0.
   -9000010    2    1    2    0  502 -0.15478883787E+03 -0.27089462347E+03 -0.18723967017E+03  0.10652561974E+04  0.10011835948E+04 0.  0.
        -13    1    3    3    0    0 -0.38598601826E+03  0.11380286352E+02  0.15455200741E+03  0.41593395073E+03  0.10566000000E+00 0.  1.
          4    1    3    3  501    0  0.54077485613E+03  0.25951433712E+03 -0.17533733949E+03  0.62492265026E+03  0.00000000000E+00 0.  1.
         13    1    4    4    0    0 -0.34698790607E+03  0.25992427964E+03  0.79656873265E+02  0.44080207205E+03  0.10566000000E+00 0. -1.
         -4    1    4    4    0  502  0.19219906820E+03 -0.53081890311E+03 -0.26689654344E+03  0.62445412531E+03  0.00000000000E+00 0. -1.
<mgrwt>
<rscale>  2 0.10466602E+04</rscale>
<asrwt>0</asrwt>
<pdfrwt beam="1">  1       21 0.14600675E+00 0.10486716E+04</pdfrwt>
<pdfrwt beam="2">  1       21 0.17801060E+00 0.10486716E+04</pdfrwt>
<totfact> 0.29382790E+01</totfact>
</mgrwt>
</event>
<event>
 8    1  0.5815007E-006  0.1204895E+04  0.7818608E-02  0.8614400E-01
         21   -1    0    0  503  502  0.00000000000E+00  0.00000000000E+00  0.16611993775E+04  0.16611993775E+04  0.00000000000E+00 0. -1.
         21   -1    0    0  501  503 -0.00000000000E+00 -0.00000000000E+00 -0.84410793800E+03  0.84410793800E+03  0.00000000000E+00 0. -1.
    9000010    2    1    2  501    0 -0.42779656841E+03  0.36704946884E+03  0.55398395938E+03  0.12720199164E+04  0.99669515102E+03 0.  0.
   -9000010    2    1    2    0  502  0.42779656841E+03 -0.36704946884E+03  0.26310748015E+03  0.12332873991E+04  0.10649117551E+04 0.  0.
        -13    1    3    3    0    0 -0.10169208723E+03 -0.21595343400E+03  0.55484312763E+03  0.60400999471E+03  0.10566000000E+00 0.  1.
          4    1    3    3  501    0 -0.32610448119E+03  0.58300290284E+03 -0.85916825179E+00  0.66800992174E+03  0.00000000000E+00 0.  1.
         13    1    4    4    0    0  0.21822962214E+03  0.27352045202E+03  0.41456900701E+03  0.54249892018E+03  0.10566000000E+00 0. -1.
         -4    1    4    4    0  502  0.20956694627E+03 -0.64056992086E+03 -0.15146152686E+03  0.69078847891E+03  0.00000000000E+00 0. -1.
<mgrwt>
<rscale>  2 0.11896465E+04</rscale>
<asrwt>0</asrwt>
<pdfrwt beam="1">  1       21 0.25556913E+00 0.12048951E+04</pdfrwt>
<pdfrwt beam="2">  1       21 0.12986276E+00 0.12048951E+04</pdfrwt>
<totfact> 0.10298525E+01</totfact>
</mgrwt>
</event>
<event>
 8    1  0.5815007E-006  0.1064397E+04  0.7818608E-02  0.8722213E-01
         21   -1    0    0  503  502  0.00000000000E+00  0.00000000000E+00  0.64462394836E+03  0.64462394836E+03  0.00000000000E+00 0. -1.
         21   -1    0    0  501  503 -0.00000000000E+00 -0.00000000000E+00 -0.17727502977E+04  0.17727502977E+04  0.00000000000E+00 0. -1.
    9000010    2    1    2  501    0  0.33942721762E+03  0.22302858563E+02 -0.77755134729E+03  0.12967295731E+04  0.98041482780E+03 0.  0.
   -9000010    2    1    2    0  502 -0.33942721762E+03 -0.22302858563E+02 -0.35057500201E+03  0.11206446729E+04  0.10085798914E+04 0.  0.
        -13    1    3    3    0    0  0.39046985306E+03  0.32403186196E+03 -0.52955509318E+02  0.51016433710E+03  0.10566000000E+00 0.  1.
          4    1    3    3  501    0 -0.51042635439E+02 -0.30172900339E+03 -0.72459583797E+03  0.78656523603E+03  0.00000000000E+00 0.  1.
         13    1    4    4    0    0 -0.25112485591E+03 -0.50453963058E+03 -0.10869311169E+03  0.57396701628E+03  0.10566000000E+00 0. -1.
         -4    1    4    4    0  502 -0.88302361711E+02  0.48223677202E+03 -0.24188189032E+03  0.54667765661E+03  0.00000000000E+00 0. -1.
<mgrwt>
<rscale>  2 0.10576716E+04</rscale>
<asrwt>0</asrwt>
<pdfrwt beam="1">  1       21 0.99172915E-01 0.10643973E+04</pdfrwt>
<pdfrwt beam="2">  1       21 0.27273082E+00 0.10643973E+04</pdfrwt>
<totfact> 0.16739816E+01</totfact>
</mgrwt>
</event>
<event>
 8    1  0.5815007E-006  0.1013498E+04  0.7818608E-02  0.8768044E-01
         21   -1    0    0  501  502  0.00000000000E+00  0.00000000000E+00  0.91753449053E+03  0.91753449053E+03  0.00000000000E+00 0. -1.
         21   -1    0    0  502  503 -0.00000000000E+00 -0.00000000000E+00 -0.10942858706E+04  0.10942858706E+04  0.00000000000E+00 0. -1.
   -9000010    2    1    2    0  503 -0.97483278222E+02 -0.84201600487E+02 -0.14261173840E+03  0.10234822085E+04  0.10052784809E+04 0.  0.
    9000010    2    1    2  501    0  0.97483278222E+02  0.84201600487E+02 -0.34139641627E+02  0.98833815257E+03  0.97931296818E+03 0.  0.
        -13    1    4    4    0    0  0.53658167344E+03 -0.15040132532E+02  0.10220128469E+01  0.53679339930E+03  0.10566000000E+00 0.  1.
          4    1    4    4  501    0 -0.43909839522E+03  0.99241733019E+02 -0.35161654474E+02  0.45154475327E+03  0.00000000000E+00 0.  1.
         13    1    3    3    0    0  0.11458810804E+03 -0.51408598586E+03 -0.13646966599E+03  0.54409449204E+03  0.10566000000E+00 0. -1.
         -4    1    3    3    0  503 -0.21207138626E+03  0.42988438538E+03 -0.61420724100E+01  0.47938771648E+03  0.00000000000E+00 0. -1.
<mgrwt>
<rscale>  2 0.10069982E+04</rscale>
<asrwt>0</asrwt>
<pdfrwt beam="1">  1       21 0.14115915E+00 0.10134978E+04</pdfrwt>
<pdfrwt beam="2">  1       21 0.16835167E+00 0.10134978E+04</pdfrwt>
<totfact> 0.39441248E+01</totfact>
</mgrwt>
</event>
<event>
 8    1  0.5815007E-006  0.1570936E+04  0.7818608E-02  0.8384086E-01
         21   -1    0    0  503  502  0.00000000000E+00  0.00000000000E+00  0.12103758274E+04  0.12103758274E+04  0.00000000000E+00 0.  1.
         21   -1    0    0  501  503 -0.00000000000E+00 -0.00000000000E+00 -0.19503377805E+04  0.19503377805E+04  0.00000000000E+00 0. -1.
    9000010    2    1    2  501    0  0.23623644215E+03 -0.11695090680E+04 -0.58655564978E+03  0.15823049605E+04  0.85795241182E+03 0.  0.
   -9000010    2    1    2    0  502 -0.23623644215E+03  0.11695090680E+04 -0.15340630335E+03  0.15784086474E+04  0.10219008013E+04 0.  0.
        -13    1    3    3    0    0 -0.26965008345E+03 -0.14431898575E+03 -0.23676054155E+03  0.38677474368E+03  0.10566000000E+00 0.  1.
          4    1    3    3  501    0  0.50588652560E+03 -0.10251900823E+04 -0.34979510822E+03  0.11955302168E+04  0.00000000000E+00 0.  1.
         13    1    4    4    0    0 -0.50030505007E+03  0.11441087493E+04  0.41202621689E+02  0.12493949098E+04  0.10566000000E+00 0. -1.
         -4    1    4    4    0  502  0.26406860791E+03  0.25400318735E+02 -0.19460892504E+03  0.32901373768E+03  0.00000000000E+00 0. -1.
<mgrwt>
<rscale>  2 0.15449577E+04</rscale>
<asrwt>0</asrwt>
<pdfrwt beam="1">  1       21 0.18621167E+00 0.15709361E+04</pdfrwt>
<pdfrwt beam="2">  1       21 0.30005196E+00 0.15709361E+04</pdfrwt>
<totfact> 0.14800454E+00</totfact>
</mgrwt>
</event>
<event>
 8    1  0.5815007E-006  0.1234492E+04  0.7818608E-02  0.8581562E-01
         21   -1    0    0  501  502  0.00000000000E+00  0.00000000000E+00  0.16225214499E+04  0.16225214499E+04  0.00000000000E+00 0. -1.
         21   -1    0    0  502  503 -0.00000000000E+00 -0.00000000000E+00 -0.10225827059E+04  0.10225827059E+04  0.00000000000E+00 0. -1.
   -9000010    2    1    2    0  503  0.62075153842E+03 -0.34245421249E+03 -0.82855409954E+02  0.12343671701E+04  0.10070699735E+04 0.  0.
    9000010    2    1    2  501    0 -0.62075153842E+03  0.34245421249E+03  0.68279415402E+03  0.14107369857E+04  0.10106253639E+04 0.  0.
        -13    1    4    4    0    0 -0.86681512048E+03  0.33618770383E+03  0.70031267389E+03  0.11639709952E+04  0.10566000000E+00 0.  1.
          4    1    4    4  501    0  0.24606358206E+03  0.62665086590E+01 -0.17518519877E+02  0.24676599054E+03  0.00000000000E+00 0.  1.
         13    1    3    3    0    0 -0.21606471275E+03 -0.51562512696E+02  0.20557753490E+03  0.30266282698E+03  0.10566000000E+00 0. -1.
         -4    1    3    3    0  503  0.83681625117E+03 -0.29089169979E+03 -0.28843294486E+03  0.93170434308E+03  0.00000000000E+00 0. -1.
<mgrwt>
<rscale>  2 0.12337643E+04</rscale>
<asrwt>0</asrwt>
<pdfrwt beam="1">  1       21 0.24961868E+00 0.12344922E+04</pdfrwt>
<pdfrwt beam="2">  1       21 0.15732042E+00 0.12344922E+04</pdfrwt>
<totfact> 0.63331519E+00</totfact>
</mgrwt>
</event>
<event>
 8    1  0.5815007E-006  0.1236931E+04  0.7818608E-02  0.8588101E-01
         21   -1    0    0  503  502  0.00000000000E+00  0.00000000000E+00  0.21313743508E+04  0.21313743508E+04  0.00000000000E+00 0.  1.
         21   -1    0    0  501  503 -0.00000000000E+00 -0.00000000000E+00 -0.70160404479E+03  0.70160404479E+03  0.00000000000E+00 0.  1.
    9000010    2    1    2  501    0 -0.53883086061E+03  0.39534632599E+03  0.54987991900E+03  0.13536488262E+04  0.10408457165E+04 0.  0.
   -9000010    2    1    2    0  502  0.53883086061E+03 -0.39534632599E+03  0.87989038703E+03  0.14793295694E+04  0.98365210717E+03 0.  0.
        -13    1    3    3    0    0 -0.31544227365E+03  0.65557497861E+03  0.67121864643E+03  0.98985699122E+03  0.10566000000E+00 0.  1.
          4    1    3    3  501    0 -0.22338858696E+03 -0.26022865263E+03 -0.12133872743E+03  0.36379183499E+03  0.00000000000E+00 0.  1.
         13    1    4    4    0    0  0.78722768801E+03 -0.18281004334E+03  0.40816524274E+03  0.90539815621E+03  0.10566000000E+00 0. -1.
         -4    1    4    4    0  502 -0.24839682741E+03 -0.21253628265E+03  0.47172514429E+03  0.57393141321E+03  0.00000000000E+00 0. -1.
<mgrwt>
<rscale>  2 0.12248226E+04</rscale>
<asrwt>0</asrwt>
<pdfrwt beam="1">  1       21 0.32790374E+00 0.12369306E+04</pdfrwt>
<pdfrwt beam="2">  1       21 0.10793908E+00 0.12369306E+04</pdfrwt>
<totfact> 0.52480317E+00</totfact>
</mgrwt>
</event>
<event>
 8    1  0.5815007E-006  0.1218628E+04  0.7818608E-02  0.8593519E-01
         21   -1    0    0  501  502  0.00000000000E+00  0.00000000000E+00  0.16524264515E+04  0.16524264515E+04  0.00000000000E+00 0. -1.
         21   -1    0    0  502  503 -0.00000000000E+00 -0.00000000000E+00 -0.92912157020E+03  0.92912157020E+03  0.00000000000E+00 0. -1.
   -9000010    2    1    2    0  503  0.70039891074E+03 -0.50154398217E+02  0.11478320206E+03  0.12194347205E+04  0.99033921269E+03 0.  0.
    9000010    2    1    2  501    0 -0.70039891074E+03  0.50154398217E+02  0.60852167929E+03  0.13621133013E+04  0.99598188413E+03 0.  0.
        -13    1    4    4    0    0 -0.31658299049E+03 -0.22784357935E+03  0.76858669100E+03  0.86189500478E+03  0.10566000000E+00 0.  1.
          4    1    4    4  501    0 -0.38381592025E+03  0.27799797757E+03 -0.16006501171E+03  0.50021829649E+03  0.00000000000E+00 0.  1.
         13    1    3    3    0    0  0.41300967682E+03  0.27023369141E+03  0.45463159486E+03  0.67103885084E+03  0.10566000000E+00 0. -1.
         -4    1    3    3    0  503  0.28738923392E+03 -0.32038808962E+03 -0.33984839280E+03  0.54839586963E+03  0.00000000000E+00 0. -1.
<mgrwt>
<rscale>  2 0.12174744E+04</rscale>
<asrwt>0</asrwt>
<pdfrwt beam="1">  1       21 0.25421946E+00 0.12186279E+04</pdfrwt>
<pdfrwt beam="2">  1       21 0.14294178E+00 0.12186279E+04</pdfrwt>
<totfact> 0.79096711E+00</totfact>
</mgrwt>
</event>
<event>
 8    1  0.5815007E-006  0.1079993E+04  0.7818608E-02  0.8704592E-01
         21   -1    0    0  503  502  0.00000000000E+00  0.00000000000E+00  0.86806586227E+03  0.86806586227E+03  0.00000000000E+00 0. -1.
         21   -1    0    0  501  503 -0.00000000000E+00 -0.00000000000E+00 -0.18558055625E+04  0.18558055625E+04  0.00000000000E+00 0. -1.
    9000010    2    1    2  501    0  0.36220056772E+02  0.39013647281E+03 -0.12176112166E+04  0.16275630817E+04  0.10064125149E+04 0.  0.
   -9000010    2    1    2    0  502 -0.36220056772E+02 -0.39013647281E+03  0.22987151643E+03  0.10963083430E+04  0.99776385431E+03 0.  0.
        -13    1    3    3    0    0  0.94479441961E+02 -0.23380663999E+03  0.66254959544E+01  0.25226140849E+03  0.10566000000E+00 0.  1.
          4    1    3    3  501    0 -0.58259385189E+02  0.62394311279E+03 -0.12242367126E+04  0.13753016732E+04  0.00000000000E+00 0.  1.
         13    1    4    4    0    0  0.27717467497E+03  0.20067343423E+02 -0.26297270987E+03  0.38260051754E+03  0.10566000000E+00 0. -1.
         -4    1    4    4    0  502 -0.31339473175E+03 -0.41020381623E+03  0.49284422630E+03  0.71370782547E+03  0.00000000000E+00 0. -1.
<mgrwt>
<rscale>  2 0.10779735E+04</rscale>
<asrwt>0</asrwt>
<pdfrwt beam="1">  1       21 0.13354860E+00 0.10799928E+04</pdfrwt>
<pdfrwt beam="2">  1       21 0.28550855E+00 0.10799928E+04</pdfrwt>
<totfact> 0.59492922E+00</totfact>
</mgrwt>
</event>
<event>
 8    1  0.5815007E-006  0.1287184E+04  0.7818608E-02  0.8547439E-01
         21   -1    0    0  501  502  0.00000000000E+00  0.00000000000E+00  0.25806702369E+04  0.25806702369E+04  0.00000000000E+00 0.  1.
         21   -1    0    0  502  503 -0.00000000000E+00 -0.00000000000E+00 -0.65105205451E+03  0.65105205451E+03  0.00000000000E+00 0. -1.
   -9000010    2    1    2    0  503 -0.57075347481E+03  0.58937367208E+03  0.69089309912E+03  0.14608823152E+04  0.99182811517E+03 0.  0.
    9000010    2    1    2  501    0  0.57075347481E+03 -0.58937367208E+03  0.12387250832E+04  0.17708399762E+04  0.96349028801E+03 0.  0.
        -13    1    4    4    0    0  0.55793176640E+03 -0.75802872364E+03  0.61438647341E+03  0.11239956191E+04  0.10566000000E+00 0.  1.
          4    1    4    4  501    0  0.12821708413E+02  0.16865505156E+03  0.62433860981E+03  0.64684435711E+03  0.00000000000E+00 0.  1.
         13    1    3    3    0    0 -0.33522221417E+03  0.47784214804E+03  0.93602291495E+03  0.11031074108E+04  0.10566000000E+00 0. -1.
         -4    1    3    3    0  503 -0.23553126064E+03  0.11153152404E+03 -0.24512981582E+03  0.35777490437E+03  0.00000000000E+00 0. -1.
<mgrwt>
<rscale>  2 0.12817232E+04</rscale>
<asrwt>0</asrwt>
<pdfrwt beam="1">  1       21 0.39702619E+00 0.12871845E+04</pdfrwt>
<pdfrwt beam="2">  1       21 0.10016186E+00 0.12871845E+04</pdfrwt>
<totfact> 0.20785954E+00</totfact>
</mgrwt>
</event>
<event>
 8    1  0.5815007E-006  0.1426511E+04  0.7818608E-02  0.8454071E-01
         21   -1    0    0  503  502  0.00000000000E+00  0.00000000000E+00  0.83458599636E+03  0.83458599636E+03  0.00000000000E+00 0. -1.
         21   -1    0    0  501  503 -0.00000000000E+00 -0.00000000000E+00 -0.25097885839E+04  0.25097885839E+04  0.00000000000E+00 0.  1.
    9000010    2    1    2  501    0  0.99776553503E+03  0.27095287509E+03 -0.11388988575E+04  0.18203812869E+04  0.97352241820E+03 0.  0.
   -9000010    2    1    2    0  502 -0.99776553503E+03 -0.27095287509E+03 -0.53630373012E+03  0.15239932934E+04  0.98284400797E+03 0.  0.
        -13    1    3    3    0    0  0.29474620796E+03 -0.14546732153E+03 -0.91635945518E+03  0.97352490005E+03  0.10566000000E+00 0.  1.
          4    1    3    3  501    0  0.70301932707E+03  0.41642019662E+03 -0.22253940228E+03  0.84685638685E+03  0.00000000000E+00 0.  1.
         13    1    4    4    0    0 -0.80869148620E+03  0.99253685311E+02 -0.70299741978E+03  0.10761220178E+04  0.10566000000E+00 0. -1.
         -4    1    4    4    0  502 -0.18907404883E+03 -0.37020656040E+03  0.16669368966E+03  0.44787127557E+03  0.00000000000E+00 0. -1.
<mgrwt>
<rscale>  2 0.14249068E+04</rscale>
<asrwt>0</asrwt>
<pdfrwt beam="1">  1       21 0.12839785E+00 0.14265111E+04</pdfrwt>
<pdfrwt beam="2">  1       21 0.38612131E+00 0.14265111E+04</pdfrwt>
<totfact> 0.12184902E+00</totfact>
</mgrwt>
</event>
<event>
 8    1  0.5815007E-006  0.1210564E+04  0.7818608E-02  0.8598790E-01
         21   -1    0    0  501  502  0.00000000000E+00  0.00000000000E+00  0.56964739003E+03  0.56964739003E+03  0.00000000000E+00 0. -1.
         21   -1    0    0  502  503 -0.00000000000E+00 -0.00000000000E+00 -0.25750298119E+04  0.25750298119E+04  0.00000000000E+00 0. -1.
   -9000010    2    1    2    0  503  0.38078970960E+03 -0.56111744325E+03 -0.10653083917E+04  0.16125592411E+04  0.10028019489E+04 0.  0.
    9000010    2    1    2  501    0 -0.38078970960E+03  0.56111744325E+03 -0.94007403023E+03  0.15321179609E+04  0.10018945432E+04 0.  0.
        -13    1    4    4    0    0 -0.68919582811E+03  0.45072265746E+03 -0.86845592324E+03  0.11968113908E+04  0.10566000000E+00 0.  1.
          4    1    4    4  501    0  0.30840611851E+03  0.11039478580E+03 -0.71618106997E+02  0.33530657004E+03  0.00000000000E+00 0.  1.
         13    1    3    3    0    0  0.78102110836E+02 -0.44842244511E+02  0.19642577427E+03  0.21608762707E+03  0.10566000000E+00 0. -1.
         -4    1    3    3    0  503  0.30268759877E+03 -0.51627519874E+03 -0.12617341659E+04  0.13964716140E+04  0.00000000000E+00 0. -1.
<mgrwt>
<rscale>  2 0.12103761E+04</rscale>
<asrwt>0</asrwt>
<pdfrwt beam="1">  1       21 0.87638060E-01 0.12105641E+04</pdfrwt>
<pdfrwt beam="2">  1       21 0.39615843E+00 0.12105641E+04</pdfrwt>
<totfact> 0.30182099E+00</totfact>
</mgrwt>
</event>
<event>
 8    1  0.5815007E-006  0.1206354E+04  0.7818608E-02  0.8606064E-01
         21   -1    0    0  503  502  0.00000000000E+00  0.00000000000E+00  0.14704571665E+04  0.14704571665E+04  0.00000000000E+00 0. -1.
         21   -1    0    0  501  503 -0.00000000000E+00 -0.00000000000E+00 -0.97908631697E+03  0.97908631697E+03  0.00000000000E+00 0. -1.
    9000010    2    1    2  501    0 -0.53593139512E+03 -0.35655431076E+03  0.35772635117E+03  0.12582761348E+04  0.10202633250E+04 0.  0.
   -9000010    2    1    2    0  502  0.53593139512E+03  0.35655431076E+03  0.13364449839E+03  0.11912673487E+04  0.99343022263E+03 0.  0.
        -13    1    3    3    0    0 -0.65443043469E+03  0.16012772822E+03  0.15974622692E+03  0.69241530267E+03  0.10566000000E+00 0.  1.
          4    1    3    3  501    0  0.11849903957E+03 -0.51668203898E+03  0.19798012426E+03  0.56586083217E+03  0.00000000000E+00 0.  1.
         13    1    4    4    0    0  0.25215557970E+02 -0.25709374349E+03 -0.19928261171E+03  0.32626153282E+03  0.10566000000E+00 0. -1.
         -4    1    4    4    0  502  0.51071583715E+03  0.61364805425E+03  0.33292711010E+03  0.86500581584E+03  0.00000000000E+00 0. -1.
<mgrwt>
<rscale>  2 0.12006623E+04</rscale>
<asrwt>0</asrwt>
<pdfrwt beam="1">  1       21 0.22622418E+00 0.12063543E+04</pdfrwt>
<pdfrwt beam="2">  1       21 0.15062866E+00 0.12063543E+04</pdfrwt>
<totfact> 0.10860293E+01</totfact>
</mgrwt>
</event>
<event>
 8    1  0.5815007E-006  0.1280392E+04  0.7818608E-02  0.8553442E-01
         21   -1    0    0  503  502  0.00000000000E+00  0.00000000000E+00  0.15171619194E+04  0.15171619194E+04  0.00000000000E+00 0.  1.
         21   -1    0    0  501  503 -0.00000000000E+00 -0.00000000000E+00 -0.11770659791E+04  0.11770659791E+04  0.00000000000E+00 0.  1.
    9000010    2    1    2  501    0  0.96866020265E+02  0.77480247998E+03 -0.25953600349E+03  0.13064316019E+04  0.10147426691E+04 0.  0.
   -9000010    2    1    2    0  502 -0.96866020265E+02 -0.77480247998E+03  0.59963194385E+03  0.13877962965E+04  0.97811971853E+03 0.  0.
        -13    1    3    3    0    0  0.39665231777E+03  0.42878202518E+03 -0.51797988551E+03  0.78069857132E+03  0.10566000000E+00 0.  1.
          4    1    3    3  501    0 -0.29978629751E+03  0.34602045480E+03  0.25844388202E+03  0.52573303060E+03  0.00000000000E+00 0.  1.
         13    1    4    4    0    0  0.40277215786E+03 -0.47352162748E+03  0.12138386123E+03  0.63338945031E+03  0.10566000000E+00 0. -1.
         -4    1    4    4    0  502 -0.49963817812E+03 -0.30128085249E+03  0.47824808262E+03  0.75440684623E+03  0.00000000000E+00 0. -1.
<mgrwt>
<rscale>  2 0.12731244E+04</rscale>
<asrwt>0</asrwt>
<pdfrwt beam="1">  1       21 0.23340953E+00 0.12803924E+04</pdfrwt>
<pdfrwt beam="2">  1       21 0.18108707E+00 0.12803924E+04</pdfrwt>
<totfact> 0.52041716E+00</totfact>
</mgrwt>
</event>
<event>
 8    1  0.5815007E-006  0.1166091E+04  0.7818608E-02  0.8636268E-01
         21   -1    0    0  501  502  0.00000000000E+00  0.00000000000E+00  0.25096304458E+04  0.25096304458E+04  0.00000000000E+00 0. -1.
         21   -1    0    0  502  503 -0.00000000000E+00 -0.00000000000E+00 -0.53325825220E+03  0.53325825220E+03  0.00000000000E+00 0.  1.
   -9000010    2    1    2    0  503 -0.25947778534E+03 -0.54610726933E+03  0.95023935183E+03  0.14895963637E+04  0.97487467411E+03 0.  0.
    9000010    2    1    2  501    0  0.25947778534E+03  0.54610726933E+03  0.10261328417E+04  0.15532923343E+04  0.99709909044E+03 0.  0.
        -13    1    4    4    0    0  0.39558009538E+03  0.64225659172E+03  0.11287502706E+04  0.13575913693E+04  0.10566000000E+00 0.  1.
          4    1    4    4  501    0 -0.13610231004E+03 -0.96149322389E+02 -0.10261742885E+03  0.19570096499E+03  0.00000000000E+00 0.  1.
         13    1    3    3    0    0 -0.48210739350E+03  0.73524309815E+02  0.37295100792E+03  0.61394285441E+03  0.10566000000E+00 0. -1.
         -4    1    3    3    0  503  0.22262960815E+03 -0.61963157914E+03  0.57728834391E+03  0.87565350928E+03  0.00000000000E+00 0. -1.
<mgrwt>
<rscale>  2 0.11613255E+04</rscale>
<asrwt>0</asrwt>
<pdfrwt beam="1">  1       21 0.38609699E+00 0.11660911E+04</pdfrwt>
<pdfrwt beam="2">  1       21 0.82039732E-01 0.11660911E+04</pdfrwt>
<totfact> 0.42268517E+00</totfact>
</mgrwt>
</event>
<event>
 8    1  0.5815007E-006  0.1220507E+04  0.7818608E-02  0.8623302E-01
         21   -1    0    0  503  502  0.00000000000E+00  0.00000000000E+00  0.23807144736E+04  0.23807144736E+04  0.00000000000E+00 0.  1.
         21   -1    0    0  501  503 -0.00000000000E+00 -0.00000000000E+00 -0.54683634523E+03  0.54683634523E+03  0.00000000000E+00 0.  1.
    9000010    2    1    2  501    0  0.25727770749E+03 -0.23138383126E+03  0.91675605140E+03  0.15264599659E+04  0.11704307215E+04 0.  0.
   -9000010    2    1    2    0  502 -0.25727770749E+03  0.23138383126E+03  0.91712207695E+03  0.14010908529E+04  0.10011055778E+04 0.  0.
        -13    1    3    3    0    0 -0.17628601462E+03 -0.24632307821E+03 -0.17628983862E+03  0.35047102045E+03  0.10566000000E+00 0.  1.
          4    1    3    3  501    0  0.43356372211E+03  0.14939246945E+02  0.10930458900E+04  0.11759889455E+04  0.00000000000E+00 0.  1.
         13    1    4    4    0    0 -0.48986764763E+03  0.14493282358E+03  0.66683774457E+02  0.51519178224E+03  0.10566000000E+00 0. -1.
         -4    1    4    4    0  502  0.23258994015E+03  0.86451007685E+02  0.85043830249E+03  0.88589907063E+03  0.00000000000E+00 0. -1.
<mgrwt>
<rscale>  2 0.11780173E+04</rscale>
<asrwt>0</asrwt>
<pdfrwt beam="1">  1       21 0.36626376E+00 0.12205074E+04</pdfrwt>
<pdfrwt beam="2">  1       21 0.84128670E-01 0.12205074E+04</pdfrwt>
<totfact> 0.54115758E+00</totfact>
</mgrwt>
</event>
<event>
 8    1  0.5815007E-006  0.1147281E+04  0.7818608E-02  0.8649593E-01
         21   -1    0    0  503  502  0.00000000000E+00  0.00000000000E+00  0.12736001250E+04  0.12736001250E+04  0.00000000000E+00 0. -1.
         21   -1    0    0  501  503 -0.00000000000E+00 -0.00000000000E+00 -0.10234971058E+04  0.10234971058E+04  0.00000000000E+00 0. -1.
    9000010    2    1    2  501    0 -0.46429104950E+03 -0.24584676567E+03  0.11476971596E+03  0.11418619323E+04  0.10073081822E+04 0.  0.
   -9000010    2    1    2    0  502  0.46429104950E+03  0.24584676567E+03  0.13533330326E+03  0.11552352984E+04  0.10199248408E+04 0.  0.
        -13    1    3    3    0    0 -0.45574274130E+03 -0.95187902168E+02 -0.39479036829E+03  0.61042741504E+03  0.10566000000E+00 0.  1.
          4    1    3    3  501    0 -0.85483081929E+01 -0.15065886350E+03  0.50956008425E+03  0.53143451731E+03  0.00000000000E+00 0.  1.
         13    1    4    4    0    0  0.11171701499E+03  0.62158972171E+03  0.91026059023E+02  0.63807540947E+03  0.10566000000E+00 0. -1.
         -4    1    4    4    0  502  0.35257403451E+03 -0.37574295604E+03  0.44307244238E+02  0.51715988893E+03  0.00000000000E+00 0. -1.
<mgrwt>
<rscale>  2 0.11444702E+04</rscale>
<asrwt>0</asrwt>
<pdfrwt beam="1">  1       21 0.19593848E+00 0.11472809E+04</pdfrwt>
<pdfrwt beam="2">  1       21 0.15746109E+00 0.11472809E+04</pdfrwt>
<totfact> 0.16336597E+01</totfact>
</mgrwt>
</event>
<event>
 8    1  0.5815007E-006  0.1438800E+04  0.7818608E-02  0.8447408E-01
         21   -1    0    0  501  502  0.00000000000E+00  0.00000000000E+00  0.95129232674E+03  0.95129232674E+03  0.00000000000E+00 0.  1.
         21   -1    0    0  502  503 -0.00000000000E+00 -0.00000000000E+00 -0.22171275908E+04  0.22171275908E+04  0.00000000000E+00 0.  1.
   -9000010    2    1    2    0  503  0.37089902727E+03  0.95187372452E+03 -0.37745134628E+03  0.14874863045E+04  0.10131714126E+04 0.  0.
    9000010    2    1    2  501    0 -0.37089902727E+03 -0.95187372452E+03 -0.88838391782E+03  0.16809336131E+04  0.99633435668E+03 0.  0.
        -13    1    4    4    0    0 -0.61179246519E+03 -0.49231074438E+03 -0.18482344950E+03  0.80673391409E+03  0.10566000000E+00 0.  1.
          4    1    4    4  501    0  0.24089343791E+03 -0.45956298014E+03 -0.70356046833E+03  0.87419969900E+03  0.00000000000E+00 0.  1.
         13    1    3    3    0    0  0.55551397585E+03  0.63979321221E+03 -0.62115445384E+03  0.10506017316E+04  0.10566000000E+00 0. -1.
         -4    1    3    3    0  503 -0.18461494858E+03  0.31208051231E+03  0.24370310756E+03  0.43688457290E+03  0.00000000000E+00 0. -1.
<mgrwt>
<rscale>  2 0.14358395E+04</rscale>
<asrwt>0</asrwt>
<pdfrwt beam="1">  1       21 0.14635267E+00 0.14388002E+04</pdfrwt>
<pdfrwt beam="2">  1       21 0.34109654E+00 0.14388002E+04</pdfrwt>
<totfact> 0.17046758E+00</totfact>
</mgrwt>
</event>
<event>
 8    1  0.5815007E-006  0.1109262E+04  0.7818608E-02  0.8678950E-01
         21   -1    0    0  501  502  0.00000000000E+00  0.00000000000E+00  0.75844028350E+03  0.75844028350E+03  0.00000000000E+00 0.  1.
         21   -1    0    0  502  503 -0.00000000000E+00 -0.00000000000E+00 -0.16280364861E+04  0.16280364861E+04  0.00000000000E+00 0.  1.
   -9000010    2    1    2    0  503 -0.48321457857E+03 -0.20759930885E+03 -0.53298559703E+03  0.12306649736E+04  0.97666208521E+03 0.  0.
    9000010    2    1    2  501    0  0.48321457857E+03  0.20759930885E+03 -0.33661060559E+03  0.11558117960E+04  0.97262552196E+03 0.  0.
        -13    1    4    4    0    0  0.18806741629E+03  0.58202602675E+03 -0.87489480107E+02  0.61788192171E+03  0.10566000000E+00 0.  1.
          4    1    4    4  501    0  0.29514716228E+03 -0.37442671790E+03 -0.24912112549E+03  0.53792987428E+03  0.00000000000E+00 0.  1.
         13    1    3    3    0    0 -0.20168290582E+03  0.37957475647E+03 -0.34989114886E+03  0.55423534484E+03  0.10566000000E+00 0. -1.
         -4    1    3    3    0  503 -0.28153167276E+03 -0.58717406533E+03 -0.18309444817E+03  0.67642962879E+03  0.00000000000E+00 0. -1.
<mgrwt>
<rscale>  2 0.11083730E+04</rscale>
<asrwt>0</asrwt>
<pdfrwt beam="1">  1       21 0.11668312E+00 0.11092622E+04</pdfrwt>
<pdfrwt beam="2">  1       21 0.25046715E+00 0.11092622E+04</pdfrwt>
<totfact> 0.15489473E+01</totfact>
</mgrwt>
</event>
<event>
 8    1  0.5815007E-006  0.1074933E+04  0.7818608E-02  0.8714461E-01
         21   -1    0    0  503  502  0.00000000000E+00  0.00000000000E+00  0.79660055824E+03  0.79660055824E+03  0.00000000000E+00 0.  1.
         21   -1    0    0  501  503 -0.00000000000E+00 -0.00000000000E+00 -0.14073854088E+04  0.14073854088E+04  0.00000000000E+00 0.  1.
    9000010    2    1    2  501    0 -0.28434116820E+03 -0.10947925677E+03 -0.33376941347E+03  0.10939328674E+04  0.99621859517E+03 0.  0.
   -9000010    2    1    2    0  502  0.28434116820E+03  0.10947925677E+03 -0.27701543704E+03  0.11100530996E+04  0.10308466055E+04 0.  0.
        -13    1    3    3    0    0 -0.60253589401E+03  0.15310120673E+03 -0.13579434450E+03  0.63634078782E+03  0.10566000000E+00 0.  1.
          4    1    3    3  501    0  0.31819472581E+03 -0.26258046350E+03 -0.19797506897E+03  0.45759207956E+03  0.00000000000E+00 0.  1.
         13    1    4    4    0    0  0.62565149159E+03  0.20229704987E+03  0.51870414340E+01  0.65756429486E+03  0.10566000000E+00 0. -1.
         -4    1    4    4    0  502 -0.34131032339E+03 -0.92817793092E+02 -0.28220247848E+03  0.45248880475E+03  0.00000000000E+00 0. -1.
<mgrwt>
<rscale>  2 0.10665446E+04</rscale>
<asrwt>0</asrwt>
<pdfrwt beam="1">  1       21 0.12255393E+00 0.10749327E+04</pdfrwt>
<pdfrwt beam="2">  1       21 0.21652083E+00 0.10749327E+04</pdfrwt>
<totfact> 0.24286519E+01</totfact>
</mgrwt>
</event>
<event>
 8    1  0.5815007E-006  0.1034029E+04  0.7818608E-02  0.8750780E-01
         21   -1    0    0  503  502  0.00000000000E+00  0.00000000000E+00  0.43733525735E+03  0.43733525735E+03  0.00000000000E+00 0. -1.
         21   -1    0    0  501  503 -0.00000000000E+00 -0.00000000000E+00 -0.24027920272E+04  0.24027920272E+04  0.00000000000E+00 0. -1.
    9000010    2    1    2  501    0 -0.19964947508E+03 -0.15380100090E+03 -0.11692886124E+04  0.15609139409E+04  0.10028468533E+04 0.  0.
   -9000010    2    1    2    0  502  0.19964947508E+03  0.15380100090E+03 -0.79616815744E+03  0.12792133436E+04  0.96901412928E+03 0.  0.
        -13    1    3    3    0    0 -0.39624578607E+03 -0.23672870138E+03 -0.10226762289E+03  0.47276831418E+03  0.10566000000E+00 0.  1.
          4    1    3    3  501    0  0.19659631099E+03  0.82927700486E+02 -0.10670209895E+04  0.10881456268E+04  0.00000000000E+00 0.  1.
         13    1    4    4    0    0 -0.66409021724E+02  0.45590413494E+03 -0.74148206161E+03  0.87295727116E+03  0.10566000000E+00 0. -1.
         -4    1    4    4    0  502  0.26605849680E+03 -0.30210313404E+03 -0.54686095831E+02  0.40625607244E+03  0.00000000000E+00 0. -1.
<mgrwt>
<rscale>  2 0.10257354E+04</rscale>
<asrwt>0</asrwt>
<pdfrwt beam="1">  1       21 0.67282348E-01 0.10340292E+04</pdfrwt>
<pdfrwt beam="2">  1       21 0.36966031E+00 0.10340292E+04</pdfrwt>
<totfact> 0.91261573E+00</totfact>
</mgrwt>
</event>
<event>
 8    1  0.5815007E-006  0.1023493E+04  0.7818608E-02  0.8755008E-01
         21   -1    0    0  501  502  0.00000000000E+00  0.00000000000E+00  0.56900281426E+03  0.56900281426E+03  0.00000000000E+00 0.  1.
         21   -1    0    0  502  503 -0.00000000000E+00 -0.00000000000E+00 -0.18243012642E+04  0.18243012642E+04  0.00000000000E+00 0.  1.
   -9000010    2    1    2    0  503 -0.48041885400E+02 -0.19160302809E+03 -0.61387380464E+03  0.11934733172E+04  0.10042498532E+04 0.  0.
    9000010    2    1    2  501    0  0.48041885400E+02  0.19160302809E+03 -0.64142464530E+03  0.11998307613E+04  0.99455946878E+03 0.  0.
        -13    1    4    4    0    0 -0.14109606667E+03 -0.38323614677E+03 -0.27595819383E+03  0.49288028986E+03  0.10566000000E+00 0.  1.
          4    1    4    4  501    0  0.18913795207E+03  0.57483917486E+03 -0.36546645147E+03  0.70695047141E+03  0.00000000000E+00 0.  1.
         13    1    3    3    0    0 -0.46818254010E+03 -0.20723078622E+03 -0.57703235542E+03  0.77143103384E+03  0.10566000000E+00 0. -1.
         -4    1    3    3    0  503  0.42014065470E+03  0.15627758129E+02 -0.36841449219E+02  0.42204228335E+03  0.00000000000E+00 0. -1.
<mgrwt>
<rscale>  2 0.10211079E+04</rscale>
<asrwt>0</asrwt>
<pdfrwt beam="1">  1       21 0.87538894E-01 0.10234928E+04</pdfrwt>
<pdfrwt beam="2">  1       21 0.28066173E+00 0.10234928E+04</pdfrwt>
<totfact> 0.20429593E+01</totfact>
</mgrwt>
</event>
<event>
 8    1  0.5815007E-006  0.1407568E+04  0.7818608E-02  0.8465430E-01
         21   -1    0    0  503  502  0.00000000000E+00  0.00000000000E+00  0.19247151029E+04  0.19247151029E+04  0.00000000000E+00 0. -1.
         21   -1    0    0  501  503 -0.00000000000E+00 -0.00000000000E+00 -0.11426040853E+04  0.11426040853E+04  0.00000000000E+00 0.  1.
    9000010    2    1    2  501    0  0.29659008537E+03 -0.94483519498E+03 -0.97835163808E+02  0.14109636573E+04  0.10002837090E+04 0.  0.
   -9000010    2    1    2    0  502 -0.29659008537E+03  0.94483519498E+03  0.87994618136E+03  0.16563555309E+04  0.99424802659E+03 0.  0.
        -13    1    3    3    0    0  0.29201346032E+03 -0.10702489446E+04  0.16321584294E+03  0.11213135542E+04  0.10566000000E+00 0.  1.
          4    1    3    3  501    0  0.45766250540E+01  0.12541374957E+03 -0.26105100675E+03  0.28965010306E+03  0.00000000000E+00 0.  1.
         13    1    4    4    0    0 -0.60369693716E+03  0.89266725351E+03  0.57950653143E+03  0.12235737201E+04  0.10566000000E+00 0. -1.
         -4    1    4    4    0  502  0.30710685179E+03  0.52167941468E+02  0.30043964993E+03  0.43278181083E+03  0.00000000000E+00 0. -1.
<mgrwt>
<rscale>  2 0.14064957E+04</rscale>
<asrwt>0</asrwt>
<pdfrwt beam="1">  1       21 0.29611002E+00 0.14075677E+04</pdfrwt>
<pdfrwt beam="2">  1       21 0.17578524E+00 0.14075677E+04</pdfrwt>
<totfact> 0.19779966E+00</totfact>
</mgrwt>
</event>
<event>
 8    1  0.5815007E-006  0.1110206E+04  0.7818608E-02  0.8678701E-01
         21   -1    0    0  501  502  0.00000000000E+00  0.00000000000E+00  0.16694329424E+04  0.16694329424E+04  0.00000000000E+00 0.  1.
         21   -1    0    0  502  503 -0.00000000000E+00 -0.00000000000E+00 -0.88578229803E+03  0.88578229803E+03  0.00000000000E+00 0.  1.
   -9000010    2    1    2    0  503  0.24792870960E+03 -0.41931074352E+03 -0.13571106866E+03  0.11184698526E+04  0.99763077958E+03 0.  0.
    9000010    2    1    2  501    0 -0.24792870960E+03  0.41931074352E+03  0.91936171308E+03  0.14367453879E+04  0.99081845230E+03 0.  0.
        -13    1    4    4    0    0  0.34297534641E+03  0.10654240523E+03  0.87749374947E+02  0.36970709532E+03  0.10566000000E+00 0.  1.
          4    1    4    4  501    0 -0.59090405602E+03  0.31276833829E+03  0.83161233813E+03  0.10670382926E+04  0.00000000000E+00 0.  1.
         13    1    3    3    0    0 -0.12586958271E+02 -0.37948022832E+03 -0.52527564732E+03  0.64813439350E+03  0.10566000000E+00 0. -1.
         -4    1    3    3    0  503  0.26051566787E+03 -0.39830515201E+02  0.38956457866E+03  0.47033545911E+03  0.00000000000E+00 0. -1.
<mgrwt>
<rscale>  2 0.11086734E+04</rscale>
<asrwt>0</asrwt>
<pdfrwt beam="1">  1       21 0.25683584E+00 0.11102060E+04</pdfrwt>
<pdfrwt beam="2">  1       21 0.13627420E+00 0.11102060E+04</pdfrwt>
<totfact> 0.89359820E+00</totfact>
</mgrwt>
</event>
<event>
 8    1  0.5815007E-006  0.1101164E+04  0.7818608E-02  0.8689711E-01
         21   -1    0    0  503  502  0.00000000000E+00  0.00000000000E+00  0.32252709499E+04  0.32252709499E+04  0.00000000000E+00 0.  1.
         21   -1    0    0  501  503 -0.00000000000E+00 -0.00000000000E+00 -0.36866654542E+03  0.36866654542E+03  0.00000000000E+00 0.  1.
    9000010    2    1    2  501    0 -0.29456399007E+03  0.26214378073E+03  0.13573978471E+04  0.17337808058E+04  0.10039819028E+04 0.  0.
   -9000010    2    1    2    0  502  0.29456399007E+03 -0.26214378073E+03  0.14992065574E+04  0.18601566895E+04  0.10281416740E+04 0.  0.
        -13    1    3    3    0    0 -0.65721517118E+03  0.26159213281E+03  0.79018067172E+03  0.10605412440E+04  0.10566000000E+00 0.  1.
          4    1    3    3  501    0  0.36265118112E+03  0.55164791067E+00  0.56721717535E+03  0.67323956174E+03  0.00000000000E+00 0.  1.
         13    1    4    4    0    0  0.58730411885E+03 -0.41420748518E+03  0.12673804211E+04  0.14569650345E+04  0.10566000000E+00 0. -1.
         -4    1    4    4    0  502 -0.29274012878E+03  0.15206370445E+03  0.23182613628E+03  0.40319165502E+03  0.00000000000E+00 0. -1.
<mgrwt>
<rscale>  2 0.10954898E+04</rscale>
<asrwt>0</asrwt>
<pdfrwt beam="1">  1       21 0.49619551E+00 0.11011642E+04</pdfrwt>
<pdfrwt beam="2">  1       21 0.56717932E-01 0.11011642E+04</pdfrwt>
<totfact> 0.17623425E+00</totfact>
</mgrwt>
</event>
<event>
 8    1  0.5815007E-006  0.1080433E+04  0.7818608E-02  0.8711848E-01
         21   -1    0    0  503  502  0.00000000000E+00  0.00000000000E+00  0.13382713851E+04  0.13382713851E+04  0.00000000000E+00 0.  1.
         21   -1    0    0  501  503 -0.00000000000E+00 -0.00000000000E+00 -0.84493824308E+03  0.84493824308E+03  0.00000000000E+00 0.  1.
    9000010    2    1    2  501    0 -0.26551631079E+03  0.45501773348E+02  0.14293422507E+03  0.10473775905E+04  0.10019981545E+04 0.  0.
   -9000010    2    1    2    0  502  0.26551631079E+03 -0.45501773348E+02  0.35039891692E+03  0.11358320377E+04  0.10463105152E+04 0.  0.
        -13    1    3    3    0    0 -0.73292950900E+02 -0.12289196027E+03 -0.41215580071E+03  0.43628741190E+03  0.10566000000E+00 0.  1.
          4    1    3    3  501    0 -0.19222335989E+03  0.16839373362E+03  0.55509002578E+03  0.61109017856E+03  0.00000000000E+00 0.  1.
         13    1    4    4    0    0  0.50223670976E+03  0.32984332149E+03  0.34329354312E+03  0.69201791688E+03  0.10566000000E+00 0. -1.
         -4    1    4    4    0  502 -0.23672039897E+03 -0.37534509484E+03  0.71053737983E+01  0.44381412082E+03  0.00000000000E+00 0. -1.
<mgrwt>
<rscale>  2 0.10695561E+04</rscale>
<asrwt>0</asrwt>
<pdfrwt beam="1">  1       21 0.20588791E+00 0.10804328E+04</pdfrwt>
<pdfrwt beam="2">  1       21 0.12999050E+00 0.10804328E+04</pdfrwt>
<totfact> 0.24721305E+01</totfact>
</mgrwt>
</event>
<event>
 8    1  0.5815007E-006  0.1165324E+04  0.7818608E-02  0.8635427E-01
         21   -1    0    0  503  502  0.00000000000E+00  0.00000000000E+00  0.17381304727E+04  0.17381304727E+04  0.00000000000E+00 0. -1.
         21   -1    0    0  501  503 -0.00000000000E+00 -0.00000000000E+00 -0.12108553125E+04  0.12108553125E+04  0.00000000000E+00 0.  1.
    9000010    2    1    2  501    0  0.47632645713E+03  0.34850725457E+03 -0.62337123780E+03  0.13113146429E+04  0.99126696318E+03 0.  0.
   -9000010    2    1    2    0  502 -0.47632645713E+03 -0.34850725457E+03  0.11506463980E+04  0.16376711423E+04  0.10048061689E+04 0.  0.
        -13    1    3    3    0    0 -0.18725961106E+03  0.57052787250E+02  0.15356740446E+03  0.24880542869E+03  0.10566000000E+00 0.  1.
          4    1    3    3  501    0  0.66358606820E+03  0.29145446732E+03 -0.77693864226E+03  0.10625092142E+04  0.00000000000E+00 0.  1.
         13    1    4    4    0    0 -0.69489093126E+01 -0.61673781921E+03  0.70784980345E+03  0.93886377094E+03  0.10566000000E+00 0. -1.
         -4    1    4    4    0  502 -0.46937754782E+03  0.26823056463E+03  0.44279659451E+03  0.69880737139E+03  0.00000000000E+00 0. -1.
<mgrwt>
<rscale>  2 0.11623994E+04</rscale>
<asrwt>0</asrwt>
<pdfrwt beam="1">  1       21 0.26740469E+00 0.11653238E+04</pdfrwt>
<pdfrwt beam="2">  1       21 0.18628543E+00 0.11653238E+04</pdfrwt>
<totfact> 0.27347710E+00</totfact>
</mgrwt>
</event>
<event>
 8    1  0.5815007E-006  0.1227137E+04  0.7818608E-02  0.8588036E-01
         21   -1    0    0  501  502  0.00000000000E+00  0.00000000000E+00  0.14559923970E+04  0.14559923970E+04  0.00000000000E+00 0.  1.
         21   -1    0    0  502  503 -0.00000000000E+00 -0.00000000000E+00 -0.10492060423E+04  0.10492060423E+04  0.00000000000E+00 0. -1.
   -9000010    2    1    2    0  503 -0.32487831128E+02  0.71979255399E+03  0.19562022200E+02  0.12184166784E+04  0.98234400772E+03 0.  0.
    9000010    2    1    2  501    0  0.32487831128E+02 -0.71979255399E+03  0.38722433249E+03  0.12867817609E+04  0.99333168504E+03 0.  0.
        -13    1    4    4    0    0 -0.39064666387E+03 -0.64013924153E+03  0.72428661446E+02  0.75341156528E+03  0.10566000000E+00 0.  1.
          4    1    4    4  501    0  0.42313449499E+03 -0.79653312460E+02  0.31479567104E+03  0.53337019559E+03  0.00000000000E+00 0.  1.
         13    1    3    3    0    0  0.25587295171E+03  0.32181212155E+03 -0.39896200164E+03  0.57289152456E+03  0.10566000000E+00 0. -1.
         -4    1    3    3    0  503 -0.28836078283E+03  0.39798043244E+03  0.41852402384E+03  0.64552515382E+03  0.00000000000E+00 0. -1.
<mgrwt>
<rscale>  2 0.12249114E+04</rscale>
<asrwt>0</asrwt>
<pdfrwt beam="1">  1       21 0.22399883E+00 0.12271368E+04</pdfrwt>
<pdfrwt beam="2">  1       21 0.16141631E+00 0.12271368E+04</pdfrwt>
<totfact> 0.90395940E+00</totfact>
</mgrwt>
</event>
<event>
 8    1  0.5815007E-006  0.1278936E+04  0.7818608E-02  0.8556850E-01
         21   -1    0    0  501  502  0.00000000000E+00  0.00000000000E+00  0.13333563825E+04  0.13333563825E+04  0.00000000000E+00 0. -1.
         21   -1    0    0  502  503 -0.00000000000E+00 -0.00000000000E+00 -0.18522270065E+04  0.18522270065E+04  0.00000000000E+00 0. -1.
   -9000010    2    1    2    0  503 -0.70190073759E+03 -0.17421772690E+03 -0.12113458379E+04  0.17312112734E+04  0.10033530149E+04 0.  0.
    9000010    2    1    2  501    0  0.70190073759E+03  0.17421772690E+03  0.69247521395E+03  0.14543721156E+04  0.10548269369E+04 0.  0.
        -13    1    4    4    0    0  0.14705110802E+03 -0.29523419531E+03  0.64691173003E+03  0.72614189802E+03  0.10566000000E+00 0.  1.
          4    1    4    4  501    0  0.55484962957E+03  0.46945192220E+03  0.45563483922E+02  0.72823021756E+03  0.00000000000E+00 0.  1.
         13    1    3    3    0    0 -0.54943517523E+02  0.90101293069E+02 -0.99362513676E+03  0.99921366919E+03  0.10566000000E+00 0. -1.
         -4    1    3    3    0  503 -0.64695722007E+03 -0.26431901997E+03 -0.21772070113E+03  0.73199760424E+03  0.00000000000E+00 0. -1.
<mgrwt>
<rscale>  2 0.12682752E+04</rscale>
<asrwt>0</asrwt>
<pdfrwt beam="1">  1       21 0.20513175E+00 0.12789356E+04</pdfrwt>
<pdfrwt beam="2">  1       21 0.28495800E+00 0.12789356E+04</pdfrwt>
<totfact> 0.14178736E+00</totfact>
</mgrwt>
</event>
<event>
 8    1  0.5815007E-006  0.1080024E+04  0.7818608E-02  0.8708387E-01
         21   -1    0    0  503  502  0.00000000000E+00  0.00000000000E+00  0.10037039725E+04  0.10037039725E+04  0.00000000000E+00 0. -1.
         21   -1    0    0  501  503 -0.00000000000E+00 -0.00000000000E+00 -0.11579710755E+04  0.11579710755E+04  0.00000000000E+00 0. -1.
    9000010    2    1    2  501    0  0.29032119438E+02  0.34859851731E+03  0.75027452523E+02  0.10826270493E+04  0.10218064489E+04 0.  0.
   -9000010    2    1    2    0  502 -0.29032119438E+02 -0.34859851731E+03 -0.22929455549E+03  0.10790479987E+04  0.99468829291E+03 0.  0.
        -13    1    3    3    0    0 -0.28893230293E+03 -0.11794180847E+03  0.33779153873E+03  0.45988616055E+03  0.10566000000E+00 0.  1.
          4    1    3    3  501    0  0.31796442237E+03  0.46654032578E+03 -0.26276408621E+03  0.62274088872E+03  0.00000000000E+00 0.  1.
         13    1    4    4    0    0 -0.44044310736E+03 -0.34607905241E+03  0.77982375899E+02  0.56554584558E+03  0.10566000000E+00 0. -1.
         -4    1    4    4    0  502  0.41141098792E+03 -0.25194649025E+01 -0.30727693139E+03  0.51350215311E+03  0.00000000000E+00 0. -1.
<mgrwt>
<rscale>  2 0.10735614E+04</rscale>
<asrwt>0</asrwt>
<pdfrwt beam="1">  1       21 0.15441600E+00 0.10800242E+04</pdfrwt>
<pdfrwt beam="2">  1       21 0.17814940E+00 0.10800242E+04</pdfrwt>
<totfact> 0.24489080E+01</totfact>
</mgrwt>
</event>
<event>
 8    1  0.5815007E-006  0.1062612E+04  0.7818608E-02  0.8726506E-01
         21   -1    0    0  503  502  0.00000000000E+00  0.00000000000E+00  0.17044020801E+04  0.17044020801E+04  0.00000000000E+00 0. -1.
         21   -1    0    0  501  503 -0.00000000000E+00 -0.00000000000E+00 -0.64929114859E+03  0.64929114859E+03  0.00000000000E+00 0. -1.
    9000010    2    1    2  501    0 -0.23333121538E+03  0.18619384633E+03  0.38594901784E+03  0.11305313967E+04  0.10198200773E+04 0.  0.
   -9000010    2    1    2    0  502  0.23333121538E+03 -0.18619384633E+03  0.66916191364E+03  0.12231618320E+04  0.97940573615E+03 0.  0.
        -13    1    3    3    0    0 -0.52147897601E+03 -0.16541485630E+03  0.20863320012E+02  0.54748304667E+03  0.10566000000E+00 0.  1.
          4    1    3    3  501    0  0.28814776063E+03  0.35160870263E+03  0.36508569783E+03  0.58304835004E+03  0.00000000000E+00 0.  1.
         13    1    4    4    0    0  0.49878220149E+03  0.18845747828E+03  0.50824014332E+03  0.73661927758E+03  0.10566000000E+00 0. -1.
         -4    1    4    4    0  502 -0.26545098611E+03 -0.37465132461E+03  0.16092177031E+03  0.48654255438E+03  0.00000000000E+00 0. -1.
<mgrwt>
<rscale>  2 0.10527960E+04</rscale>
<asrwt>0</asrwt>
<pdfrwt beam="1">  1       21 0.26221570E+00 0.10626122E+04</pdfrwt>
<pdfrwt beam="2">  1       21 0.99890947E-01 0.10626122E+04</pdfrwt>
<totfact> 0.19551376E+01</totfact>
</mgrwt>
</event>
<event>
 8    1  0.5815007E-006  0.1143197E+04  0.7818608E-02  0.8652519E-01
         21   -1    0    0  501  502  0.00000000000E+00  0.00000000000E+00  0.81783527767E+03  0.81783527767E+03  0.00000000000E+00 0.  1.
         21   -1    0    0  502  503 -0.00000000000E+00 -0.00000000000E+00 -0.15858218044E+04  0.15858218044E+04  0.00000000000E+00 0.  1.
   -9000010    2    1    2    0  503 -0.37720076097E+03 -0.39882046188E+03 -0.41732331203E+03  0.12169873117E+04  0.10027767425E+04 0.  0.
    9000010    2    1    2  501    0  0.37720076097E+03  0.39882046188E+03 -0.35066321471E+03  0.11866697703E+04  0.99190840241E+03 0.  0.
        -13    1    4    4    0    0 -0.18904966404E+03 -0.67373763910E+02  0.18929520586E+03  0.27588346392E+03  0.10566000000E+00 0.  1.
          4    1    4    4  501    0  0.56625042501E+03  0.46619422580E+03 -0.53995842057E+03  0.91078630641E+03  0.00000000000E+00 0.  1.
         13    1    3    3    0    0 -0.30201979733E+03 -0.63085730846E+03 -0.59252762824E+03  0.91667109860E+03  0.10566000000E+00 0. -1.
         -4    1    3    3    0  503 -0.75180963647E+02  0.23203684657E+03  0.17520431621E+03  0.30031621315E+03  0.00000000000E+00 0. -1.
<mgrwt>
<rscale>  2 0.11408092E+04</rscale>
<asrwt>0</asrwt>
<pdfrwt beam="1">  1       21 0.12582081E+00 0.11431970E+04</pdfrwt>
<pdfrwt beam="2">  1       21 0.24397258E+00 0.11431970E+04</pdfrwt>
<totfact> 0.13876096E+01</totfact>
</mgrwt>
</event>
<event>
 8    1  0.5815007E-006  0.1086555E+04  0.7818608E-02  0.8697995E-01
         21   -1    0    0  503  502  0.00000000000E+00  0.00000000000E+00  0.91993659410E+03  0.91993659410E+03  0.00000000000E+00 0. -1.
         21   -1    0    0  501  503 -0.00000000000E+00 -0.00000000000E+00 -0.13738885445E+04  0.13738885445E+04  0.00000000000E+00 0. -1.
    9000010    2    1    2  501    0 -0.12807970233E+03  0.39341898303E+03 -0.52757264529E+03  0.12047788899E+04  0.10009876978E+04 0.  0.
   -9000010    2    1    2    0  502  0.12807970233E+03 -0.39341898303E+03  0.73620694893E+02  0.10890462487E+04  0.10046983720E+04 0.  0.
        -13    1    3    3    0    0  0.19242220946E+03  0.28824129348E+03  0.20190092788E+03  0.40109019660E+03  0.10566000000E+00 0.  1.
          4    1    3    3  501    0 -0.32050191179E+03  0.10517768955E+03 -0.72947357317E+03  0.80368869334E+03  0.00000000000E+00 0.  1.
         13    1    4    4    0    0 -0.27301579230E+03 -0.47192815998E+03 -0.21777811296E+03  0.58709550217E+03  0.10566000000E+00 0. -1.
         -4    1    4    4    0  502  0.40109549463E+03  0.78509176949E+02  0.29139880785E+03  0.50195074648E+03  0.00000000000E+00 0. -1.
<mgrwt>
<rscale>  2 0.10856964E+04</rscale>
<asrwt>0</asrwt>
<pdfrwt beam="1">  1       21 0.14152871E+00 0.10865550E+04</pdfrwt>
<pdfrwt beam="2">  1       21 0.21136747E+00 0.10865550E+04</pdfrwt>
<totfact> 0.17442876E+01</totfact>
</mgrwt>
</event>
<event>
 8    1  0.5815007E-006  0.1050994E+04  0.7818608E-02  0.8731339E-01
         21   -1    0    0  503  502  0.00000000000E+00  0.00000000000E+00  0.10112655229E+04  0.10112655229E+04  0.00000000000E+00 0.  1.
         21   -1    0    0  501  503 -0.00000000000E+00 -0.00000000000E+00 -0.11474247502E+04  0.11474247502E+04  0.00000000000E+00 0.  1.
    9000010    2    1    2  501    0  0.16536031184E+02 -0.28274751121E+03 -0.33459385239E+03  0.10891275577E+04  0.99700862358E+03 0.  0.
   -9000010    2    1    2    0  502 -0.16536031184E+02  0.28274751121E+03  0.19843462503E+03  0.10695627154E+04  0.10121109160E+04 0.  0.
        -13    1    3    3    0    0 -0.52052854575E+02  0.29536907268E+03 -0.40364742966E+03  0.50287537960E+03  0.10566000000E+00 0.  1.
          4    1    3    3  501    0  0.68588885759E+02 -0.57811658388E+03  0.69053577272E+02  0.58625217812E+03  0.00000000000E+00 0.  1.
         13    1    4    4    0    0  0.21284065800E+03  0.40218909205E+03  0.49748405884E+03  0.67420146205E+03  0.10566000000E+00 0. -1.
         -4    1    4    4    0  502 -0.22937668918E+03 -0.11944158085E+03 -0.29904943381E+03  0.39536125333E+03  0.00000000000E+00 0. -1.
<mgrwt>
<rscale>  2 0.10473410E+04</rscale>
<asrwt>0</asrwt>
<pdfrwt beam="1">  1       21 0.15557931E+00 0.10509939E+04</pdfrwt>
<pdfrwt beam="2">  1       21 0.17652689E+00 0.10509939E+04</pdfrwt>
<totfact> 0.24824538E+01</totfact>
</mgrwt>
</event>
<event>
 8    1  0.5815007E-006  0.1059664E+04  0.7818608E-02  0.8731244E-01
         21   -1    0    0  501  502  0.00000000000E+00  0.00000000000E+00  0.14304687042E+04  0.14304687042E+04  0.00000000000E+00 0.  1.
         21   -1    0    0  502  503 -0.00000000000E+00 -0.00000000000E+00 -0.76597231234E+03  0.76597231234E+03  0.00000000000E+00 0.  1.
   -9000010    2    1    2    0  503  0.15002563828E+03  0.26094172005E+03  0.18027744512E+03  0.10748897404E+04  0.10160165960E+04 0.  0.
    9000010    2    1    2  501    0 -0.15002563828E+03 -0.26094172005E+03  0.48421894678E+03  0.11215512762E+04  0.96582141377E+03 0.  0.
        -13    1    4    4    0    0  0.22111754337E+03 -0.45372450865E+03  0.32245822812E+02  0.50576546144E+03  0.10566000000E+00 0.  1.
          4    1    4    4  501    0 -0.37114318165E+03  0.19278278860E+03  0.45197312397E+03  0.61578581476E+03  0.00000000000E+00 0.  1.
         13    1    3    3    0    0  0.12273878128E+03  0.64576261904E+03  0.20434150718E+03  0.68835283925E+03  0.10566000000E+00 0. -1.
         -4    1    3    3    0  503  0.27286856999E+02 -0.38482089899E+03 -0.24064062062E+02  0.38653690115E+03  0.00000000000E+00 0. -1.
<mgrwt>
<rscale>  2 0.10474477E+04</rscale>
<asrwt>0</asrwt>
<pdfrwt beam="1">  1       21 0.22007211E+00 0.10596641E+04</pdfrwt>
<pdfrwt beam="2">  1       21 0.11784189E+00 0.10596641E+04</pdfrwt>
<totfact> 0.25562990E+01</totfact>
</mgrwt>
</event>
<event>
 8    1  0.5815007E-006  0.1399925E+04  0.7818608E-02  0.8469782E-01
         21   -1    0    0  501  502  0.00000000000E+00  0.00000000000E+00  0.98736046877E+03  0.98736046877E+03  0.00000000000E+00 0.  1.
         21   -1    0    0  502  503 -0.00000000000E+00 -0.00000000000E+00 -0.19836921773E+04  0.19836921773E+04  0.00000000000E+00 0. -1.
   -9000010    2    1    2    0  503 -0.78655585230E+03  0.60268568916E+03 -0.53381393181E+03  0.14982479661E+04  0.98888295844E+03 0.  0.
    9000010    2    1    2  501    0  0.78655585230E+03 -0.60268568916E+03 -0.46251777675E+03  0.14728046800E+04  0.98657527985E+03 0.  0.
        -13    1    4    4    0    0  0.15298644811E+03 -0.38038376084E+03 -0.65641030226E+03  0.77393226764E+03  0.10566000000E+00 0.  1.
          4    1    4    4  501    0  0.63356940418E+03 -0.22230192832E+03  0.19389252552E+03  0.69887241232E+03  0.00000000000E+00 0.  1.
         13    1    3    3    0    0 -0.87917696108E+03  0.47944345013E+03 -0.73686893010E+03  0.12432996349E+04  0.10566000000E+00 0. -1.
         -4    1    3    3    0  503  0.92621108790E+02  0.12324223902E+03  0.20305499829E+03  0.25494833124E+03  0.00000000000E+00 0. -1.
<mgrwt>
<rscale>  2 0.13995174E+04</rscale>
<asrwt>0</asrwt>
<pdfrwt beam="1">  1       21 0.15190161E+00 0.13999249E+04</pdfrwt>
<pdfrwt beam="2">  1       21 0.30518341E+00 0.13999249E+04</pdfrwt>
<totfact> 0.27382997E+00</totfact>
</mgrwt>
</event>
<event>
 8    1  0.5815007E-006  0.1076105E+04  0.7818608E-02  0.8706373E-01
         21   -1    0    0  503  502  0.00000000000E+00  0.00000000000E+00  0.11643277889E+04  0.11643277889E+04  0.00000000000E+00 0.  1.
         21   -1    0    0  501  503 -0.00000000000E+00 -0.00000000000E+00 -0.10007705160E+04  0.10007705160E+04  0.00000000000E+00 0.  1.
    9000010    2    1    2  501    0 -0.10304330408E+03  0.36551038763E+03  0.17202962736E+03  0.10889601115E+04  0.10059941181E+04 0.  0.
   -9000010    2    1    2    0  502  0.10304330408E+03 -0.36551038763E+03 -0.84723544372E+01  0.10761381935E+04  0.10068693384E+04 0.  0.
        -13    1    3    3    0    0  0.74825006626E+02  0.56564439944E+03 -0.22227603304E+03  0.61233897006E+03  0.10566000000E+00 0.  1.
          4    1    3    3  501    0 -0.17786831071E+03 -0.20013401180E+03  0.39430566040E+03  0.47662114143E+03  0.00000000000E+00 0.  1.
         13    1    4    4    0    0 -0.25527048540E+02  0.23992695854E+03  0.29967361825E+03  0.38473479734E+03  0.10566000000E+00 0. -1.
         -4    1    4    4    0  502  0.12857035262E+03 -0.60543734617E+03 -0.30814597269E+03  0.69140339614E+03  0.00000000000E+00 0. -1.
<mgrwt>
<rscale>  2 0.10759001E+04</rscale>
<asrwt>0</asrwt>
<pdfrwt beam="1">  1       21 0.17912735E+00 0.10761048E+04</pdfrwt>
<pdfrwt beam="2">  1       21 0.15396470E+00 0.10761048E+04</pdfrwt>
<totfact> 0.24282874E+01</totfact>
</mgrwt>
</event>
<event>
 8    1  0.5815007E-006  0.1194663E+04  0.7818608E-02  0.8612093E-01
         21   -1    0    0  501  502  0.00000000000E+00  0.00000000000E+00  0.14265097072E+04  0.14265097072E+04  0.00000000000E+00 0. -1.
         21   -1    0    0  502  503 -0.00000000000E+00 -0.00000000000E+00 -0.10826292791E+04  0.10826292791E+04  0.00000000000E+00 0.  1.
   -9000010    2    1    2    0  503  0.53977622440E+03  0.33179838281E+03 -0.18775605826E+03  0.12015244215E+04  0.10034739950E+04 0.  0.
    9000010    2    1    2  501    0 -0.53977622440E+03 -0.33179838281E+03  0.53163648635E+03  0.13076145648E+04  0.10128030200E+04 0.  0.
        -13    1    4    4    0    0 -0.32451083542E+03  0.33656732720E+03  0.84351941868E+02  0.47507905585E+03  0.10566000000E+00 0.  1.
          4    1    4    4  501    0 -0.21526538897E+03 -0.66836571001E+03  0.44728454449E+03  0.83253550900E+03  0.00000000000E+00 0.  1.
         13    1    3    3    0    0 -0.79018691164E+02 -0.88040953809E+02 -0.40572960579E+03  0.42262475942E+03  0.10566000000E+00 0. -1.
         -4    1    3    3    0  503  0.61879491556E+03  0.41983933661E+03  0.21797354753E+03  0.77889966203E+03  0.00000000000E+00 0. -1.
<mgrwt>
<rscale>  2 0.11926829E+04</rscale>
<asrwt>0</asrwt>
<pdfrwt beam="1">  1       21 0.21946303E+00 0.11946625E+04</pdfrwt>
<pdfrwt beam="2">  1       21 0.16655835E+00 0.11946625E+04</pdfrwt>
<totfact> 0.88975743E+00</totfact>
</mgrwt>
</event>
<event>
 8    1  0.5815007E-006  0.1126355E+04  0.7818608E-02  0.8669461E-01
         21   -1    0    0  503  502  0.00000000000E+00  0.00000000000E+00  0.89300189587E+03  0.89300189587E+03  0.00000000000E+00 0.  1.
         21   -1    0    0  501  503 -0.00000000000E+00 -0.00000000000E+00 -0.15596339005E+04  0.15596339005E+04  0.00000000000E+00 0.  1.
    9000010    2    1    2  501    0  0.45210230400E+03 -0.15105146924E+03 -0.73607075760E+03  0.13241422908E+04  0.99213890487E+03 0.  0.
   -9000010    2    1    2    0  502 -0.45210230400E+03  0.15105146924E+03  0.69438753001E+02  0.11284935055E+04  0.10205208532E+04 0.  0.
        -13    1    3    3    0    0  0.52912303335E+02 -0.29790116903E+03 -0.83441502866E+03  0.88757719076E+03  0.10566000000E+00 0.  1.
          4    1    3    3  501    0  0.39919000066E+03  0.14684969979E+03  0.98344271059E+02  0.43656510008E+03  0.00000000000E+00 0.  1.
         13    1    4    4    0    0  0.61580758911E+02  0.16302245729E+03 -0.39761142261E+03  0.43412367593E+03  0.10566000000E+00 0. -1.
         -4    1    4    4    0  502 -0.51368306291E+03 -0.11970988045E+02  0.46705017561E+03  0.69436982957E+03  0.00000000000E+00 0. -1.
<mgrwt>
<rscale>  2 0.11198872E+04</rscale>
<asrwt>0</asrwt>
<pdfrwt beam="1">  1       21 0.13738491E+00 0.11263551E+04</pdfrwt>
<pdfrwt beam="2">  1       21 0.23994367E+00 0.11263551E+04</pdfrwt>
<totfact> 0.11543596E+01</totfact>
</mgrwt>
</event>
<event>
 8    1  0.5815007E-006  0.1400241E+04  0.7818608E-02  0.8478657E-01
         21   -1    0    0  503  502  0.00000000000E+00  0.00000000000E+00  0.24089020543E+04  0.24089020543E+04  0.00000000000E+00 0. -1.
         21   -1    0    0  501  503 -0.00000000000E+00 -0.00000000000E+00 -0.83558707137E+03  0.83558707137E+03  0.00000000000E+00 0. -1.
    9000010    2    1    2  501    0  0.35620224198E+03 -0.90794384837E+03  0.38529887677E+03  0.14522844921E+04  0.10047054059E+04 0.  0.
   -9000010    2    1    2    0  502 -0.35620224198E+03  0.90794384837E+03  0.11880161062E+04  0.17922046336E+04  0.92161440478E+03 0.  0.
        -13    1    3    3    0    0 -0.10765192866E+03 -0.63435914072E+03 -0.18341216528E+03  0.66905940745E+03  0.10566000000E+00 0.  1.
          4    1    3    3  501    0  0.46385417064E+03 -0.27358470766E+03  0.56871104206E+03  0.78322508466E+03  0.00000000000E+00 0.  1.
         13    1    4    4    0    0 -0.29474742024E+03  0.21635636152E+03 -0.53702520600E+02  0.36955390512E+03  0.10566000000E+00 0. -1.
         -4    1    4    4    0  502 -0.61454821742E+02  0.69158748685E+03  0.12417186268E+04  0.14226507285E+04  0.00000000000E+00 0. -1.
<mgrwt>
<rscale>  2 0.13854145E+04</rscale>
<asrwt>0</asrwt>
<pdfrwt beam="1">  1       21 0.37060031E+00 0.14002411E+04</pdfrwt>
<pdfrwt beam="2">  1       21 0.12855186E+00 0.14002411E+04</pdfrwt>
<totfact> 0.15669966E+00</totfact>
</mgrwt>
</event>
<event>
 8    1  0.5815007E-006  0.1037787E+04  0.7818608E-02  0.8785738E-01
         21   -1    0    0  503  502  0.00000000000E+00  0.00000000000E+00  0.88102330972E+03  0.88102330972E+03  0.00000000000E+00 0.  1.
         21   -1    0    0  501  503 -0.00000000000E+00 -0.00000000000E+00 -0.10557505301E+04  0.10557505301E+04  0.00000000000E+00 0.  1.
    9000010    2    1    2  501    0  0.15219155755E+03 -0.26071164572E+03  0.11075023076E+03  0.86043789806E+03  0.79809456231E+03 0.  0.
   -9000010    2    1    2    0  502 -0.15219155755E+03  0.26071164572E+03 -0.28547745111E+03  0.10763359417E+04  0.99290928688E+03 0.  0.
        -13    1    3    3    0    0  0.24500887937E+03 -0.99671999315E+02 -0.30578516595E+03  0.40431230169E+03  0.10566000000E+00 0.  1.
          4    1    3    3  501    0 -0.92817321821E+02 -0.16103964641E+03  0.41653539671E+03  0.45612559637E+03  0.00000000000E+00 0.  1.
         13    1    4    4    0    0  0.55595011390E+02 -0.65264169780E+02 -0.58253681819E+03  0.58881183146E+03  0.10566000000E+00 0. -1.
         -4    1    4    4    0  502 -0.20778656894E+03  0.32597581550E+03  0.29705936709E+03  0.48752411027E+03  0.00000000000E+00 0. -1.
<mgrwt>
<rscale>  2 0.98822107E+03</rscale>
<asrwt>0</asrwt>
<pdfrwt beam="1">  1       21 0.13554205E+00 0.10377869E+04</pdfrwt>
<pdfrwt beam="2">  1       21 0.16242316E+00 0.10377869E+04</pdfrwt>
<totfact> 0.49693167E+01</totfact>
</mgrwt>
</event>
<event>
 8    1  0.5815007E-006  0.1255511E+04  0.7818608E-02  0.8595421E-01
         21   -1    0    0  501  502  0.00000000000E+00  0.00000000000E+00  0.10254497006E+04  0.10254497006E+04  0.00000000000E+00 0. -1.
         21   -1    0    0  502  503 -0.00000000000E+00 -0.00000000000E+00 -0.13775347308E+04  0.13775347308E+04  0.00000000000E+00 0.  1.
   -9000010    2    1    2    0  503  0.34311687006E+02 -0.45213872282E+03 -0.66637153562E+01  0.11008228752E+04  0.10030752120E+04 0.  0.
    9000010    2    1    2  501    0 -0.34311687006E+02  0.45213872282E+03 -0.34542131486E+03  0.13021615563E+04  0.11707698823E+04 0.  0.
        -13    1    4    4    0    0  0.36308769583E+03 -0.14549537640E+03 -0.42789632540E+03  0.57973860995E+03  0.10566000000E+00 0.  1.
          4    1    4    4  501    0 -0.39739938284E+03  0.59763409922E+03  0.82475010544E+02  0.72242294634E+03  0.00000000000E+00 0.  1.
         13    1    3    3    0    0 -0.35257746743E+03  0.86768430823E+02  0.18876467354E+03  0.40923311727E+03  0.10566000000E+00 0. -1.
         -4    1    3    3    0  503  0.38688915443E+03 -0.53890715364E+03 -0.19542838890E+03  0.69158975792E+03  0.00000000000E+00 0. -1.
<mgrwt>
<rscale>  2 0.12149065E+04</rscale>
<asrwt>0</asrwt>
<pdfrwt beam="1">  1       21 0.15776149E+00 0.12555114E+04</pdfrwt>
<pdfrwt beam="2">  1       21 0.21192842E+00 0.12555114E+04</pdfrwt>
<totfact> 0.11938642E+01</totfact>
</mgrwt>
</event>
<event>
 8    1  0.5815007E-006  0.1075828E+04  0.7818608E-02  0.8712671E-01
         21   -1    0    0  501  502  0.00000000000E+00  0.00000000000E+00  0.76497929477E+03  0.76497929477E+03  0.00000000000E+00 0. -1.
         21   -1    0    0  502  503 -0.00000000000E+00 -0.00000000000E+00 -0.15526255591E+04  0.15526255591E+04  0.00000000000E+00 0. -1.
   -9000010    2    1    2    0  503 -0.26493993993E+03  0.20402918603E+03 -0.12645580993E+03  0.10548384144E+04  0.99240713833E+03 0.  0.
    9000010    2    1    2  501    0  0.26493993993E+03 -0.20402918603E+03 -0.66119045440E+03  0.12627664394E+04  0.10225385973E+04 0.  0.
        -13    1    4    4    0    0 -0.15301798535E+03  0.10226503775E+03  0.19110193439E+03  0.26531604226E+03  0.10566000000E+00 0.  1.
          4    1    4    4  501    0  0.41795792529E+03 -0.30629422378E+03 -0.85229238879E+03  0.99745039717E+03  0.00000000000E+00 0.  1.
         13    1    3    3    0    0  0.93247282330E+02 -0.20610651144E+03  0.29108498285E+03  0.36865353399E+03  0.10566000000E+00 0. -1.
         -4    1    3    3    0  503 -0.35818722226E+03  0.41013569747E+03 -0.41754079278E+03  0.68618488046E+03  0.00000000000E+00 0. -1.
<mgrwt>
<rscale>  2 0.10686065E+04</rscale>
<asrwt>0</asrwt>
<pdfrwt beam="1">  1       21 0.11768912E+00 0.10758282E+04</pdfrwt>
<pdfrwt beam="2">  1       21 0.23886547E+00 0.10758282E+04</pdfrwt>
<totfact> 0.18523807E+01</totfact>
</mgrwt>
</event>
<event>
 8    1  0.5815007E-006  0.1118030E+04  0.7818608E-02  0.8673677E-01
         21   -1    0    0  503  502  0.00000000000E+00  0.00000000000E+00  0.20170584919E+04  0.20170584919E+04  0.00000000000E+00 0.  1.
         21   -1    0    0  501  503 -0.00000000000E+00 -0.00000000000E+00 -0.67208419172E+03  0.67208419172E+03  0.00000000000E+00 0.  1.
    9000010    2    1    2  501    0  0.41983749586E+03  0.23192386725E+03  0.26855106539E+03  0.11371512565E+04  0.99546024648E+03 0.  0.
   -9000010    2    1    2    0  502 -0.41983749586E+03 -0.23192386725E+03  0.10764232348E+04  0.15519914271E+04  0.10099199009E+04 0.  0.
        -13    1    3    3    0    0  0.53192626418E+03  0.25203655587E+03  0.56726263276E+03  0.81746858148E+03  0.10566000000E+00 0.  1.
          4    1    3    3  501    0 -0.11208876833E+03 -0.20112688624E+02 -0.29871156737E+03  0.31968267502E+03  0.00000000000E+00 0.  1.
         13    1    4    4    0    0 -0.36219184516E+03 -0.93130887138E+02 -0.82830203649E+02  0.38303674581E+03  0.10566000000E+00 0. -1.
         -4    1    4    4    0  502 -0.57645650691E+02 -0.13879298011E+03  0.11592534384E+04  0.11689546813E+04  0.00000000000E+00 0. -1.
<mgrwt>
<rscale>  2 0.11147543E+04</rscale>
<asrwt>0</asrwt>
<pdfrwt beam="1">  1       21 0.31031669E+00 0.11180297E+04</pdfrwt>
<pdfrwt beam="2">  1       21 0.10339757E+00 0.11180297E+04</pdfrwt>
<totfact> 0.80196546E+00</totfact>
</mgrwt>
</event>
<event>
 8    1  0.5815007E-006  0.1293862E+04  0.7818608E-02  0.8540579E-01
         21   -1    0    0  503  502  0.00000000000E+00  0.00000000000E+00  0.19873651835E+04  0.19873651835E+04  0.00000000000E+00 0. -1.
         21   -1    0    0  501  503 -0.00000000000E+00 -0.00000000000E+00 -0.93362860587E+03  0.93362860587E+03  0.00000000000E+00 0.  1.
    9000010    2    1    2  501    0  0.42949675966E+03  0.69975470173E+03  0.54381487823E+02  0.12861269333E+04  0.98845385997E+03 0.  0.
   -9000010    2    1    2    0  502 -0.42949675966E+03 -0.69975470173E+03  0.99935508986E+03  0.16348668561E+04  0.99997746590E+03 0.  0.
        -13    1    3    3    0    0  0.30503029585E+03 -0.13007609139E+03 -0.22612787482E+03  0.40136902953E+03  0.10566000000E+00 0.  1.
          4    1    3    3  501    0  0.12446646382E+03  0.82983079312E+03  0.28050936264E+03  0.88475790381E+03  0.00000000000E+00 0.  1.
         13    1    4    4    0    0 -0.38439575601E+03 -0.70322241999E+02 -0.66323517574E+02  0.39636363999E+03  0.10566000000E+00 0. -1.
         -4    1    4    4    0  502 -0.45101003649E+02 -0.62943245973E+03  0.10656786074E+04  0.12385032161E+04  0.00000000000E+00 0. -1.
<mgrwt>
<rscale>  2 0.12916350E+04</rscale>
<asrwt>0</asrwt>
<pdfrwt beam="1">  1       21 0.30574849E+00 0.12938621E+04</pdfrwt>
<pdfrwt beam="2">  1       21 0.14363517E+00 0.12938621E+04</pdfrwt>
<totfact> 0.32877525E+00</totfact>
</mgrwt>
</event>
<event>
 8    1  0.5815007E-006  0.1312741E+04  0.7818608E-02  0.8544565E-01
         21   -1    0    0  501  502  0.00000000000E+00  0.00000000000E+00  0.15266157151E+04  0.15266157151E+04  0.00000000000E+00 0. -1.
         21   -1    0    0  502  503 -0.00000000000E+00 -0.00000000000E+00 -0.10416501845E+04  0.10416501845E+04  0.00000000000E+00 0. -1.
   -9000010    2    1    2    0  503  0.25850365228E+03  0.63472702581E+03  0.26535696662E+03  0.12372825163E+04  0.99536484258E+03 0.  0.
    9000010    2    1    2  501    0 -0.25850365228E+03 -0.63472702581E+03  0.21960856397E+03  0.13309833834E+04  0.11196366866E+04 0.  0.
        -13    1    4    4    0    0  0.42337910168E+03 -0.38000245527E+03  0.19926506697E+03  0.60279209337E+03  0.10566000000E+00 0.  1.
          4    1    4    4  501    0 -0.68188275396E+03 -0.25472457054E+03  0.20343497006E+02  0.72819129002E+03  0.00000000000E+00 0.  1.
         13    1    3    3    0    0  0.13604131962E+03  0.73341950611E+03 -0.17798346951E+03  0.76686996236E+03  0.10566000000E+00 0. -1.
         -4    1    3    3    0  503  0.12246233267E+03 -0.98692480302E+02  0.44334043612E+03  0.47041255393E+03  0.00000000000E+00 0. -1.
<mgrwt>
<rscale>  2 0.12858646E+04</rscale>
<asrwt>0</asrwt>
<pdfrwt beam="1">  1       21 0.23486396E+00 0.13127410E+04</pdfrwt>
<pdfrwt beam="2">  1       21 0.16025387E+00 0.13127410E+04</pdfrwt>
<totfact> 0.75493784E+00</totfact>
</mgrwt>
</event>
<event>
 8    1  0.5815007E-006  0.1123585E+04  0.7818608E-02  0.8688901E-01
         21   -1    0    0  501  502  0.00000000000E+00  0.00000000000E+00  0.81777170248E+03  0.81777170248E+03  0.00000000000E+00 0.  1.
         21   -1    0    0  502  503 -0.00000000000E+00 -0.00000000000E+00 -0.14522898970E+04  0.14522898970E+04  0.00000000000E+00 0.  1.
   -9000010    2    1    2    0  503  0.35189090731E+03  0.32443510764E+03 -0.94088431111E+02  0.10232627997E+04  0.89951585571E+03 0.  0.
    9000010    2    1    2  501    0 -0.35189090731E+03 -0.32443510764E+03 -0.54042976341E+03  0.12467987998E+04  0.10165419658E+04 0.  0.
        -13    1    4    4    0    0 -0.40351299502E+02 -0.65027685987E+03 -0.19885363208E+03  0.68119820905E+03  0.10566000000E+00 0.  1.
          4    1    4    4  501    0 -0.31153960781E+03  0.32584175223E+03 -0.34157613133E+03  0.56560059072E+03  0.00000000000E+00 0.  1.
         13    1    3    3    0    0 -0.74072279623E+02  0.45511418217E+03  0.18575545807E+03  0.49711238447E+03  0.10566000000E+00 0. -1.
         -4    1    3    3    0  503  0.42596318693E+03 -0.13067907453E+03 -0.27984388918E+03  0.52615041524E+03  0.00000000000E+00 0. -1.
<mgrwt>
<rscale>  2 0.10964536E+04</rscale>
<asrwt>0</asrwt>
<pdfrwt beam="1">  1       21 0.12581103E+00 0.11235849E+04</pdfrwt>
<pdfrwt beam="2">  1       21 0.22342921E+00 0.11235849E+04</pdfrwt>
<totfact> 0.19786123E+01</totfact>
</mgrwt>
</event>
<event>
 8    1  0.5815007E-006  0.1258525E+04  0.7818608E-02  0.8566325E-01
         21   -1    0    0  501  502  0.00000000000E+00  0.00000000000E+00  0.19501825408E+04  0.19501825408E+04  0.00000000000E+00 0. -1.
         21   -1    0    0  502  503 -0.00000000000E+00 -0.00000000000E+00 -0.80498903775E+03  0.80498903775E+03  0.00000000000E+00 0.  1.
   -9000010    2    1    2    0  503  0.28913479006E+03 -0.68206523265E+03  0.63951621489E+03  0.13988545833E+04  0.99950049913E+03 0.  0.
    9000010    2    1    2  501    0 -0.28913479006E+03  0.68206523265E+03  0.50567728814E+03  0.13563169952E+04  0.10173860444E+04 0.  0.
        -13    1    4    4    0    0 -0.50111079797E+03  0.61791782333E+03 -0.94187611990E+01  0.79562754632E+03  0.10566000000E+00 0.  1.
          4    1    4    4  501    0  0.21197600790E+03  0.64147409312E+02  0.51509604934E+03  0.56068944889E+03  0.00000000000E+00 0.  1.
         13    1    3    3    0    0 -0.37552606628E+03 -0.25488052037E+03  0.22271485796E+03  0.50555496757E+03  0.10566000000E+00 0. -1.
         -4    1    3    3    0  503  0.66466085634E+03 -0.42718471227E+03  0.41680135693E+03  0.89329961575E+03  0.00000000000E+00 0. -1.
<mgrwt>
<rscale>  2 0.12549063E+04</rscale>
<asrwt>0</asrwt>
<pdfrwt beam="1">  1       21 0.30002808E+00 0.12585254E+04</pdfrwt>
<pdfrwt beam="2">  1       21 0.12384447E+00 0.12585254E+04</pdfrwt>
<totfact> 0.56145625E+00</totfact>
</mgrwt>
</event>
<event>
 8    1  0.5815007E-006  0.1007169E+04  0.7818608E-02  0.8790236E-01
         21   -1    0    0  501  502  0.00000000000E+00  0.00000000000E+00  0.49385017795E+03  0.49385017795E+03  0.00000000000E+00 0. -1.
         21   -1    0    0  502  503 -0.00000000000E+00 -0.00000000000E+00 -0.18727346533E+04  0.18727346533E+04  0.00000000000E+00 0. -1.
   -9000010    2    1    2    0  503  0.17317572089E+03  0.16936772788E+03 -0.68023582199E+03  0.11408197818E+04  0.88321783468E+03 0.  0.
    9000010    2    1    2  501    0 -0.17317572089E+03 -0.16936772788E+03 -0.69864865335E+03  0.12257650494E+04  0.97760664790E+03 0.  0.
        -13    1    4    4    0    0 -0.35872422950E+03 -0.41070780029E+03 -0.10034374111E+03  0.55446627273E+03  0.10566000000E+00 0.  1.
          4    1    4    4  501    0  0.18554850861E+03  0.24134007241E+03 -0.59830491223E+03  0.67129877670E+03  0.00000000000E+00 0.  1.
         13    1    3    3    0    0  0.25560013265E+03  0.49014671552E+03 -0.27487098474E+03  0.61735670399E+03  0.10566000000E+00 0. -1.
         -4    1    3    3    0  503 -0.82424411757E+02 -0.32077898764E+03 -0.40536483725E+03  0.52346307782E+03  0.00000000000E+00 0. -1.
<mgrwt>
<rscale>  2 0.98351472E+03</rscale>
<asrwt>0</asrwt>
<pdfrwt beam="1">  1       21 0.75976950E-01 0.10071693E+04</pdfrwt>
<pdfrwt beam="2">  1       21 0.28811302E+00 0.10071693E+04</pdfrwt>
<totfact> 0.25747528E+01</totfact>
</mgrwt>
</event>
<event>
 8    1  0.5815007E-006  0.1159072E+04  0.7818608E-02  0.8649622E-01
         21   -1    0    0  503  502  0.00000000000E+00  0.00000000000E+00  0.12757147030E+04  0.12757147030E+04  0.00000000000E+00 0.  1.
         21   -1    0    0  501  503 -0.00000000000E+00 -0.00000000000E+00 -0.10113926561E+04  0.10113926561E+04  0.00000000000E+00 0.  1.
    9000010    2    1    2  501    0 -0.47123248903E+03  0.32648753087E+03  0.24165771446E+03  0.11278133657E+04  0.94069674726E+03 0.  0.
   -9000010    2    1    2    0  502  0.47123248903E+03 -0.32648753087E+03  0.22664332400E+02  0.11592939934E+04  0.10073702024E+04 0.  0.
        -13    1    3    3    0    0 -0.74566183198E+03  0.35391264778E+03  0.16736088940E+03  0.84218490155E+03  0.10566000000E+00 0.  1.
          4    1    3    3  501    0  0.27442934295E+03 -0.27425116911E+02  0.74296825063E+02  0.28562846413E+03  0.00000000000E+00 0.  1.
         13    1    4    4    0    0  0.15112458792E+03 -0.60535335723E+03  0.25651800683E+03  0.67460568273E+03  0.10566000000E+00 0. -1.
         -4    1    4    4    0  502  0.32010790111E+03  0.27886582636E+03 -0.23385367443E+03  0.48468831068E+03  0.00000000000E+00 0. -1.
<mgrwt>
<rscale>  2 0.11444341E+04</rscale>
<asrwt>0</asrwt>
<pdfrwt beam="1">  1       21 0.19626380E+00 0.11590724E+04</pdfrwt>
<pdfrwt beam="2">  1       21 0.15559887E+00 0.11590724E+04</pdfrwt>
<totfact> 0.16819087E+01</totfact>
</mgrwt>
</event>
<event>
 8    1  0.5815007E-006  0.1167971E+04  0.7818608E-02  0.8645834E-01
         21   -1    0    0  501  502  0.00000000000E+00  0.00000000000E+00  0.15400448242E+04  0.15400448242E+04  0.00000000000E+00 0.  1.
         21   -1    0    0  502  503 -0.00000000000E+00 -0.00000000000E+00 -0.99818609235E+03  0.99818609235E+03  0.00000000000E+00 0.  1.
   -9000010    2    1    2    0  503  0.19638123922E+03  0.55100756749E+03 -0.24083143575E+03  0.11925422495E+04  0.10109314051E+04 0.  0.
    9000010    2    1    2  501    0 -0.19638123922E+03 -0.55100756749E+03  0.78269016760E+03  0.13456886671E+04  0.92525626707E+03 0.  0.
        -13    1    4    4    0    0 -0.97205329774E+02 -0.72345074563E+03  0.86374740699E+03  0.11308799458E+04  0.10566000000E+00 0.  1.
          4    1    4    4  501    0 -0.99175909441E+02  0.17244317815E+03 -0.81057239388E+02  0.21480872133E+03  0.00000000000E+00 0.  1.
         13    1    3    3    0    0  0.40879764117E+02  0.67588596067E+03 -0.51697245269E+03  0.85191168259E+03  0.10566000000E+00 0. -1.
         -4    1    3    3    0  503  0.15550147510E+03 -0.12487839318E+03  0.27614101694E+03  0.34063056686E+03  0.00000000000E+00 0. -1.
<mgrwt>
<rscale>  2 0.11491949E+04</rscale>
<asrwt>0</asrwt>
<pdfrwt beam="1">  1       21 0.23692997E+00 0.11679714E+04</pdfrwt>
<pdfrwt beam="2">  1       21 0.15356709E+00 0.11679714E+04</pdfrwt>
<totfact> 0.85828479E+00</totfact>
</mgrwt>
</event>
<event>
 8    1  0.5815007E-006  0.1480017E+04  0.7818608E-02  0.8422330E-01
         21   -1    0    0  503  502  0.00000000000E+00  0.00000000000E+00  0.11834411979E+04  0.11834411979E+04  0.00000000000E+00 0. -1.
         21   -1    0    0  501  503 -0.00000000000E+00 -0.00000000000E+00 -0.19682307437E+04  0.19682307437E+04  0.00000000000E+00 0. -1.
    9000010    2    1    2  501    0 -0.10518965390E+04 -0.21537228966E+03 -0.79505621771E+03  0.16800490330E+04  0.10186161260E+04 0.  0.
   -9000010    2    1    2    0  502  0.10518965390E+04  0.21537228966E+03  0.10266671967E+02  0.14716229086E+04  0.10063284894E+04 0.  0.
        -13    1    3    3    0    0 -0.21364018475E+03 -0.37693028765E+03 -0.69708936960E+03  0.82076316356E+03  0.10566000000E+00 0.  1.
          4    1    3    3  501    0 -0.83825635426E+03  0.16155799798E+03 -0.97966848110E+02  0.85928586948E+03  0.00000000000E+00 0.  1.
         13    1    4    4    0    0  0.95329100779E+03  0.40579766974E+03  0.32936859189E+03  0.10871610620E+04  0.10566000000E+00 0. -1.
         -4    1    4    4    0  502  0.98605531215E+02 -0.19042538008E+03 -0.31910191992E+03  0.38446184656E+03  0.00000000000E+00 0. -1.
<mgrwt>
<rscale>  2 0.14779050E+04</rscale>
<asrwt>0</asrwt>
<pdfrwt beam="1">  1       21 0.18206788E+00 0.14800170E+04</pdfrwt>
<pdfrwt beam="2">  1       21 0.30280473E+00 0.14800170E+04</pdfrwt>
<totfact> 0.15533617E+00</totfact>
</mgrwt>
</event>
<event>
 8    1  0.5815007E-006  0.1139730E+04  0.7818608E-02  0.8660364E-01
         21   -1    0    0  501  502  0.00000000000E+00  0.00000000000E+00  0.10418313724E+04  0.10418313724E+04  0.00000000000E+00 0. -1.
         21   -1    0    0  502  503 -0.00000000000E+00 -0.00000000000E+00 -0.12831048194E+04  0.12831048194E+04  0.00000000000E+00 0. -1.
   -9000010    2    1    2    0  503  0.23086215388E+03  0.42775005047E+03  0.15580580224E+03  0.11503307908E+04  0.10308821661E+04 0.  0.
    9000010    2    1    2  501    0 -0.23086215388E+03 -0.42775005047E+03 -0.39707924921E+03  0.11746054010E+04  0.99285370428E+03 0.  0.
        -13    1    4    4    0    0 -0.52201864954E+03 -0.57187311853E+03 -0.22169900179E+03  0.80541467129E+03  0.10566000000E+00 0.  1.
          4    1    4    4  501    0  0.29115649566E+03  0.14412306806E+03 -0.17538024742E+03  0.36919072970E+03  0.00000000000E+00 0.  1.
         13    1    3    3    0    0  0.63957320313E+03  0.28010074668E+03  0.34122211798E+02  0.69905267824E+03  0.10566000000E+00 0. -1.
         -4    1    3    3    0  503 -0.40871104925E+03  0.14764930379E+03  0.12168359044E+03  0.45127811256E+03  0.00000000000E+00 0. -1.
<mgrwt>
<rscale>  2 0.11310627E+04</rscale>
<asrwt>0</asrwt>
<pdfrwt beam="1">  1       21 0.16028175E+00 0.11397304E+04</pdfrwt>
<pdfrwt beam="2">  1       21 0.19740074E+00 0.11397304E+04</pdfrwt>
<totfact> 0.15060708E+01</totfact>
</mgrwt>
</event>
<event>
 8    1  0.5815007E-006  0.1163835E+04  0.7818608E-02  0.8656747E-01
         21   -1    0    0  503  502  0.00000000000E+00  0.00000000000E+00  0.81232537432E+03  0.81232537432E+03  0.00000000000E+00 0.  1.
         21   -1    0    0  501  503 -0.00000000000E+00 -0.00000000000E+00 -0.16084679267E+04  0.16084679267E+04  0.00000000000E+00 0.  1.
    9000010    2    1    2  501    0 -0.43115183364E+03  0.47683583726E+03 -0.67139955665E+03  0.12502921831E+04  0.83617513670E+03 0.  0.
   -9000010    2    1    2    0  502  0.43115183364E+03 -0.47683583726E+03 -0.12474299569E+03  0.11705011178E+04  0.97017922701E+03 0.  0.
        -13    1    3    3    0    0 -0.56116558035E+02  0.23552587577E+03  0.17148823081E+03  0.29669804636E+03  0.10566000000E+00 0.  1.
          4    1    3    3  501    0 -0.37503527560E+03  0.24130996148E+03 -0.84288778746E+03  0.95359413678E+03  0.00000000000E+00 0.  1.
         13    1    4    4    0    0  0.65221423328E+03 -0.16179979939E+02 -0.53482278552E+02  0.65460336321E+03  0.10566000000E+00 0. -1.
         -4    1    4    4    0  502 -0.22106239964E+03 -0.46065585732E+03 -0.71260717140E+02  0.51589775462E+03  0.00000000000E+00 0. -1.
<mgrwt>
<rscale>  2 0.11355436E+04</rscale>
<asrwt>0</asrwt>
<pdfrwt beam="1">  1       21 0.12497313E+00 0.11638351E+04</pdfrwt>
<pdfrwt beam="2">  1       21 0.24745661E+00 0.11638351E+04</pdfrwt>
<totfact> 0.13282759E+01</totfact>
</mgrwt>
</event>
<event>
 8    1  0.5815007E-006  0.1149595E+04  0.7818608E-02  0.8653158E-01
         21   -1    0    0  501  502  0.00000000000E+00  0.00000000000E+00  0.10631213949E+04  0.10631213949E+04  0.00000000000E+00 0.  1.
         21   -1    0    0  502  503 -0.00000000000E+00 -0.00000000000E+00 -0.12751974911E+04  0.12751974911E+04  0.00000000000E+00 0.  1.
   -9000010    2    1    2    0  503  0.74054071641E+02 -0.53045531186E+03 -0.38347340304E+03  0.11760171615E+04  0.97421643899E+03 0.  0.
    9000010    2    1    2  501    0 -0.74054071641E+02  0.53045531186E+03  0.17139730677E+03  0.11623017245E+04  0.10172027421E+04 0.  0.
        -13    1    4    4    0    0  0.69131034675E+02  0.72812492460E+03 -0.16198294042E+03  0.74912181247E+03  0.10566000000E+00 0.  1.
          4    1    4    4  501    0 -0.14318510632E+03 -0.19766961274E+03  0.33338024719E+03  0.41317991201E+03  0.00000000000E+00 0.  1.
         13    1    3    3    0    0 -0.69080466487E+02  0.16750147444E+03  0.18916183369E+03  0.26193713994E+03  0.10566000000E+00 0. -1.
         -4    1    3    3    0  503  0.14313453813E+03 -0.69795678630E+03 -0.57263523673E+03  0.91408002160E+03  0.00000000000E+00 0. -1.
<mgrwt>
<rscale>  2 0.11400118E+04</rscale>
<asrwt>0</asrwt>
<pdfrwt beam="1">  1       21 0.16355714E+00 0.11495948E+04</pdfrwt>
<pdfrwt beam="2">  1       21 0.19618423E+00 0.11495948E+04</pdfrwt>
<totfact> 0.14399491E+01</totfact>
</mgrwt>
</event>
<event>
 8    1  0.5815007E-006  0.1048477E+04  0.7818608E-02  0.8753061E-01
         21   -1    0    0  501  502  0.00000000000E+00  0.00000000000E+00  0.11921566331E+04  0.11921566331E+04  0.00000000000E+00 0. -1.
         21   -1    0    0  502  503 -0.00000000000E+00 -0.00000000000E+00 -0.83986715871E+03  0.83986715871E+03  0.00000000000E+00 0. -1.
   -9000010    2    1    2    0  503 -0.11825983253E+03 -0.29899111868E+03  0.14318749530E+03  0.10582091870E+04  0.99795939171E+03 0.  0.
    9000010    2    1    2  501    0  0.11825983253E+03  0.29899111868E+03  0.20910197908E+03  0.97381460485E+03  0.89510344091E+03 0.  0.
        -13    1    4    4    0    0 -0.31626227835E+03  0.20520950856E+03 -0.14658666099E+03  0.40450022429E+03  0.10566000000E+00 0.  1.
          4    1    4    4  501    0  0.43452211087E+03  0.93781610126E+02  0.35568864007E+03  0.56931438056E+03  0.00000000000E+00 0.  1.
         13    1    3    3    0    0 -0.54375086356E+03 -0.13046334031E+03  0.20671878838E+03  0.59616973541E+03  0.10566000000E+00 0. -1.
         -4    1    3    3    0  503  0.42549103103E+03 -0.16852777838E+03 -0.63531293081E+02  0.46203945154E+03  0.00000000000E+00 0. -1.
<mgrwt>
<rscale>  2 0.10232358E+04</rscale>
<asrwt>0</asrwt>
<pdfrwt beam="1">  1       21 0.18340871E+00 0.10484770E+04</pdfrwt>
<pdfrwt beam="2">  1       21 0.12921033E+00 0.10484770E+04</pdfrwt>
<totfact> 0.38120888E+01</totfact>
</mgrwt>
</event>
<event>
 8    1  0.5815007E-006  0.1095970E+04  0.7818608E-02  0.8692153E-01
         21   -1    0    0  503  502  0.00000000000E+00  0.00000000000E+00  0.19168154824E+04  0.19168154824E+04  0.00000000000E+00 0.  1.
         21   -1    0    0  501  503 -0.00000000000E+00 -0.00000000000E+00 -0.63657602876E+03  0.63657602876E+03  0.00000000000E+00 0.  1.
    9000010    2    1    2  501    0 -0.38277939678E+03  0.68865982091E+02  0.42396457346E+03  0.11625800919E+04  0.10102395362E+04 0.  0.
   -9000010    2    1    2    0  502  0.38277939678E+03 -0.68865982091E+02  0.85627488015E+03  0.13908114192E+04  0.10246400067E+04 0.  0.
        -13    1    3    3    0    0  0.16024034319E+03 -0.35640889645E+03  0.18760712066E+03  0.43347515723E+03  0.10566000000E+00 0.  1.
          4    1    3    3  501    0 -0.54301973997E+03  0.42527487854E+03  0.23635745280E+03  0.72910493470E+03  0.00000000000E+00 0.  1.
         13    1    4    4    0    0  0.16069597023E+03  0.21738848665E+03 -0.15844897884E+03  0.31334811158E+03  0.10566000000E+00 0. -1.
         -4    1    4    4    0  502  0.22208342655E+03 -0.28625446874E+03  0.10147238590E+04  0.10774633076E+04  0.00000000000E+00 0. -1.
<mgrwt>
<rscale>  2 0.10925914E+04</rscale>
<asrwt>0</asrwt>
<pdfrwt beam="1">  1       21 0.29489469E+00 0.10959698E+04</pdfrwt>
<pdfrwt beam="2">  1       21 0.97934775E-01 0.10959698E+04</pdfrwt>
<totfact> 0.11948577E+01</totfact>
</mgrwt>
</event>
<event>
 8    1  0.5815007E-006  0.1437688E+04  0.7818608E-02  0.8447362E-01
         21   -1    0    0  501  502  0.00000000000E+00  0.00000000000E+00  0.15800059626E+04  0.15800059626E+04  0.00000000000E+00 0. -1.
         21   -1    0    0  502  503 -0.00000000000E+00 -0.00000000000E+00 -0.13718321737E+04  0.13718321737E+04  0.00000000000E+00 0. -1.
   -9000010    2    1    2    0  503  0.58654930358E+03  0.81448029123E+03 -0.22923978887E+03  0.14558498193E+04  0.10293345352E+04 0.  0.
    9000010    2    1    2  501    0 -0.58654930358E+03 -0.81448029123E+03  0.43741357783E+03  0.14959883170E+04  0.10194273766E+04 0.  0.
        -13    1    4    4    0    0  0.16488330769E+03 -0.54952672562E+03  0.39795439138E+03  0.69823623231E+03  0.10566000000E+00 0.  1.
          4    1    4    4  501    0 -0.75143261127E+03 -0.26495356561E+03  0.39459186446E+02  0.79775208467E+03  0.00000000000E+00 0.  1.
         13    1    3    3    0    0  0.23953046877E+03  0.68629788787E+03  0.31953503188E+03  0.79402914564E+03  0.10566000000E+00 0. -1.
         -4    1    3    3    0  503  0.34701883481E+03  0.12818240336E+03 -0.54877482075E+03  0.66182067370E+03  0.00000000000E+00 0. -1.
<mgrwt>
<rscale>  2 0.14359160E+04</rscale>
<asrwt>0</asrwt>
<pdfrwt beam="1">  1       21 0.24307784E+00 0.14376884E+04</pdfrwt>
<pdfrwt beam="2">  1       21 0.21105111E+00 0.14376884E+04</pdfrwt>
<totfact> 0.24824105E+00</totfact>
</mgrwt>
</event>
<event>
 8    1  0.5815007E-006  0.1155140E+04  0.7818608E-02  0.8645435E-01
         21   -1    0    0  503  502  0.00000000000E+00  0.00000000000E+00  0.21858026431E+04  0.21858026431E+04  0.00000000000E+00 0.  1.
         21   -1    0    0  501  503 -0.00000000000E+00 -0.00000000000E+00 -0.62789809243E+03  0.62789809243E+03  0.00000000000E+00 0.  1.
    9000010    2    1    2  501    0  0.53824452103E+02 -0.58724246308E+03  0.47061391269E+03  0.12273368157E+04  0.96805341911E+03 0.  0.
   -9000010    2    1    2    0  502 -0.53824452103E+02  0.58724246308E+03  0.10872906380E+04  0.15863639199E+04  0.99327678554E+03 0.  0.
        -13    1    3    3    0    0  0.37952523254E+03 -0.20748361754E+02  0.42812951330E+03  0.57250745670E+03  0.10566000000E+00 0.  1.
          4    1    3    3  501    0 -0.32570078044E+03 -0.56649410132E+03  0.42484399389E+02  0.65482935899E+03  0.00000000000E+00 0.  1.
         13    1    4    4    0    0 -0.48073185125E+03  0.53760279948E+03  0.61519097790E+03  0.94793450896E+03  0.10566000000E+00 0. -1.
         -4    1    4    4    0  502  0.42690739915E+03  0.49639663598E+02  0.47209966011E+03  0.63842941092E+03  0.00000000000E+00 0. -1.
<mgrwt>
<rscale>  2 0.11496982E+04</rscale>
<asrwt>0</asrwt>
<pdfrwt beam="1">  1       21 0.33627733E+00 0.11551405E+04</pdfrwt>
<pdfrwt beam="2">  1       21 0.96599708E-01 0.11551405E+04</pdfrwt>
<totfact> 0.62474888E+00</totfact>
</mgrwt>
</event>
<event>
 8    1  0.5815007E-006  0.1131092E+04  0.7818608E-02  0.8676232E-01
         21   -1    0    0  501  502  0.00000000000E+00  0.00000000000E+00  0.15142703241E+04  0.15142703241E+04  0.00000000000E+00 0.  1.
         21   -1    0    0  502  503 -0.00000000000E+00 -0.00000000000E+00 -0.81150707729E+03  0.81150707729E+03  0.00000000000E+00 0.  1.
   -9000010    2    1    2    0  503 -0.31304815255E+03  0.13111864319E+02  0.17067946455E+03  0.11438974881E+04  0.10868297552E+04 0.  0.
    9000010    2    1    2  501    0  0.31304815255E+03 -0.13111864319E+02  0.53208378231E+03  0.11818799133E+04  0.10077479404E+04 0.  0.
        -13    1    4    4    0    0 -0.13111760208E+03 -0.30498087511E+03  0.55853380057E+03  0.64974239303E+03  0.10566000000E+00 0.  1.
          4    1    4    4  501    0  0.44416575464E+03  0.29186901079E+03 -0.26450018261E+02  0.53213752031E+03  0.00000000000E+00 0.  1.
         13    1    3    3    0    0 -0.31230308176E+03 -0.24065549388E+02 -0.43557411589E+03  0.53650460123E+03  0.10566000000E+00 0. -1.
         -4    1    3    3    0  503 -0.74507078951E+00  0.37177413706E+02  0.60625358044E+03  0.60739288686E+03  0.00000000000E+00 0. -1.
<mgrwt>
<rscale>  2 0.11116572E+04</rscale>
<asrwt>0</asrwt>
<pdfrwt beam="1">  1       21 0.23296466E+00 0.11310924E+04</pdfrwt>
<pdfrwt beam="2">  1       21 0.12484724E+00 0.11310924E+04</pdfrwt>
<totfact> 0.17143282E+01</totfact>
</mgrwt>
</event>
<event>
 8    1  0.5815007E-006  0.1171996E+04  0.7818608E-02  0.8628703E-01
         21   -1    0    0  501  502  0.00000000000E+00  0.00000000000E+00  0.12676720249E+04  0.12676720249E+04  0.00000000000E+00 0. -1.
         21   -1    0    0  502  503 -0.00000000000E+00 -0.00000000000E+00 -0.10864511436E+04  0.10864511436E+04  0.00000000000E+00 0. -1.
   -9000010    2    1    2    0  503  0.44044768122E+03 -0.42827986476E+03 -0.13552762378E+00  0.11719958151E+04  0.99807633461E+03 0.  0.
    9000010    2    1    2  501    0 -0.44044768122E+03  0.42827986476E+03  0.18135640895E+03  0.11821273534E+04  0.99353768435E+03 0.  0.
        -13    1    4    4    0    0 -0.88392085447E+02  0.61078487926E+03  0.39396914827E+03  0.73217691199E+03  0.10566000000E+00 0.  1.
          4    1    4    4  501    0 -0.35205559577E+03 -0.18250501450E+03 -0.21261273932E+03  0.44995044144E+03  0.00000000000E+00 0.  1.
         13    1    3    3    0    0  0.31310297836E+03 -0.43251275830E+03  0.45366225463E+03  0.70064985092E+03  0.10566000000E+00 0. -1.
         -4    1    3    3    0  503  0.12734470286E+03  0.42328935443E+01 -0.45379778226E+03  0.47134596414E+03  0.00000000000E+00 0. -1.
<mgrwt>
<rscale>  2 0.11710289E+04</rscale>
<asrwt>0</asrwt>
<pdfrwt beam="1">  1       21 0.19502646E+00 0.11719958E+04</pdfrwt>
<pdfrwt beam="2">  1       21 0.16714633E+00 0.11719958E+04</pdfrwt>
<totfact> 0.13643919E+01</totfact>
</mgrwt>
</event>
<event>
 8    1  0.5815007E-006  0.1142062E+04  0.7818608E-02  0.8659123E-01
         21   -1    0    0  503  502  0.00000000000E+00  0.00000000000E+00  0.10199015574E+04  0.10199015574E+04  0.00000000000E+00 0. -1.
         21   -1    0    0  501  503 -0.00000000000E+00 -0.00000000000E+00 -0.14527594577E+04  0.14527594577E+04  0.00000000000E+00 0. -1.
    9000010    2    1    2  501    0  0.45850723183E+03  0.43508205448E+02 -0.69553148076E+03  0.13371875770E+04  0.10450764230E+04 0.  0.
   -9000010    2    1    2    0  502 -0.45850723183E+03 -0.43508205448E+02  0.26267358049E+03  0.11354734381E+04  0.10040820052E+04 0.  0.
        -13    1    3    3    0    0  0.25151795553E+03 -0.45254870954E+03 -0.59784472730E+03  0.79087290103E+03  0.10566000000E+00 0.  1.
          4    1    3    3  501    0  0.20698927630E+03  0.49605691499E+03 -0.97686753468E+02  0.54631467600E+03  0.00000000000E+00 0.  1.
         13    1    4    4    0    0 -0.56378972326E+03  0.37174122109E+03  0.18385061210E+03  0.69989388213E+03  0.10566000000E+00 0. -1.
         -4    1    4    4    0  502  0.10528249143E+03 -0.41524942654E+03  0.78822968388E+02  0.43557955598E+03  0.00000000000E+00 0. -1.
<mgrwt>
<rscale>  2 0.11325981E+04</rscale>
<asrwt>0</asrwt>
<pdfrwt beam="1">  1       21 0.15690793E+00 0.11420624E+04</pdfrwt>
<pdfrwt beam="2">  1       21 0.22350146E+00 0.11420624E+04</pdfrwt>
<totfact> 0.10155707E+01</totfact>
</mgrwt>
</event>
<event>
 8    1  0.5815007E-006  0.1383932E+04  0.7818608E-02  0.8480513E-01
         21   -1    0    0  501  502  0.00000000000E+00  0.00000000000E+00  0.81902948185E+03  0.81902948185E+03  0.00000000000E+00 0.  1.
         21   -1    0    0  502  503 -0.00000000000E+00 -0.00000000000E+00 -0.23288059473E+04  0.23288059473E+04  0.00000000000E+00 0. -1.
   -9000010    2    1    2    0  503  0.89043583234E+03  0.32028546544E+03 -0.74390661939E+03  0.15661196876E+04  0.10019356600E+04 0.  0.
    9000010    2    1    2  501    0 -0.89043583234E+03 -0.32028546544E+03 -0.76586984610E+03  0.15817157416E+04  0.10098560863E+04 0.  0.
        -13    1    4    4    0    0 -0.27052941591E+03  0.25624896732E+03 -0.61899976112E+03  0.72250288135E+03  0.10566000000E+00 0.  1.
          4    1    4    4  501    0 -0.61990641643E+03 -0.57653443276E+03 -0.14687008498E+03  0.85921286021E+03  0.00000000000E+00 0.  1.
         13    1    3    3    0    0  0.19686555667E+03  0.41362877891E+03  0.10093215065E+03  0.46907581940E+03  0.10566000000E+00 0. -1.
         -4    1    3    3    0  503  0.69357027567E+03 -0.93343313465E+02 -0.84483877004E+03  0.10970438682E+04  0.00000000000E+00 0. -1.
<mgrwt>
<rscale>  2 0.13824876E+04</rscale>
<asrwt>0</asrwt>
<pdfrwt beam="1">  1       21 0.12600453E+00 0.13839321E+04</pdfrwt>
<pdfrwt beam="2">  1       21 0.35827784E+00 0.13839321E+04</pdfrwt>
<totfact> 0.20315999E+00</totfact>
</mgrwt>
</event>
<event>
 8    1  0.5815007E-006  0.1253497E+04  0.7818608E-02  0.8569935E-01
         21   -1    0    0  501  502  0.00000000000E+00  0.00000000000E+00  0.14431168622E+04  0.14431168622E+04  0.00000000000E+00 0.  1.
         21   -1    0    0  502  503 -0.00000000000E+00 -0.00000000000E+00 -0.10975495862E+04  0.10975495862E+04  0.00000000000E+00 0. -1.
   -9000010    2    1    2    0  503 -0.75668719658E+03  0.40073446104E+02 -0.32354152296E+01  0.12535009636E+04  0.99853532905E+03 0.  0.
    9000010    2    1    2  501    0  0.75668719658E+03 -0.40073446104E+02  0.34880269116E+03  0.12871654848E+04  0.98028071145E+03 0.  0.
        -13    1    4    4    0    0  0.73622611328E+03  0.34689528838E+03  0.84782482494E+02  0.81826237325E+03  0.10566000000E+00 0.  1.
          4    1    4    4  501    0  0.20461083302E+02 -0.38696873448E+03  0.26402020867E+03  0.46890311151E+03  0.00000000000E+00 0.  1.
         13    1    3    3    0    0 -0.94886174234E+03  0.13737694439E+03 -0.17920179871E+03  0.97535856317E+03  0.10566000000E+00 0. -1.
         -4    1    3    3    0  503  0.19217454576E+03 -0.97303498287E+02  0.17596638348E+03  0.27814240046E+03  0.00000000000E+00 0. -1.
<mgrwt>
<rscale>  2 0.12498579E+04</rscale>
<asrwt>0</asrwt>
<pdfrwt beam="1">  1       21 0.22201798E+00 0.12534968E+04</pdfrwt>
<pdfrwt beam="2">  1       21 0.16885378E+00 0.12534968E+04</pdfrwt>
<totfact> 0.80425070E+00</totfact>
</mgrwt>
</event>
<event>
 8    1  0.5815007E-006  0.1138581E+04  0.7818608E-02  0.8664686E-01
         21   -1    0    0  503  502  0.00000000000E+00  0.00000000000E+00  0.79662665560E+03  0.79662665560E+03  0.00000000000E+00 0. -1.
         21   -1    0    0  501  503 -0.00000000000E+00 -0.00000000000E+00 -0.16589647386E+04  0.16589647386E+04  0.00000000000E+00 0. -1.
    9000010    2    1    2  501    0 -0.44633087229E+03 -0.28864204752E+02 -0.74626069999E+03  0.13613493493E+04  0.10470542624E+04 0.  0.
   -9000010    2    1    2    0  502  0.44633087229E+03  0.28864204752E+02 -0.11607738303E+03  0.10942420450E+04  0.99189077233E+03 0.  0.
        -13    1    3    3    0    0 -0.11371847898E+03 -0.35751341039E+03  0.10547092966E+03  0.38970740208E+03  0.10566000000E+00 0.  1.
          4    1    3    3  501    0 -0.33261239331E+03  0.32864920564E+03 -0.85173162966E+03  0.97164194718E+03  0.00000000000E+00 0.  1.
         13    1    4    4    0    0 -0.26280755351E+03  0.23095053553E+03 -0.57362848066E+02  0.35453697627E+03  0.10566000000E+00 0. -1.
         -4    1    4    4    0  502  0.70913842580E+03 -0.20208633077E+03 -0.58714534967E+02  0.73970506869E+03  0.00000000000E+00 0. -1.
<mgrwt>
<rscale>  2 0.11257371E+04</rscale>
<asrwt>0</asrwt>
<pdfrwt beam="1">  1       21 0.12255795E+00 0.11385811E+04</pdfrwt>
<pdfrwt beam="2">  1       21 0.25522534E+00 0.11385811E+04</pdfrwt>
<totfact> 0.12392489E+01</totfact>
</mgrwt>
</event>
<event>
 8    1  0.9122216E-006  0.9785369E+03  0.7818608E-02  0.8800751E-01
         21   -1    0    0  501  502  0.00000000000E+00  0.00000000000E+00  0.13102327546E+04  0.13102327546E+04  0.00000000000E+00 0.  1.
         21   -1    0    0  502  503 -0.00000000000E+00 -0.00000000000E+00 -0.74051410043E+03  0.74051410043E+03  0.00000000000E+00 0.  1.
   -9000010    2    1    2    0  503 -0.26857107100E+03 -0.17040354963E+03  0.85345389781E+02  0.95888974201E+03  0.90056532904E+03 0.  0.
    9000010    2    1    2  501    0  0.26857107100E+03  0.17040354963E+03  0.48437326434E+03  0.10918571130E+04  0.92540083534E+03 0.  0.
        -13    1    4    4    0    0  0.35404638846E+03  0.49165000295E+03  0.45587304152E+03  0.75821422549E+03  0.10566000000E+00 0.  1.
          4    1    4    4  501    0 -0.85475317463E+02 -0.32124645333E+03  0.28500222824E+02  0.33364288749E+03  0.00000000000E+00 0.  1.
         13    1    3    3    0    0 -0.25134498606E+03  0.19515625294E+02 -0.37997997824E+03  0.45600433843E+03  0.10566000000E+00 0. -1.
         -4    1    3    3    0  503 -0.17226084940E+02 -0.18991917492E+03  0.46532536802E+03  0.50288540357E+03  0.00000000000E+00 0. -1.
<mgrwt>
<rscale>  2 0.97262027E+03</rscale>
<asrwt>0</asrwt>
<pdfrwt beam="1">  1       21 0.20157427E+00 0.97853692E+03</pdfrwt>
<pdfrwt beam="2">  1       21 0.11392525E+00 0.97853692E+03</pdfrwt>
<totfact> 0.39577681E+01</totfact>
</mgrwt>
</event>
<event>
 8    1  0.5815007E-006  0.1071316E+04  0.7818608E-02  0.8722731E-01
         21   -1    0    0  501  502  0.00000000000E+00  0.00000000000E+00  0.83180496117E+03  0.83180496117E+03  0.00000000000E+00 0. -1.
         21   -1    0    0  502  503 -0.00000000000E+00 -0.00000000000E+00 -0.14123183179E+04  0.14123183179E+04  0.00000000000E+00 0.  1.
   -9000010    2    1    2    0  503 -0.26205611326E+03  0.78839981374E+02  0.61601195500E+01  0.10713339700E+04  0.10357747724E+04 0.  0.
    9000010    2    1    2  501    0  0.26205611326E+03 -0.78839981374E+02 -0.58667347625E+03  0.11727893090E+04  0.97793652472E+03 0.  0.
        -13    1    4    4    0    0  0.47199608569E+03 -0.34916852064E+03 -0.12871141743E+03  0.60105374207E+03  0.10566000000E+00 0.  1.
          4    1    4    4  501    0 -0.20993997243E+03  0.27032853926E+03 -0.45796205882E+03  0.57173556692E+03  0.00000000000E+00 0.  1.
         13    1    3    3    0    0  0.24512673977E+03  0.17844978345E+02 -0.36490167667E+03  0.43995318683E+03  0.10566000000E+00 0. -1.
         -4    1    3    3    0  503 -0.50718285303E+03  0.60995003029E+02  0.37106179622E+03  0.63138078321E+03  0.00000000000E+00 0. -1.
<mgrwt>
<rscale>  2 0.10570821E+04</rscale>
<asrwt>0</asrwt>
<pdfrwt beam="1">  1       21 0.12797000E+00 0.10713163E+04</pdfrwt>
<pdfrwt beam="2">  1       21 0.21727974E+00 0.10713163E+04</pdfrwt>
<totfact> 0.21205211E+01</totfact>
</mgrwt>
</event>
<event>
 8    1  0.5815007E-006  0.1154479E+04  0.7818608E-02  0.8653159E-01
         21   -1    0    0  503  502  0.00000000000E+00  0.00000000000E+00  0.83944380633E+03  0.83944380633E+03  0.00000000000E+00 0. -1.
         21   -1    0    0  501  503 -0.00000000000E+00 -0.00000000000E+00 -0.16412084788E+04  0.16412084788E+04  0.00000000000E+00 0. -1.
    9000010    2    1    2  501    0 -0.53482849941E+03 -0.52762744774E+02 -0.60383655696E+02  0.11560567813E+04  0.10217610605E+04 0.  0.
   -9000010    2    1    2    0  502  0.53482849941E+03  0.52762744774E+02 -0.74138101682E+03  0.13245955039E+04  0.95712172988E+03 0.  0.
        -13    1    3    3    0    0 -0.70291990254E+03  0.28790388447E+03 -0.12771243993E+03  0.77025678482E+03  0.10566000000E+00 0.  1.
          4    1    3    3  501    0  0.16809140313E+03 -0.34066662924E+03  0.67328784232E+02  0.38579999647E+03  0.00000000000E+00 0.  1.
         13    1    4    4    0    0  0.67497273036E+01  0.27397983372E+03 -0.69862647775E+03  0.75045950903E+03  0.10566000000E+00 0. -1.
         -4    1    4    4    0  502  0.52807877211E+03 -0.22121708894E+03 -0.42754539066E+02  0.57413599487E+03  0.00000000000E+00 0. -1.
<mgrwt>
<rscale>  2 0.11400100E+04</rscale>
<asrwt>0</asrwt>
<pdfrwt beam="1">  1       21 0.12914520E+00 0.11544787E+04</pdfrwt>
<pdfrwt beam="2">  1       21 0.25249361E+00 0.11544787E+04</pdfrwt>
<totfact> 0.11131258E+01</totfact>
</mgrwt>
</event>
<event>
 8    1  0.5815007E-006  0.1311764E+04  0.7818608E-02  0.8529380E-01
         21   -1    0    0  503  502  0.00000000000E+00  0.00000000000E+00  0.25985777616E+04  0.25985777616E+04  0.00000000000E+00 0. -1.
         21   -1    0    0  501  503 -0.00000000000E+00 -0.00000000000E+00 -0.73982895189E+03  0.73982895189E+03  0.00000000000E+00 0. -1.
    9000010    2    1    2  501    0  0.44687390090E+03 -0.73828432349E+03  0.35834037094E+03  0.13454314621E+04  0.96799688646E+03 0.  0.
   -9000010    2    1    2    0  502 -0.44687390090E+03  0.73828432349E+03  0.15004084387E+04  0.19929752513E+04  0.98790932975E+03 0.  0.
        -13    1    3    3    0    0 -0.99750892322E+02 -0.33198898109E+03 -0.25384470721E+03  0.42965575829E+03  0.10566000000E+00 0.  1.
          4    1    3    3  501    0  0.54662479322E+03 -0.40629534239E+03  0.61218507815E+03  0.91577570383E+03  0.00000000000E+00 0.  1.
         13    1    4    4    0    0 -0.49335432765E+03  0.96009550783E+03  0.13063135442E+04  0.16945905003E+04  0.10566000000E+00 0. -1.
         -4    1    4    4    0  502  0.46480426755E+02 -0.22181118434E+03  0.19409489459E+03  0.29838475108E+03  0.00000000000E+00 0. -1.
<mgrwt>
<rscale>  2 0.13080154E+04</rscale>
<asrwt>0</asrwt>
<pdfrwt beam="1">  1       21 0.39978119E+00 0.13117640E+04</pdfrwt>
<pdfrwt beam="2">  1       21 0.11381984E+00 0.13117640E+04</pdfrwt>
<totfact> 0.14034164E+00</totfact>
</mgrwt>
</event>
<event>
 8    1  0.5815007E-006  0.1243688E+04  0.7818608E-02  0.8591373E-01
         21   -1    0    0  503  502  0.00000000000E+00  0.00000000000E+00  0.11563560824E+04  0.11563560824E+04  0.00000000000E+00 0.  1.
         21   -1    0    0  501  503 -0.00000000000E+00 -0.00000000000E+00 -0.12419755115E+04  0.12419755115E+04  0.00000000000E+00 0. -1.
    9000010    2    1    2  501    0  0.15085788539E+03  0.72941962578E+03 -0.34727578111E+02  0.12441732248E+04  0.99596682499E+03 0.  0.
   -9000010    2    1    2    0  502 -0.15085788539E+03 -0.72941962578E+03 -0.50891851062E+02  0.11541583691E+04  0.88015934268E+03 0.  0.
        -13    1    3    3    0    0  0.50633581297E+03  0.14411563747E+03 -0.15523237319E+03  0.54885551223E+03  0.10566000000E+00 0.  1.
          4    1    3    3  501    0 -0.35547792758E+03  0.58530398831E+03  0.12050479508E+03  0.69531771253E+03  0.00000000000E+00 0.  1.
         13    1    4    4    0    0  0.34460291090E+03 -0.38961726712E+03  0.11117251149E+03  0.53189483878E+03  0.10566000000E+00 0. -1.
         -4    1    4    4    0  502 -0.49546079629E+03 -0.33980235866E+03 -0.16206436255E+03  0.62226353036E+03  0.00000000000E+00 0. -1.
<mgrwt>
<rscale>  2 0.12203781E+04</rscale>
<asrwt>0</asrwt>
<pdfrwt beam="1">  1       21 0.17790094E+00 0.12436885E+04</pdfrwt>
<pdfrwt beam="2">  1       21 0.19107316E+00 0.12436885E+04</pdfrwt>
<totfact> 0.11756761E+01</totfact>
</mgrwt>
</event>
<event>
 8    1  0.5815007E-006  0.1107357E+04  0.7818608E-02  0.8685247E-01
         21   -1    0    0  501  502  0.00000000000E+00  0.00000000000E+00  0.11894113465E+04  0.11894113465E+04  0.00000000000E+00 0. -1.
         21   -1    0    0  502  503 -0.00000000000E+00 -0.00000000000E+00 -0.10476753590E+04  0.10476753590E+04  0.00000000000E+00 0. -1.
   -9000010    2    1    2    0  503  0.33379460769E+03  0.25938585025E+03  0.29058231703E+03  0.11197707382E+04  0.99536353344E+03 0.  0.
    9000010    2    1    2  501    0 -0.33379460769E+03 -0.25938585025E+03 -0.14884632956E+03  0.11173159673E+04  0.10234939578E+04 0.  0.
        -13    1    4    4    0    0 -0.47750582057E+03 -0.19937457514E+02  0.31748142524E+03  0.57376282332E+03  0.10566000000E+00 0.  1.
          4    1    4    4  501    0  0.14371121287E+03 -0.23944839274E+03 -0.46632775480E+03  0.54355314403E+03  0.00000000000E+00 0.  1.
         13    1    3    3    0    0  0.18813186474E+03 -0.36261447438E+03  0.25155119578E+03  0.47975084244E+03  0.10566000000E+00 0. -1.
         -4    1    3    3    0  503  0.14566274296E+03  0.62200032463E+03  0.39031121255E+02  0.64001989575E+03  0.00000000000E+00 0. -1.
<mgrwt>
<rscale>  2 0.11008126E+04</rscale>
<asrwt>0</asrwt>
<pdfrwt beam="1">  1       21 0.18298636E+00 0.11073571E+04</pdfrwt>
<pdfrwt beam="2">  1       21 0.16118083E+00 0.11073571E+04</pdfrwt>
<totfact> 0.19414815E+01</totfact>
</mgrwt>
</event>
<event>
 8    1  0.5815007E-006  0.1157269E+04  0.7818608E-02  0.8642853E-01
         21   -1    0    0  503  502  0.00000000000E+00  0.00000000000E+00  0.10580420317E+04  0.10580420317E+04  0.00000000000E+00 0.  1.
         21   -1    0    0  501  503 -0.00000000000E+00 -0.00000000000E+00 -0.15768064216E+04  0.15768064216E+04  0.00000000000E+00 0.  1.
    9000010    2    1    2  501    0  0.51446893879E+03 -0.18312972677E+03 -0.86024315389E+03  0.14282503758E+04  0.10008326865E+04 0.  0.
   -9000010    2    1    2    0  502 -0.51446893879E+03  0.18312972677E+03  0.34147876406E+03  0.12065980775E+04  0.10203217084E+04 0.  0.
        -13    1    3    3    0    0 -0.93729016786E+02 -0.44565674155E+03 -0.21539725255E+03  0.50377678335E+03  0.10566000000E+00 0.  1.
          4    1    3    3  501    0  0.60819795557E+03  0.26252701478E+03 -0.64484590134E+03  0.92447359244E+03  0.00000000000E+00 0.  1.
         13    1    4    4    0    0 -0.17801522923E+03 -0.12860519571E+02  0.67234591689E+03  0.69563198455E+03  0.10566000000E+00 0. -1.
         -4    1    4    4    0  502 -0.33645370955E+03  0.19599024634E+03 -0.33086715283E+03  0.51096609296E+03  0.00000000000E+00 0. -1.
<mgrwt>
<rscale>  2 0.11529584E+04</rscale>
<asrwt>0</asrwt>
<pdfrwt beam="1">  1       21 0.16277570E+00 0.11572688E+04</pdfrwt>
<pdfrwt beam="2">  1       21 0.24258560E+00 0.11572688E+04</pdfrwt>
<totfact> 0.65003377E+00</totfact>
</mgrwt>
</event>
<event>
 8    1  0.5815007E-006  0.1060422E+04  0.7818608E-02  0.8720039E-01
         21   -1    0    0  501  502  0.00000000000E+00  0.00000000000E+00  0.12274526557E+04  0.12274526557E+04  0.00000000000E+00 0.  1.
         21   -1    0    0  502  503 -0.00000000000E+00 -0.00000000000E+00 -0.10592761007E+04  0.10592761007E+04  0.00000000000E+00 0.  1.
   -9000010    2    1    2    0  503 -0.79767263809E+02 -0.36590027632E+03  0.50574748516E+03  0.11738728719E+04  0.99093449438E+03 0.  0.
    9000010    2    1    2  501    0  0.79767263809E+02  0.36590027632E+03 -0.33757093012E+03  0.11128558845E+04  0.99209286769E+03 0.  0.
        -13    1    4    4    0    0  0.89236915643E+02  0.26638627167E+03 -0.69080714541E+03  0.74574754184E+03  0.10566000000E+00 0.  1.
          4    1    4    4  501    0 -0.94696518332E+01  0.99514004647E+02  0.35323621529E+03  0.36710834261E+03  0.00000000000E+00 0.  1.
         13    1    3    3    0    0 -0.17436141158E+03  0.22726939262E+03  0.49641822635E+03  0.57313553832E+03  0.10566000000E+00 0. -1.
         -4    1    3    3    0  503  0.94594147769E+02 -0.59316966893E+03  0.93292588070E+01  0.60073733362E+03  0.00000000000E+00 0. -1.
<mgrwt>
<rscale>  2 0.10601506E+04</rscale>
<asrwt>0</asrwt>
<pdfrwt beam="1">  1       21 0.18883887E+00 0.10604217E+04</pdfrwt>
<pdfrwt beam="2">  1       21 0.16296555E+00 0.10604217E+04</pdfrwt>
<totfact> 0.16987713E+01</totfact>
</mgrwt>
</event>
<event>
 8    1  0.5815007E-006  0.1414017E+04  0.7818608E-02  0.8461470E-01
         21   -1    0    0  503  502  0.00000000000E+00  0.00000000000E+00  0.10091021746E+04  0.10091021746E+04  0.00000000000E+00 0.  1.
         21   -1    0    0  501  503 -0.00000000000E+00 -0.00000000000E+00 -0.20118875497E+04  0.20118875497E+04  0.00000000000E+00 0.  1.
    9000010    2    1    2  501    0  0.90355588169E+03 -0.43395665615E+03 -0.29622050759E+03  0.14402691496E+04  0.99090717189E+03 0.  0.
   -9000010    2    1    2    0  502 -0.90355588169E+03  0.43395665615E+03 -0.70656486751E+03  0.15807205748E+04  0.99735250181E+03 0.  0.
        -13    1    3    3    0    0  0.85800129431E+02  0.29518902436E+03 -0.12273331550E+03  0.33100105772E+03  0.10566000000E+00 0.  1.
          4    1    3    3  501    0  0.81775575226E+03 -0.72914568051E+03 -0.17348719209E+03  0.11092680918E+04  0.00000000000E+00 0.  1.
         13    1    4    4    0    0 -0.60443965684E+03  0.71665416907E+03 -0.25888854660E+03  0.97260669725E+03  0.10566000000E+00 0. -1.
         -4    1    4    4    0  502 -0.29911622485E+03 -0.28269751292E+03 -0.44767632091E+03  0.60811387756E+03  0.00000000000E+00 0. -1.
<mgrwt>
<rscale>  2 0.14128808E+04</rscale>
<asrwt>0</asrwt>
<pdfrwt beam="1">  1       21 0.15524649E+00 0.14140168E+04</pdfrwt>
<pdfrwt beam="2">  1       21 0.30952116E+00 0.14140168E+04</pdfrwt>
<totfact> 0.23772695E+00</totfact>
</mgrwt>
</event>
<event>
 8    1  0.5815007E-006  0.1118477E+04  0.7818608E-02  0.8673253E-01
         21   -1    0    0  503  502  0.00000000000E+00  0.00000000000E+00  0.16045952595E+04  0.16045952595E+04  0.00000000000E+00 0.  1.
         21   -1    0    0  501  503 -0.00000000000E+00 -0.00000000000E+00 -0.79647790961E+03  0.79647790961E+03  0.00000000000E+00 0.  1.
    9000010    2    1    2  501    0 -0.32176624109E+03  0.34470931327E+03  0.61757468266E+03  0.12664822388E+04  0.10001103679E+04 0.  0.
   -9000010    2    1    2    0  502  0.32176624109E+03 -0.34470931327E+03  0.19054266719E+03  0.11345909303E+04  0.10142149903E+04 0.  0.
        -13    1    3    3    0    0  0.30163382600E+03  0.96513560963E+02  0.49005353586E+03  0.58348120073E+03  0.10566000000E+00 0.  1.
          4    1    3    3  501    0 -0.62340006708E+03  0.24819575231E+03  0.12752114680E+03  0.68300103806E+03  0.00000000000E+00 0.  1.
         13    1    4    4    0    0  0.56932215712E+03 -0.54780358349E+03  0.72784922561E+02  0.79341927176E+03  0.10566000000E+00 0. -1.
         -4    1    4    4    0  502 -0.24755591604E+03  0.20309427022E+03  0.11775774463E+03  0.34117165852E+03  0.00000000000E+00 0. -1.
<mgrwt>
<rscale>  2 0.11152694E+04</rscale>
<asrwt>0</asrwt>
<pdfrwt beam="1">  1       21 0.24686081E+00 0.11184767E+04</pdfrwt>
<pdfrwt beam="2">  1       21 0.12253506E+00 0.11184767E+04</pdfrwt>
<totfact> 0.14324676E+01</totfact>
</mgrwt>
</event>
<event>
 8    1  0.5815007E-006  0.1009469E+04  0.7818608E-02  0.8766103E-01
         21   -1    0    0  503  502  0.00000000000E+00  0.00000000000E+00  0.10560390448E+04  0.10560390448E+04  0.00000000000E+00 0.  1.
         21   -1    0    0  501  503 -0.00000000000E+00 -0.00000000000E+00 -0.96446382440E+03  0.96446382440E+03  0.00000000000E+00 0.  1.
    9000010    2    1    2  501    0  0.10595043009E+03  0.51611566521E+02  0.13623046189E+02  0.10095605392E+04  0.10025655328E+04 0.  0.
   -9000010    2    1    2    0  502 -0.10595043009E+03 -0.51611566521E+02  0.77952174224E+02  0.10109423300E+04  0.10010187839E+04 0.  0.
        -13    1    3    3    0    0 -0.13075581048E+02 -0.45935538026E+03  0.11840955090E+03  0.47455154526E+03  0.10566000000E+00 0.  1.
          4    1    3    3  501    0  0.11902601114E+03  0.51096694679E+03 -0.10478650472E+03  0.53500899395E+03  0.00000000000E+00 0.  1.
         13    1    4    4    0    0 -0.49670519081E+03 -0.10036122884E+03 -0.18274006089E+03  0.53868577468E+03  0.10566000000E+00 0. -1.
         -4    1    4    4    0  502  0.39075476071E+03  0.48749662318E+02  0.26069223511E+03  0.47225655532E+03  0.00000000000E+00 0. -1.
<mgrwt>
<rscale>  2 0.10090844E+04</rscale>
<asrwt>0</asrwt>
<pdfrwt beam="1">  1       21 0.16246755E+00 0.10094686E+04</pdfrwt>
<pdfrwt beam="2">  1       21 0.14837905E+00 0.10094686E+04</pdfrwt>
<totfact> 0.38081307E+01</totfact>
</mgrwt>
</event>
<event>
 8    1  0.5815007E-006  0.1092796E+04  0.7818608E-02  0.8709441E-01
         21   -1    0    0  503  502  0.00000000000E+00  0.00000000000E+00  0.90586215507E+03  0.90586215507E+03  0.00000000000E+00 0. -1.
         21   -1    0    0  501  503 -0.00000000000E+00 -0.00000000000E+00 -0.13819892434E+04  0.13819892434E+04  0.00000000000E+00 0. -1.
    9000010    2    1    2  501    0  0.35893198100E+03  0.20868386738E+03  0.14040644289E+03  0.11017789442E+04  0.10108519917E+04 0.  0.
   -9000010    2    1    2    0  502 -0.35893198100E+03 -0.20868386738E+03 -0.61653353125E+03  0.11860724543E+04  0.92426898042E+03 0.  0.
        -13    1    3    3    0    0  0.58559532896E+03 -0.16211158555E+03 -0.82779141427E+02  0.61323278850E+03  0.10566000000E+00 0.  1.
          4    1    3    3  501    0 -0.22666334796E+03  0.37079545293E+03  0.22318558432E+03  0.48854615572E+03  0.00000000000E+00 0.  1.
         13    1    4    4    0    0 -0.24295589271E+03 -0.46135511832E+03 -0.12995727319E+02  0.52157934305E+03  0.10566000000E+00 0. -1.
         -4    1    4    4    0  502 -0.11597608829E+03  0.25267125094E+03 -0.60353780393E+03  0.66449311124E+03  0.00000000000E+00 0. -1.
<mgrwt>
<rscale>  2 0.10723395E+04</rscale>
<asrwt>0</asrwt>
<pdfrwt beam="1">  1       21 0.13936341E+00 0.10927959E+04</pdfrwt>
<pdfrwt beam="2">  1       21 0.21261373E+00 0.10927959E+04</pdfrwt>
<totfact> 0.17844791E+01</totfact>
</mgrwt>
</event>
<event>
 8    1  0.5815007E-006  0.1100337E+04  0.7818608E-02  0.8686376E-01
         21   -1    0    0  501  502  0.00000000000E+00  0.00000000000E+00  0.18361774527E+04  0.18361774527E+04  0.00000000000E+00 0. -1.
         21   -1    0    0  502  503 -0.00000000000E+00 -0.00000000000E+00 -0.65731496169E+03  0.65731496169E+03  0.00000000000E+00 0. -1.
   -9000010    2    1    2    0  503 -0.31115654052E+02  0.45858110489E+03  0.58306452177E+03  0.12452733411E+04  0.99973828772E+03 0.  0.
    9000010    2    1    2  501    0  0.31115654052E+02 -0.45858110489E+03  0.59579796920E+03  0.12482190732E+04  0.99589699313E+03 0.  0.
        -13    1    4    4    0    0  0.10336006696E+03 -0.76512686934E+03  0.34516769871E+03  0.84572050999E+03  0.10566000000E+00 0.  1.
          4    1    4    4  501    0 -0.72244412904E+02  0.30654576446E+03  0.25063027049E+03  0.40249856321E+03  0.00000000000E+00 0.  1.
         13    1    3    3    0    0  0.12870639699E+03  0.70194870700E+03  0.15944467733E+03  0.73124547190E+03  0.10566000000E+00 0. -1.
         -4    1    3    3    0  503 -0.15982205104E+03 -0.24336760211E+03  0.42361984444E+03  0.51402786925E+03  0.00000000000E+00 0. -1.
<mgrwt>
<rscale>  2 0.10994637E+04</rscale>
<asrwt>0</asrwt>
<pdfrwt beam="1">  1       21 0.28248884E+00 0.11003370E+04</pdfrwt>
<pdfrwt beam="2">  1       21 0.10112538E+00 0.11003370E+04</pdfrwt>
<totfact> 0.13442184E+01</totfact>
</mgrwt>
</event>
<event>
 8    1  0.5815007E-006  0.1112106E+04  0.7818608E-02  0.8687321E-01
         21   -1    0    0  501  502  0.00000000000E+00  0.00000000000E+00  0.64212107156E+03  0.64212107156E+03  0.00000000000E+00 0.  1.
         21   -1    0    0  502  503 -0.00000000000E+00 -0.00000000000E+00 -0.19288437220E+04  0.19288437220E+04  0.00000000000E+00 0.  1.
   -9000010    2    1    2    0  503  0.38483525348E+03  0.64600585542E+02 -0.37300576333E+03  0.11729928534E+04  0.10413969112E+04 0.  0.
    9000010    2    1    2  501    0 -0.38483525348E+03 -0.64600585542E+02 -0.91371688707E+03  0.13979719401E+04  0.98345085675E+03 0.  0.
        -13    1    4    4    0    0 -0.23969275855E+03  0.28029293982E+03  0.42406453100E+02  0.37123452027E+03  0.10566000000E+00 0.  1.
          4    1    4    4  501    0 -0.14514249493E+03 -0.34489352536E+03 -0.95612334017E+03  0.10267374198E+04  0.00000000000E+00 0.  1.
         13    1    3    3    0    0  0.37620123042E+03 -0.96809348025E+02  0.29368881402E+03  0.48698310677E+03  0.10566000000E+00 0. -1.
         -4    1    3    3    0  503  0.86340230597E+01  0.16140993357E+03 -0.66669457736E+03  0.68600974664E+03  0.00000000000E+00 0. -1.
<mgrwt>
<rscale>  2 0.10983354E+04</rscale>
<asrwt>0</asrwt>
<pdfrwt beam="1">  1       21 0.98787858E-01 0.11121056E+04</pdfrwt>
<pdfrwt beam="2">  1       21 0.29674519E+00 0.11121056E+04</pdfrwt>
<totfact> 0.11295126E+01</totfact>
</mgrwt>
</event>
<event>
 8    1  0.5815007E-006  0.1296175E+04  0.7818608E-02  0.8541865E-01
         21   -1    0    0  501  502  0.00000000000E+00  0.00000000000E+00  0.11845738483E+04  0.11845738483E+04  0.00000000000E+00 0.  1.
         21   -1    0    0  502  503 -0.00000000000E+00 -0.00000000000E+00 -0.14536103507E+04  0.14536103507E+04  0.00000000000E+00 0.  1.
   -9000010    2    1    2    0  503 -0.72367040549E+02  0.80168002537E+03 -0.40786492988E+03  0.13345959527E+04  0.98329278665E+03 0.  0.
    9000010    2    1    2  501    0  0.72367040549E+02 -0.80168002537E+03  0.13882842748E+03  0.13035882463E+04  0.10159434689E+04 0.  0.
        -13    1    4    4    0    0  0.28785020026E+02 -0.15219872029E+03  0.52455305442E+03  0.54694510319E+03  0.10566000000E+00 0.  1.
          4    1    4    4  501    0  0.43582020523E+02 -0.64948130509E+03 -0.38572462694E+03  0.75664314310E+03  0.00000000000E+00 0.  1.
         13    1    3    3    0    0 -0.85682634872E+02  0.89633958972E+03 -0.62585507357E+03  0.10965677171E+04  0.10566000000E+00 0. -1.
         -4    1    3    3    0  503  0.13315594323E+02 -0.94659564343E+02  0.21799014369E+03  0.23802823555E+03  0.00000000000E+00 0. -1.
<mgrwt>
<rscale>  2 0.12897700E+04</rscale>
<asrwt>0</asrwt>
<pdfrwt beam="1">  1       21 0.18224213E+00 0.12961748E+04</pdfrwt>
<pdfrwt beam="2">  1       21 0.22363236E+00 0.12961748E+04</pdfrwt>
<totfact> 0.60066082E+00</totfact>
</mgrwt>
</event>
<event>
 8    1  0.5815007E-006  0.1053981E+04  0.7818608E-02  0.8731398E-01
         21   -1    0    0  501  502  0.00000000000E+00  0.00000000000E+00  0.15714151105E+04  0.15714151105E+04  0.00000000000E+00 0.  1.
         21   -1    0    0  502  503 -0.00000000000E+00 -0.00000000000E+00 -0.71122531891E+03  0.71122531891E+03  0.00000000000E+00 0.  1.
   -9000010    2    1    2    0  503  0.69712203531E+02 -0.30478518973E+03  0.63616723123E+03  0.12310909632E+04  0.10065398205E+04 0.  0.
    9000010    2    1    2  501    0 -0.69712203531E+02  0.30478518973E+03  0.22402256039E+03  0.10515494663E+04  0.97868093331E+03 0.  0.
        -13    1    4    4    0    0 -0.45470327091E+03  0.42666520831E+03  0.14101741785E+03  0.63928412139E+03  0.10566000000E+00 0.  1.
          4    1    4    4  501    0  0.38499106738E+03 -0.12188001857E+03  0.83005142545E+02  0.41226534487E+03  0.00000000000E+00 0.  1.
         13    1    3    3    0    0 -0.39120607307E+03  0.28388269156E+02  0.51879037740E+03  0.65037800722E+03  0.10566000000E+00 0. -1.
         -4    1    3    3    0  503  0.46091827660E+03 -0.33317345889E+03  0.11737685383E+03  0.58071295596E+03  0.00000000000E+00 0. -1.
<mgrwt>
<rscale>  2 0.10472745E+04</rscale>
<asrwt>0</asrwt>
<pdfrwt beam="1">  1       21 0.24175617E+00 0.10539811E+04</pdfrwt>
<pdfrwt beam="2">  1       21 0.10941928E+00 0.10539811E+04</pdfrwt>
<totfact> 0.21645866E+01</totfact>
</mgrwt>
</event>
<event>
 8    1  0.5815007E-006  0.1302338E+04  0.7818608E-02  0.8541191E-01
         21   -1    0    0  503  502  0.00000000000E+00  0.00000000000E+00  0.19973618083E+04  0.19973618083E+04  0.00000000000E+00 0. -1.
         21   -1    0    0  501  503 -0.00000000000E+00 -0.00000000000E+00 -0.94452601299E+03  0.94452601299E+03  0.00000000000E+00 0. -1.
    9000010    2    1    2  501    0  0.62288043271E+03 -0.41609295239E+03 -0.30359029985E+00  0.13023380714E+04  0.10653501685E+04 0.  0.
   -9000010    2    1    2    0  502 -0.62288043271E+03  0.41609295239E+03  0.10531393856E+04  0.16395497498E+04  0.10089139895E+04 0.  0.
        -13    1    3    3    0    0  0.46710154774E+03 -0.27252312075E+03 -0.51436213639E+03  0.74633847935E+03  0.10566000000E+00 0.  1.
          4    1    3    3  501    0  0.15577888496E+03 -0.14356983164E+03  0.51405854609E+03  0.55599959206E+03  0.00000000000E+00 0.  1.
         13    1    4    4    0    0 -0.88604186338E+03  0.38595575725E+03  0.95032295536E+03  0.13554135018E+04  0.10566000000E+00 0. -1.
         -4    1    4    4    0  502  0.26316143068E+03  0.30137195142E+02  0.10281643020E+03  0.28413624803E+03  0.00000000000E+00 0. -1.
<mgrwt>
<rscale>  2 0.12907474E+04</rscale>
<asrwt>0</asrwt>
<pdfrwt beam="1">  1       21 0.30728643E+00 0.13023380E+04</pdfrwt>
<pdfrwt beam="2">  1       21 0.14531170E+00 0.13023380E+04</pdfrwt>
<totfact> 0.30902242E+00</totfact>
</mgrwt>
</event>
<event>
 8    1  0.5815007E-006  0.1080781E+04  0.7818608E-02  0.8702970E-01
         21   -1    0    0  501  502  0.00000000000E+00  0.00000000000E+00  0.20357473956E+04  0.20357473956E+04  0.00000000000E+00 0. -1.
         21   -1    0    0  502  503 -0.00000000000E+00 -0.00000000000E+00 -0.60685828515E+03  0.60685828515E+03  0.00000000000E+00 0. -1.
   -9000010    2    1    2    0  503 -0.16114221473E+03 -0.38727374628E+03  0.39595337596E+03  0.11475995087E+04  0.99209767083E+03 0.  0.
    9000010    2    1    2  501    0  0.16114221473E+03  0.38727374628E+03  0.10329357345E+04  0.14950061721E+04  0.99606197347E+03 0.  0.
        -13    1    4    4    0    0 -0.34387852115E+03  0.22925680671E+03  0.83196093704E+03  0.92896185748E+03  0.10566000000E+00 0.  1.
          4    1    4    4  501    0  0.50502073588E+03  0.15801693957E+03  0.20097479744E+03  0.56604431458E+03  0.00000000000E+00 0.  1.
         13    1    3    3    0    0  0.33825410216E+03  0.46790711000E+02  0.34270521044E+03  0.48378929369E+03  0.10566000000E+00 0. -1.
         -4    1    3    3    0  503 -0.49939631689E+03 -0.43406445728E+03  0.53248165519E+02  0.66381021499E+03  0.00000000000E+00 0. -1.
<mgrwt>
<rscale>  2 0.10798666E+04</rscale>
<asrwt>0</asrwt>
<pdfrwt beam="1">  1       21 0.31319190E+00 0.10807808E+04</pdfrwt>
<pdfrwt beam="2">  1       21 0.93362814E-01 0.10807808E+04</pdfrwt>
<totfact> 0.10064164E+01</totfact>
</mgrwt>
</event>
<event>
 8    1  0.5815007E-006  0.1158779E+04  0.7818608E-02  0.8639465E-01
         21   -1    0    0  503  502  0.00000000000E+00  0.00000000000E+00  0.72954793436E+03  0.72954793436E+03  0.00000000000E+00 0. -1.
         21   -1    0    0  501  503 -0.00000000000E+00 -0.00000000000E+00 -0.21317304660E+04  0.21317304660E+04  0.00000000000E+00 0. -1.
    9000010    2    1    2  501    0  0.16525039608E+03 -0.55104895012E+03 -0.12401125050E+04  0.16972468130E+04  0.10058852221E+04 0.  0.
   -9000010    2    1    2    0  502 -0.16525039608E+03  0.55104895012E+03 -0.16207002663E+03  0.11640315874E+04  0.99886946302E+03 0.  0.
        -13    1    3    3    0    0  0.15583061228E+03  0.27510055918E+03 -0.47877117589E+03  0.57374676244E+03  0.10566000000E+00 0.  1.
          4    1    3    3  501    0  0.94197838028E+01 -0.82614950930E+03 -0.76134132914E+03  0.11235000505E+04  0.00000000000E+00 0.  1.
         13    1    4    4    0    0 -0.24402034980E+03  0.53151513412E+03 -0.52877570188E+03  0.78845293010E+03  0.10566000000E+00 0. -1.
         -4    1    4    4    0  502  0.78769953717E+02  0.19533816001E+02  0.36670567525E+03  0.37557865732E+03  0.00000000000E+00 0. -1.
<mgrwt>
<rscale>  2 0.11572543E+04</rscale>
<asrwt>0</asrwt>
<pdfrwt beam="1">  1       21 0.11223814E+00 0.11587785E+04</pdfrwt>
<pdfrwt beam="2">  1       21 0.32795853E+00 0.11587785E+04</pdfrwt>
<totfact> 0.47910874E+00</totfact>
</mgrwt>
</event>
<event>
 8    1  0.5815007E-006  0.1059787E+04  0.7818608E-02  0.8721310E-01
         21   -1    0    0  503  502  0.00000000000E+00  0.00000000000E+00  0.11391554619E+04  0.11391554619E+04  0.00000000000E+00 0.  1.
         21   -1    0    0  501  503 -0.00000000000E+00 -0.00000000000E+00 -0.99977741525E+03  0.99977741525E+03  0.00000000000E+00 0.  1.
    9000010    2    1    2  501    0  0.34917663516E+03  0.11153040871E+03 -0.73395717472E+02  0.10579974393E+04  0.98975163327E+03 0.  0.
   -9000010    2    1    2    0  502 -0.34917663516E+03 -0.11153040871E+03  0.21277376409E+03  0.10809354378E+04  0.99437688604E+03 0.  0.
        -13    1    3    3    0    0  0.61940509149E+02 -0.33013707535E+03  0.26842168687E+03  0.42997363680E+03  0.10566000000E+00 0.  1.
          4    1    3    3  501    0  0.28723612602E+03  0.44166748406E+03 -0.34181740434E+03  0.62802380247E+03  0.00000000000E+00 0.  1.
         13    1    4    4    0    0 -0.27167763363E+03  0.21049961054E+03 -0.30948893741E+03  0.46249566073E+03  0.10566000000E+00 0. -1.
         -4    1    4    4    0  502 -0.77499001534E+02 -0.32203001925E+03  0.52226270150E+03  0.61843977711E+03  0.00000000000E+00 0. -1.
<mgrwt>
<rscale>  2 0.10587008E+04</rscale>
<asrwt>0</asrwt>
<pdfrwt beam="1">  1       21 0.17525469E+00 0.10597871E+04</pdfrwt>
<pdfrwt beam="2">  1       21 0.15381191E+00 0.10597871E+04</pdfrwt>
<totfact> 0.26304625E+01</totfact>
</mgrwt>
</event>
<event>
 8    1  0.5815007E-006  0.1197481E+04  0.7818608E-02  0.8619038E-01
         21   -1    0    0  501  502  0.00000000000E+00  0.00000000000E+00  0.64147587040E+03  0.64147587040E+03  0.00000000000E+00 0.  1.
         21   -1    0    0  502  503 -0.00000000000E+00 -0.00000000000E+00 -0.21864009971E+04  0.21864009971E+04  0.00000000000E+00 0.  1.
   -9000010    2    1    2    0  503  0.50447096568E+03 -0.28519935717E+03 -0.97263053489E+03  0.15006686930E+04  0.98497042599E+03 0.  0.
    9000010    2    1    2  501    0 -0.50447096568E+03  0.28519935717E+03 -0.57229459177E+03  0.13272081745E+04  0.10479173680E+04 0.  0.
        -13    1    4    4    0    0  0.12643121978E+02 -0.44277751456E+02  0.27638981180E+03  0.28019940585E+03  0.10566000000E+00 0.  1.
          4    1    4    4  501    0 -0.51711408766E+03  0.32947710863E+03 -0.84868440357E+03  0.10470087687E+04  0.00000000000E+00 0.  1.
         13    1    3    3    0    0  0.21601603428E+02  0.18975927045E+03 -0.77053513370E+03  0.79385112800E+03  0.10566000000E+00 0. -1.
         -4    1    3    3    0  503  0.48286936225E+03 -0.47495862762E+03 -0.20209540119E+03  0.70681756496E+03  0.00000000000E+00 0. -1.
<mgrwt>
<rscale>  2 0.11835706E+04</rscale>
<asrwt>0</asrwt>
<pdfrwt beam="1">  1       21 0.98688595E-01 0.11974809E+04</pdfrwt>
<pdfrwt beam="2">  1       21 0.33636939E+00 0.11974809E+04</pdfrwt>
<totfact> 0.58511446E+00</totfact>
</mgrwt>
</event>
<event>
 8    1  0.5815007E-006  0.1084321E+04  0.7818608E-02  0.8707079E-01
         21   -1    0    0  501  502  0.00000000000E+00  0.00000000000E+00  0.23318824423E+04  0.23318824423E+04  0.00000000000E+00 0. -1.
         21   -1    0    0  502  503 -0.00000000000E+00 -0.00000000000E+00 -0.49795148053E+03  0.49795148053E+03  0.00000000000E+00 0. -1.
   -9000010    2    1    2    0  503 -0.21497475664E+03  0.23688815246E+03  0.69546558864E+03  0.12576205372E+04  0.99780102615E+03 0.  0.
    9000010    2    1    2  501    0  0.21497475664E+03 -0.23688815246E+03  0.11384653732E+04  0.15722133857E+04  0.10360605105E+04 0.  0.
        -13    1    4    4    0    0  0.62084352129E+02  0.64520511425E+02  0.12210278338E+04  0.12243064752E+04  0.10566000000E+00 0.  1.
          4    1    4    4  501    0  0.15289040451E+03 -0.30140866389E+03 -0.82562460630E+02  0.34790691048E+03  0.00000000000E+00 0.  1.
         13    1    3    3    0    0  0.36878170118E+03  0.98682983811E+02  0.64810060292E+02  0.38721909754E+03  0.10566000000E+00 0. -1.
         -4    1    3    3    0  503 -0.58375645782E+03  0.13820516865E+03  0.63065552834E+03  0.87040143964E+03  0.00000000000E+00 0. -1.
<mgrwt>
<rscale>  2 0.10750793E+04</rscale>
<asrwt>0</asrwt>
<pdfrwt beam="1">  1       21 0.35875114E+00 0.10843208E+04</pdfrwt>
<pdfrwt beam="2">  1       21 0.76607922E-01 0.10843208E+04</pdfrwt>
<totfact> 0.79011566E+00</totfact>
</mgrwt>
</event>
<event>
 8    1  0.5815007E-006  0.1138314E+04  0.7818608E-02  0.8655018E-01
         21   -1    0    0  501  502  0.00000000000E+00  0.00000000000E+00  0.18331577800E+04  0.18331577800E+04  0.00000000000E+00 0.  1.
         21   -1    0    0  502  503 -0.00000000000E+00 -0.00000000000E+00 -0.70756894128E+03  0.70756894128E+03  0.00000000000E+00 0.  1.
   -9000010    2    1    2    0  503  0.39113236824E+03  0.38702742612E+03  0.49156690124E+03  0.12399183265E+04  0.99648616645E+03 0.  0.
    9000010    2    1    2  501    0 -0.39113236824E+03 -0.38702742612E+03  0.63402193747E+03  0.13008083948E+04  0.99365180253E+03 0.  0.
        -13    1    4    4    0    0  0.20186584202E+02  0.20195850891E+03  0.53926239692E+03  0.57619326740E+03  0.10566000000E+00 0.  1.
          4    1    4    4  501    0 -0.41131895244E+03 -0.58898593503E+03  0.94759540559E+02  0.72461512738E+03  0.00000000000E+00 0.  1.
         13    1    3    3    0    0  0.55138852627E+02  0.55326353566E+03 -0.74506448984E+02  0.56097420178E+03  0.10566000000E+00 0. -1.
         -4    1    3    3    0  503  0.33599351561E+03 -0.16623610954E+03  0.56607335023E+03  0.67894412472E+03  0.00000000000E+00 0. -1.
<mgrwt>
<rscale>  2 0.11376937E+04</rscale>
<asrwt>0</asrwt>
<pdfrwt beam="1">  1       21 0.28202427E+00 0.11383143E+04</pdfrwt>
<pdfrwt beam="2">  1       21 0.10885676E+00 0.11383143E+04</pdfrwt>
<totfact> 0.11040411E+01</totfact>
</mgrwt>
</event>
<event>
 8    1  0.5815007E-006  0.1017106E+04  0.7818608E-02  0.8768513E-01
         21   -1    0    0  503  502  0.00000000000E+00  0.00000000000E+00  0.39812296072E+03  0.39812296072E+03  0.00000000000E+00 0. -1.
         21   -1    0    0  501  503 -0.00000000000E+00 -0.00000000000E+00 -0.24945562667E+04  0.24945562667E+04  0.00000000000E+00 0. -1.
    9000010    2    1    2  501    0 -0.96640287943E+02  0.10169302149E+03 -0.10318602090E+04  0.14488755754E+04  0.10073847955E+04 0.  0.
   -9000010    2    1    2    0  502  0.96640287943E+02 -0.10169302149E+03 -0.10645730969E+04  0.14438036520E+04  0.96517992669E+03 0.  0.
        -13    1    3    3    0    0 -0.39833602824E+03  0.41881029872E+03 -0.54919364930E+03  0.79730002715E+03  0.10566000000E+00 0.  1.
          4    1    3    3  501    0  0.30169574029E+03 -0.31711727723E+03 -0.48266655974E+03  0.65157554828E+03  0.00000000000E+00 0.  1.
         13    1    4    4    0    0 -0.17059723845E+03 -0.15998049115E+02 -0.11403186617E+04  0.11531201224E+04  0.10566000000E+00 0. -1.
         -4    1    4    4    0  502  0.26723752639E+03 -0.85694972375E+02  0.75745564734E+02  0.29068352960E+03  0.00000000000E+00 0. -1.
<mgrwt>
<rscale>  2 0.10064952E+04</rscale>
<asrwt>0</asrwt>
<pdfrwt beam="1">  1       21 0.61249687E-01 0.10171062E+04</pdfrwt>
<pdfrwt beam="2">  1       21 0.38377788E+00 0.10171062E+04</pdfrwt>
<totfact> 0.90736367E+00</totfact>
</mgrwt>
</event>
<event>
 8    1  0.5815007E-006  0.1223835E+04  0.7818608E-02  0.8592870E-01
         21   -1    0    0  501  502  0.00000000000E+00  0.00000000000E+00  0.24907506714E+04  0.24907506714E+04  0.00000000000E+00 0. -1.
         21   -1    0    0  502  503 -0.00000000000E+00 -0.00000000000E+00 -0.59088000362E+03  0.59088000362E+03  0.00000000000E+00 0. -1.
   -9000010    2    1    2    0  503  0.22577948336E+02 -0.71102789576E+03  0.92982022566E+03  0.15369894423E+04  0.99584158454E+03 0.  0.
    9000010    2    1    2  501    0 -0.22577948336E+02  0.71102789576E+03  0.97005044208E+03  0.15446412326E+04  0.96894181718E+03 0.  0.
        -13    1    4    4    0    0 -0.10021404151E+03  0.72518173411E+03  0.11413979221E+04  0.13559943323E+04  0.10566000000E+00 0.  1.
          4    1    4    4  501    0  0.77636093177E+02 -0.14153838346E+02 -0.17134747999E+03  0.18864690032E+03  0.00000000000E+00 0.  1.
         13    1    3    3    0    0  0.19901304763E+03  0.14184822447E+03  0.51975876320E+03  0.57434858318E+03  0.10566000000E+00 0. -1.
         -4    1    3    3    0  503 -0.17643509929E+03 -0.85287612024E+03  0.41006146246E+03  0.96264085916E+03  0.00000000000E+00 0. -1.
<mgrwt>
<rscale>  2 0.12183511E+04</rscale>
<asrwt>0</asrwt>
<pdfrwt beam="1">  1       21 0.38319241E+00 0.12238345E+04</pdfrwt>
<pdfrwt beam="2">  1       21 0.90904617E-01 0.12238345E+04</pdfrwt>
<totfact> 0.33753714E+00</totfact>
</mgrwt>
</event>
<event>
 8    1  0.5815007E-006  0.1236374E+04  0.7818608E-02  0.8580729E-01
         21   -1    0    0  501  502  0.00000000000E+00  0.00000000000E+00  0.85959405821E+03  0.85959405821E+03  0.00000000000E+00 0. -1.
         21   -1    0    0  502  503 -0.00000000000E+00 -0.00000000000E+00 -0.20109434926E+04  0.20109434926E+04  0.00000000000E+00 0. -1.
   -9000010    2    1    2    0  503 -0.61144309324E+03 -0.40330852446E+03 -0.10737890880E+04  0.16375721916E+04  0.99604179388E+03 0.  0.
    9000010    2    1    2  501    0  0.61144309324E+03  0.40330852446E+03 -0.77560346443E+02  0.12329653592E+04  0.98877072546E+03 0.  0.
        -13    1    4    4    0    0  0.25901533850E+03  0.56245057897E+03  0.30390652780E+03  0.68978169602E+03  0.10566000000E+00 0.  1.
          4    1    4    4  501    0  0.35242775474E+03 -0.15914205451E+03 -0.38146687424E+03  0.54318366320E+03  0.00000000000E+00 0.  1.
         13    1    3    3    0    0 -0.58981116692E+03  0.18284590027E+03 -0.36405926576E+03  0.71683261367E+03  0.10566000000E+00 0. -1.
         -4    1    3    3    0  503 -0.21631926322E+02 -0.58615442474E+03 -0.70972982224E+03  0.92073957797E+03  0.00000000000E+00 0. -1.
<mgrwt>
<rscale>  2 0.12349085E+04</rscale>
<asrwt>0</asrwt>
<pdfrwt beam="1">  1       21 0.13224524E+00 0.12363736E+04</pdfrwt>
<pdfrwt beam="2">  1       21 0.30937592E+00 0.12363736E+04</pdfrwt>
<totfact> 0.40084585E+00</totfact>
</mgrwt>
</event>
<event>
 8    1  0.5815007E-006  0.1096258E+04  0.7818608E-02  0.8690416E-01
         21   -1    0    0  501  502  0.00000000000E+00  0.00000000000E+00  0.98960769599E+03  0.98960769599E+03  0.00000000000E+00 0.  1.
         21   -1    0    0  502  503 -0.00000000000E+00 -0.00000000000E+00 -0.12430292569E+04  0.12430292569E+04  0.00000000000E+00 0.  1.
   -9000010    2    1    2    0  503  0.39312779447E+03 -0.24998293083E+03 -0.31557296775E+03  0.11346183085E+04  0.98525706262E+03 0.  0.
    9000010    2    1    2  501    0 -0.39312779447E+03  0.24998293083E+03  0.62151406885E+02  0.10980186444E+04  0.99234128079E+03 0.  0.
        -13    1    4    4    0    0 -0.66442145831E+03  0.48210387693E+02 -0.17045601328E+03  0.68763026356E+03  0.10566000000E+00 0.  1.
          4    1    4    4  501    0  0.27129366384E+03  0.20177254313E+03  0.23260742016E+03  0.41038838083E+03  0.00000000000E+00 0.  1.
         13    1    3    3    0    0  0.54626109080E+03  0.12161258104E+03 -0.44217449874E+03  0.71323845781E+03  0.10566000000E+00 0. -1.
         -4    1    3    3    0  503 -0.15313329633E+03 -0.37159551187E+03  0.12660153099E+03  0.42137985066E+03  0.00000000000E+00 0. -1.
<mgrwt>
<rscale>  2 0.10946526E+04</rscale>
<asrwt>0</asrwt>
<pdfrwt beam="1">  1       21 0.15224734E+00 0.10962582E+04</pdfrwt>
<pdfrwt beam="2">  1       21 0.19123527E+00 0.10962582E+04</pdfrwt>
<totfact> 0.19992225E+01</totfact>
</mgrwt>
</event>
<event>
 8    1  0.5815007E-006  0.1122414E+04  0.7818608E-02  0.8669100E-01
         21   -1    0    0  503  502  0.00000000000E+00  0.00000000000E+00  0.17913307508E+04  0.17913307508E+04  0.00000000000E+00 0.  1.
         21   -1    0    0  501  503 -0.00000000000E+00 -0.00000000000E+00 -0.80607915617E+03  0.80607915617E+03  0.00000000000E+00 0.  1.
    9000010    2    1    2  501    0 -0.49286788742E+03  0.18871460049E+03  0.18846904327E+02  0.11225725004E+04  0.99059671816E+03 0.  0.
   -9000010    2    1    2    0  502  0.49286788742E+03 -0.18871460049E+03  0.96640469032E+03  0.14748374066E+04  0.98116022924E+03 0.  0.
        -13    1    3    3    0    0 -0.28710546073E+03  0.19021094964E+03 -0.47549460978E+03  0.58711573479E+03  0.10566000000E+00 0.  1.
          4    1    3    3  501    0 -0.20576242669E+03 -0.14963491523E+01  0.49434151411E+03  0.53545676564E+03  0.00000000000E+00 0.  1.
         13    1    4    4    0    0  0.33779405792E+03 -0.56343536343E+03  0.80332331196E+03  0.10377343538E+04  0.10566000000E+00 0. -1.
         -4    1    4    4    0  502  0.15507382949E+03  0.37472076295E+03  0.16308137836E+03  0.43710305278E+03  0.00000000000E+00 0. -1.
<mgrwt>
<rscale>  2 0.11203286E+04</rscale>
<asrwt>0</asrwt>
<pdfrwt beam="1">  1       21 0.27558935E+00 0.11224143E+04</pdfrwt>
<pdfrwt beam="2">  1       21 0.12401218E+00 0.11224143E+04</pdfrwt>
<totfact> 0.85828764E+00</totfact>
</mgrwt>
</event>
<event>
 8    1  0.5815007E-006  0.1056346E+04  0.7818608E-02  0.8723983E-01
         21   -1    0    0  501  502  0.00000000000E+00  0.00000000000E+00  0.11225106002E+04  0.11225106002E+04  0.00000000000E+00 0.  1.
         21   -1    0    0  502  503 -0.00000000000E+00 -0.00000000000E+00 -0.99320339232E+03  0.99320339232E+03  0.00000000000E+00 0.  1.
   -9000010    2    1    2    0  503  0.17142625688E+03 -0.29393699721E+03  0.20702921997E+02  0.10538001561E+04  0.99713601782E+03 0.  0.
    9000010    2    1    2  501    0 -0.17142625688E+03  0.29393699721E+03  0.10860428590E+03  0.10619138365E+04  0.10000400919E+04 0.  0.
        -13    1    4    4    0    0  0.27886053185E+03 -0.23086161507E+03  0.74269863346E+02  0.36956231586E+03  0.10566000000E+00 0.  1.
          4    1    4    4  501    0 -0.45028678873E+03  0.52479861227E+03  0.34334422553E+02  0.69235152063E+03  0.00000000000E+00 0.  1.
         13    1    3    3    0    0 -0.33107930499E+03  0.16392138454E+03  0.53003472582E+02  0.37321991610E+03  0.10566000000E+00 0. -1.
         -4    1    3    3    0  503  0.50250556188E+03 -0.45785838174E+03 -0.32300550585E+02  0.68058023995E+03  0.00000000000E+00 0. -1.
<mgrwt>
<rscale>  2 0.10556577E+04</rscale>
<asrwt>0</asrwt>
<pdfrwt beam="1">  1       21 0.17269394E+00 0.10563456E+04</pdfrwt>
<pdfrwt beam="2">  1       21 0.15280052E+00 0.10563456E+04</pdfrwt>
<totfact> 0.28218614E+01</totfact>
</mgrwt>
</event>
<event>
 8    1  0.5815007E-006  0.1008691E+04  0.7818608E-02  0.8767612E-01
         21   -1    0    0  503  502  0.00000000000E+00  0.00000000000E+00  0.95347602178E+03  0.95347602178E+03  0.00000000000E+00 0. -1.
         21   -1    0    0  501  503 -0.00000000000E+00 -0.00000000000E+00 -0.10631384353E+04  0.10631384353E+04  0.00000000000E+00 0. -1.
    9000010    2    1    2  501    0 -0.10330461902E+03  0.90149412655E+02 -0.20771198481E+02  0.10089052366E+04  0.99932956165E+03 0.  0.
   -9000010    2    1    2    0  502  0.10330461902E+03 -0.90149412655E+02 -0.88891215084E+02  0.10077092206E+04  0.99437289996E+03 0.  0.
        -13    1    3    3    0    0 -0.43692940755E+03  0.48767589585E+02 -0.33189087977E+03  0.55085129773E+03  0.10566000000E+00 0.  1.
          4    1    3    3  501    0  0.33362478853E+03  0.41381823070E+02  0.31111968128E+03  0.45805393884E+03  0.00000000000E+00 0.  1.
         13    1    4    4    0    0  0.28692736269E+03  0.25839802560E+03 -0.36125016328E+03  0.52877078467E+03  0.10566000000E+00 0. -1.
         -4    1    4    4    0  502 -0.18362274367E+03 -0.34854743825E+03  0.27235894819E+03  0.47893843588E+03  0.00000000000E+00 0. -1.
<mgrwt>
<rscale>  2 0.10074615E+04</rscale>
<asrwt>0</asrwt>
<pdfrwt beam="1">  1       21 0.14668862E+00 0.10086914E+04</pdfrwt>
<pdfrwt beam="2">  1       21 0.16355976E+00 0.10086914E+04</pdfrwt>
<totfact> 0.38606672E+01</totfact>
</mgrwt>
</event>
<event>
 8    1  0.5815007E-006  0.1050853E+04  0.7818608E-02  0.8731133E-01
         21   -1    0    0  501  502  0.00000000000E+00  0.00000000000E+00  0.10311294755E+04  0.10311294755E+04  0.00000000000E+00 0.  1.
         21   -1    0    0  502  503 -0.00000000000E+00 -0.00000000000E+00 -0.11451760596E+04  0.11451760596E+04  0.00000000000E+00 0.  1.
   -9000010    2    1    2    0  503 -0.25512321550E+03  0.11514030085E+03 -0.35746201505E+03  0.10976291232E+04  0.99933250517E+03 0.  0.
    9000010    2    1    2  501    0  0.25512321550E+03 -0.11514030085E+03  0.24341543098E+03  0.10786764120E+04  0.10128902141E+04 0.  0.
        -13    1    4    4    0    0 -0.33747897454E+03 -0.98555355945E+02 -0.13361197027E+03  0.37610821077E+03  0.10566000000E+00 0.  1.
          4    1    4    4  501    0  0.59260219004E+03 -0.16584944910E+02  0.37702740125E+03  0.70256820120E+03  0.00000000000E+00 0.  1.
         13    1    3    3    0    0  0.57776219886E+02  0.50391805293E+03 -0.45870003572E+02  0.50928927345E+03  0.10566000000E+00 0. -1.
         -4    1    3    3    0  503 -0.31289943538E+03 -0.38877775208E+03 -0.31159201148E+03  0.58833984974E+03  0.00000000000E+00 0. -1.
<mgrwt>
<rscale>  2 0.10475721E+04</rscale>
<asrwt>0</asrwt>
<pdfrwt beam="1">  1       21 0.15863530E+00 0.10508529E+04</pdfrwt>
<pdfrwt beam="2">  1       21 0.17618093E+00 0.10508529E+04</pdfrwt>
<totfact> 0.23503956E+01</totfact>
</mgrwt>
</event>
<event>
 8    1  0.5815007E-006  0.1140016E+04  0.7818608E-02  0.8655711E-01
         21   -1    0    0  503  502  0.00000000000E+00  0.00000000000E+00  0.84319206627E+03  0.84319206627E+03  0.00000000000E+00 0.  1.
         21   -1    0    0  501  503 -0.00000000000E+00 -0.00000000000E+00 -0.15303066624E+04  0.15303066624E+04  0.00000000000E+00 0.  1.
    9000010    2    1    2  501    0  0.31459908283E+03 -0.40305823191E+03 -0.41646142193E+03  0.12017946469E+04  0.10047097770E+04 0.  0.
   -9000010    2    1    2    0  502 -0.31459908283E+03  0.40305823191E+03 -0.27065317416E+03  0.11717040817E+04  0.10189253129E+04 0.  0.
        -13    1    3    3    0    0  0.61326984143E+03 -0.17285533945E+03  0.37727387528E+01  0.63717588742E+03  0.10566000000E+00 0.  1.
          4    1    3    3  501    0 -0.29867075860E+03 -0.23020289246E+03 -0.42023416068E+03  0.56461875947E+03  0.00000000000E+00 0.  1.
         13    1    4    4    0    0 -0.46449066640E+03  0.86692806696E+02  0.25745671445E+03  0.53809961242E+03  0.10566000000E+00 0. -1.
         -4    1    4    4    0  502  0.14989158357E+03  0.31636542522E+03 -0.52810988861E+03  0.63360446932E+03  0.00000000000E+00 0. -1.
<mgrwt>
<rscale>  2 0.11368312E+04</rscale>
<asrwt>0</asrwt>
<pdfrwt beam="1">  1       21 0.12972186E+00 0.11400164E+04</pdfrwt>
<pdfrwt beam="2">  1       21 0.23543179E+00 0.11400164E+04</pdfrwt>
<totfact> 0.14698608E+01</totfact>
</mgrwt>
</event>
<event>
 8    1  0.5815007E-006  0.1019650E+04  0.7818608E-02  0.8759536E-01
         21   -1    0    0  503  502  0.00000000000E+00  0.00000000000E+00  0.49311929005E+03  0.49311929005E+03  0.00000000000E+00 0. -1.
         21   -1    0    0  501  503 -0.00000000000E+00 -0.00000000000E+00 -0.20811075758E+04  0.20811075758E+04  0.00000000000E+00 0. -1.
    9000010    2    1    2  501    0 -0.16259982532E+03  0.31361994877E+01 -0.83001390749E+03  0.13147654608E+04  0.10065965385E+04 0.  0.
   -9000010    2    1    2    0  502  0.16259982532E+03 -0.31361994877E+01 -0.75797437827E+03  0.12594614051E+04  0.99260734121E+03 0.  0.
        -13    1    3    3    0    0 -0.34159033699E+03  0.22701981034E+02 -0.10062028459E+04  0.10628468924E+04  0.10566000000E+00 0.  1.
          4    1    3    3  501    0  0.17899051167E+03 -0.19565781546E+02  0.17618893845E+03  0.25191856841E+03  0.00000000000E+00 0.  1.
         13    1    4    4    0    0 -0.37914917421E+03 -0.40260529191E+01 -0.57282072434E+03  0.68694533902E+03  0.10566000000E+00 0. -1.
         -4    1    4    4    0  502  0.54174899952E+03  0.88985343140E+00 -0.18515365392E+03  0.57251606605E+03  0.00000000000E+00 0. -1.
<mgrwt>
<rscale>  2 0.10161799E+04</rscale>
<asrwt>0</asrwt>
<pdfrwt beam="1">  1       21 0.75864507E-01 0.10196495E+04</pdfrwt>
<pdfrwt beam="2">  1       21 0.32017039E+00 0.10196495E+04</pdfrwt>
<totfact> 0.15304449E+01</totfact>
</mgrwt>
</event>
<event>
 8    1  0.5815007E-006  0.1519050E+04  0.7818608E-02  0.8399265E-01
         21   -1    0    0  501  502  0.00000000000E+00  0.00000000000E+00  0.14078043040E+04  0.14078043040E+04  0.00000000000E+00 0.  1.
         21   -1    0    0  502  503 -0.00000000000E+00 -0.00000000000E+00 -0.21564642688E+04  0.21564642688E+04  0.00000000000E+00 0.  1.
   -9000010    2    1    2    0  503 -0.11325223581E+04 -0.48185625919E+02 -0.12509515052E+04  0.19643282164E+04  0.10043788763E+04 0.  0.
    9000010    2    1    2  501    0  0.11325223581E+04  0.48185625919E+02  0.50229154041E+03  0.15999403565E+04  0.10112287608E+04 0.  0.
        -13    1    4    4    0    0  0.77154278222E+03  0.11226658053E+03 -0.20246377967E+03  0.80552693508E+03  0.10566000000E+00 0.  1.
          4    1    4    4  501    0  0.36097957588E+03 -0.64080954615E+02  0.70475532009E+03  0.79441342142E+03  0.00000000000E+00 0.  1.
         13    1    3    3    0    0 -0.62516492384E+03 -0.86737154646E+02 -0.19003902590E+02  0.63143936801E+03  0.10566000000E+00 0. -1.
         -4    1    3    3    0  503 -0.50735743425E+03  0.38551528727E+02 -0.12319476026E+04  0.13328888484E+04  0.00000000000E+00 0. -1.
<mgrwt>
<rscale>  2 0.15179107E+04</rscale>
<asrwt>0</asrwt>
<pdfrwt beam="1">  1       21 0.21658528E+00 0.15190498E+04</pdfrwt>
<pdfrwt beam="2">  1       21 0.33176373E+00 0.15190498E+04</pdfrwt>
<totfact> 0.51558722E-01</totfact>
</mgrwt>
</event>
<event>
 8    1  0.5815007E-006  0.1683363E+04  0.7818608E-02  0.8317157E-01
         21   -1    0    0  503  502  0.00000000000E+00  0.00000000000E+00  0.13952090466E+04  0.13952090466E+04  0.00000000000E+00 0. -1.
         21   -1    0    0  501  503 -0.00000000000E+00 -0.00000000000E+00 -0.20034763842E+04  0.20034763842E+04  0.00000000000E+00 0.  1.
    9000010    2    1    2  501    0 -0.12298171342E+04 -0.41416370824E+03 -0.50494404302E+03  0.17121540984E+04  0.99625368720E+03 0.  0.
   -9000010    2    1    2    0  502  0.12298171342E+04  0.41416370824E+03 -0.10332329460E+03  0.16865313325E+04  0.10722548537E+04 0.  0.
        -13    1    3    3    0    0 -0.74377956943E+02 -0.39520824631E+03 -0.37397396161E+03  0.54916133654E+03  0.10566000000E+00 0.  1.
          4    1    3    3  501    0 -0.11554391773E+04 -0.18955461930E+02 -0.13097008142E+03  0.11629927619E+04  0.00000000000E+00 0.  1.
         13    1    4    4    0    0  0.12756353460E+03  0.48981865330E+03  0.19451098172E+03  0.54224468799E+03  0.10566000000E+00 0. -1.
         -4    1    4    4    0  502  0.11022535996E+04 -0.75654945060E+02 -0.29783427632E+03  0.11442866445E+04  0.00000000000E+00 0. -1.
<mgrwt>
<rscale>  2 0.16713961E+04</rscale>
<asrwt>0</asrwt>
<pdfrwt beam="1">  1       21 0.21464755E+00 0.16833634E+04</pdfrwt>
<pdfrwt beam="2">  1       21 0.30822713E+00 0.16833634E+04</pdfrwt>
<totfact> 0.75989276E-01</totfact>
</mgrwt>
</event>
<event>
 8    1  0.5815007E-006  0.1027444E+04  0.7818608E-02  0.8753429E-01
         21   -1    0    0  503  502  0.00000000000E+00  0.00000000000E+00  0.43567620900E+03  0.43567620900E+03  0.00000000000E+00 0. -1.
         21   -1    0    0  501  503 -0.00000000000E+00 -0.00000000000E+00 -0.23809020454E+04  0.23809020454E+04  0.00000000000E+00 0. -1.
    9000010    2    1    2  501    0 -0.28672535690E+03 -0.89280207787E+02 -0.99142367772E+03  0.14146583438E+04  0.96340797964E+03 0.  0.
   -9000010    2    1    2    0  502  0.28672535690E+03  0.89280207787E+02 -0.95380215869E+03  0.14019199106E+04  0.98257747377E+03 0.  0.
        -13    1    3    3    0    0 -0.36756958556E+03 -0.12003599265E+03  0.31620769954E+02  0.38796381793E+03  0.10566000000E+00 0.  1.
          4    1    3    3  501    0  0.80844228663E+02  0.30755784863E+02 -0.10230444477E+04  0.10266945259E+04  0.00000000000E+00 0.  1.
         13    1    4    4    0    0 -0.24708149155E+03 -0.18418014773E+03 -0.67189132043E+03  0.73919520285E+03  0.10566000000E+00 0. -1.
         -4    1    4    4    0  502  0.53380684846E+03  0.27346035552E+03 -0.28191083826E+03  0.66272470773E+03  0.00000000000E+00 0. -1.
<mgrwt>
<rscale>  2 0.10228337E+04</rscale>
<asrwt>0</asrwt>
<pdfrwt beam="1">  1       21 0.67027109E-01 0.10274439E+04</pdfrwt>
<pdfrwt beam="2">  1       21 0.36629262E+00 0.10274439E+04</pdfrwt>
<totfact> 0.97378093E+00</totfact>
</mgrwt>
</event>
<event>
 8    1  0.5815007E-006  0.1399614E+04  0.7818608E-02  0.8469985E-01
         21   -1    0    0  503  502  0.00000000000E+00  0.00000000000E+00  0.18523035970E+04  0.18523035970E+04  0.00000000000E+00 0. -1.
         21   -1    0    0  501  503 -0.00000000000E+00 -0.00000000000E+00 -0.10601778988E+04  0.10601778988E+04  0.00000000000E+00 0.  1.
    9000010    2    1    2  501    0  0.94201597223E+03 -0.28351239062E+03  0.48456545130E+03  0.14811223540E+04  0.99556334972E+03 0.  0.
   -9000010    2    1    2    0  502 -0.94201597223E+03  0.28351239062E+03  0.30756024687E+03  0.14313591418E+04  0.99318795790E+03 0.  0.
        -13    1    3    3    0    0 -0.19960468961E+03 -0.87560305178E+02  0.18195557344E+03  0.28393076802E+03  0.10566000000E+00 0.  1.
          4    1    3    3  501    0  0.11416206618E+04 -0.19595208544E+03  0.30260987786E+03  0.11971915860E+04  0.00000000000E+00 0.  1.
         13    1    4    4    0    0 -0.54630320661E+03  0.64118116287E+03  0.63409618841E+02  0.84473739594E+03  0.10566000000E+00 0. -1.
         -4    1    4    4    0  502 -0.39571276562E+03 -0.35766877225E+03  0.24415062803E+03  0.58662174584E+03  0.00000000000E+00 0. -1.
<mgrwt>
<rscale>  2 0.13991918E+04</rscale>
<asrwt>0</asrwt>
<pdfrwt beam="1">  1       21 0.28496978E+00 0.13996141E+04</pdfrwt>
<pdfrwt beam="2">  1       21 0.16310429E+00 0.13996141E+04</pdfrwt>
<totfact> 0.30413936E+00</totfact>
</mgrwt>
</event>
<event>
 8    1  0.5815007E-006  0.1116926E+04  0.7818608E-02  0.8673461E-01
         21   -1    0    0  501  502  0.00000000000E+00  0.00000000000E+00  0.77521170753E+03  0.77521170753E+03  0.00000000000E+00 0.  1.
         21   -1    0    0  502  503 -0.00000000000E+00 -0.00000000000E+00 -0.16109180994E+04  0.16109180994E+04  0.00000000000E+00 0.  1.
   -9000010    2    1    2    0  503 -0.37789812389E+03  0.31176017656E+03 -0.52481394318E+03  0.12340797966E+04  0.10037538890E+04 0.  0.
    9000010    2    1    2  501    0  0.37789812389E+03 -0.31176017656E+03 -0.31089244869E+03  0.11520500103E+04  0.99527067269E+03 0.  0.
        -13    1    4    4    0    0 -0.10320829390E+03  0.13420826676E+03  0.24116474573E+03  0.29465956042E+03  0.10566000000E+00 0.  1.
          4    1    4    4  501    0  0.48110641780E+03 -0.44596844332E+03 -0.55205719442E+03  0.85739044991E+03  0.00000000000E+00 0.  1.
         13    1    3    3    0    0 -0.61334270184E+03 -0.74244696203E+02 -0.47477730714E+03  0.77917587704E+03  0.10566000000E+00 0. -1.
         -4    1    3    3    0  503  0.23544457795E+03  0.38600487277E+03 -0.50036636039E+02  0.45490391956E+03  0.00000000000E+00 0. -1.
<mgrwt>
<rscale>  2 0.11150166E+04</rscale>
<asrwt>0</asrwt>
<pdfrwt beam="1">  1       21 0.11926334E+00 0.11169258E+04</pdfrwt>
<pdfrwt beam="2">  1       21 0.24783355E+00 0.11169258E+04</pdfrwt>
<totfact> 0.15209620E+01</totfact>
</mgrwt>
</event>
<event>
 8    1  0.5815007E-006  0.1131910E+04  0.7818608E-02  0.8660547E-01
         21   -1    0    0  503  502  0.00000000000E+00  0.00000000000E+00  0.82228415969E+03  0.82228415969E+03  0.00000000000E+00 0.  1.
         21   -1    0    0  501  503 -0.00000000000E+00 -0.00000000000E+00 -0.16641782700E+04  0.16641782700E+04  0.00000000000E+00 0.  1.
    9000010    2    1    2  501    0  0.46675731120E+03 -0.16999506484E+03 -0.74414569742E+03  0.13546121486E+04  0.10170843350E+04 0.  0.
   -9000010    2    1    2    0  502 -0.46675731120E+03  0.16999506484E+03 -0.97748412843E+02  0.11318502811E+04  0.10123090422E+04 0.  0.
        -13    1    3    3    0    0  0.18567650729E+03  0.22000534916E+03 -0.81896337133E+03  0.86808935817E+03  0.10566000000E+00 0.  1.
          4    1    3    3  501    0  0.28108080390E+03 -0.39000041401E+03  0.74817673911E+02  0.48652279040E+03  0.00000000000E+00 0.  1.
         13    1    4    4    0    0 -0.33177936982E+02 -0.33861546573E+03  0.20598454042E+03  0.39773213497E+03  0.10566000000E+00 0. -1.
         -4    1    4    4    0  502 -0.43357937422E+03  0.50861053057E+03 -0.30373295326E+03  0.73411814611E+03  0.00000000000E+00 0. -1.
<mgrwt>
<rscale>  2 0.11308367E+04</rscale>
<asrwt>0</asrwt>
<pdfrwt beam="1">  1       21 0.12650526E+00 0.11319104E+04</pdfrwt>
<pdfrwt beam="2">  1       21 0.25602742E+00 0.11319104E+04</pdfrwt>
<totfact> 0.11188189E+01</totfact>
</mgrwt>
</event>
<event>
 8    1  0.5815007E-006  0.1054612E+04  0.7818608E-02  0.8726175E-01
         21   -1    0    0  501  502  0.00000000000E+00  0.00000000000E+00  0.80601029282E+03  0.80601029282E+03  0.00000000000E+00 0. -1.
         21   -1    0    0  502  503 -0.00000000000E+00 -0.00000000000E+00 -0.13728015676E+04  0.13728015676E+04  0.00000000000E+00 0. -1.
   -9000010    2    1    2    0  503  0.32186068715E+03 -0.27222201946E+02 -0.26347688699E+03  0.10814482845E+04  0.99788524984E+03 0.  0.
    9000010    2    1    2  501    0 -0.32186068715E+03  0.27222201946E+02 -0.30331438781E+03  0.10973635760E+04  0.10039282095E+04 0.  0.
        -13    1    4    4    0    0 -0.48472800699E+03 -0.30508201038E+03  0.63559706271E+02  0.57626046302E+03  0.10566000000E+00 0.  1.
          4    1    4    4  501    0  0.16286731984E+03  0.33230421233E+03 -0.36687409408E+03  0.52110311293E+03  0.00000000000E+00 0.  1.
         13    1    3    3    0    0 -0.44840785202E+02  0.16420634145E+03 -0.55164491324E+03  0.57730974361E+03  0.10566000000E+00 0. -1.
         -4    1    3    3    0  503  0.36670147236E+03 -0.19142854340E+03  0.28816802625E+03  0.50413854089E+03  0.00000000000E+00 0. -1.
<mgrwt>
<rscale>  2 0.10531717E+04</rscale>
<asrwt>0</asrwt>
<pdfrwt beam="1">  1       21 0.12400158E+00 0.10546123E+04</pdfrwt>
<pdfrwt beam="2">  1       21 0.21120024E+00 0.10546123E+04</pdfrwt>
<totfact> 0.25901486E+01</totfact>
</mgrwt>
</event>
<event>
 8    1  0.5815007E-006  0.1048001E+04  0.7818608E-02  0.8734354E-01
         21   -1    0    0  503  502  0.00000000000E+00  0.00000000000E+00  0.61627095123E+03  0.61627095123E+03  0.00000000000E+00 0.  1.
         21   -1    0    0  501  503 -0.00000000000E+00 -0.00000000000E+00 -0.17560672149E+04  0.17560672149E+04  0.00000000000E+00 0.  1.
    9000010    2    1    2  501    0  0.20847297266E+03  0.13525694446E+03 -0.59588350287E+03  0.11915977364E+04  0.10015351193E+04 0.  0.
   -9000010    2    1    2    0  502 -0.20847297266E+03 -0.13525694446E+03 -0.54391276082E+03  0.11807404297E+04  0.10181117078E+04 0.  0.
        -13    1    3    3    0    0  0.55526129940E+03 -0.15338327074E+03 -0.27771868459E+03  0.63950701113E+03  0.10566000000E+00 0.  1.
          4    1    3    3  501    0 -0.34678832674E+03  0.28864021519E+03 -0.31816481828E+03  0.55209072532E+03  0.00000000000E+00 0.  1.
         13    1    4    4    0    0 -0.40869147682E+03  0.18386160467E+03 -0.64985844969E+03  0.78939839668E+03  0.10566000000E+00 0. -1.
         -4    1    4    4    0  502  0.20021850416E+03 -0.31911854912E+03  0.10594568887E+03  0.39134203300E+03  0.00000000000E+00 0. -1.
<mgrwt>
<rscale>  2 0.10439539E+04</rscale>
<asrwt>0</asrwt>
<pdfrwt beam="1">  1       21 0.94810916E-01 0.10480014E+04</pdfrwt>
<pdfrwt beam="2">  1       21 0.27016418E+00 0.10480014E+04</pdfrwt>
<totfact> 0.19683626E+01</totfact>
</mgrwt>
</event>
<event>
 8    1  0.5815007E-006  0.1019329E+04  0.7818608E-02  0.8758083E-01
         21   -1    0    0  503  502  0.00000000000E+00  0.00000000000E+00  0.62923254398E+03  0.62923254398E+03  0.00000000000E+00 0. -1.
         21   -1    0    0  501  503 -0.00000000000E+00 -0.00000000000E+00 -0.16601405706E+04  0.16601405706E+04  0.00000000000E+00 0. -1.
    9000010    2    1    2  501    0 -0.14848854319E+03 -0.55041647019E+02 -0.63951538423E+03  0.12033334543E+04  0.10069523550E+04 0.  0.
   -9000010    2    1    2    0  502  0.14848854319E+03  0.55041647019E+02 -0.39139264241E+03  0.10860396603E+04  0.10006075718E+04 0.  0.
        -13    1    3    3    0    0  0.40721635820E+03  0.60987838114E+02 -0.43744782629E+03  0.60075393522E+03  0.10566000000E+00 0.  1.
          4    1    3    3  501    0 -0.55570490140E+03 -0.11602948513E+03 -0.20206755793E+03  0.60257951909E+03  0.00000000000E+00 0.  1.
         13    1    4    4    0    0 -0.37855706829E+03  0.13191270494E+03  0.36900744321E+02  0.40257681475E+03  0.10566000000E+00 0. -1.
         -4    1    4    4    0  502  0.52704561148E+03 -0.76871057923E+02 -0.42829338673E+03  0.68346284555E+03  0.00000000000E+00 0. -1.
<mgrwt>
<rscale>  2 0.10177585E+04</rscale>
<asrwt>0</asrwt>
<pdfrwt beam="1">  1       21 0.96805009E-01 0.10193289E+04</pdfrwt>
<pdfrwt beam="2">  1       21 0.25540623E+00 0.10193289E+04</pdfrwt>
<totfact> 0.23985286E+01</totfact>
</mgrwt>
</event>
<event>
 8    1  0.5815007E-006  0.1115735E+04  0.7818608E-02  0.8674208E-01
         21   -1    0    0  501  502  0.00000000000E+00  0.00000000000E+00  0.93594904893E+03  0.93594904893E+03  0.00000000000E+00 0. -1.
         21   -1    0    0  502  503 -0.00000000000E+00 -0.00000000000E+00 -0.18954780288E+04  0.18954780288E+04  0.00000000000E+00 0. -1.
   -9000010    2    1    2    0  503 -0.30171261832E+03 -0.38027377751E+03 -0.12572699334E+04  0.16766477920E+04  0.99738732863E+03 0.  0.
    9000010    2    1    2  501    0  0.30171261832E+03  0.38027377751E+03  0.29774095345E+03  0.11547792857E+04  0.10046028436E+04 0.  0.
        -13    1    4    4    0    0  0.34730603103E+03  0.65388808306E+03  0.42046249304E+03  0.85145747021E+03  0.10566000000E+00 0.  1.
          4    1    4    4  501    0 -0.45593412715E+02 -0.27361430555E+03 -0.12272153959E+03  0.30332181551E+03  0.00000000000E+00 0.  1.
         13    1    3    3    0    0 -0.30350431684E+03 -0.71326367825E+03 -0.91314940003E+03  0.11977903752E+04  0.10566000000E+00 0. -1.
         -4    1    3    3    0  503  0.17916985243E+01  0.33298990074E+03 -0.34412053332E+03  0.47885741681E+03  0.00000000000E+00 0. -1.
<mgrwt>
<rscale>  2 0.11141088E+04</rscale>
<asrwt>0</asrwt>
<pdfrwt beam="1">  1       21 0.14399216E+00 0.11157354E+04</pdfrwt>
<pdfrwt beam="2">  1       21 0.29161200E+00 0.11157354E+04</pdfrwt>
<totfact> 0.42691323E+00</totfact>
</mgrwt>
</event>
<event>
 8    1  0.5815007E-006  0.1177250E+04  0.7818608E-02  0.8624672E-01
         21   -1    0    0  503  502  0.00000000000E+00  0.00000000000E+00  0.11124313894E+04  0.11124313894E+04  0.00000000000E+00 0.  1.
         21   -1    0    0  501  503 -0.00000000000E+00 -0.00000000000E+00 -0.12418389284E+04  0.12418389284E+04  0.00000000000E+00 0.  1.
    9000010    2    1    2  501    0  0.53616659701E+03  0.28712175000E+03 -0.47563607706E+02  0.11741789356E+04  0.10032548813E+04 0.  0.
   -9000010    2    1    2    0  502 -0.53616659701E+03 -0.28712175000E+03 -0.81843931294E+02  0.11800913823E+04  0.10079701000E+04 0.  0.
        -13    1    3    3    0    0  0.66416917378E+03 -0.16443377939E+03  0.77115762118E+02  0.68855356446E+03  0.10566000000E+00 0.  1.
          4    1    3    3  501    0 -0.12800257677E+03  0.45155552939E+03 -0.12467936982E+03  0.48562537109E+03  0.00000000000E+00 0.  1.
         13    1    4    4    0    0 -0.60501699354E+03  0.60626643738E+02 -0.37987717647E+03  0.71695734376E+03  0.10566000000E+00 0. -1.
         -4    1    4    4    0  502  0.68850396535E+02 -0.34774839374E+03  0.29803324518E+03  0.46313403857E+03  0.00000000000E+00 0. -1.
<mgrwt>
<rscale>  2 0.11762399E+04</rscale>
<asrwt>0</asrwt>
<pdfrwt beam="1">  1       21 0.17114329E+00 0.11772499E+04</pdfrwt>
<pdfrwt beam="2">  1       21 0.19105214E+00 0.11772499E+04</pdfrwt>
<totfact> 0.13562879E+01</totfact>
</mgrwt>
</event>
<event>
 8    1  0.5815007E-006  0.1079393E+04  0.7818608E-02  0.8704687E-01
         21   -1    0    0  501  502  0.00000000000E+00  0.00000000000E+00  0.45055507594E+03  0.45055507594E+03  0.00000000000E+00 0. -1.
         21   -1    0    0  502  503 -0.00000000000E+00 -0.00000000000E+00 -0.26088746593E+04  0.26088746593E+04  0.00000000000E+00 0.  1.
   -9000010    2    1    2    0  503 -0.36655760522E+03  0.11460465675E+03 -0.12658057659E+04  0.16635364949E+04  0.10087570212E+04 0.  0.
    9000010    2    1    2  501    0  0.36655760522E+03 -0.11460465675E+03 -0.89251381745E+03  0.13958932403E+04  0.10022167024E+04 0.  0.
        -13    1    4    4    0    0 -0.24097214947E+03  0.11932906823E+01  0.70775783066E+02  0.25115378436E+03  0.10566000000E+00 0.  1.
          4    1    4    4  501    0  0.60752975469E+03 -0.11579794743E+03 -0.96328960051E+03  0.11447394559E+04  0.00000000000E+00 0.  1.
         13    1    3    3    0    0 -0.23305875177E+03  0.52711935160E+03 -0.10022272348E+04  0.11561274298E+04  0.10566000000E+00 0. -1.
         -4    1    3    3    0  503 -0.13349885345E+03 -0.41251469486E+03 -0.26357853112E+03  0.50740906517E+03  0.00000000000E+00 0. -1.
<mgrwt>
<rscale>  2 0.10778624E+04</rscale>
<asrwt>0</asrwt>
<pdfrwt beam="1">  1       21 0.69316166E-01 0.10793931E+04</pdfrwt>
<pdfrwt beam="2">  1       21 0.40136533E+00 0.10793931E+04</pdfrwt>
<totfact> 0.50550272E+00</totfact>
</mgrwt>
</event>
<event>
 8    1  0.5815007E-006  0.1016053E+04  0.7818608E-02  0.8761603E-01
         21   -1    0    0  503  502  0.00000000000E+00  0.00000000000E+00  0.67390468731E+03  0.67390468731E+03  0.00000000000E+00 0.  1.
         21   -1    0    0  501  503 -0.00000000000E+00 -0.00000000000E+00 -0.15193186343E+04  0.15193186343E+04  0.00000000000E+00 0.  1.
    9000010    2    1    2  501    0  0.11962134726E+03 -0.17326710060E+03 -0.41308309621E+03  0.10890164654E+04  0.98538746827E+03 0.  0.
   -9000010    2    1    2    0  502 -0.11962134726E+03  0.17326710060E+03 -0.43233085082E+03  0.11042068563E+04  0.99399801910E+03 0.  0.
        -13    1    3    3    0    0  0.45227963123E+03  0.18637872429E+03 -0.33509281073E+03  0.59294274315E+03  0.10566000000E+00 0.  1.
          4    1    3    3  501    0 -0.33265828397E+03 -0.35964582490E+03 -0.77990285481E+02  0.49607372223E+03  0.00000000000E+00 0.  1.
         13    1    4    4    0    0 -0.99860567222E+02  0.38998383616E+03 -0.67020105015E+03  0.78181134818E+03  0.10566000000E+00 0. -1.
         -4    1    4    4    0  502 -0.19760780038E+02 -0.21671673556E+03  0.23787019934E+03  0.32239550808E+03  0.00000000000E+00 0. -1.
<mgrwt>
<rscale>  2 0.10139405E+04</rscale>
<asrwt>0</asrwt>
<pdfrwt beam="1">  1       21 0.10367765E+00 0.10160526E+04</pdfrwt>
<pdfrwt beam="2">  1       21 0.23374133E+00 0.10160526E+04</pdfrwt>
<totfact> 0.28884246E+01</totfact>
</mgrwt>
</event>
<event>
 8    1  0.5815007E-006  0.1136605E+04  0.7818608E-02  0.8663174E-01
         21   -1    0    0  501  502  0.00000000000E+00  0.00000000000E+00  0.12828921180E+04  0.12828921180E+04  0.00000000000E+00 0.  1.
         21   -1    0    0  502  503 -0.00000000000E+00 -0.00000000000E+00 -0.98706561630E+03  0.98706561630E+03  0.00000000000E+00 0.  1.
   -9000010    2    1    2    0  503 -0.39216344727E+03  0.18878536773E+03  0.23807657821E+02  0.11012554595E+04  0.10113182971E+04 0.  0.
    9000010    2    1    2  501    0  0.39216344727E+03 -0.18878536773E+03  0.27201884387E+03  0.11687022747E+04  0.10499707954E+04 0.  0.
        -13    1    4    4    0    0 -0.20378042603E+03 -0.31891927388E+03 -0.17050848703E+03  0.41510133775E+03  0.10566000000E+00 0.  1.
          4    1    4    4  501    0  0.59594387331E+03  0.13013390615E+03  0.44252733089E+03  0.75360093700E+03  0.00000000000E+00 0.  1.
         13    1    3    3    0    0 -0.59175173060E+03 -0.39276281148E+02 -0.29415521521E+03  0.66199700810E+03  0.10566000000E+00 0. -1.
         -4    1    3    3    0  503  0.19958828333E+03  0.22806164888E+03  0.31796287303E+03  0.43925845144E+03  0.00000000000E+00 0. -1.
<mgrwt>
<rscale>  2 0.11275967E+04</rscale>
<asrwt>0</asrwt>
<pdfrwt beam="1">  1       21 0.19736802E+00 0.11366049E+04</pdfrwt>
<pdfrwt beam="2">  1       21 0.15185625E+00 0.11366049E+04</pdfrwt>
<totfact> 0.17869508E+01</totfact>
</mgrwt>
</event>
<event>
 8    1  0.5815007E-006  0.1215409E+04  0.7818608E-02  0.8619835E-01
         21   -1    0    0  503  502  0.00000000000E+00  0.00000000000E+00  0.24661426797E+04  0.24661426797E+04  0.00000000000E+00 0.  1.
         21   -1    0    0  501  503 -0.00000000000E+00 -0.00000000000E+00 -0.55227092734E+03  0.55227092734E+03  0.00000000000E+00 0.  1.
    9000010    2    1    2  501    0  0.32936266311E+03  0.23902590807E+03  0.66684965551E+03  0.12770681550E+04  0.10102482175E+04 0.  0.
   -9000010    2    1    2    0  502 -0.32936266311E+03 -0.23902590807E+03  0.12470220968E+04  0.17413454520E+04  0.11452540001E+04 0.  0.
        -13    1    3    3    0    0  0.25366561443E+03 -0.28736050845E+03 -0.47786920630E+02  0.38627180418E+03  0.10566000000E+00 0.  1.
          4    1    3    3  501    0  0.75697048682E+02  0.52638641652E+03  0.71463657614E+03  0.89079635081E+03  0.00000000000E+00 0.  1.
         13    1    4    4    0    0  0.35846017672E+03  0.11516689751E+03  0.69668002186E+03  0.79190919719E+03  0.10566000000E+00 0. -1.
         -4    1    4    4    0  502 -0.68782283983E+03 -0.35419280558E+03  0.55034207499E+03  0.94943625485E+03  0.00000000000E+00 0. -1.
<mgrwt>
<rscale>  2 0.11825305E+04</rscale>
<asrwt>0</asrwt>
<pdfrwt beam="1">  1       21 0.37940656E+00 0.12154093E+04</pdfrwt>
<pdfrwt beam="2">  1       21 0.84964759E-01 0.12154093E+04</pdfrwt>
<totfact> 0.42734674E+00</totfact>
</mgrwt>
</event>
<event>
 8    1  0.5815007E-006  0.1292061E+04  0.7818608E-02  0.8541464E-01
         21   -1    0    0  501  502  0.00000000000E+00  0.00000000000E+00  0.17725411138E+04  0.17725411138E+04  0.00000000000E+00 0.  1.
         21   -1    0    0  502  503 -0.00000000000E+00 -0.00000000000E+00 -0.93745947144E+03  0.93745947144E+03  0.00000000000E+00 0.  1.
   -9000010    2    1    2    0  503  0.78819265269E+03  0.18075985634E+03  0.38210174427E+03  0.13408360753E+04  0.99895838468E+03 0.  0.
    9000010    2    1    2  501    0 -0.78819265269E+03 -0.18075985634E+03  0.45297989808E+03  0.13691645100E+04  0.10077196455E+04 0.  0.
        -13    1    4    4    0    0 -0.65701402538E+03 -0.44303077818E+03  0.64235871815E+03  0.10200825623E+04  0.10566000000E+00 0.  1.
          4    1    4    4  501    0 -0.13117862730E+03  0.26227092184E+03 -0.18937882007E+03  0.34908194768E+03  0.00000000000E+00 0.  1.
         13    1    3    3    0    0 -0.18399355424E+02 -0.16237791684E+03 -0.22245279362E+03  0.27602605079E+03  0.10566000000E+00 0. -1.
         -4    1    3    3    0  503  0.80659200811E+03  0.34313777318E+03  0.60455453789E+03  0.10648100245E+04  0.00000000000E+00 0. -1.
<mgrwt>
<rscale>  2 0.12903519E+04</rscale>
<asrwt>0</asrwt>
<pdfrwt beam="1">  1       21 0.27269863E+00 0.12920606E+04</pdfrwt>
<pdfrwt beam="2">  1       21 0.14422453E+00 0.12920606E+04</pdfrwt>
<totfact> 0.55822455E+00</totfact>
</mgrwt>
</event>
<event>
 8    1  0.5815007E-006  0.1080834E+04  0.7818608E-02  0.8703381E-01
         21   -1    0    0  503  502  0.00000000000E+00  0.00000000000E+00  0.15687296976E+04  0.15687296976E+04  0.00000000000E+00 0. -1.
         21   -1    0    0  501  503 -0.00000000000E+00 -0.00000000000E+00 -0.74807739360E+03  0.74807739360E+03  0.00000000000E+00 0. -1.
    9000010    2    1    2  501    0  0.79584332937E+02  0.38647740466E+03  0.52642820284E+03  0.12022180261E+04  0.10062321199E+04 0.  0.
   -9000010    2    1    2    0  502 -0.79584332937E+02 -0.38647740466E+03  0.29422410114E+03  0.11145890651E+04  0.10000212558E+04 0.  0.
        -13    1    3    3    0    0 -0.23204999376E+03  0.30984295417E+03 -0.17955319956E+03  0.42671913303E+03  0.10566000000E+00 0.  1.
          4    1    3    3  501    0  0.31163432670E+03  0.76634450489E+02  0.70598140240E+03  0.77549889304E+03  0.00000000000E+00 0.  1.
         13    1    4    4    0    0  0.17891085471E+03 -0.48910304472E+03  0.53506867149E+03  0.74667889796E+03  0.10566000000E+00 0. -1.
         -4    1    4    4    0  502 -0.25849518764E+03  0.10262564005E+03 -0.24084457035E+03  0.36791016716E+03  0.00000000000E+00 0. -1.
<mgrwt>
<rscale>  2 0.10793859E+04</rscale>
<asrwt>0</asrwt>
<pdfrwt beam="1">  1       21 0.24134303E+00 0.10808337E+04</pdfrwt>
<pdfrwt beam="2">  1       21 0.11508883E+00 0.10808337E+04</pdfrwt>
<totfact> 0.18875038E+01</totfact>
</mgrwt>
</event>
<event>
 8    1  0.5815007E-006  0.1126069E+04  0.7818608E-02  0.8665605E-01
         21   -1    0    0  503  502  0.00000000000E+00  0.00000000000E+00  0.83666243156E+03  0.83666243156E+03  0.00000000000E+00 0. -1.
         21   -1    0    0  501  503 -0.00000000000E+00 -0.00000000000E+00 -0.15097460720E+04  0.15097460720E+04  0.00000000000E+00 0. -1.
    9000010    2    1    2  501    0  0.51176975036E+03 -0.83910840984E+02 -0.29465150344E+03  0.11639803319E+04  0.99954059348E+03 0.  0.
   -9000010    2    1    2    0  502 -0.51176975036E+03  0.83910840984E+02 -0.37843213702E+03  0.11824281716E+04  0.99296333877E+03 0.  0.
        -13    1    3    3    0    0 -0.26896423287E+03  0.11822234896E+03 -0.19205792399E+03  0.35100504226E+03  0.10566000000E+00 0.  1.
          4    1    3    3  501    0  0.78073398324E+03 -0.20213318995E+03 -0.10259357944E+03  0.81297528966E+03  0.00000000000E+00 0.  1.
         13    1    4    4    0    0 -0.35274103412E+03 -0.29860226827E+03  0.17235078465E+03  0.49324877689E+03  0.10566000000E+00 0. -1.
         -4    1    4    4    0  502 -0.15902871625E+03  0.38251310926E+03 -0.55078292167E+03  0.68917939475E+03  0.00000000000E+00 0. -1.
<mgrwt>
<rscale>  2 0.11246073E+04</rscale>
<asrwt>0</asrwt>
<pdfrwt beam="1">  1       21 0.12871730E+00 0.11260687E+04</pdfrwt>
<pdfrwt beam="2">  1       21 0.23226863E+00 0.11260687E+04</pdfrwt>
<totfact> 0.15912620E+01</totfact>
</mgrwt>
</event>
<event>
 8    1  0.5815007E-006  0.1097682E+04  0.7818608E-02  0.8689022E-01
         21   -1    0    0  503  502  0.00000000000E+00  0.00000000000E+00  0.13682290342E+04  0.13682290342E+04  0.00000000000E+00 0. -1.
         21   -1    0    0  501  503 -0.00000000000E+00 -0.00000000000E+00 -0.12640898194E+04  0.12640898194E+04  0.00000000000E+00 0. -1.
    9000010    2    1    2  501    0  0.39784869769E+03 -0.20480427562E+03 -0.67705805766E+03  0.12850347112E+04  0.99633238328E+03 0.  0.
   -9000010    2    1    2    0  502 -0.39784869769E+03  0.20480427562E+03  0.78119727249E+03  0.13472841424E+04  0.10023357742E+04 0.  0.
        -13    1    3    3    0    0  0.64093105169E+03 -0.23982857031E+03 -0.76291639085E+03  0.10248667166E+04  0.10566000000E+00 0.  1.
          4    1    3    3  501    0 -0.24308235400E+03  0.35024294694E+02  0.85858333186E+02  0.26016799462E+03  0.00000000000E+00 0.  1.
         13    1    4    4    0    0 -0.37703583428E+03 -0.29825797916E+03  0.68152532298E+03  0.83402075483E+03  0.10566000000E+00 0. -1.
         -4    1    4    4    0  502 -0.20812863400E+02  0.50306225478E+03  0.99671949512E+02  0.51326338754E+03  0.00000000000E+00 0. -1.
<mgrwt>
<rscale>  2 0.10963095E+04</rscale>
<asrwt>0</asrwt>
<pdfrwt beam="1">  1       21 0.21049677E+00 0.10976818E+04</pdfrwt>
<pdfrwt beam="2">  1       21 0.19447536E+00 0.10976818E+04</pdfrwt>
<totfact> 0.62882621E+00</totfact>
</mgrwt>
</event>
<event>
 8    1  0.5815007E-006  0.1045369E+04  0.7818608E-02  0.8736757E-01
         21   -1    0    0  501  502  0.00000000000E+00  0.00000000000E+00  0.12597931136E+04  0.12597931136E+04  0.00000000000E+00 0.  1.
         21   -1    0    0  502  503 -0.00000000000E+00 -0.00000000000E+00 -0.16142813372E+04  0.16142813372E+04  0.00000000000E+00 0.  1.
   -9000010    2    1    2    0  503 -0.25194153890E+03  0.69702594571E+02 -0.11627232705E+04  0.15526965282E+04  0.99529297906E+03 0.  0.
    9000010    2    1    2  501    0  0.25194153890E+03 -0.69702594571E+02  0.80823504697E+03  0.13213779226E+04  0.10121574642E+04 0.  0.
        -13    1    4    4    0    0  0.36139004048E+03  0.36411194790E+03  0.16704562368E+03  0.53952249584E+03  0.10566000000E+00 0.  1.
          4    1    4    4  501    0 -0.10944850158E+03 -0.43381454247E+03  0.64118942329E+03  0.78185542673E+03  0.00000000000E+00 0.  1.
         13    1    3    3    0    0 -0.35444928561E+03 -0.40799815881E+03 -0.61464609530E+03  0.81846602086E+03  0.10566000000E+00 0. -1.
         -4    1    3    3    0  503  0.10250774672E+03  0.47770075338E+03 -0.54807717523E+03  0.73423050735E+03  0.00000000000E+00 0. -1.
<mgrwt>
<rscale>  2 0.10412646E+04</rscale>
<asrwt>0</asrwt>
<pdfrwt beam="1">  1       21 0.19381432E+00 0.10453687E+04</pdfrwt>
<pdfrwt beam="2">  1       21 0.24835098E+00 0.10453687E+04</pdfrwt>
<totfact> 0.33671959E+00</totfact>
</mgrwt>
</event>
<event>
 8    1  0.5815007E-006  0.1103657E+04  0.7818608E-02  0.8684150E-01
         21   -1    0    0  501  502  0.00000000000E+00  0.00000000000E+00  0.13574659843E+04  0.13574659843E+04  0.00000000000E+00 0. -1.
         21   -1    0    0  502  503 -0.00000000000E+00 -0.00000000000E+00 -0.93182347912E+03  0.93182347912E+03  0.00000000000E+00 0. -1.
   -9000010    2    1    2    0  503  0.44893395845E+03  0.56922414475E+02 -0.22241844724E+02  0.11038813008E+04  0.10066167922E+04 0.  0.
    9000010    2    1    2  501    0 -0.44893395845E+03 -0.56922414475E+02  0.44788434994E+03  0.11854081626E+04  0.99990512586E+03 0.  0.
        -13    1    4    4    0    0 -0.25382954163E+03  0.33029672447E+03  0.59605873671E+03  0.72719419083E+03  0.10566000000E+00 0.  1.
          4    1    4    4  501    0 -0.19510441681E+03 -0.38721913895E+03 -0.14817438677E+03  0.45821397177E+03  0.00000000000E+00 0.  1.
         13    1    3    3    0    0  0.65956622118E+03  0.11964738252E+01  0.29214803677E+03  0.72137335564E+03  0.10566000000E+00 0. -1.
         -4    1    3    3    0  503 -0.21063226274E+03  0.55725940650E+02 -0.31438988149E+03  0.38250794521E+03  0.00000000000E+00 0. -1.
<mgrwt>
<rscale>  2 0.11021245E+04</rscale>
<asrwt>0</asrwt>
<pdfrwt beam="1">  1       21 0.20884092E+00 0.11036572E+04</pdfrwt>
<pdfrwt beam="2">  1       21 0.14335746E+00 0.11036572E+04</pdfrwt>
<totfact> 0.17483429E+01</totfact>
</mgrwt>
</event>
<event>
 8    1  0.5815007E-006  0.1134176E+04  0.7818608E-02  0.8674084E-01
         21   -1    0    0  503  502  0.00000000000E+00  0.00000000000E+00  0.19385629256E+04  0.19385629256E+04  0.00000000000E+00 0. -1.
         21   -1    0    0  501  503 -0.00000000000E+00 -0.00000000000E+00 -0.62434366648E+03  0.62434366648E+03  0.00000000000E+00 0. -1.
    9000010    2    1    2  501    0 -0.23462239965E+03 -0.28972463648E+03  0.51494093792E+03  0.11753907451E+04  0.98863097193E+03 0.  0.
   -9000010    2    1    2    0  502  0.23462239965E+03  0.28972463648E+03  0.79927832125E+03  0.13875158470E+04  0.10711518826E+04 0.  0.
        -13    1    3    3    0    0 -0.49650668664E+03 -0.21961072568E+03  0.67056693382E+03  0.86279069571E+03  0.10566000000E+00 0.  1.
          4    1    3    3  501    0  0.26188428699E+03 -0.70113910804E+02 -0.15562599590E+03  0.31260004936E+03  0.00000000000E+00 0.  1.
         13    1    4    4    0    0  0.45157177287E+03  0.60215315002E+03  0.50126931636E+03  0.90430991414E+03  0.10566000000E+00 0. -1.
         -4    1    4    4    0  502 -0.21694937322E+03 -0.31242851353E+03  0.29800900488E+03  0.48320593291E+03  0.00000000000E+00 0. -1.
<mgrwt>
<rscale>  2 0.11142604E+04</rscale>
<asrwt>0</asrwt>
<pdfrwt beam="1">  1       21 0.29824045E+00 0.11341756E+04</pdfrwt>
<pdfrwt beam="2">  1       21 0.96052872E-01 0.11341756E+04</pdfrwt>
<totfact> 0.11797970E+01</totfact>
</mgrwt>
</event>
<event>
 8    1  0.5815007E-006  0.1151076E+04  0.7818608E-02  0.8652053E-01
         21   -1    0    0  501  502  0.00000000000E+00  0.00000000000E+00  0.22938851884E+04  0.22938851884E+04  0.00000000000E+00 0. -1.
         21   -1    0    0  502  503 -0.00000000000E+00 -0.00000000000E+00 -0.15766898215E+04  0.15766898215E+04  0.00000000000E+00 0. -1.
   -9000010    2    1    2    0  503 -0.29647721677E+03  0.48422252960E+03 -0.11943205336E+04  0.16587274831E+04  0.10013017167E+04 0.  0.
    9000010    2    1    2  501    0  0.29647721677E+03 -0.48422252960E+03  0.19115159004E+04  0.22118475268E+04  0.95708215222E+03 0.  0.
        -13    1    4    4    0    0 -0.14459872428E+03  0.20610842313E+03  0.22831629293E+03  0.33987911663E+03  0.10566000000E+00 0.  1.
          4    1    4    4  501    0  0.44107594104E+03 -0.69033095273E+03  0.16831996075E+04  0.18719684102E+04  0.00000000000E+00 0.  1.
         13    1    3    3    0    0 -0.60861064807E+03  0.51377721440E+02 -0.54811546965E+03  0.82065654840E+03  0.10566000000E+00 0. -1.
         -4    1    3    3    0  503  0.31213343130E+03  0.43284480816E+03 -0.64620506390E+03  0.83807093465E+03  0.00000000000E+00 0. -1.
<mgrwt>
<rscale>  2 0.11413912E+04</rscale>
<asrwt>0</asrwt>
<pdfrwt beam="1">  1       21 0.35290541E+00 0.11510757E+04</pdfrwt>
<pdfrwt beam="2">  1       21 0.24256766E+00 0.11510757E+04</pdfrwt>
<totfact> 0.25356897E-01</totfact>
</mgrwt>
</event>
<event>
 8    1  0.5815007E-006  0.1105146E+04  0.7818608E-02  0.8691266E-01
         21   -1    0    0  501  502  0.00000000000E+00  0.00000000000E+00  0.17116007193E+04  0.17116007193E+04  0.00000000000E+00 0. -1.
         21   -1    0    0  502  503 -0.00000000000E+00 -0.00000000000E+00 -0.69137799562E+03  0.69137799562E+03  0.00000000000E+00 0.  1.
   -9000010    2    1    2    0  503  0.38127589335E+02 -0.46598934869E+03  0.63941329244E+03  0.12767920427E+04  0.10013734446E+04 0.  0.
    9000010    2    1    2  501    0 -0.38127589335E+02  0.46598934869E+03  0.38080943128E+03  0.11261866722E+04  0.95114710303E+03 0.  0.
        -13    1    4    4    0    0  0.33900077700E+03  0.44596342621E+03 -0.38956781197E+02  0.56153588157E+03  0.10566000000E+00 0.  1.
          4    1    4    4  501    0 -0.37712836634E+03  0.20025922484E+02  0.41976621248E+03  0.56465079067E+03  0.00000000000E+00 0.  1.
         13    1    3    3    0    0  0.40843453838E+02  0.30967329682E+03  0.86119230902E+02  0.32400967822E+03  0.10566000000E+00 0. -1.
         -4    1    3    3    0  503 -0.27158645037E+01 -0.77566264551E+03  0.55329406154E+03  0.95278236450E+03  0.00000000000E+00 0. -1.
<mgrwt>
<rscale>  2 0.10936438E+04</rscale>
<asrwt>0</asrwt>
<pdfrwt beam="1">  1       21 0.26332319E+00 0.11051464E+04</pdfrwt>
<pdfrwt beam="2">  1       21 0.10636585E+00 0.11051464E+04</pdfrwt>
<totfact> 0.16104395E+01</totfact>
</mgrwt>
</event>
<event>
 8    1  0.5815007E-006  0.1104559E+04  0.7818608E-02  0.8684533E-01
         21   -1    0    0  503  502  0.00000000000E+00  0.00000000000E+00  0.55724197481E+03  0.55724197481E+03  0.00000000000E+00 0.  1.
         21   -1    0    0  501  503 -0.00000000000E+00 -0.00000000000E+00 -0.21702813787E+04  0.21702813787E+04  0.00000000000E+00 0.  1.
    9000010    2    1    2  501    0  0.17067633931E+03  0.41446720105E+03 -0.86645013936E+03  0.14038469421E+04  0.10095231148E+04 0.  0.
   -9000010    2    1    2    0  502 -0.17067633931E+03 -0.41446720105E+03 -0.74658926458E+03  0.13236764114E+04  0.99690031530E+03 0.  0.
        -13    1    3    3    0    0  0.44828485927E+03  0.56493105773E+03 -0.80743660435E+03  0.10826173360E+04  0.10566000000E+00 0.  1.
          4    1    3    3  501    0 -0.27760851997E+03 -0.15046385668E+03 -0.59013535011E+02  0.32122960611E+03  0.00000000000E+00 0.  1.
         13    1    4    4    0    0  0.38903846084E+03 -0.73861988164E+02 -0.46434904158E+03  0.61026761415E+03  0.10566000000E+00 0. -1.
         -4    1    4    4    0  502 -0.55971480015E+03 -0.34060521289E+03 -0.28224022300E+03  0.71340879728E+03  0.00000000000E+00 0. -1.
<mgrwt>
<rscale>  2 0.11016664E+04</rscale>
<asrwt>0</asrwt>
<pdfrwt beam="1">  1       21 0.85729535E-01 0.11045589E+04</pdfrwt>
<pdfrwt beam="2">  1       21 0.33388944E+00 0.11045589E+04</pdfrwt>
<totfact> 0.89108272E+00</totfact>
</mgrwt>
</event>
<event>
 8    1  0.5815007E-006  0.1242295E+04  0.7818608E-02  0.8579782E-01
         21   -1    0    0  501  502  0.00000000000E+00  0.00000000000E+00  0.87945539012E+03  0.87945539012E+03  0.00000000000E+00 0.  1.
         21   -1    0    0  502  503 -0.00000000000E+00 -0.00000000000E+00 -0.17266683837E+04  0.17266683837E+04  0.00000000000E+00 0.  1.
   -9000010    2    1    2    0  503  0.63779623402E+03  0.37166343158E+03 -0.49492403524E+03  0.13148439125E+04  0.96899276105E+03 0.  0.
    9000010    2    1    2  501    0 -0.63779623402E+03 -0.37166343158E+03 -0.35228895830E+03  0.12912798613E+04  0.99918888484E+03 0.  0.
        -13    1    4    4    0    0 -0.39822395960E+02 -0.57342724664E+03 -0.13430122864E+02  0.57496522484E+03  0.10566000000E+00 0.  1.
          4    1    4    4  501    0 -0.59797383806E+03  0.20176381507E+03 -0.33885883544E+03  0.71631463648E+03  0.00000000000E+00 0.  1.
         13    1    3    3    0    0 -0.24966205740E+02  0.28300972724E+03 -0.57503999341E+03  0.64139599494E+03  0.10566000000E+00 0. -1.
         -4    1    3    3    0  503  0.66276243976E+03  0.88653704334E+02  0.80115958175E+02  0.67344791751E+03  0.00000000000E+00 0. -1.
<mgrwt>
<rscale>  2 0.12362115E+04</rscale>
<asrwt>0</asrwt>
<pdfrwt beam="1">  1       21 0.13530083E+00 0.12422947E+04</pdfrwt>
<pdfrwt beam="2">  1       21 0.26564129E+00 0.12422947E+04</pdfrwt>
<totfact> 0.76691014E+00</totfact>
</mgrwt>
</event>
<event>
 8    1  0.5815007E-006  0.1081283E+04  0.7818608E-02  0.8705895E-01
         21   -1    0    0  501  502  0.00000000000E+00  0.00000000000E+00  0.98936117621E+03  0.98936117621E+03  0.00000000000E+00 0.  1.
         21   -1    0    0  502  503 -0.00000000000E+00 -0.00000000000E+00 -0.16265226204E+04  0.16265226204E+04  0.00000000000E+00 0.  1.
   -9000010    2    1    2    0  503  0.65025578678E+02  0.27584369586E+03 -0.10163461031E+04  0.14700418722E+04  0.10235944676E+04 0.  0.
    9000010    2    1    2  501    0 -0.65025578678E+02 -0.27584369586E+03  0.37918465897E+03  0.11458419244E+04  0.10434819786E+04 0.  0.
        -13    1    4    4    0    0 -0.16901423904E+03 -0.41462903257E+03 -0.23637735993E+03  0.50631740549E+03  0.10566000000E+00 0.  1.
          4    1    4    4  501    0  0.10398866036E+03  0.13878533672E+03  0.61556201890E+03  0.63952451891E+03  0.00000000000E+00 0.  1.
         13    1    3    3    0    0 -0.36774472903E+02  0.64684590313E+03 -0.79725367900E+03  0.10273146665E+04  0.10566000000E+00 0. -1.
         -4    1    3    3    0  503  0.10180005158E+03 -0.37100220727E+03 -0.21909242414E+03  0.44272720565E+03  0.00000000000E+00 0. -1.
<mgrwt>
<rscale>  2 0.10764558E+04</rscale>
<asrwt>0</asrwt>
<pdfrwt beam="1">  1       21 0.15220941E+00 0.10812829E+04</pdfrwt>
<pdfrwt beam="2">  1       21 0.25023425E+00 0.10812829E+04</pdfrwt>
<totfact> 0.71872743E+00</totfact>
</mgrwt>
</event>
<event>
 8    1  0.5815007E-006  0.1050771E+04  0.7818608E-02  0.8730323E-01
         21   -1    0    0  501  502  0.00000000000E+00  0.00000000000E+00  0.17622963823E+04  0.17622963823E+04  0.00000000000E+00 0.  1.
         21   -1    0    0  502  503 -0.00000000000E+00 -0.00000000000E+00 -0.62891173847E+03  0.62891173847E+03  0.00000000000E+00 0.  1.
   -9000010    2    1    2    0  503  0.28430546482E+03 -0.32917047579E+02  0.70238053956E+03  0.12639059335E+04  0.10110423617E+04 0.  0.
    9000010    2    1    2  501    0 -0.28430546482E+03  0.32917047579E+02  0.43100410429E+03  0.11273021873E+04  0.10015650524E+04 0.  0.
        -13    1    4    4    0    0  0.24604770012E+03  0.23612933109E+03  0.44320347340E+03  0.55921897476E+03  0.10566000000E+00 0.  1.
          4    1    4    4  501    0 -0.53035316493E+03 -0.20321228351E+03 -0.12199369110E+02  0.56808321250E+03  0.00000000000E+00 0.  1.
         13    1    3    3    0    0 -0.47393141413E+02 -0.43645457423E+03  0.71449383630E+02  0.44479628012E+03  0.10566000000E+00 0. -1.
         -4    1    3    3    0  503  0.33169860623E+03  0.40353752665E+03  0.63093115593E+03  0.81910965341E+03  0.00000000000E+00 0. -1.
<mgrwt>
<rscale>  2 0.10484846E+04</rscale>
<asrwt>0</asrwt>
<pdfrwt beam="1">  1       21 0.27112252E+00 0.10507710E+04</pdfrwt>
<pdfrwt beam="2">  1       21 0.96755653E-01 0.10507710E+04</pdfrwt>
<totfact> 0.18380112E+01</totfact>
</mgrwt>
</event>
<event>
 8    1  0.5815007E-006  0.1247187E+04  0.7818608E-02  0.8590045E-01
         21   -1    0    0  503  502  0.00000000000E+00  0.00000000000E+00  0.16510126295E+04  0.16510126295E+04  0.00000000000E+00 0.  1.
         21   -1    0    0  501  503 -0.00000000000E+00 -0.00000000000E+00 -0.11823632218E+04  0.11823632218E+04  0.00000000000E+00 0.  1.
    9000010    2    1    2  501    0 -0.32520447188E+03 -0.49244244799E+03 -0.48613590730E+03  0.13385825940E+04  0.10987346028E+04 0.  0.
   -9000010    2    1    2    0  502  0.32520447188E+03  0.49244244799E+03  0.95478531493E+03  0.14947932573E+04  0.98718507450E+03 0.  0.
        -13    1    3    3    0    0 -0.49355969488E+03 -0.27293919340E+02  0.16475403804E+03  0.52104705609E+03  0.10566000000E+00 0.  1.
          4    1    3    3  501    0  0.16835522300E+03 -0.46514852865E+03 -0.65088994534E+03  0.81753553792E+03  0.00000000000E+00 0.  1.
         13    1    4    4    0    0  0.56408040797E+03 -0.36524367304E+02  0.40536463723E+03  0.69558697252E+03  0.10566000000E+00 0. -1.
         -4    1    4    4    0  502 -0.23887593609E+03  0.52896681530E+03  0.54942067771E+03  0.79920628477E+03  0.00000000000E+00 0. -1.
<mgrwt>
<rscale>  2 0.12221798E+04</rscale>
<asrwt>0</asrwt>
<pdfrwt beam="1">  1       21 0.25400194E+00 0.12471869E+04</pdfrwt>
<pdfrwt beam="2">  1       21 0.18190203E+00 0.12471869E+04</pdfrwt>
<totfact> 0.36433388E+00</totfact>
</mgrwt>
</event>
<event>
 8    1  0.5815007E-006  0.1258912E+04  0.7818608E-02  0.8571942E-01
         21   -1    0    0  501  502  0.00000000000E+00  0.00000000000E+00  0.16225689696E+04  0.16225689696E+04  0.00000000000E+00 0. -1.
         21   -1    0    0  502  503 -0.00000000000E+00 -0.00000000000E+00 -0.10677767828E+04  0.10677767828E+04  0.00000000000E+00 0.  1.
   -9000010    2    1    2    0  503 -0.16595149054E+03 -0.68624203371E+03 -0.18171642541E+03  0.12719590056E+04  0.10423007372E+04 0.  0.
    9000010    2    1    2  501    0  0.16595149054E+03  0.68624203371E+03  0.73650861226E+03  0.14183867467E+04  0.98534664018E+03 0.  0.
        -13    1    4    4    0    0 -0.25138602760E+03  0.40272350832E+03  0.77879275215E+03  0.91208515008E+03  0.10566000000E+00 0.  1.
          4    1    4    4  501    0  0.41733751814E+03  0.28351852539E+03 -0.42284139889E+02  0.50630159665E+03  0.00000000000E+00 0.  1.
         13    1    3    3    0    0  0.20442207202E+02 -0.37256007827E+03 -0.60643450526E+03  0.71202648553E+03  0.10566000000E+00 0. -1.
         -4    1    3    3    0  503 -0.18639369774E+03 -0.31368195544E+03  0.42471807986E+03  0.55993252012E+03  0.00000000000E+00 0. -1.
<mgrwt>
<rscale>  2 0.12470621E+04</rscale>
<asrwt>0</asrwt>
<pdfrwt beam="1">  1       21 0.24962599E+00 0.12589118E+04</pdfrwt>
<pdfrwt beam="2">  1       21 0.16427335E+00 0.12589118E+04</pdfrwt>
<totfact> 0.54868288E+00</totfact>
</mgrwt>
</event>
<event>
 8    1  0.5815007E-006  0.1135507E+04  0.7818608E-02  0.8672465E-01
         21   -1    0    0  501  502  0.00000000000E+00  0.00000000000E+00  0.13957590020E+04  0.13957590020E+04  0.00000000000E+00 0.  1.
         21   -1    0    0  502  503 -0.00000000000E+00 -0.00000000000E+00 -0.11839318990E+04  0.11839318990E+04  0.00000000000E+00 0.  1.
   -9000010    2    1    2    0  503  0.32295647390E+03 -0.41547574363E+03 -0.56204554378E+03  0.12669925853E+04  0.10062077521E+04 0.  0.
    9000010    2    1    2  501    0 -0.32295647390E+03  0.41547574363E+03  0.77387264684E+03  0.13126983157E+04  0.92053083425E+03 0.  0.
        -13    1    4    4    0    0 -0.32259443328E+03  0.55335124392E+03  0.12916542081E+03  0.65341295107E+03  0.10566000000E+00 0.  1.
          4    1    4    4  501    0 -0.36204061876E+00 -0.13787550029E+03  0.64470722604E+03  0.65928536459E+03  0.00000000000E+00 0.  1.
         13    1    3    3    0    0  0.64572245809E+03 -0.10587967251E+03 -0.48184380736E+03  0.81261396972E+03  0.10566000000E+00 0. -1.
         -4    1    3    3    0  503 -0.32276598420E+03 -0.30959607112E+03 -0.80201736426E+02  0.45437861562E+03  0.00000000000E+00 0. -1.
<mgrwt>
<rscale>  2 0.11162267E+04</rscale>
<asrwt>0</asrwt>
<pdfrwt beam="1">  1       21 0.21473215E+00 0.11355065E+04</pdfrwt>
<pdfrwt beam="2">  1       21 0.18214337E+00 0.11355065E+04</pdfrwt>
<totfact> 0.72657220E+00</totfact>
</mgrwt>
</event>
<event>
 8    1  0.5815007E-006  0.1091808E+04  0.7818608E-02  0.8693353E-01
         21   -1    0    0  501  502  0.00000000000E+00  0.00000000000E+00  0.22443559282E+04  0.22443559282E+04  0.00000000000E+00 0. -1.
         21   -1    0    0  502  503 -0.00000000000E+00 -0.00000000000E+00 -0.53141854687E+03  0.53141854687E+03  0.00000000000E+00 0. -1.
   -9000010    2    1    2    0  503  0.17890085993E+03  0.38503653692E+03  0.93182402692E+03  0.14353887289E+04  0.10058758042E+04 0.  0.
    9000010    2    1    2  501    0 -0.17890085993E+03 -0.38503653692E+03  0.78111335445E+03  0.13403857462E+04  0.10031137641E+04 0.  0.
        -13    1    4    4    0    0  0.17231844492E+03 -0.10510708769E+03 -0.18574528614E+03  0.27430360703E+03  0.10566000000E+00 0.  1.
          4    1    4    4  501    0 -0.35121930484E+03 -0.27992944923E+03  0.96685864059E+03  0.10660821392E+04  0.00000000000E+00 0.  1.
         13    1    3    3    0    0  0.54038872031E+03  0.53372671832E+02  0.25615844104E+03  0.60040467121E+03  0.10566000000E+00 0. -1.
         -4    1    3    3    0  503 -0.36148786038E+03  0.33166386509E+03  0.67566558587E+03  0.83498405766E+03  0.00000000000E+00 0. -1.
<mgrwt>
<rscale>  2 0.10911714E+04</rscale>
<asrwt>0</asrwt>
<pdfrwt beam="1">  1       21 0.34528552E+00 0.10918080E+04</pdfrwt>
<pdfrwt beam="2">  1       21 0.81756700E-01 0.10918080E+04</pdfrwt>
<totfact> 0.83671398E+00</totfact>
</mgrwt>
</event>
<event>
 8    1  0.5815007E-006  0.1345669E+04  0.7818608E-02  0.8504310E-01
         21   -1    0    0  501  502  0.00000000000E+00  0.00000000000E+00  0.32661435565E+04  0.32661435565E+04  0.00000000000E+00 0.  1.
         21   -1    0    0  502  503 -0.00000000000E+00 -0.00000000000E+00 -0.57013275049E+03  0.57013275049E+03  0.00000000000E+00 0.  1.
   -9000010    2    1    2    0  503 -0.43815037477E+03  0.77632527737E+03  0.10286134640E+04  0.16937742613E+04  0.10080520337E+04 0.  0.
    9000010    2    1    2  501    0  0.43815037477E+03 -0.77632527737E+03  0.16673973419E+04  0.21425020457E+04  0.10076926280E+04 0.  0.
        -13    1    4    4    0    0  0.41897258763E+03 -0.60278785669E+03  0.17863048049E+04  0.19312628243E+04  0.10566000000E+00 0.  1.
          4    1    4    4  501    0  0.19177787144E+02 -0.17353742067E+03 -0.11890746295E+03  0.21123922136E+03  0.00000000000E+00 0.  1.
         13    1    3    3    0    0  0.21357298775E+03  0.17846862716E+03 -0.66476265180E+02  0.28615306564E+03  0.10566000000E+00 0. -1.
         -4    1    3    3    0  503 -0.65172336252E+03  0.59785665020E+03  0.10950897292E+04  0.14076211957E+04  0.00000000000E+00 0. -1.
<mgrwt>
<rscale>  2 0.13456019E+04</rscale>
<asrwt>0</asrwt>
<pdfrwt beam="1">  1       21 0.50248361E+00 0.13456692E+04</pdfrwt>
<pdfrwt beam="2">  1       21 0.87712733E-01 0.13456692E+04</pdfrwt>
<totfact> 0.53723083E-01</totfact>
</mgrwt>
</event>
<event>
 8    1  0.5815007E-006  0.1063638E+04  0.7818608E-02  0.8720431E-01
         21   -1    0    0  501  502  0.00000000000E+00  0.00000000000E+00  0.11532850170E+04  0.11532850170E+04  0.00000000000E+00 0. -1.
         21   -1    0    0  502  503 -0.00000000000E+00 -0.00000000000E+00 -0.96676239072E+03  0.96676239072E+03  0.00000000000E+00 0. -1.
   -9000010    2    1    2    0  503  0.94024746078E+02  0.32719100765E+03  0.10722095481E+03  0.10534577526E+04  0.99115200395E+03 0.  0.
    9000010    2    1    2  501    0 -0.94024746078E+02 -0.32719100765E+03  0.79301671497E+02  0.10665896552E+04  0.10076855309E+04 0.  0.
        -13    1    4    4    0    0  0.27944646425E+03 -0.38633582021E+03  0.35850874925E+03  0.59655194812E+03  0.10566000000E+00 0.  1.
          4    1    4    4  501    0 -0.37347121033E+03  0.59144812561E+02 -0.27920707775E+03  0.47003770706E+03  0.00000000000E+00 0.  1.
         13    1    3    3    0    0  0.24712327021E+03  0.16743439336E+03 -0.40056441533E+03  0.49955585148E+03  0.10566000000E+00 0. -1.
         -4    1    3    3    0  503 -0.15309852413E+03  0.15975661428E+03  0.50778537014E+03  0.55390190108E+03  0.00000000000E+00 0. -1.
<mgrwt>
<rscale>  2 0.10597031E+04</rscale>
<asrwt>0</asrwt>
<pdfrwt beam="1">  1       21 0.17742846E+00 0.10636375E+04</pdfrwt>
<pdfrwt beam="2">  1       21 0.14873268E+00 0.10636375E+04</pdfrwt>
<totfact> 0.27982110E+01</totfact>
</mgrwt>
</event>
<event>
 8    1  0.5815007E-006  0.1043491E+04  0.7818608E-02  0.8739438E-01
         21   -1    0    0  503  502  0.00000000000E+00  0.00000000000E+00  0.59890190810E+03  0.59890190810E+03  0.00000000000E+00 0.  1.
         21   -1    0    0  501  503 -0.00000000000E+00 -0.00000000000E+00 -0.17822857649E+04  0.17822857649E+04  0.00000000000E+00 0.  1.
    9000010    2    1    2  501    0 -0.12391271825E+03  0.89626716120E+02 -0.60556113324E+03  0.12064731860E+04  0.10322237899E+04 0.  0.
   -9000010    2    1    2    0  502  0.12391271825E+03 -0.89626716120E+02 -0.57782272356E+03  0.11747144870E+04  0.10112802363E+04 0.  0.
        -13    1    3    3    0    0  0.45178135541E+02 -0.32811571830E+03 -0.67367103113E+03  0.75068878896E+03  0.10566000000E+00 0.  1.
          4    1    3    3  501    0 -0.16909085379E+03  0.41774243442E+03  0.68109897897E+02  0.45578439699E+03  0.00000000000E+00 0.  1.
         13    1    4    4    0    0  0.21120064476E+03 -0.31819327010E+03  0.14737525797E+03  0.40935577107E+03  0.10566000000E+00 0. -1.
         -4    1    4    4    0  502 -0.87287926514E+02  0.22856655398E+03 -0.72519798153E+03  0.76535871598E+03  0.00000000000E+00 0. -1.
<mgrwt>
<rscale>  2 0.10382737E+04</rscale>
<asrwt>0</asrwt>
<pdfrwt beam="1">  1       21 0.92138757E-01 0.10434909E+04</pdfrwt>
<pdfrwt beam="2">  1       21 0.27419781E+00 0.10434909E+04</pdfrwt>
<totfact> 0.19832272E+01</totfact>
</mgrwt>
</event>
<event>
 8    1  0.5815007E-006  0.1094360E+04  0.7818608E-02  0.8692955E-01
         21   -1    0    0  503  502  0.00000000000E+00  0.00000000000E+00  0.73664259506E+03  0.73664259506E+03  0.00000000000E+00 0. -1.
         21   -1    0    0  501  503 -0.00000000000E+00 -0.00000000000E+00 -0.21846239833E+04  0.21846239833E+04  0.00000000000E+00 0. -1.
    9000010    2    1    2  501    0  0.22136307810E+03 -0.37796930285E+03 -0.14706094707E+04  0.18266727707E+04  0.99104933764E+03 0.  0.
   -9000010    2    1    2    0  502 -0.22136307810E+03  0.37796930285E+03  0.22628082420E+02  0.10945938077E+04  0.10028764468E+04 0.  0.
        -13    1    3    3    0    0 -0.19827255276E+02 -0.58330127120E+03 -0.13782421289E+04  0.14967247142E+04  0.10566000000E+00 0.  1.
          4    1    3    3  501    0  0.24119033337E+03  0.20533196835E+03 -0.92367341748E+02  0.32994805646E+03  0.00000000000E+00 0.  1.
         13    1    4    4    0    0 -0.40438938500E+03  0.37831140493E+03  0.39464153338E+03  0.67999429765E+03  0.10566000000E+00 0. -1.
         -4    1    4    4    0  502  0.18302630690E+03 -0.34210207609E+00 -0.37201345096E+03  0.41459951006E+03  0.00000000000E+00 0. -1.
<mgrwt>
<rscale>  2 0.10916428E+04</rscale>
<asrwt>0</asrwt>
<pdfrwt beam="1">  1       21 0.11332963E+00 0.10943599E+04</pdfrwt>
<pdfrwt beam="2">  1       21 0.33609600E+00 0.10943599E+04</pdfrwt>
<totfact> 0.41483981E+00</totfact>
</mgrwt>
</event>
<event>
 8    1  0.5815007E-006  0.1032650E+04  0.7818608E-02  0.8745086E-01
         21   -1    0    0  503  502  0.00000000000E+00  0.00000000000E+00  0.63972688255E+03  0.63972688255E+03  0.00000000000E+00 0.  1.
         21   -1    0    0  501  503 -0.00000000000E+00 -0.00000000000E+00 -0.18030708962E+04  0.18030708962E+04  0.00000000000E+00 0.  1.
    9000010    2    1    2  501    0  0.26951623369E+03  0.45668937453E+02 -0.24162466208E+03  0.10605412823E+04  0.99581156955E+03 0.  0.
   -9000010    2    1    2    0  502 -0.26951623369E+03 -0.45668937453E+02 -0.92171935155E+03  0.13822564964E+04  0.99314742453E+03 0.  0.
        -13    1    3    3    0    0  0.18666625462E+03 -0.14821816837E+03 -0.59951497063E+03  0.64515976875E+03  0.10566000000E+00 0.  1.
          4    1    3    3  501    0  0.82849979066E+02  0.19388710582E+03  0.35789030855E+03  0.41538151354E+03  0.00000000000E+00 0.  1.
         13    1    4    4    0    0  0.43725247458E+02  0.12352132586E+03  0.18102308230E+03  0.22346986978E+03  0.10566000000E+00 0. -1.
         -4    1    4    4    0  502 -0.31324148114E+03 -0.16919026331E+03 -0.11027424339E+04  0.11587866267E+04  0.00000000000E+00 0. -1.
<mgrwt>
<rscale>  2 0.10320069E+04</rscale>
<asrwt>0</asrwt>
<pdfrwt beam="1">  1       21 0.98419520E-01 0.10326497E+04</pdfrwt>
<pdfrwt beam="2">  1       21 0.27739552E+00 0.10326497E+04</pdfrwt>
<totfact> 0.15928008E+01</totfact>
</mgrwt>
</event>
<event>
 8    1  0.5815007E-006  0.1071852E+04  0.7818608E-02  0.8710169E-01
         21   -1    0    0  501  502  0.00000000000E+00  0.00000000000E+00  0.66622236146E+03  0.66622236146E+03  0.00000000000E+00 0.  1.
         21   -1    0    0  502  503 -0.00000000000E+00 -0.00000000000E+00 -0.17564747328E+04  0.17564747328E+04  0.00000000000E+00 0.  1.
   -9000010    2    1    2    0  503 -0.34415888501E+02  0.37397153028E+03 -0.71406828479E+03  0.12867472850E+04  0.10023900943E+04 0.  0.
    9000010    2    1    2  501    0  0.34415888501E+02 -0.37397153028E+03 -0.37618408655E+03  0.11359498093E+04  0.10039065412E+04 0.  0.
        -13    1    4    4    0    0  0.36990698442E+03 -0.14317218300E+03  0.18897726950E+03  0.43936530434E+03  0.10566000000E+00 0.  1.
          4    1    4    4  501    0 -0.33549109591E+03 -0.23079934727E+03 -0.56516135605E+03  0.69658450493E+03  0.00000000000E+00 0.  1.
         13    1    3    3    0    0 -0.14105243287E+03  0.48740317370E+03 -0.90672903963E+03  0.10390453335E+04  0.10566000000E+00 0. -1.
         -4    1    3    3    0  503  0.10663654437E+03 -0.11343164343E+03  0.19266075484E+03  0.24770195151E+03  0.00000000000E+00 0. -1.
<mgrwt>
<rscale>  2 0.10714971E+04</rscale>
<asrwt>0</asrwt>
<pdfrwt beam="1">  1       21 0.10249575E+00 0.10718524E+04</pdfrwt>
<pdfrwt beam="2">  1       21 0.27022687E+00 0.10718524E+04</pdfrwt>
<totfact> 0.15970116E+01</totfact>
</mgrwt>
</event>
<event>
 8    1  0.5815007E-006  0.1136497E+04  0.7818608E-02  0.8681433E-01
         21   -1    0    0  501  502  0.00000000000E+00  0.00000000000E+00  0.47092839813E+03  0.47092839813E+03  0.00000000000E+00 0.  1.
         21   -1    0    0  502  503 -0.00000000000E+00 -0.00000000000E+00 -0.24898470285E+04  0.24898470285E+04  0.00000000000E+00 0.  1.
   -9000010    2    1    2    0  503 -0.30998437993E+03  0.16864943948E+03 -0.90868389071E+03  0.14551050747E+04  0.10803200525E+04 0.  0.
    9000010    2    1    2  501    0  0.30998437993E+03 -0.16864943948E+03 -0.11102347396E+04  0.15056703519E+04  0.95388106298E+03 0.  0.
        -13    1    4    4    0    0  0.58802421179E+03  0.12759761529E+03 -0.56237934488E+03  0.82360437335E+03  0.10566000000E+00 0.  1.
          4    1    4    4  501    0 -0.27803983186E+03 -0.29624705477E+03 -0.54785539473E+03  0.68206597855E+03  0.00000000000E+00 0.  1.
         13    1    3    3    0    0 -0.17573166439E+03  0.62504193849E+03 -0.62501233528E+03  0.90122110115E+03  0.10566000000E+00 0. -1.
         -4    1    3    3    0  503 -0.13425271554E+03 -0.45639249901E+03 -0.28367155543E+03  0.55388397354E+03  0.00000000000E+00 0. -1.
<mgrwt>
<rscale>  2 0.11053843E+04</rscale>
<asrwt>0</asrwt>
<pdfrwt beam="1">  1       21 0.72450524E-01 0.11364965E+04</pdfrwt>
<pdfrwt beam="2">  1       21 0.38305338E+00 0.11364965E+04</pdfrwt>
<totfact> 0.60352239E+00</totfact>
</mgrwt>
</event>
<event>
 8    1  0.5815007E-006  0.1044175E+04  0.7818608E-02  0.8735056E-01
         21   -1    0    0  501  502  0.00000000000E+00  0.00000000000E+00  0.60737775449E+03  0.60737775449E+03  0.00000000000E+00 0.  1.
         21   -1    0    0  502  503 -0.00000000000E+00 -0.00000000000E+00 -0.17886562366E+04  0.17886562366E+04  0.00000000000E+00 0.  1.
   -9000010    2    1    2    0  503 -0.19442140574E+02 -0.27602696626E+03 -0.57236066949E+03  0.11907554631E+04  0.10068430632E+04 0.  0.
    9000010    2    1    2  501    0  0.19442140574E+02  0.27602696626E+03 -0.60891781265E+03  0.12052785280E+04  0.10026697086E+04 0.  0.
        -13    1    4    4    0    0 -0.38569003144E+01  0.57823280261E+03 -0.68134395684E+03  0.89364290876E+03  0.10566000000E+00 0.  1.
          4    1    4    4  501    0  0.23299040888E+02 -0.30220583635E+03  0.72426144188E+02  0.31163561926E+03  0.00000000000E+00 0.  1.
         13    1    3    3    0    0 -0.49019056433E+03 -0.15854582577E+03 -0.12350753041E+03  0.52979023157E+03  0.10566000000E+00 0. -1.
         -4    1    3    3    0  503  0.47074842376E+03 -0.11748114048E+03 -0.44885313908E+03  0.66096523154E+03  0.00000000000E+00 0. -1.
<mgrwt>
<rscale>  2 0.10431678E+04</rscale>
<asrwt>0</asrwt>
<pdfrwt beam="1">  1       21 0.93442732E-01 0.10441752E+04</pdfrwt>
<pdfrwt beam="2">  1       21 0.27517788E+00 0.10441752E+04</pdfrwt>
<totfact> 0.18824648E+01</totfact>
</mgrwt>
</event>
<event>
 8    1  0.5815007E-006  0.1192619E+04  0.7818608E-02  0.8613680E-01
         21   -1    0    0  501  502  0.00000000000E+00  0.00000000000E+00  0.17931413488E+04  0.17931413488E+04  0.00000000000E+00 0.  1.
         21   -1    0    0  502  503 -0.00000000000E+00 -0.00000000000E+00 -0.84735040157E+03  0.84735040157E+03  0.00000000000E+00 0.  1.
   -9000010    2    1    2    0  503 -0.29819927406E+02 -0.65390099055E+03  0.12452584786E+03  0.11991021781E+04  0.99692708518E+03 0.  0.
    9000010    2    1    2  501    0  0.29819927406E+02  0.65390099055E+03  0.82126509937E+03  0.14413895723E+04  0.98724455034E+03 0.  0.
        -13    1    4    4    0    0 -0.33610615463E+03  0.61752482821E+03  0.81126402442E+03  0.10735239118E+04  0.10566000000E+00 0.  1.
          4    1    4    4  501    0  0.36592608204E+03  0.36376162333E+02  0.10001074953E+02  0.36786566054E+03  0.00000000000E+00 0.  1.
         13    1    3    3    0    0 -0.48338238337E+03 -0.26420929956E+03 -0.10090569855E+03  0.56004201064E+03  0.10566000000E+00 0. -1.
         -4    1    3    3    0  503  0.45356245596E+03 -0.38969169099E+03  0.22543154641E+03  0.63906016743E+03  0.00000000000E+00 0. -1.
<mgrwt>
<rscale>  2 0.11905931E+04</rscale>
<asrwt>0</asrwt>
<pdfrwt beam="1">  1       21 0.27586790E+00 0.11926187E+04</pdfrwt>
<pdfrwt beam="2">  1       21 0.13036160E+00 0.11926187E+04</pdfrwt>
<totfact> 0.72933870E+00</totfact>
</mgrwt>
</event>
<event>
 8    1  0.5815007E-006  0.1288182E+04  0.7818608E-02  0.8543210E-01
         21   -1    0    0  503  502  0.00000000000E+00  0.00000000000E+00  0.63173684610E+03  0.63173684610E+03  0.00000000000E+00 0.  1.
         21   -1    0    0  501  503 -0.00000000000E+00 -0.00000000000E+00 -0.28310329111E+04  0.28310329111E+04  0.00000000000E+00 0.  1.
    9000010    2    1    2  501    0 -0.72909317115E+02  0.80894376342E+03 -0.15686356413E+04  0.20297855511E+04  0.99985290286E+03 0.  0.
   -9000010    2    1    2    0  502  0.72909317115E+02 -0.80894376342E+03 -0.63066042374E+03  0.14329842061E+04  0.99800069342E+03 0.  0.
        -13    1    3    3    0    0  0.51669838141E+02  0.33561108399E+03  0.45934109849E+02  0.34265802993E+03  0.10566000000E+00 0.  1.
          4    1    3    3  501    0 -0.12457915526E+03  0.47333267944E+03 -0.16145697511E+04  0.16871275211E+04  0.00000000000E+00 0.  1.
         13    1    4    4    0    0 -0.37137491755E+03 -0.51520752229E+03 -0.38105974420E+02  0.63624696216E+03  0.10566000000E+00 0. -1.
         -4    1    4    4    0  502  0.44428423466E+03 -0.29373624113E+03 -0.59255444932E+03  0.79673724398E+03  0.00000000000E+00 0. -1.
<mgrwt>
<rscale>  2 0.12878221E+04</rscale>
<asrwt>0</asrwt>
<pdfrwt beam="1">  1       21 0.97190284E-01 0.12881815E+04</pdfrwt>
<pdfrwt beam="2">  1       21 0.43554352E+00 0.12881815E+04</pdfrwt>
<totfact> 0.12180689E+00</totfact>
</mgrwt>
</event>
<event>
 8    1  0.5815007E-006  0.1159807E+04  0.7818608E-02  0.8639040E-01
         21   -1    0    0  503  502  0.00000000000E+00  0.00000000000E+00  0.74315603249E+03  0.74315603249E+03  0.00000000000E+00 0.  1.
         21   -1    0    0  501  503 -0.00000000000E+00 -0.00000000000E+00 -0.18202585016E+04  0.18202585016E+04  0.00000000000E+00 0.  1.
    9000010    2    1    2  501    0  0.95116200012E+02 -0.57807325484E+03 -0.67986966102E+03  0.13374671113E+04  0.99165505006E+03 0.  0.
   -9000010    2    1    2    0  502 -0.95116200012E+02  0.57807325484E+03 -0.39723280810E+03  0.12259474228E+04  0.10009682314E+04 0.  0.
        -13    1    3    3    0    0  0.87205744893E+02  0.66266634246E+02  0.21114173481E+03  0.23785910136E+03  0.10566000000E+00 0.  1.
          4    1    3    3  501    0  0.79104551188E+01 -0.64433988909E+03 -0.89101139583E+03  0.10996080099E+04  0.00000000000E+00 0.  1.
         13    1    4    4    0    0 -0.45386417403E+03  0.65090526154E+03 -0.28298367242E+03  0.84246668658E+03  0.10566000000E+00 0. -1.
         -4    1    4    4    0  502  0.35874797402E+03 -0.72832006696E+02 -0.11424913568E+03  0.38348073624E+03  0.00000000000E+00 0. -1.
<mgrwt>
<rscale>  2 0.11577951E+04</rscale>
<asrwt>0</asrwt>
<pdfrwt beam="1">  1       21 0.11433170E+00 0.11598074E+04</pdfrwt>
<pdfrwt beam="2">  1       21 0.28003977E+00 0.11598074E+04</pdfrwt>
<totfact> 0.99308833E+00</totfact>
</mgrwt>
</event>
<event>
 8    1  0.5815007E-006  0.1106625E+04  0.7818608E-02  0.8703778E-01
         21   -1    0    0  503  502  0.00000000000E+00  0.00000000000E+00  0.84766061418E+03  0.84766061418E+03  0.00000000000E+00 0.  1.
         21   -1    0    0  501  503 -0.00000000000E+00 -0.00000000000E+00 -0.13874749052E+04  0.13874749052E+04  0.00000000000E+00 0.  1.
    9000010    2    1    2  501    0  0.90140585917E+02  0.46717901929E+03 -0.52290479619E+03  0.11283818174E+04  0.87945127138E+03 0.  0.
   -9000010    2    1    2    0  502 -0.90140585917E+02 -0.46717901929E+03 -0.16909494808E+02  0.11067537019E+04  0.99911774302E+03 0.  0.
        -13    1    3    3    0    0  0.41214773632E+03  0.52128939873E+03 -0.27856456458E+03  0.72055993615E+03  0.10566000000E+00 0.  1.
          4    1    3    3  501    0 -0.32200715040E+03 -0.54110379434E+02 -0.24434023161E+03  0.40782188128E+03  0.00000000000E+00 0.  1.
         13    1    4    4    0    0 -0.34990276933E+03 -0.50443791494E+03 -0.33100374040E+03  0.69746185942E+03  0.10566000000E+00 0. -1.
         -4    1    4    4    0  502  0.25976218342E+03  0.37258895650E+02  0.31409424559E+03  0.40929184252E+03  0.00000000000E+00 0. -1.
<mgrwt>
<rscale>  2 0.10789225E+04</rscale>
<asrwt>0</asrwt>
<pdfrwt beam="1">  1       21 0.13040933E+00 0.11066245E+04</pdfrwt>
<pdfrwt beam="2">  1       21 0.21345768E+00 0.11066245E+04</pdfrwt>
<totfact> 0.21306867E+01</totfact>
</mgrwt>
</event>
<event>
 8    1  0.5815007E-006  0.1371765E+04  0.7818608E-02  0.8488512E-01
         21   -1    0    0  503  502  0.00000000000E+00  0.00000000000E+00  0.34122474910E+04  0.34122474910E+04  0.00000000000E+00 0.  1.
         21   -1    0    0  501  503 -0.00000000000E+00 -0.00000000000E+00 -0.85141623650E+03  0.85141623650E+03  0.00000000000E+00 0. -1.
    9000010    2    1    2  501    0 -0.84226262433E+03  0.42738350915E+03  0.67949884868E+01  0.13645535865E+04  0.98483365410E+03 0.  0.
   -9000010    2    1    2    0  502  0.84226262433E+03 -0.42738350915E+03  0.25540362660E+04  0.28991101411E+04  0.99482429074E+03 0.  0.
        -13    1    3    3    0    0  0.69603988661E+02  0.44353967604E+03 -0.44075852703E+02  0.45112620343E+03  0.10566000000E+00 0.  1.
          4    1    3    3  501    0 -0.91186661300E+03 -0.16156166889E+02  0.50870841190E+02  0.91342738305E+03  0.00000000000E+00 0.  1.
         13    1    4    4    0    0  0.57115537702E+03 -0.15368441808E+03  0.24199779611E+04  0.24912106913E+04  0.10566000000E+00 0. -1.
         -4    1    4    4    0  502  0.27110724731E+03 -0.27369909108E+03  0.13405830497E+03  0.40789944979E+03  0.00000000000E+00 0. -1.
<mgrwt>
<rscale>  2 0.13699541E+04</rscale>
<asrwt>0</asrwt>
<pdfrwt beam="1">  1       21 0.52496115E+00 0.13717647E+04</pdfrwt>
<pdfrwt beam="2">  1       21 0.13098712E+00 0.13717647E+04</pdfrwt>
<totfact> 0.12540358E-01</totfact>
</mgrwt>
</event>
<event>
 8    1  0.5815007E-006  0.1157498E+04  0.7818608E-02  0.8670033E-01
         21   -1    0    0  503  502  0.00000000000E+00  0.00000000000E+00  0.80949987477E+03  0.80949987477E+03  0.00000000000E+00 0. -1.
         21   -1    0    0  501  503 -0.00000000000E+00 -0.00000000000E+00 -0.15615085151E+04  0.15615085151E+04  0.00000000000E+00 0. -1.
    9000010    2    1    2  501    0  0.54831118374E+03  0.17407966078E+03 -0.71109580706E+03  0.13584768830E+04  0.10044169016E+04 0.  0.
   -9000010    2    1    2    0  502 -0.54831118374E+03 -0.17407966078E+03 -0.40912833220E+02  0.10125315068E+04  0.83222431466E+03 0.  0.
        -13    1    3    3    0    0  0.36262126895E+03 -0.37714303719E+03 -0.13614571392E+03  0.54061698251E+03  0.10566000000E+00 0.  1.
          4    1    3    3  501    0  0.18568991479E+03  0.55122269797E+03 -0.57495009314E+03  0.81785990048E+03  0.00000000000E+00 0.  1.
         13    1    4    4    0    0  0.67422166067E+02  0.24532151587E+03  0.58137665441E+02  0.26097584933E+03  0.10566000000E+00 0. -1.
         -4    1    4    4    0  502 -0.61573334981E+03 -0.41940117665E+03 -0.99050498661E+02  0.75155565751E+03  0.00000000000E+00 0. -1.
<mgrwt>
<rscale>  2 0.11191897E+04</rscale>
<asrwt>0</asrwt>
<pdfrwt beam="1">  1       21 0.12453844E+00 0.11574982E+04</pdfrwt>
<pdfrwt beam="2">  1       21 0.24023208E+00 0.11574982E+04</pdfrwt>
<totfact> 0.15174659E+01</totfact>
</mgrwt>
</event>
<event>
 8    1  0.5815007E-006  0.1089450E+04  0.7818608E-02  0.8695065E-01
         21   -1    0    0  501  502  0.00000000000E+00  0.00000000000E+00  0.10573427289E+04  0.10573427289E+04  0.00000000000E+00 0.  1.
         21   -1    0    0  502  503 -0.00000000000E+00 -0.00000000000E+00 -0.11327653571E+04  0.11327653571E+04  0.00000000000E+00 0.  1.
   -9000010    2    1    2    0  503  0.29950999045E+03  0.31289282509E+03  0.72537632923E+02  0.10906569553E+04  0.99832997125E+03 0.  0.
    9000010    2    1    2  501    0 -0.29950999045E+03 -0.31289282509E+03 -0.14796026115E+03  0.10994511308E+04  0.99964613528E+03 0.  0.
        -13    1    4    4    0    0 -0.25987052400E+03  0.29355388032E+03  0.15352177983E+03  0.42104099318E+03  0.10566000000E+00 0.  1.
          4    1    4    4  501    0 -0.39639466450E+02 -0.60644670541E+03 -0.30148204098E+03  0.67841013763E+03  0.00000000000E+00 0.  1.
         13    1    3    3    0    0  0.66684831913E+02  0.15385115740E+03 -0.45916163103E+03  0.48882150117E+03  0.10566000000E+00 0. -1.
         -4    1    3    3    0  503  0.23282515854E+03  0.15904166769E+03  0.53169926395E+03  0.60183545408E+03  0.00000000000E+00 0. -1.
<mgrwt>
<rscale>  2 0.10891476E+04</rscale>
<asrwt>0</asrwt>
<pdfrwt beam="1">  1       21 0.16266811E+00 0.10894497E+04</pdfrwt>
<pdfrwt beam="2">  1       21 0.17427159E+00 0.10894497E+04</pdfrwt>
<totfact> 0.22307454E+01</totfact>
</mgrwt>
</event>
<event>
 8    1  0.5815007E-006  0.1035424E+04  0.7818608E-02  0.8742208E-01
         21   -1    0    0  501  502  0.00000000000E+00  0.00000000000E+00  0.86189839945E+03  0.86189839945E+03  0.00000000000E+00 0. -1.
         21   -1    0    0  502  503 -0.00000000000E+00 -0.00000000000E+00 -0.12974264266E+04  0.12974264266E+04  0.00000000000E+00 0. -1.
   -9000010    2    1    2    0  503 -0.93310435890E+02 -0.28042466000E+03 -0.43942335133E+03  0.11248088045E+04  0.99234930217E+03 0.  0.
    9000010    2    1    2  501    0  0.93310435890E+02  0.28042466000E+03  0.38953242247E+01  0.10345160215E+04  0.99139467313E+03 0.  0.
        -13    1    4    4    0    0 -0.40734653132E+02 -0.35327533188E+03 -0.11947554409E+03  0.37514955535E+03  0.10566000000E+00 0.  1.
          4    1    4    4  501    0  0.13404508902E+03  0.63369999188E+03  0.12337086832E+03  0.65936646620E+03  0.00000000000E+00 0.  1.
         13    1    3    3    0    0 -0.46308581446E+02 -0.36206875768E+03 -0.73171679246E+03  0.81770883909E+03  0.10566000000E+00 0. -1.
         -4    1    3    3    0  503 -0.47001854444E+02  0.81644097677E+02  0.29229344112E+03  0.30709996537E+03  0.00000000000E+00 0. -1.
<mgrwt>
<rscale>  2 0.10351948E+04</rscale>
<asrwt>0</asrwt>
<pdfrwt beam="1">  1       21 0.13259975E+00 0.10354236E+04</pdfrwt>
<pdfrwt beam="2">  1       21 0.19960406E+00 0.10354236E+04</pdfrwt>
<totfact> 0.26370227E+01</totfact>
</mgrwt>
</event>
<event>
 8    1  0.5815007E-006  0.1299198E+04  0.7818608E-02  0.8537029E-01
         21   -1    0    0  503  502  0.00000000000E+00  0.00000000000E+00  0.18096940357E+04  0.18096940357E+04  0.00000000000E+00 0.  1.
         21   -1    0    0  501  503 -0.00000000000E+00 -0.00000000000E+00 -0.96865400261E+03  0.96865400261E+03  0.00000000000E+00 0. -1.
    9000010    2    1    2  501    0 -0.18076501196E+03  0.77577420961E+03  0.13000565486E+03  0.13056863018E+04  0.10263594080E+04 0.  0.
   -9000010    2    1    2    0  502  0.18076501196E+03 -0.77577420961E+03  0.71103437819E+03  0.14726617365E+04  0.10142293081E+04 0.  0.
        -13    1    3    3    0    0  0.34353205116E+03  0.61443365287E+03  0.24469695521E+03  0.74526478181E+03  0.10566000000E+00 0.  1.
          4    1    3    3  501    0 -0.52429706312E+03  0.16134055674E+03 -0.11469130035E+03  0.56042151995E+03  0.00000000000E+00 0.  1.
         13    1    4    4    0    0 -0.34026473379E+03 -0.67164319199E+03  0.35012261262E+03  0.83034361649E+03  0.10566000000E+00 0. -1.
         -4    1    4    4    0  502  0.52102974575E+03 -0.10413101762E+03  0.36091176557E+03  0.64231812003E+03  0.00000000000E+00 0. -1.
<mgrwt>
<rscale>  2 0.12968010E+04</rscale>
<asrwt>0</asrwt>
<pdfrwt beam="1">  1       21 0.27841447E+00 0.12991979E+04</pdfrwt>
<pdfrwt beam="2">  1       21 0.14902369E+00 0.12991979E+04</pdfrwt>
<totfact> 0.45898078E+00</totfact>
</mgrwt>
</event>
<event>
 8    1  0.5815007E-006  0.1155182E+04  0.7818608E-02  0.8644453E-01
         21   -1    0    0  503  502  0.00000000000E+00  0.00000000000E+00  0.19156473881E+04  0.19156473881E+04  0.00000000000E+00 0. -1.
         21   -1    0    0  501  503 -0.00000000000E+00 -0.00000000000E+00 -0.68646182680E+03  0.68646182680E+03  0.00000000000E+00 0. -1.
    9000010    2    1    2  501    0  0.36241344230E+03  0.40427325731E+03  0.60696025255E+03  0.12900079247E+04  0.10004695537E+04 0.  0.
   -9000010    2    1    2    0  502 -0.36241344230E+03 -0.40427325731E+03  0.62222530879E+03  0.13121012902E+04  0.10196396869E+04 0.  0.
        -13    1    3    3    0    0 -0.10729034498E+03  0.55815789402E+03  0.55265100322E+03  0.79276389632E+03  0.10566000000E+00 0.  1.
          4    1    3    3  501    0  0.46970378728E+03 -0.15388463671E+03  0.54309249326E+02  0.49724402838E+03  0.00000000000E+00 0.  1.
         13    1    4    4    0    0  0.13087901029E+03  0.15863717777E+03  0.51683434768E+03  0.55624888639E+03  0.10566000000E+00 0. -1.
         -4    1    4    4    0  502 -0.49329245260E+03 -0.56291043508E+03  0.10539096111E+03  0.75585240384E+03  0.00000000000E+00 0. -1.
<mgrwt>
<rscale>  2 0.11509374E+04</rscale>
<asrwt>0</asrwt>
<pdfrwt beam="1">  1       21 0.29471498E+00 0.11551820E+04</pdfrwt>
<pdfrwt beam="2">  1       21 0.10560951E+00 0.11551820E+04</pdfrwt>
<totfact> 0.96980955E+00</totfact>
</mgrwt>
</event>
<event>
 8    1  0.5815007E-006  0.1190770E+04  0.7818608E-02  0.8615286E-01
         21   -1    0    0  503  502  0.00000000000E+00  0.00000000000E+00  0.19345300045E+04  0.19345300045E+04  0.00000000000E+00 0.  1.
         21   -1    0    0  501  503 -0.00000000000E+00 -0.00000000000E+00 -0.77764633625E+03  0.77764633625E+03  0.00000000000E+00 0.  1.
    9000010    2    1    2  501    0  0.43670084474E+03 -0.46642833970E+03  0.23150991255E+03  0.12041149878E+04  0.99399851125E+03 0.  0.
   -9000010    2    1    2    0  502 -0.43670084474E+03  0.46642833970E+03  0.92537375567E+03  0.15080613529E+04  0.10048230852E+04 0.  0.
        -13    1    3    3    0    0  0.25385100733E+03 -0.76696506119E+03  0.52986829112E+02  0.80961926498E+03  0.10566000000E+00 0.  1.
          4    1    3    3  501    0  0.18284983742E+03  0.30053672149E+03  0.17852308344E+03  0.39449572282E+03  0.00000000000E+00 0.  1.
         13    1    4    4    0    0  0.74717629942E+02  0.63086080618E+03  0.36897907301E+03  0.73465205947E+03  0.10566000000E+00 0. -1.
         -4    1    4    4    0  502 -0.51141847469E+03 -0.16443246648E+03  0.55639468265E+03  0.77340929343E+03  0.00000000000E+00 0. -1.
<mgrwt>
<rscale>  2 0.11884831E+04</rscale>
<asrwt>0</asrwt>
<pdfrwt beam="1">  1       21 0.29762000E+00 0.11907697E+04</pdfrwt>
<pdfrwt beam="2">  1       21 0.11963790E+00 0.11907697E+04</pdfrwt>
<totfact> 0.65261715E+00</totfact>
</mgrwt>
</event>
<event>
 8    1  0.5815007E-006  0.1191434E+04  0.7818608E-02  0.8613402E-01
         21   -1    0    0  501  502  0.00000000000E+00  0.00000000000E+00  0.18680489636E+04  0.18680489636E+04  0.00000000000E+00 0.  1.
         21   -1    0    0  502  503 -0.00000000000E+00 -0.00000000000E+00 -0.76197735342E+03  0.76197735342E+03  0.00000000000E+00 0.  1.
   -9000010    2    1    2    0  503 -0.48972880442E+03 -0.43747589707E+03  0.46698697376E+03  0.12796845252E+04  0.99413087060E+03 0.  0.
    9000010    2    1    2  501    0  0.48972880442E+03  0.43747589707E+03  0.63908463646E+03  0.13503417919E+04  0.99185398117E+03 0.  0.
        -13    1    4    4    0    0 -0.74732524965E+02  0.19394675027E+03  0.70223860310E+03  0.73235193662E+03  0.10566000000E+00 0.  1.
          4    1    4    4  501    0  0.56446132938E+03  0.24352914680E+03 -0.63153966639E+02  0.61798985527E+03  0.00000000000E+00 0.  1.
         13    1    3    3    0    0 -0.26106627572E+03 -0.41607406005E+03  0.76152127055E+03  0.90619417369E+03  0.10566000000E+00 0. -1.
         -4    1    3    3    0  503 -0.22866252869E+03 -0.21401837020E+02 -0.29453429679E+03  0.37349035147E+03  0.00000000000E+00 0. -1.
<mgrwt>
<rscale>  2 0.11909592E+04</rscale>
<asrwt>0</asrwt>
<pdfrwt beam="1">  1       21 0.28739215E+00 0.11914343E+04</pdfrwt>
<pdfrwt beam="2">  1       21 0.11722729E+00 0.11914343E+04</pdfrwt>
<totfact> 0.81618832E+00</totfact>
</mgrwt>
</event>
<event>
 8    1  0.5815007E-006  0.1036767E+04  0.7818608E-02  0.8747762E-01
         21   -1    0    0  503  502  0.00000000000E+00  0.00000000000E+00  0.10136245143E+04  0.10136245143E+04  0.00000000000E+00 0.  1.
         21   -1    0    0  501  503 -0.00000000000E+00 -0.00000000000E+00 -0.10332499234E+04  0.10332499234E+04  0.00000000000E+00 0.  1.
    9000010    2    1    2  501    0  0.50368224003E+02 -0.15854110808E+03  0.51990304751E+02  0.10380692531E+04  0.10233340323E+04 0.  0.
   -9000010    2    1    2    0  502 -0.50368224003E+02  0.15854110808E+03 -0.71615713806E+02  0.10088051845E+04  0.99241465573E+03 0.  0.
        -13    1    3    3    0    0  0.16312677488E+03 -0.46810128185E+03  0.33948095697E+03  0.60081318733E+03  0.10566000000E+00 0.  1.
          4    1    3    3  501    0 -0.11275855087E+03  0.30956017377E+03 -0.28749065222E+03  0.43725606582E+03  0.00000000000E+00 0.  1.
         13    1    4    4    0    0 -0.35540345509E+03  0.40226424209E+03  0.15326666481E+03  0.55822828490E+03  0.10566000000E+00 0. -1.
         -4    1    4    4    0  502  0.30503523109E+03 -0.24372313401E+03 -0.22488237862E+03  0.45057689962E+03  0.00000000000E+00 0. -1.
<mgrwt>
<rscale>  2 0.10290542E+04</rscale>
<asrwt>0</asrwt>
<pdfrwt beam="1">  1       21 0.15594223E+00 0.10367665E+04</pdfrwt>
<pdfrwt beam="2">  1       21 0.15896153E+00 0.10367665E+04</pdfrwt>
<totfact> 0.34781974E+01</totfact>
</mgrwt>
</event>
<event>
 8    1  0.5815007E-006  0.1352466E+04  0.7818608E-02  0.8500426E-01
         21   -1    0    0  501  502  0.00000000000E+00  0.00000000000E+00  0.13518648662E+04  0.13518648662E+04  0.00000000000E+00 0. -1.
         21   -1    0    0  502  503 -0.00000000000E+00 -0.00000000000E+00 -0.13910782443E+04  0.13910782443E+04  0.00000000000E+00 0. -1.
   -9000010    2    1    2    0  503 -0.77862337746E+03  0.49461271630E+03 -0.25705949235E+03  0.13730448992E+04  0.98401047232E+03 0.  0.
    9000010    2    1    2  501    0  0.77862337746E+03 -0.49461271630E+03  0.21784611419E+03  0.13698982113E+04  0.98907435353E+03 0.  0.
        -13    1    4    4    0    0  0.56453024211E+03 -0.79066390429E+03  0.64454877043E+02  0.97365201492E+03  0.10566000000E+00 0.  1.
          4    1    4    4  501    0  0.21409313535E+03  0.29605118799E+03  0.15339123715E+03  0.39624619639E+03  0.00000000000E+00 0.  1.
         13    1    3    3    0    0 -0.85357868582E+03  0.76193763408E+02  0.34363763611E+02  0.85766132120E+03  0.10566000000E+00 0. -1.
         -4    1    3    3    0  503  0.74955308358E+02  0.41841895289E+03 -0.29142325596E+03  0.51538357803E+03  0.00000000000E+00 0. -1.
<mgrwt>
<rscale>  2 0.13515403E+04</rscale>
<asrwt>0</asrwt>
<pdfrwt beam="1">  1       21 0.20797921E+00 0.13524660E+04</pdfrwt>
<pdfrwt beam="2">  1       21 0.21401204E+00 0.13524660E+04</pdfrwt>
<totfact> 0.43952310E+00</totfact>
</mgrwt>
</event>
<event>
 8    1  0.5815007E-006  0.1364314E+04  0.7818608E-02  0.8496274E-01
         21   -1    0    0  501  502  0.00000000000E+00  0.00000000000E+00  0.23237725787E+04  0.23237725787E+04  0.00000000000E+00 0. -1.
         21   -1    0    0  502  503 -0.00000000000E+00 -0.00000000000E+00 -0.84521665843E+03  0.84521665843E+03  0.00000000000E+00 0.  1.
   -9000010    2    1    2    0  503  0.69840280484E+03  0.53945590849E+03  0.11645074696E+04  0.17937195225E+04  0.10404676467E+04 0.  0.
    9000010    2    1    2  501    0 -0.69840280484E+03 -0.53945590849E+03  0.31404845074E+03  0.13752697147E+04  0.10069564060E+04 0.  0.
        -13    1    4    4    0    0 -0.56730704156E+02 -0.73594732325E+02  0.54223557999E+03  0.55013997563E+03  0.10566000000E+00 0.  1.
          4    1    4    4  501    0 -0.64167210068E+03 -0.46586117617E+03 -0.22818712924E+03  0.82512973902E+03  0.00000000000E+00 0.  1.
         13    1    3    3    0    0  0.66423504094E+02 -0.20461904009E+03 -0.64100267236E+02  0.22447692284E+03  0.10566000000E+00 0. -1.
         -4    1    3    3    0  503  0.63197930075E+03  0.74407494859E+03  0.12286077368E+04  0.15692425997E+04  0.00000000000E+00 0. -1.
<mgrwt>
<rscale>  2 0.13579237E+04</rscale>
<asrwt>0</asrwt>
<pdfrwt beam="1">  1       21 0.35750347E+00 0.13643138E+04</pdfrwt>
<pdfrwt beam="2">  1       21 0.13003333E+00 0.13643138E+04</pdfrwt>
<totfact> 0.18853609E+00</totfact>
</mgrwt>
</event>
<event>
 8    1  0.5815007E-006  0.1078446E+04  0.7818608E-02  0.8711396E-01
         21   -1    0    0  503  502  0.00000000000E+00  0.00000000000E+00  0.10568788271E+04  0.10568788271E+04  0.00000000000E+00 0. -1.
         21   -1    0    0  501  503 -0.00000000000E+00 -0.00000000000E+00 -0.10769961466E+04  0.10769961466E+04  0.00000000000E+00 0. -1.
    9000010    2    1    2  501    0  0.45442982083E+02 -0.42433525987E+03 -0.11292590533E+03  0.10514427362E+04  0.95428197610E+03 0.  0.
   -9000010    2    1    2    0  502 -0.45442982083E+02  0.42433525987E+03  0.92808585819E+02  0.10824322375E+04  0.99041437680E+03 0.  0.
        -13    1    3    3    0    0 -0.41484587307E+03 -0.21428321457E+03  0.13772277814E+03  0.48680793875E+03  0.10566000000E+00 0.  1.
          4    1    3    3  501    0  0.46028885515E+03 -0.21005204531E+03 -0.25064868347E+03  0.56463479740E+03  0.00000000000E+00 0.  1.
         13    1    4    4    0    0  0.28277910476E+03 -0.15788025133E+03 -0.16817000884E+03  0.36492651163E+03  0.10566000000E+00 0. -1.
         -4    1    4    4    0  502 -0.32822208685E+03  0.58221551120E+03  0.26097859466E+03  0.71750572587E+03  0.00000000000E+00 0. -1.
<mgrwt>
<rscale>  2 0.10700780E+04</rscale>
<asrwt>0</asrwt>
<pdfrwt beam="1">  1       21 0.16259674E+00 0.10784462E+04</pdfrwt>
<pdfrwt beam="2">  1       21 0.16569171E+00 0.10784462E+04</pdfrwt>
<totfact> 0.26428461E+01</totfact>
</mgrwt>
</event>
<event>
 8    1  0.5815007E-006  0.1032097E+04  0.7818608E-02  0.8750112E-01
         21   -1    0    0  501  502  0.00000000000E+00  0.00000000000E+00  0.13973732824E+04  0.13973732824E+04  0.00000000000E+00 0. -1.
         21   -1    0    0  502  503 -0.00000000000E+00 -0.00000000000E+00 -0.92055197359E+03  0.92055197359E+03  0.00000000000E+00 0. -1.
   -9000010    2    1    2    0  503  0.25325348923E+03  0.12683756738E+03  0.74530911704E+03  0.12730709413E+04  0.99247107931E+03 0.  0.
    9000010    2    1    2  501    0 -0.25325348923E+03 -0.12683756738E+03 -0.26848780822E+03  0.10448543147E+04  0.96923151907E+03 0.  0.
        -13    1    4    4    0    0 -0.14513253003E+03  0.23202979806E+03  0.27283285443E+03  0.38644411767E+03  0.10566000000E+00 0.  1.
          4    1    4    4  501    0 -0.10812095920E+03 -0.35886736544E+03 -0.54132066265E+03  0.65841019707E+03  0.00000000000E+00 0.  1.
         13    1    3    3    0    0 -0.43964894828E+01  0.53783387093E+03  0.47607489507E+03  0.71828400979E+03  0.10566000000E+00 0. -1.
         -4    1    3    3    0  503  0.25764997871E+03 -0.41099630355E+03  0.26923422197E+03  0.55478693148E+03  0.00000000000E+00 0. -1.
<mgrwt>
<rscale>  2 0.10264692E+04</rscale>
<asrwt>0</asrwt>
<pdfrwt beam="1">  1       21 0.21498050E+00 0.10320969E+04</pdfrwt>
<pdfrwt beam="2">  1       21 0.14162338E+00 0.10320969E+04</pdfrwt>
<totfact> 0.16542195E+01</totfact>
</mgrwt>
</event>
<event>
 8    1  0.5815007E-006  0.1118094E+04  0.7818608E-02  0.8675090E-01
         21   -1    0    0  503  502  0.00000000000E+00  0.00000000000E+00  0.14604324844E+04  0.14604324844E+04  0.00000000000E+00 0. -1.
         21   -1    0    0  501  503 -0.00000000000E+00 -0.00000000000E+00 -0.85953973338E+03  0.85953973338E+03  0.00000000000E+00 0. -1.
    9000010    2    1    2  501    0  0.43824214239E+03 -0.25058924990E+03  0.13137502750E+03  0.11257853257E+04  0.99763823816E+03 0.  0.
   -9000010    2    1    2    0  502 -0.43824214239E+03  0.25058924990E+03  0.46951772357E+03  0.11941868921E+04  0.97508168528E+03 0.  0.
        -13    1    3    3    0    0  0.90463822554E+02 -0.61042421227E+03  0.90437387781E+02  0.62368289570E+03  0.10566000000E+00 0.  1.
          4    1    3    3  501    0  0.34777831984E+03  0.35983496237E+03  0.40937639715E+02  0.50210243003E+03  0.00000000000E+00 0.  1.
         13    1    4    4    0    0 -0.47951765776E+03 -0.26239688144E+03  0.39449459293E+03  0.67410333222E+03  0.10566000000E+00 0. -1.
         -4    1    4    4    0  502  0.41275515365E+02  0.51298613134E+03  0.75023130639E+02  0.52008355987E+03  0.00000000000E+00 0. -1.
<mgrwt>
<rscale>  2 0.11130396E+04</rscale>
<asrwt>0</asrwt>
<pdfrwt beam="1">  1       21 0.22468192E+00 0.11180936E+04</pdfrwt>
<pdfrwt beam="2">  1       21 0.13223688E+00 0.11180936E+04</pdfrwt>
<totfact> 0.16792691E+01</totfact>
</mgrwt>
</event>
<event>
 8    1  0.5815007E-006  0.1018075E+04  0.7818608E-02  0.8762573E-01
         21   -1    0    0  503  502  0.00000000000E+00  0.00000000000E+00  0.22824400256E+04  0.22824400256E+04  0.00000000000E+00 0.  1.
         21   -1    0    0  501  503 -0.00000000000E+00 -0.00000000000E+00 -0.44502617201E+03  0.44502617201E+03  0.00000000000E+00 0.  1.
    9000010    2    1    2  501    0 -0.12072424911E+03  0.21720383607E+02  0.92363418584E+03  0.13594495276E+04  0.98992766873E+03 0.  0.
   -9000010    2    1    2    0  502  0.12072424911E+03 -0.21720383607E+02  0.91377966773E+03  0.13680166700E+04  0.10106583048E+04 0.  0.
        -13    1    3    3    0    0 -0.55821475884E+03 -0.37060079521E+00  0.55095716510E+03  0.78431987305E+03  0.10566000000E+00 0.  1.
          4    1    3    3  501    0  0.43749050973E+03  0.22090984402E+02  0.37267702074E+03  0.57512965450E+03  0.00000000000E+00 0.  1.
         13    1    4    4    0    0  0.37209121762E+03  0.20392732819E+03  0.34059479113E+02  0.42567392297E+03  0.10566000000E+00 0. -1.
         -4    1    4    4    0  502 -0.25136696851E+03 -0.22564771180E+03  0.87972018861E+03  0.94234274707E+03  0.00000000000E+00 0. -1.
<mgrwt>
<rscale>  2 0.10128912E+04</rscale>
<asrwt>0</asrwt>
<pdfrwt beam="1">  1       21 0.35114461E+00 0.10180748E+04</pdfrwt>
<pdfrwt beam="2">  1       21 0.68465566E-01 0.10180748E+04</pdfrwt>
<totfact> 0.11854331E+01</totfact>
</mgrwt>
</event>
<event>
 8    1  0.5815007E-006  0.1092495E+04  0.7818608E-02  0.8696142E-01
         21   -1    0    0  501  502  0.00000000000E+00  0.00000000000E+00  0.17112072905E+04  0.17112072905E+04  0.00000000000E+00 0.  1.
         21   -1    0    0  502  503 -0.00000000000E+00 -0.00000000000E+00 -0.90911012194E+03  0.90911012194E+03  0.00000000000E+00 0. -1.
   -9000010    2    1    2    0  503  0.26041205702E+03  0.30401876470E+03 -0.24567938011E+03  0.11197784365E+04  0.10165153911E+04 0.  0.
    9000010    2    1    2  501    0 -0.26041205702E+03 -0.30401876470E+03  0.10477765487E+04  0.15005389760E+04  0.99676460295E+03 0.  0.
        -13    1    4    4    0    0 -0.22052075232E+03 -0.33921543000E+03  0.12383032108E+04  0.13027245922E+04  0.10566000000E+00 0.  1.
          4    1    4    4  501    0 -0.39891304704E+02  0.35196665302E+02 -0.19052666211E+03  0.19781438374E+03  0.00000000000E+00 0.  1.
         13    1    3    3    0    0  0.31396082852E+03  0.45066925132E+03 -0.55028888086E+03  0.77749086135E+03  0.10566000000E+00 0. -1.
         -4    1    3    3    0  503 -0.53548771495E+02 -0.14665048662E+03  0.30460950075E+03  0.34228757515E+03  0.00000000000E+00 0. -1.
<mgrwt>
<rscale>  2 0.10878776E+04</rscale>
<asrwt>0</asrwt>
<pdfrwt beam="1">  1       21 0.26326266E+00 0.10924950E+04</pdfrwt>
<pdfrwt beam="2">  1       21 0.13986310E+00 0.10924950E+04</pdfrwt>
<totfact> 0.74635797E+00</totfact>
</mgrwt>
</event>
<event>
 8    1  0.5815007E-006  0.1190407E+04  0.7818608E-02  0.8614608E-01
         21   -1    0    0  501  502  0.00000000000E+00  0.00000000000E+00  0.27513212400E+04  0.27513212400E+04  0.00000000000E+00 0. -1.
         21   -1    0    0  502  503 -0.00000000000E+00 -0.00000000000E+00 -0.51437013958E+03  0.51437013958E+03  0.00000000000E+00 0. -1.
   -9000010    2    1    2    0  503 -0.47648728014E+03  0.40235471421E+03  0.10408142030E+04  0.15781454235E+04  0.10091180943E+04 0.  0.
    9000010    2    1    2  501    0  0.47648728014E+03 -0.40235471421E+03  0.11961368974E+04  0.16875459561E+04  0.10139716132E+04 0.  0.
        -13    1    4    4    0    0  0.58128671027E+03  0.17202359094E+03  0.58915025896E+03  0.84533093766E+03  0.10566000000E+00 0.  1.
          4    1    4    4  501    0 -0.10479943013E+03 -0.57437830515E+03  0.60698663841E+03  0.84221501839E+03  0.00000000000E+00 0.  1.
         13    1    3    3    0    0 -0.67925316195E+02  0.36944959200E+03  0.11015014712E+04  0.11637922288E+04  0.10566000000E+00 0. -1.
         -4    1    3    3    0  503 -0.40856196394E+03  0.32905122218E+02 -0.60687268155E+02  0.41435319471E+03  0.00000000000E+00 0. -1.
<mgrwt>
<rscale>  2 0.11893724E+04</rscale>
<asrwt>0</asrwt>
<pdfrwt beam="1">  1       21 0.42328018E+00 0.11904066E+04</pdfrwt>
<pdfrwt beam="2">  1       21 0.79133869E-01 0.11904066E+04</pdfrwt>
<totfact> 0.25389848E+00</totfact>
</mgrwt>
</event>
<event>
 8    1  0.5815007E-006  0.1185391E+04  0.7818608E-02  0.8642688E-01
         21   -1    0    0  503  502  0.00000000000E+00  0.00000000000E+00  0.72641655894E+03  0.72641655894E+03  0.00000000000E+00 0. -1.
         21   -1    0    0  501  503 -0.00000000000E+00 -0.00000000000E+00 -0.17465668881E+04  0.17465668881E+04  0.00000000000E+00 0. -1.
    9000010    2    1    2  501    0 -0.21597371764E+03  0.46857516216E+03 -0.45014614112E+03  0.12679837937E+04  0.10672132043E+04 0.  0.
   -9000010    2    1    2    0  502  0.21597371764E+03 -0.46857516216E+03 -0.57000418804E+03  0.12049996534E+04  0.92785346953E+03 0.  0.
        -13    1    3    3    0    0  0.25594300171E+03  0.59164900344E+03 -0.67640462118E+02  0.64817482724E+03  0.10566000000E+00 0.  1.
          4    1    3    3  501    0 -0.47191671935E+03 -0.12307384128E+03 -0.38250567900E+03  0.61980896644E+03  0.00000000000E+00 0.  1.
         13    1    4    4    0    0  0.49198005657E+03 -0.41186399990E+03 -0.64873713298E+03  0.91243422193E+03  0.10566000000E+00 0. -1.
         -4    1    4    4    0  502 -0.27600633893E+03 -0.56711162256E+02  0.78732944938E+02  0.29256543144E+03  0.00000000000E+00 0. -1.
<mgrwt>
<rscale>  2 0.11531675E+04</rscale>
<asrwt>0</asrwt>
<pdfrwt beam="1">  1       21 0.11175639E+00 0.11853908E+04</pdfrwt>
<pdfrwt beam="2">  1       21 0.26870260E+00 0.11853908E+04</pdfrwt>
<totfact> 0.12677427E+01</totfact>
</mgrwt>
</event>
<event>
 8    1  0.5815007E-006  0.1133820E+04  0.7818608E-02  0.8658722E-01
         21   -1    0    0  501  502  0.00000000000E+00  0.00000000000E+00  0.37647955987E+04  0.37647955987E+04  0.00000000000E+00 0. -1.
         21   -1    0    0  502  503 -0.00000000000E+00 -0.00000000000E+00 -0.42792448220E+03  0.42792448220E+03  0.00000000000E+00 0. -1.
   -9000010    2    1    2    0  503 -0.30224968863E+03 -0.45355521462E+03  0.71969878214E+03  0.13405036294E+04  0.99091696743E+03 0.  0.
    9000010    2    1    2  501    0  0.30224968863E+03  0.45355521462E+03  0.26171723344E+04  0.28522164516E+04  0.99422354210E+03 0.  0.
        -13    1    4    4    0    0  0.58339860244E+03  0.35257406452E+02  0.99942119627E+03  0.11577736190E+04  0.10566000000E+00 0.  1.
          4    1    4    4  501    0 -0.28114891382E+03  0.41829780817E+03  0.16177511381E+04  0.16944428326E+04  0.00000000000E+00 0.  1.
         13    1    3    3    0    0 -0.23307574564E+03 -0.52987815150E+03 -0.33930393111E+02  0.57986760677E+03  0.10566000000E+00 0. -1.
         -4    1    3    3    0  503 -0.69173942983E+02  0.76322936879E+02  0.75362917525E+03  0.76063602259E+03  0.00000000000E+00 0. -1.
<mgrwt>
<rscale>  2 0.11330947E+04</rscale>
<asrwt>0</asrwt>
<pdfrwt beam="1">  1       21 0.57919930E+00 0.11338199E+04</pdfrwt>
<pdfrwt beam="2">  1       21 0.65834539E-01 0.11338199E+04</pdfrwt>
<totfact> 0.31364707E-01</totfact>
</mgrwt>
</event>
<event>
 8    1  0.5815007E-006  0.1090093E+04  0.7818608E-02  0.8714702E-01
         21   -1    0    0  503  502  0.00000000000E+00  0.00000000000E+00  0.12376145268E+04  0.12376145268E+04  0.00000000000E+00 0.  1.
         21   -1    0    0  501  503 -0.00000000000E+00 -0.00000000000E+00 -0.91662815515E+03  0.91662815515E+03  0.00000000000E+00 0.  1.
    9000010    2    1    2  501    0  0.41274315507E+03 -0.15701880163E+03 -0.59525947693E+02  0.99964610449E+03  0.89483919207E+03 0.  0.
   -9000010    2    1    2    0  502 -0.41274315507E+03  0.15701880163E+03  0.38051231937E+03  0.11545965775E+04  0.99664026381E+03 0.  0.
        -13    1    3    3    0    0  0.18262243648E+03  0.97971582664E+02 -0.44042782656E+03  0.48675051812E+03  0.10566000000E+00 0.  1.
          4    1    3    3  501    0  0.23012071859E+03 -0.25499038429E+03  0.38090187887E+03  0.51289558638E+03  0.00000000000E+00 0.  1.
         13    1    4    4    0    0 -0.70372722535E+03  0.11298786006E+03  0.46181395815E+03  0.84927640219E+03  0.10566000000E+00 0. -1.
         -4    1    4    4    0  502  0.29098407028E+03  0.44030941566E+02 -0.81301638786E+02  0.30532017529E+03  0.00000000000E+00 0. -1.
<mgrwt>
<rscale>  2 0.10662684E+04</rscale>
<asrwt>0</asrwt>
<pdfrwt beam="1">  1       21 0.19040223E+00 0.10900934E+04</pdfrwt>
<pdfrwt beam="2">  1       21 0.14101972E+00 0.10900934E+04</pdfrwt>
<totfact> 0.25675284E+01</totfact>
</mgrwt>
</event>
<event>
 8    1  0.5815007E-006  0.1092534E+04  0.7818608E-02  0.8694734E-01
         21   -1    0    0  501  502  0.00000000000E+00  0.00000000000E+00  0.19159079025E+04  0.19159079025E+04  0.00000000000E+00 0.  1.
         21   -1    0    0  502  503 -0.00000000000E+00 -0.00000000000E+00 -0.64474395998E+03  0.64474395998E+03  0.00000000000E+00 0.  1.
   -9000010    2    1    2    0  503  0.11918946642E+03  0.38710042025E+03  0.36298405143E+03  0.11399401022E+04  0.10018249102E+04 0.  0.
    9000010    2    1    2  501    0 -0.11918946642E+03 -0.38710042025E+03  0.90817989112E+03  0.14207117603E+04  0.10146813919E+04 0.  0.
        -13    1    4    4    0    0 -0.40745958319E+03 -0.19721635471E+03  0.38003575635E+01  0.45269421952E+03  0.10566000000E+00 0.  1.
          4    1    4    4  501    0  0.28827011678E+03 -0.18988406554E+03  0.90437953355E+03  0.96801754079E+03  0.00000000000E+00 0.  1.
         13    1    3    3    0    0  0.39526315694E+03  0.53275469499E+03  0.46661900135E+03  0.81104490126E+03  0.10566000000E+00 0. -1.
         -4    1    3    3    0  503 -0.27607369053E+03 -0.14565427475E+03 -0.10363494992E+03  0.32889520093E+03  0.00000000000E+00 0. -1.
<mgrwt>
<rscale>  2 0.10895395E+04</rscale>
<asrwt>0</asrwt>
<pdfrwt beam="1">  1       21 0.29475506E+00 0.10925343E+04</pdfrwt>
<pdfrwt beam="2">  1       21 0.99191379E-01 0.10925343E+04</pdfrwt>
<totfact> 0.11593730E+01</totfact>
</mgrwt>
</event>
<event>
 8    1  0.5815007E-006  0.1015143E+04  0.7818608E-02  0.8761529E-01
         21   -1    0    0  503  502  0.00000000000E+00  0.00000000000E+00  0.64546341892E+03  0.64546341892E+03  0.00000000000E+00 0. -1.
         21   -1    0    0  501  503 -0.00000000000E+00 -0.00000000000E+00 -0.15896670675E+04  0.15896670675E+04  0.00000000000E+00 0. -1.
    9000010    2    1    2  501    0 -0.59233011850E+02  0.19983648772E+03 -0.45983105326E+03  0.11103497736E+04  0.98893318812E+03 0.  0.
   -9000010    2    1    2    0  502  0.59233011850E+02 -0.19983648772E+03 -0.48437259533E+03  0.11247807129E+04  0.99351480585E+03 0.  0.
        -13    1    3    3    0    0  0.36725292493E+03 -0.17896480758E+03 -0.33041789715E+03  0.52543230881E+03  0.10566000000E+00 0.  1.
          4    1    3    3  501    0 -0.42648593678E+03  0.37880129530E+03 -0.12941315611E+03  0.58491746475E+03  0.00000000000E+00 0.  1.
         13    1    4    4    0    0 -0.34688136248E+03 -0.20649691279E+03 -0.58080577203E+03  0.70732100959E+03  0.10566000000E+00 0. -1.
         -4    1    4    4    0  502  0.40611437433E+03  0.66604250722E+01  0.96433176692E+02  0.41745970329E+03  0.00000000000E+00 0. -1.
<mgrwt>
<rscale>  2 0.10140200E+04</rscale>
<asrwt>0</asrwt>
<pdfrwt beam="1">  1       21 0.99302064E-01 0.10151428E+04</pdfrwt>
<pdfrwt beam="2">  1       21 0.24456416E+00 0.10151428E+04</pdfrwt>
<totfact> 0.26949518E+01</totfact>
</mgrwt>
</event>
<event>
 8    1  0.5815007E-006  0.1027391E+04  0.7818608E-02  0.8753465E-01
         21   -1    0    0  503  502  0.00000000000E+00  0.00000000000E+00  0.19596715122E+04  0.19596715122E+04  0.00000000000E+00 0. -1.
         21   -1    0    0  501  503 -0.00000000000E+00 -0.00000000000E+00 -0.62300732037E+03  0.62300732037E+03  0.00000000000E+00 0. -1.
    9000010    2    1    2  501    0 -0.71494542672E+02 -0.24340902488E+03  0.16189097932E+03  0.10220301820E+04  0.97671775897E+03 0.  0.
   -9000010    2    1    2    0  502  0.71494542672E+02  0.24340902488E+03  0.11747732125E+04  0.15606486506E+04  0.99557655994E+03 0.  0.
        -13    1    3    3    0    0  0.14956433479E+03  0.10436694519E+03  0.47218587758E+03  0.50618323129E+03  0.10566000000E+00 0.  1.
          4    1    3    3  501    0 -0.22105887747E+03 -0.34777597007E+03 -0.31029489826E+03  0.51584695070E+03  0.00000000000E+00 0.  1.
         13    1    4    4    0    0 -0.22965933029E+03  0.16192675442E+03  0.12141019586E+04  0.12461971187E+04  0.10566000000E+00 0. -1.
         -4    1    4    4    0  502  0.30115387297E+03  0.81482270453E+02 -0.39328746075E+02  0.31445153183E+03  0.00000000000E+00 0. -1.
<mgrwt>
<rscale>  2 0.10227941E+04</rscale>
<asrwt>0</asrwt>
<pdfrwt beam="1">  1       21 0.30148792E+00 0.10273909E+04</pdfrwt>
<pdfrwt beam="2">  1       21 0.95847281E-01 0.10273909E+04</pdfrwt>
<totfact> 0.11518336E+01</totfact>
</mgrwt>
</event>
<event>
 8    1  0.5815007E-006  0.1103496E+04  0.7818608E-02  0.8683747E-01
         21   -1    0    0  503  502  0.00000000000E+00  0.00000000000E+00  0.73149535453E+03  0.73149535453E+03  0.00000000000E+00 0.  1.
         21   -1    0    0  501  503 -0.00000000000E+00 -0.00000000000E+00 -0.17950964721E+04  0.17950964721E+04  0.00000000000E+00 0.  1.
    9000010    2    1    2  501    0 -0.20493724228E+03  0.41808411778E+03 -0.87843561751E+03  0.14076679053E+04  0.99653710150E+03 0.  0.
   -9000010    2    1    2    0  502  0.20493724228E+03 -0.41808411778E+03 -0.18516550008E+03  0.11189239214E+04  0.10004553346E+04 0.  0.
        -13    1    3    3    0    0 -0.93283150010E+02 -0.32815592801E+03 -0.21755982657E+03  0.40462371219E+03  0.10566000000E+00 0.  1.
          4    1    3    3  501    0 -0.11165409227E+03  0.74624004579E+03 -0.66087579094E+03  0.10030441931E+04  0.00000000000E+00 0.  1.
         13    1    4    4    0    0  0.48724682770E+03  0.62981012925E+01  0.14886365679E+03  0.50951892670E+03  0.10566000000E+00 0. -1.
         -4    1    4    4    0  502 -0.28230958542E+03 -0.42438221907E+03 -0.33402915687E+03  0.60940499467E+03  0.00000000000E+00 0. -1.
<mgrwt>
<rscale>  2 0.11026076E+04</rscale>
<asrwt>0</asrwt>
<pdfrwt beam="1">  1       21 0.11253775E+00 0.11034965E+04</pdfrwt>
<pdfrwt beam="2">  1       21 0.27616869E+00 0.11034965E+04</pdfrwt>
<totfact> 0.11186382E+01</totfact>
</mgrwt>
</event>
<event>
 8    1  0.5815007E-006  0.1720992E+04  0.7818608E-02  0.8293039E-01
         21   -1    0    0  501  502  0.00000000000E+00  0.00000000000E+00  0.18047872650E+04  0.18047872650E+04  0.00000000000E+00 0. -1.
         21   -1    0    0  502  503 -0.00000000000E+00 -0.00000000000E+00 -0.17268066141E+04  0.17268066141E+04  0.00000000000E+00 0.  1.
   -9000010    2    1    2    0  503  0.12570069541E+04  0.64749659479E+03 -0.36299685274E+03  0.17588580874E+04  0.98106917876E+03 0.  0.
    9000010    2    1    2  501    0 -0.12570069541E+04 -0.64749659479E+03  0.44097750358E+03  0.17727357917E+04  0.97407017500E+03 0.  0.
        -13    1    4    4    0    0 -0.65045431255E+03 -0.79995935624E+02 -0.24073180017E+03  0.69817044711E+03  0.10566000000E+00 0.  1.
          4    1    4    4  501    0 -0.60655264152E+03 -0.56750065917E+03  0.68170930375E+03  0.10745653446E+04  0.00000000000E+00 0.  1.
         13    1    3    3    0    0  0.10117841169E+04  0.90987342871E+03 -0.31301379528E+03  0.13962644458E+04  0.10566000000E+00 0. -1.
         -4    1    3    3    0  503  0.24522283717E+03 -0.26237683392E+03 -0.49983057457E+02  0.36259364153E+03  0.00000000000E+00 0. -1.
<mgrwt>
<rscale>  2 0.17199965E+04</rscale>
<asrwt>0</asrwt>
<pdfrwt beam="1">  1       21 0.27765958E+00 0.17209925E+04</pdfrwt>
<pdfrwt beam="2">  1       21 0.26566256E+00 0.17209925E+04</pdfrwt>
<totfact> 0.52213517E-01</totfact>
</mgrwt>
</event>
<event>
 8    1  0.5815007E-006  0.1271302E+04  0.7818608E-02  0.8559551E-01
         21   -1    0    0  503  502  0.00000000000E+00  0.00000000000E+00  0.11327326429E+04  0.11327326429E+04  0.00000000000E+00 0. -1.
         21   -1    0    0  501  503 -0.00000000000E+00 -0.00000000000E+00 -0.18818630029E+04  0.18818630029E+04  0.00000000000E+00 0. -1.
    9000010    2    1    2  501    0  0.68210989371E+03 -0.35563726574E+03 -0.11430586903E+04  0.17096175008E+04  0.10121546610E+04 0.  0.
   -9000010    2    1    2    0  502 -0.68210989371E+03  0.35563726574E+03  0.39392833033E+03  0.13049781450E+04  0.97777127067E+03 0.  0.
        -13    1    3    3    0    0  0.71871712195E+03  0.27607211150E+02 -0.29336577027E+03  0.77677535094E+03  0.10566000000E+00 0.  1.
          4    1    3    3  501    0 -0.36607228243E+02 -0.38324447689E+03 -0.84969292006E+03  0.93284214989E+03  0.00000000000E+00 0.  1.
         13    1    4    4    0    0 -0.65640604011E+03  0.20331902728E+03 -0.18021982827E+03  0.71041305873E+03  0.10566000000E+00 0. -1.
         -4    1    4    4    0  502 -0.25703853601E+02  0.15231823845E+03  0.57414815859E+03  0.59456508632E+03  0.00000000000E+00 0. -1.
<mgrwt>
<rscale>  2 0.12644466E+04</rscale>
<asrwt>0</asrwt>
<pdfrwt beam="1">  1       21 0.17426656E+00 0.12713020E+04</pdfrwt>
<pdfrwt beam="2">  1       21 0.28951738E+00 0.12713020E+04</pdfrwt>
<totfact> 0.23296658E+00</totfact>
</mgrwt>
</event>
<event>
 8    1  0.5815007E-006  0.1188625E+04  0.7818608E-02  0.8617288E-01
         21   -1    0    0  503  502  0.00000000000E+00  0.00000000000E+00  0.79491543099E+03  0.79491543099E+03  0.00000000000E+00 0. -1.
         21   -1    0    0  501  503 -0.00000000000E+00 -0.00000000000E+00 -0.18081985799E+04  0.18081985799E+04  0.00000000000E+00 0. -1.
    9000010    2    1    2  501    0  0.72741229877E+02  0.64331687893E+03 -0.71488331791E+03  0.13776053879E+04  0.98366180837E+03 0.  0.
   -9000010    2    1    2    0  502 -0.72741229877E+02 -0.64331687893E+03 -0.29839983100E+03  0.12255086230E+04  0.99683550936E+03 0.  0.
        -13    1    3    3    0    0  0.30754851017E+03  0.80208494108E+03 -0.38126437122E+03  0.93983449114E+03  0.10566000000E+00 0.  1.
          4    1    3    3  501    0 -0.23480728030E+03 -0.15876806215E+03 -0.33361894668E+03  0.43777089673E+03  0.00000000000E+00 0.  1.
         13    1    4    4    0    0  0.44711514016E+03 -0.15043559310E+03 -0.10089693221E+03  0.48241374185E+03  0.10566000000E+00 0. -1.
         -4    1    4    4    0  502 -0.51985637004E+03 -0.49288128583E+03 -0.19750289879E+03  0.74309488117E+03  0.00000000000E+00 0. -1.
<mgrwt>
<rscale>  2 0.11858586E+04</rscale>
<asrwt>0</asrwt>
<pdfrwt beam="1">  1       21 0.12229468E+00 0.11886248E+04</pdfrwt>
<pdfrwt beam="2">  1       21 0.27818439E+00 0.11886248E+04</pdfrwt>
<totfact> 0.84368312E+00</totfact>
</mgrwt>
</event>
<event>
 8    1  0.5815007E-006  0.1192450E+04  0.7818608E-02  0.8614178E-01
         21   -1    0    0  501  502  0.00000000000E+00  0.00000000000E+00  0.16795369339E+04  0.16795369339E+04  0.00000000000E+00 0. -1.
         21   -1    0    0  502  503 -0.00000000000E+00 -0.00000000000E+00 -0.83961537397E+03  0.83961537397E+03  0.00000000000E+00 0. -1.
   -9000010    2    1    2    0  503  0.43245785489E+03  0.46302099143E+03  0.40519948807E+03  0.12499318626E+04  0.99836606576E+03 0.  0.
    9000010    2    1    2  501    0 -0.43245785489E+03 -0.46302099143E+03  0.43472207188E+03  0.12692204453E+04  0.10102123659E+04 0.  0.
        -13    1    4    4    0    0 -0.43858711285E+03 -0.71341601086E+03  0.88805019325E+02  0.84214452603E+03  0.10566000000E+00 0.  1.
          4    1    4    4  501    0  0.61292579572E+01  0.25039501943E+03  0.34591705256E+03  0.42707591925E+03  0.00000000000E+00 0.  1.
         13    1    3    3    0    0  0.68222378378E+03  0.44934757685E+03  0.52655651832E+03  0.97190756459E+03  0.10566000000E+00 0. -1.
         -4    1    3    3    0  503 -0.24976592889E+03  0.13673414583E+02 -0.12135703024E+03  0.27802429802E+03  0.00000000000E+00 0. -1.
<mgrwt>
<rscale>  2 0.11899374E+04</rscale>
<asrwt>0</asrwt>
<pdfrwt beam="1">  1       21 0.25839030E+00 0.11924501E+04</pdfrwt>
<pdfrwt beam="2">  1       21 0.12917160E+00 0.11924501E+04</pdfrwt>
<totfact> 0.10002552E+01</totfact>
</mgrwt>
</event>
<event>
 8    1  0.5815007E-006  0.1073690E+04  0.7818608E-02  0.8715215E-01
         21   -1    0    0  501  502  0.00000000000E+00  0.00000000000E+00  0.17671549955E+04  0.17671549955E+04  0.00000000000E+00 0.  1.
         21   -1    0    0  502  503 -0.00000000000E+00 -0.00000000000E+00 -0.79886214722E+03  0.79886214722E+03  0.00000000000E+00 0.  1.
   -9000010    2    1    2    0  503 -0.33401478302E+03 -0.15820246762E+03 -0.10573613511E+03  0.10473505120E+04  0.97425308241E+03 0.  0.
    9000010    2    1    2  501    0  0.33401478302E+03  0.15820246762E+03  0.10740289834E+04  0.15186666308E+04  0.10080754844E+04 0.  0.
        -13    1    4    4    0    0  0.50434054538E+03  0.29831411062E+03  0.20296824631E+03  0.62011838748E+03  0.10566000000E+00 0.  1.
          4    1    4    4  501    0 -0.17032576236E+03 -0.14011164300E+03  0.87106073712E+03  0.89854824332E+03  0.00000000000E+00 0.  1.
         13    1    3    3    0    0 -0.53954341368E+03 -0.42256932127E+03  0.30101301586E+02  0.68598689933E+03  0.10566000000E+00 0. -1.
         -4    1    3    3    0  503  0.20552863065E+03  0.26436685365E+03 -0.13583743670E+03  0.36136361263E+03  0.00000000000E+00 0. -1.
<mgrwt>
<rscale>  2 0.10656781E+04</rscale>
<asrwt>0</asrwt>
<pdfrwt beam="1">  1       21 0.27187000E+00 0.10736899E+04</pdfrwt>
<pdfrwt beam="2">  1       21 0.12290187E+00 0.10736899E+04</pdfrwt>
<totfact> 0.94635399E+00</totfact>
</mgrwt>
</event>
<event>
 8    1  0.5815007E-006  0.1104637E+04  0.7818608E-02  0.8683580E-01
         21   -1    0    0  503  502  0.00000000000E+00  0.00000000000E+00  0.78456084963E+03  0.78456084963E+03  0.00000000000E+00 0.  1.
         21   -1    0    0  501  503 -0.00000000000E+00 -0.00000000000E+00 -0.16120580835E+04  0.16120580835E+04  0.00000000000E+00 0.  1.
    9000010    2    1    2  501    0  0.13652104105E+03 -0.42785032297E+03 -0.65940035746E+03  0.12864802842E+04  0.10092218768E+04 0.  0.
   -9000010    2    1    2    0  502 -0.13652104105E+03  0.42785032297E+03 -0.16809687640E+03  0.11101386489E+04  0.10012279293E+04 0.  0.
        -13    1    3    3    0    0 -0.26541731895E+03 -0.34876118131E+03 -0.74839357182E+03  0.86727946147E+03  0.10566000000E+00 0.  1.
          4    1    3    3  501    0  0.40193836001E+03 -0.79089141659E+02  0.88993214360E+02  0.41920082273E+03  0.00000000000E+00 0.  1.
         13    1    4    4    0    0 -0.19437405346E+03 -0.10288996741E+03 -0.45404170601E+03  0.50450123886E+03  0.10566000000E+00 0. -1.
         -4    1    4    4    0  502  0.57853012405E+02  0.53074029038E+03  0.28594482961E+03  0.60563741005E+03  0.00000000000E+00 0. -1.
<mgrwt>
<rscale>  2 0.11028077E+04</rscale>
<asrwt>0</asrwt>
<pdfrwt beam="1">  1       21 0.12070167E+00 0.11046369E+04</pdfrwt>
<pdfrwt beam="2">  1       21 0.24800894E+00 0.11046369E+04</pdfrwt>
<totfact> 0.14703520E+01</totfact>
</mgrwt>
</event>
<event>
 8    1  0.5815007E-006  0.1098837E+04  0.7818608E-02  0.8687486E-01
         21   -1    0    0  503  502  0.00000000000E+00  0.00000000000E+00  0.60645839953E+03  0.60645839953E+03  0.00000000000E+00 0.  1.
         21   -1    0    0  501  503 -0.00000000000E+00 -0.00000000000E+00 -0.20415241834E+04  0.20415241834E+04  0.00000000000E+00 0.  1.
    9000010    2    1    2  501    0  0.45237431806E+03  0.79483070302E+02 -0.93692537203E+03  0.14440474148E+04  0.99824030246E+03 0.  0.
   -9000010    2    1    2    0  502 -0.45237431806E+03 -0.79483070302E+02 -0.49814041186E+03  0.12039351681E+04  0.99516628608E+03 0.  0.
        -13    1    3    3    0    0  0.93938811327E+02 -0.35522262326E+03 -0.77520357839E+03  0.85787423989E+03  0.10566000000E+00 0.  1.
          4    1    3    3  501    0  0.35843550674E+03  0.43470569356E+03 -0.16172179363E+03  0.58617317496E+03  0.00000000000E+00 0.  1.
         13    1    4    4    0    0  0.56716262759E+02 -0.11531202369E+02  0.27208457763E+03  0.27817212592E+03  0.10566000000E+00 0. -1.
         -4    1    4    4    0  502 -0.50909058082E+03 -0.67951867933E+02 -0.77022498949E+03  0.92576304218E+03  0.00000000000E+00 0. -1.
<mgrwt>
<rscale>  2 0.10981388E+04</rscale>
<asrwt>0</asrwt>
<pdfrwt beam="1">  1       21 0.93301291E-01 0.10988375E+04</pdfrwt>
<pdfrwt beam="2">  1       21 0.31408065E+00 0.10988375E+04</pdfrwt>
<totfact> 0.98983690E+00</totfact>
</mgrwt>
</event>
<event>
 8    1  0.5815007E-006  0.1199706E+04  0.7818608E-02  0.8607423E-01
         21   -1    0    0  501  502  0.00000000000E+00  0.00000000000E+00  0.86471015107E+03  0.86471015107E+03  0.00000000000E+00 0.  1.
         21   -1    0    0  502  503 -0.00000000000E+00 -0.00000000000E+00 -0.17484005902E+04  0.17484005902E+04  0.00000000000E+00 0.  1.
   -9000010    2    1    2    0  503  0.65476337331E+03  0.89465703437E+01 -0.73540145502E+03  0.14042748074E+04  0.10011879537E+04 0.  0.
    9000010    2    1    2  501    0 -0.65476337331E+03 -0.89465703437E+01 -0.14828898409E+03  0.12088359338E+04  0.10052360797E+04 0.  0.
        -13    1    4    4    0    0 -0.64239980067E+03 -0.43331131126E+03 -0.10834813677E+03  0.78241646600E+03  0.10566000000E+00 0.  1.
          4    1    4    4  501    0 -0.12363572637E+02  0.42436474092E+03 -0.39940847323E+02  0.42641946783E+03  0.00000000000E+00 0.  1.
         13    1    3    3    0    0  0.88957261689E+03 -0.69438158513E+02 -0.73610844164E+03  0.11567267385E+04  0.10566000000E+00 0. -1.
         -4    1    3    3    0  503 -0.23480924358E+03  0.78384728856E+02  0.70698661487E+00  0.24754806891E+03  0.00000000000E+00 0. -1.
<mgrwt>
<rscale>  2 0.11988577E+04</rscale>
<asrwt>0</asrwt>
<pdfrwt beam="1">  1       21 0.13303233E+00 0.11997061E+04</pdfrwt>
<pdfrwt beam="2">  1       21 0.26898470E+00 0.11997061E+04</pdfrwt>
<totfact> 0.76915153E+00</totfact>
</mgrwt>
</event>
<event>
 8    1  0.5815007E-006  0.1387982E+04  0.7818608E-02  0.8477680E-01
         21   -1    0    0  503  502  0.00000000000E+00  0.00000000000E+00  0.20479477336E+04  0.20479477336E+04  0.00000000000E+00 0. -1.
         21   -1    0    0  501  503 -0.00000000000E+00 -0.00000000000E+00 -0.95348055175E+03  0.95348055175E+03  0.00000000000E+00 0.  1.
    9000010    2    1    2  501    0 -0.96496002964E+03  0.10803035943E+02  0.35477465438E+03  0.14286480027E+04  0.99192010552E+03 0.  0.
   -9000010    2    1    2    0  502  0.96496002964E+03 -0.10803035943E+02  0.73969252750E+03  0.15727802827E+04  0.99761125597E+03 0.  0.
        -13    1    3    3    0    0 -0.10666099388E+04  0.21672672700E+03  0.11149735888E+03  0.10941018727E+04  0.10566000000E+00 0.  1.
          4    1    3    3  501    0  0.10164990913E+03 -0.20592369105E+03  0.24327729549E+03  0.33454612995E+03  0.00000000000E+00 0.  1.
         13    1    4    4    0    0  0.11748859413E+02 -0.29839939044E+02 -0.21863789020E+03  0.22097736503E+03  0.10566000000E+00 0. -1.
         -4    1    4    4    0  502  0.95321117023E+03  0.19036903101E+02  0.95833041770E+03  0.13518029177E+04  0.00000000000E+00 0. -1.
<mgrwt>
<rscale>  2 0.13869592E+04</rscale>
<asrwt>0</asrwt>
<pdfrwt beam="1">  1       21 0.31506888E+00 0.13879815E+04</pdfrwt>
<pdfrwt beam="2">  1       21 0.14668932E+00 0.13879815E+04</pdfrwt>
<totfact> 0.26039164E+00</totfact>
</mgrwt>
</event>
<event>
 8    1  0.5815007E-006  0.1252688E+04  0.7818608E-02  0.8588087E-01
         21   -1    0    0  503  502  0.00000000000E+00  0.00000000000E+00  0.28837886804E+04  0.28837886804E+04  0.00000000000E+00 0. -1.
         21   -1    0    0  501  503 -0.00000000000E+00 -0.00000000000E+00 -0.52672075825E+03  0.52672075825E+03  0.00000000000E+00 0. -1.
    9000010    2    1    2  501    0  0.79942026082E+02  0.53901693391E+03  0.73314997160E+03  0.13595736731E+04  0.10069765186E+04 0.  0.
   -9000010    2    1    2    0  502 -0.79942026082E+02 -0.53901693391E+03  0.16239179506E+04  0.20509357656E+04  0.11279618885E+04 0.  0.
        -13    1    3    3    0    0  0.43746423072E+03  0.40783061568E+03  0.79864195181E+02  0.60338964615E+03  0.10566000000E+00 0.  1.
          4    1    3    3  501    0 -0.35752220464E+03  0.13118631823E+03  0.65328577641E+03  0.75618402692E+03  0.00000000000E+00 0.  1.
         13    1    4    4    0    0  0.25025011822E+03 -0.75629302108E+03  0.76051656740E+03  0.11013581233E+04  0.10566000000E+00 0. -1.
         -4    1    4    4    0  502 -0.33019214430E+03  0.21727608717E+03  0.86340138318E+03  0.94957764227E+03  0.00000000000E+00 0. -1.
<mgrwt>
<rscale>  2 0.12248412E+04</rscale>
<asrwt>0</asrwt>
<pdfrwt beam="1">  1       21 0.44365979E+00 0.12526883E+04</pdfrwt>
<pdfrwt beam="2">  1       21 0.81033964E-01 0.12526883E+04</pdfrwt>
<totfact> 0.17112353E+00</totfact>
</mgrwt>
</event>
<event>
 8    1  0.5815007E-006  0.1126296E+04  0.7818608E-02  0.8673160E-01
         21   -1    0    0  501  502  0.00000000000E+00  0.00000000000E+00  0.13099508553E+04  0.13099508553E+04  0.00000000000E+00 0. -1.
         21   -1    0    0  502  503 -0.00000000000E+00 -0.00000000000E+00 -0.11392508961E+04  0.11392508961E+04  0.00000000000E+00 0. -1.
   -9000010    2    1    2    0  503  0.13708478749E+03 -0.43438190988E+03  0.60654398322E+03  0.12415168604E+04  0.98284720508E+03 0.  0.
    9000010    2    1    2  501    0 -0.13708478749E+03  0.43438190988E+03 -0.43584402397E+03  0.12076848910E+04  0.10300790747E+04 0.  0.
        -13    1    4    4    0    0  0.63212162920E+02  0.55362428852E+03  0.15009319282E+03  0.57708197691E+03  0.10566000000E+00 0.  1.
          4    1    4    4  501    0 -0.20029695041E+03 -0.11924237863E+03 -0.58593721679E+03  0.63060291406E+03  0.00000000000E+00 0.  1.
         13    1    3    3    0    0 -0.11958984869E+01 -0.50205679262E+03 -0.10549713889E+03  0.51302252452E+03  0.10566000000E+00 0. -1.
         -4    1    3    3    0  503  0.13828068598E+03  0.67674882736E+02  0.71204112211E+03  0.72849433590E+03  0.00000000000E+00 0. -1.
<mgrwt>
<rscale>  2 0.11153813E+04</rscale>
<asrwt>0</asrwt>
<pdfrwt beam="1">  1       21 0.20153090E+00 0.11262960E+04</pdfrwt>
<pdfrwt beam="2">  1       21 0.17526937E+00 0.11262960E+04</pdfrwt>
<totfact> 0.10473816E+01</totfact>
</mgrwt>
</event>
<event>
 8    1  0.5815007E-006  0.1112058E+04  0.7818608E-02  0.8679452E-01
         21   -1    0    0  501  502  0.00000000000E+00  0.00000000000E+00  0.94346649936E+03  0.94346649936E+03  0.00000000000E+00 0. -1.
         21   -1    0    0  502  503 -0.00000000000E+00 -0.00000000000E+00 -0.13089980280E+04  0.13089980280E+04  0.00000000000E+00 0. -1.
   -9000010    2    1    2    0  503 -0.45763340308E+03  0.11707527606E+03 -0.51167655112E+02  0.11132350284E+04  0.10067468141E+04 0.  0.
    9000010    2    1    2  501    0  0.45763340308E+03 -0.11707527606E+03 -0.31436387352E+03  0.11392294989E+04  0.98786854103E+03 0.  0.
        -13    1    4    4    0    0  0.56061166717E+03  0.69698841718E+02  0.18644261457E+03  0.59489850361E+03  0.10566000000E+00 0.  1.
          4    1    4    4  501    0 -0.10297826409E+03 -0.18677411777E+03 -0.50080648809E+03  0.54433099531E+03  0.00000000000E+00 0.  1.
         13    1    3    3    0    0 -0.50065299131E+01  0.48083959229E+03 -0.18856537863E+03  0.51651591653E+03  0.10566000000E+00 0. -1.
         -4    1    3    3    0  503 -0.45262687317E+03 -0.36376431623E+03  0.13739772352E+03  0.59671911190E+03  0.00000000000E+00 0. -1.
<mgrwt>
<rscale>  2 0.11077684E+04</rscale>
<asrwt>0</asrwt>
<pdfrwt beam="1">  1       21 0.14514869E+00 0.11120585E+04</pdfrwt>
<pdfrwt beam="2">  1       21 0.20138431E+00 0.11120585E+04</pdfrwt>
<totfact> 0.19195074E+01</totfact>
</mgrwt>
</event>
<event>
 8    1  0.5815007E-006  0.1076127E+04  0.7818608E-02  0.8708158E-01
         21   -1    0    0  501  502  0.00000000000E+00  0.00000000000E+00  0.15729903782E+04  0.15729903782E+04  0.00000000000E+00 0. -1.
         21   -1    0    0  502  503 -0.00000000000E+00 -0.00000000000E+00 -0.82053688750E+03  0.82053688750E+03  0.00000000000E+00 0. -1.
   -9000010    2    1    2    0  503  0.40956792839E+03  0.32411985696E+02  0.77530288245E+03  0.13263273753E+04  0.99461214663E+03 0.  0.
    9000010    2    1    2  501    0 -0.40956792839E+03 -0.32411985696E+02 -0.22849391744E+02  0.10671998904E+04  0.98468121062E+03 0.  0.
        -13    1    4    4    0    0  0.22842025207E+03  0.19354785148E+03  0.19368863059E+03  0.35658362154E+03  0.10566000000E+00 0.  1.
          4    1    4    4  501    0 -0.63798818046E+03 -0.22595983718E+03 -0.21653802233E+03  0.71061626884E+03  0.00000000000E+00 0.  1.
         13    1    3    3    0    0 -0.16196771862E+03 -0.23523753854E+03  0.61059082070E+03  0.67408560503E+03  0.10566000000E+00 0. -1.
         -4    1    3    3    0  503  0.57153564701E+03  0.26764952424E+03  0.16471206175E+03  0.65224177029E+03  0.00000000000E+00 0. -1.
<mgrwt>
<rscale>  2 0.10738268E+04</rscale>
<asrwt>0</asrwt>
<pdfrwt beam="1">  1       21 0.24199852E+00 0.10761272E+04</pdfrwt>
<pdfrwt beam="2">  1       21 0.12623644E+00 0.10761272E+04</pdfrwt>
<totfact> 0.14419220E+01</totfact>
</mgrwt>
</event>
<event>
 8    1  0.5815007E-006  0.1065537E+04  0.7818608E-02  0.8717619E-01
         21   -1    0    0  501  502  0.00000000000E+00  0.00000000000E+00  0.13351068037E+04  0.13351068037E+04  0.00000000000E+00 0.  1.
         21   -1    0    0  502  503 -0.00000000000E+00 -0.00000000000E+00 -0.86068337145E+03  0.86068337145E+03  0.00000000000E+00 0.  1.
   -9000010    2    1    2    0  503 -0.30556476267E+03 -0.14263477599E+03  0.39744064373E+03  0.11274757666E+04  0.99976398986E+03 0.  0.
    9000010    2    1    2  501    0  0.30556476267E+03  0.14263477599E+03  0.76982788475E+02  0.10683144085E+04  0.10107694209E+04 0.  0.
        -13    1    4    4    0    0  0.43662241563E+03  0.47195987253E+03 -0.13268576534E+03  0.65649887936E+03  0.10566000000E+00 0.  1.
          4    1    4    4  501    0 -0.13105765296E+03 -0.32932509654E+03  0.20966855382E+03  0.41181552917E+03  0.00000000000E+00 0.  1.
         13    1    3    3    0    0 -0.31073678475E+03 -0.49751274757E+03  0.48591148014E+03  0.76169958717E+03  0.10566000000E+00 0. -1.
         -4    1    3    3    0  503  0.51720220779E+01  0.35487797158E+03 -0.88470836408E+02  0.36577617941E+03  0.00000000000E+00 0. -1.
<mgrwt>
<rscale>  2 0.10629190E+04</rscale>
<asrwt>0</asrwt>
<pdfrwt beam="1">  1       21 0.20540105E+00 0.10655371E+04</pdfrwt>
<pdfrwt beam="2">  1       21 0.13241283E+00 0.10655371E+04</pdfrwt>
<totfact> 0.23713555E+01</totfact>
</mgrwt>
</event>
<event>
 8    1  0.5815007E-006  0.1038296E+04  0.7818608E-02  0.8743015E-01
         21   -1    0    0  503  502  0.00000000000E+00  0.00000000000E+00  0.57974503172E+03  0.57974503172E+03  0.00000000000E+00 0. -1.
         21   -1    0    0  501  503 -0.00000000000E+00 -0.00000000000E+00 -0.18999757563E+04  0.18999757563E+04  0.00000000000E+00 0. -1.
    9000010    2    1    2  501    0  0.19637154634E+03  0.25532815761E+03 -0.90093697896E+03  0.13746803493E+04  0.98706857433E+03 0.  0.
   -9000010    2    1    2    0  502 -0.19637154634E+03 -0.25532815761E+03 -0.41929374565E+03  0.11050404388E+04  0.97033647456E+03 0.  0.
        -13    1    3    3    0    0 -0.13932725374E+03  0.49326693215E+03 -0.80147224359E+03  0.95135803902E+03  0.10566000000E+00 0.  1.
          4    1    3    3  501    0  0.33569880008E+03 -0.23793877454E+03 -0.99464735368E+02  0.42332231029E+03  0.00000000000E+00 0.  1.
         13    1    4    4    0    0 -0.34616946627E+03  0.27193167009E+03 -0.47595661929E+02  0.44277024603E+03  0.10566000000E+00 0. -1.
         -4    1    4    4    0  502  0.14979791993E+03 -0.52725982770E+03 -0.37169808372E+03  0.66227019272E+03  0.00000000000E+00 0. -1.
<mgrwt>
<rscale>  2 0.10342997E+04</rscale>
<asrwt>0</asrwt>
<pdfrwt beam="1">  1       21 0.89191544E-01 0.10382960E+04</pdfrwt>
<pdfrwt beam="2">  1       21 0.29230396E+00 0.10382960E+04</pdfrwt>
<totfact> 0.16043766E+01</totfact>
</mgrwt>
</event>
<event>
 8    1  0.5815007E-006  0.1248682E+04  0.7818608E-02  0.8574348E-01
         21   -1    0    0  503  502  0.00000000000E+00  0.00000000000E+00  0.12286976196E+04  0.12286976196E+04  0.00000000000E+00 0.  1.
         21   -1    0    0  501  503 -0.00000000000E+00 -0.00000000000E+00 -0.16293629557E+04  0.16293629557E+04  0.00000000000E+00 0. -1.
    9000010    2    1    2  501    0  0.32406209081E+03  0.63954576928E+03 -0.89197145300E+03  0.15345421148E+04  0.10223362458E+04 0.  0.
   -9000010    2    1    2    0  502 -0.32406209081E+03 -0.63954576928E+03  0.49130611688E+03  0.13235184604E+04  0.99814046352E+03 0.  0.
        -13    1    3    3    0    0 -0.11621728478E+03 -0.57527846308E+02  0.15488355583E+03  0.20200207279E+03  0.10566000000E+00 0.  1.
          4    1    3    3  501    0  0.44027937559E+03  0.69707361559E+03 -0.10468550088E+04  0.13325400420E+04  0.00000000000E+00 0.  1.
         13    1    4    4    0    0 -0.63529740433E+03 -0.39611425549E+03  0.54323317435E+03  0.92499275037E+03  0.10566000000E+00 0. -1.
         -4    1    4    4    0  502  0.31123531352E+03 -0.24343151379E+03 -0.51927057464E+02  0.39852571007E+03  0.00000000000E+00 0. -1.
<mgrwt>
<rscale>  2 0.12437195E+04</rscale>
<asrwt>0</asrwt>
<pdfrwt beam="1">  1       21 0.18903040E+00 0.12486819E+04</pdfrwt>
<pdfrwt beam="2">  1       21 0.25067122E+00 0.12486819E+04</pdfrwt>
<totfact> 0.33724508E+00</totfact>
</mgrwt>
</event>
<event>
 8    1  0.5815007E-006  0.1028788E+04  0.7818608E-02  0.8753709E-01
         21   -1    0    0  503  502  0.00000000000E+00  0.00000000000E+00  0.57086891313E+03  0.57086891313E+03  0.00000000000E+00 0.  1.
         21   -1    0    0  501  503 -0.00000000000E+00 -0.00000000000E+00 -0.18460992160E+04  0.18460992160E+04  0.00000000000E+00 0.  1.
    9000010    2    1    2  501    0 -0.25906849584E+03  0.31475623102E+02 -0.45999375778E+03  0.11043310497E+04  0.96945634750E+03 0.  0.
   -9000010    2    1    2    0  502  0.25906849584E+03 -0.31475623102E+02 -0.81523654506E+03  0.13126370794E+04  0.99513731588E+03 0.  0.
        -13    1    3    3    0    0 -0.35218986777E+03  0.38128278770E+03 -0.52305898996E+03  0.73688871975E+03  0.10566000000E+00 0.  1.
          4    1    3    3  501    0  0.93121371932E+02 -0.34980716460E+03  0.63065232175E+02  0.36744232993E+03  0.00000000000E+00 0.  1.
         13    1    4    4    0    0  0.97756637651E+02 -0.33846099049E+02  0.23148843882E+03  0.25355241489E+03  0.10566000000E+00 0. -1.
         -4    1    4    4    0  502  0.16131185819E+03  0.23704759478E+01 -0.10467249839E+04  0.10590846645E+04  0.00000000000E+00 0. -1.
<mgrwt>
<rscale>  2 0.10225265E+04</rscale>
<asrwt>0</asrwt>
<pdfrwt beam="1">  1       21 0.87825988E-01 0.10287884E+04</pdfrwt>
<pdfrwt beam="2">  1       21 0.28401526E+00 0.10287884E+04</pdfrwt>
<totfact> 0.19152243E+01</totfact>
</mgrwt>
</event>
<event>
 8    1  0.5815007E-006  0.1101093E+04  0.7818608E-02  0.8686454E-01
         21   -1    0    0  501  502  0.00000000000E+00  0.00000000000E+00  0.13362726365E+04  0.13362726365E+04  0.00000000000E+00 0.  1.
         21   -1    0    0  502  503 -0.00000000000E+00 -0.00000000000E+00 -0.98104909883E+03  0.98104909883E+03  0.00000000000E+00 0.  1.
   -9000010    2    1    2    0  503 -0.42759394320E+03 -0.92209600476E+02 -0.15252892704E+03  0.11047959451E+04  0.10029804665E+04 0.  0.
    9000010    2    1    2  501    0  0.42759394320E+03  0.92209600476E+02  0.50775246470E+03  0.12125257902E+04  0.10104786172E+04 0.  0.
        -13    1    4    4    0    0 -0.86045180234E+02  0.10242829000E+03 -0.25787561819E+03  0.29050847364E+03  0.10566000000E+00 0.  1.
          4    1    4    4  501    0  0.51363912343E+03 -0.10218689523E+02  0.76562808289E+03  0.92201731657E+03  0.00000000000E+00 0.  1.
         13    1    3    3    0    0 -0.43755774662E+03 -0.49873656115E+03  0.18295347347E+02  0.66372409173E+03  0.10566000000E+00 0. -1.
         -4    1    3    3    0  503  0.99638034170E+01  0.40652696067E+03 -0.17082427438E+03  0.44107185338E+03  0.00000000000E+00 0. -1.
<mgrwt>
<rscale>  2 0.10993699E+04</rscale>
<asrwt>0</asrwt>
<pdfrwt beam="1">  1       21 0.20558041E+00 0.11010932E+04</pdfrwt>
<pdfrwt beam="2">  1       21 0.15093063E+00 0.11010932E+04</pdfrwt>
<totfact> 0.15836695E+01</totfact>
</mgrwt>
</event>
<event>
 8    1  0.5815007E-006  0.1223980E+04  0.7818608E-02  0.8594798E-01
         21   -1    0    0  501  502  0.00000000000E+00  0.00000000000E+00  0.10875512831E+04  0.10875512831E+04  0.00000000000E+00 0.  1.
         21   -1    0    0  502  503 -0.00000000000E+00 -0.00000000000E+00 -0.13774906055E+04  0.13774906055E+04  0.00000000000E+00 0. -1.
   -9000010    2    1    2    0  503  0.62807700612E+03  0.16797025838E+03 -0.34724568086E+03  0.12722838826E+04  0.10370303668E+04 0.  0.
    9000010    2    1    2  501    0 -0.62807700612E+03 -0.16797025838E+03  0.57306358431E+02  0.11927580061E+04  0.99834508511E+03 0.  0.
        -13    1    4    4    0    0  0.21920071467E+02 -0.37326883825E+03 -0.24505525214E+03  0.44705950712E+03  0.10566000000E+00 0.  1.
          4    1    4    4  501    0 -0.64999707759E+03  0.20529857987E+03  0.30236161057E+03  0.74569849893E+03  0.00000000000E+00 0.  1.
         13    1    3    3    0    0 -0.27357270058E+03 -0.86130134020E+02 -0.67702354895E+02  0.29469313279E+03  0.10566000000E+00 0. -1.
         -4    1    3    3    0  503  0.90164970670E+03  0.25410039240E+03 -0.27954332597E+03  0.97759074981E+03  0.00000000000E+00 0. -1.
<mgrwt>
<rscale>  2 0.12157474E+04</rscale>
<asrwt>0</asrwt>
<pdfrwt beam="1">  1       21 0.16731558E+00 0.12239799E+04</pdfrwt>
<pdfrwt beam="2">  1       21 0.21192163E+00 0.12239799E+04</pdfrwt>
<totfact> 0.99444388E+00</totfact>
</mgrwt>
</event>
<event>
 8    1  0.5815007E-006  0.1536963E+04  0.7818608E-02  0.8388711E-01
         21   -1    0    0  503  502  0.00000000000E+00  0.00000000000E+00  0.29358102088E+04  0.29358102088E+04  0.00000000000E+00 0. -1.
         21   -1    0    0  501  503 -0.00000000000E+00 -0.00000000000E+00 -0.83380768889E+03  0.83380768889E+03  0.00000000000E+00 0. -1.
    9000010    2    1    2  501    0 -0.22434178657E+03  0.11492062349E+04  0.14078434717E+04  0.20842930584E+04  0.99561544036E+03 0.  0.
   -9000010    2    1    2    0  502  0.22434178657E+03 -0.11492062349E+04  0.69415904816E+03  0.16853248392E+04  0.99370962665E+03 0.  0.
        -13    1    3    3    0    0 -0.28595353828E+03  0.13222239976E+04  0.12566337845E+04  0.18463949213E+04  0.10566000000E+00 0.  1.
          4    1    3    3  501    0  0.61611751705E+02 -0.17301776269E+03  0.15120968725E+03  0.23789813718E+03  0.00000000000E+00 0.  1.
         13    1    4    4    0    0 -0.30306460188E+02 -0.41836752988E+02  0.53555113122E+03  0.53803700685E+03  0.10566000000E+00 0. -1.
         -4    1    4    4    0  502  0.25464824676E+03 -0.11073694819E+04  0.15860791694E+03  0.11472878324E+04  0.00000000000E+00 0. -1.
<mgrwt>
<rscale>  2 0.15366541E+04</rscale>
<asrwt>0</asrwt>
<pdfrwt beam="1">  1       21 0.45166310E+00 0.15369627E+04</pdfrwt>
<pdfrwt beam="2">  1       21 0.12827811E+00 0.15369627E+04</pdfrwt>
<totfact> 0.42145325E-01</totfact>
</mgrwt>
</event>
<event>
 8    1  0.5815007E-006  0.1131983E+04  0.7818608E-02  0.8668070E-01
         21   -1    0    0  503  502  0.00000000000E+00  0.00000000000E+00  0.11739352411E+04  0.11739352411E+04  0.00000000000E+00 0. -1.
         21   -1    0    0  501  503 -0.00000000000E+00 -0.00000000000E+00 -0.11619056010E+04  0.11619056010E+04  0.00000000000E+00 0. -1.
    9000010    2    1    2  501    0  0.16511881758E+03 -0.50015477169E+03 -0.35267663585E+03  0.11465567396E+04  0.95540176261E+03 0.  0.
   -9000010    2    1    2    0  502 -0.16511881758E+03  0.50015477169E+03  0.36470627594E+03  0.11892841026E+04  0.10019815315E+04 0.  0.
        -13    1    3    3    0    0  0.37207676265E+02  0.19689216560E+03 -0.38832468510E+03  0.43697483711E+03  0.10566000000E+00 0.  1.
          4    1    3    3  501    0  0.12791114132E+03 -0.69704693729E+03  0.35648049249E+02  0.70958190244E+03  0.00000000000E+00 0.  1.
         13    1    4    4    0    0  0.12676678827E+03  0.28976640103E+02  0.58020832126E+03  0.59460169147E+03  0.10566000000E+00 0. -1.
         -4    1    4    4    0  502 -0.29188560585E+03  0.47117813158E+03 -0.21550204532E+03  0.59468241114E+03  0.00000000000E+00 0. -1.
<mgrwt>
<rscale>  2 0.11215871E+04</rscale>
<asrwt>0</asrwt>
<pdfrwt beam="1">  1       21 0.18060542E+00 0.11319832E+04</pdfrwt>
<pdfrwt beam="2">  1       21 0.17875471E+00 0.11319832E+04</pdfrwt>
<totfact> 0.14376117E+01</totfact>
</mgrwt>
</event>
<event>
 8    1  0.5815007E-006  0.1302279E+04  0.7818608E-02  0.8534097E-01
         21   -1    0    0  503  502  0.00000000000E+00  0.00000000000E+00  0.11538654982E+04  0.11538654982E+04  0.00000000000E+00 0.  1.
         21   -1    0    0  501  503 -0.00000000000E+00 -0.00000000000E+00 -0.14652672488E+04  0.14652672488E+04  0.00000000000E+00 0.  1.
    9000010    2    1    2  501    0  0.70249747083E+03  0.46076605557E+03 -0.12428643911E+03  0.13081962620E+04  0.99504888651E+03 0.  0.
   -9000010    2    1    2    0  502 -0.70249747083E+03 -0.46076605557E+03 -0.18711531148E+03  0.13109364849E+04  0.98880446661E+03 0.  0.
        -13    1    3    3    0    0 -0.16849392648E+03  0.17802773741E+03 -0.28773703751E+03  0.37799033382E+03  0.10566000000E+00 0.  1.
          4    1    3    3  501    0  0.87099139731E+03  0.28273831816E+03  0.16345059839E+03  0.93020592820E+03  0.00000000000E+00 0.  1.
         13    1    4    4    0    0 -0.29825008238E+03 -0.15512221161E+03  0.40840122789E+03  0.52896841709E+03  0.10566000000E+00 0. -1.
         -4    1    4    4    0  502 -0.40424738844E+03 -0.30564384396E+03 -0.59551653937E+03  0.78196806781E+03  0.00000000000E+00 0. -1.
<mgrwt>
<rscale>  2 0.13010860E+04</rscale>
<asrwt>0</asrwt>
<pdfrwt beam="1">  1       21 0.17751777E+00 0.13022789E+04</pdfrwt>
<pdfrwt beam="2">  1       21 0.22542573E+00 0.13022789E+04</pdfrwt>
<totfact> 0.63582657E+00</totfact>
</mgrwt>
</event>
<event>
 8    1  0.5815007E-006  0.1245598E+04  0.7818608E-02  0.8593544E-01
         21   -1    0    0  501  502  0.00000000000E+00  0.00000000000E+00  0.99914909056E+03  0.99914909056E+03  0.00000000000E+00 0.  1.
         21   -1    0    0  502  503 -0.00000000000E+00 -0.00000000000E+00 -0.16860692231E+04  0.16860692231E+04  0.00000000000E+00 0.  1.
   -9000010    2    1    2    0  503 -0.55946481994E+03 -0.25623891595E+03 -0.88948009497E+03  0.15305842402E+04  0.10829838458E+04 0.  0.
    9000010    2    1    2  501    0  0.55946481994E+03  0.25623891595E+03  0.20255996242E+03  0.11546340734E+04  0.95576672799E+03 0.  0.
        -13    1    4    4    0    0  0.80408056992E+03  0.54499272256E+02  0.22506812318E+03  0.83676245425E+03  0.10566000000E+00 0.  1.
          4    1    4    4  501    0 -0.24461574998E+03  0.20173964369E+03 -0.22508160759E+02  0.31787161918E+03  0.00000000000E+00 0.  1.
         13    1    3    3    0    0 -0.70910894780E+03 -0.55361148875E+03 -0.74343913927E+03  0.11670573873E+04  0.10566000000E+00 0. -1.
         -4    1    3    3    0  503  0.14964412787E+03  0.29737257280E+03 -0.14604095570E+03  0.36352685293E+03  0.00000000000E+00 0. -1.
<mgrwt>
<rscale>  2 0.12174395E+04</rscale>
<asrwt>0</asrwt>
<pdfrwt beam="1">  1       21 0.15371525E+00 0.12455976E+04</pdfrwt>
<pdfrwt beam="2">  1       21 0.25939526E+00 0.12455976E+04</pdfrwt>
<totfact> 0.57712222E+00</totfact>
</mgrwt>
</event>
<event>
 8    1  0.5815007E-006  0.1398290E+04  0.7818608E-02  0.8476641E-01
         21   -1    0    0  503  502  0.00000000000E+00  0.00000000000E+00  0.11608808767E+04  0.11608808767E+04  0.00000000000E+00 0.  1.
         21   -1    0    0  501  503 -0.00000000000E+00 -0.00000000000E+00 -0.16881368404E+04  0.16881368404E+04  0.00000000000E+00 0. -1.
    9000010    2    1    2  501    0 -0.84013561099E+03 -0.47073602904E+03 -0.51172672595E+03  0.14889856635E+04  0.10138016621E+04 0.  0.
   -9000010    2    1    2    0  502  0.84013561099E+03  0.47073602904E+03 -0.15529237826E+02  0.13600320536E+04  0.96022173258E+03 0.  0.
        -13    1    3    3    0    0 -0.24362737056E+03  0.20337085557E+03  0.16982346625E+03  0.35993613522E+03  0.10566000000E+00 0.  1.
          4    1    3    3  501    0 -0.59650824044E+03 -0.67410688461E+03 -0.68155019220E+03  0.11290495283E+04  0.00000000000E+00 0.  1.
         13    1    4    4    0    0  0.85787353221E+03  0.71376858521E+03 -0.23402151811E+02  0.11162259011E+04  0.10566000000E+00 0. -1.
         -4    1    4    4    0  502 -0.17737921212E+02 -0.24303255617E+03  0.78729139847E+01  0.24380615247E+03  0.00000000000E+00 0. -1.
<mgrwt>
<rscale>  2 0.13886029E+04</rscale>
<asrwt>0</asrwt>
<pdfrwt beam="1">  1       21 0.17859706E+00 0.13982897E+04</pdfrwt>
<pdfrwt beam="2">  1       21 0.25971336E+00 0.13982897E+04</pdfrwt>
<totfact> 0.34218253E+00</totfact>
</mgrwt>
</event>
<event>
 8    1  0.5815007E-006  0.1068499E+04  0.7818608E-02  0.8712936E-01
         21   -1    0    0  503  502  0.00000000000E+00  0.00000000000E+00  0.10224102812E+04  0.10224102812E+04  0.00000000000E+00 0.  1.
         21   -1    0    0  501  503 -0.00000000000E+00 -0.00000000000E+00 -0.13332519009E+04  0.13332519009E+04  0.00000000000E+00 0.  1.
    9000010    2    1    2  501    0  0.29229801900E+03 -0.24099335220E+03 -0.63110021089E+03  0.12409582619E+04  0.99908658476E+03 0.  0.
   -9000010    2    1    2    0  502 -0.29229801900E+03  0.24099335220E+03  0.32025859113E+03  0.11147039202E+04  0.99824011984E+03 0.  0.
        -13    1    3    3    0    0 -0.28415887713E+03 -0.37489467168E+03 -0.34663843300E+03  0.58433765641E+03  0.10566000000E+00 0.  1.
          4    1    3    3  501    0  0.57645689613E+03  0.13390131948E+03 -0.28446177789E+03  0.65662060548E+03  0.00000000000E+00 0.  1.
         13    1    4    4    0    0 -0.13309530781E+03  0.45813854456E+03  0.57286440843E+03  0.74550582062E+03  0.10566000000E+00 0. -1.
         -4    1    4    4    0  502 -0.15920271119E+03 -0.21714519236E+03 -0.25260581730E+03  0.36919809960E+03  0.00000000000E+00 0. -1.
<mgrwt>
<rscale>  2 0.10683010E+04</rscale>
<asrwt>0</asrwt>
<pdfrwt beam="1">  1       21 0.15729389E+00 0.10684989E+04</pdfrwt>
<pdfrwt beam="2">  1       21 0.20511568E+00 0.10684989E+04</pdfrwt>
<totfact> 0.14139904E+01</totfact>
</mgrwt>
</event>
<event>
 8    1  0.5815007E-006  0.1215267E+04  0.7818608E-02  0.8596264E-01
         21   -1    0    0  503  502  0.00000000000E+00  0.00000000000E+00  0.23377196651E+04  0.23377196651E+04  0.00000000000E+00 0.  1.
         21   -1    0    0  501  503 -0.00000000000E+00 -0.00000000000E+00 -0.63036651107E+03  0.63036651107E+03  0.00000000000E+00 0.  1.
    9000010    2    1    2  501    0  0.67489081635E+03  0.64315022431E+02  0.92886872657E+03  0.15248565068E+04  0.10013871474E+04 0.  0.
   -9000010    2    1    2    0  502 -0.67489081635E+03 -0.64315022431E+02  0.77848442745E+03  0.14432296694E+04  0.10085929996E+04 0.  0.
        -13    1    3    3    0    0  0.37077181392E+03 -0.44568702887E+03  0.27519465815E+03  0.64174821911E+03  0.10566000000E+00 0.  1.
          4    1    3    3  501    0  0.30411900243E+03  0.51000205130E+03  0.65367406843E+03  0.88310828764E+03  0.00000000000E+00 0.  1.
         13    1    4    4    0    0 -0.20590536437E+03 -0.60663487505E+02  0.92680294478E+03  0.95133631667E+03  0.10566000000E+00 0. -1.
         -4    1    4    4    0  502 -0.46898545199E+03 -0.36515349265E+01 -0.14831851733E+03  0.49189335274E+03  0.00000000000E+00 0. -1.
<mgrwt>
<rscale>  2 0.12137708E+04</rscale>
<asrwt>0</asrwt>
<pdfrwt beam="1">  1       21 0.35964917E+00 0.12152670E+04</pdfrwt>
<pdfrwt beam="2">  1       21 0.96979465E-01 0.12152670E+04</pdfrwt>
<totfact> 0.41887669E+00</totfact>
</mgrwt>
</event>
<event>
 8    1  0.5815007E-006  0.1124802E+04  0.7818608E-02  0.8665719E-01
         21   -1    0    0  501  502  0.00000000000E+00  0.00000000000E+00  0.84085495371E+03  0.84085495371E+03  0.00000000000E+00 0.  1.
         21   -1    0    0  502  503 -0.00000000000E+00 -0.00000000000E+00 -0.15029796769E+04  0.15029796769E+04  0.00000000000E+00 0.  1.
   -9000010    2    1    2    0  503  0.44729115669E+03 -0.25926122761E+03 -0.34224010160E+03  0.11757159135E+04  0.99894637449E+03 0.  0.
    9000010    2    1    2  501    0 -0.44729115669E+03  0.25926122761E+03 -0.31988462156E+03  0.11681187171E+04  0.99744142841E+03 0.  0.
        -13    1    4    4    0    0 -0.47016452113E+03  0.29713439898E+03 -0.63831212846E+03  0.84663209985E+03  0.10566000000E+00 0.  1.
          4    1    4    4  501    0  0.22873364444E+02 -0.37873171375E+02  0.31842750691E+03  0.32148661724E+03  0.00000000000E+00 0.  1.
         13    1    3    3    0    0 -0.17048139719E+03 -0.74316643619E+02 -0.48134297409E+03  0.51602125943E+03  0.10566000000E+00 0. -1.
         -4    1    3    3    0  503  0.61777255387E+03 -0.18494458399E+03  0.13910287250E+03  0.65969465407E+03  0.00000000000E+00 0. -1.
<mgrwt>
<rscale>  2 0.11244678E+04</rscale>
<asrwt>0</asrwt>
<pdfrwt beam="1">  1       21 0.12936230E+00 0.11248020E+04</pdfrwt>
<pdfrwt beam="2">  1       21 0.23122764E+00 0.11248020E+04</pdfrwt>
<totfact> 0.15971112E+01</totfact>
</mgrwt>
</event>
<event>
 8    1  0.5815007E-006  0.1002550E+04  0.7818608E-02  0.8773357E-01
         21   -1    0    0  503  502  0.00000000000E+00  0.00000000000E+00  0.98843713557E+03  0.98843713557E+03  0.00000000000E+00 0. -1.
         21   -1    0    0  501  503 -0.00000000000E+00 -0.00000000000E+00 -0.10667375297E+04  0.10667375297E+04  0.00000000000E+00 0. -1.
    9000010    2    1    2  501    0  0.20180892986E+01 -0.12901419933E+03 -0.27229652096E+03  0.10388707331E+04  0.99421238603E+03 0.  0.
   -9000010    2    1    2    0  502 -0.20180892986E+01  0.12901419933E+03  0.19399612685E+03  0.10163039321E+04  0.98923730664E+03 0.  0.
        -13    1    3    3    0    0 -0.39325934140E+03  0.15930009662E+03 -0.34161645921E+03  0.54473043494E+03  0.10566000000E+00 0.  1.
          4    1    3    3  501    0  0.39527743070E+03 -0.28831429595E+03  0.69319938249E+02  0.49414029821E+03  0.00000000000E+00 0.  1.
         13    1    4    4    0    0  0.26391152187E+03  0.47716019089E+03  0.19234035467E+03  0.57820927210E+03  0.10566000000E+00 0. -1.
         -4    1    4    4    0  502 -0.26592961117E+03 -0.34814599156E+03  0.16557721832E+01  0.43809465999E+03  0.00000000000E+00 0. -1.
<mgrwt>
<rscale>  2 0.10013146E+04</rscale>
<asrwt>0</asrwt>
<pdfrwt beam="1">  1       21 0.15206725E+00 0.10025503E+04</pdfrwt>
<pdfrwt beam="2">  1       21 0.16411346E+00 0.10025503E+04</pdfrwt>
<totfact> 0.34234709E+01</totfact>
</mgrwt>
</event>
<event>
 8    1  0.5815007E-006  0.1086482E+04  0.7818608E-02  0.8699449E-01
         21   -1    0    0  503  502  0.00000000000E+00  0.00000000000E+00  0.18150945521E+04  0.18150945521E+04  0.00000000000E+00 0.  1.
         21   -1    0    0  501  503 -0.00000000000E+00 -0.00000000000E+00 -0.66348596883E+03  0.66348596883E+03  0.00000000000E+00 0.  1.
    9000010    2    1    2  501    0  0.26251524281E+03  0.28890509552E+03  0.36310295560E+03  0.11361257826E+04  0.10032734575E+04 0.  0.
   -9000010    2    1    2    0  502 -0.26251524281E+03 -0.28890509552E+03  0.78850562767E+03  0.13424547384E+04  0.10139345111E+04 0.  0.
        -13    1    3    3    0    0  0.11947924121E+02  0.17769590428E+03 -0.33870615262E+03  0.38267539283E+03  0.10566000000E+00 0.  1.
          4    1    3    3  501    0  0.25056731869E+03  0.11120919123E+03  0.70180910822E+03  0.75345038974E+03  0.00000000000E+00 0.  1.
         13    1    4    4    0    0 -0.11125201576E+03 -0.10063334125E+03  0.10061945541E+04  0.10173158665E+04  0.10566000000E+00 0. -1.
         -4    1    4    4    0  502 -0.15126322704E+03 -0.18827175427E+03 -0.21768892643E+03  0.32513887187E+03  0.00000000000E+00 0. -1.
<mgrwt>
<rscale>  2 0.10839880E+04</rscale>
<asrwt>0</asrwt>
<pdfrwt beam="1">  1       21 0.27924531E+00 0.10864822E+04</pdfrwt>
<pdfrwt beam="2">  1       21 0.10207476E+00 0.10864822E+04</pdfrwt>
<totfact> 0.13873413E+01</totfact>
</mgrwt>
</event>
<event>
 8    1  0.5815007E-006  0.1392561E+04  0.7818608E-02  0.8478310E-01
         21   -1    0    0  501  502  0.00000000000E+00  0.00000000000E+00  0.14026771994E+04  0.14026771994E+04  0.00000000000E+00 0.  1.
         21   -1    0    0  502  503 -0.00000000000E+00 -0.00000000000E+00 -0.19645519473E+04  0.19645519473E+04  0.00000000000E+00 0.  1.
   -9000010    2    1    2    0  503 -0.71601963572E+03  0.62689695764E+03 -0.12156286013E+04  0.18288466835E+04  0.98043020212E+03 0.  0.
    9000010    2    1    2  501    0  0.71601963572E+03 -0.62689695764E+03  0.65375385341E+03  0.15383824632E+04  0.10166329663E+04 0.  0.
        -13    1    4    4    0    0  0.74881720152E+03 -0.77485014040E+03  0.78878763365E+03  0.13354047639E+04  0.10566000000E+00 0.  1.
          4    1    4    4  501    0 -0.32797565802E+02  0.14795318276E+03 -0.13503378024E+03  0.20297769931E+03  0.00000000000E+00 0.  1.
         13    1    3    3    0    0 -0.35297901391E+03  0.96573926783E+01 -0.10303485592E+04  0.10891765762E+04  0.10566000000E+00 0. -1.
         -4    1    3    3    0  503 -0.36304062181E+03  0.61723956496E+03 -0.18528004206E+03  0.73967010729E+03  0.00000000000E+00 0. -1.
<mgrwt>
<rscale>  2 0.13859630E+04</rscale>
<asrwt>0</asrwt>
<pdfrwt beam="1">  1       21 0.21579649E+00 0.13925611E+04</pdfrwt>
<pdfrwt beam="2">  1       21 0.30223876E+00 0.13925611E+04</pdfrwt>
<totfact> 0.86464852E-01</totfact>
</mgrwt>
</event>
<event>
 8    1  0.5815007E-006  0.1417079E+04  0.7818608E-02  0.8458973E-01
         21   -1    0    0  503  502  0.00000000000E+00  0.00000000000E+00  0.17377875435E+04  0.17377875435E+04  0.00000000000E+00 0.  1.
         21   -1    0    0  501  503 -0.00000000000E+00 -0.00000000000E+00 -0.14353972428E+04  0.14353972428E+04  0.00000000000E+00 0.  1.
    9000010    2    1    2  501    0 -0.41393826865E+03  0.91514129365E+03 -0.54994765033E+03  0.15200510440E+04  0.99964207626E+03 0.  0.
   -9000010    2    1    2    0  502  0.41393826865E+03 -0.91514129365E+03  0.85233795103E+03  0.16531337423E+04  0.99877059900E+03 0.  0.
        -13    1    3    3    0    0 -0.46384743117E+03  0.44680529705E+03 -0.76693038302E+03  0.10014847160E+04  0.10566000000E+00 0.  1.
          4    1    3    3  501    0  0.49909162523E+02  0.46833599660E+03  0.21698273268E+03  0.51856632796E+03  0.00000000000E+00 0.  1.
         13    1    4    4    0    0  0.15142815415E+03 -0.10311809067E+04  0.39782468446E+03  0.11155846175E+04  0.10566000000E+00 0. -1.
         -4    1    4    4    0  502  0.26251011450E+03  0.11603961302E+03  0.45451326656E+03  0.53754912472E+03  0.00000000000E+00 0. -1.
<mgrwt>
<rscale>  2 0.14169253E+04</rscale>
<asrwt>0</asrwt>
<pdfrwt beam="1">  1       21 0.26735193E+00 0.14170790E+04</pdfrwt>
<pdfrwt beam="2">  1       21 0.22083034E+00 0.14170790E+04</pdfrwt>
<totfact> 0.13979211E+00</totfact>
</mgrwt>
</event>
<event>
 8    1  0.5815007E-006  0.1073511E+04  0.7818608E-02  0.8710618E-01
         21   -1    0    0  503  502  0.00000000000E+00  0.00000000000E+00  0.67707163881E+03  0.67707163881E+03  0.00000000000E+00 0.  1.
         21   -1    0    0  501  503 -0.00000000000E+00 -0.00000000000E+00 -0.16902512331E+04  0.16902512331E+04  0.00000000000E+00 0.  1.
    9000010    2    1    2  501    0 -0.36488576768E+03  0.19725376805E+03 -0.45029395214E+03  0.11641269609E+04  0.99013951815E+03 0.  0.
   -9000010    2    1    2    0  502  0.36488576768E+03 -0.19725376805E+03 -0.56288564219E+03  0.12031959110E+04  0.97917796216E+03 0.  0.
        -13    1    3    3    0    0 -0.32832771587E+03 -0.12292070118E+03 -0.68226213647E+03  0.76706598270E+03  0.10566000000E+00 0.  1.
          4    1    3    3  501    0 -0.36558051807E+02  0.32017446924E+03  0.23196818433E+03  0.39706097824E+03  0.00000000000E+00 0.  1.
         13    1    4    4    0    0 -0.27951582170E+03  0.16453704372E+03 -0.16661058252E+03  0.36463767045E+03  0.10566000000E+00 0. -1.
         -4    1    4    4    0  502  0.64440158938E+03 -0.36179081178E+03 -0.39627505966E+03  0.83855824055E+03  0.00000000000E+00 0. -1.
<mgrwt>
<rscale>  2 0.10709771E+04</rscale>
<asrwt>0</asrwt>
<pdfrwt beam="1">  1       21 0.10416487E+00 0.10735115E+04</pdfrwt>
<pdfrwt beam="2">  1       21 0.26003865E+00 0.10735115E+04</pdfrwt>
<totfact> 0.18104081E+01</totfact>
</mgrwt>
</event>
<event>
 8    1  0.5815007E-006  0.1064408E+04  0.7818608E-02  0.8717096E-01
         21   -1    0    0  501  502  0.00000000000E+00  0.00000000000E+00  0.58478233286E+03  0.58478233286E+03  0.00000000000E+00 0.  1.
         21   -1    0    0  502  503 -0.00000000000E+00 -0.00000000000E+00 -0.19311685152E+04  0.19311685152E+04  0.00000000000E+00 0.  1.
   -9000010    2    1    2    0  503 -0.34594988724E+03 -0.60039024563E+02 -0.68753248225E+03  0.12671482280E+04  0.10048272034E+04 0.  0.
    9000010    2    1    2  501    0  0.34594988724E+03  0.60039024563E+02 -0.65885370012E+03  0.12488026200E+04  0.10010663198E+04 0.  0.
        -13    1    4    4    0    0 -0.57531546388E+02 -0.86032706376E+02 -0.79260394100E+03  0.79933254897E+03  0.10566000000E+00 0.  1.
          4    1    4    4  501    0  0.40348143362E+03  0.14607173094E+03  0.13375024088E+03  0.44947007108E+03  0.00000000000E+00 0.  1.
         13    1    3    3    0    0  0.39916972393E+02  0.16834149961E+03  0.20504094854E+03  0.26827975496E+03  0.10566000000E+00 0. -1.
         -4    1    3    3    0  503 -0.38586685963E+03 -0.22838052418E+03 -0.89257343079E+03  0.99886847309E+03  0.00000000000E+00 0. -1.
<mgrwt>
<rscale>  2 0.10635192E+04</rscale>
<asrwt>0</asrwt>
<pdfrwt beam="1">  1       21 0.89966514E-01 0.10644077E+04</pdfrwt>
<pdfrwt beam="2">  1       21 0.29710285E+00 0.10644077E+04</pdfrwt>
<totfact> 0.14424875E+01</totfact>
</mgrwt>
</event>
<event>
 8    1  0.5815007E-006  0.1168888E+04  0.7818608E-02  0.8630736E-01
         21   -1    0    0  503  502  0.00000000000E+00  0.00000000000E+00  0.15123257770E+04  0.15123257770E+04  0.00000000000E+00 0. -1.
         21   -1    0    0  501  503 -0.00000000000E+00 -0.00000000000E+00 -0.96005221839E+03  0.96005221839E+03  0.00000000000E+00 0. -1.
    9000010    2    1    2  501    0  0.18418357464E+03  0.59238656070E+03 -0.28124258497E+02  0.11673257706E+04  0.98843970699E+03 0.  0.
   -9000010    2    1    2    0  502 -0.18418357464E+03 -0.59238656070E+03  0.58039781708E+03  0.13050522248E+04  0.99068373197E+03 0.  0.
        -13    1    3    3    0    0 -0.40043206071E+03  0.13185995668E+03 -0.35452708937E+02  0.42307184869E+03  0.10566000000E+00 0.  1.
          4    1    3    3  501    0  0.58461563535E+03  0.46052660402E+03  0.73284504397E+01  0.74425392192E+03  0.00000000000E+00 0.  1.
         13    1    4    4    0    0 -0.14112150281E+03 -0.32322646426E+03 -0.24918291979E+03  0.43183650196E+03  0.10566000000E+00 0. -1.
         -4    1    4    4    0  502 -0.43062071830E+02 -0.26916009644E+03  0.82958073687E+03  0.87321572279E+03  0.00000000000E+00 0. -1.
<mgrwt>
<rscale>  2 0.11684126E+04</rscale>
<asrwt>0</asrwt>
<pdfrwt beam="1">  1       21 0.23266551E+00 0.11688882E+04</pdfrwt>
<pdfrwt beam="2">  1       21 0.14770034E+00 0.11688882E+04</pdfrwt>
<totfact> 0.10410904E+01</totfact>
</mgrwt>
</event>
<event>
 8    1  0.5815007E-006  0.1240512E+04  0.7818608E-02  0.8583965E-01
         21   -1    0    0  501  502  0.00000000000E+00  0.00000000000E+00  0.78699186437E+03  0.78699186437E+03  0.00000000000E+00 0.  1.
         21   -1    0    0  502  503 -0.00000000000E+00 -0.00000000000E+00 -0.19023012919E+04  0.19023012919E+04  0.00000000000E+00 0.  1.
   -9000010    2    1    2    0  503 -0.62775152757E+02 -0.66194811638E+03 -0.65902084932E+03  0.14046986598E+04  0.10472601474E+04 0.  0.
    9000010    2    1    2  501    0  0.62775152757E+02  0.66194811638E+03 -0.45628857819E+03  0.12845944965E+04  0.99993386040E+03 0.  0.
        -13    1    4    4    0    0  0.12105273057E+03  0.91387737270E+03 -0.25378433412E+03  0.95615485949E+03  0.10566000000E+00 0.  1.
          4    1    4    4  501    0 -0.58277577816E+02 -0.25192925632E+03 -0.20250424407E+03  0.32843963697E+03  0.00000000000E+00 0.  1.
         13    1    3    3    0    0  0.29303403013E+03 -0.35392267429E+03 -0.79201470356E+03  0.91565140966E+03  0.10566000000E+00 0. -1.
         -4    1    3    3    0  503 -0.35580918288E+03 -0.30802544208E+03  0.13299385424E+03  0.48904725013E+03  0.00000000000E+00 0. -1.
<mgrwt>
<rscale>  2 0.12304692E+04</rscale>
<asrwt>0</asrwt>
<pdfrwt beam="1">  1       21 0.12107567E+00 0.12405119E+04</pdfrwt>
<pdfrwt beam="2">  1       21 0.29266174E+00 0.12405119E+04</pdfrwt>
<totfact> 0.67755906E+00</totfact>
</mgrwt>
</event>
<event>
 8    1  0.5815007E-006  0.1188087E+04  0.7818608E-02  0.8634180E-01
         21   -1    0    0  501  502  0.00000000000E+00  0.00000000000E+00  0.74501395904E+03  0.74501395904E+03  0.00000000000E+00 0.  1.
         21   -1    0    0  502  503 -0.00000000000E+00 -0.00000000000E+00 -0.19644559529E+04  0.19644559529E+04  0.00000000000E+00 0. -1.
   -9000010    2    1    2    0  503 -0.12191330488E+03 -0.55700451209E+03 -0.18313223084E+03  0.12021177214E+04  0.10423208344E+04 0.  0.
    9000010    2    1    2  501    0  0.12191330488E+03  0.55700451209E+03 -0.10363097630E+04  0.15073521905E+04  0.93437456137E+03 0.  0.
        -13    1    4    4    0    0 -0.10172875453E+03 -0.18218102880E+03  0.76391250765E+01  0.20879902813E+03  0.10566000000E+00 0.  1.
          4    1    4    4  501    0  0.22364205940E+03  0.73918554089E+03 -0.10439488881E+04  0.12985531624E+04  0.00000000000E+00 0.  1.
         13    1    3    3    0    0  0.26708867020E+03  0.12293100752E+03  0.17351381583E+03  0.34140217605E+03  0.10566000000E+00 0. -1.
         -4    1    3    3    0  503 -0.38900197508E+03 -0.67993551961E+03 -0.35664604668E+03  0.86071554538E+03  0.00000000000E+00 0. -1.
<mgrwt>
<rscale>  2 0.11639946E+04</rscale>
<asrwt>0</asrwt>
<pdfrwt beam="1">  1       21 0.11461753E+00 0.11880865E+04</pdfrwt>
<pdfrwt beam="2">  1       21 0.30222399E+00 0.11880865E+04</pdfrwt>
<totfact> 0.68224205E+00</totfact>
</mgrwt>
</event>
<event>
 8    1  0.5815007E-006  0.1365909E+04  0.7818608E-02  0.8493140E-01
         21   -1    0    0  501  502  0.00000000000E+00  0.00000000000E+00  0.49397832450E+04  0.49397832450E+04  0.00000000000E+00 0. -1.
         21   -1    0    0  502  503 -0.00000000000E+00 -0.00000000000E+00 -0.39105697524E+03  0.39105697524E+03  0.00000000000E+00 0. -1.
   -9000010    2    1    2    0  503 -0.89717463653E+03  0.48292270113E+02  0.28171765614E+04  0.31253987538E+04  0.10121161596E+04 0.  0.
    9000010    2    1    2  501    0  0.89717463653E+03 -0.48292270113E+02  0.17315497084E+04  0.22054414665E+04  0.10288115462E+04 0.  0.
        -13    1    4    4    0    0 -0.22684651549E+03  0.65542463978E+02  0.30299310636E+03  0.38413537957E+03  0.10566000000E+00 0.  1.
          4    1    4    4  501    0  0.11240211520E+04 -0.11383473409E+03  0.14285566020E+04  0.18213060869E+04  0.00000000000E+00 0.  1.
         13    1    3    3    0    0  0.14594145038E+03  0.16793747725E+03  0.17765606036E+03  0.28471668400E+03  0.10566000000E+00 0. -1.
         -4    1    3    3    0  503 -0.10431160869E+04 -0.11964520713E+03  0.26395205010E+04  0.28406820698E+04  0.00000000000E+00 0. -1.
<mgrwt>
<rscale>  2 0.13627656E+04</rscale>
<asrwt>0</asrwt>
<pdfrwt beam="1">  1       21 0.75996661E+00 0.13659091E+04</pdfrwt>
<pdfrwt beam="2">  1       21 0.60162615E-01 0.13659091E+04</pdfrwt>
<totfact> 0.11665882E-02</totfact>
</mgrwt>
</event>
<event>
 8    1  0.5815007E-006  0.1070961E+04  0.7818608E-02  0.8713261E-01
         21   -1    0    0  503  502  0.00000000000E+00  0.00000000000E+00  0.15775410327E+04  0.15775410327E+04  0.00000000000E+00 0. -1.
         21   -1    0    0  501  503 -0.00000000000E+00 -0.00000000000E+00 -0.93507559416E+03  0.93507559416E+03  0.00000000000E+00 0. -1.
    9000010    2    1    2  501    0 -0.29657475038E+03  0.25351649975E+03 -0.28425300571E+03  0.10963662021E+04  0.98437385156E+03 0.  0.
   -9000010    2    1    2    0  502  0.29657475038E+03 -0.25351649975E+03  0.92671844429E+03  0.14162504248E+04  0.99736201681E+03 0.  0.
        -13    1    3    3    0    0 -0.60376559748E+02  0.69294218240E+02 -0.63128231582E+03  0.63793760751E+03  0.10566000000E+00 0.  1.
          4    1    3    3  501    0 -0.23619819063E+03  0.18422228151E+03  0.34702931011E+03  0.45842859459E+03  0.00000000000E+00 0.  1.
         13    1    4    4    0    0  0.42457899079E+03  0.27921660196E+03  0.56404924309E+03  0.75919746445E+03  0.10566000000E+00 0. -1.
         -4    1    4    4    0  502 -0.12800424041E+03 -0.53273310171E+03  0.36266920120E+03  0.65705296036E+03  0.00000000000E+00 0. -1.
<mgrwt>
<rscale>  2 0.10679272E+04</rscale>
<asrwt>0</asrwt>
<pdfrwt beam="1">  1       21 0.24269862E+00 0.10709613E+04</pdfrwt>
<pdfrwt beam="2">  1       21 0.14385778E+00 0.10709613E+04</pdfrwt>
<totfact> 0.97215478E+00</totfact>
</mgrwt>
</event>
<event>
 8    1  0.5815007E-006  0.1038954E+04  0.7818608E-02  0.8739405E-01
         21   -1    0    0  503  502  0.00000000000E+00  0.00000000000E+00  0.84618104106E+03  0.84618104106E+03  0.00000000000E+00 0. -1.
         21   -1    0    0  501  503 -0.00000000000E+00 -0.00000000000E+00 -0.12752821851E+04  0.12752821851E+04  0.00000000000E+00 0. -1.
    9000010    2    1    2  501    0 -0.77569275544E+02  0.26749146770E+03 -0.16517905450E+03  0.10520025376E+04  0.10009278402E+04 0.  0.
   -9000010    2    1    2    0  502  0.77569275544E+02 -0.26749146770E+03 -0.26392208956E+03  0.10694606886E+04  0.99825979444E+03 0.  0.
        -13    1    3    3    0    0 -0.32842607510E+03 -0.24315355392E+03 -0.24658135216E+03  0.47727320477E+03  0.10566000000E+00 0.  1.
          4    1    3    3  501    0  0.25085679956E+03  0.51064502162E+03  0.81402297652E+02  0.57472933287E+03  0.00000000000E+00 0.  1.
         13    1    4    4    0    0  0.52208351254E+03 -0.26252317654E+02 -0.19993256867E+03  0.55967260200E+03  0.10566000000E+00 0. -1.
         -4    1    4    4    0  502 -0.44451423700E+03 -0.24123915005E+03 -0.63989520894E+02  0.50978808655E+03  0.00000000000E+00 0. -1.
<mgrwt>
<rscale>  2 0.10383108E+04</rscale>
<asrwt>0</asrwt>
<pdfrwt beam="1">  1       21 0.13018170E+00 0.10389539E+04</pdfrwt>
<pdfrwt beam="2">  1       21 0.19619726E+00 0.10389539E+04</pdfrwt>
<totfact> 0.29557187E+01</totfact>
</mgrwt>
</event>
<event>
 8    1  0.5815007E-006  0.1356334E+04  0.7818608E-02  0.8497783E-01
         21   -1    0    0  501  502  0.00000000000E+00  0.00000000000E+00  0.11857536673E+04  0.11857536673E+04  0.00000000000E+00 0. -1.
         21   -1    0    0  502  503 -0.00000000000E+00 -0.00000000000E+00 -0.19108229835E+04  0.19108229835E+04  0.00000000000E+00 0. -1.
   -9000010    2    1    2    0  503  0.42369079693E+03 -0.81490778889E+03 -0.10367899903E+04  0.17048831904E+04  0.99403451302E+03 0.  0.
    9000010    2    1    2  501    0 -0.42369079693E+03  0.81490778889E+03  0.31172067406E+03  0.13916934605E+04  0.99802420488E+03 0.  0.
        -13    1    4    4    0    0 -0.16433077169E+03  0.10131457167E+04  0.19327555115E+03  0.10444253423E+04  0.10566000000E+00 0.  1.
          4    1    4    4  501    0 -0.25936002523E+03 -0.19823792786E+03  0.11844512291E+03  0.34726811814E+03  0.00000000000E+00 0.  1.
         13    1    3    3    0    0  0.43885294240E+03 -0.95611081753E+03 -0.52885094853E+03  0.11774647075E+04  0.10566000000E+00 0. -1.
         -4    1    3    3    0  503 -0.15162145470E+02  0.14120302865E+03 -0.50793904175E+03  0.52741848288E+03  0.00000000000E+00 0. -1.
<mgrwt>
<rscale>  2 0.13555998E+04</rscale>
<asrwt>0</asrwt>
<pdfrwt beam="1">  1       21 0.18242364E+00 0.13563336E+04</pdfrwt>
<pdfrwt beam="2">  1       21 0.29397277E+00 0.13563336E+04</pdfrwt>
<totfact> 0.18244146E+00</totfact>
</mgrwt>
</event>
<event>
 8    1  0.5815007E-006  0.1127514E+04  0.7818608E-02  0.8664818E-01
         21   -1    0    0  503  502  0.00000000000E+00  0.00000000000E+00  0.12610268567E+04  0.12610268567E+04  0.00000000000E+00 0.  1.
         21   -1    0    0  501  503 -0.00000000000E+00 -0.00000000000E+00 -0.11281804110E+04  0.11281804110E+04  0.00000000000E+00 0.  1.
    9000010    2    1    2  501    0 -0.44607165358E+03 -0.19795138901E+03 -0.33450800146E+03  0.11686713491E+04  0.10078355256E+04 0.  0.
   -9000010    2    1    2    0  502  0.44607165358E+03  0.19795138901E+03  0.46735444710E+03  0.12205359186E+04  0.10164266215E+04 0.  0.
        -13    1    3    3    0    0  0.35426421299E+02 -0.43229931612E+03  0.13731533633E+03  0.45496510064E+03  0.10566000000E+00 0.  1.
          4    1    3    3  501    0 -0.48149807487E+03  0.23434792712E+03 -0.47182333779E+03  0.71370624849E+03  0.00000000000E+00 0.  1.
         13    1    4    4    0    0  0.25913161613E+03 -0.34639824397E+03 -0.63882102897E+02  0.43728923167E+03  0.10566000000E+00 0. -1.
         -4    1    4    4    0  502  0.18694003745E+03  0.54434963297E+03  0.53123654999E+03  0.78324668692E+03  0.00000000000E+00 0. -1.
<mgrwt>
<rscale>  2 0.11255743E+04</rscale>
<asrwt>0</asrwt>
<pdfrwt beam="1">  1       21 0.19400413E+00 0.11275140E+04</pdfrwt>
<pdfrwt beam="2">  1       21 0.17356622E+00 0.11275140E+04</pdfrwt>
<totfact> 0.12394958E+01</totfact>
</mgrwt>
</event>
<event>
 8    1  0.5815007E-006  0.1341960E+04  0.7818608E-02  0.8531492E-01
         21   -1    0    0  503  502  0.00000000000E+00  0.00000000000E+00  0.59391425788E+03  0.59391425788E+03  0.00000000000E+00 0.  1.
         21   -1    0    0  501  503 -0.00000000000E+00 -0.00000000000E+00 -0.28435247453E+04  0.28435247453E+04  0.00000000000E+00 0. -1.
    9000010    2    1    2  501    0 -0.71869571810E+03  0.52476033606E+03 -0.15435074732E+04  0.20453051433E+04  0.10044704393E+04 0.  0.
   -9000010    2    1    2    0  502  0.71869571810E+03 -0.52476033606E+03 -0.70610301418E+03  0.13921338599E+04  0.80471005450E+03 0.  0.
        -13    1    3    3    0    0 -0.43315863063E+03  0.68872810346E+03 -0.15088296279E+04  0.17142169223E+04  0.10566000000E+00 0.  1.
          4    1    3    3  501    0 -0.28553708747E+03 -0.16396776740E+03 -0.34677845390E+02  0.33108822091E+03  0.00000000000E+00 0.  1.
         13    1    4    4    0    0  0.80435948710E+03 -0.65083456040E+03 -0.54158382195E+03  0.11678582349E+04  0.10566000000E+00 0. -1.
         -4    1    4    4    0  502 -0.85663768999E+02  0.12607422434E+03 -0.16451919223E+03  0.22427562501E+03  0.00000000000E+00 0. -1.
<mgrwt>
<rscale>  2 0.13049070E+04</rscale>
<asrwt>0</asrwt>
<pdfrwt beam="1">  1       21 0.91371426E-01 0.13419604E+04</pdfrwt>
<pdfrwt beam="2">  1       21 0.43746534E+00 0.13419604E+04</pdfrwt>
<totfact> 0.13712996E+00</totfact>
</mgrwt>
</event>
<event>
 8    1  0.5815007E-006  0.1026129E+04  0.7818608E-02  0.8763215E-01
         21   -1    0    0  501  502  0.00000000000E+00  0.00000000000E+00  0.84759827906E+03  0.84759827906E+03  0.00000000000E+00 0. -1.
         21   -1    0    0  502  503 -0.00000000000E+00 -0.00000000000E+00 -0.12294904874E+04  0.12294904874E+04  0.00000000000E+00 0. -1.
   -9000010    2    1    2    0  503 -0.23868240692E+03 -0.57417573853E+01  0.18480699917E+02  0.10262950531E+04  0.99796680338E+03 0.  0.
    9000010    2    1    2  501    0  0.23868240692E+03  0.57417573853E+01 -0.40037290823E+03  0.10507937133E+04  0.94173600499E+03 0.  0.
        -13    1    4    4    0    0  0.14631704948E+02 -0.45667015299E+03 -0.16728502735E+03  0.48656552176E+03  0.10566000000E+00 0.  1.
          4    1    4    4  501    0  0.22405070197E+03  0.46241191038E+03 -0.23308788088E+03  0.56422819154E+03  0.00000000000E+00 0.  1.
         13    1    3    3    0    0  0.19840129863E+03  0.38844989428E+03 -0.18270618815E+02  0.43656640084E+03  0.10566000000E+00 0. -1.
         -4    1    3    3    0  503 -0.43708370555E+03 -0.39419165167E+03  0.36751318732E+02  0.58972865229E+03  0.00000000000E+00 0. -1.
<mgrwt>
<rscale>  2 0.10121976E+04</rscale>
<asrwt>0</asrwt>
<pdfrwt beam="1">  1       21 0.13039974E+00 0.10261286E+04</pdfrwt>
<pdfrwt beam="2">  1       21 0.18915238E+00 0.10261286E+04</pdfrwt>
<totfact> 0.33543290E+01</totfact>
</mgrwt>
</event>
<event>
 8    1  0.5815007E-006  0.1044479E+04  0.7818608E-02  0.8734160E-01
         21   -1    0    0  501  502  0.00000000000E+00  0.00000000000E+00  0.14381682473E+04  0.14381682473E+04  0.00000000000E+00 0. -1.
         21   -1    0    0  502  503 -0.00000000000E+00 -0.00000000000E+00 -0.76291002182E+03  0.76291002182E+03  0.00000000000E+00 0. -1.
   -9000010    2    1    2    0  503 -0.25740091741E+03 -0.16511085616E+03  0.42905581130E+03  0.11291700836E+04  0.99870884718E+03 0.  0.
    9000010    2    1    2  501    0  0.25740091741E+03  0.16511085616E+03  0.24620241419E+03  0.10719081855E+04  0.99742403335E+03 0.  0.
        -13    1    4    4    0    0  0.26467894088E+03  0.53481613644E+03 -0.49019342487E+02  0.59873712816E+03  0.10566000000E+00 0.  1.
          4    1    4    4  501    0 -0.72780234638E+01 -0.36970528028E+03  0.29522175668E+03  0.47317105734E+03  0.00000000000E+00 0.  1.
         13    1    3    3    0    0  0.19153714368E+03  0.17353813140E+03 -0.16856668252E+03  0.30857203062E+03  0.10566000000E+00 0. -1.
         -4    1    3    3    0  503 -0.44893806109E+03 -0.33864898756E+03  0.59762249382E+03  0.82059805300E+03  0.00000000000E+00 0. -1.
<mgrwt>
<rscale>  2 0.10441717E+04</rscale>
<asrwt>0</asrwt>
<pdfrwt beam="1">  1       21 0.22125665E+00 0.10444789E+04</pdfrwt>
<pdfrwt beam="2">  1       21 0.11737077E+00 0.10444789E+04</pdfrwt>
<totfact> 0.25407403E+01</totfact>
</mgrwt>
</event>
<event>
 8    1  0.5815007E-006  0.1086579E+04  0.7818608E-02  0.8704008E-01
         21   -1    0    0  501  502  0.00000000000E+00  0.00000000000E+00  0.76021606616E+03  0.76021606616E+03  0.00000000000E+00 0. -1.
         21   -1    0    0  502  503 -0.00000000000E+00 -0.00000000000E+00 -0.15115479581E+04  0.15115479581E+04  0.00000000000E+00 0. -1.
   -9000010    2    1    2    0  503  0.15096806066E+03  0.32395465825E+03 -0.42068888116E+03  0.11359916945E+04  0.99285448041E+03 0.  0.
    9000010    2    1    2  501    0 -0.15096806066E+03 -0.32395465825E+03 -0.33064301081E+03  0.11357723298E+04  0.10261169566E+04 0.  0.
        -13    1    4    4    0    0 -0.17764617693E+03 -0.69335717723E+03 -0.23353945601E+03  0.75288978481E+03  0.10566000000E+00 0.  1.
          4    1    4    4  501    0  0.26678116270E+02  0.36940251898E+03 -0.97103554806E+02  0.38288254501E+03  0.00000000000E+00 0.  1.
         13    1    3    3    0    0  0.23932746856E+03  0.35649105879E+03 -0.71111045720E+03  0.83068742961E+03  0.10566000000E+00 0. -1.
         -4    1    3    3    0  503 -0.88359407899E+02 -0.32536400540E+02  0.29042157604E+03  0.30530426488E+03  0.00000000000E+00 0. -1.
<mgrwt>
<rscale>  2 0.10786540E+04</rscale>
<asrwt>0</asrwt>
<pdfrwt beam="1">  1       21 0.11695632E+00 0.10865790E+04</pdfrwt>
<pdfrwt beam="2">  1       21 0.23254584E+00 0.10865790E+04</pdfrwt>
<totfact> 0.20937396E+01</totfact>
</mgrwt>
</event>
<event>
 8    1  0.5815007E-006  0.1058886E+04  0.7818608E-02  0.8721415E-01
         21   -1    0    0  501  502  0.00000000000E+00  0.00000000000E+00  0.77612187797E+03  0.77612187797E+03  0.00000000000E+00 0.  1.
         21   -1    0    0  502  503 -0.00000000000E+00 -0.00000000000E+00 -0.14430326871E+04  0.14430326871E+04  0.00000000000E+00 0.  1.
   -9000010    2    1    2    0  503  0.35283511153E+03  0.43148196717E+01 -0.33787568700E+03  0.11103247051E+04  0.99707057784E+03 0.  0.
    9000010    2    1    2  501    0 -0.35283511153E+03 -0.43148196717E+01 -0.32903512217E+03  0.11088298601E+04  0.99836281648E+03 0.  0.
        -13    1    4    4    0    0 -0.20495067630E+03 -0.39175433948E+03 -0.49360751898E+03  0.66266479925E+03  0.10566000000E+00 0.  1.
          4    1    4    4  501    0 -0.14788443524E+03  0.38743951981E+03  0.16457239681E+03  0.44616506080E+03  0.00000000000E+00 0.  1.
         13    1    3    3    0    0 -0.77768392655E+02 -0.37786472829E+03 -0.36885952099E+03  0.53374809899E+03  0.10566000000E+00 0. -1.
         -4    1    3    3    0  503  0.43060350419E+03  0.38217954796E+03  0.30983833992E+02  0.57657660607E+03  0.00000000000E+00 0. -1.
<mgrwt>
<rscale>  2 0.10585813E+04</rscale>
<asrwt>0</asrwt>
<pdfrwt beam="1">  1       21 0.11940337E+00 0.10588860E+04</pdfrwt>
<pdfrwt beam="2">  1       21 0.22200503E+00 0.10588860E+04</pdfrwt>
<totfact> 0.23835122E+01</totfact>
</mgrwt>
</event>
<event>
 8    1  0.5815007E-006  0.1029901E+04  0.7818608E-02  0.8759353E-01
         21   -1    0    0  501  502  0.00000000000E+00  0.00000000000E+00  0.52134926904E+03  0.52134926904E+03  0.00000000000E+00 0. -1.
         21   -1    0    0  502  503 -0.00000000000E+00 -0.00000000000E+00 -0.19429320644E+04  0.19429320644E+04  0.00000000000E+00 0. -1.
   -9000010    2    1    2    0  503 -0.19422436671E+03  0.30692482063E+02 -0.82556579217E+03  0.13199450930E+04  0.10109555075E+04 0.  0.
    9000010    2    1    2  501    0  0.19422436671E+03 -0.30692482063E+02 -0.59601700315E+03  0.11443362404E+04  0.95687200294E+03 0.  0.
        -13    1    4    4    0    0  0.46817263815E+03  0.28736613715E+03 -0.40857306533E+03  0.68461440006E+03  0.10566000000E+00 0.  1.
          4    1    4    4  501    0 -0.27394827143E+03 -0.31805861921E+03 -0.18744393782E+03  0.45972184036E+03  0.00000000000E+00 0.  1.
         13    1    3    3    0    0 -0.35962445065E+03  0.28995139141E+03 -0.89272917696E+03  0.10051701097E+04  0.10566000000E+00 0. -1.
         -4    1    3    3    0  503  0.16540008393E+03 -0.25925890934E+03  0.67163384789E+02  0.31477498328E+03  0.00000000000E+00 0. -1.
<mgrwt>
<rscale>  2 0.10163785E+04</rscale>
<asrwt>0</asrwt>
<pdfrwt beam="1">  1       21 0.80207578E-01 0.10299010E+04</pdfrwt>
<pdfrwt beam="2">  1       21 0.29891263E+00 0.10299010E+04</pdfrwt>
<totfact> 0.18837169E+01</totfact>
</mgrwt>
</event>
<event>
 8    1  0.5815007E-006  0.1119582E+04  0.7818608E-02  0.8674091E-01
         21   -1    0    0  501  502  0.00000000000E+00  0.00000000000E+00  0.86034890002E+03  0.86034890002E+03  0.00000000000E+00 0.  1.
         21   -1    0    0  502  503 -0.00000000000E+00 -0.00000000000E+00 -0.14457848104E+04  0.14457848104E+04  0.00000000000E+00 0.  1.
   -9000010    2    1    2    0  503 -0.50363782251E+03 -0.54946925597E+01 -0.16760883885E+03  0.11111260564E+04  0.97612865058E+03 0.  0.
    9000010    2    1    2  501    0  0.50363782251E+03  0.54946925597E+01 -0.41782707151E+03  0.11950076540E+04  0.99989128583E+03 0.  0.
        -13    1    4    4    0    0  0.50827074073E+03  0.44743820311E+03 -0.23606836801E+03  0.71712507767E+03  0.10566000000E+00 0.  1.
          4    1    4    4  501    0 -0.46329182149E+01 -0.44194351055E+03 -0.18175870350E+03  0.47788257631E+03  0.00000000000E+00 0.  1.
         13    1    3    3    0    0 -0.23505396109E+03 -0.23830709351E+03 -0.51493230452E+03  0.61416278367E+03  0.10566000000E+00 0. -1.
         -4    1    3    3    0  503 -0.26858386142E+03  0.23281240095E+03  0.34732346567E+03  0.49696327275E+03  0.00000000000E+00 0. -1.
<mgrwt>
<rscale>  2 0.11142515E+04</rscale>
<asrwt>0</asrwt>
<pdfrwt beam="1">  1       21 0.13236137E+00 0.11195820E+04</pdfrwt>
<pdfrwt beam="2">  1       21 0.22242843E+00 0.11195820E+04</pdfrwt>
<totfact> 0.17406731E+01</totfact>
</mgrwt>
</event>
<event>
 8    1  0.5815007E-006  0.1077288E+04  0.7818608E-02  0.8709272E-01
         21   -1    0    0  503  502  0.00000000000E+00  0.00000000000E+00  0.17844160531E+04  0.17844160531E+04  0.00000000000E+00 0.  1.
         21   -1    0    0  501  503 -0.00000000000E+00 -0.00000000000E+00 -0.68268570982E+03  0.68268570982E+03  0.00000000000E+00 0.  1.
    9000010    2    1    2  501    0 -0.24112856837E+03  0.23069379407E+03  0.24349775905E+03  0.11044634521E+04  0.10242976839E+04 0.  0.
   -9000010    2    1    2    0  502  0.24112856837E+03 -0.23069379407E+03  0.85823258427E+03  0.13626383109E+04  0.10044189288E+04 0.  0.
        -13    1    3    3    0    0  0.23387288536E+03  0.31709800909E+03 -0.20617071662E+03  0.44469545695E+03  0.10566000000E+00 0.  1.
          4    1    3    3  501    0 -0.47500145372E+03 -0.86404215022E+02  0.44966847567E+03  0.65976799515E+03  0.00000000000E+00 0.  1.
         13    1    4    4    0    0  0.48871812671E+03 -0.50984687219E+02  0.92690257975E+03  0.10490916305E+04  0.10566000000E+00 0. -1.
         -4    1    4    4    0  502 -0.24758955834E+03 -0.17970910685E+03 -0.68669995475E+02  0.31354668036E+03  0.00000000000E+00 0. -1.
<mgrwt>
<rscale>  2 0.10725354E+04</rscale>
<asrwt>0</asrwt>
<pdfrwt beam="1">  1       21 0.27452555E+00 0.10772875E+04</pdfrwt>
<pdfrwt beam="2">  1       21 0.10502857E+00 0.10772875E+04</pdfrwt>
<totfact> 0.13927823E+01</totfact>
</mgrwt>
</event>
<event>
 8    1  0.5815007E-006  0.1221077E+04  0.7818608E-02  0.8593312E-01
         21   -1    0    0  501  502  0.00000000000E+00  0.00000000000E+00  0.14055829728E+04  0.14055829728E+04  0.00000000000E+00 0.  1.
         21   -1    0    0  502  503 -0.00000000000E+00 -0.00000000000E+00 -0.11024062994E+04  0.11024062994E+04  0.00000000000E+00 0.  1.
   -9000010    2    1    2    0  503 -0.42323213303E+03 -0.53328159593E+03 -0.12280237451E+03  0.12272365162E+04  0.10136638222E+04 0.  0.
    9000010    2    1    2  501    0  0.42323213303E+03  0.53328159593E+03  0.42597904798E+03  0.12807527561E+04  0.99767468337E+03 0.  0.
        -13    1    4    4    0    0 -0.26174430360E+03 -0.92850750530E+02  0.13020140463E+03  0.30673076023E+03  0.10566000000E+00 0.  1.
          4    1    4    4  501    0  0.68497643663E+03  0.62613234646E+03  0.29577764335E+03  0.97402199582E+03  0.00000000000E+00 0.  1.
         13    1    3    3    0    0 -0.10594498890E+03 -0.62614096493E+03  0.29020581503E+03  0.69820933457E+03  0.10566000000E+00 0. -1.
         -4    1    3    3    0  503 -0.31728714413E+03  0.92859369000E+02 -0.41300818954E+03  0.52902718160E+03  0.00000000000E+00 0. -1.
<mgrwt>
<rscale>  2 0.12177534E+04</rscale>
<asrwt>0</asrwt>
<pdfrwt beam="1">  1       21 0.21624353E+00 0.12210770E+04</pdfrwt>
<pdfrwt beam="2">  1       21 0.16960097E+00 0.12210770E+04</pdfrwt>
<totfact> 0.88230559E+00</totfact>
</mgrwt>
</event>
<event>
 8    1  0.5815007E-006  0.1212255E+04  0.7818608E-02  0.8598803E-01
         21   -1    0    0  501  502  0.00000000000E+00  0.00000000000E+00  0.64936600451E+03  0.64936600451E+03  0.00000000000E+00 0.  1.
         21   -1    0    0  502  503 -0.00000000000E+00 -0.00000000000E+00 -0.22495163345E+04  0.22495163345E+04  0.00000000000E+00 0.  1.
   -9000010    2    1    2    0  503  0.62453531963E+03 -0.29094753677E+03 -0.82533577382E+03  0.14665409606E+04  0.99743090737E+03 0.  0.
    9000010    2    1    2  501    0 -0.62453531963E+03  0.29094753677E+03 -0.77481455619E+03  0.14323413784E+04  0.98821525652E+03 0.  0.
        -13    1    4    4    0    0 -0.81200823235E+03  0.41685521850E+03 -0.40399166866E+03  0.99816577887E+03  0.10566000000E+00 0.  1.
          4    1    4    4  501    0  0.18747291272E+03 -0.12590768173E+03 -0.37082288753E+03  0.43417559954E+03  0.00000000000E+00 0.  1.
         13    1    3    3    0    0 -0.36876038942E+02 -0.38672588888E+03  0.19930713529E+02  0.38899100232E+03  0.10566000000E+00 0. -1.
         -4    1    3    3    0  503  0.66141135857E+03  0.95778352110E+02 -0.84526648734E+03  0.10775499583E+04  0.00000000000E+00 0. -1.
<mgrwt>
<rscale>  2 0.12103582E+04</rscale>
<asrwt>0</asrwt>
<pdfrwt beam="1">  1       21 0.99902463E-01 0.12122554E+04</pdfrwt>
<pdfrwt beam="2">  1       21 0.34607943E+00 0.12122554E+04</pdfrwt>
<totfact> 0.48295260E+00</totfact>
</mgrwt>
</event>
<event>
 8    1  0.5815007E-006  0.1209219E+04  0.7818608E-02  0.8606615E-01
         21   -1    0    0  501  502  0.00000000000E+00  0.00000000000E+00  0.10983206727E+04  0.10983206727E+04  0.00000000000E+00 0.  1.
         21   -1    0    0  502  503 -0.00000000000E+00 -0.00000000000E+00 -0.15135446917E+04  0.15135446917E+04  0.00000000000E+00 0.  1.
   -9000010    2    1    2    0  503  0.62334056538E+03  0.49922774242E+02 -0.71084648969E+03  0.14026808058E+04  0.10349709982E+04 0.  0.
    9000010    2    1    2  501    0 -0.62334056538E+03 -0.49922774242E+02  0.29562247064E+03  0.12091845586E+04  0.99181092338E+03 0.  0.
        -13    1    4    4    0    0 -0.27037511212E+03 -0.20837441062E+03 -0.32922720721E+03  0.47425010425E+03  0.10566000000E+00 0.  1.
          4    1    4    4  501    0 -0.35296545326E+03  0.15845163637E+03  0.62484967785E+03  0.73493445434E+03  0.00000000000E+00 0.  1.
         13    1    3    3    0    0  0.27858675873E+02  0.50102473769E+02  0.25864088412E+03  0.26491787747E+03  0.10566000000E+00 0. -1.
         -4    1    3    3    0  503  0.59548188951E+03 -0.17969952716E+00 -0.96948737381E+03  0.11377629283E+04  0.00000000000E+00 0. -1.
<mgrwt>
<rscale>  2 0.11999305E+04</rscale>
<asrwt>0</asrwt>
<pdfrwt beam="1">  1       21 0.16897241E+00 0.12092191E+04</pdfrwt>
<pdfrwt beam="2">  1       21 0.23285303E+00 0.12092191E+04</pdfrwt>
<totfact> 0.67185600E+00</totfact>
</mgrwt>
</event>
<event>
 8    1  0.5815007E-006  0.1304270E+04  0.7818608E-02  0.8533550E-01
         21   -1    0    0  501  502  0.00000000000E+00  0.00000000000E+00  0.14031213669E+04  0.14031213669E+04  0.00000000000E+00 0.  1.
         21   -1    0    0  502  503 -0.00000000000E+00 -0.00000000000E+00 -0.14436395151E+04  0.14436395151E+04  0.00000000000E+00 0.  1.
   -9000010    2    1    2    0  503  0.78632376411E+03  0.23699160282E+03 -0.60064478900E+03  0.14273028603E+04  0.10009741308E+04 0.  0.
    9000010    2    1    2  501    0 -0.78632376411E+03 -0.23699160282E+03  0.56012664072E+03  0.14194580217E+04  0.10132369614E+04 0.  0.
        -13    1    4    4    0    0 -0.28658661062E+03 -0.27813150977E+03  0.77662375677E+03  0.87328889427E+03  0.10566000000E+00 0.  1.
          4    1    4    4  501    0 -0.49973715349E+03  0.41139906954E+02 -0.21649711605E+03  0.54616912745E+03  0.00000000000E+00 0.  1.
         13    1    3    3    0    0  0.41329775825E+03  0.30076617883E+03  0.19433246910E+03  0.54684591158E+03  0.10566000000E+00 0. -1.
         -4    1    3    3    0  503  0.37302600586E+03 -0.63774576016E+02 -0.79497725810E+03  0.88045694868E+03  0.00000000000E+00 0. -1.
<mgrwt>
<rscale>  2 0.13018872E+04</rscale>
<asrwt>0</asrwt>
<pdfrwt beam="1">  1       21 0.21586483E+00 0.13042696E+04</pdfrwt>
<pdfrwt beam="2">  1       21 0.22209839E+00 0.13042696E+04</pdfrwt>
<totfact> 0.33515918E+00</totfact>
</mgrwt>
</event>
<event>
 8    1  0.5815007E-006  0.1069906E+04  0.7818608E-02  0.8717825E-01
         21   -1    0    0  501  502  0.00000000000E+00  0.00000000000E+00  0.18525821540E+04  0.18525821540E+04  0.00000000000E+00 0.  1.
         21   -1    0    0  502  503 -0.00000000000E+00 -0.00000000000E+00 -0.60186565250E+03  0.60186565250E+03  0.00000000000E+00 0.  1.
   -9000010    2    1    2    0  503  0.21326061969E+03  0.21625326404E+03  0.66460078832E+03  0.12595207608E+04  0.10258912092E+04 0.  0.
    9000010    2    1    2  501    0 -0.21326061969E+03 -0.21625326404E+03  0.58611571317E+03  0.11949270457E+04  0.99602883949E+03 0.  0.
        -13    1    4    4    0    0 -0.21642397092E+03 -0.48958240850E+03  0.71463067722E+03  0.89287585133E+03  0.10566000000E+00 0.  1.
          4    1    4    4  501    0  0.31633512253E+01  0.27332914447E+03 -0.12851496405E+03  0.30205119432E+03  0.00000000000E+00 0.  1.
         13    1    3    3    0    0  0.14811949486E+03 -0.34094302085E+03  0.58471090179E+03  0.69286966889E+03  0.10566000000E+00 0. -1.
         -4    1    3    3    0  503  0.65141124829E+02  0.55719628489E+03  0.79889886529E+02  0.56665109195E+03  0.00000000000E+00 0. -1.
<mgrwt>
<rscale>  2 0.10626831E+04</rscale>
<asrwt>0</asrwt>
<pdfrwt beam="1">  1       21 0.28501264E+00 0.10699058E+04</pdfrwt>
<pdfrwt beam="2">  1       21 0.92594716E-01 0.10699058E+04</pdfrwt>
<totfact> 0.16304071E+01</totfact>
</mgrwt>
</event>
<event>
 8    1  0.5815007E-006  0.1197447E+04  0.7818608E-02  0.8615979E-01
         21   -1    0    0  501  502  0.00000000000E+00  0.00000000000E+00  0.19874825748E+04  0.19874825748E+04  0.00000000000E+00 0.  1.
         21   -1    0    0  502  503 -0.00000000000E+00 -0.00000000000E+00 -0.69815452325E+03  0.69815452325E+03  0.00000000000E+00 0.  1.
   -9000010    2    1    2    0  503 -0.61936855215E+03 -0.11766474413E+03  0.63927498048E+03  0.13231218293E+04  0.97186237661E+03 0.  0.
    9000010    2    1    2  501    0  0.61936855215E+03  0.11766474413E+03  0.65005307104E+03  0.13625152687E+04  0.10180454150E+04 0.  0.
        -13    1    4    4    0    0  0.81281465938E+02  0.16997943498E+03  0.78335844428E+03  0.80569854685E+03  0.10566000000E+00 0.  1.
          4    1    4    4  501    0  0.53808708621E+03 -0.52314690848E+02 -0.13330537323E+03  0.55681672187E+03  0.00000000000E+00 0.  1.
         13    1    3    3    0    0 -0.66531188576E+03  0.29569708541E+03  0.50506441218E+03  0.88609635101E+03  0.10566000000E+00 0. -1.
         -4    1    3    3    0  503  0.45943333610E+02 -0.41336182954E+03  0.13421056830E+03  0.43702547828E+03  0.00000000000E+00 0. -1.
<mgrwt>
<rscale>  2 0.11875732E+04</rscale>
<asrwt>0</asrwt>
<pdfrwt beam="1">  1       21 0.30576655E+00 0.11974468E+04</pdfrwt>
<pdfrwt beam="2">  1       21 0.10740839E+00 0.11974468E+04</pdfrwt>
<totfact> 0.76726850E+00</totfact>
</mgrwt>
</event>
<event>
 8    1  0.5815007E-006  0.1113326E+04  0.7818608E-02  0.8701300E-01
         21   -1    0    0  503  502  0.00000000000E+00  0.00000000000E+00  0.84074426122E+03  0.84074426122E+03  0.00000000000E+00 0.  1.
         21   -1    0    0  501  503 -0.00000000000E+00 -0.00000000000E+00 -0.14169116994E+04  0.14169116994E+04  0.00000000000E+00 0.  1.
    9000010    2    1    2  501    0  0.35911175443E+03  0.31017260845E+03 -0.60021780510E+03  0.12648142690E+04  0.10071372410E+04 0.  0.
   -9000010    2    1    2    0  502 -0.35911175443E+03 -0.31017260845E+03  0.24050366885E+02  0.99284169167E+03  0.87177285194E+03 0.  0.
        -13    1    3    3    0    0  0.51400855237E+03  0.52553879065E+02 -0.76413580129E+03  0.92242627678E+03  0.10566000000E+00 0.  1.
          4    1    3    3  501    0 -0.15489679795E+03  0.25761872938E+03  0.16391799618E+03  0.34238799222E+03  0.00000000000E+00 0.  1.
         13    1    4    4    0    0 -0.23942518654E+03  0.70546658968E+02 -0.36060109201E+03  0.43855947118E+03  0.10566000000E+00 0. -1.
         -4    1    4    4    0  502 -0.11968656789E+03 -0.38071926741E+03  0.38465145890E+03  0.55428222049E+03  0.00000000000E+00 0. -1.
<mgrwt>
<rscale>  2 0.10818194E+04</rscale>
<asrwt>0</asrwt>
<pdfrwt beam="1">  1       21 0.12934527E+00 0.11133255E+04</pdfrwt>
<pdfrwt beam="2">  1       21 0.21798641E+00 0.11133255E+04</pdfrwt>
<totfact> 0.20128791E+01</totfact>
</mgrwt>
</event>
<event>
 8    1  0.5815007E-006  0.1180776E+04  0.7818608E-02  0.8625160E-01
         21   -1    0    0  503  502  0.00000000000E+00  0.00000000000E+00  0.18906979107E+04  0.18906979107E+04  0.00000000000E+00 0. -1.
         21   -1    0    0  501  503 -0.00000000000E+00 -0.00000000000E+00 -0.88429233555E+03  0.88429233555E+03  0.00000000000E+00 0. -1.
    9000010    2    1    2  501    0  0.28049990171E+03  0.48451850150E+03 -0.89936380267E+02  0.11637180855E+04  0.10162248063E+04 0.  0.
   -9000010    2    1    2    0  502 -0.28049990171E+03 -0.48451850150E+03  0.10963419554E+04  0.16112721607E+04  0.10396123891E+04 0.  0.
        -13    1    3    3    0    0  0.56181289113E+03  0.12707296975E+03 -0.31468113719E+03  0.65635774814E+03  0.10566000000E+00 0.  1.
          4    1    3    3  501    0 -0.28131298942E+03  0.35744553176E+03  0.22474475692E+03  0.50736033739E+03  0.00000000000E+00 0.  1.
         13    1    4    4    0    0 -0.54773407482E+03  0.77095086291E+02  0.59524631852E+03  0.81257274131E+03  0.10566000000E+00 0. -1.
         -4    1    4    4    0  502  0.26723417311E+03 -0.56161358780E+03  0.50109563690E+03  0.79869941943E+03  0.00000000000E+00 0. -1.
<mgrwt>
<rscale>  2 0.11756077E+04</rscale>
<asrwt>0</asrwt>
<pdfrwt beam="1">  1       21 0.29087660E+00 0.11807761E+04</pdfrwt>
<pdfrwt beam="2">  1       21 0.13604498E+00 0.11807761E+04</pdfrwt>
<totfact> 0.50462126E+00</totfact>
</mgrwt>
</event>
<event>
 8    1  0.5815007E-006  0.1165172E+04  0.7818608E-02  0.8648265E-01
         21   -1    0    0  501  502  0.00000000000E+00  0.00000000000E+00  0.70229774990E+03  0.70229774990E+03  0.00000000000E+00 0. -1.
         21   -1    0    0  502  503 -0.00000000000E+00 -0.00000000000E+00 -0.18420871487E+04  0.18420871487E+04  0.00000000000E+00 0. -1.
   -9000010    2    1    2    0  503  0.56937332601E+03  0.11552265659E+02 -0.75133077172E+03  0.13864071694E+04  0.10165173248E+04 0.  0.
    9000010    2    1    2  501    0 -0.56937332601E+03 -0.11552265659E+02 -0.38845862710E+03  0.11579777293E+04  0.93042618045E+03 0.  0.
        -13    1    4    4    0    0  0.70320654653E+02  0.34913041658E+03 -0.14094087839E+03  0.38301616756E+03  0.10566000000E+00 0.  1.
          4    1    4    4  501    0 -0.63969398066E+03 -0.36068268224E+03 -0.24751774871E+03  0.77496156169E+03  0.00000000000E+00 0.  1.
         13    1    3    3    0    0  0.30355401298E+03  0.43271408023E+03 -0.71209726852E+03  0.88683089991E+03  0.10566000000E+00 0. -1.
         -4    1    3    3    0  503  0.26581931303E+03 -0.42116181457E+03 -0.39233503199E+02  0.49957626946E+03  0.00000000000E+00 0. -1.
<mgrwt>
<rscale>  2 0.11461372E+04</rscale>
<asrwt>0</asrwt>
<pdfrwt beam="1">  1       21 0.10804581E+00 0.11651725E+04</pdfrwt>
<pdfrwt beam="2">  1       21 0.28339802E+00 0.11651725E+04</pdfrwt>
<totfact> 0.10952955E+01</totfact>
</mgrwt>
</event>
<event>
 8    1  0.5815007E-006  0.1066788E+04  0.7818608E-02  0.8717068E-01
         21   -1    0    0  501  502  0.00000000000E+00  0.00000000000E+00  0.55750562726E+03  0.55750562726E+03  0.00000000000E+00 0. -1.
         21   -1    0    0  502  503 -0.00000000000E+00 -0.00000000000E+00 -0.20905701870E+04  0.20905701870E+04  0.00000000000E+00 0. -1.
   -9000010    2    1    2    0  503  0.36412610462E+03  0.14451520498E+03 -0.10198971125E+04  0.14758819732E+04  0.99225249517E+03 0.  0.
    9000010    2    1    2  501    0 -0.36412610462E+03 -0.14451520498E+03 -0.51316744724E+03  0.11721938411E+04  0.97837881600E+03 0.  0.
        -13    1    4    4    0    0 -0.13398906236E+03  0.12466826368E+03  0.26221094465E+03  0.31976528182E+03  0.10566000000E+00 0.  1.
          4    1    4    4  501    0 -0.23013704226E+03 -0.26918346866E+03 -0.77537839189E+03  0.85242855925E+03  0.00000000000E+00 0.  1.
         13    1    3    3    0    0  0.67316260131E+03  0.15424918810E+03 -0.44045973900E+03  0.81911262515E+03  0.10566000000E+00 0. -1.
         -4    1    3    3    0  503 -0.30903649670E+03 -0.97339831191E+01 -0.57943737351E+03  0.65676934805E+03  0.00000000000E+00 0. -1.
<mgrwt>
<rscale>  2 0.10635507E+04</rscale>
<asrwt>0</asrwt>
<pdfrwt beam="1">  1       21 0.85770097E-01 0.10667884E+04</pdfrwt>
<pdfrwt beam="2">  1       21 0.32162618E+00 0.10667884E+04</pdfrwt>
<totfact> 0.10942960E+01</totfact>
</mgrwt>
</event>
<event>
 8    1  0.5815007E-006  0.1017074E+04  0.7818608E-02  0.8777339E-01
         21   -1    0    0  501  502  0.00000000000E+00  0.00000000000E+00  0.44466299994E+03  0.44466299994E+03  0.00000000000E+00 0.  1.
         21   -1    0    0  502  503 -0.00000000000E+00 -0.00000000000E+00 -0.22297922827E+04  0.22297922827E+04  0.00000000000E+00 0.  1.
   -9000010    2    1    2    0  503  0.11301358264E+03  0.21859701173E+03 -0.11761086343E+04  0.15548862487E+04  0.98685510760E+03 0.  0.
    9000010    2    1    2  501    0 -0.11301358264E+03 -0.21859701173E+03 -0.60902064848E+03  0.11195690339E+04  0.90662668617E+03 0.  0.
        -13    1    4    4    0    0 -0.21439897868E+03 -0.19043626111E+03  0.17007202468E+03  0.33340275396E+03  0.10566000000E+00 0.  1.
          4    1    4    4  501    0  0.10138539604E+03 -0.28160750619E+02 -0.77909267316E+03  0.78616627998E+03  0.00000000000E+00 0.  1.
         13    1    3    3    0    0  0.25426671149E+03  0.55880063533E+03 -0.52956930560E+03  0.81077331679E+03  0.10566000000E+00 0. -1.
         -4    1    3    3    0  503 -0.14125312885E+03 -0.34020362360E+03 -0.64653932873E+03  0.74411293196E+03  0.00000000000E+00 0. -1.
<mgrwt>
<rscale>  2 0.99708125E+03</rscale>
<asrwt>0</asrwt>
<pdfrwt beam="1">  1       21 0.68409693E-01 0.10170741E+04</pdfrwt>
<pdfrwt beam="2">  1       21 0.34304496E+00 0.10170741E+04</pdfrwt>
<totfact> 0.13538736E+01</totfact>
</mgrwt>
</event>
<event>
 8    1  0.5815007E-006  0.1041444E+04  0.7818608E-02  0.8737470E-01
         21   -1    0    0  503  502  0.00000000000E+00  0.00000000000E+00  0.43937431382E+03  0.43937431382E+03  0.00000000000E+00 0.  1.
         21   -1    0    0  501  503 -0.00000000000E+00 -0.00000000000E+00 -0.27171250893E+04  0.27171250893E+04  0.00000000000E+00 0.  1.
    9000010    2    1    2  501    0  0.29797859686E+03  0.16839276121E+02 -0.16269765739E+04  0.19317502961E+04  0.99776331311E+03 0.  0.
   -9000010    2    1    2    0  502 -0.29797859686E+03 -0.16839276121E+02 -0.65077420161E+03  0.12247491071E+04  0.99369437374E+03 0.  0.
        -13    1    3    3    0    0 -0.31278383302E+03  0.20001900909E+03 -0.84348842268E+03  0.92158236775E+03  0.10566000000E+00 0.  1.
          4    1    3    3  501    0  0.61076242988E+03 -0.18317973297E+03 -0.78348815123E+03  0.10101679283E+04  0.00000000000E+00 0.  1.
         13    1    4    4    0    0  0.36199967947E+03 -0.26031030676E+02 -0.33150192492E+03  0.49154340590E+03  0.10566000000E+00 0. -1.
         -4    1    4    4    0  502 -0.65997827633E+03  0.91917545559E+01 -0.31927227669E+03  0.73320570118E+03  0.00000000000E+00 0. -1.
<mgrwt>
<rscale>  2 0.10404686E+04</rscale>
<asrwt>0</asrwt>
<pdfrwt beam="1">  1       21 0.67596048E-01 0.10414444E+04</pdfrwt>
<pdfrwt beam="2">  1       21 0.41801925E+00 0.10414444E+04</pdfrwt>
<totfact> 0.41497467E+00</totfact>
</mgrwt>
</event>
<event>
 8    1  0.5815007E-006  0.1014260E+04  0.7818608E-02  0.8771731E-01
         21   -1    0    0  501  502  0.00000000000E+00  0.00000000000E+00  0.11029338408E+04  0.11029338408E+04  0.00000000000E+00 0.  1.
         21   -1    0    0  502  503 -0.00000000000E+00 -0.00000000000E+00 -0.89493420796E+03  0.89493420796E+03  0.00000000000E+00 0.  1.
   -9000010    2    1    2    0  503  0.95728147684E+02  0.19376544860E+03  0.15270269891E+03  0.98210193749E+03  0.94577860731E+03 0.  0.
    9000010    2    1    2  501    0 -0.95728147684E+02 -0.19376544860E+03  0.55296933952E+02  0.10157661113E+04  0.99096625302E+03 0.  0.
        -13    1    4    4    0    0  0.32400902386E+03 -0.35636050615E+03  0.22897139889E+03  0.53329407512E+03  0.10566000000E+00 0.  1.
          4    1    4    4  501    0 -0.41973717155E+03  0.16259505756E+03 -0.17367446493E+03  0.48247203617E+03  0.00000000000E+00 0.  1.
         13    1    3    3    0    0 -0.25016381398E+03 -0.24831878986E+03 -0.10018831463E+03  0.36644490005E+03  0.10566000000E+00 0. -1.
         -4    1    3    3    0  503  0.34589196166E+03  0.44208423845E+03  0.25289101354E+03  0.61565703745E+03  0.00000000000E+00 0. -1.
<mgrwt>
<rscale>  2 0.10030498E+04</rscale>
<asrwt>0</asrwt>
<pdfrwt beam="1">  1       21 0.16968213E+00 0.10142598E+04</pdfrwt>
<pdfrwt beam="2">  1       21 0.13768219E+00 0.10142598E+04</pdfrwt>
<totfact> 0.41394098E+01</totfact>
</mgrwt>
</event>
<event>
 8    1  0.5815007E-006  0.1175040E+04  0.7818608E-02  0.8630065E-01
         21   -1    0    0  503  502  0.00000000000E+00  0.00000000000E+00  0.77427826768E+03  0.77427826768E+03  0.00000000000E+00 0.  1.
         21   -1    0    0  501  503 -0.00000000000E+00 -0.00000000000E+00 -0.17738177865E+04  0.17738177865E+04  0.00000000000E+00 0.  1.
    9000010    2    1    2  501    0 -0.83440261161E+01 -0.53405419566E+03 -0.34321123670E+03  0.12021812807E+04  0.10208635423E+04 0.  0.
   -9000010    2    1    2    0  502  0.83440261161E+01  0.53405419566E+03 -0.65632828217E+03  0.13459147736E+04  0.10466309077E+04 0.  0.
        -13    1    3    3    0    0  0.47459946484E+03 -0.25815175939E+03 -0.35393973397E+03  0.64587950064E+03  0.10566000000E+00 0.  1.
          4    1    3    3  501    0 -0.48294349096E+03 -0.27590243627E+03  0.10728497274E+02  0.55630178002E+03  0.00000000000E+00 0.  1.
         13    1    4    4    0    0 -0.40809128672E+03  0.10771900268E+03  0.46271000864E+02  0.42459733692E+03  0.10566000000E+00 0. -1.
         -4    1    4    4    0  502  0.41643531283E+03  0.42633519298E+03 -0.70259928304E+03  0.92131743665E+03  0.00000000000E+00 0. -1.
<mgrwt>
<rscale>  2 0.11692750E+04</rscale>
<asrwt>0</asrwt>
<pdfrwt beam="1">  1       21 0.11911973E+00 0.11750403E+04</pdfrwt>
<pdfrwt beam="2">  1       21 0.27289504E+00 0.11750403E+04</pdfrwt>
<totfact> 0.99376667E+00</totfact>
</mgrwt>
</event>
<event>
 8    1  0.5815007E-006  0.1190554E+04  0.7818608E-02  0.8619954E-01
         21   -1    0    0  503  502  0.00000000000E+00  0.00000000000E+00  0.14933225624E+04  0.14933225624E+04  0.00000000000E+00 0.  1.
         21   -1    0    0  501  503 -0.00000000000E+00 -0.00000000000E+00 -0.92496129849E+03  0.92496129849E+03  0.00000000000E+00 0.  1.
    9000010    2    1    2  501    0 -0.52901965945E+03 -0.17209186295E+03  0.33562928926E+03  0.12369581246E+04  0.10525877507E+04 0.  0.
   -9000010    2    1    2    0  502  0.52901965945E+03  0.17209186295E+03  0.23273197468E+03  0.11813257363E+04  0.10158193313E+04 0.  0.
        -13    1    3    3    0    0  0.64145550314E+02 -0.33284347540E+03 -0.22357263372E+03  0.40605931150E+03  0.10566000000E+00 0.  1.
          4    1    3    3  501    0 -0.59316520976E+03  0.16075161246E+03  0.55920192298E+03  0.83089881312E+03  0.00000000000E+00 0.  1.
         13    1    4    4    0    0  0.32914549714E+03 -0.41578545621E+03  0.17173239996E+03  0.55741038046E+03  0.10566000000E+00 0. -1.
         -4    1    4    4    0  502  0.19987416230E+03  0.58787731916E+03  0.60999574716E+02  0.62391535584E+03  0.00000000000E+00 0. -1.
<mgrwt>
<rscale>  2 0.11823749E+04</rscale>
<asrwt>0</asrwt>
<pdfrwt beam="1">  1       21 0.22974193E+00 0.11905538E+04</pdfrwt>
<pdfrwt beam="2">  1       21 0.14230174E+00 0.11905538E+04</pdfrwt>
<totfact> 0.12201035E+01</totfact>
</mgrwt>
</event>
<event>
 8    1  0.5815007E-006  0.1055683E+04  0.7818608E-02  0.8725603E-01
         21   -1    0    0  503  502  0.00000000000E+00  0.00000000000E+00  0.16667892395E+04  0.16667892395E+04  0.00000000000E+00 0.  1.
         21   -1    0    0  501  503 -0.00000000000E+00 -0.00000000000E+00 -0.66975746104E+03  0.66975746104E+03  0.00000000000E+00 0.  1.
    9000010    2    1    2  501    0  0.20969949986E+03 -0.24431876211E+03  0.60924089520E+03  0.12188686665E+04  0.10053859061E+04 0.  0.
   -9000010    2    1    2    0  502 -0.20969949986E+03  0.24431876211E+03  0.38779088326E+03  0.11176780340E+04  0.99757550128E+03 0.  0.
        -13    1    3    3    0    0 -0.23315270070E+03  0.89889406360E+02  0.61521705434E+03  0.66402735059E+03  0.10566000000E+00 0.  1.
          4    1    3    3  501    0  0.44285220056E+03 -0.33420816847E+03 -0.59761591419E+01  0.55484131596E+03  0.00000000000E+00 0.  1.
         13    1    4    4    0    0 -0.53976799884E+03  0.17111086676E+03 -0.45529409375E+02  0.56806809414E+03  0.10566000000E+00 0. -1.
         -4    1    4    4    0  502  0.33006849899E+03  0.73207895349E+02  0.43332029264E+03  0.54960993985E+03  0.00000000000E+00 0. -1.
<mgrwt>
<rscale>  2 0.10538191E+04</rscale>
<asrwt>0</asrwt>
<pdfrwt beam="1">  1       21 0.25642911E+00 0.10556829E+04</pdfrwt>
<pdfrwt beam="2">  1       21 0.10303961E+00 0.10556829E+04</pdfrwt>
<totfact> 0.19865056E+01</totfact>
</mgrwt>
</event>
<event>
 8    1  0.5815007E-006  0.1085844E+04  0.7818608E-02  0.8698732E-01
         21   -1    0    0  501  502  0.00000000000E+00  0.00000000000E+00  0.10184989722E+04  0.10184989722E+04  0.00000000000E+00 0.  1.
         21   -1    0    0  502  503 -0.00000000000E+00 -0.00000000000E+00 -0.12087413027E+04  0.12087413027E+04  0.00000000000E+00 0.  1.
   -9000010    2    1    2    0  503 -0.68560026898E+02 -0.41290764493E+03 -0.33372087227E+03  0.11359692571E+04  0.10019298039E+04 0.  0.
    9000010    2    1    2  501    0  0.68560026898E+02  0.41290764493E+03  0.14347854180E+03  0.10912710179E+04  0.99754355391E+03 0.  0.
        -13    1    4    4    0    0  0.10338773794E+03  0.35619349468E+03 -0.39897956790E+03  0.54474538711E+03  0.10566000000E+00 0.  1.
          4    1    4    4  501    0 -0.34827711039E+02  0.56714150244E+02  0.54245810970E+03  0.54652563075E+03  0.00000000000E+00 0.  1.
         13    1    3    3    0    0  0.34906697488E+03 -0.32646382684E+03  0.14052002228E+03  0.49816891815E+03  0.10566000000E+00 0. -1.
         -4    1    3    3    0  503 -0.41762700177E+03 -0.86443818092E+02 -0.47424089455E+03  0.63780033895E+03  0.00000000000E+00 0. -1.
<mgrwt>
<rscale>  2 0.10848308E+04</rscale>
<asrwt>0</asrwt>
<pdfrwt beam="1">  1       21 0.15669215E+00 0.10858437E+04</pdfrwt>
<pdfrwt beam="2">  1       21 0.18596020E+00 0.10858437E+04</pdfrwt>
<totfact> 0.20184426E+01</totfact>
</mgrwt>
</event>
<event>
 8    1  0.5815007E-006  0.2048085E+04  0.7818608E-02  0.8150892E-01
         21   -1    0    0  501  502  0.00000000000E+00  0.00000000000E+00  0.20554245173E+04  0.20554245173E+04  0.00000000000E+00 0. -1.
         21   -1    0    0  502  503 -0.00000000000E+00 -0.00000000000E+00 -0.22453894239E+04  0.22453894239E+04  0.00000000000E+00 0.  1.
   -9000010    2    1    2    0  503 -0.79454281411E+03  0.15924112364E+04  0.58175623509E+03  0.21291063768E+04  0.10136971033E+04 0.  0.
    9000010    2    1    2  501    0  0.79454281411E+03 -0.15924112364E+04 -0.77172114164E+03  0.21717075645E+04  0.97656970870E+03 0.  0.
        -13    1    4    4    0    0  0.43323814426E+03 -0.88943557646E+02  0.28450656351E+01  0.44228311256E+03  0.10566000000E+00 0.  1.
          4    1    4    4  501    0  0.36130466985E+03 -0.15034676787E+04 -0.77456620727E+03  0.17294244519E+04  0.00000000000E+00 0.  1.
         13    1    3    3    0    0 -0.67189822636E+03  0.12519232891E+04  0.87035893652E+03  0.16662184244E+04  0.10566000000E+00 0. -1.
         -4    1    3    3    0  503 -0.12264458775E+03  0.34048794725E+03 -0.28860270143E+03  0.46288795232E+03  0.00000000000E+00 0. -1.
<mgrwt>
<rscale>  2 0.20435403E+04</rscale>
<asrwt>0</asrwt>
<pdfrwt beam="1">  1       21 0.31621916E+00 0.20480854E+04</pdfrwt>
<pdfrwt beam="2">  1       21 0.34544452E+00 0.20480854E+04</pdfrwt>
<totfact> 0.71790003E-02</totfact>
</mgrwt>
</event>
<event>
 8    1  0.5815007E-006  0.1126624E+04  0.7818608E-02  0.8664749E-01
         21   -1    0    0  501  502  0.00000000000E+00  0.00000000000E+00  0.10165885325E+04  0.10165885325E+04  0.00000000000E+00 0. -1.
         21   -1    0    0  502  503 -0.00000000000E+00 -0.00000000000E+00 -0.12546336746E+04  0.12546336746E+04  0.00000000000E+00 0. -1.
   -9000010    2    1    2    0  503  0.12233361371E+02  0.50538958983E+03 -0.22228990296E+03  0.11483446457E+04  0.10068338153E+04 0.  0.
    9000010    2    1    2  501    0 -0.12233361371E+02 -0.50538958983E+03 -0.15755239161E+02  0.11228775615E+04  0.10025155849E+04 0.  0.
        -13    1    4    4    0    0  0.36353255495E+03  0.11977657721E+03 -0.78691247532E+02  0.39076165441E+03  0.10566000000E+00 0.  1.
          4    1    4    4  501    0 -0.37576591632E+03 -0.62516616703E+03  0.62936008370E+02  0.73211590709E+03  0.00000000000E+00 0.  1.
         13    1    3    3    0    0 -0.26282043697E+03  0.71285004719E+03 -0.45514106933E+02  0.76111846447E+03  0.10566000000E+00 0. -1.
         -4    1    3    3    0  503  0.27505379834E+03 -0.20746045736E+03 -0.17677579603E+03  0.38722618121E+03  0.00000000000E+00 0. -1.
<mgrwt>
<rscale>  2 0.11256588E+04</rscale>
<asrwt>0</asrwt>
<pdfrwt beam="1">  1       21 0.15639824E+00 0.11266244E+04</pdfrwt>
<pdfrwt beam="2">  1       21 0.19302057E+00 0.11266244E+04</pdfrwt>
<totfact> 0.17675895E+01</totfact>
</mgrwt>
</event>
<event>
 8    1  0.5815007E-006  0.1546692E+04  0.7818608E-02  0.8383601E-01
         21   -1    0    0  501  502  0.00000000000E+00  0.00000000000E+00  0.18127580729E+04  0.18127580729E+04  0.00000000000E+00 0. -1.
         21   -1    0    0  502  503 -0.00000000000E+00 -0.00000000000E+00 -0.13957123379E+04  0.13957123379E+04  0.00000000000E+00 0. -1.
   -9000010    2    1    2    0  503  0.76099015401E+03  0.90325993156E+03 -0.17284522666E+03  0.15563194053E+04  0.99863411739E+03 0.  0.
    9000010    2    1    2  501    0 -0.76099015401E+03 -0.90325993156E+03  0.58989096159E+03  0.16521510055E+04  0.99330110241E+03 0.  0.
        -13    1    4    4    0    0 -0.34423956327E+03  0.16733295782E+03  0.61683366571E+02  0.38769323513E+03  0.10566000000E+00 0.  1.
          4    1    4    4  501    0 -0.41675059074E+03 -0.10705928894E+04  0.52820759502E+03  0.12644577704E+04  0.00000000000E+00 0.  1.
         13    1    3    3    0    0 -0.14534444595E+03 -0.76868949031E+02 -0.14787370731E+03  0.22113454676E+03  0.10566000000E+00 0. -1.
         -4    1    3    3    0  503  0.90633459996E+03  0.98012888059E+03 -0.24971519349E+02  0.13351848585E+04  0.00000000000E+00 0. -1.
<mgrwt>
<rscale>  2 0.15458313E+04</rscale>
<asrwt>0</asrwt>
<pdfrwt beam="1">  1       21 0.27888586E+00 0.15466915E+04</pdfrwt>
<pdfrwt beam="2">  1       21 0.21472497E+00 0.15466915E+04</pdfrwt>
<totfact> 0.12555718E+00</totfact>
</mgrwt>
</event>
<event>
 8    1  0.5815007E-006  0.1088302E+04  0.7818608E-02  0.8696202E-01
         21   -1    0    0  501  502  0.00000000000E+00  0.00000000000E+00  0.47174018355E+03  0.47174018355E+03  0.00000000000E+00 0.  1.
         21   -1    0    0  502  503 -0.00000000000E+00 -0.00000000000E+00 -0.25949187998E+04  0.25949187998E+04  0.00000000000E+00 0.  1.
   -9000010    2    1    2    0  503  0.40887251389E+03  0.15845289963E+03 -0.13461160184E+04  0.17310195738E+04  0.99605038830E+03 0.  0.
    9000010    2    1    2  501    0 -0.40887251389E+03 -0.15845289963E+03 -0.77706259787E+03  0.13356394095E+04  0.99389249784E+03 0.  0.
        -13    1    4    4    0    0  0.14217625307E+03  0.26928884459E+02  0.17068745483E+03  0.22377102171E+03  0.10566000000E+00 0.  1.
          4    1    4    4  501    0 -0.55104876696E+03 -0.18538178409E+03 -0.94775005271E+03  0.11118683878E+04  0.00000000000E+00 0.  1.
         13    1    3    3    0    0  0.49840151577E+03 -0.27946611569E+03 -0.10482886991E+04  0.11939072781E+04  0.10566000000E+00 0. -1.
         -4    1    3    3    0  503 -0.89529001880E+02  0.43791901533E+03 -0.29782731924E+03  0.53711229576E+03  0.00000000000E+00 0. -1.
<mgrwt>
<rscale>  2 0.10878076E+04</rscale>
<asrwt>0</asrwt>
<pdfrwt beam="1">  1       21 0.72575412E-01 0.10883016E+04</pdfrwt>
<pdfrwt beam="2">  1       21 0.39921828E+00 0.10883016E+04</pdfrwt>
<totfact> 0.46803036E+00</totfact>
</mgrwt>
</event>
<event>
 8    1  0.5815007E-006  0.1299338E+04  0.7818608E-02  0.8546143E-01
         21   -1    0    0  501  502  0.00000000000E+00  0.00000000000E+00  0.15230290639E+04  0.15230290639E+04  0.00000000000E+00 0.  1.
         21   -1    0    0  502  503 -0.00000000000E+00 -0.00000000000E+00 -0.12653954214E+04  0.12653954214E+04  0.00000000000E+00 0.  1.
   -9000010    2    1    2    0  503  0.56253453728E+03  0.46234372254E+03 -0.43509228015E+03  0.13702501299E+04  0.10761381431E+04 0.  0.
    9000010    2    1    2  501    0 -0.56253453728E+03 -0.46234372254E+03  0.69272592264E+03  0.14181743553E+04  0.10005710743E+04 0.  0.
        -13    1    4    4    0    0  0.21322058357E+03 -0.40724948740E+03  0.24968130790E+03  0.52312133289E+03  0.10566000000E+00 0.  1.
          4    1    4    4  501    0 -0.77575512085E+03 -0.55094235144E+02  0.44304461474E+03  0.89505302241E+03  0.00000000000E+00 0.  1.
         13    1    3    3    0    0 -0.13856506474E+03 -0.24516002060E+03  0.41901738786E+01  0.28164034084E+03  0.10566000000E+00 0. -1.
         -4    1    3    3    0  503  0.70109960203E+03  0.70750374314E+03 -0.43928245402E+03  0.10886097891E+04  0.00000000000E+00 0. -1.
<mgrwt>
<rscale>  2 0.12835890E+04</rscale>
<asrwt>0</asrwt>
<pdfrwt beam="1">  1       21 0.23431216E+00 0.12993383E+04</pdfrwt>
<pdfrwt beam="2">  1       21 0.19467622E+00 0.12993383E+04</pdfrwt>
<totfact> 0.39694505E+00</totfact>
</mgrwt>
</event>
<event>
 8    1  0.5815007E-006  0.1448445E+04  0.7818608E-02  0.8442129E-01
         21   -1    0    0  503  502  0.00000000000E+00  0.00000000000E+00  0.24032837756E+04  0.24032837756E+04  0.00000000000E+00 0. -1.
         21   -1    0    0  501  503 -0.00000000000E+00 -0.00000000000E+00 -0.89636110478E+03  0.89636110478E+03  0.00000000000E+00 0. -1.
    9000010    2    1    2  501    0  0.25082463469E+03  0.10216716658E+04  0.43465526545E+03  0.14974930424E+04  0.97305406946E+03 0.  0.
   -9000010    2    1    2    0  502 -0.25082463469E+03 -0.10216716658E+04  0.10722674054E+04  0.18021518380E+04  0.99562436120E+03 0.  0.
        -13    1    3    3    0    0  0.40113130118E+03  0.11580122207E+04  0.33003600129E+03  0.12691817826E+04  0.10566000000E+00 0.  1.
          4    1    3    3  501    0 -0.15030666649E+03 -0.13634055488E+03  0.10461926416E+03  0.22831125975E+03  0.00000000000E+00 0.  1.
         13    1    4    4    0    0 -0.70202521720E+02 -0.90869207954E+03  0.12344180661E+04  0.15344176949E+04  0.10566000000E+00 0. -1.
         -4    1    4    4    0  502 -0.18062211297E+03 -0.11297958626E+03 -0.16215066071E+03  0.26773414309E+03  0.00000000000E+00 0. -1.
<mgrwt>
<rscale>  2 0.14445747E+04</rscale>
<asrwt>0</asrwt>
<pdfrwt beam="1">  1       21 0.36973596E+00 0.14484453E+04</pdfrwt>
<pdfrwt beam="2">  1       21 0.13790171E+00 0.14484453E+04</pdfrwt>
<totfact> 0.12820968E+00</totfact>
</mgrwt>
</event>
<event>
 8    1  0.5815007E-006  0.1042741E+04  0.7818608E-02  0.8738125E-01
         21   -1    0    0  501  502  0.00000000000E+00  0.00000000000E+00  0.68291750320E+03  0.68291750320E+03  0.00000000000E+00 0.  1.
         21   -1    0    0  502  503 -0.00000000000E+00 -0.00000000000E+00 -0.15831397617E+04  0.15831397617E+04  0.00000000000E+00 0.  1.
   -9000010    2    1    2    0  503  0.17425453315E+03  0.24782438678E+03 -0.53390216624E+03  0.11608429161E+04  0.98525285272E+03 0.  0.
    9000010    2    1    2  501    0 -0.17425453315E+03 -0.24782438678E+03 -0.36632009224E+03  0.11052143487E+04  0.99776088202E+03 0.  0.
        -13    1    4    4    0    0 -0.46529879265E+03  0.11780605326E+03 -0.41611737343E+03  0.63524397854E+03  0.10566000000E+00 0.  1.
          4    1    4    4  501    0  0.29104425950E+03 -0.36563044003E+03  0.49797281193E+02  0.46997037021E+03  0.00000000000E+00 0.  1.
         13    1    3    3    0    0  0.48499796799E+03 -0.21324413807E+02 -0.56934476748E+03  0.74821870800E+03  0.10566000000E+00 0. -1.
         -4    1    3    3    0  503 -0.31074343483E+03  0.26914880058E+03  0.35442601242E+02  0.41262420812E+03  0.00000000000E+00 0. -1.
<mgrwt>
<rscale>  2 0.10397373E+04</rscale>
<asrwt>0</asrwt>
<pdfrwt beam="1">  1       21 0.10506423E+00 0.10427408E+04</pdfrwt>
<pdfrwt beam="2">  1       21 0.24355996E+00 0.10427408E+04</pdfrwt>
<totfact> 0.23471683E+01</totfact>
</mgrwt>
</event>
<event>
 8    1  0.5815007E-006  0.1099161E+04  0.7818608E-02  0.8688683E-01
         21   -1    0    0  501  502  0.00000000000E+00  0.00000000000E+00  0.10973910506E+04  0.10973910506E+04  0.00000000000E+00 0. -1.
         21   -1    0    0  502  503 -0.00000000000E+00 -0.00000000000E+00 -0.11218408586E+04  0.11218408586E+04  0.00000000000E+00 0. -1.
   -9000010    2    1    2    0  503  0.38004592327E+03 -0.19174330630E+03 -0.19561136193E+03  0.11068244530E+04  0.10027941790E+04 0.  0.
    9000010    2    1    2  501    0 -0.38004592327E+03  0.19174330630E+03  0.17116155394E+03  0.11124074562E+04  0.10133872269E+04 0.  0.
        -13    1    4    4    0    0 -0.76019874294E+02  0.53287059856E+03  0.32677377424E+03  0.62969135836E+03  0.10566000000E+00 0.  1.
          4    1    4    4  501    0 -0.30402604898E+03 -0.34112729226E+03 -0.15561222030E+03  0.48271609781E+03  0.00000000000E+00 0.  1.
         13    1    3    3    0    0  0.55339773106E+03  0.14068910389E+03  0.15694839418E+03  0.59217842099E+03  0.10566000000E+00 0. -1.
         -4    1    3    3    0  503 -0.17335180778E+03 -0.33243241019E+03 -0.35255975611E+03  0.51464603198E+03  0.00000000000E+00 0. -1.
<mgrwt>
<rscale>  2 0.10967128E+04</rscale>
<asrwt>0</asrwt>
<pdfrwt beam="1">  1       21 0.16882939E+00 0.10991606E+04</pdfrwt>
<pdfrwt beam="2">  1       21 0.17259090E+00 0.10991606E+04</pdfrwt>
<totfact> 0.20381711E+01</totfact>
</mgrwt>
</event>
<event>
 8    1  0.5815007E-006  0.1081177E+04  0.7818608E-02  0.8731071E-01
         21   -1    0    0  503  502  0.00000000000E+00  0.00000000000E+00  0.10558875814E+04  0.10558875814E+04  0.00000000000E+00 0. -1.
         21   -1    0    0  501  503 -0.00000000000E+00 -0.00000000000E+00 -0.10123564594E+04  0.10123564594E+04  0.00000000000E+00 0. -1.
    9000010    2    1    2  501    0  0.70537208735E+02  0.41212072691E+03 -0.16182899373E+03  0.10932209589E+04  0.99705789719E+03 0.  0.
   -9000010    2    1    2    0  502 -0.70537208735E+02 -0.41212072691E+03  0.20536011577E+03  0.97502308192E+03  0.85655019804E+03 0.  0.
        -13    1    3    3    0    0  0.37812677432E+03  0.37175615882E+02 -0.40105744715E+03  0.55245721188E+03  0.10566000000E+00 0.  1.
          4    1    3    3  501    0 -0.30758956559E+03  0.37494511103E+03  0.23922845342E+03  0.54076374700E+03  0.00000000000E+00 0.  1.
         13    1    4    4    0    0 -0.21428206127E+03  0.20740200666E+03  0.15748169083E+03  0.33724306999E+03  0.10566000000E+00 0. -1.
         -4    1    4    4    0  502  0.14374485253E+03 -0.61952273357E+03  0.47878424932E+02  0.63778001192E+03  0.00000000000E+00 0. -1.
<mgrwt>
<rscale>  2 0.10476423E+04</rscale>
<asrwt>0</asrwt>
<pdfrwt beam="1">  1       21 0.16244424E+00 0.10811769E+04</pdfrwt>
<pdfrwt beam="2">  1       21 0.15574715E+00 0.10811769E+04</pdfrwt>
<totfact> 0.32273958E+01</totfact>
</mgrwt>
</event>
<event>
 8    1  0.5815007E-006  0.1418052E+04  0.7818608E-02  0.8474921E-01
         21   -1    0    0  503  502  0.00000000000E+00  0.00000000000E+00  0.14685645009E+04  0.14685645009E+04  0.00000000000E+00 0. -1.
         21   -1    0    0  501  503 -0.00000000000E+00 -0.00000000000E+00 -0.12927435607E+04  0.12927435607E+04  0.00000000000E+00 0.  1.
    9000010    2    1    2  501    0 -0.94321934664E+03  0.25689798713E+03  0.26443908292E+03  0.13404899336E+04  0.87825162783E+03 0.  0.
   -9000010    2    1    2    0  502  0.94321934664E+03 -0.25689798713E+03 -0.88618142672E+02  0.14208181281E+04  0.10272349615E+04 0.  0.
        -13    1    3    3    0    0 -0.29400272045E+03 -0.30685862651E+03  0.22237046778E+03  0.47963366479E+03  0.10566000000E+00 0.  1.
          4    1    3    3  501    0 -0.64921662618E+03  0.56375661363E+03  0.42068615136E+02  0.86085626879E+03  0.00000000000E+00 0.  1.
         13    1    4    4    0    0  0.22697110107E+03 -0.54754045553E+03  0.15082847629E+03  0.61160908396E+03  0.10566000000E+00 0. -1.
         -4    1    4    4    0  502  0.71624824556E+03  0.29064246840E+03 -0.23944661896E+03  0.80920904409E+03  0.00000000000E+00 0. -1.
<mgrwt>
<rscale>  2 0.13913300E+04</rscale>
<asrwt>0</asrwt>
<pdfrwt beam="1">  1       21 0.22593300E+00 0.14180518E+04</pdfrwt>
<pdfrwt beam="2">  1       21 0.19888362E+00 0.14180518E+04</pdfrwt>
<totfact> 0.41522575E+00</totfact>
</mgrwt>
</event>
<event>
 8    1  0.5815007E-006  0.1111831E+04  0.7818608E-02  0.8687163E-01
         21   -1    0    0  503  502  0.00000000000E+00  0.00000000000E+00  0.14377919765E+04  0.14377919765E+04  0.00000000000E+00 0. -1.
         21   -1    0    0  501  503 -0.00000000000E+00 -0.00000000000E+00 -0.81991122985E+03  0.81991122985E+03  0.00000000000E+00 0. -1.
    9000010    2    1    2  501    0 -0.32824600862E+03  0.18016059600E+03  0.30425208141E+03  0.11527088450E+04  0.10468835034E+04 0.  0.
   -9000010    2    1    2    0  502  0.32824600862E+03 -0.18016059600E+03  0.31362866528E+03  0.11049943614E+04  0.99118429999E+03 0.  0.
        -13    1    3    3    0    0 -0.30653849440E+03  0.14086479510E+03  0.68804495086E+03  0.76629929180E+03  0.10566000000E+00 0.  1.
          4    1    3    3  501    0 -0.21707514216E+02  0.39295800900E+02 -0.38379286945E+03  0.38640955317E+03  0.00000000000E+00 0.  1.
         13    1    4    4    0    0 -0.22195692655E+02  0.35460073773E+03  0.30076929800E+03  0.46550672794E+03  0.10566000000E+00 0. -1.
         -4    1    4    4    0  502  0.35044170127E+03 -0.53476133373E+03  0.12859367278E+02  0.63948763348E+03  0.00000000000E+00 0. -1.
<mgrwt>
<rscale>  2 0.10985242E+04</rscale>
<asrwt>0</asrwt>
<pdfrwt beam="1">  1       21 0.22119877E+00 0.11118311E+04</pdfrwt>
<pdfrwt beam="2">  1       21 0.12614019E+00 0.11118311E+04</pdfrwt>
<totfact> 0.20463518E+01</totfact>
</mgrwt>
</event>
<event>
 8    1  0.5815007E-006  0.1074000E+04  0.7818608E-02  0.8720383E-01
         21   -1    0    0  501  502  0.00000000000E+00  0.00000000000E+00  0.97040656926E+03  0.97040656926E+03  0.00000000000E+00 0.  1.
         21   -1    0    0  502  503 -0.00000000000E+00 -0.00000000000E+00 -0.12200533619E+04  0.12200533619E+04  0.00000000000E+00 0.  1.
   -9000010    2    1    2    0  503 -0.45901825540E+02 -0.36614649840E+03 -0.42921283183E+03  0.11565893362E+04  0.10086153884E+04 0.  0.
    9000010    2    1    2  501    0  0.45901825540E+02  0.36614649840E+03  0.17956603919E+03  0.10338705950E+04  0.94893319517E+03 0.  0.
        -13    1    4    4    0    0  0.24804778966E+03 -0.19993835109E+03  0.28035514759E+03  0.42438434248E+03  0.10566000000E+00 0.  1.
          4    1    4    4  501    0 -0.20214596412E+03  0.56608484950E+03 -0.10078910840E+03  0.60948625252E+03  0.00000000000E+00 0.  1.
         13    1    3    3    0    0 -0.10414894567E+03 -0.62367447898E+03 -0.57527890615E+03  0.85484658836E+03  0.10566000000E+00 0. -1.
         -4    1    3    3    0  503  0.58247120130E+02  0.25752798058E+03  0.14606607432E+03  0.30174274780E+03  0.00000000000E+00 0. -1.
<mgrwt>
<rscale>  2 0.10597583E+04</rscale>
<asrwt>0</asrwt>
<pdfrwt beam="1">  1       21 0.14929332E+00 0.10739996E+04</pdfrwt>
<pdfrwt beam="2">  1       21 0.18770052E+00 0.10739996E+04</pdfrwt>
<totfact> 0.22776568E+01</totfact>
</mgrwt>
</event>
<event>
 8    1  0.5815007E-006  0.1056039E+04  0.7818608E-02  0.8723844E-01
         21   -1    0    0  503  502  0.00000000000E+00  0.00000000000E+00  0.10760670811E+04  0.10760670811E+04  0.00000000000E+00 0.  1.
         21   -1    0    0  501  503 -0.00000000000E+00 -0.00000000000E+00 -0.10384067866E+04  0.10384067866E+04  0.00000000000E+00 0.  1.
    9000010    2    1    2  501    0  0.22848447232E+03  0.23490544215E+03 -0.37017568630E+02  0.10557973464E+04  0.10029715925E+04 0.  0.
   -9000010    2    1    2    0  502 -0.22848447232E+03 -0.23490544215E+03  0.74677863168E+02  0.10586765214E+04  0.10039090959E+04 0.  0.
        -13    1    3    3    0    0  0.46540999968E+03 -0.24053950141E+03 -0.13464518630E+02  0.52406776658E+03  0.10566000000E+00 0.  1.
          4    1    3    3  501    0 -0.23692552736E+03  0.47544494356E+03 -0.23553050001E+02  0.53172957980E+03  0.00000000000E+00 0.  1.
         13    1    4    4    0    0 -0.37857061074E+03 -0.26026964886E+03 -0.36923101389E+03  0.58939591975E+03  0.10566000000E+00 0. -1.
         -4    1    4    4    0  502  0.15008613842E+03  0.25364206703E+02  0.44390887706E+03  0.46928060162E+03  0.00000000000E+00 0. -1.
<mgrwt>
<rscale>  2 0.10558165E+04</rscale>
<asrwt>0</asrwt>
<pdfrwt beam="1">  1       21 0.16554878E+00 0.10560394E+04</pdfrwt>
<pdfrwt beam="2">  1       21 0.15975489E+00 0.10560394E+04</pdfrwt>
<totfact> 0.28176433E+01</totfact>
</mgrwt>
</event>
<event>
 8    1  0.5815007E-006  0.1132070E+04  0.7818608E-02  0.8665948E-01
         21   -1    0    0  503  502  0.00000000000E+00  0.00000000000E+00  0.11085143876E+04  0.11085143876E+04  0.00000000000E+00 0. -1.
         21   -1    0    0  501  503 -0.00000000000E+00 -0.00000000000E+00 -0.20154962631E+04  0.20154962631E+04  0.00000000000E+00 0. -1.
    9000010    2    1    2  501    0  0.40778829927E+03  0.36383426651E+03 -0.14884670206E+04  0.18513332526E+04  0.95563281148E+03 0.  0.
   -9000010    2    1    2    0  502 -0.40778829927E+03 -0.36383426651E+03  0.58148514515E+03  0.12726773981E+04  0.99142126016E+03 0.  0.
        -13    1    3    3    0    0 -0.16674968506E+03 -0.22371295403E+03 -0.36809938799E+03  0.46189838046E+03  0.10566000000E+00 0.  1.
          4    1    3    3  501    0  0.57453798433E+03  0.58754722054E+03 -0.11203676326E+04  0.13894348722E+04  0.00000000000E+00 0.  1.
         13    1    4    4    0    0 -0.44986679035E+03  0.25119789808E+03  0.28056252488E+03  0.58668207284E+03  0.10566000000E+00 0. -1.
         -4    1    4    4    0  502  0.42078491080E+02 -0.61503216459E+03  0.30092262028E+03  0.68599532526E+03  0.00000000000E+00 0. -1.
<mgrwt>
<rscale>  2 0.11241865E+04</rscale>
<asrwt>0</asrwt>
<pdfrwt beam="1">  1       21 0.17054068E+00 0.11320701E+04</pdfrwt>
<pdfrwt beam="2">  1       21 0.31007634E+00 0.11320701E+04</pdfrwt>
<totfact> 0.18459610E+00</totfact>
</mgrwt>
</event>
<event>
 8    1  0.5815007E-006  0.1379799E+04  0.7818608E-02  0.8485230E-01
         21   -1    0    0  503  502  0.00000000000E+00  0.00000000000E+00  0.17332444352E+04  0.17332444352E+04  0.00000000000E+00 0. -1.
         21   -1    0    0  501  503 -0.00000000000E+00 -0.00000000000E+00 -0.11613419412E+04  0.11613419412E+04  0.00000000000E+00 0. -1.
    9000010    2    1    2  501    0  0.91995444611E+03  0.18137179178E+03 -0.86837725049E+02  0.13825288857E+04  0.10122417791E+04 0.  0.
   -9000010    2    1    2    0  502 -0.91995444611E+03 -0.18137179178E+03  0.65874021909E+03  0.15120574907E+04  0.98649240709E+03 0.  0.
        -13    1    3    3    0    0  0.75185002014E+03 -0.30895440146E+03 -0.23002336675E+03  0.84477336333E+03  0.10566000000E+00 0.  1.
          4    1    3    3  501    0  0.16810442597E+03  0.49032619325E+03  0.14318564170E+03  0.53775552234E+03  0.00000000000E+00 0.  1.
         13    1    4    4    0    0 -0.52140278801E+03 -0.49492457675E+03  0.51239677143E+02  0.72071958465E+03  0.10566000000E+00 0. -1.
         -4    1    4    4    0  502 -0.39855165810E+03  0.31355278497E+03  0.60750054195E+03  0.79133790608E+03  0.00000000000E+00 0. -1.
<mgrwt>
<rscale>  2 0.13750805E+04</rscale>
<asrwt>0</asrwt>
<pdfrwt beam="1">  1       21 0.26665299E+00 0.13797990E+04</pdfrwt>
<pdfrwt beam="2">  1       21 0.17866799E+00 0.13797990E+04</pdfrwt>
<totfact> 0.30555072E+00</totfact>
</mgrwt>
</event>
<event>
 8    1  0.5815007E-006  0.1789153E+04  0.7818608E-02  0.8263770E-01
         21   -1    0    0  501  502  0.00000000000E+00  0.00000000000E+00  0.14439763406E+04  0.14439763406E+04  0.00000000000E+00 0.  1.
         21   -1    0    0  502  503 -0.00000000000E+00 -0.00000000000E+00 -0.37043342747E+04  0.37043342747E+04  0.00000000000E+00 0. -1.
   -9000010    2    1    2    0  503  0.14318273792E+04 -0.21961247710E+03 -0.27764969484E+04  0.32861966730E+04  0.99588854036E+03 0.  0.
    9000010    2    1    2  501    0 -0.14318273792E+04  0.21961247710E+03  0.51613901443E+03  0.18621139424E+04  0.10500997897E+04 0.  0.
        -13    1    4    4    0    0 -0.17914974360E+02  0.11647893254E+03  0.42553570080E+03  0.44155286416E+03  0.10566000000E+00 0.  1.
          4    1    4    4  501    0 -0.14139124048E+04  0.10313354457E+03  0.90603313630E+02  0.14205610782E+04  0.00000000000E+00 0.  1.
         13    1    3    3    0    0  0.35252216621E+03 -0.35011169909E+03 -0.29703228357E+03  0.57885945458E+03  0.10566000000E+00 0. -1.
         -4    1    3    3    0  503  0.10793052129E+04  0.13049922199E+03 -0.24794646649E+04  0.27073372184E+04  0.00000000000E+00 0. -1.
<mgrwt>
<rscale>  2 0.17812839E+04</rscale>
<asrwt>0</asrwt>
<pdfrwt beam="1">  1       21 0.22215021E+00 0.17891531E+04</pdfrwt>
<pdfrwt beam="2">  1       21 0.56989757E+00 0.17891531E+04</pdfrwt>
<totfact> 0.94090656E-03</totfact>
</mgrwt>
</event>
<event>
 8    1  0.5815007E-006  0.1182000E+04  0.7818608E-02  0.8631587E-01
         21   -1    0    0  501  502  0.00000000000E+00  0.00000000000E+00  0.21630952756E+04  0.21630952756E+04  0.00000000000E+00 0.  1.
         21   -1    0    0  502  503 -0.00000000000E+00 -0.00000000000E+00 -0.90937603023E+03  0.90937603023E+03  0.00000000000E+00 0.  1.
   -9000010    2    1    2    0  503  0.12911754346E+03  0.48407989181E+03 -0.25792694572E+03  0.11535656765E+04  0.10065698083E+04 0.  0.
    9000010    2    1    2  501    0 -0.12911754346E+03 -0.48407989181E+03  0.15116461911E+04  0.19189056294E+04  0.10705699069E+04 0.  0.
        -13    1    4    4    0    0 -0.11497667036E+02  0.70222377674E+02 -0.14852743354E+03  0.16469301246E+03  0.10566000000E+00 0.  1.
          4    1    4    4  501    0 -0.11761987642E+03 -0.55430226949E+03  0.16601736247E+04  0.17542126169E+04  0.00000000000E+00 0.  1.
         13    1    3    3    0    0  0.37546158468E+03  0.10980969540E+03  0.25924294900E+03  0.46929360590E+03  0.10566000000E+00 0. -1.
         -4    1    3    3    0  503 -0.24634404122E+03  0.37427019642E+03 -0.51716989473E+03  0.68427207058E+03  0.00000000000E+00 0. -1.
<mgrwt>
<rscale>  2 0.11673192E+04</rscale>
<asrwt>0</asrwt>
<pdfrwt beam="1">  1       21 0.33278389E+00 0.11820003E+04</pdfrwt>
<pdfrwt beam="2">  1       21 0.13990401E+00 0.11820003E+04</pdfrwt>
<totfact> 0.23500674E+00</totfact>
</mgrwt>
</event>
<event>
 8    1  0.5815007E-006  0.1305641E+04  0.7818608E-02  0.8535775E-01
         21   -1    0    0  503  502  0.00000000000E+00  0.00000000000E+00  0.11864463808E+04  0.11864463808E+04  0.00000000000E+00 0.  1.
         21   -1    0    0  501  503 -0.00000000000E+00 -0.00000000000E+00 -0.14420290815E+04  0.14420290815E+04  0.00000000000E+00 0.  1.
    9000010    2    1    2  501    0 -0.79205239714E+03  0.27255994755E+03 -0.33580060460E+03  0.13481319305E+04  0.10015296956E+04 0.  0.
   -9000010    2    1    2    0  502  0.79205239714E+03 -0.27255994755E+03  0.80217903856E+02  0.12803435318E+04  0.96499156601E+03 0.  0.
        -13    1    3    3    0    0 -0.56907490522E+03  0.64891144412E+03 -0.27868979775E+03  0.90697316641E+03  0.10566000000E+00 0.  1.
          4    1    3    3  501    0 -0.22297749192E+03 -0.37635149657E+03 -0.57110806855E+02  0.44115876409E+03  0.00000000000E+00 0.  1.
         13    1    4    4    0    0  0.39613938078E+03 -0.18726528360E+03 -0.44006789227E+03  0.62101083438E+03  0.10566000000E+00 0. -1.
         -4    1    4    4    0  502  0.39591301636E+03 -0.85294663943E+02  0.52028579613E+03  0.65933269741E+03  0.00000000000E+00 0. -1.
<mgrwt>
<rscale>  2 0.12986313E+04</rscale>
<asrwt>0</asrwt>
<pdfrwt beam="1">  1       21 0.18253021E+00 0.13056407E+04</pdfrwt>
<pdfrwt beam="2">  1       21 0.22185063E+00 0.13056407E+04</pdfrwt>
<totfact> 0.61506771E+00</totfact>
</mgrwt>
</event>
<event>
 8    1  0.5815007E-006  0.1036129E+04  0.7818608E-02  0.8775542E-01
         21   -1    0    0  501  502  0.00000000000E+00  0.00000000000E+00  0.11918771742E+04  0.11918771742E+04  0.00000000000E+00 0. -1.
         21   -1    0    0  502  503 -0.00000000000E+00 -0.00000000000E+00 -0.83393936636E+03  0.83393936636E+03  0.00000000000E+00 0. -1.
   -9000010    2    1    2    0  503 -0.17181126537E+03 -0.11184450277E+03 -0.84152993261E+02  0.89931462575E+03  0.87158290833E+03 0.  0.
    9000010    2    1    2  501    0  0.17181126537E+03  0.11184450277E+03  0.44209080112E+03  0.11265019148E+04  0.10156446150E+04 0.  0.
        -13    1    4    4    0    0 -0.39730556793E+03  0.17339526747E+03  0.58493505982E+02  0.43742328984E+03  0.10566000000E+00 0.  1.
          4    1    4    4  501    0  0.56911683330E+03 -0.61550764700E+02  0.38359729513E+03  0.68907862498E+03  0.00000000000E+00 0.  1.
         13    1    3    3    0    0  0.13138322481E+03 -0.41507574792E+03  0.75268097626E+02  0.44183110569E+03  0.10566000000E+00 0. -1.
         -4    1    3    3    0  503 -0.30319449017E+03  0.30323124515E+03 -0.15942109089E+03  0.45748352006E+03  0.00000000000E+00 0. -1.
<mgrwt>
<rscale>  2 0.99898897E+03</rscale>
<asrwt>0</asrwt>
<pdfrwt beam="1">  1       21 0.18336572E+00 0.10361285E+04</pdfrwt>
<pdfrwt beam="2">  1       21 0.12829836E+00 0.10361285E+04</pdfrwt>
<totfact> 0.39040577E+01</totfact>
</mgrwt>
</event>
<event>
 8    1  0.5815007E-006  0.1040992E+04  0.7818608E-02  0.8743212E-01
         21   -1    0    0  501  502  0.00000000000E+00  0.00000000000E+00  0.15384154133E+04  0.15384154133E+04  0.00000000000E+00 0. -1.
         21   -1    0    0  502  503 -0.00000000000E+00 -0.00000000000E+00 -0.68607271573E+03  0.68607271573E+03  0.00000000000E+00 0. -1.
   -9000010    2    1    2    0  503  0.10068793381E+02 -0.24141452061E+03  0.44281356012E+03  0.11312593534E+04  0.10125618619E+04 0.  0.
    9000010    2    1    2  501    0 -0.10068793381E+02  0.24141452061E+03  0.40952913745E+03  0.10932287757E+04  0.98440473901E+03 0.  0.
        -13    1    4    4    0    0 -0.37952890360E+02  0.50377890773E+03  0.58759526940E+03  0.77492052595E+03  0.10566000000E+00 0.  1.
          4    1    4    4  501    0  0.27884096979E+02 -0.26236438712E+03 -0.17806613195E+03  0.31830824972E+03  0.00000000000E+00 0.  1.
         13    1    3    3    0    0  0.26468214109E+03 -0.56211613513E+03  0.34332860676E+03  0.70986317595E+03  0.10566000000E+00 0. -1.
         -4    1    3    3    0  503 -0.25461334771E+03  0.32070161452E+03  0.99484953361E+02  0.42139617741E+03  0.00000000000E+00 0. -1.
<mgrwt>
<rscale>  2 0.10340815E+04</rscale>
<asrwt>0</asrwt>
<pdfrwt beam="1">  1       21 0.23667929E+00 0.10409918E+04</pdfrwt>
<pdfrwt beam="2">  1       21 0.10554965E+00 0.10409918E+04</pdfrwt>
<totfact> 0.26054381E+01</totfact>
</mgrwt>
</event>
<event>
 8    1  0.5815007E-006  0.1081435E+04  0.7818608E-02  0.8733451E-01
         21   -1    0    0  501  502  0.00000000000E+00  0.00000000000E+00  0.65578512630E+03  0.65578512630E+03  0.00000000000E+00 0. -1.
         21   -1    0    0  502  503 -0.00000000000E+00 -0.00000000000E+00 -0.20620276744E+04  0.20620276744E+04  0.00000000000E+00 0. -1.
   -9000010    2    1    2    0  503  0.20555103723E+03  0.35515547671E+03 -0.13345965451E+04  0.16340073723E+04  0.84879061795E+03 0.  0.
    9000010    2    1    2  501    0 -0.20555103723E+03 -0.35515547671E+03 -0.71646003060E+02  0.10838054284E+04  0.10005570525E+04 0.  0.
        -13    1    4    4    0    0 -0.30977273504E+03 -0.26528905897E+03  0.41273921011E+03  0.58025089307E+03  0.10566000000E+00 0.  1.
          4    1    4    4  501    0  0.10422169780E+03 -0.89866417744E+02 -0.48438521317E+03  0.50355453535E+03  0.00000000000E+00 0.  1.
         13    1    3    3    0    0  0.14376246403E+03  0.15405316621E+03 -0.13983831097E+04  0.14141694936E+04  0.10566000000E+00 0. -1.
         -4    1    3    3    0  503  0.61788573204E+02  0.20110231051E+03  0.63786564639E+02  0.21983787867E+03  0.00000000000E+00 0. -1.
<mgrwt>
<rscale>  2 0.10449673E+04</rscale>
<asrwt>0</asrwt>
<pdfrwt beam="1">  1       21 0.10089002E+00 0.10814347E+04</pdfrwt>
<pdfrwt beam="2">  1       21 0.31723503E+00 0.10814347E+04</pdfrwt>
<totfact> 0.77135606E+00</totfact>
</mgrwt>
</event>
<event>
 8    1  0.5815007E-006  0.1233626E+04  0.7818608E-02  0.8584224E-01
         21   -1    0    0  503  502  0.00000000000E+00  0.00000000000E+00  0.52216679657E+03  0.52216679657E+03  0.00000000000E+00 0. -1.
         21   -1    0    0  501  503 -0.00000000000E+00 -0.00000000000E+00 -0.28857871792E+04  0.28857871792E+04  0.00000000000E+00 0. -1.
    9000010    2    1    2  501    0  0.70058299777E+03  0.15553559405E+03 -0.11229011339E+04  0.16681545244E+04  0.10034065492E+04 0.  0.
   -9000010    2    1    2    0  502 -0.70058299777E+03 -0.15553559405E+03 -0.12407192487E+04  0.17397994514E+04  0.98615922604E+03 0.  0.
        -13    1    3    3    0    0  0.80202426604E+03 -0.14159805814E+03 -0.46169993356E+03  0.93619430312E+03  0.10566000000E+00 0.  1.
          4    1    3    3  501    0 -0.10144126827E+03  0.29713365219E+03 -0.66120120036E+03  0.73196022128E+03  0.00000000000E+00 0.  1.
         13    1    4    4    0    0 -0.62449670070E+03  0.23741694114E+03 -0.33032141662E+03  0.74530207471E+03  0.10566000000E+00 0. -1.
         -4    1    4    4    0  502 -0.76086297067E+02 -0.39295253519E+03 -0.91039783208E+03  0.99449737666E+03  0.00000000000E+00 0. -1.
<mgrwt>
<rscale>  2 0.12301140E+04</rscale>
<asrwt>0</asrwt>
<pdfrwt beam="1">  1       21 0.80333353E-01 0.12336258E+04</pdfrwt>
<pdfrwt beam="2">  1       21 0.44396726E+00 0.12336258E+04</pdfrwt>
<totfact> 0.17456965E+00</totfact>
</mgrwt>
</event>
<event>
 8    1  0.5815007E-006  0.1102263E+04  0.7818608E-02  0.8691770E-01
         21   -1    0    0  503  502  0.00000000000E+00  0.00000000000E+00  0.72527384397E+03  0.72527384397E+03  0.00000000000E+00 0.  1.
         21   -1    0    0  501  503 -0.00000000000E+00 -0.00000000000E+00 -0.16579126183E+04  0.16579126183E+04  0.00000000000E+00 0.  1.
    9000010    2    1    2  501    0  0.32127675713E+03 -0.16529618637E+03 -0.65334862999E+03  0.12813465222E+04  0.10413658789E+04 0.  0.
   -9000010    2    1    2    0  502 -0.32127675713E+03  0.16529618637E+03 -0.27929014431E+03  0.11018399401E+04  0.10027495624E+04 0.  0.
        -13    1    3    3    0    0  0.45896969604E+03  0.70711327959E+02 -0.83344989914E+03  0.95409224886E+03  0.10566000000E+00 0.  1.
          4    1    3    3  501    0 -0.13769293891E+03 -0.23600751433E+03  0.18010126916E+03  0.32725427331E+03  0.00000000000E+00 0.  1.
         13    1    4    4    0    0 -0.29681762877E+03  0.54064586996E+03  0.26121503861E+02  0.61731758891E+03  0.10566000000E+00 0. -1.
         -4    1    4    4    0  502 -0.24459128360E+02 -0.37534968359E+03 -0.30541164817E+03  0.48452235116E+03  0.00000000000E+00 0. -1.
<mgrwt>
<rscale>  2 0.10930465E+04</rscale>
<asrwt>0</asrwt>
<pdfrwt beam="1">  1       21 0.11158059E+00 0.11022633E+04</pdfrwt>
<pdfrwt beam="2">  1       21 0.25506348E+00 0.11022633E+04</pdfrwt>
<totfact> 0.16245506E+01</totfact>
</mgrwt>
</event>
<event>
 8    1  0.5815007E-006  0.1135247E+04  0.7818608E-02  0.8675770E-01
         21   -1    0    0  503  502  0.00000000000E+00  0.00000000000E+00  0.18770153859E+04  0.18770153859E+04  0.00000000000E+00 0.  1.
         21   -1    0    0  501  503 -0.00000000000E+00 -0.00000000000E+00 -0.68176954183E+03  0.68176954183E+03  0.00000000000E+00 0.  1.
    9000010    2    1    2  501    0 -0.48650210474E+03 -0.20691698688E+03  0.91455722234E+03  0.13893530411E+04  0.90243449763E+03 0.  0.
   -9000010    2    1    2    0  502  0.48650210474E+03  0.20691698688E+03  0.28068862171E+03  0.11694318866E+04  0.10046322201E+04 0.  0.
        -13    1    3    3    0    0 -0.65654983147E+03 -0.24166493538E+03  0.97979611229E+03  0.12039352371E+04  0.10566000000E+00 0.  1.
          4    1    3    3  501    0  0.17004772674E+03  0.34747948509E+02 -0.65238889950E+02  0.18541780404E+03  0.00000000000E+00 0.  1.
         13    1    4    4    0    0  0.16941440389E+01 -0.37291731698E+03  0.15217795858E+03  0.40277579082E+03  0.10566000000E+00 0. -1.
         -4    1    4    4    0  502  0.48480796070E+03  0.57983430385E+03  0.12851066313E+03  0.76665609580E+03  0.00000000000E+00 0. -1.
<mgrwt>
<rscale>  2 0.11122162E+04</rscale>
<asrwt>0</asrwt>
<pdfrwt beam="1">  1       21 0.28877159E+00 0.11352466E+04</pdfrwt>
<pdfrwt beam="2">  1       21 0.10488762E+00 0.11352466E+04</pdfrwt>
<totfact> 0.10928941E+01</totfact>
</mgrwt>
</event>
<event>
 8    1  0.5815007E-006  0.1065384E+04  0.7818608E-02  0.8736509E-01
         21   -1    0    0  503  502  0.00000000000E+00  0.00000000000E+00  0.14305897088E+04  0.14305897088E+04  0.00000000000E+00 0.  1.
         21   -1    0    0  501  503 -0.00000000000E+00 -0.00000000000E+00 -0.86065157134E+03  0.86065157134E+03  0.00000000000E+00 0.  1.
    9000010    2    1    2  501    0  0.38299877281E+03  0.12896549261E+02  0.74821947866E+03  0.13018735292E+04  0.99407641397E+03 0.  0.
   -9000010    2    1    2    0  502 -0.38299877281E+03 -0.12896549261E+02 -0.17828134116E+03  0.98936775098E+03  0.89454453724E+03 0.  0.
        -13    1    3    3    0    0  0.11375094113E+03  0.27480606798E+03  0.85999711662E+03  0.90997401247E+03  0.10566000000E+00 0.  1.
          4    1    3    3  501    0  0.26924783167E+03 -0.26190951872E+03 -0.11177763796E+03  0.39189951672E+03  0.00000000000E+00 0.  1.
         13    1    4    4    0    0 -0.59103731227E+03  0.21046640334E+03 -0.25074716254E+03  0.67564440508E+03  0.10566000000E+00 0. -1.
         -4    1    4    4    0  502  0.20803853946E+03 -0.22336295260E+03  0.72465821372E+02  0.31372334590E+03  0.00000000000E+00 0. -1.
<mgrwt>
<rscale>  2 0.10415424E+04</rscale>
<asrwt>0</asrwt>
<pdfrwt beam="1">  1       21 0.22009072E+00 0.10653836E+04</pdfrwt>
<pdfrwt beam="2">  1       21 0.13240793E+00 0.10653836E+04</pdfrwt>
<totfact> 0.18323760E+01</totfact>
</mgrwt>
</event>
<event>
 8    1  0.5815007E-006  0.1176698E+04  0.7818608E-02  0.8645780E-01
         21   -1    0    0  503  502  0.00000000000E+00  0.00000000000E+00  0.26228118263E+04  0.26228118263E+04  0.00000000000E+00 0.  1.
         21   -1    0    0  501  503 -0.00000000000E+00 -0.00000000000E+00 -0.48461425861E+03  0.48461425861E+03  0.00000000000E+00 0.  1.
    9000010    2    1    2  501    0 -0.33094677629E+03 -0.19884756458E+03  0.99367412733E+03  0.15401316841E+04  0.11115535122E+04 0.  0.
   -9000010    2    1    2    0  502  0.33094677629E+03  0.19884756458E+03  0.11445234404E+04  0.15672944008E+04  0.99870501676E+03 0.  0.
        -13    1    3    3    0    0 -0.58801976223E+03 -0.85136503718E+02  0.10913033060E+04  0.12425612186E+04  0.10566000000E+00 0.  1.
          4    1    3    3  501    0  0.25707298594E+03 -0.11371106086E+03 -0.97629178658E+02  0.29757046558E+03  0.00000000000E+00 0.  1.
         13    1    4    4    0    0 -0.47990316129E+01  0.48745959154E+02  0.11950633051E+04  0.11960666844E+04  0.10566000000E+00 0. -1.
         -4    1    4    4    0  502  0.33574580790E+03  0.15010160542E+03 -0.50539864718E+02  0.37122771637E+03  0.00000000000E+00 0. -1.
<mgrwt>
<rscale>  2 0.11492629E+04</rscale>
<asrwt>0</asrwt>
<pdfrwt beam="1">  1       21 0.40350950E+00 0.11766976E+04</pdfrwt>
<pdfrwt beam="2">  1       21 0.74556041E-01 0.11766976E+04</pdfrwt>
<totfact> 0.40256842E+00</totfact>
</mgrwt>
</event>
<event>
 8    1  0.5815007E-006  0.1271752E+04  0.7818608E-02  0.8556755E-01
         21   -1    0    0  503  502  0.00000000000E+00  0.00000000000E+00  0.22117514208E+04  0.22117514208E+04  0.00000000000E+00 0. -1.
         21   -1    0    0  501  503 -0.00000000000E+00 -0.00000000000E+00 -0.79605884526E+03  0.79605884526E+03  0.00000000000E+00 0.  1.
    9000010    2    1    2  501    0 -0.43769615817E+03 -0.63485006145E+03  0.25756703213E+03  0.12975724332E+04  0.10113065391E+04 0.  0.
   -9000010    2    1    2    0  502  0.43769615817E+03  0.63485006145E+03  0.11581255434E+04  0.17102378328E+04  0.99450799048E+03 0.  0.
        -13    1    3    3    0    0 -0.27257469163E+03 -0.41551543541E+03 -0.36538189781E+03  0.61680951840E+03  0.10566000000E+00 0.  1.
          4    1    3    3  501    0 -0.16512146654E+03 -0.21933462604E+03  0.62294892994E+03  0.68076291483E+03  0.00000000000E+00 0.  1.
         13    1    4    4    0    0 -0.12289792840E+03  0.62614016533E+03  0.87273300146E+03  0.10811190085E+04  0.10566000000E+00 0. -1.
         -4    1    4    4    0  502  0.56059408656E+03  0.87098961261E+01  0.28539254195E+03  0.62911882437E+03  0.00000000000E+00 0. -1.
<mgrwt>
<rscale>  2 0.12684097E+04</rscale>
<asrwt>0</asrwt>
<pdfrwt beam="1">  1       21 0.34026945E+00 0.12717521E+04</pdfrwt>
<pdfrwt beam="2">  1       21 0.12247059E+00 0.12717521E+04</pdfrwt>
<totfact> 0.30102149E+00</totfact>
</mgrwt>
</event>
<event>
 8    1  0.5815007E-006  0.1097052E+04  0.7818608E-02  0.8692869E-01
         21   -1    0    0  501  502  0.00000000000E+00  0.00000000000E+00  0.19097289533E+04  0.19097289533E+04  0.00000000000E+00 0. -1.
         21   -1    0    0  502  503 -0.00000000000E+00 -0.00000000000E+00 -0.62937050209E+03  0.62937050209E+03  0.00000000000E+00 0. -1.
   -9000010    2    1    2    0  503  0.10078536789E+03 -0.39698580993E+03  0.80354570052E+03  0.13429080208E+04  0.99496775624E+03 0.  0.
    9000010    2    1    2  501    0 -0.10078536789E+03  0.39698580993E+03  0.47681275067E+03  0.11961914345E+04  0.10177269404E+04 0.  0.
        -13    1    4    4    0    0 -0.32781461054E+03  0.50052117513E+03  0.65684696905E+03  0.88849975664E+03  0.10566000000E+00 0.  1.
          4    1    4    4  501    0  0.22702924265E+03 -0.10353536520E+03 -0.18003421837E+03  0.30769167790E+03  0.00000000000E+00 0.  1.
         13    1    3    3    0    0  0.53587841826E+03 -0.13778335474E+03  0.53502230321E+03  0.76967448191E+03  0.10566000000E+00 0. -1.
         -4    1    3    3    0  503 -0.43509305037E+03 -0.25920245519E+03  0.26852339731E+03  0.57323353894E+03  0.00000000000E+00 0. -1.
<mgrwt>
<rscale>  2 0.10917438E+04</rscale>
<asrwt>0</asrwt>
<pdfrwt beam="1">  1       21 0.29380445E+00 0.10970522E+04</pdfrwt>
<pdfrwt beam="2">  1       21 0.96826232E-01 0.10970522E+04</pdfrwt>
<totfact> 0.12523507E+01</totfact>
</mgrwt>
</event>
<event>
 8    1  0.5815007E-006  0.1301016E+04  0.7818608E-02  0.8535565E-01
         21   -1    0    0  503  502  0.00000000000E+00  0.00000000000E+00  0.17101892262E+04  0.17101892262E+04  0.00000000000E+00 0.  1.
         21   -1    0    0  501  503 -0.00000000000E+00 -0.00000000000E+00 -0.12521488951E+04  0.12521488951E+04  0.00000000000E+00 0. -1.
    9000010    2    1    2  501    0  0.48782118139E+03  0.64131055802E+03 -0.45769691990E+03  0.13713578708E+04  0.10108843666E+04 0.  0.
   -9000010    2    1    2    0  502 -0.48782118139E+03 -0.64131055802E+03  0.91573725103E+03  0.15909802504E+04  0.10214669390E+04 0.  0.
        -13    1    3    3    0    0 -0.30821497512E+03  0.15468538316E+03 -0.21829737638E+03  0.40813943003E+03  0.10566000000E+00 0.  1.
          4    1    3    3  501    0  0.79603615650E+03  0.48662517485E+03 -0.23939954352E+03  0.96321844080E+03  0.00000000000E+00 0.  1.
         13    1    4    4    0    0  0.19273911903E+02  0.20815399503E+03 -0.42901508501E+02  0.21340131191E+03  0.10566000000E+00 0. -1.
         -4    1    4    4    0  502 -0.50709509329E+03 -0.84946455305E+03  0.95863875953E+03  0.13775789385E+04  0.00000000000E+00 0. -1.
<mgrwt>
<rscale>  2 0.12989383E+04</rscale>
<asrwt>0</asrwt>
<pdfrwt beam="1">  1       21 0.26310603E+00 0.13010163E+04</pdfrwt>
<pdfrwt beam="2">  1       21 0.19263829E+00 0.13010163E+04</pdfrwt>
<totfact> 0.25369568E+00</totfact>
</mgrwt>
</event>
<event>
 8    1  0.5815007E-006  0.1384646E+04  0.7818608E-02  0.8494578E-01
         21   -1    0    0  503  502  0.00000000000E+00  0.00000000000E+00  0.43953508747E+04  0.43953508747E+04  0.00000000000E+00 0.  1.
         21   -1    0    0  501  503 -0.00000000000E+00 -0.00000000000E+00 -0.42523592909E+03  0.42523592909E+03  0.00000000000E+00 0.  1.
    9000010    2    1    2  501    0  0.80399453512E+02  0.95164003628E+03  0.15544338924E+04  0.20817083892E+04  0.10025778079E+04 0.  0.
   -9000010    2    1    2    0  502 -0.80399453512E+02 -0.95164003628E+03  0.24156810532E+04  0.27388784147E+04  0.86824949678E+03 0.  0.
        -13    1    3    3    0    0 -0.38723284704E+03  0.25069661775E+03  0.23899136217E+03  0.51953340059E+03  0.10566000000E+00 0.  1.
          4    1    3    3  501    0  0.46763230055E+03  0.70094341853E+03  0.13154425302E+04  0.15621749886E+04  0.00000000000E+00 0.  1.
         13    1    4    4    0    0  0.28393496403E+03 -0.77270453295E+03  0.19752554313E+04  0.21399358376E+04  0.10566000000E+00 0. -1.
         -4    1    4    4    0  502 -0.36433441755E+03 -0.17893550332E+03  0.44042562190E+03  0.59894257703E+03  0.00000000000E+00 0. -1.
<mgrwt>
<rscale>  2 0.13605407E+04</rscale>
<asrwt>0</asrwt>
<pdfrwt beam="1">  1       21 0.67620780E+00 0.13846462E+04</pdfrwt>
<pdfrwt beam="2">  1       21 0.65420915E-01 0.13846462E+04</pdfrwt>
<totfact> 0.50970838E-02</totfact>
</mgrwt>
</event>
<event>
 8    1  0.5815007E-006  0.1185120E+04  0.7818608E-02  0.8638967E-01
         21   -1    0    0  503  502  0.00000000000E+00  0.00000000000E+00  0.76569332127E+03  0.76569332127E+03  0.00000000000E+00 0. -1.
         21   -1    0    0  501  503 -0.00000000000E+00 -0.00000000000E+00 -0.16862425672E+04  0.16862425672E+04  0.00000000000E+00 0.  1.
    9000010    2    1    2  501    0  0.55091479695E+03 -0.41434917950E+03 -0.58135435165E+03  0.13200314613E+04  0.96401131764E+03 0.  0.
   -9000010    2    1    2    0  502 -0.55091479695E+03  0.41434917950E+03 -0.33919489425E+03  0.11319044272E+04  0.83124130065E+03 0.  0.
        -13    1    3    3    0    0  0.82201205967E+03 -0.27554881197E+03 -0.51476536908E+03  0.10082729642E+04  0.10566000000E+00 0.  1.
          4    1    3    3  501    0 -0.27109726273E+03 -0.13880036753E+03 -0.66588982564E+02  0.31175849705E+03  0.00000000000E+00 0.  1.
         13    1    4    4    0    0  0.10676757498E+03  0.13077285500E+03  0.18039412978E+03  0.24706862993E+03  0.10566000000E+00 0. -1.
         -4    1    4    4    0  502 -0.65768237193E+03  0.28357632450E+03 -0.51958902403E+03  0.88483579723E+03  0.00000000000E+00 0. -1.
<mgrwt>
<rscale>  2 0.11578874E+04</rscale>
<asrwt>0</asrwt>
<pdfrwt beam="1">  1       21 0.11779897E+00 0.11851203E+04</pdfrwt>
<pdfrwt beam="2">  1       21 0.25942193E+00 0.11851203E+04</pdfrwt>
<totfact> 0.12787549E+01</totfact>
</mgrwt>
</event>
<event>
 8    1  0.5815007E-006  0.1124165E+04  0.7818608E-02  0.8667367E-01
         21   -1    0    0  501  502  0.00000000000E+00  0.00000000000E+00  0.16772720478E+04  0.16772720478E+04  0.00000000000E+00 0.  1.
         21   -1    0    0  502  503 -0.00000000000E+00 -0.00000000000E+00 -0.75330429753E+03  0.75330429753E+03  0.00000000000E+00 0.  1.
   -9000010    2    1    2    0  503 -0.45317821732E+03  0.24403690550E+03  0.36732298652E+03  0.11761437449E+04  0.99169724431E+03 0.  0.
    9000010    2    1    2  501    0  0.45317821732E+03 -0.24403690550E+03  0.55664476374E+03  0.12544326004E+04  0.99941145083E+03 0.  0.
        -13    1    4    4    0    0 -0.32136477119E+03 -0.49207118839E+02  0.17598553320E+03  0.36968577977E+03  0.10566000000E+00 0.  1.
          4    1    4    4  501    0  0.77454298851E+03 -0.19482978666E+03  0.38065923054E+03  0.88474682063E+03  0.00000000000E+00 0.  1.
         13    1    3    3    0    0 -0.53445960615E+03  0.10287832338E+03  0.65129393329E+03  0.84877253651E+03  0.10566000000E+00 0. -1.
         -4    1    3    3    0  503  0.81281388830E+02  0.14115858212E+03 -0.28397094677E+03  0.32737120840E+03  0.00000000000E+00 0. -1.
<mgrwt>
<rscale>  2 0.11224483E+04</rscale>
<asrwt>0</asrwt>
<pdfrwt beam="1">  1       21 0.25804185E+00 0.11241654E+04</pdfrwt>
<pdfrwt beam="2">  1       21 0.11589297E+00 0.11241654E+04</pdfrwt>
<totfact> 0.13863597E+01</totfact>
</mgrwt>
</event>
<event>
 8    1  0.5815007E-006  0.1028700E+04  0.7818608E-02  0.8750703E-01
         21   -1    0    0  503  502  0.00000000000E+00  0.00000000000E+00  0.15751673401E+04  0.15751673401E+04  0.00000000000E+00 0.  1.
         21   -1    0    0  501  503 -0.00000000000E+00 -0.00000000000E+00 -0.83620664449E+03  0.83620664449E+03  0.00000000000E+00 0.  1.
    9000010    2    1    2  501    0 -0.24982821809E+03 -0.85780300691E+01 -0.17546254500E+03  0.10435564476E+04  0.99786533831E+03 0.  0.
   -9000010    2    1    2    0  502  0.24982821809E+03  0.85780300691E+01  0.91442324057E+03  0.13678175370E+04  0.98603612024E+03 0.  0.
        -13    1    3    3    0    0  0.37267084744E+03 -0.10664532183E+03 -0.14086341225E+03  0.41243096061E+03  0.10566000000E+00 0.  1.
          4    1    3    3  501    0 -0.62249906553E+03  0.98067291766E+02 -0.34599132746E+02  0.63112548695E+03  0.00000000000E+00 0.  1.
         13    1    4    4    0    0  0.58131857482E+03 -0.68853481808E+02  0.28237899856E+03  0.64993076353E+03  0.10566000000E+00 0. -1.
         -4    1    4    4    0  502 -0.33149035673E+03  0.77431511877E+02  0.63204424201E+03  0.71788677345E+03  0.00000000000E+00 0. -1.
<mgrwt>
<rscale>  2 0.10258199E+04</rscale>
<asrwt>0</asrwt>
<pdfrwt beam="1">  1       21 0.24233344E+00 0.10286996E+04</pdfrwt>
<pdfrwt beam="2">  1       21 0.12864718E+00 0.10286996E+04</pdfrwt>
<totfact> 0.13730638E+01</totfact>
</mgrwt>
</event>
<event>
 8    1  0.5815007E-006  0.1143103E+04  0.7818608E-02  0.8657633E-01
         21   -1    0    0  501  502  0.00000000000E+00  0.00000000000E+00  0.34948645970E+04  0.34948645970E+04  0.00000000000E+00 0. -1.
         21   -1    0    0  502  503 -0.00000000000E+00 -0.00000000000E+00 -0.70119496586E+03  0.70119496586E+03  0.00000000000E+00 0. -1.
   -9000010    2    1    2    0  503 -0.28498093291E+03  0.45585506243E+03 -0.71617421381E+02  0.11111681957E+04  0.96981840264E+03 0.  0.
    9000010    2    1    2  501    0  0.28498093291E+03 -0.45585506243E+03  0.28652870525E+04  0.30848913672E+04  0.10087947679E+04 0.  0.
        -13    1    4    4    0    0  0.11428837817E+03 -0.57524859305E+03  0.28083612377E+04  0.28689485233E+04  0.10566000000E+00 0.  1.
          4    1    4    4  501    0  0.17069255474E+03  0.11939353062E+03  0.56925814875E+02  0.21594284382E+03  0.00000000000E+00 0.  1.
         13    1    3    3    0    0 -0.56591049911E+03  0.58467815145E+02 -0.20800944691E+03  0.60575665046E+03  0.10566000000E+00 0. -1.
         -4    1    3    3    0  503  0.28092956620E+03  0.39738724728E+03  0.13639202553E+03  0.50541154527E+03  0.00000000000E+00 0. -1.
<mgrwt>
<rscale>  2 0.11344439E+04</rscale>
<asrwt>0</asrwt>
<pdfrwt beam="1">  1       21 0.53767147E+00 0.11431032E+04</pdfrwt>
<pdfrwt beam="2">  1       21 0.10787615E+00 0.11431032E+04</pdfrwt>
<totfact> 0.18355606E-01</totfact>
</mgrwt>
</event>
<event>
 8    1  0.5815007E-006  0.1219128E+04  0.7818608E-02  0.8593375E-01
         21   -1    0    0  501  502  0.00000000000E+00  0.00000000000E+00  0.73718459024E+03  0.73718459024E+03  0.00000000000E+00 0.  1.
         21   -1    0    0  502  503 -0.00000000000E+00 -0.00000000000E+00 -0.20480509849E+04  0.20480509849E+04  0.00000000000E+00 0.  1.
   -9000010    2    1    2    0  503  0.67616461996E+03 -0.44546241802E+00 -0.85527843414E+03  0.14892192843E+04  0.10144328885E+04 0.  0.
    9000010    2    1    2  501    0 -0.67616461996E+03  0.44546241802E+00 -0.45558796054E+03  0.12960162908E+04  0.10074219794E+04 0.  0.
        -13    1    4    4    0    0 -0.81828396589E+03 -0.14067575447E+03 -0.35988010895E+02  0.83106766561E+03  0.10566000000E+00 0.  1.
          4    1    4    4  501    0  0.14211934593E+03  0.14112121688E+03 -0.41959994965E+03  0.46494862521E+03  0.00000000000E+00 0.  1.
         13    1    3    3    0    0  0.39454181870E+03  0.13897658141E+03 -0.10425960954E+04  0.11233807753E+04  0.10566000000E+00 0. -1.
         -4    1    3    3    0  503  0.28162280125E+03 -0.13942204383E+03  0.18731766128E+03  0.36583850907E+03  0.00000000000E+00 0. -1.
<mgrwt>
<rscale>  2 0.12176684E+04</rscale>
<asrwt>0</asrwt>
<pdfrwt beam="1">  1       21 0.11341301E+00 0.12191279E+04</pdfrwt>
<pdfrwt beam="2">  1       21 0.31508477E+00 0.12191279E+04</pdfrwt>
<totfact> 0.56642065E+00</totfact>
</mgrwt>
</event>
<event>
 8    1  0.5815007E-006  0.1070382E+04  0.7818608E-02  0.8716539E-01
         21   -1    0    0  501  502  0.00000000000E+00  0.00000000000E+00  0.24837605340E+04  0.24837605340E+04  0.00000000000E+00 0.  1.
         21   -1    0    0  502  503 -0.00000000000E+00 -0.00000000000E+00 -0.46356712523E+03  0.46356712523E+03  0.00000000000E+00 0.  1.
   -9000010    2    1    2    0  503 -0.30012768389E+03  0.89828662723E+02  0.12669745579E+04  0.16585964508E+04  0.10235095706E+04 0.  0.
    9000010    2    1    2  501    0  0.30012768389E+03 -0.89828662723E+02  0.75321885093E+03  0.12887312084E+04  0.99766912093E+03 0.  0.
        -13    1    4    4    0    0 -0.18425325492E+03 -0.26131663360E+03 -0.61406854495E+02  0.32558632939E+03  0.10566000000E+00 0.  1.
          4    1    4    4  501    0  0.48438093881E+03  0.17148797088E+03  0.81462570542E+03  0.96314487902E+03  0.00000000000E+00 0.  1.
         13    1    3    3    0    0  0.58961186406E+02 -0.38945567154E+03  0.82524725060E+03  0.91443161439E+03  0.10566000000E+00 0. -1.
         -4    1    3    3    0  503 -0.35908887030E+03  0.47928433426E+03  0.44172730727E+03  0.74416483646E+03  0.00000000000E+00 0. -1.
<mgrwt>
<rscale>  2 0.10641575E+04</rscale>
<asrwt>0</asrwt>
<pdfrwt beam="1">  1       21 0.38211700E+00 0.10703820E+04</pdfrwt>
<pdfrwt beam="2">  1       21 0.71318021E-01 0.10703820E+04</pdfrwt>
<totfact> 0.64488714E+00</totfact>
</mgrwt>
</event>
<event>
 8    1  0.5815007E-006  0.1677212E+04  0.7818608E-02  0.8340816E-01
         21   -1    0    0  501  502  0.00000000000E+00  0.00000000000E+00  0.20892243552E+04  0.20892243552E+04  0.00000000000E+00 0.  1.
         21   -1    0    0  502  503 -0.00000000000E+00 -0.00000000000E+00 -0.13612002286E+04  0.13612002286E+04  0.00000000000E+00 0.  1.
   -9000010    2    1    2    0  503  0.10660269242E+04 -0.48344021769E+02  0.99105683417E+03  0.19481360295E+04  0.12939435047E+04 0.  0.
    9000010    2    1    2  501    0 -0.10660269242E+04  0.48344021769E+02 -0.26303270761E+03  0.15022885543E+04  0.10241748618E+04 0.  0.
        -13    1    4    4    0    0 -0.10952071992E+04 -0.16191448215E+03  0.67827876908E+02  0.11091869729E+04  0.10566000000E+00 0.  1.
          4    1    4    4  501    0  0.29180275061E+02  0.21025850392E+03 -0.33086058452E+03  0.39310158141E+03  0.00000000000E+00 0.  1.
         13    1    3    3    0    0  0.45230035349E+03 -0.14448030186E+03 -0.26723566980E+03  0.54485326628E+03  0.10566000000E+00 0. -1.
         -4    1    3    3    0  503  0.61372657068E+03  0.96136280095E+02  0.12582925040E+04  0.14032827632E+04  0.00000000000E+00 0. -1.
<mgrwt>
<rscale>  2 0.16253207E+04</rscale>
<asrwt>0</asrwt>
<pdfrwt beam="1">  1       21 0.32141913E+00 0.16772121E+04</pdfrwt>
<pdfrwt beam="2">  1       21 0.20941542E+00 0.16772121E+04</pdfrwt>
<totfact> 0.67367923E-01</totfact>
</mgrwt>
</event>
<event>
 8    1  0.5815007E-006  0.1196985E+04  0.7818608E-02  0.8610739E-01
         21   -1    0    0  503  502  0.00000000000E+00  0.00000000000E+00  0.11693333151E+04  0.11693333151E+04  0.00000000000E+00 0. -1.
         21   -1    0    0  501  503 -0.00000000000E+00 -0.00000000000E+00 -0.12151206480E+04  0.12151206480E+04  0.00000000000E+00 0. -1.
    9000010    2    1    2  501    0 -0.23019968617E+03 -0.60674879057E+03 -0.32627563861E+02  0.11974293071E+04  0.10058013707E+04 0.  0.
   -9000010    2    1    2    0  502  0.23019968617E+03  0.60674879057E+03 -0.13159769055E+02  0.11870246560E+04  0.99384021048E+03 0.  0.
        -13    1    3    3    0    0 -0.62630797528E+03 -0.29233612262E+03 -0.11753547728E+02  0.69127436343E+03  0.10566000000E+00 0.  1.
          4    1    3    3  501    0  0.39610828911E+03 -0.31441266795E+03 -0.20874016133E+02  0.50615494368E+03  0.00000000000E+00 0.  1.
         13    1    4    4    0    0 -0.11523000655E+03  0.72284335172E+02 -0.41343054534E+03  0.43523304850E+03  0.10566000000E+00 0. -1.
         -4    1    4    4    0  502  0.34542969272E+03  0.53446445540E+03  0.40027077629E+03  0.75179160746E+03  0.00000000000E+00 0. -1.
<mgrwt>
<rscale>  2 0.11944685E+04</rscale>
<asrwt>0</asrwt>
<pdfrwt beam="1">  1       21 0.17989743E+00 0.11969847E+04</pdfrwt>
<pdfrwt beam="2">  1       21 0.18694164E+00 0.11969847E+04</pdfrwt>
<totfact> 0.12332017E+01</totfact>
</mgrwt>
</event>
<event>
 8    1  0.5815007E-006  0.1021566E+04  0.7818608E-02  0.8766162E-01
         21   -1    0    0  501  502  0.00000000000E+00  0.00000000000E+00  0.11738874588E+04  0.11738874588E+04  0.00000000000E+00 0.  1.
         21   -1    0    0  502  503 -0.00000000000E+00 -0.00000000000E+00 -0.85059295762E+03  0.85059295762E+03  0.00000000000E+00 0.  1.
   -9000010    2    1    2    0  503 -0.23391690173E+03 -0.23964085386E+02  0.23448068653E+03  0.10481311093E+04  0.99413592415E+03 0.  0.
    9000010    2    1    2  501    0  0.23391690173E+03  0.23964085386E+02  0.88813814625E+02  0.97634930706E+03  0.94343981336E+03 0.  0.
        -13    1    4    4    0    0 -0.25208548690E+03  0.31537109044E+02  0.34378752688E+03  0.42747111804E+03  0.10566000000E+00 0.  1.
          4    1    4    4  501    0  0.48600238864E+03 -0.75730236582E+01 -0.25497371226E+03  0.54887818903E+03  0.00000000000E+00 0.  1.
         13    1    3    3    0    0 -0.31941419001E+03  0.29748671347E+03  0.46934513087E+03  0.64094354861E+03  0.10566000000E+00 0. -1.
         -4    1    3    3    0  503  0.85497288276E+02 -0.32145079885E+03 -0.23486444435E+03  0.40718756072E+03  0.00000000000E+00 0. -1.
<mgrwt>
<rscale>  2 0.10090208E+04</rscale>
<asrwt>0</asrwt>
<pdfrwt beam="1">  1       21 0.18059807E+00 0.10215663E+04</pdfrwt>
<pdfrwt beam="2">  1       21 0.13086046E+00 0.10215663E+04</pdfrwt>
<totfact> 0.38961734E+01</totfact>
</mgrwt>
</event>
<event>
 8    1  0.5815007E-006  0.1262648E+04  0.7818608E-02  0.8562358E-01
         21   -1    0    0  503  502  0.00000000000E+00  0.00000000000E+00  0.68718931600E+03  0.68718931600E+03  0.00000000000E+00 0.  1.
         21   -1    0    0  501  503 -0.00000000000E+00 -0.00000000000E+00 -0.23746743747E+04  0.23746743747E+04  0.00000000000E+00 0.  1.
    9000010    2    1    2  501    0 -0.75261725866E+03  0.11771738704E+03 -0.11103668091E+04  0.16814262009E+04  0.10069704549E+04 0.  0.
   -9000010    2    1    2    0  502  0.75261725866E+03 -0.11771738704E+03 -0.57711824954E+03  0.13804374898E+04  0.99611850098E+03 0.  0.
        -13    1    3    3    0    0 -0.17431322238E+03  0.44606818608E+03 -0.83304930393E+03  0.96090222191E+03  0.10566000000E+00 0.  1.
          4    1    3    3  501    0 -0.57830403628E+03 -0.32835079903E+03 -0.27731750521E+03  0.72052397899E+03  0.00000000000E+00 0.  1.
         13    1    4    4    0    0  0.48081414250E+03  0.27112390593E+03  0.92607079521E+02  0.55970214787E+03  0.10566000000E+00 0. -1.
         -4    1    4    4    0  502  0.27180311616E+03 -0.38884129297E+03 -0.66972532906E+03  0.82073534191E+03  0.00000000000E+00 0. -1.
<mgrwt>
<rscale>  2 0.12604829E+04</rscale>
<asrwt>0</asrwt>
<pdfrwt beam="1">  1       21 0.10572143E+00 0.12626479E+04</pdfrwt>
<pdfrwt beam="2">  1       21 0.36533451E+00 0.12626479E+04</pdfrwt>
<totfact> 0.30152858E+00</totfact>
</mgrwt>
</event>
<event>
 8    1  0.5815007E-006  0.1082831E+04  0.7818608E-02  0.8716646E-01
         21   -1    0    0  501  502  0.00000000000E+00  0.00000000000E+00  0.14853548204E+04  0.14853548204E+04  0.00000000000E+00 0. -1.
         21   -1    0    0  502  503 -0.00000000000E+00 -0.00000000000E+00 -0.73839133208E+03  0.73839133208E+03  0.00000000000E+00 0. -1.
   -9000010    2    1    2    0  503 -0.21177827426E+03  0.13120869553E+03  0.31037804425E+03  0.10562145591E+04  0.97836031460E+03 0.  0.
    9000010    2    1    2  501    0  0.21177827426E+03 -0.13120869553E+03  0.43658544410E+03  0.11675315935E+04  0.10537824313E+04 0.  0.
        -13    1    4    4    0    0 -0.31179448208E+03 -0.20958341336E+03  0.50960014506E+03  0.63311399070E+03  0.10566000000E+00 0.  1.
          4    1    4    4  501    0  0.52357275634E+03  0.78374717835E+02 -0.73014700965E+02  0.53441760275E+03  0.00000000000E+00 0.  1.
         13    1    3    3    0    0  0.46456708035E+02 -0.28711983734E+03  0.45832288930E+03  0.54282217046E+03  0.10566000000E+00 0. -1.
         -4    1    3    3    0  503 -0.25823498229E+03  0.41832853287E+03 -0.14794484505E+03  0.51339238860E+03  0.00000000000E+00 0. -1.
<mgrwt>
<rscale>  2 0.10640349E+04</rscale>
<asrwt>0</asrwt>
<pdfrwt beam="1">  1       21 0.22851613E+00 0.10828311E+04</pdfrwt>
<pdfrwt beam="2">  1       21 0.11359867E+00 0.10828311E+04</pdfrwt>
<totfact> 0.24327032E+01</totfact>
</mgrwt>
</event>
<event>
 8    1  0.5815007E-006  0.1044540E+04  0.7818608E-02  0.8746072E-01
         21   -1    0    0  503  502  0.00000000000E+00  0.00000000000E+00  0.62522512187E+03  0.62522512187E+03  0.00000000000E+00 0.  1.
         21   -1    0    0  501  503 -0.00000000000E+00 -0.00000000000E+00 -0.16630672273E+04  0.16630672273E+04  0.00000000000E+00 0.  1.
    9000010    2    1    2  501    0 -0.49449779293E+02  0.29191180760E+03 -0.57471444385E+03  0.11456854168E+04  0.94585442760E+03 0.  0.
   -9000010    2    1    2    0  502  0.49449779293E+02 -0.29191180760E+03 -0.46312766161E+03  0.11426069324E+04  0.10017013462E+04 0.  0.
        -13    1    3    3    0    0  0.83807747697E+01  0.79742091773E+02 -0.81559111715E+03  0.81952298328E+03  0.10566000000E+00 0.  1.
          4    1    3    3  501    0 -0.57830554062E+02  0.21216971583E+03  0.24087667330E+03  0.32616243352E+03  0.00000000000E+00 0.  1.
         13    1    4    4    0    0 -0.20174804975E+02  0.90707147142E+02  0.28481945669E+03  0.29959463175E+03  0.10566000000E+00 0. -1.
         -4    1    4    4    0  502  0.69624584268E+02 -0.38261895474E+03 -0.74794711830E+03  0.84301230064E+03  0.00000000000E+00 0. -1.
<mgrwt>
<rscale>  2 0.10309181E+04</rscale>
<asrwt>0</asrwt>
<pdfrwt beam="1">  1       21 0.96188480E-01 0.10445398E+04</pdfrwt>
<pdfrwt beam="2">  1       21 0.25585650E+00 0.10445398E+04</pdfrwt>
<totfact> 0.24064156E+01</totfact>
</mgrwt>
</event>
<event>
 8    1  0.5815007E-006  0.1146897E+04  0.7818608E-02  0.8652573E-01
         21   -1    0    0  503  502  0.00000000000E+00  0.00000000000E+00  0.16044392657E+04  0.16044392657E+04  0.00000000000E+00 0. -1.
         21   -1    0    0  501  503 -0.00000000000E+00 -0.00000000000E+00 -0.80563063143E+03  0.80563063143E+03  0.00000000000E+00 0. -1.
    9000010    2    1    2  501    0 -0.21073038700E+03  0.51270838853E+03  0.47917598968E+03  0.12429732483E+04  0.10040396801E+04 0.  0.
   -9000010    2    1    2    0  502  0.21073038700E+03 -0.51270838853E+03  0.31963264456E+03  0.11670966488E+04  0.97604936993E+03 0.  0.
        -13    1    3    3    0    0  0.14865729630E+02 -0.24379558205E+03  0.37383149562E+03  0.44655041600E+03  0.10566000000E+00 0.  1.
          4    1    3    3  501    0 -0.22559611663E+03  0.75650397058E+03  0.10534449406E+03  0.79642283227E+03  0.00000000000E+00 0.  1.
         13    1    4    4    0    0 -0.13391841563E+03  0.14152722628E+03 -0.18752675097E+03  0.27042631402E+03  0.10566000000E+00 0. -1.
         -4    1    4    4    0  502  0.34464880263E+03 -0.65423561481E+03  0.50715939553E+03  0.89667033480E+03  0.00000000000E+00 0. -1.
<mgrwt>
<rscale>  2 0.11407421E+04</rscale>
<asrwt>0</asrwt>
<pdfrwt beam="1">  1       21 0.24683681E+00 0.11468971E+04</pdfrwt>
<pdfrwt beam="2">  1       21 0.12394317E+00 0.11468971E+04</pdfrwt>
<totfact> 0.13790698E+01</totfact>
</mgrwt>
</event>
<event>
 8    1  0.5815007E-006  0.1141906E+04  0.7818608E-02  0.8652945E-01
         21   -1    0    0  501  502  0.00000000000E+00  0.00000000000E+00  0.70350725261E+03  0.70350725261E+03  0.00000000000E+00 0. -1.
         21   -1    0    0  502  503 -0.00000000000E+00 -0.00000000000E+00 -0.19419631596E+04  0.19419631596E+04  0.00000000000E+00 0. -1.
   -9000010    2    1    2    0  503 -0.18929070801E+03  0.49108846567E+03 -0.91620863487E+03  0.14589656911E+04  0.10060535632E+04 0.  0.
    9000010    2    1    2  501    0  0.18929070801E+03 -0.49108846567E+03 -0.32224727210E+03  0.11865047211E+04  0.10133860545E+04 0.  0.
        -13    1    4    4    0    0  0.59590079431E+03 -0.16623765067E+03 -0.13350455550E+03  0.63289508661E+03  0.10566000000E+00 0.  1.
          4    1    4    4  501    0 -0.40661008629E+03 -0.32485081500E+03 -0.18874271660E+03  0.55360963444E+03  0.00000000000E+00 0.  1.
         13    1    3    3    0    0  0.51569523100E+00  0.13808595710E+02  0.21560948507E+03  0.21605185599E+03  0.10566000000E+00 0. -1.
         -4    1    3    3    0  503 -0.18980640324E+03  0.47727986996E+03 -0.11318181199E+04  0.12429138352E+04  0.00000000000E+00 0. -1.
<mgrwt>
<rscale>  2 0.11402773E+04</rscale>
<asrwt>0</asrwt>
<pdfrwt beam="1">  1       21 0.10823188E+00 0.11419064E+04</pdfrwt>
<pdfrwt beam="2">  1       21 0.29876356E+00 0.11419064E+04</pdfrwt>
<totfact> 0.85230103E+00</totfact>
</mgrwt>
</event>
<event>
 8    1  0.5815007E-006  0.1357417E+04  0.7818608E-02  0.8496616E-01
         21   -1    0    0  503  502  0.00000000000E+00  0.00000000000E+00  0.82852424999E+03  0.82852424999E+03  0.00000000000E+00 0.  1.
         21   -1    0    0  501  503 -0.00000000000E+00 -0.00000000000E+00 -0.22606378798E+04  0.22606378798E+04  0.00000000000E+00 0.  1.
    9000010    2    1    2  501    0 -0.88280933632E+03 -0.26356890704E+03 -0.91326697992E+03  0.16360434041E+04  0.99687539367E+03 0.  0.
   -9000010    2    1    2    0  502  0.88280933632E+03  0.26356890704E+03 -0.51884664993E+03  0.14531187257E+04  0.99676039840E+03 0.  0.
        -13    1    3    3    0    0 -0.25448586905E+03  0.25254504438E+03 -0.71385082305E+03  0.79882730657E+03  0.10566000000E+00 0.  1.
          4    1    3    3  501    0 -0.62832346727E+03 -0.51611395143E+03 -0.19941615687E+03  0.83721609755E+03  0.00000000000E+00 0.  1.
         13    1    4    4    0    0  0.97388976001E+02  0.13378393997E+02  0.28516589409E+03  0.30163420295E+03  0.10566000000E+00 0. -1.
         -4    1    4    4    0  502  0.78542036032E+03  0.25019051305E+03 -0.80401254402E+03  0.11514845228E+04  0.00000000000E+00 0. -1.
<mgrwt>
<rscale>  2 0.13573961E+04</rscale>
<asrwt>0</asrwt>
<pdfrwt beam="1">  1       21 0.12746527E+00 0.13574172E+04</pdfrwt>
<pdfrwt beam="2">  1       21 0.34779044E+00 0.13574172E+04</pdfrwt>
<totfact> 0.23394450E+00</totfact>
</mgrwt>
</event>
<event>
 8    1  0.5815007E-006  0.1351150E+04  0.7818608E-02  0.8501884E-01
         21   -1    0    0  503  502  0.00000000000E+00  0.00000000000E+00  0.20237060207E+04  0.20237060207E+04  0.00000000000E+00 0. -1.
         21   -1    0    0  501  503 -0.00000000000E+00 -0.00000000000E+00 -0.90480426395E+03  0.90480426395E+03  0.00000000000E+00 0. -1.
    9000010    2    1    2  501    0 -0.87616027041E+03 -0.27601766428E+03  0.42374843813E+03  0.14090224162E+04  0.98078481840E+03 0.  0.
   -9000010    2    1    2    0  502  0.87616027041E+03  0.27601766428E+03  0.69515331858E+03  0.15194878684E+04  0.99083937930E+03 0.  0.
        -13    1    3    3    0    0 -0.27775346151E+03 -0.73308698376E+02  0.67150749476E+03  0.73037214988E+03  0.10566000000E+00 0.  1.
          4    1    3    3  501    0 -0.59840680890E+03 -0.20270896591E+03 -0.24775905663E+03  0.67865026629E+03  0.00000000000E+00 0.  1.
         13    1    4    4    0    0  0.13722392526E+03 -0.35314206219E+03  0.16049537011E+03  0.41145898549E+03  0.10566000000E+00 0. -1.
         -4    1    4    4    0  502  0.73893634515E+03  0.62915972647E+03  0.53465794848E+03  0.11080288830E+04  0.00000000000E+00 0. -1.
<mgrwt>
<rscale>  2 0.13493069E+04</rscale>
<asrwt>0</asrwt>
<pdfrwt beam="1">  1       21 0.31133939E+00 0.13511496E+04</pdfrwt>
<pdfrwt beam="2">  1       21 0.13920066E+00 0.13511496E+04</pdfrwt>
<totfact> 0.32630992E+00</totfact>
</mgrwt>
</event>
<event>
 8    1  0.5815007E-006  0.1020839E+04  0.7818608E-02  0.8762904E-01
         21   -1    0    0  501  502  0.00000000000E+00  0.00000000000E+00  0.86145116285E+03  0.86145116285E+03  0.00000000000E+00 0. -1.
         21   -1    0    0  502  503 -0.00000000000E+00 -0.00000000000E+00 -0.11721371233E+04  0.11721371233E+04  0.00000000000E+00 0. -1.
   -9000010    2    1    2    0  503 -0.14708305288E+03  0.21691016044E+02 -0.18252311918E+03  0.10047355727E+04  0.97676760663E+03 0.  0.
    9000010    2    1    2  501    0  0.14708305288E+03 -0.21691016044E+02 -0.12816284128E+03  0.10288527135E+04  0.10099545869E+04 0.  0.
        -13    1    4    4    0    0  0.59716859356E+02 -0.24866576596E+03 -0.51322720743E+03  0.57341341462E+03  0.10566000000E+00 0.  1.
          4    1    4    4  501    0  0.87366193528E+02  0.22697474992E+03  0.38506436615E+03  0.45543929887E+03  0.00000000000E+00 0.  1.
         13    1    3    3    0    0 -0.12796207420E+03 -0.14848687963E+03  0.37411206561E+03  0.42235351858E+03  0.10566000000E+00 0. -1.
         -4    1    3    3    0  503 -0.19120978683E+02  0.17017789567E+03 -0.55663518479E+03  0.58238205411E+03  0.00000000000E+00 0. -1.
<mgrwt>
<rscale>  2 0.10125328E+04</rscale>
<asrwt>0</asrwt>
<pdfrwt beam="1">  1       21 0.13253095E+00 0.10208390E+04</pdfrwt>
<pdfrwt beam="2">  1       21 0.18032879E+00 0.10208390E+04</pdfrwt>
<totfact> 0.37750759E+01</totfact>
</mgrwt>
</event>
<event>
 8    1  0.5815007E-006  0.1301203E+04  0.7818608E-02  0.8535777E-01
         21   -1    0    0  503  502  0.00000000000E+00  0.00000000000E+00  0.13135399794E+04  0.13135399794E+04  0.00000000000E+00 0.  1.
         21   -1    0    0  501  503 -0.00000000000E+00 -0.00000000000E+00 -0.13474601311E+04  0.13474601311E+04  0.00000000000E+00 0. -1.
    9000010    2    1    2  501    0 -0.79207989820E+03 -0.20301405676E+03 -0.31729624902E+03  0.13393304370E+04  0.10121876493E+04 0.  0.
   -9000010    2    1    2    0  502  0.79207989820E+03  0.20301405676E+03  0.28337609732E+03  0.13216696734E+04  0.99895117035E+03 0.  0.
        -13    1    3    3    0    0 -0.65688747447E+03 -0.57866115052E+03 -0.90257886397E+02  0.88005475879E+03  0.10566000000E+00 0.  1.
          4    1    3    3  501    0 -0.13519242373E+03  0.37564709376E+03 -0.22703836262E+03  0.45927567820E+03  0.00000000000E+00 0.  1.
         13    1    4    4    0    0  0.94781520301E+02 -0.16089176001E+03  0.47648254035E+03  0.51176685849E+03  0.10566000000E+00 0. -1.
         -4    1    4    4    0  502  0.69729837790E+03  0.36390581678E+03 -0.19310644303E+03  0.80990281494E+03  0.00000000000E+00 0. -1.
<mgrwt>
<rscale>  2 0.12986279E+04</rscale>
<asrwt>0</asrwt>
<pdfrwt beam="1">  1       21 0.20208307E+00 0.13012029E+04</pdfrwt>
<pdfrwt beam="2">  1       21 0.20730156E+00 0.13012029E+04</pdfrwt>
<totfact> 0.55531702E+00</totfact>
</mgrwt>
</event>
<event>
 8    1  0.5815007E-006  0.1051257E+04  0.7818608E-02  0.8730598E-01
         21   -1    0    0  503  502  0.00000000000E+00  0.00000000000E+00  0.80814351136E+03  0.80814351136E+03  0.00000000000E+00 0.  1.
         21   -1    0    0  501  503 -0.00000000000E+00 -0.00000000000E+00 -0.13668173060E+04  0.13668173060E+04  0.00000000000E+00 0.  1.
    9000010    2    1    2  501    0 -0.25891175717E+03  0.21440190804E+03 -0.16290963938E+03  0.10516748473E+04  0.98309559949E+03 0.  0.
   -9000010    2    1    2    0  502  0.25891175717E+03 -0.21440190804E+03 -0.39576415521E+03  0.11232859700E+04  0.99606155815E+03 0.  0.
        -13    1    3    3    0    0  0.19820788754E+03 -0.25085640650E+03  0.11896549224E+03  0.34112769291E+03  0.10566000000E+00 0.  1.
          4    1    3    3  501    0 -0.45711964472E+03  0.46525831454E+03 -0.28187513161E+03  0.71054715442E+03  0.00000000000E+00 0.  1.
         13    1    4    4    0    0  0.19891451158E+03 -0.45976670257E+03  0.14914178266E+03  0.52268124723E+03  0.10566000000E+00 0. -1.
         -4    1    4    4    0  502  0.59997245598E+02  0.24536479452E+03 -0.54490593787E+03  0.60060472275E+03  0.00000000000E+00 0. -1.
<mgrwt>
<rscale>  2 0.10481746E+04</rscale>
<asrwt>0</asrwt>
<pdfrwt beam="1">  1       21 0.12432977E+00 0.10512574E+04</pdfrwt>
<pdfrwt beam="2">  1       21 0.21027958E+00 0.10512574E+04</pdfrwt>
<totfact> 0.26147613E+01</totfact>
</mgrwt>
</event>
<event>
 8    1  0.5815007E-006  0.1303126E+04  0.7818608E-02  0.8533216E-01
         21   -1    0    0  503  502  0.00000000000E+00  0.00000000000E+00  0.25515248347E+04  0.25515248347E+04  0.00000000000E+00 0.  1.
         21   -1    0    0  501  503 -0.00000000000E+00 -0.00000000000E+00 -0.92383224620E+03  0.92383224620E+03  0.00000000000E+00 0.  1.
    9000010    2    1    2  501    0 -0.61393924132E+03 -0.56489835663E+03 -0.10701307630E+03  0.13075125221E+04  0.10010522721E+04 0.  0.
   -9000010    2    1    2    0  502  0.61393924132E+03  0.56489835663E+03  0.17347056648E+04  0.21678445588E+04  0.99715331938E+03 0.  0.
        -13    1    3    3    0    0  0.86478590704E+02  0.10837545926E+03 -0.28765407048E+03  0.31932532353E+03  0.10566000000E+00 0.  1.
          4    1    3    3  501    0 -0.70041783203E+03 -0.67327381590E+03  0.18064099417E+03  0.98818719855E+03  0.00000000000E+00 0.  1.
         13    1    4    4    0    0  0.49689087865E+03  0.84264550300E+03  0.14754310472E+04  0.17702679953E+04  0.10566000000E+00 0. -1.
         -4    1    4    4    0  502  0.11704836267E+03 -0.27774714637E+03  0.25927461761E+03  0.39757656351E+03  0.00000000000E+00 0. -1.
<mgrwt>
<rscale>  2 0.13023771E+04</rscale>
<asrwt>0</asrwt>
<pdfrwt beam="1">  1       21 0.39254228E+00 0.13031259E+04</pdfrwt>
<pdfrwt beam="2">  1       21 0.14212804E+00 0.13031259E+04</pdfrwt>
<totfact> 0.83287443E-01</totfact>
</mgrwt>
</event>
<event>
 8    1  0.5815007E-006  0.1268644E+04  0.7818608E-02  0.8586916E-01
         21   -1    0    0  501  502  0.00000000000E+00  0.00000000000E+00  0.62187637048E+03  0.62187637048E+03  0.00000000000E+00 0.  1.
         21   -1    0    0  502  503 -0.00000000000E+00 -0.00000000000E+00 -0.23287885301E+04  0.23287885301E+04  0.00000000000E+00 0.  1.
   -9000010    2    1    2    0  503  0.47556160621E+03  0.26205672568E+03 -0.56500163149E+03  0.12437910267E+04  0.96589684011E+03 0.  0.
    9000010    2    1    2  501    0 -0.47556160621E+03 -0.26205672568E+03 -0.11419105281E+04  0.17068738739E+04  0.11465714972E+04 0.  0.
        -13    1    4    4    0    0  0.65892258496E+02  0.43674952684E+02  0.20697991379E+03  0.22156260311E+03  0.10566000000E+00 0.  1.
          4    1    4    4  501    0 -0.54145386471E+03 -0.30573167836E+03 -0.13488904419E+04  0.14853112708E+04  0.00000000000E+00 0.  1.
         13    1    3    3    0    0 -0.11661741461E+03 -0.22591145574E+03 -0.37539898150E+03  0.45338726680E+03  0.10566000000E+00 0. -1.
         -4    1    3    3    0  503  0.59217902082E+03  0.48796818141E+03 -0.18960264999E+03  0.79040375989E+03  0.00000000000E+00 0. -1.
<mgrwt>
<rscale>  2 0.12264375E+04</rscale>
<asrwt>0</asrwt>
<pdfrwt beam="1">  1       21 0.95673290E-01 0.12686445E+04</pdfrwt>
<pdfrwt beam="2">  1       21 0.35827515E+00 0.12686445E+04</pdfrwt>
<totfact> 0.43900573E+00</totfact>
</mgrwt>
</event>
<event>
 8    1  0.5815007E-006  0.1057686E+04  0.7818608E-02  0.8724494E-01
         21   -1    0    0  501  502  0.00000000000E+00  0.00000000000E+00  0.21518901077E+04  0.21518901077E+04  0.00000000000E+00 0. -1.
         21   -1    0    0  502  503 -0.00000000000E+00 -0.00000000000E+00 -0.51933148872E+03  0.51933148872E+03  0.00000000000E+00 0. -1.
   -9000010    2    1    2    0  503 -0.23274499183E+03  0.17579430079E+03  0.93742276615E+03  0.14055545147E+04  0.10058569400E+04 0.  0.
    9000010    2    1    2  501    0  0.23274499183E+03 -0.17579430079E+03  0.69513585281E+03  0.12656670817E+04  0.10166737139E+04 0.  0.
        -13    1    4    4    0    0  0.48480508900E+03  0.11681629500E+03  0.33804440948E+02  0.49982474177E+03  0.10566000000E+00 0.  1.
          4    1    4    4  501    0 -0.25206009717E+03 -0.29261059579E+03  0.66133141186E+03  0.76584233995E+03  0.00000000000E+00 0.  1.
         13    1    3    3    0    0  0.30995249722E+03 -0.17248190266E+03  0.14322568627E+03  0.38253648930E+03  0.10566000000E+00 0. -1.
         -4    1    3    3    0  503 -0.54269748905E+03  0.34827620345E+03  0.79419707989E+03  0.10230180254E+04  0.00000000000E+00 0. -1.
<mgrwt>
<rscale>  2 0.10550779E+04</rscale>
<asrwt>0</asrwt>
<pdfrwt beam="1">  1       21 0.33106001E+00 0.10576858E+04</pdfrwt>
<pdfrwt beam="2">  1       21 0.79897153E-01 0.10576858E+04</pdfrwt>
<totfact> 0.11223931E+01</totfact>
</mgrwt>
</event>
<event>
 8    1  0.5815007E-006  0.1078407E+04  0.7818608E-02  0.8717741E-01
         21   -1    0    0  501  502  0.00000000000E+00  0.00000000000E+00  0.13378675697E+04  0.13378675697E+04  0.00000000000E+00 0. -1.
         21   -1    0    0  502  503 -0.00000000000E+00 -0.00000000000E+00 -0.83870472540E+03  0.83870472540E+03  0.00000000000E+00 0. -1.
   -9000010    2    1    2    0  503 -0.23426889586E+03  0.29033778214E+03  0.82900483858E+02  0.10206155977E+04  0.94636449892E+03 0.  0.
    9000010    2    1    2  501    0  0.23426889586E+03 -0.29033778214E+03  0.41626236043E+03  0.11559566974E+04  0.10118219162E+04 0.  0.
        -13    1    4    4    0    0  0.16049188517E+03  0.28447469460E+03  0.47174082386E+03  0.57377949870E+03  0.10566000000E+00 0.  1.
          4    1    4    4  501    0  0.73777010689E+02 -0.57481247674E+03 -0.55478463426E+02  0.58217719865E+03  0.00000000000E+00 0.  1.
         13    1    3    3    0    0 -0.33580127308E+03 -0.22015893877E+03 -0.17702442004E+03  0.43882810960E+03  0.10566000000E+00 0. -1.
         -4    1    3    3    0  503  0.10153237722E+03  0.51049672090E+03  0.25992490390E+03  0.58178748813E+03  0.00000000000E+00 0. -1.
<mgrwt>
<rscale>  2 0.10627796E+04</rscale>
<asrwt>0</asrwt>
<pdfrwt beam="1">  1       21 0.20582578E+00 0.10784069E+04</pdfrwt>
<pdfrwt beam="2">  1       21 0.12903150E+00 0.10784069E+04</pdfrwt>
<totfact> 0.25293639E+01</totfact>
</mgrwt>
</event>
<event>
 8    1  0.5815007E-006  0.1120694E+04  0.7818608E-02  0.8672173E-01
         21   -1    0    0  501  502  0.00000000000E+00  0.00000000000E+00  0.13376585958E+04  0.13376585958E+04  0.00000000000E+00 0.  1.
         21   -1    0    0  502  503 -0.00000000000E+00 -0.00000000000E+00 -0.92804873998E+03  0.92804873998E+03  0.00000000000E+00 0.  1.
   -9000010    2    1    2    0  503  0.12818425440E+03  0.45740134242E+03  0.14126963490E+03  0.11133355716E+04  0.99695124958E+03 0.  0.
    9000010    2    1    2  501    0 -0.12818425440E+03 -0.45740134242E+03  0.26834022092E+03  0.11523717642E+04  0.10150404020E+04 0.  0.
        -13    1    4    4    0    0 -0.16122216260E+03  0.23675474604E+03  0.35042829464E+03  0.45259849352E+03  0.10566000000E+00 0.  1.
          4    1    4    4  501    0  0.33037908204E+02 -0.69415608847E+03 -0.82088073712E+02  0.69977327069E+03  0.00000000000E+00 0.  1.
         13    1    3    3    0    0  0.47518426559E+03  0.54864119244E+03  0.19248316663E+03  0.75090413829E+03  0.10566000000E+00 0. -1.
         -4    1    3    3    0  503 -0.34700001119E+03 -0.91239850018E+02 -0.51213531725E+02  0.36243143328E+03  0.00000000000E+00 0. -1.
<mgrwt>
<rscale>  2 0.11165818E+04</rscale>
<asrwt>0</asrwt>
<pdfrwt beam="1">  1       21 0.20579363E+00 0.11206936E+04</pdfrwt>
<pdfrwt beam="2">  1       21 0.14277673E+00 0.11206936E+04</pdfrwt>
<totfact> 0.18613942E+01</totfact>
</mgrwt>
</event>
<event>
 8    1  0.5815007E-006  0.1069883E+04  0.7818608E-02  0.8712586E-01
         21   -1    0    0  503  502  0.00000000000E+00  0.00000000000E+00  0.14705232308E+04  0.14705232308E+04  0.00000000000E+00 0.  1.
         21   -1    0    0  501  503 -0.00000000000E+00 -0.00000000000E+00 -0.78199457238E+03  0.78199457238E+03  0.00000000000E+00 0.  1.
    9000010    2    1    2  501    0 -0.93684372119E+02  0.36591279164E+03  0.23682757147E+03  0.10911891246E+04  0.99596057872E+03 0.  0.
   -9000010    2    1    2    0  502  0.93684372119E+02 -0.36591279164E+03  0.45170108691E+03  0.11613286785E+04  0.10009902572E+04 0.  0.
        -13    1    3    3    0    0  0.28718248392E+03  0.33350003189E+03 -0.22287855241E+03  0.49332637333E+03  0.10566000000E+00 0.  1.
          4    1    3    3  501    0 -0.38086685604E+03  0.32412759749E+02  0.45970612388E+03  0.59786275127E+03  0.00000000000E+00 0.  1.
         13    1    4    4    0    0 -0.36897770549E+03 -0.26881629599E+03 -0.64860291034E+02  0.46110044096E+03  0.10566000000E+00 0. -1.
         -4    1    4    4    0  502  0.46266207761E+03 -0.97096495652E+02  0.51656137794E+03  0.70022823758E+03  0.00000000000E+00 0. -1.
<mgrwt>
<rscale>  2 0.10687053E+04</rscale>
<asrwt>0</asrwt>
<pdfrwt beam="1">  1       21 0.22623434E+00 0.10698834E+04</pdfrwt>
<pdfrwt beam="2">  1       21 0.12030686E+00 0.10698834E+04</pdfrwt>
<totfact> 0.21643066E+01</totfact>
</mgrwt>
</event>
<event>
 8    1  0.5815007E-006  0.1540460E+04  0.7818608E-02  0.8388880E-01
         21   -1    0    0  501  502  0.00000000000E+00  0.00000000000E+00  0.10172028690E+04  0.10172028690E+04  0.00000000000E+00 0.  1.
         21   -1    0    0  502  503 -0.00000000000E+00 -0.00000000000E+00 -0.24725860454E+04  0.24725860454E+04  0.00000000000E+00 0.  1.
   -9000010    2    1    2    0  503  0.93411384856E+03  0.70775505506E+03 -0.11812677268E+04  0.19412391321E+04  0.99976498513E+03 0.  0.
    9000010    2    1    2  501    0 -0.93411384856E+03 -0.70775505506E+03 -0.27411544968E+03  0.15485497823E+04  0.97436196997E+03 0.  0.
        -13    1    4    4    0    0  0.12604330311E+03 -0.23398774854E+03  0.15841703808E+03  0.30940774044E+03  0.10566000000E+00 0.  1.
          4    1    4    4  501    0 -0.10601571517E+04 -0.47376730651E+03 -0.43253248777E+03  0.12391420419E+04  0.00000000000E+00 0.  1.
         13    1    3    3    0    0  0.33588262570E+03 -0.17976115340E+03 -0.63269415735E+03  0.73853443957E+03  0.10566000000E+00 0. -1.
         -4    1    3    3    0  503  0.59823122286E+03  0.88751620846E+03 -0.54857356943E+03  0.12027046925E+04  0.00000000000E+00 0. -1.
<mgrwt>
<rscale>  2 0.15363522E+04</rscale>
<asrwt>0</asrwt>
<pdfrwt beam="1">  1       21 0.15649275E+00 0.15404596E+04</pdfrwt>
<pdfrwt beam="2">  1       21 0.38039785E+00 0.15404596E+04</pdfrwt>
<totfact> 0.72064459E-01</totfact>
</mgrwt>
</event>
<event>
 8    1  0.5815007E-006  0.1088264E+04  0.7818608E-02  0.8700316E-01
         21   -1    0    0  501  502  0.00000000000E+00  0.00000000000E+00  0.37973932991E+03  0.37973932991E+03  0.00000000000E+00 0.  1.
         21   -1    0    0  502  503 -0.00000000000E+00 -0.00000000000E+00 -0.32050133387E+04  0.32050133387E+04  0.00000000000E+00 0. -1.
   -9000010    2    1    2    0  503  0.22932681235E+03 -0.34953512264E+03 -0.17822652663E+04  0.20773755358E+04  0.98196438239E+03 0.  0.
    9000010    2    1    2  501    0 -0.22932681235E+03  0.34953512264E+03 -0.10430087424E+04  0.15073771328E+04  0.10047651441E+04 0.  0.
        -13    1    4    4    0    0  0.31605462227E+03  0.41969521216E+03 -0.39379995027E+03  0.65659196414E+03  0.10566000000E+00 0.  1.
          4    1    4    4  501    0 -0.54538143462E+03 -0.70160089523E+02 -0.64920879218E+03  0.85078516867E+03  0.00000000000E+00 0.  1.
         13    1    3    3    0    0  0.59750199788E+03 -0.24571664429E+03 -0.83473511892E+03  0.10555415845E+04  0.10566000000E+00 0. -1.
         -4    1    3    3    0  503 -0.36817518553E+03 -0.10381847835E+03 -0.94753014740E+03  0.10218339512E+04  0.00000000000E+00 0. -1.
<mgrwt>
<rscale>  2 0.10829717E+04</rscale>
<asrwt>0</asrwt>
<pdfrwt beam="1">  1       21 0.58421438E-01 0.10882640E+04</pdfrwt>
<pdfrwt beam="2">  1       21 0.49307895E+00 0.10882640E+04</pdfrwt>
<totfact> 0.17359865E+00</totfact>
</mgrwt>
</event>
<event>
 8    1  0.5815007E-006  0.1013614E+04  0.7818608E-02  0.8763671E-01
         21   -1    0    0  501  502  0.00000000000E+00  0.00000000000E+00  0.14644835429E+04  0.14644835429E+04  0.00000000000E+00 0. -1.
         21   -1    0    0  502  503 -0.00000000000E+00 -0.00000000000E+00 -0.70170817970E+03  0.70170817970E+03  0.00000000000E+00 0. -1.
   -9000010    2    1    2    0  503 -0.14695618496E+01  0.24651786212E+03  0.28481827260E+03  0.10455413809E+04  0.97532667082E+03 0.  0.
    9000010    2    1    2  501    0  0.14695618496E+01 -0.24651786212E+03  0.47795709061E+03  0.11206503417E+04  0.98317902335E+03 0.  0.
        -13    1    4    4    0    0  0.16997037770E+03 -0.34737920552E+03 -0.18537002264E+03  0.42886396233E+03  0.10566000000E+00 0.  1.
          4    1    4    4  501    0 -0.16850081585E+03  0.10086134340E+03  0.66332711324E+03  0.69178637938E+03  0.00000000000E+00 0.  1.
         13    1    3    3    0    0 -0.36560207339E+03  0.89075638739E+02  0.47467774947E+03  0.60573783314E+03  0.10566000000E+00 0. -1.
         -4    1    3    3    0  503  0.36413251154E+03  0.15744222338E+03 -0.18985947687E+03  0.43980354776E+03  0.00000000000E+00 0. -1.
<mgrwt>
<rscale>  2 0.10117054E+04</rscale>
<asrwt>0</asrwt>
<pdfrwt beam="1">  1       21 0.22530516E+00 0.10136144E+04</pdfrwt>
<pdfrwt beam="2">  1       21 0.10795511E+00 0.10136144E+04</pdfrwt>
<totfact> 0.29977332E+01</totfact>
</mgrwt>
</event>
<event>
 8    1  0.5815007E-006  0.1178445E+04  0.7818608E-02  0.8623063E-01
         21   -1    0    0  503  502  0.00000000000E+00  0.00000000000E+00  0.10172828127E+04  0.10172828127E+04  0.00000000000E+00 0.  1.
         21   -1    0    0  501  503 -0.00000000000E+00 -0.00000000000E+00 -0.19257638437E+04  0.19257638437E+04  0.00000000000E+00 0.  1.
    9000010    2    1    2  501    0 -0.49331804213E+03  0.35496479292E+03 -0.12485250140E+04  0.17165224348E+04  0.10090945762E+04 0.  0.
   -9000010    2    1    2    0  502  0.49331804213E+03 -0.35496479292E+03  0.34004398305E+03  0.12265242216E+04  0.10096380841E+04 0.  0.
        -13    1    3    3    0    0 -0.17489365711E+03  0.34127299502E+03 -0.13327829275E+04  0.13868544954E+04  0.10566000000E+00 0.  1.
          4    1    3    3  501    0 -0.31842438502E+03  0.13691797892E+02  0.84257913461E+02  0.32966793942E+03  0.00000000000E+00 0.  1.
         13    1    4    4    0    0  0.41505886380E+03 -0.69717295914E+02  0.66507170867E+03  0.78705447754E+03  0.10566000000E+00 0. -1.
         -4    1    4    4    0  502  0.78259178325E+02 -0.28524749700E+03 -0.32502772563E+03  0.43946974408E+03  0.00000000000E+00 0. -1.
<mgrwt>
<rscale>  2 0.11783282E+04</rscale>
<asrwt>0</asrwt>
<pdfrwt beam="1">  1       21 0.15650505E+00 0.11784446E+04</pdfrwt>
<pdfrwt beam="2">  1       21 0.29627136E+00 0.11784446E+04</pdfrwt>
<totfact> 0.30157404E+00</totfact>
</mgrwt>
</event>
<event>
 8    1  0.5815007E-006  0.1359184E+04  0.7818608E-02  0.8500182E-01
         21   -1    0    0  503  502  0.00000000000E+00  0.00000000000E+00  0.20106619248E+04  0.20106619248E+04  0.00000000000E+00 0. -1.
         21   -1    0    0  501  503 -0.00000000000E+00 -0.00000000000E+00 -0.90478601567E+03  0.90478601567E+03  0.00000000000E+00 0. -1.
    9000010    2    1    2  501    0 -0.72355774232E+03 -0.49658072261E+03  0.65954565528E+03  0.14848569332E+04  0.99983569662E+03 0.  0.
   -9000010    2    1    2    0  502  0.72355774232E+03  0.49658072261E+03  0.44633025382E+03  0.14305910072E+04  0.10379073725E+04 0.  0.
        -13    1    3    3    0    0 -0.15517635569E+03  0.27520754076E+03  0.36365250323E+03  0.48172818697E+03  0.10566000000E+00 0.  1.
          4    1    3    3  501    0 -0.56838138663E+03 -0.77178826337E+03  0.29589315205E+03  0.10031287463E+04  0.00000000000E+00 0.  1.
         13    1    4    4    0    0  0.30594435947E+03 -0.95108747411E+02  0.60917281505E+03  0.68828711647E+03  0.10566000000E+00 0. -1.
         -4    1    4    4    0  502  0.41761338285E+03  0.59168947002E+03 -0.16284256123E+03  0.74230389074E+03  0.00000000000E+00 0. -1.
<mgrwt>
<rscale>  2 0.13519141E+04</rscale>
<asrwt>0</asrwt>
<pdfrwt beam="1">  1       21 0.30933260E+00 0.13591836E+04</pdfrwt>
<pdfrwt beam="2">  1       21 0.13919785E+00 0.13591836E+04</pdfrwt>
<totfact> 0.33662064E+00</totfact>
</mgrwt>
</event>
<event>
 8    1  0.5815007E-006  0.1059752E+04  0.7818608E-02  0.8721948E-01
         21   -1    0    0  503  502  0.00000000000E+00  0.00000000000E+00  0.10687626120E+04  0.10687626120E+04  0.00000000000E+00 0.  1.
         21   -1    0    0  501  503 -0.00000000000E+00 -0.00000000000E+00 -0.14103325670E+04  0.14103325670E+04  0.00000000000E+00 0.  1.
    9000010    2    1    2  501    0 -0.10224527602E+03  0.38056095858E+03 -0.80312772974E+03  0.13296949417E+04  0.98376508789E+03 0.  0.
   -9000010    2    1    2    0  502  0.10224527602E+03 -0.38056095858E+03  0.46155777474E+03  0.11494002372E+04  0.97611709655E+03 0.  0.
        -13    1    3    3    0    0 -0.39789550911E+03 -0.16397369860E+03 -0.24186445348E+03  0.49366652208E+03  0.10566000000E+00 0.  1.
          4    1    3    3  501    0  0.29565023309E+03  0.54453465719E+03 -0.56126327626E+03  0.83602841966E+03  0.00000000000E+00 0.  1.
         13    1    4    4    0    0 -0.74910146783E+02 -0.73087769763E+02  0.70906871941E+03  0.71675087177E+03  0.10566000000E+00 0. -1.
         -4    1    4    4    0  502  0.17715542280E+03 -0.30747318882E+03 -0.24751094467E+03  0.43264936542E+03  0.00000000000E+00 0. -1.
<mgrwt>
<rscale>  2 0.10579737E+04</rscale>
<asrwt>0</asrwt>
<pdfrwt beam="1">  1       21 0.16442502E+00 0.10597521E+04</pdfrwt>
<pdfrwt beam="2">  1       21 0.21697424E+00 0.10597521E+04</pdfrwt>
<totfact> 0.99810196E+00</totfact>
</mgrwt>
</event>
<event>
 8    1  0.5815007E-006  0.1066472E+04  0.7818608E-02  0.8715901E-01
         21   -1    0    0  501  502  0.00000000000E+00  0.00000000000E+00  0.15678937983E+04  0.15678937983E+04  0.00000000000E+00 0. -1.
         21   -1    0    0  502  503 -0.00000000000E+00 -0.00000000000E+00 -0.10857927322E+04  0.10857927322E+04  0.00000000000E+00 0. -1.
   -9000010    2    1    2    0  503  0.28948809624E+03 -0.22474419461E+03 -0.52837309873E+03  0.11845302718E+04  0.99479672417E+03 0.  0.
    9000010    2    1    2  501    0 -0.28948809624E+03  0.22474419461E+03  0.10104741648E+04  0.14691562587E+04  0.10015232218E+04 0.  0.
        -13    1    4    4    0    0 -0.24249485696E+03  0.15718247600E+03 -0.13624455296E+03  0.31948814656E+03  0.10566000000E+00 0.  1.
          4    1    4    4  501    0 -0.46993239274E+02  0.67561718607E+02  0.11467187177E+04  0.11496681121E+04  0.00000000000E+00 0.  1.
         13    1    3    3    0    0 -0.28031207824E+03 -0.24432831323E+02  0.11328646867E+03  0.30332434719E+03  0.10566000000E+00 0. -1.
         -4    1    3    3    0  503  0.56980017447E+03 -0.20031136329E+03 -0.64165956739E+03  0.88120592458E+03  0.00000000000E+00 0. -1.
<mgrwt>
<rscale>  2 0.10648897E+04</rscale>
<asrwt>0</asrwt>
<pdfrwt beam="1">  1       21 0.24121443E+00 0.10664718E+04</pdfrwt>
<pdfrwt beam="2">  1       21 0.16704504E+00 0.10664718E+04</pdfrwt>
<totfact> 0.62477384E+00</totfact>
</mgrwt>
</event>
<event>
 8    1  0.5815007E-006  0.1031538E+04  0.7818608E-02  0.8746220E-01
         21   -1    0    0  501  502  0.00000000000E+00  0.00000000000E+00  0.52950243196E+03  0.52950243196E+03  0.00000000000E+00 0. -1.
         21   -1    0    0  502  503 -0.00000000000E+00 -0.00000000000E+00 -0.21372270119E+04  0.21372270119E+04  0.00000000000E+00 0. -1.
   -9000010    2    1    2    0  503 -0.19138065922E+03 -0.20612144434E+03 -0.46915256917E+03  0.11303647781E+04  0.98919552762E+03 0.  0.
    9000010    2    1    2  501    0  0.19138065922E+03  0.20612144434E+03 -0.11385720108E+04  0.15363646658E+04  0.99245027884E+03 0.  0.
        -13    1    4    4    0    0 -0.25320024956E+03  0.40683401189E+03 -0.29735739471E+03  0.56395541576E+03  0.10566000000E+00 0.  1.
          4    1    4    4  501    0  0.44458090878E+03 -0.20071256755E+03 -0.84121461609E+03  0.97240925003E+03  0.00000000000E+00 0.  1.
         13    1    3    3    0    0 -0.10012977989E+03 -0.23143663087E+03  0.27909873356E+03  0.37614492044E+03  0.10566000000E+00 0. -1.
         -4    1    3    3    0  503 -0.91250879333E+02  0.25315186537E+02 -0.74825130273E+03  0.75421985766E+03  0.00000000000E+00 0. -1.
<mgrwt>
<rscale>  2 0.10307541E+04</rscale>
<asrwt>0</asrwt>
<pdfrwt beam="1">  1       21 0.81461913E-01 0.10315378E+04</pdfrwt>
<pdfrwt beam="2">  1       21 0.32880416E+00 0.10315378E+04</pdfrwt>
<totfact> 0.11165877E+01</totfact>
</mgrwt>
</event>
<event>
 8    1  0.5815007E-006  0.1094041E+04  0.7818608E-02  0.8692332E-01
         21   -1    0    0  503  502  0.00000000000E+00  0.00000000000E+00  0.56778121090E+03  0.56778121090E+03  0.00000000000E+00 0. -1.
         21   -1    0    0  501  503 -0.00000000000E+00 -0.00000000000E+00 -0.23199637329E+04  0.23199637329E+04  0.00000000000E+00 0. -1.
    9000010    2    1    2  501    0  0.35522279304E+03  0.25566467597E+03 -0.13229839357E+04  0.17125267348E+04  0.99544646464E+03 0.  0.
   -9000010    2    1    2    0  502 -0.35522279304E+03 -0.25566467597E+03 -0.42919858628E+03  0.11752182090E+04  0.10026857699E+04 0.  0.
        -13    1    3    3    0    0 -0.26347155758E+02  0.59616188791E+02  0.15786573505E+03  0.17079187348E+03  0.10566000000E+00 0.  1.
          4    1    3    3  501    0  0.38156994880E+03  0.19604848718E+03 -0.14808496708E+04  0.15417348613E+04  0.00000000000E+00 0.  1.
         13    1    4    4    0    0 -0.50464851873E+03 -0.38570726001E+03 -0.62896561717E+03  0.89388924181E+03  0.10566000000E+00 0. -1.
         -4    1    4    4    0  502  0.14942572569E+03  0.13004258404E+03  0.19976703088E+03  0.28132896720E+03  0.00000000000E+00 0. -1.
<mgrwt>
<rscale>  2 0.10923798E+04</rscale>
<asrwt>0</asrwt>
<pdfrwt beam="1">  1       21 0.87350954E-01 0.10940413E+04</pdfrwt>
<pdfrwt beam="2">  1       21 0.35691750E+00 0.10940413E+04</pdfrwt>
<totfact> 0.58705377E+00</totfact>
</mgrwt>
</event>
<event>
 8    1  0.5815007E-006  0.1123882E+04  0.7818608E-02  0.8668775E-01
         21   -1    0    0  501  502  0.00000000000E+00  0.00000000000E+00  0.15321724104E+04  0.15321724104E+04  0.00000000000E+00 0. -1.
         21   -1    0    0  502  503 -0.00000000000E+00 -0.00000000000E+00 -0.81692733067E+03  0.81692733067E+03  0.00000000000E+00 0.  1.
   -9000010    2    1    2    0  503  0.48257807021E+03  0.13786393377E+03  0.30150860978E+03  0.11514815547E+04  0.99152119041E+03 0.  0.
    9000010    2    1    2  501    0 -0.48257807021E+03 -0.13786393377E+03  0.41373646995E+03  0.11976181863E+04  0.10055960400E+04 0.  0.
        -13    1    4    4    0    0 -0.36425628895E+03  0.41857200876E+03  0.19513796041E+03  0.58818704960E+03  0.10566000000E+00 0.  1.
          4    1    4    4  501    0 -0.11832178126E+03 -0.55643594253E+03  0.21859850954E+03  0.60943113674E+03  0.00000000000E+00 0.  1.
         13    1    3    3    0    0  0.40053398908E+03 -0.32925804696E+03 -0.10241496065E+03  0.52851411828E+03  0.10566000000E+00 0. -1.
         -4    1    3    3    0  503  0.82044081128E+02  0.46712198072E+03  0.40392357043E+03  0.62296743645E+03  0.00000000000E+00 0. -1.
<mgrwt>
<rscale>  2 0.11207251E+04</rscale>
<asrwt>0</asrwt>
<pdfrwt beam="1">  1       21 0.23571883E+00 0.11238823E+04</pdfrwt>
<pdfrwt beam="2">  1       21 0.12568113E+00 0.11238823E+04</pdfrwt>
<totfact> 0.16072798E+01</totfact>
</mgrwt>
</event>
<event>
 8    1  0.5815007E-006  0.1172541E+04  0.7818608E-02  0.8633293E-01
         21   -1    0    0  503  502  0.00000000000E+00  0.00000000000E+00  0.11251390511E+04  0.11251390511E+04  0.00000000000E+00 0.  1.
         21   -1    0    0  501  503 -0.00000000000E+00 -0.00000000000E+00 -0.11953191950E+04  0.11953191950E+04  0.00000000000E+00 0.  1.
    9000010    2    1    2  501    0 -0.80638992115E+02 -0.57733673367E+03 -0.99934222563E+02  0.11475401186E+04  0.98338249116E+03 0.  0.
   -9000010    2    1    2    0  502  0.80638992115E+02  0.57733673367E+03  0.29754078689E+02  0.11729181275E+04  0.10173648694E+04 0.  0.
        -13    1    3    3    0    0 -0.41875211402E+03 -0.38598554475E+03  0.25252282728E+03  0.62298151113E+03  0.10566000000E+00 0.  1.
          4    1    3    3  501    0  0.33811312190E+03 -0.19135118893E+03 -0.35245704985E+03  0.52455860749E+03  0.00000000000E+00 0.  1.
         13    1    4    4    0    0 -0.25476391515E+03  0.54443826430E+03 -0.32522684018E+03  0.68343996432E+03  0.10566000000E+00 0. -1.
         -4    1    4    4    0  502  0.33540290726E+03  0.32898469379E+02  0.35498091887E+03  0.48947816320E+03  0.00000000000E+00 0. -1.
<mgrwt>
<rscale>  2 0.11651307E+04</rscale>
<asrwt>0</asrwt>
<pdfrwt beam="1">  1       21 0.17309832E+00 0.11725407E+04</pdfrwt>
<pdfrwt beam="2">  1       21 0.18389526E+00 0.11725407E+04</pdfrwt>
<totfact> 0.14926305E+01</totfact>
</mgrwt>
</event>
<event>
 8    1  0.5815007E-006  0.1123575E+04  0.7818608E-02  0.8670488E-01
         21   -1    0    0  501  502  0.00000000000E+00  0.00000000000E+00  0.42682457686E+03  0.42682457686E+03  0.00000000000E+00 0. -1.
         21   -1    0    0  502  503 -0.00000000000E+00 -0.00000000000E+00 -0.29105150124E+04  0.29105150124E+04  0.00000000000E+00 0. -1.
   -9000010    2    1    2    0  503  0.40199447098E+03 -0.33834856938E+03 -0.11670490470E+04  0.16064542016E+04  0.97088223522E+03 0.  0.
    9000010    2    1    2  501    0 -0.40199447098E+03  0.33834856938E+03 -0.13166413885E+04  0.17308853876E+04  0.99314670117E+03 0.  0.
        -13    1    4    4    0    0  0.19224436912E+02 -0.33035076632E+03 -0.33857133463E+03  0.47342556710E+03  0.10566000000E+00 0.  1.
          4    1    4    4  501    0 -0.42121890789E+03  0.66869933571E+03 -0.97807005391E+03  0.12574598206E+04  0.00000000000E+00 0.  1.
         13    1    3    3    0    0 -0.60310453208E+02  0.11919258186E+03 -0.88916435237E+03  0.89914263553E+03  0.10566000000E+00 0. -1.
         -4    1    3    3    0  503  0.46230492419E+03 -0.45754115124E+03 -0.27788469463E+03  0.70731156608E+03  0.00000000000E+00 0. -1.
<mgrwt>
<rscale>  2 0.11186343E+04</rscale>
<asrwt>0</asrwt>
<pdfrwt beam="1">  1       21 0.65665316E-01 0.11235745E+04</pdfrwt>
<pdfrwt beam="2">  1       21 0.44777156E+00 0.11235745E+04</pdfrwt>
<totfact> 0.27193036E+00</totfact>
</mgrwt>
</event>
<event>
 8    1  0.5815007E-006  0.1022862E+04  0.7818608E-02  0.8754247E-01
         21   -1    0    0  503  502  0.00000000000E+00  0.00000000000E+00  0.96762106265E+03  0.96762106265E+03  0.00000000000E+00 0.  1.
         21   -1    0    0  501  503 -0.00000000000E+00 -0.00000000000E+00 -0.11390176206E+04  0.11390176206E+04  0.00000000000E+00 0.  1.
    9000010    2    1    2  501    0 -0.18828147416E+03 -0.15130511972E+03 -0.33090707713E+03  0.10750562749E+04  0.99393327122E+03 0.  0.
   -9000010    2    1    2    0  502  0.18828147416E+03  0.15130511972E+03  0.15951051913E+03  0.10315824084E+04  0.99013913514E+03 0.  0.
        -13    1    3    3    0    0 -0.30451580539E+03  0.34061925712E+03 -0.33997701670E+03  0.56950481745E+03  0.10566000000E+00 0.  1.
          4    1    3    3  501    0  0.11623433122E+03 -0.49192437684E+03  0.90699395674E+01  0.50555145741E+03  0.00000000000E+00 0.  1.
         13    1    4    4    0    0  0.24546894761E+03  0.35511032896E+03 -0.29997472032E+03  0.52568354927E+03  0.10566000000E+00 0. -1.
         -4    1    4    4    0  502 -0.57187473446E+02 -0.20380520924E+03  0.45948523946E+03  0.50589885917E+03  0.00000000000E+00 0. -1.
<mgrwt>
<rscale>  2 0.10219391E+04</rscale>
<asrwt>0</asrwt>
<pdfrwt beam="1">  1       21 0.14886478E+00 0.10228619E+04</pdfrwt>
<pdfrwt beam="2">  1       21 0.17523348E+00 0.10228619E+04</pdfrwt>
<totfact> 0.29357291E+01</totfact>
</mgrwt>
</event>
<event>
 8    1  0.5815007E-006  0.1132208E+04  0.7818608E-02  0.8666502E-01
         21   -1    0    0  501  502  0.00000000000E+00  0.00000000000E+00  0.23834078761E+04  0.23834078761E+04  0.00000000000E+00 0.  1.
         21   -1    0    0  502  503 -0.00000000000E+00 -0.00000000000E+00 -0.52480922558E+03  0.52480922558E+03  0.00000000000E+00 0.  1.
   -9000010    2    1    2    0  503 -0.51694809512E+03 -0.19613422111E+02  0.10568415273E+04  0.15488087410E+04  0.10071119516E+04 0.  0.
    9000010    2    1    2  501    0  0.51694809512E+03  0.19613422111E+02  0.80175712324E+03  0.13594083607E+04  0.96827505756E+03 0.  0.
        -13    1    4    4    0    0  0.30956377182E+03 -0.46986298988E+03  0.46667258606E+03  0.73101591763E+03  0.10566000000E+00 0.  1.
          4    1    4    4  501    0  0.20738432331E+03  0.48947641199E+03  0.33508453718E+03  0.62839244307E+03  0.00000000000E+00 0.  1.
         13    1    3    3    0    0 -0.72522054927E+03 -0.68699345468E+02  0.11105883733E+04  0.13281833425E+04  0.10566000000E+00 0. -1.
         -4    1    3    3    0  503  0.20827245415E+03  0.49085923358E+02 -0.53746845980E+02  0.22062539854E+03  0.00000000000E+00 0. -1.
<mgrwt>
<rscale>  2 0.11235074E+04</rscale>
<asrwt>0</asrwt>
<pdfrwt beam="1">  1       21 0.36667813E+00 0.11322078E+04</pdfrwt>
<pdfrwt beam="2">  1       21 0.80739882E-01 0.11322078E+04</pdfrwt>
<totfact> 0.60567994E+00</totfact>
</mgrwt>
</event>
<event>
 8    1  0.5815007E-006  0.1091159E+04  0.7818608E-02  0.8695311E-01
         21   -1    0    0  503  502  0.00000000000E+00  0.00000000000E+00  0.98519836765E+03  0.98519836765E+03  0.00000000000E+00 0.  1.
         21   -1    0    0  501  503 -0.00000000000E+00 -0.00000000000E+00 -0.12532181049E+04  0.12532181049E+04  0.00000000000E+00 0.  1.
    9000010    2    1    2  501    0 -0.10162649394E+03  0.42858396289E+03 -0.36760131459E+03  0.11427225936E+04  0.98826719151E+03 0.  0.
   -9000010    2    1    2    0  502  0.10162649394E+03 -0.42858396289E+03  0.99581577358E+02  0.10956938790E+04  0.99830678068E+03 0.  0.
        -13    1    3    3    0    0 -0.35299462694E+03  0.38999720050E+02  0.20177003942E+03  0.40845727412E+03  0.10566000000E+00 0.  1.
          4    1    3    3  501    0  0.25136813300E+03  0.38958424284E+03 -0.56937135401E+03  0.73426531943E+03  0.00000000000E+00 0.  1.
         13    1    4    4    0    0 -0.20392205270E+03 -0.11422978265E+02 -0.35345135217E+03  0.40821876184E+03  0.10566000000E+00 0. -1.
         -4    1    4    4    0  502  0.30554854664E+03 -0.41716098463E+03  0.45303292952E+03  0.68747511714E+03  0.00000000000E+00 0. -1.
<mgrwt>
<rscale>  2 0.10888576E+04</rscale>
<asrwt>0</asrwt>
<pdfrwt beam="1">  1       21 0.15156898E+00 0.10911593E+04</pdfrwt>
<pdfrwt beam="2">  1       21 0.19280279E+00 0.10911593E+04</pdfrwt>
<totfact> 0.19720341E+01</totfact>
</mgrwt>
</event>
<event>
 8    1  0.5815007E-006  0.1200648E+04  0.7818608E-02  0.8613564E-01
         21   -1    0    0  503  502  0.00000000000E+00  0.00000000000E+00  0.11041016785E+04  0.11041016785E+04  0.00000000000E+00 0. -1.
         21   -1    0    0  501  503 -0.00000000000E+00 -0.00000000000E+00 -0.21499457823E+04  0.21499457823E+04  0.00000000000E+00 0.  1.
    9000010    2    1    2  501    0 -0.97910480262E+02 -0.66460695877E+03 -0.15625197650E+04  0.19469480991E+04  0.94754947766E+03 0.  0.
   -9000010    2    1    2    0  502  0.97910480262E+02  0.66460695877E+03  0.51667566126E+03  0.13070993618E+04  0.99512116387E+03 0.  0.
        -13    1    3    3    0    0  0.22233143031E+03  0.55630645935E+02 -0.40222400776E+02  0.23268838896E+03  0.10566000000E+00 0.  1.
          4    1    3    3  501    0 -0.32024191057E+03 -0.72023760470E+03 -0.15222973643E+04  0.17142597101E+04  0.00000000000E+00 0.  1.
         13    1    4    4    0    0 -0.26474117779E+03  0.75712944697E+03  0.22629178040E+03  0.83339118770E+03  0.10566000000E+00 0. -1.
         -4    1    4    4    0  502  0.36265165806E+03 -0.92522488200E+02  0.29038388086E+03  0.47370817407E+03  0.00000000000E+00 0. -1.
<mgrwt>
<rscale>  2 0.11907451E+04</rscale>
<asrwt>0</asrwt>
<pdfrwt beam="1">  1       21 0.16986180E+00 0.12006477E+04</pdfrwt>
<pdfrwt beam="2">  1       21 0.33076088E+00 0.12006477E+04</pdfrwt>
<totfact> 0.13171164E+00</totfact>
</mgrwt>
</event>
<event>
 8    1  0.5815007E-006  0.1142962E+04  0.7818608E-02  0.8666015E-01
         21   -1    0    0  503  502  0.00000000000E+00  0.00000000000E+00  0.18566964568E+04  0.18566964568E+04  0.00000000000E+00 0. -1.
         21   -1    0    0  501  503 -0.00000000000E+00 -0.00000000000E+00 -0.65971573177E+03  0.65971573177E+03  0.00000000000E+00 0. -1.
    9000010    2    1    2  501    0 -0.41439599869E+03  0.75159803423E+02  0.57772411918E+03  0.12806746238E+04  0.10625390790E+04 0.  0.
   -9000010    2    1    2    0  502  0.41439599869E+03 -0.75159803423E+02  0.61925660581E+03  0.12357375647E+04  0.98295246340E+03 0.  0.
        -13    1    3    3    0    0 -0.28244660394E+03 -0.29004525421E+03 -0.16924647144E+03  0.43880145035E+03  0.10566000000E+00 0.  1.
          4    1    3    3  501    0 -0.13194939475E+03  0.36520505764E+03  0.74697059062E+03  0.84187317344E+03  0.00000000000E+00 0.  1.
         13    1    4    4    0    0  0.71945046748E+03  0.85638059955E+02  0.42191934054E+03  0.83842637933E+03  0.10566000000E+00 0. -1.
         -4    1    4    4    0  502 -0.30505446879E+03 -0.16079786338E+03  0.19733726527E+03  0.39731118542E+03  0.00000000000E+00 0. -1.
<mgrwt>
<rscale>  2 0.11241044E+04</rscale>
<asrwt>0</asrwt>
<pdfrwt beam="1">  1       21 0.28564561E+00 0.11429621E+04</pdfrwt>
<pdfrwt beam="2">  1       21 0.10149473E+00 0.11429621E+04</pdfrwt>
<totfact> 0.12529346E+01</totfact>
</mgrwt>
</event>
<event>
 8    1  0.5815007E-006  0.1083981E+04  0.7818608E-02  0.8700360E-01
         21   -1    0    0  503  502  0.00000000000E+00  0.00000000000E+00  0.53965580647E+03  0.53965580647E+03  0.00000000000E+00 0.  1.
         21   -1    0    0  501  503 -0.00000000000E+00 -0.00000000000E+00 -0.21795450029E+04  0.21795450029E+04  0.00000000000E+00 0.  1.
    9000010    2    1    2  501    0  0.29310667082E+03  0.31189775364E+03 -0.91684842329E+03  0.14197274918E+04  0.99590330372E+03 0.  0.
   -9000010    2    1    2    0  502 -0.29310667082E+03 -0.31189775364E+03 -0.72304077309E+03  0.12994733176E+04  0.99128765467E+03 0.  0.
        -13    1    3    3    0    0  0.57297487759E+03  0.14655759091E+03 -0.18621106876E+03  0.62004347516E+03  0.10566000000E+00 0.  1.
          4    1    3    3  501    0 -0.27986820677E+03  0.16534016272E+03 -0.73063735453E+03  0.79968401659E+03  0.00000000000E+00 0.  1.
         13    1    4    4    0    0 -0.16590870006E+03  0.34679094164E+03 -0.40035231125E+03  0.55504201485E+03  0.10566000000E+00 0. -1.
         -4    1    4    4    0  502 -0.12719797076E+03 -0.65868869528E+03 -0.32268846185E+03  0.74443130272E+03  0.00000000000E+00 0. -1.
<mgrwt>
<rscale>  2 0.10829198E+04</rscale>
<asrwt>0</asrwt>
<pdfrwt beam="1">  1       21 0.83023971E-01 0.10839811E+04</pdfrwt>
<pdfrwt beam="2">  1       21 0.33531461E+00 0.10839811E+04</pdfrwt>
<totfact> 0.94782422E+00</totfact>
</mgrwt>
</event>
<event>
 8    1  0.5815007E-006  0.1115868E+04  0.7818608E-02  0.8681453E-01
         21   -1    0    0  503  502  0.00000000000E+00  0.00000000000E+00  0.10781248554E+04  0.10781248554E+04  0.00000000000E+00 0.  1.
         21   -1    0    0  501  503 -0.00000000000E+00 -0.00000000000E+00 -0.11135314589E+04  0.11135314589E+04  0.00000000000E+00 0.  1.
    9000010    2    1    2  501    0  0.22723102405E+03  0.39113749766E+03 -0.51679071462E+02  0.10756692241E+04  0.97456199026E+03 0.  0.
   -9000010    2    1    2    0  502 -0.22723102405E+03 -0.39113749766E+03  0.16272467963E+02  0.11159870903E+04  0.10200685820E+04 0.  0.
        -13    1    3    3    0    0 -0.18044531149E+03 -0.12415886940E+03  0.26704699319E+03  0.34538390673E+03  0.10566000000E+00 0.  1.
          4    1    3    3  501    0  0.40767633554E+03  0.51529636707E+03 -0.31872606465E+03  0.73028531737E+03  0.00000000000E+00 0.  1.
         13    1    4    4    0    0 -0.51712688213E+03 -0.55275276377E+03 -0.10170434441E+03  0.76374054162E+03  0.10566000000E+00 0. -1.
         -4    1    4    4    0  502  0.28989585808E+03  0.16161526611E+03  0.11797681237E+03  0.35224654864E+03  0.00000000000E+00 0. -1.
<mgrwt>
<rscale>  2 0.11053606E+04</rscale>
<asrwt>0</asrwt>
<pdfrwt beam="1">  1       21 0.16586536E+00 0.11158684E+04</pdfrwt>
<pdfrwt beam="2">  1       21 0.17131253E+00 0.11158684E+04</pdfrwt>
<totfact> 0.22050064E+01</totfact>
</mgrwt>
</event>
<event>
 8    1  0.5815007E-006  0.1082955E+04  0.7818608E-02  0.8705877E-01
         21   -1    0    0  503  502  0.00000000000E+00  0.00000000000E+00  0.79104334175E+03  0.79104334175E+03  0.00000000000E+00 0.  1.
         21   -1    0    0  501  503 -0.00000000000E+00 -0.00000000000E+00 -0.15936408697E+04  0.15936408697E+04  0.00000000000E+00 0.  1.
    9000010    2    1    2  501    0  0.36012827123E+02 -0.39439696207E+03 -0.75779823050E+03  0.13008033961E+04  0.98029864316E+03 0.  0.
   -9000010    2    1    2    0  502 -0.36012827123E+02  0.39439696207E+03 -0.44799297470E+02  0.10838808154E+04  0.10079408502E+04 0.  0.
        -13    1    3    3    0    0  0.87769452843E+02 -0.17086962245E+03  0.22253656227E+03  0.29397693351E+03  0.10566000000E+00 0.  1.
          4    1    3    3  501    0 -0.51756625720E+02 -0.22352733962E+03 -0.98033479277E+03  0.10068264626E+04  0.00000000000E+00 0.  1.
         13    1    4    4    0    0 -0.47637713435E+03 -0.19840567298E+02 -0.48887435783E+02  0.47928990682E+03  0.10566000000E+00 0. -1.
         -4    1    4    4    0  502  0.44036430723E+03  0.41423752936E+03  0.40881383131E+01  0.60459090854E+03  0.00000000000E+00 0. -1.
<mgrwt>
<rscale>  2 0.10764769E+04</rscale>
<asrwt>0</asrwt>
<pdfrwt beam="1">  1       21 0.12169898E+00 0.10829546E+04</pdfrwt>
<pdfrwt beam="2">  1       21 0.24517552E+00 0.10829546E+04</pdfrwt>
<totfact> 0.15140958E+01</totfact>
</mgrwt>
</event>
<event>
 8    1  0.5815007E-006  0.1112290E+04  0.7818608E-02  0.8676399E-01
         21   -1    0    0  501  502  0.00000000000E+00  0.00000000000E+00  0.14551991340E+04  0.14551991340E+04  0.00000000000E+00 0. -1.
         21   -1    0    0  502  503 -0.00000000000E+00 -0.00000000000E+00 -0.12497665026E+04  0.12497665026E+04  0.00000000000E+00 0. -1.
   -9000010    2    1    2    0  503 -0.50812138384E+03 -0.42571504479E+02 -0.66436590131E+03  0.12955967810E+04  0.98852885354E+03 0.  0.
    9000010    2    1    2  501    0  0.50812138384E+03  0.42571504479E+02  0.86979853270E+03  0.14093688557E+04  0.98476972445E+03 0.  0.
        -13    1    4    4    0    0  0.31832725195E+03 -0.26474012390E+03 -0.53937338224E+02  0.41752702926E+03  0.10566000000E+00 0.  1.
          4    1    4    4  501    0  0.18979413189E+03  0.30731162838E+03  0.92373587092E+03  0.99184182644E+03  0.00000000000E+00 0.  1.
         13    1    3    3    0    0 -0.65095716175E+03  0.13916338129E+03 -0.78955917828E+03  0.10327223152E+04  0.10566000000E+00 0. -1.
         -4    1    3    3    0  503  0.14283577791E+03 -0.18173488577E+03  0.12519327696E+03  0.26287446577E+03  0.00000000000E+00 0. -1.
<mgrwt>
<rscale>  2 0.11114541E+04</rscale>
<asrwt>0</asrwt>
<pdfrwt beam="1">  1       21 0.22387679E+00 0.11122900E+04</pdfrwt>
<pdfrwt beam="2">  1       21 0.19227177E+00 0.11122900E+04</pdfrwt>
<totfact> 0.51654140E+00</totfact>
</mgrwt>
</event>
<event>
 8    1  0.5815007E-006  0.1118510E+04  0.7818608E-02  0.8671901E-01
         21   -1    0    0  501  502  0.00000000000E+00  0.00000000000E+00  0.84710772538E+03  0.84710772538E+03  0.00000000000E+00 0. -1.
         21   -1    0    0  502  503 -0.00000000000E+00 -0.00000000000E+00 -0.16875908413E+04  0.16875908413E+04  0.00000000000E+00 0. -1.
   -9000010    2    1    2    0  503  0.46797092970E+03  0.16185537094E+03 -0.87796331723E+03  0.14219297790E+04  0.10029310833E+04 0.  0.
    9000010    2    1    2  501    0 -0.46797092970E+03 -0.16185537094E+03  0.37480201296E+02  0.11127687877E+04  0.99581908866E+03 0.  0.
        -13    1    4    4    0    0 -0.73342005984E+02  0.19894065272E+03 -0.37948977815E+03  0.43470557396E+03  0.10566000000E+00 0.  1.
          4    1    4    4  501    0 -0.39462892371E+03 -0.36079602365E+03  0.41696997945E+03  0.67806321378E+03  0.00000000000E+00 0.  1.
         13    1    3    3    0    0  0.76987464104E+02  0.14907434490E+03 -0.99857032781E+03  0.10125674993E+04  0.10566000000E+00 0. -1.
         -4    1    3    3    0  503  0.39098346559E+03  0.12781026037E+02  0.12060701058E+03  0.40936227964E+03  0.00000000000E+00 0. -1.
<mgrwt>
<rscale>  2 0.11169135E+04</rscale>
<asrwt>0</asrwt>
<pdfrwt beam="1">  1       21 0.13032427E+00 0.11185100E+04</pdfrwt>
<pdfrwt beam="2">  1       21 0.25962936E+00 0.11185100E+04</pdfrwt>
<totfact> 0.97004177E+00</totfact>
</mgrwt>
</event>
<event>
 8    1  0.5815007E-006  0.1044603E+04  0.7818608E-02  0.8736182E-01
         21   -1    0    0  501  502  0.00000000000E+00  0.00000000000E+00  0.96322975500E+03  0.96322975500E+03  0.00000000000E+00 0. -1.
         21   -1    0    0  502  503 -0.00000000000E+00 -0.00000000000E+00 -0.11800033139E+04  0.11800033139E+04  0.00000000000E+00 0. -1.
   -9000010    2    1    2    0  503 -0.30927753747E+03  0.12249493817E+03 -0.34700735980E+03  0.10905429903E+04  0.97888319060E+03 0.  0.
    9000010    2    1    2  501    0  0.30927753747E+03 -0.12249493817E+03  0.13023380087E+03  0.10526900786E+04  0.99022116405E+03 0.  0.
        -13    1    4    4    0    0 -0.41428034801E+02  0.37991578937E+03 -0.10507691912E+03  0.39635017242E+03  0.10566000000E+00 0.  1.
          4    1    4    4  501    0  0.35070557227E+03 -0.50241072754E+03  0.23531071999E+03  0.65633990623E+03  0.00000000000E+00 0.  1.
         13    1    3    3    0    0  0.31573273118E+03 -0.28918147698E+02  0.69201415500E+02  0.32451851083E+03  0.10566000000E+00 0. -1.
         -4    1    3    3    0  503 -0.62501026864E+03  0.15141308586E+03 -0.41620877530E+03  0.76602447945E+03  0.00000000000E+00 0. -1.
<mgrwt>
<rscale>  2 0.10419073E+04</rscale>
<asrwt>0</asrwt>
<pdfrwt beam="1">  1       21 0.14818919E+00 0.10446031E+04</pdfrwt>
<pdfrwt beam="2">  1       21 0.18153897E+00 0.10446031E+04</pdfrwt>
<totfact> 0.26303296E+01</totfact>
</mgrwt>
</event>
<event>
 8    1  0.5815007E-006  0.1244310E+04  0.7818608E-02  0.8575253E-01
         21   -1    0    0  501  502  0.00000000000E+00  0.00000000000E+00  0.13109355489E+04  0.13109355489E+04  0.00000000000E+00 0. -1.
         21   -1    0    0  502  503 -0.00000000000E+00 -0.00000000000E+00 -0.16059674606E+04  0.16059674606E+04  0.00000000000E+00 0. -1.
   -9000010    2    1    2    0  503 -0.50626027551E+03  0.50271405963E+03 -0.90414929769E+03  0.15381134403E+04  0.10194538295E+04 0.  0.
    9000010    2    1    2  501    0  0.50626027551E+03 -0.50271405963E+03  0.60911738600E+03  0.13787895692E+04  0.10104532616E+04 0.  0.
        -13    1    4    4    0    0  0.15421519368E+03 -0.65292946619E+03  0.13790060038E+02  0.67103605767E+03  0.10566000000E+00 0.  1.
          4    1    4    4  501    0  0.35204508183E+03  0.15021540655E+03  0.59532732596E+03  0.70775351150E+03  0.00000000000E+00 0.  1.
         13    1    3    3    0    0 -0.76602606835E+03  0.58426865790E+03 -0.62625208338E+03  0.11490680942E+04  0.10566000000E+00 0. -1.
         -4    1    3    3    0  503  0.25976579284E+03 -0.81554598266E+02 -0.27789721431E+03  0.38904534614E+03  0.00000000000E+00 0. -1.
<mgrwt>
<rscale>  2 0.12424649E+04</rscale>
<asrwt>0</asrwt>
<pdfrwt beam="1">  1       21 0.20168239E+00 0.12443098E+04</pdfrwt>
<pdfrwt beam="2">  1       21 0.24707192E+00 0.12443098E+04</pdfrwt>
<totfact> 0.28484697E+00</totfact>
</mgrwt>
</event>
<event>
 8    1  0.5815007E-006  0.1092775E+04  0.7818608E-02  0.8692366E-01
         21   -1    0    0  503  502  0.00000000000E+00  0.00000000000E+00  0.15673451472E+04  0.15673451472E+04  0.00000000000E+00 0. -1.
         21   -1    0    0  501  503 -0.00000000000E+00 -0.00000000000E+00 -0.82563034231E+03  0.82563034231E+03  0.00000000000E+00 0. -1.
    9000010    2    1    2  501    0  0.42761262109E+03 -0.12774166678E+03  0.35005912470E+02  0.10915935195E+04  0.99558048933E+03 0.  0.
   -9000010    2    1    2    0  502 -0.42761262109E+03  0.12774166678E+03  0.70670889244E+03  0.13013819700E+04  0.99749039401E+03 0.  0.
        -13    1    3    3    0    0  0.62245519537E+03  0.12571131235E+03  0.27483347633E+03  0.69194454631E+03  0.10566000000E+00 0.  1.
          4    1    3    3  501    0 -0.19484257428E+03 -0.25345297913E+03 -0.23982756386E+03  0.39964897318E+03  0.00000000000E+00 0.  1.
         13    1    4    4    0    0 -0.59519787153E+03 -0.21430032925E+03  0.19205757879E+03  0.66111365296E+03  0.10566000000E+00 0. -1.
         -4    1    4    4    0  502  0.16758525044E+03  0.34204199603E+03  0.51465131365E+03  0.64026831708E+03  0.00000000000E+00 0. -1.
<mgrwt>
<rscale>  2 0.10923391E+04</rscale>
<asrwt>0</asrwt>
<pdfrwt beam="1">  1       21 0.24113002E+00 0.10927752E+04</pdfrwt>
<pdfrwt beam="2">  1       21 0.12702005E+00 0.10927752E+04</pdfrwt>
<totfact> 0.14322372E+01</totfact>
</mgrwt>
</event>
<event>
 8    1  0.5815007E-006  0.1186363E+04  0.7818608E-02  0.8619794E-01
         21   -1    0    0  503  502  0.00000000000E+00  0.00000000000E+00  0.12188328679E+04  0.12188328679E+04  0.00000000000E+00 0. -1.
         21   -1    0    0  501  503 -0.00000000000E+00 -0.00000000000E+00 -0.11648464418E+04  0.11648464418E+04  0.00000000000E+00 0. -1.
    9000010    2    1    2  501    0  0.61794005024E+03  0.73901791565E+02 -0.14634808070E+03  0.11953559380E+04  0.10100231073E+04 0.  0.
   -9000010    2    1    2    0  502 -0.61794005024E+03 -0.73901791565E+02  0.20033450686E+03  0.11883233717E+04  0.99230395571E+03 0.  0.
        -13    1    3    3    0    0  0.60604775527E+03 -0.31975445792E+03  0.15125427804E+03  0.70172263952E+03  0.10566000000E+00 0.  1.
          4    1    3    3  501    0  0.11892294968E+02  0.39365624949E+03 -0.29760235875E+03  0.49363329848E+03  0.00000000000E+00 0.  1.
         13    1    4    4    0    0 -0.57754371647E+03 -0.26043975643E+03  0.51757838426E+03  0.81809107450E+03  0.10566000000E+00 0. -1.
         -4    1    4    4    0  502 -0.40396333772E+02  0.18653796486E+03 -0.31724387740E+03  0.37023229716E+03  0.00000000000E+00 0. -1.
<mgrwt>
<rscale>  2 0.11825832E+04</rscale>
<asrwt>0</asrwt>
<pdfrwt beam="1">  1       21 0.18751275E+00 0.11863634E+04</pdfrwt>
<pdfrwt beam="2">  1       21 0.17920715E+00 0.11863634E+04</pdfrwt>
<totfact> 0.12388800E+01</totfact>
</mgrwt>
</event>
<event>
 8    1  0.5815007E-006  0.1139953E+04  0.7818608E-02  0.8658579E-01
         21   -1    0    0  503  502  0.00000000000E+00  0.00000000000E+00  0.78398395297E+03  0.78398395297E+03  0.00000000000E+00 0. -1.
         21   -1    0    0  501  503 -0.00000000000E+00 -0.00000000000E+00 -0.16480962200E+04  0.16480962200E+04  0.00000000000E+00 0. -1.
    9000010    2    1    2  501    0  0.49120029164E+03  0.39951544670E+02 -0.59789632120E+03  0.12872344107E+04  0.10279195323E+04 0.  0.
   -9000010    2    1    2    0  502 -0.49120029164E+03 -0.39951544670E+02 -0.26621594587E+03  0.11448457623E+04  0.99846233638E+03 0.  0.
        -13    1    3    3    0    0 -0.19944632963E+03 -0.17191302425E+03  0.10105919616E+03  0.28203882463E+03  0.10566000000E+00 0.  1.
          4    1    3    3  501    0  0.69064662126E+03  0.21186456892E+03 -0.69895551735E+03  0.10051955861E+04  0.00000000000E+00 0.  1.
         13    1    4    4    0    0 -0.21433153971E+03 -0.10080906304E+03  0.37512781066E+03  0.44364553598E+03  0.10566000000E+00 0. -1.
         -4    1    4    4    0  502 -0.27686875192E+03  0.60857518368E+02 -0.64134375652E+03  0.70120022630E+03  0.00000000000E+00 0. -1.
<mgrwt>
<rscale>  2 0.11332720E+04</rscale>
<asrwt>0</asrwt>
<pdfrwt beam="1">  1       21 0.12061292E+00 0.11399528E+04</pdfrwt>
<pdfrwt beam="2">  1       21 0.25355326E+00 0.11399528E+04</pdfrwt>
<totfact> 0.13326673E+01</totfact>
</mgrwt>
</event>
<event>
 8    1  0.5815007E-006  0.1056236E+04  0.7818608E-02  0.8729764E-01
         21   -1    0    0  501  502  0.00000000000E+00  0.00000000000E+00  0.14409305176E+04  0.14409305176E+04  0.00000000000E+00 0. -1.
         21   -1    0    0  502  503 -0.00000000000E+00 -0.00000000000E+00 -0.75604546037E+03  0.75604546037E+03  0.00000000000E+00 0. -1.
   -9000010    2    1    2    0  503 -0.26205547112E+03 -0.59254380701E+02  0.27682246898E+03  0.10646558221E+04  0.99230901867E+03 0.  0.
    9000010    2    1    2  501    0  0.26205547112E+03  0.59254380701E+02  0.40806258822E+03  0.11323201559E+04  0.10214938610E+04 0.  0.
        -13    1    4    4    0    0  0.21064796423E+03  0.37661140447E+03 -0.17567328641E+03  0.46590753324E+03  0.10566000000E+00 0.  1.
          4    1    4    4  501    0  0.51407506892E+02 -0.31735702377E+03  0.58373587463E+03  0.66641262265E+03  0.00000000000E+00 0.  1.
         13    1    3    3    0    0 -0.90026872168E+01  0.12614844635E+03 -0.34540065776E+03  0.36782618781E+03  0.10566000000E+00 0. -1.
         -4    1    3    3    0  503 -0.25305278390E+03 -0.18540282705E+03  0.62222312674E+03  0.69682963425E+03  0.00000000000E+00 0. -1.
<mgrwt>
<rscale>  2 0.10491145E+04</rscale>
<asrwt>0</asrwt>
<pdfrwt beam="1">  1       21 0.22168162E+00 0.10562357E+04</pdfrwt>
<pdfrwt beam="2">  1       21 0.11631469E+00 0.10562357E+04</pdfrwt>
<totfact> 0.25792304E+01</totfact>
</mgrwt>
</event>
<event>
 8    1  0.5815007E-006  0.1296183E+04  0.7818608E-02  0.8543381E-01
         21   -1    0    0  503  502  0.00000000000E+00  0.00000000000E+00  0.93335861421E+03  0.93335861421E+03  0.00000000000E+00 0.  1.
         21   -1    0    0  501  503 -0.00000000000E+00 -0.00000000000E+00 -0.18302532023E+04  0.18302532023E+04  0.00000000000E+00 0. -1.
    9000010    2    1    2  501    0 -0.75525147033E+03 -0.35012568452E+03 -0.73800043941E+03  0.14915549647E+04  0.99352845242E+03 0.  0.
   -9000010    2    1    2    0  502  0.75525147033E+03  0.35012568452E+03 -0.15889414870E+03  0.12720568518E+04  0.94862453341E+03 0.  0.
        -13    1    3    3    0    0 -0.75242161616E+03 -0.57462941395E+03 -0.82003571869E+03  0.12525158055E+04  0.10566000000E+00 0.  1.
          4    1    3    3  501    0 -0.28298541675E+01  0.22450372943E+03  0.82035279281E+02  0.23903915924E+03  0.00000000000E+00 0.  1.
         13    1    4    4    0    0  0.71286239385E+03  0.27570445217E+03 -0.50462347209E+03  0.91587695531E+03  0.10566000000E+00 0. -1.
         -4    1    4    4    0  502  0.42389076480E+02  0.74421232344E+02  0.34572932339E+03  0.35617989651E+03  0.00000000000E+00 0. -1.
<mgrwt>
<rscale>  2 0.12875757E+04</rscale>
<asrwt>0</asrwt>
<pdfrwt beam="1">  1       21 0.14359363E+00 0.12961835E+04</pdfrwt>
<pdfrwt beam="2">  1       21 0.28157741E+00 0.12961835E+04</pdfrwt>
<totfact> 0.48836082E+00</totfact>
</mgrwt>
</event>
<event>
 8    1  0.5815007E-006  0.1181132E+04  0.7818608E-02  0.8639834E-01
         21   -1    0    0  503  502  0.00000000000E+00  0.00000000000E+00  0.13864564787E+04  0.13864564787E+04  0.00000000000E+00 0.  1.
         21   -1    0    0  501  503 -0.00000000000E+00 -0.00000000000E+00 -0.96140870281E+03  0.96140870281E+03  0.00000000000E+00 0.  1.
    9000010    2    1    2  501    0  0.47022885080E+03 -0.29361092381E+03  0.44170282662E+03  0.12610208275E+04  0.10429523448E+04 0.  0.
   -9000010    2    1    2    0  502 -0.47022885080E+03  0.29361092381E+03 -0.16655050689E+02  0.10868443541E+04  0.93468214521E+03 0.  0.
        -13    1    3    3    0    0  0.21825022038E+03  0.36976861459E+03  0.33245678824E+03  0.54303730465E+03  0.10566000000E+00 0.  1.
          4    1    3    3  501    0  0.25197863041E+03 -0.66337953839E+03  0.10924603838E+03  0.71798352283E+03  0.00000000000E+00 0.  1.
         13    1    4    4    0    0 -0.33347253411E+02 -0.28727600736E+03  0.17125624626E+03  0.33610750774E+03  0.10566000000E+00 0. -1.
         -4    1    4    4    0  502 -0.43688159739E+03  0.58088693116E+03 -0.18791129695E+03  0.75073684634E+03  0.00000000000E+00 0. -1.
<mgrwt>
<rscale>  2 0.11567855E+04</rscale>
<asrwt>0</asrwt>
<pdfrwt beam="1">  1       21 0.21330100E+00 0.11811317E+04</pdfrwt>
<pdfrwt beam="2">  1       21 0.14790903E+00 0.11811317E+04</pdfrwt>
<totfact> 0.14458513E+01</totfact>
</mgrwt>
</event>
<event>
 8    1  0.5815007E-006  0.1150122E+04  0.7818608E-02  0.8647111E-01
         21   -1    0    0  501  502  0.00000000000E+00  0.00000000000E+00  0.17093011128E+04  0.17093011128E+04  0.00000000000E+00 0. -1.
         21   -1    0    0  502  503 -0.00000000000E+00 -0.00000000000E+00 -0.96042324844E+03  0.96042324844E+03  0.00000000000E+00 0. -1.
   -9000010    2    1    2    0  503  0.38904048869E+03  0.40119060770E+03  0.97466129236E+03  0.15075625769E+04  0.10052233001E+04 0.  0.
    9000010    2    1    2  501    0 -0.38904048869E+03 -0.40119060770E+03 -0.22578342801E+03  0.11621617843E+04  0.99364754863E+03 0.  0.
        -13    1    4    4    0    0  0.61062106583E+02 -0.32416831991E+03 -0.52226097454E+03  0.61771370163E+03  0.10566000000E+00 0.  1.
          4    1    4    4  501    0 -0.45010259528E+03 -0.77022287798E+02  0.29647754653E+03  0.54444808264E+03  0.00000000000E+00 0.  1.
         13    1    3    3    0    0  0.22535505969E+03  0.37480124160E+03  0.11713426114E+04  0.12503217179E+04  0.10566000000E+00 0. -1.
         -4    1    3    3    0  503  0.16368542901E+03  0.26389366108E+02 -0.19668131908E+03  0.25724085909E+03  0.00000000000E+00 0. -1.
<mgrwt>
<rscale>  2 0.11475876E+04</rscale>
<asrwt>0</asrwt>
<pdfrwt beam="1">  1       21 0.26296940E+00 0.11501219E+04</pdfrwt>
<pdfrwt beam="2">  1       21 0.14775742E+00 0.11501219E+04</pdfrwt>
<totfact> 0.62715311E+00</totfact>
</mgrwt>
</event>
<event>
 8    1  0.5815007E-006  0.1475096E+04  0.7818608E-02  0.8424205E-01
         21   -1    0    0  501  502  0.00000000000E+00  0.00000000000E+00  0.13532563031E+04  0.13532563031E+04  0.00000000000E+00 0. -1.
         21   -1    0    0  502  503 -0.00000000000E+00 -0.00000000000E+00 -0.18054432177E+04  0.18054432177E+04  0.00000000000E+00 0.  1.
   -9000010    2    1    2    0  503  0.79445000967E+03  0.73832336577E+03 -0.75062488802E+03  0.16537167349E+04  0.99753150648E+03 0.  0.
    9000010    2    1    2  501    0 -0.79445000967E+03 -0.73832336577E+03  0.29843797342E+03  0.15049827860E+04  0.99981785929E+03 0.  0.
        -13    1    4    4    0    0  0.10629753518E+03  0.16696137357E+03  0.46234997730E+02  0.20325587920E+03  0.10566000000E+00 0.  1.
          4    1    4    4  501    0 -0.90074754485E+03 -0.90528473934E+03  0.25220297569E+03  0.13017269068E+04  0.00000000000E+00 0.  1.
         13    1    3    3    0    0 -0.78286329143E+01 -0.20613390681E+02 -0.52633878980E+03  0.52680046715E+03  0.10566000000E+00 0. -1.
         -4    1    3    3    0  503  0.80227864258E+03  0.75893675645E+03 -0.22428609821E+03  0.11269162677E+04  0.00000000000E+00 0. -1.
<mgrwt>
<rscale>  2 0.14747086E+04</rscale>
<asrwt>0</asrwt>
<pdfrwt beam="1">  1       21 0.20819328E+00 0.14750959E+04</pdfrwt>
<pdfrwt beam="2">  1       21 0.27776049E+00 0.14750959E+04</pdfrwt>
<totfact> 0.14541958E+00</totfact>
</mgrwt>
</event>
<event>
 8    1  0.5815007E-006  0.1279207E+04  0.7818608E-02  0.8549804E-01
         21   -1    0    0  503  502  0.00000000000E+00  0.00000000000E+00  0.25845094911E+04  0.25845094911E+04  0.00000000000E+00 0.  1.
         21   -1    0    0  501  503 -0.00000000000E+00 -0.00000000000E+00 -0.66059349049E+03  0.66059349049E+03  0.00000000000E+00 0.  1.
    9000010    2    1    2  501    0  0.78001813595E+03  0.20977909645E+03  0.62217697926E+03  0.14224889426E+04  0.99193499609E+03 0.  0.
   -9000010    2    1    2    0  502 -0.78001813595E+03 -0.20977909645E+03  0.13017390214E+04  0.18226140391E+04  0.98740158692E+03 0.  0.
        -13    1    3    3    0    0  0.42743091762E+03 -0.31791451586E+03  0.57840550463E+03  0.78633311496E+03  0.10566000000E+00 0.  1.
          4    1    3    3  501    0  0.35258721833E+03  0.52769361231E+03  0.43771474626E+02  0.63615582760E+03  0.00000000000E+00 0.  1.
         13    1    4    4    0    0 -0.63453732732E+03 -0.37775064715E+03  0.30092364976E+03  0.79742599991E+03  0.10566000000E+00 0. -1.
         -4    1    4    4    0  502 -0.14548080863E+03  0.16797155070E+03  0.10008153716E+04  0.10251880392E+04  0.00000000000E+00 0. -1.
<mgrwt>
<rscale>  2 0.12783281E+04</rscale>
<asrwt>0</asrwt>
<pdfrwt beam="1">  1       21 0.39761684E+00 0.12792070E+04</pdfrwt>
<pdfrwt beam="2">  1       21 0.10162977E+00 0.12792070E+04</pdfrwt>
<totfact> 0.19842963E+00</totfact>
</mgrwt>
</event>
<event>
 8    1  0.5815007E-006  0.1042270E+04  0.7818608E-02  0.8738432E-01
         21   -1    0    0  501  502  0.00000000000E+00  0.00000000000E+00  0.15609368521E+04  0.15609368521E+04  0.00000000000E+00 0.  1.
         21   -1    0    0  502  503 -0.00000000000E+00 -0.00000000000E+00 -0.69119863176E+03  0.69119863176E+03  0.00000000000E+00 0.  1.
   -9000010    2    1    2    0  503 -0.20744258486E+02  0.22909635400E+03  0.36458302897E+03  0.11041952587E+04  0.10165682075E+04 0.  0.
    9000010    2    1    2  501    0  0.20744258486E+02 -0.22909635400E+03  0.50515519138E+03  0.11479402252E+04  0.10048231335E+04 0.  0.
        -13    1    4    4    0    0 -0.34183293600E+03 -0.26834047221E+03 -0.95774245899E+02  0.44500458705E+03  0.10566000000E+00 0.  1.
          4    1    4    4  501    0  0.36257719448E+03  0.39244118203E+02  0.60092943728E+03  0.70293563814E+03  0.00000000000E+00 0.  1.
         13    1    3    3    0    0  0.10979057797E+03  0.60880431697E+03  0.33013025777E+03  0.70120087396E+03  0.10566000000E+00 0. -1.
         -4    1    3    3    0  503 -0.13053483645E+03 -0.37970796297E+03  0.34452771194E+02  0.40299438472E+03  0.00000000000E+00 0. -1.
<mgrwt>
<rscale>  2 0.10393949E+04</rscale>
<asrwt>0</asrwt>
<pdfrwt beam="1">  1       21 0.24014413E+00 0.10422698E+04</pdfrwt>
<pdfrwt beam="2">  1       21 0.10633825E+00 0.10422698E+04</pdfrwt>
<totfact> 0.24079896E+01</totfact>
</mgrwt>
</event>
<event>
 8    1  0.5815007E-006  0.1296500E+04  0.7818608E-02  0.8538834E-01
         21   -1    0    0  503  502  0.00000000000E+00  0.00000000000E+00  0.13505646708E+04  0.13505646708E+04  0.00000000000E+00 0.  1.
         21   -1    0    0  501  503 -0.00000000000E+00 -0.00000000000E+00 -0.12572172004E+04  0.12572172004E+04  0.00000000000E+00 0.  1.
    9000010    2    1    2  501    0  0.54823200144E+03 -0.62213361672E+03  0.21744179462E+03  0.13146078143E+04  0.99664648036E+03 0.  0.
   -9000010    2    1    2    0  502 -0.54823200144E+03  0.62213361672E+03 -0.12409432418E+03  0.12931740569E+04  0.98452586339E+03 0.  0.
        -13    1    3    3    0    0  0.65087129317E+03 -0.21662731926E+03 -0.20915393350E+03  0.71715145875E+03  0.10566000000E+00 0.  1.
          4    1    3    3  501    0 -0.10263929174E+03 -0.40550629746E+03  0.42659572812E+03  0.59745635551E+03  0.00000000000E+00 0.  1.
         13    1    4    4    0    0 -0.80910411170E+03  0.30801613389E+03  0.22567181330E+01  0.86575314394E+03  0.10566000000E+00 0. -1.
         -4    1    4    4    0  502  0.26087211027E+03  0.31411748283E+03 -0.12635104231E+03  0.42742091295E+03  0.00000000000E+00 0. -1.
<mgrwt>
<rscale>  2 0.12941704E+04</rscale>
<asrwt>0</asrwt>
<pdfrwt beam="1">  1       21 0.20777918E+00 0.12965002E+04</pdfrwt>
<pdfrwt beam="2">  1       21 0.19341803E+00 0.12965002E+04</pdfrwt>
<totfact> 0.64485712E+00</totfact>
</mgrwt>
</event>
<event>
 8    1  0.5815007E-006  0.1067181E+04  0.7818608E-02  0.8720449E-01
         21   -1    0    0  503  502  0.00000000000E+00  0.00000000000E+00  0.10505642225E+04  0.10505642225E+04  0.00000000000E+00 0. -1.
         21   -1    0    0  501  503 -0.00000000000E+00 -0.00000000000E+00 -0.12038994197E+04  0.12038994197E+04  0.00000000000E+00 0. -1.
    9000010    2    1    2  501    0 -0.13134489375E+03  0.24163039738E+03 -0.47517271883E+03  0.11681884272E+04  0.10311345007E+04 0.  0.
   -9000010    2    1    2    0  502  0.13134489375E+03 -0.24163039738E+03  0.32183752160E+03  0.10862752151E+04  0.10003887857E+04 0.  0.
        -13    1    3    3    0    0 -0.36944229944E+03 -0.22317606769E+03 -0.48053884024E+03  0.64592008635E+03  0.10566000000E+00 0.  1.
          4    1    3    3  501    0  0.23809740569E+03  0.46480646507E+03  0.53661214074E+01  0.52226834083E+03  0.00000000000E+00 0.  1.
         13    1    4    4    0    0  0.30149281447E+03  0.45242554618E+02 -0.26979369062E+03  0.40710373689E+03  0.10566000000E+00 0. -1.
         -4    1    4    4    0  502 -0.17014792072E+03 -0.28687295200E+03  0.59163121221E+03  0.67917147818E+03  0.00000000000E+00 0. -1.
<mgrwt>
<rscale>  2 0.10596830E+04</rscale>
<asrwt>0</asrwt>
<pdfrwt beam="1">  1       21 0.16162527E+00 0.10671809E+04</pdfrwt>
<pdfrwt beam="2">  1       21 0.18521530E+00 0.10671809E+04</pdfrwt>
<totfact> 0.18624479E+01</totfact>
</mgrwt>
</event>
<event>
 8    1  0.5815007E-006  0.1214985E+04  0.7818608E-02  0.8600964E-01
         21   -1    0    0  503  502  0.00000000000E+00  0.00000000000E+00  0.58292535009E+03  0.58292535009E+03  0.00000000000E+00 0.  1.
         21   -1    0    0  501  503 -0.00000000000E+00 -0.00000000000E+00 -0.26102433136E+04  0.26102433136E+04  0.00000000000E+00 0.  1.
    9000010    2    1    2  501    0  0.49597216913E+03  0.44656369777E+03 -0.63251845894E+03  0.13433971561E+04  0.97940226122E+03 0.  0.
   -9000010    2    1    2    0  502 -0.49597216913E+03 -0.44656369777E+03 -0.13947995046E+04  0.18497715077E+04  0.10152740732E+04 0.  0.
        -13    1    3    3    0    0  0.31225657779E+03 -0.26276654143E+03 -0.40790824861E+03  0.57700916468E+03  0.10566000000E+00 0.  1.
          4    1    3    3  501    0  0.18371559134E+03  0.70933023920E+03 -0.22461021033E+03  0.76638799138E+03  0.00000000000E+00 0.  1.
         13    1    4    4    0    0  0.71628157398E+02 -0.94615049821E+02 -0.11221392726E+04  0.11283967205E+04  0.10566000000E+00 0. -1.
         -4    1    4    4    0  502 -0.56760032653E+03 -0.35194864795E+03 -0.27266023206E+03  0.72137478720E+03  0.00000000000E+00 0. -1.
<mgrwt>
<rscale>  2 0.12074627E+04</rscale>
<asrwt>0</asrwt>
<pdfrwt beam="1">  1       21 0.89680824E-01 0.12149852E+04</pdfrwt>
<pdfrwt beam="2">  1       21 0.40157589E+00 0.12149852E+04</pdfrwt>
<totfact> 0.26059047E+00</totfact>
</mgrwt>
</event>
<event>
 8    1  0.5815007E-006  0.1491628E+04  0.7818608E-02  0.8418238E-01
         21   -1    0    0  503  502  0.00000000000E+00  0.00000000000E+00  0.13537907182E+04  0.13537907182E+04  0.00000000000E+00 0. -1.
         21   -1    0    0  501  503 -0.00000000000E+00 -0.00000000000E+00 -0.16430693839E+04  0.16430693839E+04  0.00000000000E+00 0.  1.
    9000010    2    1    2  501    0 -0.78458655484E+03 -0.78463714664E+03 -0.34192859674E+03  0.15043029684E+04  0.95644170842E+03 0.  0.
   -9000010    2    1    2    0  502  0.78458655484E+03  0.78463714664E+03  0.52649931000E+02  0.14925571337E+04  0.99685669386E+03 0.  0.
        -13    1    3    3    0    0 -0.13939141283E+03 -0.14920421198E+03  0.32210028286E+03  0.38136657723E+03  0.10566000000E+00 0.  1.
          4    1    3    3  501    0 -0.64519514201E+03 -0.63543293465E+03 -0.66402887960E+03  0.11229363912E+04  0.00000000000E+00 0.  1.
         13    1    4    4    0    0  0.84660618657E+02 -0.17225258434E+03  0.22367191056E+03  0.29473294336E+03  0.10566000000E+00 0. -1.
         -4    1    4    4    0  502  0.69992593618E+03  0.95688973097E+03 -0.17102197956E+03  0.11978241903E+04  0.00000000000E+00 0. -1.
<mgrwt>
<rscale>  2 0.14849077E+04</rscale>
<asrwt>0</asrwt>
<pdfrwt beam="1">  1       21 0.20827550E+00 0.14916282E+04</pdfrwt>
<pdfrwt beam="2">  1       21 0.25277990E+00 0.14916282E+04</pdfrwt>
<totfact> 0.21930096E+00</totfact>
</mgrwt>
</event>
<event>
 8    1  0.5815007E-006  0.1384803E+04  0.7818608E-02  0.8483371E-01
         21   -1    0    0  503  502  0.00000000000E+00  0.00000000000E+00  0.18924097466E+04  0.18924097466E+04  0.00000000000E+00 0.  1.
         21   -1    0    0  501  503 -0.00000000000E+00 -0.00000000000E+00 -0.99518526821E+03  0.99518526821E+03  0.00000000000E+00 0. -1.
    9000010    2    1    2  501    0 -0.56505380012E+03 -0.70177490863E+03  0.50062610274E+03  0.14471195860E+04  0.10157533077E+04 0.  0.
   -9000010    2    1    2    0  502  0.56505380012E+03  0.70177490863E+03  0.39659837564E+03  0.14404754288E+04  0.10516203545E+04 0.  0.
        -13    1    3    3    0    0  0.63832310920E+01  0.22446068720E+03 -0.46025072974E+02  0.22921968555E+03  0.10566000000E+00 0.  1.
          4    1    3    3  501    0 -0.57143703121E+03 -0.92623559583E+03  0.54665117571E+03  0.12178999005E+04  0.00000000000E+00 0.  1.
         13    1    4    4    0    0 -0.18240937795E+03  0.59341270518E+03  0.98892107486E+02  0.62864256929E+03  0.10566000000E+00 0. -1.
         -4    1    4    4    0  502  0.74746317806E+03  0.10836220345E+03  0.29770626815E+03  0.81183285952E+03  0.00000000000E+00 0. -1.
<mgrwt>
<rscale>  2 0.13779937E+04</rscale>
<asrwt>0</asrwt>
<pdfrwt beam="1">  1       21 0.29113996E+00 0.13848029E+04</pdfrwt>
<pdfrwt beam="2">  1       21 0.15310543E+00 0.13848029E+04</pdfrwt>
<totfact> 0.33705161E+00</totfact>
</mgrwt>
</event>
<event>
 8    1  0.5815007E-006  0.1107499E+04  0.7818608E-02  0.8683597E-01
         21   -1    0    0  501  502  0.00000000000E+00  0.00000000000E+00  0.11078353713E+04  0.11078353713E+04  0.00000000000E+00 0. -1.
         21   -1    0    0  502  503 -0.00000000000E+00 -0.00000000000E+00 -0.11360257953E+04  0.11360257953E+04  0.00000000000E+00 0. -1.
   -9000010    2    1    2    0  503  0.37232911081E+03  0.25922698222E+03 -0.24362664709E+03  0.11339788797E+04  0.10103101312E+04 0.  0.
    9000010    2    1    2  501    0 -0.37232911081E+03 -0.25922698222E+03  0.21543622315E+03  0.11098822869E+04  0.98974659866E+03 0.  0.
        -13    1    4    4    0    0 -0.44663209836E+01 -0.43767059369E+03  0.45878732347E+03  0.63408305130E+03  0.10566000000E+00 0.  1.
          4    1    4    4  501    0 -0.36786278982E+03  0.17844361147E+03 -0.24335110032E+03  0.47579923564E+03  0.00000000000E+00 0.  1.
         13    1    3    3    0    0  0.59481647064E+03 -0.19948949427E+02  0.13848995805E+03  0.61105161318E+03  0.10566000000E+00 0. -1.
         -4    1    3    3    0  503 -0.22248735984E+03  0.27917593165E+03 -0.38211660514E+03  0.52292726647E+03  0.00000000000E+00 0. -1.
<mgrwt>
<rscale>  2 0.11027875E+04</rscale>
<asrwt>0</asrwt>
<pdfrwt beam="1">  1       21 0.17043621E+00 0.11074991E+04</pdfrwt>
<pdfrwt beam="2">  1       21 0.17477320E+00 0.11074991E+04</pdfrwt>
<totfact> 0.18915675E+01</totfact>
</mgrwt>
</event>
<event>
 8    1  0.5815007E-006  0.1108016E+04  0.7818608E-02  0.8683651E-01
         21   -1    0    0  503  502  0.00000000000E+00  0.00000000000E+00  0.85267867447E+03  0.85267867447E+03  0.00000000000E+00 0. -1.
         21   -1    0    0  501  503 -0.00000000000E+00 -0.00000000000E+00 -0.17902374861E+04  0.17902374861E+04  0.00000000000E+00 0. -1.
    9000010    2    1    2  501    0 -0.36658710925E+02 -0.45569044557E+03 -0.10721177726E+04  0.15267598524E+04  0.98618531995E+03 0.  0.
   -9000010    2    1    2    0  502  0.36658710925E+02  0.45569044557E+03  0.13455896094E+03  0.11161563082E+04  0.10093072610E+04 0.  0.
        -13    1    3    3    0    0  0.42790224691E+03 -0.30790911273E+03 -0.82794259209E+03  0.98152804421E+03  0.10566000000E+00 0.  1.
          4    1    3    3  501    0 -0.46456095784E+03 -0.14778133283E+03 -0.24417518052E+03  0.54523180819E+03  0.00000000000E+00 0.  1.
         13    1    4    4    0    0  0.28949223362E+03  0.69672710832E+03  0.13708284424E+03  0.76682862111E+03  0.10566000000E+00 0. -1.
         -4    1    4    4    0  502 -0.25283352270E+03 -0.24103666276E+03 -0.25238833069E+01  0.34932768711E+03  0.00000000000E+00 0. -1.
<mgrwt>
<rscale>  2 0.11027228E+04</rscale>
<asrwt>0</asrwt>
<pdfrwt beam="1">  1       21 0.13118134E+00 0.11080157E+04</pdfrwt>
<pdfrwt beam="2">  1       21 0.27542115E+00 0.11080157E+04</pdfrwt>
<totfact> 0.73479042E+00</totfact>
</mgrwt>
</event>
<event>
 8    1  0.5815007E-006  0.1106021E+04  0.7818608E-02  0.8691735E-01
         21   -1    0    0  503  502  0.00000000000E+00  0.00000000000E+00  0.20492349749E+04  0.20492349749E+04  0.00000000000E+00 0.  1.
         21   -1    0    0  501  503 -0.00000000000E+00 -0.00000000000E+00 -0.58033964060E+03  0.58033964060E+03  0.00000000000E+00 0.  1.
    9000010    2    1    2  501    0  0.25888706136E+03 -0.28797052613E+03  0.92834896652E+03  0.14439928459E+04  0.10360183400E+04 0.  0.
   -9000010    2    1    2    0  502 -0.25888706136E+03  0.28797052613E+03  0.54054636780E+03  0.11855817696E+04  0.98156213368E+03 0.  0.
        -13    1    3    3    0    0 -0.32299922015E+03  0.18201857677E+02  0.65767943592E+03  0.73294069026E+03  0.10566000000E+00 0.  1.
          4    1    3    3  501    0  0.58188628151E+03 -0.30617238381E+03  0.27066953060E+03  0.71105215562E+03  0.00000000000E+00 0.  1.
         13    1    4    4    0    0 -0.29575755723E+03 -0.30002743582E+03  0.60497412592E+02  0.42561595717E+03  0.10566000000E+00 0. -1.
         -4    1    4    4    0  502  0.36870495869E+02  0.58799796195E+03  0.48004895520E+03  0.75996581246E+03  0.00000000000E+00 0. -1.
<mgrwt>
<rscale>  2 0.10930870E+04</rscale>
<asrwt>0</asrwt>
<pdfrwt beam="1">  1       21 0.31526692E+00 0.11060215E+04</pdfrwt>
<pdfrwt beam="2">  1       21 0.89283023E-01 0.11060215E+04</pdfrwt>
<totfact> 0.10852474E+01</totfact>
</mgrwt>
</event>
<event>
 8    1  0.5815007E-006  0.1290995E+04  0.7818608E-02  0.8543175E-01
         21   -1    0    0  503  502  0.00000000000E+00  0.00000000000E+00  0.28803520352E+04  0.28803520352E+04  0.00000000000E+00 0. -1.
         21   -1    0    0  501  503 -0.00000000000E+00 -0.00000000000E+00 -0.57500801323E+03  0.57500801323E+03  0.00000000000E+00 0.  1.
    9000010    2    1    2  501    0 -0.26225251455E+03  0.77730348200E+03  0.10468021498E+04  0.16524193312E+04  0.98067212699E+03 0.  0.
   -9000010    2    1    2    0  502  0.26225251455E+03 -0.77730348200E+03  0.12585418722E+04  0.18029407173E+04  0.99684025876E+03 0.  0.
        -13    1    3    3    0    0  0.75626625128E+02  0.91106026898E+03  0.77770445580E+03  0.12002393227E+04  0.10566000000E+00 0.  1.
          4    1    3    3  501    0 -0.33787913968E+03 -0.13375678698E+03  0.26909769401E+03  0.45218000842E+03  0.00000000000E+00 0.  1.
         13    1    4    4    0    0  0.80149155263E+02 -0.37040455492E+03 -0.84126271522E+02  0.38820183168E+03  0.10566000000E+00 0. -1.
         -4    1    4    4    0  502  0.18210335929E+03 -0.40689892707E+03  0.13426681437E+04  0.14147388856E+04  0.00000000000E+00 0. -1.
<mgrwt>
<rscale>  2 0.12878728E+04</rscale>
<asrwt>0</asrwt>
<pdfrwt beam="1">  1       21 0.44313107E+00 0.12909948E+04</pdfrwt>
<pdfrwt beam="2">  1       21 0.88462773E-01 0.12909948E+04</pdfrwt>
<totfact> 0.13737958E+00</totfact>
</mgrwt>
</event>
<event>
 8    1  0.5815007E-006  0.1195953E+04  0.7818608E-02  0.8613844E-01
         21   -1    0    0  501  502  0.00000000000E+00  0.00000000000E+00  0.89220580686E+03  0.89220580686E+03  0.00000000000E+00 0. -1.
         21   -1    0    0  502  503 -0.00000000000E+00 -0.00000000000E+00 -0.15753405668E+04  0.15753405668E+04  0.00000000000E+00 0. -1.
   -9000010    2    1    2    0  503  0.56780720075E+03  0.25544932088E+03 -0.37987597572E+03  0.12337433469E+04  0.99506658885E+03 0.  0.
    9000010    2    1    2  501    0 -0.56780720075E+03 -0.25544932088E+03 -0.30325878418E+03  0.12338030267E+04  0.10210997238E+04 0.  0.
        -13    1    4    4    0    0 -0.74565820739E+02 -0.39603861895E+03  0.25406456429E+03  0.47639842917E+03  0.10566000000E+00 0.  1.
          4    1    4    4  501    0 -0.49324138001E+03  0.14058929806E+03 -0.55732334847E+03  0.75740459758E+03  0.00000000000E+00 0.  1.
         13    1    3    3    0    0 -0.19776766089E+03 -0.19487811200E+03 -0.30581108127E+02  0.27932909188E+03  0.10566000000E+00 0. -1.
         -4    1    3    3    0  503  0.76557486164E+03  0.45032743289E+03 -0.34929486760E+03  0.95441425499E+03  0.00000000000E+00 0. -1.
<mgrwt>
<rscale>  2 0.11903771E+04</rscale>
<asrwt>0</asrwt>
<pdfrwt beam="1">  1       21 0.13726243E+00 0.11959532E+04</pdfrwt>
<pdfrwt beam="2">  1       21 0.24236009E+00 0.11959532E+04</pdfrwt>
<totfact> 0.10950109E+01</totfact>
</mgrwt>
</event>
<event>
 8    1  0.5815007E-006  0.1039044E+04  0.7818608E-02  0.8743388E-01
         21   -1    0    0  503  502  0.00000000000E+00  0.00000000000E+00  0.10708553661E+04  0.10708553661E+04  0.00000000000E+00 0.  1.
         21   -1    0    0  501  503 -0.00000000000E+00 -0.00000000000E+00 -0.98840881145E+03  0.98840881145E+03  0.00000000000E+00 0.  1.
    9000010    2    1    2  501    0 -0.29208575094E+03 -0.24029502514E+02  0.40253221155E+02  0.10398236639E+04  0.99685577056E+03 0.  0.
   -9000010    2    1    2    0  502  0.29208575094E+03  0.24029502514E+02  0.42193333453E+02  0.10194405136E+04  0.97549330110E+03 0.  0.
        -13    1    3    3    0    0  0.20155874276E+03  0.35276304893E+03 -0.60256525938E+02  0.41072929717E+03  0.10566000000E+00 0.  1.
          4    1    3    3  501    0 -0.49364449370E+03 -0.37679255144E+03  0.10050974709E+03  0.62909436673E+03  0.00000000000E+00 0.  1.
         13    1    4    4    0    0 -0.84455273167E+02  0.42714254441E+03  0.14379743434E+03  0.45854242955E+03  0.10566000000E+00 0. -1.
         -4    1    4    4    0  502  0.37654102410E+03 -0.40311304190E+03 -0.10160410088E+03  0.56089808405E+03  0.00000000000E+00 0. -1.
<mgrwt>
<rscale>  2 0.10338866E+04</rscale>
<asrwt>0</asrwt>
<pdfrwt beam="1">  1       21 0.16474698E+00 0.10390442E+04</pdfrwt>
<pdfrwt beam="2">  1       21 0.15206289E+00 0.10390442E+04</pdfrwt>
<totfact> 0.33538869E+01</totfact>
</mgrwt>
</event>
<event>
 8    1  0.5815007E-006  0.1110425E+04  0.7818608E-02  0.8695902E-01
         21   -1    0    0  501  502  0.00000000000E+00  0.00000000000E+00  0.18347126102E+04  0.18347126102E+04  0.00000000000E+00 0. -1.
         21   -1    0    0  502  503 -0.00000000000E+00 -0.00000000000E+00 -0.64066495649E+03  0.64066495649E+03  0.00000000000E+00 0. -1.
   -9000010    2    1    2    0  503  0.60363480271E+01 -0.22255855199E+03  0.40257313417E+03  0.11811473717E+04  0.10878764814E+04 0.  0.
    9000010    2    1    2  501    0 -0.60363480271E+01  0.22255855199E+03  0.79147451954E+03  0.12942301950E+04  0.99951545059E+03 0.  0.
        -13    1    4    4    0    0  0.97435264353E+02  0.52564200452E+03  0.11651667594E+03  0.54714650195E+03  0.10566000000E+00 0.  1.
          4    1    4    4  501    0 -0.10347161238E+03 -0.30308345253E+03  0.67495784360E+03  0.74708369304E+03  0.00000000000E+00 0.  1.
         13    1    3    3    0    0 -0.14852995053E+03 -0.47456270817E+02  0.74804939803E+03  0.76412770981E+03  0.10566000000E+00 0. -1.
         -4    1    3    3    0  503  0.15456629856E+03 -0.17510228117E+03 -0.34547626385E+03  0.41701966190E+03  0.00000000000E+00 0. -1.
<mgrwt>
<rscale>  2 0.10881611E+04</rscale>
<asrwt>0</asrwt>
<pdfrwt beam="1">  1       21 0.28226348E+00 0.11104251E+04</pdfrwt>
<pdfrwt beam="2">  1       21 0.98563840E-01 0.11104251E+04</pdfrwt>
<totfact> 0.14400491E+01</totfact>
</mgrwt>
</event>
<event>
 8    1  0.5815007E-006  0.1108548E+04  0.7818608E-02  0.8679315E-01
         21   -1    0    0  501  502  0.00000000000E+00  0.00000000000E+00  0.18553453511E+04  0.18553453511E+04  0.00000000000E+00 0. -1.
         21   -1    0    0  502  503 -0.00000000000E+00 -0.00000000000E+00 -0.66784042520E+03  0.66784042520E+03  0.00000000000E+00 0. -1.
   -9000010    2    1    2    0  503  0.47388340861E+03  0.10336029407E+03  0.72320380522E+03  0.13235942086E+04  0.99680943503E+03 0.  0.
    9000010    2    1    2  501    0 -0.47388340861E+03 -0.10336029407E+03  0.46430112063E+03  0.11995915677E+04  0.99408025997E+03 0.  0.
        -13    1    4    4    0    0  0.12529116925E+03  0.32269787870E+03  0.27035091824E+03  0.43922821877E+03  0.10566000000E+00 0.  1.
          4    1    4    4  501    0 -0.59917457786E+03 -0.42605817277E+03  0.19395020239E+03  0.76036334890E+03  0.00000000000E+00 0.  1.
         13    1    3    3    0    0  0.72925509824E+02 -0.10221668547E+03  0.84704248274E+03  0.85629863920E+03  0.10566000000E+00 0. -1.
         -4    1    3    3    0  503  0.40095789879E+03  0.20557697955E+03 -0.12383867751E+03  0.46729556939E+03  0.00000000000E+00 0. -1.
<mgrwt>
<rscale>  2 0.11079338E+04</rscale>
<asrwt>0</asrwt>
<pdfrwt beam="1">  1       21 0.28543774E+00 0.11085476E+04</pdfrwt>
<pdfrwt beam="2">  1       21 0.10274468E+00 0.11085476E+04</pdfrwt>
<totfact> 0.12260169E+01</totfact>
</mgrwt>
</event>
<event>
 8    1  0.5815007E-006  0.1099317E+04  0.7818608E-02  0.8705959E-01
         21   -1    0    0  501  502  0.00000000000E+00  0.00000000000E+00  0.11935544824E+04  0.11935544824E+04  0.00000000000E+00 0. -1.
         21   -1    0    0  502  503 -0.00000000000E+00 -0.00000000000E+00 -0.93526262754E+03  0.93526262754E+03  0.00000000000E+00 0. -1.
   -9000010    2    1    2    0  503  0.93324780938E+02  0.19358232557E+03  0.18371645871E+03  0.10269734086E+04  0.98728871825E+03 0.  0.
    9000010    2    1    2  501    0 -0.93324780938E+02 -0.19358232557E+03  0.74575396138E+02  0.11018437014E+04  0.10781068690E+04 0.  0.
        -13    1    4    4    0    0  0.70356089006E+01 -0.14473190393E+03  0.57301855726E+03  0.59105592115E+03  0.10566000000E+00 0.  1.
          4    1    4    4  501    0 -0.10036038984E+03 -0.48850421642E+02 -0.49844316112E+03  0.51078778021E+03  0.00000000000E+00 0.  1.
         13    1    3    3    0    0 -0.10450677575E+03  0.41339287580E+03  0.45648799985E+03  0.62465721889E+03  0.10566000000E+00 0. -1.
         -4    1    3    3    0  503  0.19783155669E+03 -0.21981055023E+03 -0.27277154114E+03  0.40231618967E+03  0.00000000000E+00 0. -1.
<mgrwt>
<rscale>  2 0.10763818E+04</rscale>
<asrwt>0</asrwt>
<pdfrwt beam="1">  1       21 0.18362377E+00 0.10993171E+04</pdfrwt>
<pdfrwt beam="2">  1       21 0.14388656E+00 0.10993171E+04</pdfrwt>
<totfact> 0.27344949E+01</totfact>
</mgrwt>
</event>
<event>
 8    1  0.5815007E-006  0.1101562E+04  0.7818608E-02  0.8699526E-01
         21   -1    0    0  503  502  0.00000000000E+00  0.00000000000E+00  0.10940945645E+04  0.10940945645E+04  0.00000000000E+00 0. -1.
         21   -1    0    0  501  503 -0.00000000000E+00 -0.00000000000E+00 -0.14513602062E+04  0.14513602062E+04  0.00000000000E+00 0. -1.
    9000010    2    1    2  501    0  0.27043342635E+03  0.19053887296E+03 -0.85122049327E+03  0.13382141708E+04  0.97816232732E+03 0.  0.
   -9000010    2    1    2    0  502 -0.27043342635E+03 -0.19053887296E+03  0.49395485163E+03  0.12072405999E+04  0.10507136481E+04 0.  0.
        -13    1    3    3    0    0 -0.28233491223E+03 -0.12145097678E+03 -0.56229876382E+03  0.64081452339E+03  0.10566000000E+00 0.  1.
          4    1    3    3  501    0  0.55276833858E+03  0.31198984973E+03 -0.28892172945E+03  0.69739964742E+03  0.00000000000E+00 0.  1.
         13    1    4    4    0    0 -0.38178090489E+03  0.31724610253E+03  0.92444323323E+01  0.49647479252E+03  0.10566000000E+00 0. -1.
         -4    1    4    4    0  502  0.11134747854E+03 -0.50778497549E+03  0.48471041929E+03  0.71076580734E+03  0.00000000000E+00 0. -1.
<mgrwt>
<rscale>  2 0.10838984E+04</rscale>
<asrwt>0</asrwt>
<pdfrwt beam="1">  1       21 0.16832224E+00 0.11015618E+04</pdfrwt>
<pdfrwt beam="2">  1       21 0.22328619E+00 0.11015618E+04</pdfrwt>
<totfact> 0.82100967E+00</totfact>
</mgrwt>
</event>
<event>
 8    1  0.5815007E-006  0.1332507E+04  0.7818608E-02  0.8537595E-01
         21   -1    0    0  503  502  0.00000000000E+00  0.00000000000E+00  0.16653378648E+04  0.16653378648E+04  0.00000000000E+00 0. -1.
         21   -1    0    0  501  503 -0.00000000000E+00 -0.00000000000E+00 -0.10203558597E+04  0.10203558597E+04  0.00000000000E+00 0. -1.
    9000010    2    1    2  501    0  0.53858936348E+03 -0.36364690128E+03  0.50209256676E+01  0.13325160075E+04  0.11632953750E+04 0.  0.
   -9000010    2    1    2    0  502 -0.53858936348E+03  0.36364690128E+03  0.63996107943E+03  0.13531777169E+04  0.99961101391E+03 0.  0.
        -13    1    3    3    0    0 -0.37007272780E+03 -0.83855101019E+02  0.36704110153E+02  0.38122526765E+03  0.10566000000E+00 0.  1.
          4    1    3    3  501    0  0.90866209128E+03 -0.27979180026E+03 -0.31683184485E+02  0.95129073989E+03  0.00000000000E+00 0.  1.
         13    1    4    4    0    0 -0.78495594794E+02 -0.15874786327E+03  0.63270303482E+03  0.65702023099E+03  0.10566000000E+00 0. -1.
         -4    1    4    4    0  502 -0.46009376869E+03  0.52239476455E+03  0.72580446088E+01  0.69615748594E+03  0.00000000000E+00 0. -1.
<mgrwt>
<rscale>  2 0.12959758E+04</rscale>
<asrwt>0</asrwt>
<pdfrwt beam="1">  1       21 0.25620583E+00 0.13325065E+04</pdfrwt>
<pdfrwt beam="2">  1       21 0.15697782E+00 0.13325065E+04</pdfrwt>
<totfact> 0.56025843E+00</totfact>
</mgrwt>
</event>
<event>
 8    1  0.5815007E-006  0.1073686E+04  0.7818608E-02  0.8738340E-01
         21   -1    0    0  501  502  0.00000000000E+00  0.00000000000E+00  0.11149976772E+04  0.11149976772E+04  0.00000000000E+00 0. -1.
         21   -1    0    0  502  503 -0.00000000000E+00 -0.00000000000E+00 -0.10521472700E+04  0.10521472700E+04  0.00000000000E+00 0. -1.
   -9000010    2    1    2    0  503  0.30058693226E+03 -0.24864032120E+03 -0.36482688695E+03  0.10114159112E+04  0.85888822017E+03 0.  0.
    9000010    2    1    2  501    0 -0.30058693226E+03  0.24864032120E+03  0.42767729411E+03  0.11557290360E+04  0.10003135626E+04 0.  0.
        -13    1    4    4    0    0  0.29194119372E+02  0.55427572151E+03  0.30638908537E+02  0.55588904103E+03  0.10566000000E+00 0.  1.
          4    1    4    4  501    0 -0.32978105163E+03 -0.30563540030E+03  0.39703838558E+03  0.59983999496E+03  0.00000000000E+00 0.  1.
         13    1    3    3    0    0  0.36620380361E+03 -0.46583869690E+03 -0.12898480759E+02  0.59268651012E+03  0.10566000000E+00 0. -1.
         -4    1    3    3    0  503 -0.65616871349E+02  0.21719837570E+03 -0.35192840620E+03  0.41872940104E+03  0.00000000000E+00 0. -1.
<mgrwt>
<rscale>  2 0.10394974E+04</rscale>
<asrwt>0</asrwt>
<pdfrwt beam="1">  1       21 0.17153811E+00 0.10736861E+04</pdfrwt>
<pdfrwt beam="2">  1       21 0.16186881E+00 0.10736861E+04</pdfrwt>
<totfact> 0.23964784E+01</totfact>
</mgrwt>
</event>
<event>
 8    1  0.5815007E-006  0.1136086E+04  0.7818608E-02  0.8683991E-01
         21   -1    0    0  503  502  0.00000000000E+00  0.00000000000E+00  0.32163229819E+04  0.32163229819E+04  0.00000000000E+00 0.  1.
         21   -1    0    0  501  503 -0.00000000000E+00 -0.00000000000E+00 -0.35708750479E+03  0.35708750479E+03  0.00000000000E+00 0.  1.
    9000010    2    1    2  501    0 -0.46828748802E+03 -0.92488819075E+02  0.13768029366E+04  0.17057122082E+04  0.88657794800E+03 0.  0.
   -9000010    2    1    2    0  502  0.46828748802E+03  0.92488819075E+02  0.14824325405E+04  0.18676982785E+04  0.10309429030E+04 0.  0.
        -13    1    3    3    0    0 -0.48847554725E+03  0.28443529354E+03  0.51422024031E+03  0.76415591549E+03  0.10566000000E+00 0.  1.
          4    1    3    3  501    0  0.20188059228E+02 -0.37692411261E+03  0.86258269628E+03  0.94155629270E+03  0.00000000000E+00 0.  1.
         13    1    4    4    0    0 -0.25469173143E+03  0.28955977052E+03  0.54298719897E+03  0.66599387998E+03  0.10566000000E+00 0. -1.
         -4    1    4    4    0  502  0.72297921945E+03 -0.19707095145E+03  0.93944534152E+03  0.12017043985E+04  0.00000000000E+00 0. -1.
<mgrwt>
<rscale>  2 0.11023157E+04</rscale>
<asrwt>0</asrwt>
<pdfrwt beam="1">  1       21 0.49481890E+00 0.11360857E+04</pdfrwt>
<pdfrwt beam="2">  1       21 0.54936541E-01 0.11360857E+04</pdfrwt>
<totfact> 0.19237110E+00</totfact>
</mgrwt>
</event>
<event>
 8    1  0.5815007E-006  0.1189509E+04  0.7818608E-02  0.8615171E-01
         21   -1    0    0  503  502  0.00000000000E+00  0.00000000000E+00  0.12318327194E+04  0.12318327194E+04  0.00000000000E+00 0. -1.
         21   -1    0    0  501  503 -0.00000000000E+00 -0.00000000000E+00 -0.11585195884E+04  0.11585195884E+04  0.00000000000E+00 0. -1.
    9000010    2    1    2  501    0 -0.58301718824E+03  0.24845721533E+03  0.16444935079E+03  0.11973571648E+04  0.10024871877E+04 0.  0.
   -9000010    2    1    2    0  502  0.58301718824E+03 -0.24845721533E+03 -0.91136219816E+02  0.11929951429E+04  0.10066238477E+04 0.  0.
        -13    1    3    3    0    0 -0.27944425659E+03  0.48587352998E+03 -0.26529820234E+03  0.62011718812E+03  0.10566000000E+00 0.  1.
          4    1    3    3  501    0 -0.30357293165E+03 -0.23741631466E+03  0.42974755313E+03  0.57723997672E+03  0.00000000000E+00 0.  1.
         13    1    4    4    0    0  0.48449314431E+03  0.11527674234E+03 -0.45103466271E+03  0.67190372252E+03  0.10566000000E+00 0. -1.
         -4    1    4    4    0  502  0.98524043930E+02 -0.36373395767E+03  0.35989844289E+03  0.52109142038E+03  0.00000000000E+00 0. -1.
<mgrwt>
<rscale>  2 0.11886334E+04</rscale>
<asrwt>0</asrwt>
<pdfrwt beam="1">  1       21 0.18951273E+00 0.11895090E+04</pdfrwt>
<pdfrwt beam="2">  1       21 0.17823378E+00 0.11895090E+04</pdfrwt>
<totfact> 0.12153525E+01</totfact>
</mgrwt>
</event>
<event>
 8    1  0.5815007E-006  0.1221227E+04  0.7818608E-02  0.8592417E-01
         21   -1    0    0  501  502  0.00000000000E+00  0.00000000000E+00  0.11563987383E+04  0.11563987383E+04  0.00000000000E+00 0.  1.
         21   -1    0    0  502  503 -0.00000000000E+00 -0.00000000000E+00 -0.13330896407E+04  0.13330896407E+04  0.00000000000E+00 0.  1.
   -9000010    2    1    2    0  503 -0.49809624278E+03 -0.49009471414E+03 -0.33664704737E+03  0.12667782675E+04  0.10015504224E+04 0.  0.
    9000010    2    1    2  501    0  0.49809624278E+03  0.49009471414E+03  0.15995614499E+03  0.12227101115E+04  0.99052579604E+03 0.  0.
        -13    1    4    4    0    0 -0.30421581589E+03  0.12576338193E+03  0.73726677393E+02  0.33734155539E+03  0.10566000000E+00 0.  1.
          4    1    4    4  501    0  0.80231205867E+03  0.36433133222E+03  0.86229467596E+02  0.88536855614E+03  0.00000000000E+00 0.  1.
         13    1    3    3    0    0  0.29399012432E+03 -0.84706438446E+01 -0.87922641581E+02  0.30697287677E+03  0.10566000000E+00 0. -1.
         -4    1    3    3    0  503 -0.79208636710E+03 -0.48162407030E+03 -0.24872440579E+03  0.95980539073E+03  0.00000000000E+00 0. -1.
<mgrwt>
<rscale>  2 0.12189647E+04</rscale>
<asrwt>0</asrwt>
<pdfrwt beam="1">  1       21 0.17790750E+00 0.12212272E+04</pdfrwt>
<pdfrwt beam="2">  1       21 0.20509072E+00 0.12212272E+04</pdfrwt>
<totfact> 0.91627121E+00</totfact>
</mgrwt>
</event>
<event>
 8    1  0.5815007E-006  0.1288908E+04  0.7818608E-02  0.8544313E-01
         21   -1    0    0  503  502  0.00000000000E+00  0.00000000000E+00  0.12484673230E+04  0.12484673230E+04  0.00000000000E+00 0. -1.
         21   -1    0    0  501  503 -0.00000000000E+00 -0.00000000000E+00 -0.14025840201E+04  0.14025840201E+04  0.00000000000E+00 0. -1.
    9000010    2    1    2  501    0  0.71956932868E+03 -0.37103871122E+03  0.24495359923E+03  0.13119777525E+04  0.10029125651E+04 0.  0.
   -9000010    2    1    2    0  502 -0.71956932868E+03  0.37103871122E+03 -0.39907029630E+03  0.13390735906E+04  0.98914672095E+03 0.  0.
        -13    1    3    3    0    0 -0.16629875904E+03  0.63086060667E+02 -0.16599086310E+03  0.24328605818E+03  0.10566000000E+00 0.  1.
          4    1    3    3  501    0  0.88586808772E+03 -0.43412477189E+03  0.41094446233E+03  0.10686916943E+04  0.00000000000E+00 0.  1.
         13    1    4    4    0    0 -0.48519157302E+01  0.10419924457E+03  0.29177125386E+03  0.30985722422E+03  0.10566000000E+00 0. -1.
         -4    1    4    4    0  502 -0.71471741295E+03  0.26683946665E+03 -0.69084155016E+03  0.10292163664E+04  0.00000000000E+00 0. -1.
<mgrwt>
<rscale>  2 0.12862290E+04</rscale>
<asrwt>0</asrwt>
<pdfrwt beam="1">  1       21 0.19207190E+00 0.12889078E+04</pdfrwt>
<pdfrwt beam="2">  1       21 0.21578216E+00 0.12889078E+04</pdfrwt>
<totfact> 0.57473009E+00</totfact>
</mgrwt>
</event>
<event>
 8    1  0.5815007E-006  0.1339754E+04  0.7818608E-02  0.8510457E-01
         21   -1    0    0  503  502  0.00000000000E+00  0.00000000000E+00  0.16974779370E+04  0.16974779370E+04  0.00000000000E+00 0.  1.
         21   -1    0    0  501  503 -0.00000000000E+00 -0.00000000000E+00 -0.12145544080E+04  0.12145544080E+04  0.00000000000E+00 0. -1.
    9000010    2    1    2  501    0  0.82586745506E+03  0.29360897987E+03  0.78418368606E+03  0.15523801753E+04  0.10132506447E+04 0.  0.
   -9000010    2    1    2    0  502 -0.82586745506E+03 -0.29360897987E+03 -0.30126015704E+03  0.13596521697E+04  0.99480302269E+03 0.  0.
        -13    1    3    3    0    0  0.81659984829E+03 -0.20359792771E+03  0.46588163382E+03  0.96194237681E+03  0.10566000000E+00 0.  1.
          4    1    3    3  501    0  0.92676067681E+01  0.49720690758E+03  0.31830205224E+03  0.59043779854E+03  0.00000000000E+00 0.  1.
         13    1    4    4    0    0 -0.63107702020E+03  0.28478592717E+03 -0.33457315469E+02  0.69316710313E+03  0.10566000000E+00 0. -1.
         -4    1    4    4    0  502 -0.19479043486E+03 -0.57839490705E+03 -0.26780284157E+03  0.66648506657E+03  0.00000000000E+00 0. -1.
<mgrwt>
<rscale>  2 0.13362659E+04</rscale>
<asrwt>0</asrwt>
<pdfrwt beam="1">  1       21 0.26115045E+00 0.13397538E+04</pdfrwt>
<pdfrwt beam="2">  1       21 0.18685452E+00 0.13397538E+04</pdfrwt>
<totfact> 0.28932196E+00</totfact>
</mgrwt>
</event>
<event>
 8    1  0.5815007E-006  0.1048899E+04  0.7818608E-02  0.8730834E-01
         21   -1    0    0  503  502  0.00000000000E+00  0.00000000000E+00  0.11628819118E+04  0.11628819118E+04  0.00000000000E+00 0.  1.
         21   -1    0    0  501  503 -0.00000000000E+00 -0.00000000000E+00 -0.95640957047E+03  0.95640957047E+03  0.00000000000E+00 0.  1.
    9000010    2    1    2  501    0 -0.20472093647E+03  0.26972319326E+03 -0.24238175462E+02  0.10491789449E+04  0.99273748117E+03 0.  0.
   -9000010    2    1    2    0  502  0.20472093647E+03 -0.26972319326E+03  0.23071051680E+03  0.10701125374E+04  0.98856068971E+03 0.  0.
        -13    1    3    3    0    0 -0.34819572606E+03  0.57986310583E+03  0.10373650309E+03  0.68428265971E+03  0.10566000000E+00 0.  1.
          4    1    3    3  501    0  0.14347478959E+03 -0.31013991257E+03 -0.12797467855E+03  0.36489628522E+03  0.00000000000E+00 0.  1.
         13    1    4    4    0    0  0.33048511133E+02  0.32930750482E+02  0.57719087753E+03  0.57907336209E+03  0.10566000000E+00 0. -1.
         -4    1    4    4    0  502  0.17167242534E+03 -0.30265394374E+03 -0.34648036072E+03  0.49103917527E+03  0.00000000000E+00 0. -1.
<mgrwt>
<rscale>  2 0.10479095E+04</rscale>
<asrwt>0</asrwt>
<pdfrwt beam="1">  1       21 0.17890491E+00 0.10488989E+04</pdfrwt>
<pdfrwt beam="2">  1       21 0.14713993E+00 0.10488989E+04</pdfrwt>
<totfact> 0.28217332E+01</totfact>
</mgrwt>
</event>
<event>
 8    1  0.5815007E-006  0.1119244E+04  0.7818608E-02  0.8672992E-01
         21   -1    0    0  501  502  0.00000000000E+00  0.00000000000E+00  0.11148912875E+04  0.11148912875E+04  0.00000000000E+00 0. -1.
         21   -1    0    0  502  503 -0.00000000000E+00 -0.00000000000E+00 -0.11093754403E+04  0.11093754403E+04  0.00000000000E+00 0. -1.
   -9000010    2    1    2    0  503  0.35852010669E+03  0.26769921428E+03 -0.16402323971E+02  0.11048086258E+04  0.10100165975E+04 0.  0.
    9000010    2    1    2  501    0 -0.35852010669E+03 -0.26769921428E+03  0.21918171189E+02  0.11194581020E+04  0.10259173942E+04 0.  0.
        -13    1    4    4    0    0 -0.17748622804E+03 -0.64069988864E+03  0.15751966058E+03  0.68323507162E+03  0.10566000000E+00 0.  1.
          4    1    4    4  501    0 -0.18103387865E+03  0.37300067437E+03 -0.13560148939E+03  0.43622303037E+03  0.00000000000E+00 0.  1.
         13    1    3    3    0    0 -0.35136872422E+03  0.10247894927E+03  0.63871604398E+02  0.37153937667E+03  0.10566000000E+00 0. -1.
         -4    1    3    3    0  503  0.70988883091E+03  0.16522026500E+03 -0.80273928369E+02  0.73326924918E+03  0.00000000000E+00 0. -1.
<mgrwt>
<rscale>  2 0.11155865E+04</rscale>
<asrwt>0</asrwt>
<pdfrwt beam="1">  1       21 0.17152174E+00 0.11192435E+04</pdfrwt>
<pdfrwt beam="2">  1       21 0.17067315E+00 0.11192435E+04</pdfrwt>
<totfact> 0.19990984E+01</totfact>
</mgrwt>
</event>
<event>
 8    1  0.5815007E-006  0.1171053E+04  0.7818608E-02  0.8634093E-01
         21   -1    0    0  503  502  0.00000000000E+00  0.00000000000E+00  0.72270720554E+03  0.72270720554E+03  0.00000000000E+00 0. -1.
         21   -1    0    0  501  503 -0.00000000000E+00 -0.00000000000E+00 -0.22268076410E+04  0.22268076410E+04  0.00000000000E+00 0. -1.
    9000010    2    1    2  501    0 -0.50902236322E+03 -0.23912166432E+03 -0.13486610749E+04  0.17681903277E+04  0.99565425901E+03 0.  0.
   -9000010    2    1    2    0  502  0.50902236322E+03  0.23912166432E+03 -0.15543936053E+03  0.11813245188E+04  0.10271724720E+04 0.  0.
        -13    1    3    3    0    0 -0.78715369223E+03 -0.17309776989E+03 -0.73313315200E+03  0.10895219148E+04  0.10566000000E+00 0.  1.
          4    1    3    3  501    0  0.27813132900E+03 -0.66023894426E+02 -0.61552792291E+03  0.67866841291E+03  0.00000000000E+00 0.  1.
         13    1    4    4    0    0  0.57449835991E+03 -0.10370599595E+03 -0.43997609735E+03  0.73101455289E+03  0.10566000000E+00 0. -1.
         -4    1    4    4    0  502 -0.65475996686E+02  0.34282766027E+03  0.28453673682E+03  0.45030996590E+03  0.00000000000E+00 0. -1.
<mgrwt>
<rscale>  2 0.11641055E+04</rscale>
<asrwt>0</asrwt>
<pdfrwt beam="1">  1       21 0.11118573E+00 0.11710535E+04</pdfrwt>
<pdfrwt beam="2">  1       21 0.34258579E+00 0.11710535E+04</pdfrwt>
<totfact> 0.38706027E+00</totfact>
</mgrwt>
</event>
<event>
 8    1  0.5815007E-006  0.1093739E+04  0.7818608E-02  0.8696948E-01
         21   -1    0    0  501  502  0.00000000000E+00  0.00000000000E+00  0.21368367318E+04  0.21368367318E+04  0.00000000000E+00 0.  1.
         21   -1    0    0  502  503 -0.00000000000E+00 -0.00000000000E+00 -0.54663519468E+03  0.54663519468E+03  0.00000000000E+00 0.  1.
   -9000010    2    1    2    0  503 -0.38876163491E+03  0.99898307975E+02  0.84692254620E+03  0.13833082811E+04  0.10174225870E+04 0.  0.
    9000010    2    1    2  501    0  0.38876163491E+03 -0.99898307975E+02  0.74327899093E+03  0.13001636454E+04  0.98835548557E+03 0.  0.
        -13    1    4    4    0    0 -0.43080210190E+02 -0.62562768004E+02  0.85030661823E+03  0.85369277883E+03  0.10566000000E+00 0.  1.
          4    1    4    4  501    0  0.43184184510E+03 -0.37335539971E+02 -0.10702762730E+03  0.44647086661E+03  0.00000000000E+00 0.  1.
         13    1    3    3    0    0  0.22057239112E+03 -0.28327700581E+03  0.39314938475E+03  0.53241383494E+03  0.10566000000E+00 0. -1.
         -4    1    3    3    0  503 -0.60933402603E+03  0.38317531379E+03  0.45377316146E+03  0.85089444611E+03  0.00000000000E+00 0. -1.
<mgrwt>
<rscale>  2 0.10869288E+04</rscale>
<asrwt>0</asrwt>
<pdfrwt beam="1">  1       21 0.32874411E+00 0.10937385E+04</pdfrwt>
<pdfrwt beam="2">  1       21 0.84097723E-01 0.10937385E+04</pdfrwt>
<totfact> 0.10187855E+01</totfact>
</mgrwt>
</event>
<event>
 8    1  0.5815007E-006  0.1057226E+04  0.7818608E-02  0.8732064E-01
         21   -1    0    0  501  502  0.00000000000E+00  0.00000000000E+00  0.14430792537E+04  0.14430792537E+04  0.00000000000E+00 0.  1.
         21   -1    0    0  502  503 -0.00000000000E+00 -0.00000000000E+00 -0.75259317244E+03  0.75259317244E+03  0.00000000000E+00 0.  1.
   -9000010    2    1    2    0  503  0.12099484924E+03  0.13970684150E+03  0.46970736930E+03  0.11568716601E+04  0.10409463339E+04 0.  0.
    9000010    2    1    2  501    0 -0.12099484924E+03 -0.13970684150E+03  0.22077871197E+03  0.10388007660E+04  0.99810121569E+03 0.  0.
        -13    1    4    4    0    0 -0.34655932531E+03  0.14711478627E+03 -0.24343896633E+03  0.44833990207E+03  0.10566000000E+00 0.  1.
          4    1    4    4  501    0  0.22556447607E+03 -0.28682162777E+03  0.46421767830E+03  0.59046086396E+03  0.00000000000E+00 0.  1.
         13    1    3    3    0    0  0.17669330880E+03  0.44319126142E+03  0.64478040678E+03  0.80211021917E+03  0.10566000000E+00 0. -1.
         -4    1    3    3    0  503 -0.55698459560E+02 -0.30348441991E+03 -0.17507303748E+03  0.35476144094E+03  0.00000000000E+00 0. -1.
<mgrwt>
<rscale>  2 0.10465253E+04</rscale>
<asrwt>0</asrwt>
<pdfrwt beam="1">  1       21 0.22201219E+00 0.10572261E+04</pdfrwt>
<pdfrwt beam="2">  1       21 0.11578357E+00 0.10572261E+04</pdfrwt>
<totfact> 0.25965303E+01</totfact>
</mgrwt>
</event>
<event>
 8    1  0.5815007E-006  0.1038920E+04  0.7818608E-02  0.8740277E-01
         21   -1    0    0  503  502  0.00000000000E+00  0.00000000000E+00  0.25775639602E+04  0.25775639602E+04  0.00000000000E+00 0. -1.
         21   -1    0    0  501  503 -0.00000000000E+00 -0.00000000000E+00 -0.78551807415E+03  0.78551807415E+03  0.00000000000E+00 0. -1.
    9000010    2    1    2  501    0  0.77284783394E+02 -0.28360907409E+03 -0.25551132825E+03  0.10698787288E+04  0.99646746602E+03 0.  0.
   -9000010    2    1    2    0  502 -0.77284783394E+02  0.28360907409E+03  0.20475572143E+04  0.22932033055E+04  0.98989080715E+03 0.  0.
        -13    1    3    3    0    0 -0.36130570838E+03 -0.19192372123E+03  0.17823634212E+03  0.44625635513E+03  0.10566000000E+00 0.  1.
          4    1    3    3  501    0  0.43859049177E+03 -0.91685352863E+02 -0.43374767037E+03  0.62362237368E+03  0.00000000000E+00 0.  1.
         13    1    4    4    0    0 -0.31537123649E+03 -0.15849752139E+03  0.26526758666E+03  0.44152846430E+03  0.10566000000E+00 0. -1.
         -4    1    4    4    0  502  0.23808645310E+03  0.44210659548E+03  0.17822896276E+04  0.18516748412E+04  0.00000000000E+00 0. -1.
<mgrwt>
<rscale>  2 0.10373397E+04</rscale>
<asrwt>0</asrwt>
<pdfrwt beam="1">  1       21 0.39654830E+00 0.10389199E+04</pdfrwt>
<pdfrwt beam="2">  1       21 0.12084894E+00 0.10389199E+04</pdfrwt>
<totfact> 0.13259795E+00</totfact>
</mgrwt>
</event>
<event>
 8    1  0.5815007E-006  0.1089694E+04  0.7818608E-02  0.8696693E-01
         21   -1    0    0  501  502  0.00000000000E+00  0.00000000000E+00  0.65276027219E+03  0.65276027219E+03  0.00000000000E+00 0. -1.
         21   -1    0    0  502  503 -0.00000000000E+00 -0.00000000000E+00 -0.18726157279E+04  0.18726157279E+04  0.00000000000E+00 0. -1.
   -9000010    2    1    2    0  503 -0.32234244575E+03  0.30657260402E+03 -0.85652949723E+03  0.13860288170E+04  0.99475709998E+03 0.  0.
    9000010    2    1    2  501    0  0.32234244575E+03 -0.30657260402E+03 -0.36332595849E+03  0.11393471831E+04  0.98397908400E+03 0.  0.
        -13    1    4    4    0    0  0.49267026071E+02  0.30868666900E+03 -0.34556973796E+03  0.46597548694E+03  0.10566000000E+00 0.  1.
          4    1    4    4  501    0  0.27307541968E+03 -0.61525927302E+03 -0.17756220528E+02  0.67337169619E+03  0.00000000000E+00 0.  1.
         13    1    3    3    0    0  0.22104385033E+03  0.13275802556E+03  0.96479089862E+02  0.27530583551E+03  0.10566000000E+00 0. -1.
         -4    1    3    3    0  503 -0.54338629609E+03  0.17381457847E+03 -0.95300858710E+03  0.11107229815E+04  0.00000000000E+00 0. -1.
<mgrwt>
<rscale>  2 0.10872282E+04</rscale>
<asrwt>0</asrwt>
<pdfrwt beam="1">  1       21 0.10042466E+00 0.10896940E+04</pdfrwt>
<pdfrwt beam="2">  1       21 0.28809473E+00 0.10896940E+04</pdfrwt>
<totfact> 0.12519964E+01</totfact>
</mgrwt>
</event>
<event>
 8    1  0.5815007E-006  0.1139437E+04  0.7818608E-02  0.8654672E-01
         21   -1    0    0  503  502  0.00000000000E+00  0.00000000000E+00  0.51920339015E+03  0.51920339015E+03  0.00000000000E+00 0. -1.
         21   -1    0    0  501  503 -0.00000000000E+00 -0.00000000000E+00 -0.30330874164E+04  0.30330874164E+04  0.00000000000E+00 0. -1.
    9000010    2    1    2  501    0 -0.15552738706E+03 -0.54001433010E+03 -0.20067543928E+04  0.23050954843E+04  0.98518919694E+03 0.  0.
   -9000010    2    1    2    0  502  0.15552738706E+03  0.54001433010E+03 -0.50712963342E+03  0.12471953222E+04  0.99121716181E+03 0.  0.
        -13    1    3    3    0    0 -0.45143882454E+03 -0.66548741834E+03 -0.12988243580E+04  0.15276175046E+04  0.10566000000E+00 0.  1.
          4    1    3    3  501    0  0.29591143749E+03  0.12547308824E+03 -0.70793003475E+03  0.77747797963E+03  0.00000000000E+00 0.  1.
         13    1    4    4    0    0  0.11012459718E+03 -0.46542239587E+02 -0.63415549739E+03  0.64532690398E+03  0.10566000000E+00 0. -1.
         -4    1    4    4    0  502  0.45402789873E+02  0.58655656969E+03  0.12702586397E+03  0.60186841825E+03  0.00000000000E+00 0. -1.
<mgrwt>
<rscale>  2 0.11381243E+04</rscale>
<asrwt>0</asrwt>
<pdfrwt beam="1">  1       21 0.79877445E-01 0.11394366E+04</pdfrwt>
<pdfrwt beam="2">  1       21 0.46662883E+00 0.11394366E+04</pdfrwt>
<totfact> 0.12538781E+00</totfact>
</mgrwt>
</event>
<event>
 8    1  0.5815007E-006  0.1615837E+04  0.7818608E-02  0.8350581E-01
         21   -1    0    0  503  502  0.00000000000E+00  0.00000000000E+00  0.26166878058E+04  0.26166878058E+04  0.00000000000E+00 0.  1.
         21   -1    0    0  501  503 -0.00000000000E+00 -0.00000000000E+00 -0.11156779290E+04  0.11156779290E+04  0.00000000000E+00 0. -1.
    9000010    2    1    2  501    0  0.10744812313E+04  0.69465655684E+03  0.96846801151E+02  0.16187368762E+04  0.98684959501E+03 0.  0.
   -9000010    2    1    2    0  502 -0.10744812313E+04 -0.69465655684E+03  0.14041630757E+04  0.21136288585E+04  0.92665816787E+03 0.  0.
        -13    1    3    3    0    0  0.53784406396E+03  0.79809968174E+03  0.33981721593E+03  0.10206444486E+04  0.10566000000E+00 0.  1.
          4    1    3    3  501    0  0.53663716737E+03 -0.10344312491E+03 -0.24297041478E+03  0.59809242760E+03  0.00000000000E+00 0.  1.
         13    1    4    4    0    0  0.71229572664E+02 -0.37314350937E+03  0.24268588721E+03  0.45078396336E+03  0.10566000000E+00 0. -1.
         -4    1    4    4    0  502 -0.11457108040E+04 -0.32151304747E+03  0.11614771884E+04  0.16628448952E+04  0.00000000000E+00 0. -1.
<mgrwt>
<rscale>  2 0.16067503E+04</rscale>
<asrwt>0</asrwt>
<pdfrwt beam="1">  1       21 0.40256735E+00 0.16158372E+04</pdfrwt>
<pdfrwt beam="2">  1       21 0.17164276E+00 0.16158372E+04</pdfrwt>
<totfact> 0.36950285E-01</totfact>
</mgrwt>
</event>
<event>
 8    1  0.5815007E-006  0.1084359E+04  0.7818608E-02  0.8705905E-01
         21   -1    0    0  503  502  0.00000000000E+00  0.00000000000E+00  0.85766352062E+03  0.85766352062E+03  0.00000000000E+00 0. -1.
         21   -1    0    0  501  503 -0.00000000000E+00 -0.00000000000E+00 -0.13317048006E+04  0.13317048006E+04  0.00000000000E+00 0. -1.
    9000010    2    1    2  501    0  0.10952613863E+03 -0.35621600993E+03 -0.23894224276E+03  0.10798166164E+04  0.98489832414E+03 0.  0.
   -9000010    2    1    2    0  502 -0.10952613863E+03  0.35621600993E+03 -0.23509903725E+03  0.11095517049E+04  0.10183062445E+04 0.  0.
        -13    1    3    3    0    0 -0.97938804283E+02  0.26065585735E+03  0.15536759832E+03  0.31886139172E+03  0.10566000000E+00 0.  1.
          4    1    3    3  501    0  0.20746494291E+03 -0.61687186729E+03 -0.39430984108E+03  0.76095522468E+03  0.00000000000E+00 0.  1.
         13    1    4    4    0    0 -0.98434894028E+02  0.17199682404E+03 -0.63710119411E+03  0.66721082016E+03  0.10566000000E+00 0. -1.
         -4    1    4    4    0  502 -0.11091244598E+02  0.18421918589E+03  0.40200215686E+03  0.44234088470E+03  0.00000000000E+00 0. -1.
<mgrwt>
<rscale>  2 0.10764447E+04</rscale>
<asrwt>0</asrwt>
<pdfrwt beam="1">  1       21 0.13194823E+00 0.10843585E+04</pdfrwt>
<pdfrwt beam="2">  1       21 0.20487766E+00 0.10843585E+04</pdfrwt>
<totfact> 0.24082616E+01</totfact>
</mgrwt>
</event>
<event>
 8    1  0.5815007E-006  0.1071215E+04  0.7818608E-02  0.8710526E-01
         21   -1    0    0  501  502  0.00000000000E+00  0.00000000000E+00  0.62745748836E+03  0.62745748836E+03  0.00000000000E+00 0.  1.
         21   -1    0    0  502  503 -0.00000000000E+00 -0.00000000000E+00 -0.19671773587E+04  0.19671773587E+04  0.00000000000E+00 0.  1.
   -9000010    2    1    2    0  503  0.37807912141E+02 -0.37072380122E+03 -0.32453555750E+03  0.11187957980E+04  0.10037505340E+04 0.  0.
    9000010    2    1    2  501    0 -0.37807912141E+02  0.37072380122E+03 -0.10151843128E+04  0.14758390491E+04  0.10043087846E+04 0.  0.
        -13    1    4    4    0    0 -0.46036385442E+03  0.39967190196E+03 -0.40076041645E+03  0.72957619906E+03  0.10566000000E+00 0.  1.
          4    1    4    4  501    0  0.42255594228E+03 -0.28948100740E+02 -0.61442389635E+03  0.74626285000E+03  0.00000000000E+00 0.  1.
         13    1    3    3    0    0 -0.16759040755E+03 -0.52967503240E+03 -0.54490790630E+03  0.77818174108E+03  0.10566000000E+00 0. -1.
         -4    1    3    3    0  503  0.20539831969E+03  0.15895123118E+03  0.22037234880E+03  0.34061405687E+03  0.00000000000E+00 0. -1.
<mgrwt>
<rscale>  2 0.10710842E+04</rscale>
<asrwt>0</asrwt>
<pdfrwt beam="1">  1       21 0.96531921E-01 0.10712151E+04</pdfrwt>
<pdfrwt beam="2">  1       21 0.30264267E+00 0.10712151E+04</pdfrwt>
<totfact> 0.10988771E+01</totfact>
</mgrwt>
</event>
<event>
 8    1  0.5815007E-006  0.1099046E+04  0.7818608E-02  0.8688059E-01
         21   -1    0    0  501  502  0.00000000000E+00  0.00000000000E+00  0.26358463434E+04  0.26358463434E+04  0.00000000000E+00 0. -1.
         21   -1    0    0  502  503 -0.00000000000E+00 -0.00000000000E+00 -0.47758901090E+03  0.47758901090E+03  0.00000000000E+00 0. -1.
   -9000010    2    1    2    0  503 -0.15505910601E+03 -0.39643953914E+03  0.74224659704E+03  0.13209540947E+04  0.10063707443E+04 0.  0.
    9000010    2    1    2  501    0  0.15505910601E+03  0.39643953914E+03  0.14160107355E+04  0.17924812596E+04  0.10132596057E+04 0.  0.
        -13    1    4    4    0    0 -0.76507745723E+02  0.65851102437E+03  0.56007303122E+03  0.86785483569E+03  0.10566000000E+00 0.  1.
          4    1    4    4  501    0  0.23156685173E+03 -0.26207148523E+03  0.85593770428E+03  0.92462642391E+03  0.00000000000E+00 0.  1.
         13    1    3    3    0    0 -0.43370298790E+03  0.16191162415E+03  0.24983069916E+03  0.52605042073E+03  0.10566000000E+00 0. -1.
         -4    1    3    3    0  503  0.27864388189E+03 -0.55835116328E+03  0.49241589788E+03  0.79490367400E+03  0.00000000000E+00 0. -1.
<mgrwt>
<rscale>  2 0.10974558E+04</rscale>
<asrwt>0</asrwt>
<pdfrwt beam="1">  1       21 0.40551481E+00 0.10990463E+04</pdfrwt>
<pdfrwt beam="2">  1       21 0.73475234E-01 0.10990463E+04</pdfrwt>
<totfact> 0.41003689E+00</totfact>
</mgrwt>
</event>
<event>
 8    1  0.5815007E-006  0.1032487E+04  0.7818608E-02  0.8752943E-01
         21   -1    0    0  503  502  0.00000000000E+00  0.00000000000E+00  0.17123315641E+04  0.17123315641E+04  0.00000000000E+00 0.  1.
         21   -1    0    0  501  503 -0.00000000000E+00 -0.00000000000E+00 -0.60230218903E+03  0.60230218903E+03  0.00000000000E+00 0.  1.
    9000010    2    1    2  501    0 -0.14137865089E+03 -0.24640137717E+03  0.49218334762E+03  0.11114035542E+04  0.95512923268E+03 0.  0.
   -9000010    2    1    2    0  502  0.14137865089E+03  0.24640137717E+03  0.61784602741E+03  0.12032301989E+04  0.99263670910E+03 0.  0.
        -13    1    3    3    0    0 -0.35322171370E+03 -0.37701699759E+03  0.63956667343E+03  0.82216357036E+03  0.10566000000E+00 0.  1.
          4    1    3    3  501    0  0.21184306280E+03  0.13061562042E+03 -0.14738332581E+03  0.28923998389E+03  0.00000000000E+00 0.  1.
         13    1    4    4    0    0 -0.21755776318E+03 -0.15793980155E+03  0.60540586363E+03  0.66241424510E+03  0.10566000000E+00 0. -1.
         -4    1    4    4    0  502  0.35893641408E+03  0.40434117872E+03  0.12440163785E+02  0.54081595375E+03  0.00000000000E+00 0. -1.
<mgrwt>
<rscale>  2 0.10233651E+04</rscale>
<asrwt>0</asrwt>
<pdfrwt beam="1">  1       21 0.26343562E+00 0.10324869E+04</pdfrwt>
<pdfrwt beam="2">  1       21 0.92661876E-01 0.10324869E+04</pdfrwt>
<totfact> 0.23405265E+01</totfact>
</mgrwt>
</event>
<event>
 8    1  0.5815007E-006  0.1234039E+04  0.7818608E-02  0.8584023E-01
         21   -1    0    0  503  502  0.00000000000E+00  0.00000000000E+00  0.13475789786E+04  0.13475789786E+04  0.00000000000E+00 0. -1.
         21   -1    0    0  501  503 -0.00000000000E+00 -0.00000000000E+00 -0.11207365969E+04  0.11207365969E+04  0.00000000000E+00 0. -1.
    9000010    2    1    2  501    0 -0.64212956489E+02  0.68632067132E+03  0.40885714036E+02  0.12347165722E+04  0.10235692475E+04 0.  0.
   -9000010    2    1    2    0  502  0.64212956489E+02 -0.68632067132E+03  0.18595666772E+03  0.12335990033E+04  0.10059956516E+04 0.  0.
        -13    1    3    3    0    0  0.42019587096E+03  0.30217985329E+03 -0.22166704881E+03  0.56303954159E+03  0.10566000000E+00 0.  1.
          4    1    3    3  501    0 -0.48440882745E+03  0.38414081803E+03  0.26255276285E+03  0.67167703062E+03  0.00000000000E+00 0.  1.
         13    1    4    4    0    0  0.28127320252E+03 -0.52217889931E+03 -0.30898740026E+03  0.66877398426E+03  0.10566000000E+00 0. -1.
         -4    1    4    4    0  502 -0.21706024603E+03 -0.16414177201E+03  0.49494406799E+03  0.56482501907E+03  0.00000000000E+00 0. -1.
<mgrwt>
<rscale>  2 0.12303891E+04</rscale>
<asrwt>0</asrwt>
<pdfrwt beam="1">  1       21 0.20731984E+00 0.12340395E+04</pdfrwt>
<pdfrwt beam="2">  1       21 0.17242102E+00 0.12340395E+04</pdfrwt>
<totfact> 0.97538898E+00</totfact>
</mgrwt>
</event>
<event>
 8    1  0.5815007E-006  0.1609120E+04  0.7818608E-02  0.8353705E-01
         21   -1    0    0  503  502  0.00000000000E+00  0.00000000000E+00  0.14329348070E+04  0.14329348070E+04  0.00000000000E+00 0.  1.
         21   -1    0    0  501  503 -0.00000000000E+00 -0.00000000000E+00 -0.22610395788E+04  0.22610395788E+04  0.00000000000E+00 0.  1.
    9000010    2    1    2  501    0 -0.71350980371E+03 -0.99480826715E+03 -0.12777726838E+04  0.20547433312E+04  0.10442831977E+04 0.  0.
   -9000010    2    1    2    0  502  0.71350980371E+03  0.99480826715E+03  0.44966791204E+03  0.16392310546E+04  0.99304455636E+03 0.  0.
        -13    1    3    3    0    0 -0.95518615410E+03 -0.56794487181E+03 -0.79398163050E+03  0.13657777298E+04  0.10566000000E+00 0.  1.
          4    1    3    3  501    0  0.24167635039E+03 -0.42686339534E+03 -0.48379105335E+03  0.68896560140E+03  0.00000000000E+00 0.  1.
         13    1    4    4    0    0  0.67133160016E+02  0.74953957479E+02  0.50373170200E+03  0.51368336131E+03  0.10566000000E+00 0. -1.
         -4    1    4    4    0  502  0.64637664369E+03  0.91985430967E+03 -0.54063789966E+02  0.11255476933E+04  0.00000000000E+00 0. -1.
<mgrwt>
<rscale>  2 0.16008640E+04</rscale>
<asrwt>0</asrwt>
<pdfrwt beam="1">  1       21 0.22045151E+00 0.16091200E+04</pdfrwt>
<pdfrwt beam="2">  1       21 0.34785224E+00 0.16091200E+04</pdfrwt>
<totfact> 0.36562490E-01</totfact>
</mgrwt>
</event>
<event>
 8    1  0.5815007E-006  0.1091594E+04  0.7818608E-02  0.8722766E-01
         21   -1    0    0  503  502  0.00000000000E+00  0.00000000000E+00  0.13670790670E+04  0.13670790670E+04  0.00000000000E+00 0.  1.
         21   -1    0    0  501  503 -0.00000000000E+00 -0.00000000000E+00 -0.97236414612E+03  0.97236414612E+03  0.00000000000E+00 0.  1.
    9000010    2    1    2  501    0  0.29150343469E+03  0.17711854521E+03  0.72063644754E+03  0.12002321755E+04  0.89715949201E+03 0.  0.
   -9000010    2    1    2    0  502 -0.29150343469E+03 -0.17711854521E+03 -0.32592152665E+03  0.11392110376E+04  0.10369338046E+04 0.  0.
        -13    1    3    3    0    0  0.10244611946E+03 -0.59669373626E+02  0.85899238339E+03  0.86713526478E+03  0.10566000000E+00 0.  1.
          4    1    3    3  501    0  0.18905731523E+03  0.23678791883E+03 -0.13835593585E+03  0.33309691072E+03  0.00000000000E+00 0.  1.
         13    1    4    4    0    0 -0.19279597918E+03 -0.53005625694E+03  0.10479246959E+03  0.57368231449E+03  0.10566000000E+00 0. -1.
         -4    1    4    4    0  502 -0.98707455511E+02  0.35293771174E+03 -0.43071399624E+03  0.56552872314E+03  0.00000000000E+00 0. -1.
<mgrwt>
<rscale>  2 0.10570424E+04</rscale>
<asrwt>0</asrwt>
<pdfrwt beam="1">  1       21 0.21031986E+00 0.10915938E+04</pdfrwt>
<pdfrwt beam="2">  1       21 0.14959448E+00 0.10915938E+04</pdfrwt>
<totfact> 0.14997284E+01</totfact>
</mgrwt>
</event>
<event>
 8    1  0.5815007E-006  0.1058721E+04  0.7818608E-02  0.8725918E-01
         21   -1    0    0  501  502  0.00000000000E+00  0.00000000000E+00  0.75357751595E+03  0.75357751595E+03  0.00000000000E+00 0.  1.
         21   -1    0    0  502  503 -0.00000000000E+00 -0.00000000000E+00 -0.14736060579E+04  0.14736060579E+04  0.00000000000E+00 0.  1.
   -9000010    2    1    2    0  503  0.27649863940E+03 -0.57971775341E+02 -0.47727366349E+03  0.11613266286E+04  0.10203318892E+04 0.  0.
    9000010    2    1    2  501    0 -0.27649863940E+03  0.57971775341E+02 -0.24275487847E+03  0.10658569453E+04  0.99865352975E+03 0.  0.
        -13    1    4    4    0    0 -0.54177937606E+03  0.25480605674E+03  0.79995751743E+02  0.60402843504E+03  0.10566000000E+00 0.  1.
          4    1    4    4  501    0  0.26528073666E+03 -0.19683428140E+03 -0.32275063021E+03  0.46182851025E+03  0.00000000000E+00 0.  1.
         13    1    3    3    0    0  0.57059501666E+03  0.25203342598E+03 -0.21422411955E+03  0.65953885815E+03  0.10566000000E+00 0. -1.
         -4    1    3    3    0  503 -0.29409637727E+03 -0.31000520132E+03 -0.26304954394E+03  0.50178777041E+03  0.00000000000E+00 0. -1.
<mgrwt>
<rscale>  2 0.10534625E+04</rscale>
<asrwt>0</asrwt>
<pdfrwt beam="1">  1       21 0.11593500E+00 0.10587206E+04</pdfrwt>
<pdfrwt beam="2">  1       21 0.22670862E+00 0.10587206E+04</pdfrwt>
<totfact> 0.23850450E+01</totfact>
</mgrwt>
</event>
<event>
 8    1  0.5815007E-006  0.1213313E+04  0.7818608E-02  0.8605902E-01
         21   -1    0    0  501  502  0.00000000000E+00  0.00000000000E+00  0.96307710457E+03  0.96307710457E+03  0.00000000000E+00 0.  1.
         21   -1    0    0  502  503 -0.00000000000E+00 -0.00000000000E+00 -0.17739357357E+04  0.17739357357E+04  0.00000000000E+00 0. -1.
   -9000010    2    1    2    0  503 -0.51867051604E+00 -0.68876559305E+03 -0.98104196958E+03  0.15603116105E+04  0.99886468790E+03 0.  0.
    9000010    2    1    2  501    0  0.51867051604E+00  0.68876559305E+03  0.17018333850E+03  0.11767012297E+04  0.93875721252E+03 0.  0.
        -13    1    4    4    0    0 -0.45099098268E+03  0.48570561926E+03  0.36034742561E+02  0.66377807201E+03  0.10566000000E+00 0.  1.
          4    1    4    4  501    0  0.45150965320E+03  0.20305997379E+03  0.13414859594E+03  0.51292315768E+03  0.00000000000E+00 0.  1.
         13    1    3    3    0    0  0.36446908559E+02 -0.93642332541E+03 -0.89413268118E+03  0.12952568410E+04  0.10566000000E+00 0. -1.
         -4    1    3    3    0  503 -0.36965579075E+02  0.24765773236E+03 -0.86909288402E+02  0.26505476952E+03  0.00000000000E+00 0. -1.
<mgrwt>
<rscale>  2 0.12008774E+04</rscale>
<asrwt>0</asrwt>
<pdfrwt beam="1">  1       21 0.14816571E+00 0.12133132E+04</pdfrwt>
<pdfrwt beam="2">  1       21 0.27291319E+00 0.12133132E+04</pdfrwt>
<totfact> 0.52045411E+00</totfact>
</mgrwt>
</event>
<event>
 8    1  0.5815007E-006  0.1159682E+04  0.7818608E-02  0.8643289E-01
         21   -1    0    0  501  502  0.00000000000E+00  0.00000000000E+00  0.92524184409E+03  0.92524184409E+03  0.00000000000E+00 0.  1.
         21   -1    0    0  502  503 -0.00000000000E+00 -0.00000000000E+00 -0.14192556519E+04  0.14192556519E+04  0.00000000000E+00 0.  1.
   -9000010    2    1    2    0  503  0.57739635771E+03 -0.12897252676E+03 -0.28369289084E+03  0.11658981392E+04  0.96375118583E+03 0.  0.
    9000010    2    1    2  501    0 -0.57739635771E+03  0.12897252676E+03 -0.21032091695E+03  0.11785993567E+04  0.99741720912E+03 0.  0.
        -13    1    4    4    0    0  0.25839977820E+03 -0.12129583789E+03 -0.23962745018E+02  0.28645654116E+03  0.10566000000E+00 0.  1.
          4    1    4    4  501    0 -0.83579613591E+03  0.25026836465E+03 -0.18635817193E+03  0.89214281558E+03  0.00000000000E+00 0.  1.
         13    1    3    3    0    0 -0.26897831956E+03 -0.30364069626E+02 -0.98105975855E+01  0.27086449031E+03  0.10566000000E+00 0. -1.
         -4    1    3    3    0  503  0.84637467728E+03 -0.98608457132E+02 -0.27388229326E+03  0.89503364893E+03  0.00000000000E+00 0. -1.
<mgrwt>
<rscale>  2 0.11524073E+04</rscale>
<asrwt>0</asrwt>
<pdfrwt beam="1">  1       21 0.14234490E+00 0.11596817E+04</pdfrwt>
<pdfrwt beam="2">  1       21 0.21834702E+00 0.11596817E+04</pdfrwt>
<totfact> 0.14938312E+01</totfact>
</mgrwt>
</event>
<event>
 8    1  0.5815007E-006  0.1170304E+04  0.7818608E-02  0.8634159E-01
         21   -1    0    0  501  502  0.00000000000E+00  0.00000000000E+00  0.48982330843E+03  0.48982330843E+03  0.00000000000E+00 0.  1.
         21   -1    0    0  502  503 -0.00000000000E+00 -0.00000000000E+00 -0.29145274819E+04  0.29145274819E+04  0.00000000000E+00 0.  1.
   -9000010    2    1    2    0  503 -0.55420344343E+03 -0.26244314488E+03 -0.16448131412E+04  0.20186684757E+04  0.99679199655E+03 0.  0.
    9000010    2    1    2  501    0  0.55420344343E+03  0.26244314488E+03 -0.77989103231E+03  0.13856823146E+04  0.96740249836E+03 0.  0.
        -13    1    4    4    0    0  0.30107616369E+03 -0.62402966924E+02 -0.90457017335E+03  0.95539949566E+03  0.10566000000E+00 0.  1.
          4    1    4    4  501    0  0.25312727974E+03  0.32484611180E+03  0.12467914104E+03  0.43028281899E+03  0.00000000000E+00 0.  1.
         13    1    3    3    0    0  0.28174078510E+03 -0.16889522670E+03 -0.43197538769E+03  0.54268426762E+03  0.10566000000E+00 0. -1.
         -4    1    3    3    0  503 -0.83594422853E+03 -0.93547918183E+02 -0.12128377535E+04  0.14759842081E+04  0.00000000000E+00 0. -1.
<mgrwt>
<rscale>  2 0.11640217E+04</rscale>
<asrwt>0</asrwt>
<pdfrwt beam="1">  1       21 0.75357432E-01 0.11703043E+04</pdfrwt>
<pdfrwt beam="2">  1       21 0.44838884E+00 0.11703043E+04</pdfrwt>
<totfact> 0.19227204E+00</totfact>
</mgrwt>
</event>
<event>
 8    1  0.5815007E-006  0.1027671E+04  0.7818608E-02  0.8750600E-01
         21   -1    0    0  501  502  0.00000000000E+00  0.00000000000E+00  0.23972799958E+04  0.23972799958E+04  0.00000000000E+00 0.  1.
         21   -1    0    0  502  503 -0.00000000000E+00 -0.00000000000E+00 -0.44983507379E+03  0.44983507379E+03  0.00000000000E+00 0.  1.
   -9000010    2    1    2    0  503 -0.10951270021E+03 -0.19994981280E+03  0.12119391624E+04  0.15889950036E+04  0.10020656810E+04 0.  0.
    9000010    2    1    2  501    0  0.10951270021E+03  0.19994981280E+03  0.73550575961E+03  0.12581200660E+04  0.99494945541E+03 0.  0.
        -13    1    4    4    0    0  0.46802001895E+03  0.39188754769E+03  0.38879111235E+03  0.72372448375E+03  0.10566000000E+00 0.  1.
          4    1    4    4  501    0 -0.35850731874E+03 -0.19193773489E+03  0.34671464726E+03  0.53439558221E+03  0.00000000000E+00 0.  1.
         13    1    3    3    0    0  0.43465040251E+03 -0.72987671050E+02  0.35478900388E+03  0.56579450419E+03  0.10566000000E+00 0. -1.
         -4    1    3    3    0  503 -0.54416310272E+03 -0.12696214175E+03  0.85715015852E+03  0.10232004994E+04  0.00000000000E+00 0. -1.
<mgrwt>
<rscale>  2 0.10259326E+04</rscale>
<asrwt>0</asrwt>
<pdfrwt beam="1">  1       21 0.36881230E+00 0.10276714E+04</pdfrwt>
<pdfrwt beam="2">  1       21 0.69205397E-01 0.10276714E+04</pdfrwt>
<totfact> 0.86673031E+00</totfact>
</mgrwt>
</event>
<event>
 8    1  0.5815007E-006  0.1030820E+04  0.7818608E-02  0.8748931E-01
         21   -1    0    0  501  502  0.00000000000E+00  0.00000000000E+00  0.13059460023E+04  0.13059460023E+04  0.00000000000E+00 0. -1.
         21   -1    0    0  502  503 -0.00000000000E+00 -0.00000000000E+00 -0.80409406890E+03  0.80409406890E+03  0.00000000000E+00 0. -1.
   -9000010    2    1    2    0  503 -0.50190510260E+02  0.98779547388E+02  0.24905111640E+03  0.10604794256E+04  0.10248481191E+04 0.  0.
    9000010    2    1    2  501    0  0.50190510260E+02 -0.98779547388E+02  0.25280081697E+03  0.10495606455E+04  0.10126168127E+04 0.  0.
        -13    1    4    4    0    0 -0.20534470171E+03 -0.30349584559E+03 -0.25423444284E+03  0.44599477340E+03  0.10566000000E+00 0.  1.
          4    1    4    4  501    0  0.25553521197E+03  0.20471629820E+03  0.50703525981E+03  0.60356587213E+03  0.00000000000E+00 0.  1.
         13    1    3    3    0    0 -0.26686798070E+03 -0.39382411767E+03  0.21266951671E+03  0.52109911656E+03  0.10566000000E+00 0. -1.
         -4    1    3    3    0  503  0.21667747044E+03  0.49260366505E+03  0.36381599689E+02  0.53938030908E+03  0.00000000000E+00 0. -1.
<mgrwt>
<rscale>  2 0.10277667E+04</rscale>
<asrwt>0</asrwt>
<pdfrwt beam="1">  1       21 0.20091477E+00 0.10308201E+04</pdfrwt>
<pdfrwt beam="2">  1       21 0.12370678E+00 0.10308201E+04</pdfrwt>
<totfact> 0.31469469E+01</totfact>
</mgrwt>
</event>
<event>
 8    1  0.5815007E-006  0.1034425E+04  0.7818608E-02  0.8753584E-01
         21   -1    0    0  503  502  0.00000000000E+00  0.00000000000E+00  0.69049936860E+03  0.69049936860E+03  0.00000000000E+00 0. -1.
         21   -1    0    0  501  503 -0.00000000000E+00 -0.00000000000E+00 -0.15172030926E+04  0.15172030926E+04  0.00000000000E+00 0. -1.
    9000010    2    1    2  501    0  0.28358987310E+02 -0.21295610578E+03 -0.23399672546E+03  0.10155043105E+04  0.96454134279E+03 0.  0.
   -9000010    2    1    2    0  502 -0.28358987310E+02  0.21295610578E+03 -0.59270699854E+03  0.11921981507E+04  0.10118697096E+04 0.  0.
        -13    1    3    3    0    0 -0.34257058959E+03 -0.35493312631E+03  0.91856314735E+02  0.50176660583E+03  0.10566000000E+00 0.  1.
          4    1    3    3  501    0  0.37092957691E+03  0.14197702053E+03 -0.32585304020E+03  0.51373770466E+03  0.00000000000E+00 0.  1.
         13    1    4    4    0    0 -0.18968476538E+03  0.49077702192E+03 -0.67951903858E+03  0.85941173510E+03  0.10566000000E+00 0. -1.
         -4    1    4    4    0  502  0.16132577807E+03 -0.27782091614E+03  0.86812040044E+02  0.33278641561E+03  0.00000000000E+00 0. -1.
<mgrwt>
<rscale>  2 0.10226640E+04</rscale>
<asrwt>0</asrwt>
<pdfrwt beam="1">  1       21 0.10623067E+00 0.10344249E+04</pdfrwt>
<pdfrwt beam="2">  1       21 0.23341586E+00 0.10344249E+04</pdfrwt>
<totfact> 0.27113479E+01</totfact>
</mgrwt>
</event>
<event>
 8    1  0.5815007E-006  0.1116704E+04  0.7818608E-02  0.8675029E-01
         21   -1    0    0  501  502  0.00000000000E+00  0.00000000000E+00  0.25194621334E+04  0.25194621334E+04  0.00000000000E+00 0. -1.
         21   -1    0    0  502  503 -0.00000000000E+00 -0.00000000000E+00 -0.49023334277E+03  0.49023334277E+03  0.00000000000E+00 0. -1.
   -9000010    2    1    2    0  503 -0.60557337341E+02  0.48885873575E+03  0.10937679386E+04  0.15529475183E+04  0.98623913759E+03 0.  0.
    9000010    2    1    2  501    0  0.60557337341E+02 -0.48885873575E+03  0.93546085204E+03  0.14567479579E+04  0.10021863861E+04 0.  0.
        -13    1    4    4    0    0  0.10351995679E+02 -0.45496626553E+03 -0.60375020447E+02  0.45907147684E+03  0.10566000000E+00 0.  1.
          4    1    4    4  501    0  0.50205341662E+02 -0.33892470217E+02  0.99583587248E+03  0.99767648103E+03  0.00000000000E+00 0.  1.
         13    1    3    3    0    0 -0.67990825768E+02 -0.18525593186E+03  0.78864031713E+03  0.81295514861E+03  0.10566000000E+00 0. -1.
         -4    1    3    3    0  503  0.74334884269E+01  0.67411466762E+03  0.30512762146E+03  0.73999236971E+03  0.00000000000E+00 0. -1.
<mgrwt>
<rscale>  2 0.11131143E+04</rscale>
<asrwt>0</asrwt>
<pdfrwt beam="1">  1       21 0.38760955E+00 0.11167039E+04</pdfrwt>
<pdfrwt beam="2">  1       21 0.75420516E-01 0.11167039E+04</pdfrwt>
<totfact> 0.51133140E+00</totfact>
</mgrwt>
</event>
<event>
 8    1  0.5815007E-006  0.1466887E+04  0.7818608E-02  0.8429420E-01
         21   -1    0    0  501  502  0.00000000000E+00  0.00000000000E+00  0.29341856187E+04  0.29341856187E+04  0.00000000000E+00 0. -1.
         21   -1    0    0  502  503 -0.00000000000E+00 -0.00000000000E+00 -0.83130264571E+03  0.83130264571E+03  0.00000000000E+00 0.  1.
   -9000010    2    1    2    0  503  0.26761328752E+03  0.10363382965E+04  0.39972288876E+03  0.15203737597E+04  0.10030673182E+04 0.  0.
    9000010    2    1    2  501    0 -0.26761328752E+03 -0.10363382965E+04  0.17031600843E+04  0.22451145048E+04  0.99708120560E+03 0.  0.
        -13    1    4    4    0    0 -0.37319635541E+03 -0.18241245201E+02  0.78798635920E+03  0.87208415659E+03  0.10566000000E+00 0.  1.
          4    1    4    4  501    0  0.10558306789E+03 -0.10180970513E+04  0.91517372507E+03  0.13730303482E+04  0.00000000000E+00 0.  1.
         13    1    3    3    0    0  0.40168163492E+02  0.11671498929E+04  0.18725893128E+03  0.11827587549E+04  0.10566000000E+00 0. -1.
         -4    1    3    3    0  503  0.22744512403E+03 -0.13081159642E+03  0.21246395748E+03  0.33761500475E+03  0.00000000000E+00 0. -1.
<mgrwt>
<rscale>  2 0.14658644E+04</rscale>
<asrwt>0</asrwt>
<pdfrwt beam="1">  1       21 0.45141317E+00 0.14668872E+04</pdfrwt>
<pdfrwt beam="2">  1       21 0.12789272E+00 0.14668872E+04</pdfrwt>
<totfact> 0.43179052E-01</totfact>
</mgrwt>
</event>
<event>
 8    1  0.5815007E-006  0.1043958E+04  0.7818608E-02  0.8742394E-01
         21   -1    0    0  503  502  0.00000000000E+00  0.00000000000E+00  0.53905443515E+03  0.53905443515E+03  0.00000000000E+00 0.  1.
         21   -1    0    0  501  503 -0.00000000000E+00 -0.00000000000E+00 -0.19551307899E+04  0.19551307899E+04  0.00000000000E+00 0.  1.
    9000010    2    1    2  501    0  0.16583379109E+03  0.58214172371E+02 -0.66291280653E+03  0.12068994953E+04  0.99310788260E+03 0.  0.
   -9000010    2    1    2    0  502 -0.16583379109E+03 -0.58214172371E+02 -0.75316354821E+03  0.12872857298E+04  0.10290575706E+04 0.  0.
        -13    1    3    3    0    0 -0.22275113279E+03  0.23499644243E+03 -0.70710168956E+03  0.77771087536E+03  0.10566000000E+00 0.  1.
          4    1    3    3  501    0  0.38858492388E+03 -0.17678227006E+03  0.44188883036E+02  0.42918861990E+03  0.00000000000E+00 0.  1.
         13    1    4    4    0    0 -0.15203562275E+03  0.37931460334E+03  0.85596984043E+01  0.40873913257E+03  0.10566000000E+00 0. -1.
         -4    1    4    4    0  502 -0.13798168340E+02 -0.43752877572E+03 -0.76172324661E+03  0.87854659721E+03  0.00000000000E+00 0. -1.
<mgrwt>
<rscale>  2 0.10349889E+04</rscale>
<asrwt>0</asrwt>
<pdfrwt beam="1">  1       21 0.82931451E-01 0.10439584E+04</pdfrwt>
<pdfrwt beam="2">  1       21 0.30078936E+00 0.10439584E+04</pdfrwt>
<totfact> 0.16775035E+01</totfact>
</mgrwt>
</event>
<event>
 8    1  0.5815007E-006  0.1060279E+04  0.7818608E-02  0.8722012E-01
         21   -1    0    0  501  502  0.00000000000E+00  0.00000000000E+00  0.51759571706E+03  0.51759571706E+03  0.00000000000E+00 0. -1.
         21   -1    0    0  502  503 -0.00000000000E+00 -0.00000000000E+00 -0.21745239591E+04  0.21745239591E+04  0.00000000000E+00 0. -1.
   -9000010    2    1    2    0  503  0.11675504913E+02 -0.33120038080E+03 -0.96002602318E+03  0.14233153152E+04  0.99716924919E+03 0.  0.
    9000010    2    1    2  501    0 -0.11675504913E+02  0.33120038080E+03 -0.69690221888E+03  0.12688043610E+04  0.10071552980E+04 0.  0.
        -13    1    4    4    0    0  0.94317599484E+01  0.69394466774E+03 -0.41217164308E+03  0.80717633421E+03  0.10566000000E+00 0.  1.
          4    1    4    4  501    0 -0.21107264862E+02 -0.36274428695E+03 -0.28473057580E+03  0.46162802681E+03  0.00000000000E+00 0.  1.
         13    1    3    3    0    0 -0.43828124522E+03  0.65888601487E+02 -0.49262614015E+03  0.66265547824E+03  0.10566000000E+00 0. -1.
         -4    1    3    3    0  503  0.44995675014E+03 -0.39708898228E+03 -0.46739988303E+03  0.76065983692E+03  0.00000000000E+00 0. -1.
<mgrwt>
<rscale>  2 0.10579009E+04</rscale>
<asrwt>0</asrwt>
<pdfrwt beam="1">  1       21 0.79630112E-01 0.10602791E+04</pdfrwt>
<pdfrwt beam="2">  1       21 0.33454214E+00 0.10602791E+04</pdfrwt>
<totfact> 0.10690146E+01</totfact>
</mgrwt>
</event>
<event>
 8    1  0.5815007E-006  0.1118690E+04  0.7818608E-02  0.8673308E-01
         21   -1    0    0  501  502  0.00000000000E+00  0.00000000000E+00  0.17634051160E+04  0.17634051160E+04  0.00000000000E+00 0.  1.
         21   -1    0    0  502  503 -0.00000000000E+00 -0.00000000000E+00 -0.83977843536E+03  0.83977843536E+03  0.00000000000E+00 0.  1.
   -9000010    2    1    2    0  503  0.84975986845E+02  0.48749295116E+03  0.99351474181E+03  0.14961750709E+04  0.10032935785E+04 0.  0.
    9000010    2    1    2  501    0 -0.84975986845E+02 -0.48749295116E+03 -0.69888061176E+02  0.11070084805E+04  0.98778192888E+03 0.  0.
        -13    1    4    4    0    0  0.38195202066E+03 -0.41702095459E+02 -0.22202888683E+03  0.44376035042E+03  0.10566000000E+00 0.  1.
          4    1    4    4  501    0 -0.46692800751E+03 -0.44579085570E+03  0.15214082566E+03  0.66324813008E+03  0.00000000000E+00 0.  1.
         13    1    3    3    0    0  0.30070234622E+03  0.38115275796E+03  0.11226929647E+04  0.12231675397E+04  0.10566000000E+00 0. -1.
         -4    1    3    3    0  503 -0.21572635937E+03  0.10634019320E+03 -0.12917822289E+03  0.27300753120E+03  0.00000000000E+00 0. -1.
<mgrwt>
<rscale>  2 0.11152016E+04</rscale>
<asrwt>0</asrwt>
<pdfrwt beam="1">  1       21 0.27129309E+00 0.11186904E+04</pdfrwt>
<pdfrwt beam="2">  1       21 0.12919668E+00 0.11186904E+04</pdfrwt>
<totfact> 0.81998780E+00</totfact>
</mgrwt>
</event>
<event>
 8    1  0.5815007E-006  0.1031506E+04  0.7818608E-02  0.8754206E-01
         21   -1    0    0  503  502  0.00000000000E+00  0.00000000000E+00  0.18065467997E+04  0.18065467997E+04  0.00000000000E+00 0.  1.
         21   -1    0    0  501  503 -0.00000000000E+00 -0.00000000000E+00 -0.56877313287E+03  0.56877313287E+03  0.00000000000E+00 0.  1.
    9000010    2    1    2  501    0 -0.13872617576E+03  0.91604145276E+02  0.55627041217E+03  0.11390140791E+04  0.97993878871E+03 0.  0.
   -9000010    2    1    2    0  502  0.13872617576E+03 -0.91604145276E+02  0.68150325470E+03  0.12363058535E+04  0.10180222031E+04 0.  0.
        -13    1    3    3    0    0 -0.39064385653E+03  0.24262144601E+03  0.67951220142E+03  0.82049048243E+03  0.10566000000E+00 0.  1.
          4    1    3    3  501    0  0.25191768077E+03 -0.15101730074E+03 -0.12324178925E+03  0.31852359665E+03  0.00000000000E+00 0.  1.
         13    1    4    4    0    0 -0.23365164479E+03 -0.11957900163E+03 -0.16573680915E+03  0.31042056925E+03  0.10566000000E+00 0. -1.
         -4    1    4    4    0  502  0.37237782055E+03  0.27974856354E+02  0.84724006386E+03  0.92588528427E+03  0.00000000000E+00 0. -1.
<mgrwt>
<rscale>  2 0.10219837E+04</rscale>
<asrwt>0</asrwt>
<pdfrwt beam="1">  1       21 0.27793027E+00 0.10315064E+04</pdfrwt>
<pdfrwt beam="2">  1       21 0.87503560E-01 0.10315064E+04</pdfrwt>
<totfact> 0.21349515E+01</totfact>
</mgrwt>
</event>
<event>
 8    1  0.5815007E-006  0.1100286E+04  0.7818608E-02  0.8700161E-01
         21   -1    0    0  501  502  0.00000000000E+00  0.00000000000E+00  0.31615689361E+04  0.31615689361E+04  0.00000000000E+00 0.  1.
         21   -1    0    0  502  503 -0.00000000000E+00 -0.00000000000E+00 -0.38144599874E+03  0.38144599874E+03  0.00000000000E+00 0.  1.
   -9000010    2    1    2    0  503 -0.31693475265E+03 -0.40124163466E+02  0.10111309237E+04  0.14943279713E+04  0.10528878170E+04 0.  0.
    9000010    2    1    2  501    0  0.31693475265E+03  0.40124163466E+02  0.17689920136E+04  0.20486869634E+04  0.98271457909E+03 0.  0.
        -13    1    4    4    0    0 -0.16638939498E+03  0.58897219153E+02  0.14689035886E+04  0.14794702014E+04  0.10566000000E+00 0.  1.
          4    1    4    4  501    0  0.48332414763E+03 -0.18773055687E+02  0.30008842503E+03  0.56921676199E+03  0.00000000000E+00 0.  1.
         13    1    3    3    0    0 -0.28884262038E+03 -0.53015493432E+03  0.48150207862E+03  0.77222961392E+03  0.10566000000E+00 0. -1.
         -4    1    3    3    0  503 -0.28092132264E+02  0.49003077085E+03  0.52962884506E+03  0.72209835743E+03  0.00000000000E+00 0. -1.
<mgrwt>
<rscale>  2 0.10831531E+04</rscale>
<asrwt>0</asrwt>
<pdfrwt beam="1">  1       21 0.48639520E+00 0.11002865E+04</pdfrwt>
<pdfrwt beam="2">  1       21 0.58684002E-01 0.11002865E+04</pdfrwt>
<totfact> 0.19077731E+00</totfact>
</mgrwt>
</event>
<event>
 8    1  0.5815007E-006  0.1379412E+04  0.7818608E-02  0.8499650E-01
         21   -1    0    0  503  502  0.00000000000E+00  0.00000000000E+00  0.14278837978E+04  0.14278837978E+04  0.00000000000E+00 0.  1.
         21   -1    0    0  501  503 -0.00000000000E+00 -0.00000000000E+00 -0.13918905043E+04  0.13918905043E+04  0.00000000000E+00 0. -1.
    9000010    2    1    2  501    0  0.86070581347E+03 -0.25136642118E+03 -0.45544086748E+03  0.14526544206E+04  0.10482265532E+04 0.  0.
   -9000010    2    1    2    0  502 -0.86070581347E+03  0.25136642118E+03  0.49143416097E+03  0.13671198816E+04  0.90747433073E+03 0.  0.
        -13    1    3    3    0    0  0.43163799232E+03 -0.51334485836E+03  0.12768237661E+03  0.68274233828E+03  0.10566000000E+00 0.  1.
          4    1    3    3  501    0  0.42906782115E+03  0.26197843718E+03 -0.58312324409E+03  0.76991208231E+03  0.00000000000E+00 0.  1.
         13    1    4    4    0    0 -0.14117953754E+03  0.30052177506E+03 -0.18349596061E+03  0.37936233054E+03  0.10566000000E+00 0. -1.
         -4    1    4    4    0  502 -0.71952627593E+03 -0.49155353887E+02  0.67493012158E+03  0.98775755101E+03  0.00000000000E+00 0. -1.
<mgrwt>
<rscale>  2 0.13527297E+04</rscale>
<asrwt>0</asrwt>
<pdfrwt beam="1">  1       21 0.21967443E+00 0.13794124E+04</pdfrwt>
<pdfrwt beam="2">  1       21 0.21413700E+00 0.13794124E+04</pdfrwt>
<totfact> 0.35516939E+00</totfact>
</mgrwt>
</event>
<event>
 8    1  0.5815007E-006  0.1158920E+04  0.7818608E-02  0.8664369E-01
         21   -1    0    0  501  502  0.00000000000E+00  0.00000000000E+00  0.77609653542E+03  0.77609653542E+03  0.00000000000E+00 0. -1.
         21   -1    0    0  502  503 -0.00000000000E+00 -0.00000000000E+00 -0.15479561900E+04  0.15479561900E+04  0.00000000000E+00 0. -1.
   -9000010    2    1    2    0  503  0.21676867505E+03 -0.46459557328E+03 -0.40560429141E+03  0.12278474321E+04  0.10393540157E+04 0.  0.
    9000010    2    1    2  501    0 -0.21676867505E+03  0.46459557328E+03 -0.36625536313E+03  0.10962052933E+04  0.89704255688E+03 0.  0.
        -13    1    4    4    0    0 -0.47685755281E+03  0.57695217838E+03 -0.29075686270E+03  0.80299844718E+03  0.10566000000E+00 0.  1.
          4    1    4    4  501    0  0.26008887777E+03 -0.11235660510E+03 -0.75498500433E+02  0.29320684612E+03  0.00000000000E+00 0.  1.
         13    1    3    3    0    0 -0.19838575466E+03 -0.46022815124E+02  0.26547536116E+03  0.33459256673E+03  0.10566000000E+00 0. -1.
         -4    1    3    3    0  503  0.41515442971E+03 -0.41857275816E+03 -0.67107965256E+03  0.89325486534E+03  0.00000000000E+00 0. -1.
<mgrwt>
<rscale>  2 0.11261263E+04</rscale>
<asrwt>0</asrwt>
<pdfrwt beam="1">  1       21 0.11939947E+00 0.11589195E+04</pdfrwt>
<pdfrwt beam="2">  1       21 0.23814710E+00 0.11589195E+04</pdfrwt>
<totfact> 0.17699773E+01</totfact>
</mgrwt>
</event>
<event>
 8    1  0.5815007E-006  0.1149697E+04  0.7818608E-02  0.8649837E-01
         21   -1    0    0  501  502  0.00000000000E+00  0.00000000000E+00  0.60265109940E+03  0.60265109940E+03  0.00000000000E+00 0.  1.
         21   -1    0    0  502  503 -0.00000000000E+00 -0.00000000000E+00 -0.28503589306E+04  0.28503589306E+04  0.00000000000E+00 0.  1.
   -9000010    2    1    2    0  503 -0.23814763115E+03  0.49541095003E+03 -0.19704723026E+04  0.22703591912E+04  0.98469460145E+03 0.  0.
    9000010    2    1    2  501    0  0.23814763115E+03 -0.49541095003E+03 -0.27723552854E+03  0.11826508387E+04  0.10097807507E+04 0.  0.
        -13    1    4    4    0    0  0.57327239855E+03 -0.53751752514E+03 -0.30675789722E+03  0.84360343257E+03  0.10566000000E+00 0.  1.
          4    1    4    4  501    0 -0.33512476739E+03  0.42106575116E+02  0.29522368671E+02  0.33904740618E+03  0.00000000000E+00 0.  1.
         13    1    3    3    0    0  0.21457038044E+02  0.68906475143E+03 -0.17435519628E+04  0.18748984224E+04  0.10566000000E+00 0. -1.
         -4    1    3    3    0  503 -0.25960466920E+03 -0.19365380140E+03 -0.22692033986E+03  0.39546076886E+03  0.00000000000E+00 0. -1.
<mgrwt>
<rscale>  2 0.11441650E+04</rscale>
<asrwt>0</asrwt>
<pdfrwt beam="1">  1       21 0.92715552E-01 0.11496971E+04</pdfrwt>
<pdfrwt beam="2">  1       21 0.43851677E+00 0.11496971E+04</pdfrwt>
<totfact> 0.13469574E+00</totfact>
</mgrwt>
</event>
<event>
 8    1  0.5815007E-006  0.1064178E+04  0.7818608E-02  0.8717323E-01
         21   -1    0    0  501  502  0.00000000000E+00  0.00000000000E+00  0.86747870149E+03  0.86747870149E+03  0.00000000000E+00 0. -1.
         21   -1    0    0  502  503 -0.00000000000E+00 -0.00000000000E+00 -0.13431280169E+04  0.13431280169E+04  0.00000000000E+00 0. -1.
   -9000010    2    1    2    0  503 -0.11068322962E+03 -0.25230161042E+03 -0.43324173290E+03  0.11455836953E+04  0.10240882403E+04 0.  0.
    9000010    2    1    2  501    0  0.11068322962E+03  0.25230161042E+03 -0.42407582476E+02  0.10650230230E+04  0.10278953043E+04 0.  0.
        -13    1    4    4    0    0 -0.54819964722E+02  0.10235909005E+03 -0.52265056840E+03  0.53539353719E+03  0.10566000000E+00 0.  1.
          4    1    4    4  501    0  0.16550319434E+03  0.14994252037E+03  0.48024298593E+03  0.52962948585E+03  0.00000000000E+00 0.  1.
         13    1    3    3    0    0  0.26245493887E+03 -0.48547341964E+03 -0.43956266683E+03  0.70553694825E+03  0.10566000000E+00 0. -1.
         -4    1    3    3    0  503 -0.37313816849E+03  0.23317180922E+03  0.63209339281E+01  0.44004674707E+03  0.00000000000E+00 0. -1.
<mgrwt>
<rscale>  2 0.10632580E+04</rscale>
<asrwt>0</asrwt>
<pdfrwt beam="1">  1       21 0.13345826E+00 0.10641784E+04</pdfrwt>
<pdfrwt beam="2">  1       21 0.20663508E+00 0.10641784E+04</pdfrwt>
<totfact> 0.22680445E+01</totfact>
</mgrwt>
</event>
<event>
 8    1  0.5815007E-006  0.1339043E+04  0.7818608E-02  0.8511585E-01
         21   -1    0    0  501  502  0.00000000000E+00  0.00000000000E+00  0.18150828703E+04  0.18150828703E+04  0.00000000000E+00 0.  1.
         21   -1    0    0  502  503 -0.00000000000E+00 -0.00000000000E+00 -0.16402531237E+04  0.16402531237E+04  0.00000000000E+00 0.  1.
   -9000010    2    1    2    0  503  0.58124766122E+03 -0.68566813935E+03 -0.10127040290E+04  0.16788702355E+04  0.99249492503E+03 0.  0.
    9000010    2    1    2  501    0 -0.58124766122E+03  0.68566813935E+03  0.11875337755E+04  0.17764657585E+04  0.96829978936E+03 0.  0.
        -13    1    4    4    0    0  0.28611988145E+02  0.52672142788E+03  0.12662972071E+03  0.54248429082E+03  0.10566000000E+00 0.  1.
          4    1    4    4  501    0 -0.60985964936E+03  0.15894671147E+03  0.10609040548E+04  0.12339814677E+04  0.00000000000E+00 0.  1.
         13    1    3    3    0    0  0.82725516868E+03 -0.70936267561E+03 -0.78750218470E+03  0.13445096585E+04  0.10566000000E+00 0. -1.
         -4    1    3    3    0  503 -0.24600750746E+03  0.23694536253E+02 -0.22520184426E+03  0.33436057697E+03  0.00000000000E+00 0. -1.
<mgrwt>
<rscale>  2 0.13345620E+04</rscale>
<asrwt>0</asrwt>
<pdfrwt beam="1">  1       21 0.27924352E+00 0.13390429E+04</pdfrwt>
<pdfrwt beam="2">  1       21 0.25234664E+00 0.13390429E+04</pdfrwt>
<totfact> 0.68140350E-01</totfact>
</mgrwt>
</event>
<event>
 8    1  0.5815007E-006  0.1124044E+04  0.7818608E-02  0.8671909E-01
         21   -1    0    0  501  502  0.00000000000E+00  0.00000000000E+00  0.88429690342E+03  0.88429690342E+03  0.00000000000E+00 0.  1.
         21   -1    0    0  502  503 -0.00000000000E+00 -0.00000000000E+00 -0.14157855803E+04  0.14157855803E+04  0.00000000000E+00 0.  1.
   -9000010    2    1    2    0  503 -0.40502913595E+03 -0.18898202182E+03 -0.12335893715E+03  0.11307931188E+04  0.10313645546E+04 0.  0.
    9000010    2    1    2  501    0  0.40502913595E+03  0.18898202182E+03 -0.40812973978E+03  0.11692893650E+04  0.10004523622E+04 0.  0.
        -13    1    4    4    0    0  0.33789715291E+03 -0.21652561377E+03  0.18961823086E+03  0.44386136575E+03  0.10566000000E+00 0.  1.
          4    1    4    4  501    0  0.67131983044E+02  0.40550763559E+03 -0.59774797064E+03  0.72542799924E+03  0.00000000000E+00 0.  1.
         13    1    3    3    0    0  0.99105428819E+02  0.14416866558E+03  0.33125078004E+03  0.37461123928E+03  0.10566000000E+00 0. -1.
         -4    1    3    3    0  503 -0.50413456477E+03 -0.33315068740E+03 -0.45460971718E+03  0.75618187949E+03  0.00000000000E+00 0. -1.
<mgrwt>
<rscale>  2 0.11169029E+04</rscale>
<asrwt>0</asrwt>
<pdfrwt beam="1">  1       21 0.13604568E+00 0.11240443E+04</pdfrwt>
<pdfrwt beam="2">  1       21 0.21781317E+00 0.11240443E+04</pdfrwt>
<totfact> 0.17385019E+01</totfact>
</mgrwt>
</event>
<event>
 8    1  0.5815007E-006  0.1080548E+04  0.7818608E-02  0.8702524E-01
         21   -1    0    0  501  502  0.00000000000E+00  0.00000000000E+00  0.85841309237E+03  0.85841309237E+03  0.00000000000E+00 0.  1.
         21   -1    0    0  502  503 -0.00000000000E+00 -0.00000000000E+00 -0.13593622140E+04  0.13593622140E+04  0.00000000000E+00 0.  1.
   -9000010    2    1    2    0  503 -0.24088369386E+03 -0.32895841361E+03 -0.25319434381E+03  0.11091875316E+04  0.99997550600E+03 0.  0.
    9000010    2    1    2  501    0  0.24088369386E+03  0.32895841361E+03 -0.24775477780E+03  0.11085877748E+04  0.10006726900E+04 0.  0.
        -13    1    4    4    0    0 -0.15306339104E+03  0.56088930657E+03 -0.28958748269E+03  0.64952762620E+03  0.10566000000E+00 0.  1.
          4    1    4    4  501    0  0.39394708490E+03 -0.23193089296E+03  0.41832704890E+02  0.45906014857E+03  0.00000000000E+00 0.  1.
         13    1    3    3    0    0 -0.58926822250E+03 -0.29712516374E+03  0.27725164367E+02  0.66052183679E+03  0.10566000000E+00 0. -1.
         -4    1    3    3    0  503  0.34838452865E+03 -0.31833249873E+02 -0.28091950817E+03  0.44866569478E+03  0.00000000000E+00 0. -1.
<mgrwt>
<rscale>  2 0.10803868E+04</rscale>
<asrwt>0</asrwt>
<pdfrwt beam="1">  1       21 0.13206355E+00 0.10805482E+04</pdfrwt>
<pdfrwt beam="2">  1       21 0.20913265E+00 0.10805482E+04</pdfrwt>
<totfact> 0.22293071E+01</totfact>
</mgrwt>
</event>
<event>
 8    1  0.5815007E-006  0.1070302E+04  0.7818608E-02  0.8712233E-01
         21   -1    0    0  501  502  0.00000000000E+00  0.00000000000E+00  0.12630642234E+04  0.12630642234E+04  0.00000000000E+00 0.  1.
         21   -1    0    0  502  503 -0.00000000000E+00 -0.00000000000E+00 -0.90710468995E+03  0.90710468995E+03  0.00000000000E+00 0.  1.
   -9000010    2    1    2    0  503  0.38505646745E+03 -0.72084825033E+02  0.10403145101E+03  0.10706168180E+04  0.99092538726E+03 0.  0.
    9000010    2    1    2  501    0 -0.38505646745E+03  0.72084825033E+02  0.25192808241E+03  0.10995520953E+04  0.99603330588E+03 0.  0.
        -13    1    4    4    0    0 -0.55008050518E+03 -0.27829698494E+03  0.33764516598E+03  0.70288124408E+03  0.10566000000E+00 0.  1.
          4    1    4    4  501    0  0.16502403773E+03  0.35038180997E+03 -0.85717083568E+02  0.39667085121E+03  0.00000000000E+00 0.  1.
         13    1    3    3    0    0 -0.46723573193E+02  0.32430790157E+01  0.48659323966E+03  0.48884210324E+03  0.10566000000E+00 0. -1.
         -4    1    3    3    0  503  0.43178004064E+03 -0.75327904049E+02 -0.38256178865E+03  0.58177471478E+03  0.00000000000E+00 0. -1.
<mgrwt>
<rscale>  2 0.10691124E+04</rscale>
<asrwt>0</asrwt>
<pdfrwt beam="1">  1       21 0.19431757E+00 0.10703023E+04</pdfrwt>
<pdfrwt beam="2">  1       21 0.13955457E+00 0.10703023E+04</pdfrwt>
<totfact> 0.24766446E+01</totfact>
</mgrwt>
</event>
<event>
 8    1  0.5815007E-006  0.1074624E+04  0.7818608E-02  0.8710966E-01
         21   -1    0    0  503  502  0.00000000000E+00  0.00000000000E+00  0.13230137509E+04  0.13230137509E+04  0.00000000000E+00 0.  1.
         21   -1    0    0  501  503 -0.00000000000E+00 -0.00000000000E+00 -0.88371927068E+03  0.88371927068E+03  0.00000000000E+00 0.  1.
    9000010    2    1    2  501    0 -0.24072733659E+03  0.26369473917E+03  0.36655179955E+02  0.10591546984E+04  0.99648407252E+03 0.  0.
   -9000010    2    1    2    0  502  0.24072733659E+03 -0.26369473917E+03  0.40263930027E+03  0.11475783232E+04  0.10135743859E+04 0.  0.
        -13    1    3    3    0    0  0.57588554651E+02 -0.34225906261E+03 -0.11742623022E+03  0.36639683169E+03  0.10566000000E+00 0.  1.
          4    1    3    3  501    0 -0.29831589125E+03  0.60595380178E+03  0.15408141017E+03  0.69275786666E+03  0.00000000000E+00 0.  1.
         13    1    4    4    0    0 -0.20883849862E+03  0.14322520845E+03 -0.17681435065E+03  0.30885320883E+03  0.10566000000E+00 0. -1.
         -4    1    4    4    0  502  0.44956583521E+03 -0.40691994762E+03  0.57945365092E+03  0.83872511440E+03  0.00000000000E+00 0. -1.
<mgrwt>
<rscale>  2 0.10705755E+04</rscale>
<asrwt>0</asrwt>
<pdfrwt beam="1">  1       21 0.20354058E+00 0.10746244E+04</pdfrwt>
<pdfrwt beam="2">  1       21 0.13595681E+00 0.10746244E+04</pdfrwt>
<totfact> 0.22641865E+01</totfact>
</mgrwt>
</event>
<event>
 8    1  0.5815007E-006  0.1174622E+04  0.7818608E-02  0.8644615E-01
         21   -1    0    0  501  502  0.00000000000E+00  0.00000000000E+00  0.11336393159E+04  0.11336393159E+04  0.00000000000E+00 0. -1.
         21   -1    0    0  502  503 -0.00000000000E+00 -0.00000000000E+00 -0.12573890196E+04  0.12573890196E+04  0.00000000000E+00 0. -1.
   -9000010    2    1    2    0  503 -0.41541173590E+03 -0.68133104897E+01 -0.45476906263E+03  0.12595839450E+04  0.10986917142E+04 0.  0.
    9000010    2    1    2  501    0  0.41541173590E+03  0.68133104897E+01  0.33101935898E+03  0.11314443905E+04  0.99898911969E+03 0.  0.
        -13    1    4    4    0    0  0.33735150099E+03  0.84065156593E+02 -0.31922357465E+03  0.47199225370E+03  0.10566000000E+00 0.  1.
          4    1    4    4  501    0  0.78060234902E+02 -0.77251846103E+02  0.65024293363E+03  0.65945213680E+03  0.00000000000E+00 0.  1.
         13    1    3    3    0    0  0.31786584034E+03  0.24031354892E+03 -0.11724512857E+03  0.41537419947E+03  0.10566000000E+00 0. -1.
         -4    1    3    3    0  503 -0.73327757624E+03 -0.24712685941E+03 -0.33752393406E+03  0.84420974557E+03  0.00000000000E+00 0. -1.
<mgrwt>
<rscale>  2 0.11507323E+04</rscale>
<asrwt>0</asrwt>
<pdfrwt beam="1">  1       21 0.17440605E+00 0.11746220E+04</pdfrwt>
<pdfrwt beam="2">  1       21 0.19344447E+00 0.11746220E+04</pdfrwt>
<totfact> 0.12199848E+01</totfact>
</mgrwt>
</event>
<event>
 8    1  0.5815007E-006  0.1467867E+04  0.7818608E-02  0.8428564E-01
         21   -1    0    0  503  502  0.00000000000E+00  0.00000000000E+00  0.82563051904E+03  0.82563051904E+03  0.00000000000E+00 0.  1.
         21   -1    0    0  501  503 -0.00000000000E+00 -0.00000000000E+00 -0.28483876156E+04  0.28483876156E+04  0.00000000000E+00 0.  1.
    9000010    2    1    2  501    0 -0.48891714657E+03 -0.95482512298E+03 -0.15468473987E+04  0.21309290820E+04  0.99869459104E+03 0.  0.
   -9000010    2    1    2    0  502  0.48891714657E+03  0.95482512298E+03 -0.47590969789E+03  0.15430890526E+04  0.10019494958E+04 0.  0.
        -13    1    3    3    0    0  0.30965057882E+03 -0.32203547720E+03 -0.47371818845E+03  0.65115225775E+03  0.10566000000E+00 0.  1.
          4    1    3    3  501    0 -0.79856772539E+03 -0.63278964578E+03 -0.10731292102E+04  0.14797768243E+04  0.00000000000E+00 0.  1.
         13    1    4    4    0    0  0.54692883045E+03  0.13065101292E+03 -0.44362899308E+03  0.71624543797E+03  0.10566000000E+00 0. -1.
         -4    1    4    4    0  502 -0.58011683873E+02  0.82417411006E+03 -0.32280704806E+02  0.82684361463E+03  0.00000000000E+00 0. -1.
<mgrwt>
<rscale>  2 0.14673118E+04</rscale>
<asrwt>0</asrwt>
<pdfrwt beam="1">  1       21 0.12702008E+00 0.14678671E+04</pdfrwt>
<pdfrwt beam="2">  1       21 0.43821347E+00 0.14678671E+04</pdfrwt>
<totfact> 0.54381100E-01</totfact>
</mgrwt>
</event>
<event>
 8    1  0.5815007E-006  0.1062049E+04  0.7818608E-02  0.8726681E-01
         21   -1    0    0  501  502  0.00000000000E+00  0.00000000000E+00  0.11953086950E+04  0.11953086950E+04  0.00000000000E+00 0. -1.
         21   -1    0    0  502  503 -0.00000000000E+00 -0.00000000000E+00 -0.91118522175E+03  0.91118522175E+03  0.00000000000E+00 0. -1.
   -9000010    2    1    2    0  503 -0.28362447667E+03  0.16503584888E+03  0.11767548870E+03  0.10314810531E+04  0.97078626232E+03 0.  0.
    9000010    2    1    2  501    0  0.28362447667E+03 -0.16503584888E+03  0.16644798451E+03  0.10750128636E+04  0.10100831897E+04 0.  0.
        -13    1    4    4    0    0 -0.32282134175E+03 -0.13790387299E+03  0.29021347730E+03  0.45547224992E+03  0.10566000000E+00 0.  1.
          4    1    4    4  501    0  0.60644581842E+03 -0.27131975895E+02 -0.12376549279E+03  0.61954061368E+03  0.00000000000E+00 0.  1.
         13    1    3    3    0    0 -0.17081352522E+03 -0.80607380210E+02  0.51634868410E+03  0.54980977154E+03  0.10566000000E+00 0. -1.
         -4    1    3    3    0  503 -0.11281095145E+03  0.24564322909E+03 -0.39867319540E+03  0.48167128157E+03  0.00000000000E+00 0. -1.
<mgrwt>
<rscale>  2 0.10525979E+04</rscale>
<asrwt>0</asrwt>
<pdfrwt beam="1">  1       21 0.18389365E+00 0.10620488E+04</pdfrwt>
<pdfrwt beam="2">  1       21 0.14018234E+00 0.10620488E+04</pdfrwt>
<totfact> 0.29658222E+01</totfact>
</mgrwt>
</event>
<event>
 8    1  0.5815007E-006  0.1077267E+04  0.7818608E-02  0.8709099E-01
         21   -1    0    0  503  502  0.00000000000E+00  0.00000000000E+00  0.10283427045E+04  0.10283427045E+04  0.00000000000E+00 0. -1.
         21   -1    0    0  501  503 -0.00000000000E+00 -0.00000000000E+00 -0.11360314285E+04  0.11360314285E+04  0.00000000000E+00 0. -1.
    9000010    2    1    2  501    0  0.68708869180E+02 -0.40406784207E+03 -0.21893874345E+03  0.10992901207E+04  0.99624939972E+03 0.  0.
   -9000010    2    1    2    0  502 -0.68708869180E+02  0.40406784207E+03  0.11125001940E+03  0.10650840123E+04  0.97674748875E+03 0.  0.
        -13    1    3    3    0    0  0.30926599826E+03 -0.65730920416E+03 -0.17537941400E+03  0.74730100868E+03  0.10566000000E+00 0.  1.
          4    1    3    3  501    0 -0.24055712908E+03  0.25324136208E+03 -0.43559329441E+02  0.35198911205E+03  0.00000000000E+00 0.  1.
         13    1    4    4    0    0 -0.49840843717E+03  0.22013290258E+03  0.21594545395E+03  0.58609036444E+03  0.10566000000E+00 0. -1.
         -4    1    4    4    0  502  0.42969956799E+03  0.18393493950E+03 -0.10469543455E+03  0.47899364788E+03  0.00000000000E+00 0. -1.
<mgrwt>
<rscale>  2 0.10727364E+04</rscale>
<asrwt>0</asrwt>
<pdfrwt beam="1">  1       21 0.15820657E+00 0.10772672E+04</pdfrwt>
<pdfrwt beam="2">  1       21 0.17477407E+00 0.10772672E+04</pdfrwt>
<totfact> 0.24207609E+01</totfact>
</mgrwt>
</event>
<event>
 8    1  0.5815007E-006  0.1214607E+04  0.7818608E-02  0.8595798E-01
         21   -1    0    0  503  502  0.00000000000E+00  0.00000000000E+00  0.18215033116E+04  0.18215033116E+04  0.00000000000E+00 0. -1.
         21   -1    0    0  501  503 -0.00000000000E+00 -0.00000000000E+00 -0.89997541550E+03  0.89997541550E+03  0.00000000000E+00 0.  1.
    9000010    2    1    2  501    0  0.27516706351E+02  0.67719154973E+03  0.28851572263E+02  0.12141162911E+04  0.10069262093E+04 0.  0.
   -9000010    2    1    2    0  502 -0.27516706351E+02 -0.67719154973E+03  0.89267632386E+03  0.15073624360E+04  0.10079310146E+04 0.  0.
        -13    1    3    3    0    0  0.47277333930E+03  0.10579257820E+03  0.65065775935E+02  0.48881516580E+03  0.10566000000E+00 0.  1.
          4    1    3    3  501    0 -0.44525663295E+03  0.57139897153E+03 -0.36214203672E+02  0.72530112533E+03  0.00000000000E+00 0.  1.
         13    1    4    4    0    0  0.12602072427E+03 -0.88203602005E+03  0.45531914610E+03  0.10005919746E+04  0.10566000000E+00 0. -1.
         -4    1    4    4    0  502 -0.15353743062E+03  0.20484447033E+03  0.43735717776E+03  0.50677046141E+03  0.00000000000E+00 0. -1.
<mgrwt>
<rscale>  2 0.12143987E+04</rscale>
<asrwt>0</asrwt>
<pdfrwt beam="1">  1       21 0.28023128E+00 0.12146071E+04</pdfrwt>
<pdfrwt beam="2">  1       21 0.13845776E+00 0.12146071E+04</pdfrwt>
<totfact> 0.56611170E+00</totfact>
</mgrwt>
</event>
<event>
 8    1  0.5815007E-006  0.1291489E+04  0.7818608E-02  0.8554081E-01
         21   -1    0    0  503  502  0.00000000000E+00  0.00000000000E+00  0.68319337303E+03  0.68319337303E+03  0.00000000000E+00 0.  1.
         21   -1    0    0  501  503 -0.00000000000E+00 -0.00000000000E+00 -0.23013048429E+04  0.23013048429E+04  0.00000000000E+00 0. -1.
    9000010    2    1    2  501    0 -0.50137511558E+03  0.65454591411E+03 -0.81510234000E+03  0.15271988703E+04  0.99405090640E+03 0.  0.
   -9000010    2    1    2    0  502  0.50137511558E+03 -0.65454591411E+03 -0.80300912987E+03  0.14572993456E+04  0.89391854212E+03 0.  0.
        -13    1    3    3    0    0 -0.12924816195E+03 -0.31271382928E+02 -0.73032799733E+03  0.74233549127E+03  0.10566000000E+00 0.  1.
          4    1    3    3  501    0 -0.37212695363E+03  0.68581729704E+03 -0.84774342672E+02  0.78486337901E+03  0.00000000000E+00 0.  1.
         13    1    4    4    0    0 -0.20253332663E+03 -0.31410362488E+03 -0.48714828916E+03  0.61399861754E+03  0.10566000000E+00 0. -1.
         -4    1    4    4    0  502  0.70390844221E+03 -0.34044228924E+03 -0.31586084071E+03  0.84330072810E+03  0.00000000000E+00 0. -1.
<mgrwt>
<rscale>  2 0.12722146E+04</rscale>
<asrwt>0</asrwt>
<pdfrwt beam="1">  1       21 0.10510667E+00 0.12914893E+04</pdfrwt>
<pdfrwt beam="2">  1       21 0.35404690E+00 0.12914893E+04</pdfrwt>
<totfact> 0.36555485E+00</totfact>
</mgrwt>
</event>
<event>
 8    1  0.5815007E-006  0.1345363E+04  0.7818608E-02  0.8512547E-01
         21   -1    0    0  503  502  0.00000000000E+00  0.00000000000E+00  0.14851044536E+04  0.14851044536E+04  0.00000000000E+00 0.  1.
         21   -1    0    0  501  503 -0.00000000000E+00 -0.00000000000E+00 -0.12129096560E+04  0.12129096560E+04  0.00000000000E+00 0. -1.
    9000010    2    1    2  501    0  0.73291932988E+03  0.40051580340E+03  0.37580336426E+03  0.13968646072E+04  0.10547127141E+04 0.  0.
   -9000010    2    1    2    0  502 -0.73291932988E+03 -0.40051580340E+03 -0.10360856673E+03  0.13011495024E+04  0.99230622270E+03 0.  0.
        -13    1    3    3    0    0 -0.19700025844E+03  0.16881677626E+03  0.35320416489E+03  0.43824810214E+03  0.10566000000E+00 0.  1.
          4    1    3    3  501    0  0.92991958832E+03  0.23169902714E+03  0.22599199371E+02  0.95861650504E+03  0.00000000000E+00 0.  1.
         13    1    4    4    0    0  0.22628047631E+03  0.41906254018E+02  0.44834985639E+02  0.23445506006E+03  0.10566000000E+00 0. -1.
         -4    1    4    4    0  502 -0.95919980619E+03 -0.44242205742E+03 -0.14844355237E+03  0.10666944423E+04  0.00000000000E+00 0. -1.
<mgrwt>
<rscale>  2 0.13331106E+04</rscale>
<asrwt>0</asrwt>
<pdfrwt beam="1">  1       21 0.22847761E+00 0.13453634E+04</pdfrwt>
<pdfrwt beam="2">  1       21 0.18660149E+00 0.13453634E+04</pdfrwt>
<totfact> 0.50447644E+00</totfact>
</mgrwt>
</event>
<event>
 8    1  0.5815007E-006  0.1117656E+04  0.7818608E-02  0.8674515E-01
         21   -1    0    0  503  502  0.00000000000E+00  0.00000000000E+00  0.22240824104E+04  0.22240824104E+04  0.00000000000E+00 0.  1.
         21   -1    0    0  501  503 -0.00000000000E+00 -0.00000000000E+00 -0.55482891956E+03  0.55482891956E+03  0.00000000000E+00 0.  1.
    9000010    2    1    2  501    0 -0.39185514846E+03 -0.13228073673E+03  0.89913746216E+03  0.14344344357E+04  0.10383185079E+04 0.  0.
   -9000010    2    1    2    0  502  0.39185514846E+03  0.13228073673E+03  0.77011602872E+03  0.13444768943E+04  0.10215139602E+04 0.  0.
        -13    1    3    3    0    0  0.43498680480E+01 -0.54415924598E+03  0.48114755565E+03  0.72638226011E+03  0.10566000000E+00 0.  1.
          4    1    3    3  501    0 -0.39620501651E+03  0.41187850924E+03  0.41798990650E+03  0.70805217563E+03  0.00000000000E+00 0.  1.
         13    1    4    4    0    0  0.44660532348E+03  0.52623079780E+03  0.38249479100E+03  0.78909913434E+03  0.10566000000E+00 0. -1.
         -4    1    4    4    0  502 -0.54750175023E+02 -0.39395006107E+03  0.38762123773E+03  0.55537775992E+03  0.00000000000E+00 0. -1.
<mgrwt>
<rscale>  2 0.11137365E+04</rscale>
<asrwt>0</asrwt>
<pdfrwt beam="1">  1       21 0.34216652E+00 0.11176556E+04</pdfrwt>
<pdfrwt beam="2">  1       21 0.85358296E-01 0.11176556E+04</pdfrwt>
<totfact> 0.78599323E+00</totfact>
</mgrwt>
</event>
<event>
 8    1  0.5815007E-006  0.1047237E+04  0.7818608E-02  0.8731980E-01
         21   -1    0    0  503  502  0.00000000000E+00  0.00000000000E+00  0.30403894868E+04  0.30403894868E+04  0.00000000000E+00 0.  1.
         21   -1    0    0  501  503 -0.00000000000E+00 -0.00000000000E+00 -0.40011529820E+03  0.40011529820E+03  0.00000000000E+00 0.  1.
    9000010    2    1    2  501    0  0.23638611062E+03 -0.20399900578E+03  0.77590710463E+03  0.13033563363E+04  0.99960588064E+03 0.  0.
   -9000010    2    1    2    0  502 -0.23638611062E+03  0.20399900578E+03  0.18643670840E+04  0.21371484488E+04  0.99701799408E+03 0.  0.
        -13    1    3    3    0    0  0.33721515098E+02 -0.63280787797E+02  0.98032776406E+03  0.98294665920E+03  0.10566000000E+00 0.  1.
          4    1    3    3  501    0  0.20266459552E+03 -0.14071821799E+03 -0.20442065943E+03  0.32040967706E+03  0.00000000000E+00 0.  1.
         13    1    4    4    0    0 -0.21642765955E+02  0.52747538841E+03  0.53248195977E+03  0.74982380819E+03  0.10566000000E+00 0. -1.
         -4    1    4    4    0  502 -0.21474334467E+03 -0.32347638262E+03  0.13318851242E+04  0.13873246406E+04  0.00000000000E+00 0. -1.
<mgrwt>
<rscale>  2 0.10466193E+04</rscale>
<asrwt>0</asrwt>
<pdfrwt beam="1">  1       21 0.46775222E+00 0.10472373E+04</pdfrwt>
<pdfrwt beam="2">  1       21 0.61556202E-01 0.10472373E+04</pdfrwt>
<totfact> 0.23296936E+00</totfact>
</mgrwt>
</event>
<event>
 8    1  0.5815007E-006  0.1041974E+04  0.7818608E-02  0.8738476E-01
         21   -1    0    0  503  502  0.00000000000E+00  0.00000000000E+00  0.15871697509E+04  0.15871697509E+04  0.00000000000E+00 0.  1.
         21   -1    0    0  501  503 -0.00000000000E+00 -0.00000000000E+00 -0.68031999975E+03  0.68031999975E+03  0.00000000000E+00 0.  1.
    9000010    2    1    2  501    0 -0.23600808656E+03 -0.12929475176E+03  0.37887888209E+03  0.11087196067E+04  0.10066245622E+04 0.  0.
   -9000010    2    1    2    0  502  0.23600808656E+03  0.12929475176E+03  0.52797086904E+03  0.11587701439E+04  0.99578012538E+03 0.  0.
        -13    1    3    3    0    0  0.73392794927E+02  0.26495462483E+03 -0.20227182700E+03  0.34132295371E+03  0.10566000000E+00 0.  1.
          4    1    3    3  501    0 -0.30940088148E+03 -0.39424937659E+03  0.58115070909E+03  0.76739665302E+03  0.00000000000E+00 0.  1.
         13    1    4    4    0    0 -0.56500971840E+02  0.34909028981E+03  0.67692257196E+03  0.76372807324E+03  0.10566000000E+00 0. -1.
         -4    1    4    4    0  502  0.29250905840E+03 -0.21979553806E+03 -0.14895170292E+03  0.39504207067E+03  0.00000000000E+00 0. -1.
<mgrwt>
<rscale>  2 0.10393460E+04</rscale>
<asrwt>0</asrwt>
<pdfrwt beam="1">  1       21 0.24417996E+00 0.10419741E+04</pdfrwt>
<pdfrwt beam="2">  1       21 0.10466462E+00 0.10419741E+04</pdfrwt>
<totfact> 0.23468429E+01</totfact>
</mgrwt>
</event>
<event>
 8    1  0.5815007E-006  0.1032467E+04  0.7818608E-02  0.8754010E-01
         21   -1    0    0  501  502  0.00000000000E+00  0.00000000000E+00  0.11011955419E+04  0.11011955419E+04  0.00000000000E+00 0.  1.
         21   -1    0    0  502  503 -0.00000000000E+00 -0.00000000000E+00 -0.93786861657E+03  0.93786861657E+03  0.00000000000E+00 0.  1.
   -9000010    2    1    2    0  503  0.33091973553E+03  0.12822963425E+03  0.17389240843E+03  0.10470085608E+04  0.96955538585E+03 0.  0.
    9000010    2    1    2  501    0 -0.33091973553E+03 -0.12822963425E+03 -0.10565483115E+02  0.99205559766E+03  0.92634333211E+03 0.  0.
        -13    1    4    4    0    0 -0.30536563880E+03 -0.44079305612E+03 -0.25563513479E+03  0.59405052393E+03  0.10566000000E+00 0.  1.
          4    1    4    4  501    0 -0.25554096735E+02  0.31256342186E+03  0.24506965167E+03  0.39800507373E+03  0.00000000000E+00 0.  1.
         13    1    3    3    0    0 -0.61149202225E+02 -0.33388180599E+03 -0.13682232009E+03  0.36597355607E+03  0.10566000000E+00 0. -1.
         -4    1    3    3    0  503  0.39206893776E+03  0.46211144024E+03  0.31071472852E+03  0.68103500474E+03  0.00000000000E+00 0. -1.
<mgrwt>
<rscale>  2 0.10221980E+04</rscale>
<asrwt>0</asrwt>
<pdfrwt beam="1">  1       21 0.16941470E+00 0.10324671E+04</pdfrwt>
<pdfrwt beam="2">  1       21 0.14428748E+00 0.10324671E+04</pdfrwt>
<totfact> 0.36023695E+01</totfact>
</mgrwt>
</event>
<event>
 8    1  0.5815007E-006  0.1095166E+04  0.7818608E-02  0.8694301E-01
         21   -1    0    0  503  502  0.00000000000E+00  0.00000000000E+00  0.53213380932E+03  0.53213380932E+03  0.00000000000E+00 0.  1.
         21   -1    0    0  501  503 -0.00000000000E+00 -0.00000000000E+00 -0.23372620980E+04  0.23372620980E+04  0.00000000000E+00 0.  1.
    9000010    2    1    2  501    0  0.36263763657E+03  0.26914964867E+03 -0.12422926008E+04  0.16561040283E+04  0.99771842601E+03 0.  0.
   -9000010    2    1    2    0  502 -0.36263763657E+03 -0.26914964867E+03 -0.56283568791E+03  0.12132918791E+04  0.97536945996E+03 0.  0.
        -13    1    3    3    0    0 -0.19005798905E+03  0.40548930038E+03 -0.25201048516E+03  0.51386078632E+03  0.10566000000E+00 0.  1.
          4    1    3    3  501    0  0.55269562562E+03 -0.13633965171E+03 -0.99028211563E+03  0.11422432419E+04  0.00000000000E+00 0.  1.
         13    1    4    4    0    0  0.16729294620E+03 -0.33554765847E+03  0.73978701560E+02  0.38216752924E+03  0.10566000000E+00 0. -1.
         -4    1    4    4    0  502 -0.52993058277E+03  0.66398009805E+02 -0.63681438947E+03  0.83112434984E+03  0.00000000000E+00 0. -1.
<mgrwt>
<rscale>  2 0.10900505E+04</rscale>
<asrwt>0</asrwt>
<pdfrwt beam="1">  1       21 0.81866740E-01 0.10951665E+04</pdfrwt>
<pdfrwt beam="2">  1       21 0.35957878E+00 0.10951665E+04</pdfrwt>
<totfact> 0.66160389E+00</totfact>
</mgrwt>
</event>
<event>
 8    1  0.5815007E-006  0.1182239E+04  0.7818608E-02  0.8636442E-01
         21   -1    0    0  501  502  0.00000000000E+00  0.00000000000E+00  0.14019440218E+04  0.14019440218E+04  0.00000000000E+00 0.  1.
         21   -1    0    0  502  503 -0.00000000000E+00 -0.00000000000E+00 -0.11560906075E+04  0.11560906075E+04  0.00000000000E+00 0.  1.
   -9000010    2    1    2    0  503 -0.62419955093E+03 -0.45204284385E+02 -0.44748875002E+03  0.11874831621E+04  0.90454495304E+03 0.  0.
    9000010    2    1    2  501    0  0.62419955093E+03  0.45204284385E+02  0.69334216434E+03  0.13705514672E+04  0.10030052147E+04 0.  0.
        -13    1    4    4    0    0  0.97045954635E+02  0.34223336609E+03 -0.10306883477E+03  0.37035765153E+03  0.10566000000E+00 0.  1.
          4    1    4    4  501    0  0.52715359629E+03 -0.29702908171E+03  0.79641099911E+03  0.10001938157E+04  0.00000000000E+00 0.  1.
         13    1    3    3    0    0  0.13162000576E+03  0.18396820085E+03  0.77507260920E+02  0.23911401360E+03  0.10566000000E+00 0. -1.
         -4    1    3    3    0  503 -0.75581955668E+03 -0.22917248523E+03 -0.52499601094E+03  0.94836914846E+03  0.00000000000E+00 0. -1.
<mgrwt>
<rscale>  2 0.11611041E+04</rscale>
<asrwt>0</asrwt>
<pdfrwt beam="1">  1       21 0.21568370E+00 0.11822385E+04</pdfrwt>
<pdfrwt beam="2">  1       21 0.17786009E+00 0.11822385E+04</pdfrwt>
<totfact> 0.76671866E+00</totfact>
</mgrwt>
</event>
<event>
 8    1  0.5815007E-006  0.1180368E+04  0.7818608E-02  0.8634461E-01
         21   -1    0    0  501  502  0.00000000000E+00  0.00000000000E+00  0.17883770094E+04  0.17883770094E+04  0.00000000000E+00 0. -1.
         21   -1    0    0  502  503 -0.00000000000E+00 -0.00000000000E+00 -0.75209446279E+03  0.75209446279E+03  0.00000000000E+00 0. -1.
   -9000010    2    1    2    0  503  0.27611124150E+03 -0.48160215685E+03  0.34933716268E+03  0.12309768220E+04  0.10416762587E+04 0.  0.
    9000010    2    1    2  501    0 -0.27611124150E+03  0.48160215685E+03  0.68694538393E+03  0.13094946502E+04  0.96680102567E+03 0.  0.
        -13    1    4    4    0    0 -0.41823604576E+03  0.57561194215E+03  0.12516400933E+03  0.72243791312E+03  0.10566000000E+00 0.  1.
          4    1    4    4  501    0  0.14212480426E+03 -0.94009785296E+02  0.56178137459E+03  0.58705673708E+03  0.00000000000E+00 0.  1.
         13    1    3    3    0    0 -0.27824846419E+03  0.71430752960E+02 -0.12736642938E+03  0.31424000190E+03  0.10566000000E+00 0. -1.
         -4    1    3    3    0  503  0.55435970569E+03 -0.55303290981E+03  0.47670359206E+03  0.91673682009E+03  0.00000000000E+00 0. -1.
<mgrwt>
<rscale>  2 0.11636348E+04</rscale>
<asrwt>0</asrwt>
<pdfrwt beam="1">  1       21 0.27513492E+00 0.11803675E+04</pdfrwt>
<pdfrwt beam="2">  1       21 0.11570684E+00 0.11803675E+04</pdfrwt>
<totfact> 0.10371543E+01</totfact>
</mgrwt>
</event>
<event>
 8    1  0.5815007E-006  0.1188919E+04  0.7818608E-02  0.8634388E-01
         21   -1    0    0  503  502  0.00000000000E+00  0.00000000000E+00  0.42462247958E+04  0.42462247958E+04  0.00000000000E+00 0.  1.
         21   -1    0    0  501  503 -0.00000000000E+00 -0.00000000000E+00 -0.32289902275E+03  0.32289902275E+03  0.00000000000E+00 0. -1.
    9000010    2    1    2  501    0  0.53913967925E+03 -0.33839723132E+03  0.13617824799E+04  0.17451139570E+04  0.88644623093E+03 0.  0.
   -9000010    2    1    2    0  502 -0.53913967925E+03  0.33839723132E+03  0.25615432931E+04  0.28240098616E+04  0.10041630225E+04 0.  0.
        -13    1    3    3    0    0  0.21103289892E+03  0.13938698752E+03  0.10637104792E+04  0.10933634398E+04  0.10566000000E+00 0.  1.
          4    1    3    3  501    0  0.32810678033E+03 -0.47778421885E+03  0.29807200074E+03  0.65175051723E+03  0.00000000000E+00 0.  1.
         13    1    4    4    0    0 -0.32802758849E+03  0.66392281999E+03  0.12169443262E+04  0.14245522503E+04  0.10566000000E+00 0. -1.
         -4    1    4    4    0  502 -0.21111209076E+03 -0.32552558867E+03  0.13445989670E+04  0.13994576113E+04  0.00000000000E+00 0. -1.
<mgrwt>
<rscale>  2 0.11637288E+04</rscale>
<asrwt>0</asrwt>
<pdfrwt beam="1">  1       21 0.65326531E+00 0.11889187E+04</pdfrwt>
<pdfrwt beam="2">  1       21 0.49676776E-01 0.11889187E+04</pdfrwt>
<totfact> 0.15392469E-01</totfact>
</mgrwt>
</event>
<event>
 8    1  0.5815007E-006  0.1092246E+04  0.7818608E-02  0.8694189E-01
         21   -1    0    0  501  502  0.00000000000E+00  0.00000000000E+00  0.75341741088E+03  0.75341741088E+03  0.00000000000E+00 0. -1.
         21   -1    0    0  502  503 -0.00000000000E+00 -0.00000000000E+00 -0.15957963153E+04  0.15957963153E+04  0.00000000000E+00 0. -1.
   -9000010    2    1    2    0  503  0.39653682057E+03 -0.61671552630E+02 -0.56442175573E+03  0.12221547885E+04  0.10069983011E+04 0.  0.
    9000010    2    1    2  501    0 -0.39653682057E+03  0.61671552630E+02 -0.27795714866E+03  0.11270589376E+04  0.10158527659E+04 0.  0.
        -13    1    4    4    0    0  0.27451748760E+03 -0.87044993127E+02 -0.32971522962E+03  0.43777714152E+03  0.10566000000E+00 0.  1.
          4    1    4    4  501    0 -0.67105430816E+03  0.14871654576E+03  0.51758080966E+02  0.68928179610E+03  0.00000000000E+00 0.  1.
         13    1    3    3    0    0  0.11460235626E+03  0.14397805529E+03 -0.78701243821E+03  0.80824004450E+03  0.10566000000E+00 0. -1.
         -4    1    3    3    0  503  0.28193446431E+03 -0.20564960792E+03  0.22259068248E+03  0.41391474404E+03  0.00000000000E+00 0. -1.
<mgrwt>
<rscale>  2 0.10901827E+04</rscale>
<asrwt>0</asrwt>
<pdfrwt beam="1">  1       21 0.11591037E+00 0.10922462E+04</pdfrwt>
<pdfrwt beam="2">  1       21 0.24550712E+00 0.10922462E+04</pdfrwt>
<totfact> 0.17210627E+01</totfact>
</mgrwt>
</event>
<event>
 8    1  0.5815007E-006  0.1368984E+04  0.7818608E-02  0.8489143E-01
         21   -1    0    0  503  502  0.00000000000E+00  0.00000000000E+00  0.77529087066E+03  0.77529087066E+03  0.00000000000E+00 0.  1.
         21   -1    0    0  501  503 -0.00000000000E+00 -0.00000000000E+00 -0.30749177965E+04  0.30749177965E+04  0.00000000000E+00 0.  1.
    9000010    2    1    2  501    0  0.85033154225E+03 -0.36698185748E+03 -0.20401240705E+04  0.24568463552E+04  0.10080914516E+04 0.  0.
   -9000010    2    1    2    0  502 -0.85033154225E+03  0.36698185748E+03 -0.25950285537E+03  0.13933623119E+04  0.10081554369E+04 0.  0.
        -13    1    3    3    0    0  0.72603660429E+03 -0.70813875669E+02 -0.50194405805E+03  0.88548947161E+03  0.10566000000E+00 0.  1.
          4    1    3    3  501    0  0.12429493796E+03 -0.29616798181E+03 -0.15381800125E+04  0.15713568836E+04  0.00000000000E+00 0.  1.
         13    1    4    4    0    0 -0.11632425759E+03 -0.30836161803E+03 -0.21785569514E+03  0.39506877306E+03  0.10566000000E+00 0. -1.
         -4    1    4    4    0  502 -0.73400728465E+03  0.67534347550E+03 -0.41647160228E+02  0.99829353889E+03  0.00000000000E+00 0. -1.
<mgrwt>
<rscale>  2 0.13689721E+04</rscale>
<asrwt>0</asrwt>
<pdfrwt beam="1">  1       21 0.11927552E+00 0.13689839E+04</pdfrwt>
<pdfrwt beam="2">  1       21 0.47306427E+00 0.13689839E+04</pdfrwt>
<totfact> 0.37856819E-01</totfact>
</mgrwt>
</event>
<event>
 8    1  0.5815007E-006  0.1124799E+04  0.7818608E-02  0.8687714E-01
         21   -1    0    0  503  502  0.00000000000E+00  0.00000000000E+00  0.90182618808E+03  0.90182618808E+03  0.00000000000E+00 0. -1.
         21   -1    0    0  501  503 -0.00000000000E+00 -0.00000000000E+00 -0.12782326114E+04  0.12782326114E+04  0.00000000000E+00 0. -1.
    9000010    2    1    2  501    0 -0.52366577713E+03 -0.14200605922E+03 -0.23985799763E+03  0.11500892660E+04  0.98528264660E+03 0.  0.
   -9000010    2    1    2    0  502  0.52366577713E+03  0.14200605922E+03 -0.13654842568E+03  0.10299695335E+04  0.86475441622E+03 0.  0.
        -13    1    3    3    0    0  0.19514264935E+03  0.94679678878E+02  0.18247422619E+03  0.28344620226E+03  0.10566000000E+00 0.  1.
          4    1    3    3  501    0 -0.71880842649E+03 -0.23668573810E+03 -0.42233222382E+03  0.86664306371E+03  0.00000000000E+00 0.  1.
         13    1    4    4    0    0  0.31415483716E+03 -0.31197927518E+03 -0.26201960806E+03  0.51446925664E+03  0.10566000000E+00 0. -1.
         -4    1    4    4    0  502  0.20951093998E+03  0.45398533441E+03  0.12547118238E+03  0.51550027685E+03  0.00000000000E+00 0. -1.
<mgrwt>
<rscale>  2 0.10978670E+04</rscale>
<asrwt>0</asrwt>
<pdfrwt beam="1">  1       21 0.13874249E+00 0.11247993E+04</pdfrwt>
<pdfrwt beam="2">  1       21 0.19665117E+00 0.11247993E+04</pdfrwt>
<totfact> 0.23877128E+01</totfact>
</mgrwt>
</event>
<event>
 8    1  0.5815007E-006  0.1055388E+04  0.7818608E-02  0.8725350E-01
         21   -1    0    0  501  502  0.00000000000E+00  0.00000000000E+00  0.54577136791E+03  0.54577136791E+03  0.00000000000E+00 0.  1.
         21   -1    0    0  502  503 -0.00000000000E+00 -0.00000000000E+00 -0.23005276160E+04  0.23005276160E+04  0.00000000000E+00 0.  1.
   -9000010    2    1    2    0  503 -0.10641161529E+03 -0.31065230696E+03 -0.13626346799E+04  0.17204201579E+04  0.99761914640E+03 0.  0.
    9000010    2    1    2  501    0  0.10641161529E+03  0.31065230696E+03 -0.39212156817E+03  0.11258788260E+04  0.10030032497E+04 0.  0.
        -13    1    4    4    0    0  0.11553415569E+03 -0.32323786994E+03 -0.35044690525E+03  0.49055469243E+03  0.10566000000E+00 0.  1.
          4    1    4    4  501    0 -0.91225403945E+01  0.63389017690E+03 -0.41674662916E+02  0.63532413352E+03  0.00000000000E+00 0.  1.
         13    1    3    3    0    0  0.90589530216E+02  0.29847700266E+03 -0.14335027662E+03  0.34328457156E+03  0.10566000000E+00 0. -1.
         -4    1    3    3    0  503 -0.19700114551E+03 -0.60912930961E+03 -0.12192844033E+04  0.13771355864E+04  0.00000000000E+00 0. -1.
<mgrwt>
<rscale>  2 0.10541068E+04</rscale>
<asrwt>0</asrwt>
<pdfrwt beam="1">  1       21 0.83964824E-01 0.10553880E+04</pdfrwt>
<pdfrwt beam="2">  1       21 0.35392733E+00 0.10553880E+04</pdfrwt>
<totfact> 0.68669355E+00</totfact>
</mgrwt>
</event>
<event>
 8    1  0.5815007E-006  0.1073186E+04  0.7818608E-02  0.8712019E-01
         21   -1    0    0  503  502  0.00000000000E+00  0.00000000000E+00  0.91373001467E+03  0.91373001467E+03  0.00000000000E+00 0. -1.
         21   -1    0    0  501  503 -0.00000000000E+00 -0.00000000000E+00 -0.12430169455E+04  0.12430169455E+04  0.00000000000E+00 0. -1.
    9000010    2    1    2  501    0 -0.17575354487E+03 -0.34722848537E+03 -0.18439073167E+03  0.10889114133E+04  0.10001355881E+04 0.  0.
   -9000010    2    1    2    0  502  0.17575354487E+03  0.34722848537E+03 -0.14489619917E+03  0.10678355469E+04  0.98377889643E+03 0.  0.
        -13    1    3    3    0    0 -0.29092093780E+02 -0.56091981921E+03  0.22443452673E+03  0.60485391745E+03  0.10566000000E+00 0.  1.
          4    1    3    3  501    0 -0.14666145109E+03  0.21369133384E+03 -0.40882525840E+03  0.48405749587E+03  0.00000000000E+00 0.  1.
         13    1    4    4    0    0  0.28103785478E+03 -0.29428148868E+03 -0.33828485876E+02  0.40832370495E+03  0.10566000000E+00 0. -1.
         -4    1    4    4    0  502 -0.10528430991E+03  0.64150997405E+03 -0.11106771330E+03  0.65951184194E+03  0.00000000000E+00 0. -1.
<mgrwt>
<rscale>  2 0.10693589E+04</rscale>
<asrwt>0</asrwt>
<pdfrwt beam="1">  1       21 0.14057385E+00 0.10731860E+04</pdfrwt>
<pdfrwt beam="2">  1       21 0.19123338E+00 0.10731860E+04</pdfrwt>
<totfact> 0.25620866E+01</totfact>
</mgrwt>
</event>
<event>
 8    1  0.5815007E-006  0.1320166E+04  0.7818608E-02  0.8523612E-01
         21   -1    0    0  501  502  0.00000000000E+00  0.00000000000E+00  0.24491688900E+04  0.24491688900E+04  0.00000000000E+00 0.  1.
         21   -1    0    0  502  503 -0.00000000000E+00 -0.00000000000E+00 -0.70398274703E+03  0.70398274703E+03  0.00000000000E+00 0.  1.
   -9000010    2    1    2    0  503 -0.12502814560E+02 -0.85661274126E+03  0.89815022159E+03  0.15967191212E+04  0.10044383618E+04 0.  0.
    9000010    2    1    2  501    0  0.12502814560E+02  0.85661274126E+03  0.84703592140E+03  0.15564325158E+04  0.98542915288E+03 0.  0.
        -13    1    4    4    0    0 -0.33284435142E+03  0.61662199439E+03  0.11203031897E+03  0.70961880595E+03  0.10566000000E+00 0.  1.
          4    1    4    4  501    0  0.34534716598E+03  0.23999074687E+03  0.73500560243E+03  0.84681370988E+03  0.00000000000E+00 0.  1.
         13    1    3    3    0    0  0.35874555622E+02 -0.69752182638E+03  0.11197184183E+04  0.13196942939E+04  0.10566000000E+00 0. -1.
         -4    1    3    3    0  503 -0.48377370181E+02 -0.15909091487E+03 -0.22156819669E+03  0.27702482728E+03  0.00000000000E+00 0. -1.
<mgrwt>
<rscale>  2 0.13165499E+04</rscale>
<asrwt>0</asrwt>
<pdfrwt beam="1">  1       21 0.37679521E+00 0.13201659E+04</pdfrwt>
<pdfrwt beam="2">  1       21 0.10830504E+00 0.13201659E+04</pdfrwt>
<totfact> 0.23231396E+00</totfact>
</mgrwt>
</event>
<event>
 8    1  0.5815007E-006  0.1139310E+04  0.7818608E-02  0.8660085E-01
         21   -1    0    0  501  502  0.00000000000E+00  0.00000000000E+00  0.56706142389E+03  0.56706142389E+03  0.00000000000E+00 0.  1.
         21   -1    0    0  502  503 -0.00000000000E+00 -0.00000000000E+00 -0.24626075296E+04  0.24626075296E+04  0.00000000000E+00 0.  1.
   -9000010    2    1    2    0  503 -0.37101481703E+03 -0.38688931798E+03 -0.14285921458E+04  0.18272662670E+04  0.10053313647E+04 0.  0.
    9000010    2    1    2  501    0  0.37101481703E+03  0.38688931798E+03 -0.46695395988E+03  0.12024026864E+04  0.96973753194E+03 0.  0.
        -13    1    4    4    0    0 -0.13431774063E+03  0.51234939035E+02  0.23446879903E+03  0.27503073157E+03  0.10566000000E+00 0.  1.
          4    1    4    4  501    0  0.50533255765E+03  0.33565437895E+03 -0.70142275891E+03  0.92737195485E+03  0.00000000000E+00 0.  1.
         13    1    3    3    0    0  0.24221889949E+03  0.17657039489E+03 -0.29417359489E+03  0.41998239810E+03  0.10566000000E+00 0. -1.
         -4    1    3    3    0  503 -0.61323371651E+03 -0.56345971288E+03 -0.11344185509E+04  0.14072838689E+04  0.00000000000E+00 0. -1.
<mgrwt>
<rscale>  2 0.11314074E+04</rscale>
<asrwt>0</asrwt>
<pdfrwt beam="1">  1       21 0.87240220E-01 0.11393097E+04</pdfrwt>
<pdfrwt beam="2">  1       21 0.37886269E+00 0.11393097E+04</pdfrwt>
<totfact> 0.40925470E+00</totfact>
</mgrwt>
</event>
<event>
 8    1  0.5815007E-006  0.1027917E+04  0.7818608E-02  0.8751759E-01
         21   -1    0    0  501  502  0.00000000000E+00  0.00000000000E+00  0.65688039543E+03  0.65688039543E+03  0.00000000000E+00 0.  1.
         21   -1    0    0  502  503 -0.00000000000E+00 -0.00000000000E+00 -0.15883141092E+04  0.15883141092E+04  0.00000000000E+00 0.  1.
   -9000010    2    1    2    0  503 -0.21821659343E+03  0.66483844698E+02 -0.46878804254E+03  0.11297682405E+04  0.10022851216E+04 0.  0.
    9000010    2    1    2  501    0  0.21821659343E+03 -0.66483844698E+02 -0.46264567121E+03  0.11154262641E+04  0.98898743692E+03 0.  0.
        -13    1    4    4    0    0  0.45418013069E+03 -0.29494818377E+03 -0.55379227795E+03  0.77457079761E+03  0.10566000000E+00 0.  1.
          4    1    4    4  501    0 -0.23596353727E+03  0.22846433907E+03  0.91146606738E+02  0.34085546653E+03  0.00000000000E+00 0.  1.
         13    1    3    3    0    0 -0.33778688043E+03 -0.27885684998E+03  0.10411918789E+03  0.45022431722E+03  0.10566000000E+00 0. -1.
         -4    1    3    3    0  503  0.11957028700E+03  0.34534069468E+03 -0.57290723043E+03  0.67954392324E+03  0.00000000000E+00 0. -1.
<mgrwt>
<rscale>  2 0.10246614E+04</rscale>
<asrwt>0</asrwt>
<pdfrwt beam="1">  1       21 0.10105852E+00 0.10279173E+04</pdfrwt>
<pdfrwt beam="2">  1       21 0.24435601E+00 0.10279173E+04</pdfrwt>
<totfact> 0.25753248E+01</totfact>
</mgrwt>
</event>
<event>
 8    1  0.5815007E-006  0.1193151E+04  0.7818608E-02  0.8614357E-01
         21   -1    0    0  503  502  0.00000000000E+00  0.00000000000E+00  0.95958151259E+03  0.95958151259E+03  0.00000000000E+00 0.  1.
         21   -1    0    0  501  503 -0.00000000000E+00 -0.00000000000E+00 -0.16363321935E+04  0.16363321935E+04  0.00000000000E+00 0.  1.
    9000010    2    1    2  501    0 -0.33322867432E+02 -0.64806906910E+03 -0.75822377894E+03  0.14136878493E+04  0.10012522682E+04 0.  0.
   -9000010    2    1    2    0  502  0.33322867432E+02  0.64806906910E+03  0.81473097976E+02  0.11822258568E+04  0.98484322556E+03 0.  0.
        -13    1    3    3    0    0  0.76577215766E+02 -0.16226549473E+03 -0.88232217462E+03  0.90038135907E+03  0.10566000000E+00 0.  1.
          4    1    3    3  501    0 -0.10990008320E+03 -0.48580357437E+03  0.12409839569E+03  0.51330649028E+03  0.00000000000E+00 0.  1.
         13    1    4    4    0    0 -0.37220222602E+03 -0.46528501741E+02  0.24335957501E+02  0.37588781374E+03  0.10566000000E+00 0. -1.
         -4    1    4    4    0  502  0.40552509345E+03  0.69459757084E+03  0.57137140475E+02  0.80633804304E+03  0.00000000000E+00 0. -1.
<mgrwt>
<rscale>  2 0.11897023E+04</rscale>
<asrwt>0</asrwt>
<pdfrwt beam="1">  1       21 0.14762793E+00 0.11931513E+04</pdfrwt>
<pdfrwt beam="2">  1       21 0.25174341E+00 0.11931513E+04</pdfrwt>
<totfact> 0.75131029E+00</totfact>
</mgrwt>
</event>
<event>
 8    1  0.5815007E-006  0.1017575E+04  0.7818608E-02  0.8758360E-01
         21   -1    0    0  501  502  0.00000000000E+00  0.00000000000E+00  0.21802926771E+04  0.21802926771E+04  0.00000000000E+00 0.  1.
         21   -1    0    0  502  503 -0.00000000000E+00 -0.00000000000E+00 -0.47585444892E+03  0.47585444892E+03  0.00000000000E+00 0.  1.
   -9000010    2    1    2    0  503 -0.17788854496E+03 -0.55144684106E+02  0.78657116380E+03  0.12857681963E+04  0.99991019008E+03 0.  0.
    9000010    2    1    2  501    0  0.17788854496E+03  0.55144684106E+02  0.91786706439E+03  0.13703789298E+04  0.10003865216E+04 0.  0.
        -13    1    4    4    0    0  0.26040799679E+03  0.34044593044E+03  0.97760107685E+03  0.10674360088E+04  0.10566000000E+00 0.  1.
          4    1    4    4  501    0 -0.82519451830E+02 -0.28530124634E+03 -0.59734012453E+02  0.30294292092E+03  0.00000000000E+00 0.  1.
         13    1    3    3    0    0 -0.45914074123E+03  0.22142480089E+03  0.14042019659E+03  0.52873150604E+03  0.10566000000E+00 0. -1.
         -4    1    3    3    0  503  0.28125219627E+03 -0.27656948500E+03  0.64615096721E+03  0.75703669023E+03  0.00000000000E+00 0. -1.
<mgrwt>
<rscale>  2 0.10174577E+04</rscale>
<asrwt>0</asrwt>
<pdfrwt beam="1">  1       21 0.33542964E+00 0.10175748E+04</pdfrwt>
<pdfrwt beam="2">  1       21 0.73208378E-01 0.10175748E+04</pdfrwt>
<totfact> 0.13028318E+01</totfact>
</mgrwt>
</event>
<event>
 8    1  0.5815007E-006  0.1365543E+04  0.7818608E-02  0.8495134E-01
         21   -1    0    0  501  502  0.00000000000E+00  0.00000000000E+00  0.12718048174E+04  0.12718048174E+04  0.00000000000E+00 0. -1.
         21   -1    0    0  502  503 -0.00000000000E+00 -0.00000000000E+00 -0.14926574611E+04  0.14926574611E+04  0.00000000000E+00 0. -1.
   -9000010    2    1    2    0  503  0.88050576162E+03 -0.19447629744E+03  0.14690512605E+03  0.13502651951E+04  0.99424521848E+03 0.  0.
    9000010    2    1    2  501    0 -0.88050576162E+03  0.19447629744E+03 -0.36775776980E+03  0.14141970834E+04  0.10254736403E+04 0.  0.
        -13    1    4    4    0    0 -0.60961224466E+03  0.56029258553E+03 -0.46371932864E+03  0.94899446635E+03  0.10566000000E+00 0.  1.
          4    1    4    4  501    0 -0.27089351695E+03 -0.36581628809E+03  0.95961558843E+02  0.46520261707E+03  0.00000000000E+00 0.  1.
         13    1    3    3    0    0  0.14899893671E+03 -0.33036180507E+03 -0.31020802730E+03  0.47704154615E+03  0.10566000000E+00 0. -1.
         -4    1    3    3    0  503  0.73150682491E+03  0.13588550763E+03  0.45711315335E+03  0.87322364892E+03  0.00000000000E+00 0. -1.
<mgrwt>
<rscale>  2 0.13596821E+04</rscale>
<asrwt>0</asrwt>
<pdfrwt beam="1">  1       21 0.19566228E+00 0.13655430E+04</pdfrwt>
<pdfrwt beam="2">  1       21 0.22963961E+00 0.13655430E+04</pdfrwt>
<totfact> 0.41703026E+00</totfact>
</mgrwt>
</event>
<event>
 8    1  0.5815007E-006  0.1162121E+04  0.7818608E-02  0.8636839E-01
         21   -1    0    0  503  502  0.00000000000E+00  0.00000000000E+00  0.12668083906E+04  0.12668083906E+04  0.00000000000E+00 0. -1.
         21   -1    0    0  501  503 -0.00000000000E+00 -0.00000000000E+00 -0.10811691950E+04  0.10811691950E+04  0.00000000000E+00 0. -1.
    9000010    2    1    2  501    0  0.49144231354E+03  0.30675258988E+03 -0.69218565518E+02  0.11641804938E+04  0.10074285649E+04 0.  0.
   -9000010    2    1    2    0  502 -0.49144231354E+03 -0.30675258988E+03  0.25485776117E+03  0.11837970918E+04  0.10004051066E+04 0.  0.
        -13    1    3    3    0    0  0.76584321313E+03  0.73892822924E+02  0.82113864265E+02  0.77376913498E+03  0.10566000000E+00 0.  1.
          4    1    3    3  501    0 -0.27440089959E+03  0.23285976695E+03 -0.15133242978E+03  0.39041135878E+03  0.00000000000E+00 0.  1.
         13    1    4    4    0    0 -0.54903876660E+03 -0.17352506253E+03 -0.27235420944E+03  0.63697043976E+03  0.10566000000E+00 0. -1.
         -4    1    4    4    0  502  0.57596453058E+02 -0.13322752734E+03  0.52721197062E+03  0.54682665206E+03  0.00000000000E+00 0. -1.
<mgrwt>
<rscale>  2 0.11605971E+04</rscale>
<asrwt>0</asrwt>
<pdfrwt beam="1">  1       21 0.19489360E+00 0.11621209E+04</pdfrwt>
<pdfrwt beam="2">  1       21 0.16633372E+00 0.11621209E+04</pdfrwt>
<totfact> 0.13923807E+01</totfact>
</mgrwt>
</event>
<event>
 8    1  0.5815007E-006  0.1099515E+04  0.7818608E-02  0.8687327E-01
         21   -1    0    0  501  502  0.00000000000E+00  0.00000000000E+00  0.19954718088E+04  0.19954718088E+04  0.00000000000E+00 0. -1.
         21   -1    0    0  502  503 -0.00000000000E+00 -0.00000000000E+00 -0.76772363062E+03  0.76772363062E+03  0.00000000000E+00 0. -1.
   -9000010    2    1    2    0  503 -0.48642826135E+02 -0.45466372626E+03 -0.26682978226E+02  0.10951034368E+04  0.99471318856E+03 0.  0.
    9000010    2    1    2  501    0  0.48642826135E+02  0.45466372626E+03  0.12544311564E+04  0.16680920026E+04  0.99992408434E+03 0.  0.
        -13    1    4    4    0    0 -0.35040762290E+02  0.60961277484E+03  0.26933791985E+03  0.66738183711E+03  0.10566000000E+00 0.  1.
          4    1    4    4  501    0  0.83683588425E+02 -0.15494904857E+03  0.98509323651E+03  0.10007101655E+04  0.00000000000E+00 0.  1.
         13    1    3    3    0    0  0.21988950651E+03  0.29469842241E+02 -0.37880427804E+03  0.43899038589E+03  0.10566000000E+00 0. -1.
         -4    1    3    3    0  503 -0.26853233264E+03 -0.48413356850E+03  0.35212129981E+03  0.65611305094E+03  0.00000000000E+00 0. -1.
<mgrwt>
<rscale>  2 0.10983290E+04</rscale>
<asrwt>0</asrwt>
<pdfrwt beam="1">  1       21 0.30699566E+00 0.10995151E+04</pdfrwt>
<pdfrwt beam="2">  1       21 0.11811133E+00 0.10995151E+04</pdfrwt>
<totfact> 0.59208054E+00</totfact>
</mgrwt>
</event>
<event>
 8    1  0.5815007E-006  0.1099988E+04  0.7818608E-02  0.8688098E-01
         21   -1    0    0  501  502  0.00000000000E+00  0.00000000000E+00  0.10038470818E+04  0.10038470818E+04  0.00000000000E+00 0.  1.
         21   -1    0    0  502  503 -0.00000000000E+00 -0.00000000000E+00 -0.12623584518E+04  0.12623584518E+04  0.00000000000E+00 0.  1.
   -9000010    2    1    2    0  503 -0.42690688010E+03 -0.19160128247E+02 -0.39216574339E+03  0.11581270548E+04  0.10024209245E+04 0.  0.
    9000010    2    1    2  501    0  0.42690688010E+03  0.19160128247E+02  0.13365437338E+03  0.11080784788E+04  0.10135866163E+04 0.  0.
        -13    1    4    4    0    0 -0.27013458311E+03 -0.23474495007E+03  0.32147611713E+02  0.35932069893E+03  0.10566000000E+00 0.  1.
          4    1    4    4  501    0  0.69704146320E+03  0.25390507832E+03  0.10150676167E+03  0.74875777985E+03  0.00000000000E+00 0.  1.
         13    1    3    3    0    0  0.26309250558E+03  0.23220164282E+03 -0.78464653323E+02  0.35957194330E+03  0.10566000000E+00 0. -1.
         -4    1    3    3    0  503 -0.68999938568E+03 -0.25136177107E+03 -0.31370109006E+03  0.79855511150E+03  0.00000000000E+00 0. -1.
<mgrwt>
<rscale>  2 0.10974093E+04</rscale>
<asrwt>0</asrwt>
<pdfrwt beam="1">  1       21 0.15443801E+00 0.10999884E+04</pdfrwt>
<pdfrwt beam="2">  1       21 0.19420899E+00 0.10999884E+04</pdfrwt>
<totfact> 0.18097646E+01</totfact>
</mgrwt>
</event>
<event>
 8    1  0.5815007E-006  0.1048353E+04  0.7818608E-02  0.8752184E-01
         21   -1    0    0  501  502  0.00000000000E+00  0.00000000000E+00  0.36615897048E+03  0.36615897048E+03  0.00000000000E+00 0.  1.
         21   -1    0    0  502  503 -0.00000000000E+00 -0.00000000000E+00 -0.28623660509E+04  0.28623660509E+04  0.00000000000E+00 0.  1.
   -9000010    2    1    2    0  503 -0.36679866651E+03  0.58721302659E+02 -0.15255032586E+04  0.17997810757E+04  0.87980809006E+03 0.  0.
    9000010    2    1    2  501    0  0.36679866651E+03 -0.58721302659E+02 -0.97070382176E+03  0.14287439456E+04  0.98033356539E+03 0.  0.
        -13    1    4    4    0    0  0.15763278355E+03  0.13454831049E+03  0.16057175728E+03  0.26217292520E+03  0.10566000000E+00 0.  1.
          4    1    4    4  501    0  0.20916588295E+03 -0.19326961315E+03 -0.11312755790E+04  0.11665710204E+04  0.00000000000E+00 0.  1.
         13    1    3    3    0    0 -0.83319891472E+02 -0.27512005577E+03 -0.12494212141E+04  0.12820634270E+04  0.10566000000E+00 0. -1.
         -4    1    3    3    0  503 -0.28347877503E+03  0.33384135843E+03 -0.27608204448E+03  0.51771764870E+03  0.00000000000E+00 0. -1.
<mgrwt>
<rscale>  2 0.10241958E+04</rscale>
<asrwt>0</asrwt>
<pdfrwt beam="1">  1       21 0.56332147E-01 0.10483527E+04</pdfrwt>
<pdfrwt beam="2">  1       21 0.44036403E+00 0.10483527E+04</pdfrwt>
<totfact> 0.44230771E+00</totfact>
</mgrwt>
</event>
<event>
 8    1  0.5815007E-006  0.1189778E+04  0.7818608E-02  0.8622186E-01
         21   -1    0    0  503  502  0.00000000000E+00  0.00000000000E+00  0.74111226187E+03  0.74111226187E+03  0.00000000000E+00 0.  1.
         21   -1    0    0  501  503 -0.00000000000E+00 -0.00000000000E+00 -0.18488934355E+04  0.18488934355E+04  0.00000000000E+00 0.  1.
    9000010    2    1    2  501    0  0.54657149839E+03 -0.51312729591E+02 -0.60155145122E+03  0.12970093286E+04  0.10094531445E+04 0.  0.
   -9000010    2    1    2    0  502 -0.54657149839E+03  0.51312729591E+02 -0.50622972236E+03  0.12929963687E+04  0.10555556256E+04 0.  0.
        -13    1    3    3    0    0  0.53694332404E+03  0.29417695769E+03 -0.70738622810E+03  0.93554449522E+03  0.10566000000E+00 0.  1.
          4    1    3    3  501    0  0.96281743522E+01 -0.34548968729E+03  0.10583477687E+03  0.36146483336E+03  0.00000000000E+00 0.  1.
         13    1    4    4    0    0 -0.32451143683E+03  0.52647855394E+03 -0.93285443983E+02  0.62545145744E+03  0.10566000000E+00 0. -1.
         -4    1    4    4    0  502 -0.22206006155E+03 -0.47516582435E+03 -0.41294427837E+03  0.66754491130E+03  0.00000000000E+00 0. -1.
<mgrwt>
<rscale>  2 0.11794684E+04</rscale>
<asrwt>0</asrwt>
<pdfrwt beam="1">  1       21 0.11401727E+00 0.11897777E+04</pdfrwt>
<pdfrwt beam="2">  1       21 0.28444514E+00 0.11897777E+04</pdfrwt>
<totfact> 0.92512793E+00</totfact>
</mgrwt>
</event>
<event>
 8    1  0.5815007E-006  0.1072398E+04  0.7818608E-02  0.8722934E-01
         21   -1    0    0  501  502  0.00000000000E+00  0.00000000000E+00  0.99013242387E+03  0.99013242387E+03  0.00000000000E+00 0.  1.
         21   -1    0    0  502  503 -0.00000000000E+00 -0.00000000000E+00 -0.11549136898E+04  0.11549136898E+04  0.00000000000E+00 0.  1.
   -9000010    2    1    2    0  503 -0.14543411253E+03  0.65451450922E+02 -0.32572069589E+03  0.11207723441E+04  0.10604723957E+04 0.  0.
    9000010    2    1    2  501    0  0.14543411253E+03 -0.65451450922E+02  0.16093942997E+03  0.10242737695E+04  0.99889953513E+03 0.  0.
        -13    1    4    4    0    0  0.55104376999E+02  0.30512843837E+03 -0.29626728633E+03  0.42885215679E+03  0.10566000000E+00 0.  1.
          4    1    4    4  501    0  0.90329735534E+02 -0.37057988929E+03  0.45720671631E+03  0.59542161273E+03  0.00000000000E+00 0.  1.
         13    1    3    3    0    0  0.37706548032E+03  0.27612096902E+03  0.52292298973E+01  0.46738476868E+03  0.10566000000E+00 0. -1.
         -4    1    3    3    0  503 -0.52249959285E+03 -0.21066951810E+03 -0.33094992579E+03  0.65338757546E+03  0.00000000000E+00 0. -1.
<mgrwt>
<rscale>  2 0.10568511E+04</rscale>
<asrwt>0</asrwt>
<pdfrwt beam="1">  1       21 0.15232806E+00 0.10723976E+04</pdfrwt>
<pdfrwt beam="2">  1       21 0.17767903E+00 0.10723976E+04</pdfrwt>
<totfact> 0.25819857E+01</totfact>
</mgrwt>
</event>
<event>
 8    1  0.5815007E-006  0.1652371E+04  0.7818608E-02  0.8326994E-01
         21   -1    0    0  503  502  0.00000000000E+00  0.00000000000E+00  0.16155181977E+04  0.16155181977E+04  0.00000000000E+00 0. -1.
         21   -1    0    0  501  503 -0.00000000000E+00 -0.00000000000E+00 -0.17154295261E+04  0.17154295261E+04  0.00000000000E+00 0.  1.
    9000010    2    1    2  501    0  0.11839864118E+04  0.56753393585E+03  0.15773260525E+03  0.16598822747E+04  0.10032003786E+04 0.  0.
   -9000010    2    1    2    0  502 -0.11839864118E+04 -0.56753393585E+03 -0.25764393363E+03  0.16710654490E+04  0.10010797904E+04 0.  0.
        -13    1    3    3    0    0  0.71163887669E+03 -0.12166011198E+03  0.35029211706E+03  0.80245601257E+03  0.10566000000E+00 0.  1.
          4    1    3    3  501    0  0.47234753511E+03  0.68919404782E+03 -0.19255951181E+03  0.85742626218E+03  0.00000000000E+00 0.  1.
         13    1    4    4    0    0 -0.67649176954E+03 -0.79978301514E+03  0.19994391608E+02  0.10477088204E+04  0.10566000000E+00 0. -1.
         -4    1    4    4    0  502 -0.50749464226E+03  0.23224907930E+03 -0.27763832524E+03  0.62335662859E+03  0.00000000000E+00 0. -1.
<mgrwt>
<rscale>  2 0.16520492E+04</rscale>
<asrwt>0</asrwt>
<pdfrwt beam="1">  1       21 0.24854126E+00 0.16523709E+04</pdfrwt>
<pdfrwt beam="2">  1       21 0.26391223E+00 0.16523709E+04</pdfrwt>
<totfact> 0.88332572E-01</totfact>
</mgrwt>
</event>
<event>
 8    1  0.5815007E-006  0.1111708E+04  0.7818608E-02  0.8691855E-01
         21   -1    0    0  503  502  0.00000000000E+00  0.00000000000E+00  0.18426602554E+04  0.18426602554E+04  0.00000000000E+00 0.  1.
         21   -1    0    0  501  503 -0.00000000000E+00 -0.00000000000E+00 -0.74228841946E+03  0.74228841946E+03  0.00000000000E+00 0.  1.
    9000010    2    1    2  501    0 -0.23093703781E+03 -0.24992337597E+03  0.10744750556E+04  0.15460888938E+04  0.10583480586E+04 0.  0.
   -9000010    2    1    2    0  502  0.23093703781E+03  0.24992337597E+03  0.25896780271E+02  0.10388597810E+04  0.98120609054E+03 0.  0.
        -13    1    3    3    0    0  0.46160125092E+02 -0.34869034342E+03 -0.74939503908E+02  0.35962710292E+03  0.10566000000E+00 0.  1.
          4    1    3    3  501    0 -0.27709716290E+03  0.98766967450E+02  0.11494145595E+04  0.11864617909E+04  0.00000000000E+00 0.  1.
         13    1    4    4    0    0 -0.14130464447E+03  0.24847288287E+03 -0.38817512962E+03  0.48206401908E+03  0.10566000000E+00 0. -1.
         -4    1    4    4    0  502  0.37224168228E+03  0.14504931014E+01  0.41407190989E+03  0.55679576194E+03  0.00000000000E+00 0. -1.
<mgrwt>
<rscale>  2 0.10929454E+04</rscale>
<asrwt>0</asrwt>
<pdfrwt beam="1">  1       21 0.28348619E+00 0.11117078E+04</pdfrwt>
<pdfrwt beam="2">  1       21 0.11419822E+00 0.11117078E+04</pdfrwt>
<totfact> 0.95118932E+00</totfact>
</mgrwt>
</event>
<event>
 8    1  0.5815007E-006  0.1120592E+04  0.7818608E-02  0.8673513E-01
         21   -1    0    0  501  502  0.00000000000E+00  0.00000000000E+00  0.16170558361E+04  0.16170558361E+04  0.00000000000E+00 0.  1.
         21   -1    0    0  502  503 -0.00000000000E+00 -0.00000000000E+00 -0.10218519003E+04  0.10218519003E+04  0.00000000000E+00 0.  1.
   -9000010    2    1    2    0  503  0.40000803303E+03 -0.24996691313E+03  0.96631343043E+03  0.14796916828E+04  0.10164821425E+04 0.  0.
    9000010    2    1    2  501    0 -0.40000803303E+03  0.24996691313E+03 -0.37110949462E+03  0.11592160537E+04  0.99175083461E+03 0.  0.
        -13    1    4    4    0    0  0.61428445928E+02 -0.20825495005E+03 -0.45439347767E+03  0.50360403285E+03  0.10566000000E+00 0.  1.
          4    1    4    4  501    0 -0.46143647896E+03  0.45822186318E+03  0.83283983052E+02  0.65561202082E+03  0.00000000000E+00 0.  1.
         13    1    3    3    0    0  0.46899475659E+03  0.26638664068E+03  0.73003164132E+03  0.90766961639E+03  0.10566000000E+00 0. -1.
         -4    1    3    3    0  503 -0.68986723562E+02 -0.51635355380E+03  0.23628178912E+03  0.57202206638E+03  0.00000000000E+00 0. -1.
<mgrwt>
<rscale>  2 0.11149532E+04</rscale>
<asrwt>0</asrwt>
<pdfrwt beam="1">  1       21 0.24877782E+00 0.11205917E+04</pdfrwt>
<pdfrwt beam="2">  1       21 0.15720798E+00 0.11205917E+04</pdfrwt>
<totfact> 0.65970514E+00</totfact>
</mgrwt>
</event>
<event>
 8    1  0.5815007E-006  0.1175119E+04  0.7818608E-02  0.8627535E-01
         21   -1    0    0  501  502  0.00000000000E+00  0.00000000000E+00  0.13684132613E+04  0.13684132613E+04  0.00000000000E+00 0. -1.
         21   -1    0    0  502  503 -0.00000000000E+00 -0.00000000000E+00 -0.10018257158E+04  0.10018257158E+04  0.00000000000E+00 0. -1.
   -9000010    2    1    2    0  503 -0.60460472413E+03 -0.85003707911E+02  0.13631272988E+03  0.11727700487E+04  0.99198584874E+03 0.  0.
    9000010    2    1    2  501    0  0.60460472413E+03  0.85003707911E+02  0.23027481565E+03  0.11974689284E+04  0.10040581860E+04 0.  0.
        -13    1    4    4    0    0 -0.21559994874E+03 -0.20659908535E+03  0.11223561421E+03  0.31900370566E+03  0.10566000000E+00 0.  1.
          4    1    4    4  501    0  0.82020467287E+03  0.29160279327E+03  0.11803920144E+03  0.87846522271E+03  0.00000000000E+00 0.  1.
         13    1    3    3    0    0 -0.50383699577E+03  0.33117947858E+03 -0.19245699393E+03  0.63290700029E+03  0.10566000000E+00 0. -1.
         -4    1    3    3    0  503 -0.10076772836E+03 -0.41618318649E+03  0.32876972381E+03  0.53986304846E+03  0.00000000000E+00 0. -1.
<mgrwt>
<rscale>  2 0.11725363E+04</rscale>
<asrwt>0</asrwt>
<pdfrwt beam="1">  1       21 0.21052512E+00 0.11751193E+04</pdfrwt>
<pdfrwt beam="2">  1       21 0.15412703E+00 0.11751193E+04</pdfrwt>
<totfact> 0.13380761E+01</totfact>
</mgrwt>
</event>
<event>
 8    1  0.5815007E-006  0.1095356E+04  0.7818608E-02  0.8696067E-01
         21   -1    0    0  501  502  0.00000000000E+00  0.00000000000E+00  0.66268394965E+03  0.66268394965E+03  0.00000000000E+00 0. -1.
         21   -1    0    0  502  503 -0.00000000000E+00 -0.00000000000E+00 -0.17749069541E+04  0.17749069541E+04  0.00000000000E+00 0. -1.
   -9000010    2    1    2    0  503 -0.56467207829E+02 -0.32240969428E+03 -0.46160636857E+03  0.11886484914E+04  0.10453077251E+04 0.  0.
    9000010    2    1    2  501    0  0.56467207829E+02  0.32240969428E+03 -0.65061663593E+03  0.12489424124E+04  0.10146026739E+04 0.  0.
        -13    1    4    4    0    0  0.23945568072E+03  0.64891019332E+03 -0.41286268343E+03  0.80553030269E+03  0.10566000000E+00 0.  1.
          4    1    4    4  501    0 -0.18298847289E+03 -0.32650049904E+03 -0.23775395250E+03  0.44341210968E+03  0.00000000000E+00 0.  1.
         13    1    3    3    0    0 -0.17325988688E+03  0.15416235318E+03 -0.62885255932E+03  0.67025411007E+03  0.10566000000E+00 0. -1.
         -4    1    3    3    0  503  0.11679267905E+03 -0.47657204746E+03  0.16724619075E+03  0.51839438136E+03  0.00000000000E+00 0. -1.
<mgrwt>
<rscale>  2 0.10879659E+04</rscale>
<asrwt>0</asrwt>
<pdfrwt beam="1">  1       21 0.10195138E+00 0.10953560E+04</pdfrwt>
<pdfrwt beam="2">  1       21 0.27306260E+00 0.10953560E+04</pdfrwt>
<totfact> 0.15377262E+01</totfact>
</mgrwt>
</event>
<event>
 8    1  0.5815007E-006  0.1087418E+04  0.7818608E-02  0.8697348E-01
         21   -1    0    0  501  502  0.00000000000E+00  0.00000000000E+00  0.35971720874E+03  0.35971720874E+03  0.00000000000E+00 0. -1.
         21   -1    0    0  502  503 -0.00000000000E+00 -0.00000000000E+00 -0.38358542865E+04  0.38358542865E+04  0.00000000000E+00 0. -1.
   -9000010    2    1    2    0  503 -0.32508125506E+03 -0.27270170735E+03 -0.25371228482E+04  0.27588299471E+04  0.99704878846E+03 0.  0.
    9000010    2    1    2  501    0  0.32508125506E+03  0.27270170735E+03 -0.93901422962E+03  0.14367415482E+04  0.10012165147E+04 0.  0.
        -13    1    4    4    0    0  0.38198078836E+03 -0.25818905761E+03 -0.72989749301E+03  0.86331991383E+03  0.10566000000E+00 0.  1.
          4    1    4    4  501    0 -0.56899533305E+02  0.53089076497E+03 -0.20911673660E+03  0.57342163435E+03  0.00000000000E+00 0.  1.
         13    1    3    3    0    0 -0.46044916793E+03 -0.11721163810E+03 -0.42746555508E+03  0.63912347500E+03  0.10566000000E+00 0. -1.
         -4    1    3    3    0  503  0.13536791287E+03 -0.15549006925E+03 -0.21096572931E+04  0.21197064721E+04  0.00000000000E+00 0. -1.
<mgrwt>
<rscale>  2 0.10864580E+04</rscale>
<asrwt>0</asrwt>
<pdfrwt beam="1">  1       21 0.55341109E-01 0.10874183E+04</pdfrwt>
<pdfrwt beam="2">  1       21 0.59013143E+00 0.10874183E+04</pdfrwt>
<totfact> 0.39036851E-01</totfact>
</mgrwt>
</event>
<event>
 8    1  0.5815007E-006  0.1042063E+04  0.7818608E-02  0.8747107E-01
         21   -1    0    0  501  502  0.00000000000E+00  0.00000000000E+00  0.21165730681E+04  0.21165730681E+04  0.00000000000E+00 0. -1.
         21   -1    0    0  502  503 -0.00000000000E+00 -0.00000000000E+00 -0.49345284321E+03  0.49345284321E+03  0.00000000000E+00 0. -1.
   -9000010    2    1    2    0  503 -0.24614281954E+03 -0.13450036665E+03  0.67639464976E+03  0.12021252195E+04  0.95337226978E+03 0.  0.
    9000010    2    1    2  501    0  0.24614281954E+03  0.13450036665E+03  0.94672557515E+03  0.14079006919E+04  0.10036027139E+04 0.  0.
        -13    1    4    4    0    0  0.23366753212E+03  0.19319617066E+03  0.11534555345E+04  0.11926378147E+04  0.10566000000E+00 0.  1.
          4    1    4    4  501    0  0.12475287416E+02 -0.58695804014E+02 -0.20672995931E+03  0.21526287716E+03  0.00000000000E+00 0.  1.
         13    1    3    3    0    0 -0.19180926947E+03 -0.51038255506E+03  0.60722264448E+03  0.81608853656E+03  0.10566000000E+00 0. -1.
         -4    1    3    3    0  503 -0.54333550072E+02  0.37588218841E+03  0.69172005276E+02  0.38603668290E+03  0.00000000000E+00 0. -1.
<mgrwt>
<rscale>  2 0.10297761E+04</rscale>
<asrwt>0</asrwt>
<pdfrwt beam="1">  1       21 0.32562662E+00 0.10420629E+04</pdfrwt>
<pdfrwt beam="2">  1       21 0.75915823E-01 0.10420629E+04</pdfrwt>
<totfact> 0.13918697E+01</totfact>
</mgrwt>
</event>
<event>
 8    1  0.5815007E-006  0.1287204E+04  0.7818608E-02  0.8550272E-01
         21   -1    0    0  501  502  0.00000000000E+00  0.00000000000E+00  0.12274788989E+04  0.12274788989E+04  0.00000000000E+00 0.  1.
         21   -1    0    0  502  503 -0.00000000000E+00 -0.00000000000E+00 -0.13381568645E+04  0.13381568645E+04  0.00000000000E+00 0.  1.
   -9000010    2    1    2    0  503  0.68915887296E+03  0.36476160580E+03  0.12980028168E+03  0.12561614143E+04  0.97626963716E+03 0.  0.
    9000010    2    1    2  501    0 -0.68915887296E+03 -0.36476160580E+03 -0.24047824728E+03  0.13094743491E+04  0.10241593149E+04 0.  0.
        -13    1    4    4    0    0 -0.74850322372E+03 -0.45662409825E+03 -0.51299089761E+03  0.10158357718E+04  0.10566000000E+00 0.  1.
          4    1    4    4  501    0  0.59344350763E+02  0.91862492446E+02  0.27251265033E+03  0.29363857730E+03  0.00000000000E+00 0.  1.
         13    1    3    3    0    0  0.91004824891E+03  0.23115445657E+03 -0.52050997151E+02  0.94038796016E+03  0.10566000000E+00 0. -1.
         -4    1    3    3    0  503 -0.22088937596E+03  0.13360714923E+03  0.18185127883E+03  0.31577345415E+03  0.00000000000E+00 0. -1.
<mgrwt>
<rscale>  2 0.12776564E+04</rscale>
<asrwt>0</asrwt>
<pdfrwt beam="1">  1       21 0.18884291E+00 0.12872037E+04</pdfrwt>
<pdfrwt beam="2">  1       21 0.20587029E+00 0.12872037E+04</pdfrwt>
<totfact> 0.72691815E+00</totfact>
</mgrwt>
</event>
<event>
 8    1  0.5815007E-006  0.1092033E+04  0.7818608E-02  0.8699875E-01
         21   -1    0    0  501  502  0.00000000000E+00  0.00000000000E+00  0.11705282201E+04  0.11705282201E+04  0.00000000000E+00 0.  1.
         21   -1    0    0  502  503 -0.00000000000E+00 -0.00000000000E+00 -0.10963285977E+04  0.10963285977E+04  0.00000000000E+00 0.  1.
   -9000010    2    1    2    0  503  0.26412230332E+03  0.35093601720E+03 -0.32043915316E+03  0.11057039212E+04  0.96279968388E+03 0.  0.
    9000010    2    1    2  501    0 -0.26412230332E+03 -0.35093601720E+03  0.39463877561E+03  0.11611528966E+04  0.99980978530E+03 0.  0.
        -13    1    4    4    0    0 -0.56576699868E+02  0.34999072471E+03  0.70368818080E+02  0.36145015157E+03  0.10566000000E+00 0.  1.
          4    1    4    4  501    0 -0.20754560345E+03 -0.70092674191E+03  0.32426995753E+03  0.79970274502E+03  0.00000000000E+00 0.  1.
         13    1    3    3    0    0  0.46954274879E+03 -0.16628041386E+03 -0.19703306683E+03  0.53566930990E+03  0.10566000000E+00 0. -1.
         -4    1    3    3    0  503 -0.20542044547E+03  0.51721643106E+03 -0.12340608633E+03  0.57003461134E+03  0.00000000000E+00 0. -1.
<mgrwt>
<rscale>  2 0.10834884E+04</rscale>
<asrwt>0</asrwt>
<pdfrwt beam="1">  1       21 0.18008126E+00 0.10920331E+04</pdfrwt>
<pdfrwt beam="2">  1       21 0.16866594E+00 0.10920331E+04</pdfrwt>
<totfact> 0.17762661E+01</totfact>
</mgrwt>
</event>
<event>
 8    1  0.5815007E-006  0.1441308E+04  0.7818608E-02  0.8447226E-01
         21   -1    0    0  503  502  0.00000000000E+00  0.00000000000E+00  0.10968064867E+04  0.10968064867E+04  0.00000000000E+00 0. -1.
         21   -1    0    0  501  503 -0.00000000000E+00 -0.00000000000E+00 -0.20973331407E+04  0.20973331407E+04  0.00000000000E+00 0.  1.
    9000010    2    1    2  501    0 -0.42648906605E+03  0.93857913869E+03 -0.10325963454E+04  0.17730267779E+04  0.10072462558E+04 0.  0.
   -9000010    2    1    2    0  502  0.42648906605E+03 -0.93857913869E+03  0.32069691416E+02  0.14211128495E+04  0.97760398057E+03 0.  0.
        -13    1    3    3    0    0 -0.17890580798E+03 -0.20167952650E+03 -0.13891661492E+03  0.30328164567E+03  0.10566000000E+00 0.  1.
          4    1    3    3  501    0 -0.24758325807E+03  0.11402586652E+04 -0.89367973044E+03  0.14697451323E+04  0.00000000000E+00 0.  1.
         13    1    4    4    0    0  0.44953563487E+03 -0.71413024062E+03  0.44244779521E+03  0.95279816868E+03  0.10566000000E+00 0. -1.
         -4    1    4    4    0  502 -0.23046568819E+02 -0.22444889807E+03 -0.41037810380E+03  0.46831468080E+03  0.00000000000E+00 0. -1.
<mgrwt>
<rscale>  2 0.14361410E+04</rscale>
<asrwt>0</asrwt>
<pdfrwt beam="1">  1       21 0.16873946E+00 0.14413080E+04</pdfrwt>
<pdfrwt beam="2">  1       21 0.32266664E+00 0.14413080E+04</pdfrwt>
<totfact> 0.14620501E+00</totfact>
</mgrwt>
</event>
<event>
 8    1  0.5815007E-006  0.1130084E+04  0.7818608E-02  0.8685706E-01
         21   -1    0    0  503  502  0.00000000000E+00  0.00000000000E+00  0.12386342882E+04  0.12386342882E+04  0.00000000000E+00 0.  1.
         21   -1    0    0  501  503 -0.00000000000E+00 -0.00000000000E+00 -0.99916862777E+03  0.99916862777E+03  0.00000000000E+00 0. -1.
    9000010    2    1    2  501    0  0.52703152086E-01  0.32221341428E+03 -0.18211983894E+03  0.10316422202E+04  0.96296238125E+03 0.  0.
   -9000010    2    1    2    0  502 -0.52703152086E-01 -0.32221341428E+03  0.42158549941E+03  0.12061606958E+04  0.10831748721E+04 0.  0.
        -13    1    3    3    0    0  0.53213800039E+02 -0.33676184395E+03  0.16486647460E+02  0.34133864236E+03  0.10566000000E+00 0.  1.
          4    1    3    3  501    0 -0.53161096887E+02  0.65897525823E+03 -0.19860648640E+03  0.69030357787E+03  0.00000000000E+00 0.  1.
         13    1    4    4    0    0  0.17117683689E+02 -0.34830485994E+03  0.77579918695E+03  0.85057256021E+03  0.10566000000E+00 0. -1.
         -4    1    4    4    0  502 -0.17170386841E+02  0.26091445659E+02 -0.35421368754E+03  0.35558813557E+03  0.00000000000E+00 0. -1.
<mgrwt>
<rscale>  2 0.11002630E+04</rscale>
<asrwt>0</asrwt>
<pdfrwt beam="1">  1       21 0.19055912E+00 0.11300838E+04</pdfrwt>
<pdfrwt beam="2">  1       21 0.15371825E+00 0.11300838E+04</pdfrwt>
<totfact> 0.19504204E+01</totfact>
</mgrwt>
</event>
<event>
 8    1  0.5815007E-006  0.1164023E+04  0.7818608E-02  0.8646274E-01
         21   -1    0    0  501  502  0.00000000000E+00  0.00000000000E+00  0.14863520638E+04  0.14863520638E+04  0.00000000000E+00 0. -1.
         21   -1    0    0  502  503 -0.00000000000E+00 -0.00000000000E+00 -0.87943389301E+03  0.87943389301E+03  0.00000000000E+00 0. -1.
   -9000010    2    1    2    0  503 -0.30266970958E+03  0.47601171192E+03  0.15972852402E+03  0.11749310658E+04  0.10182110317E+04 0.  0.
    9000010    2    1    2  501    0  0.30266970958E+03 -0.47601171192E+03  0.44718964673E+03  0.11908548909E+04  0.94866257865E+03 0.  0.
        -13    1    4    4    0    0  0.52140627295E+03 -0.49977651307E+03  0.34373490185E+02  0.72306473602E+03  0.10566000000E+00 0.  1.
          4    1    4    4  501    0 -0.21873656336E+03  0.23764801146E+02  0.41281615654E+03  0.46779015491E+03  0.00000000000E+00 0.  1.
         13    1    3    3    0    0  0.32628559149E+02  0.10278541925E+03  0.53666523382E+03  0.54739295724E+03  0.10566000000E+00 0. -1.
         -4    1    3    3    0  503 -0.33529826873E+03  0.37322629268E+03 -0.37693670980E+03  0.62753810861E+03  0.00000000000E+00 0. -1.
<mgrwt>
<rscale>  2 0.11486404E+04</rscale>
<asrwt>0</asrwt>
<pdfrwt beam="1">  1       21 0.22866955E+00 0.11640231E+04</pdfrwt>
<pdfrwt beam="2">  1       21 0.13529752E+00 0.11640231E+04</pdfrwt>
<totfact> 0.14522898E+01</totfact>
</mgrwt>
</event>
<event>
 8    1  0.5815007E-006  0.1167272E+04  0.7818608E-02  0.8634771E-01
         21   -1    0    0  501  502  0.00000000000E+00  0.00000000000E+00  0.14415590656E+04  0.14415590656E+04  0.00000000000E+00 0. -1.
         21   -1    0    0  502  503 -0.00000000000E+00 -0.00000000000E+00 -0.95495978938E+03  0.95495978938E+03  0.00000000000E+00 0. -1.
   -9000010    2    1    2    0  503  0.46980411328E+03  0.26631447569E+03  0.42983235847E+03  0.12438966490E+04  0.10348351135E+04 0.  0.
    9000010    2    1    2  501    0 -0.46980411328E+03 -0.26631447569E+03  0.56766917759E+02  0.11526222060E+04  0.10166986584E+04 0.  0.
        -13    1    4    4    0    0 -0.36643948449E+03  0.34662731867E+03 -0.93785352932E+02  0.51305369839E+03  0.10566000000E+00 0.  1.
          4    1    4    4  501    0 -0.10336462878E+03 -0.61294179436E+03  0.15055227069E+03  0.63956850764E+03  0.00000000000E+00 0.  1.
         13    1    3    3    0    0  0.78551029685E+03  0.28599373422E+03  0.22036903797E+03  0.86451221306E+03  0.10566000000E+00 0. -1.
         -4    1    3    3    0  503 -0.31570618358E+03 -0.19679258526E+02  0.20946332050E+03  0.37938443590E+03  0.00000000000E+00 0. -1.
<mgrwt>
<rscale>  2 0.11632387E+04</rscale>
<asrwt>0</asrwt>
<pdfrwt beam="1">  1       21 0.22177832E+00 0.11672716E+04</pdfrwt>
<pdfrwt beam="2">  1       21 0.14691689E+00 0.11672716E+04</pdfrwt>
<totfact> 0.12766648E+01</totfact>
</mgrwt>
</event>
<event>
 8    1  0.5815007E-006  0.1267521E+04  0.7818608E-02  0.8568312E-01
         21   -1    0    0  501  502  0.00000000000E+00  0.00000000000E+00  0.63172293365E+03  0.63172293365E+03  0.00000000000E+00 0.  1.
         21   -1    0    0  502  503 -0.00000000000E+00 -0.00000000000E+00 -0.24362384346E+04  0.24362384346E+04  0.00000000000E+00 0.  1.
   -9000010    2    1    2    0  503  0.61538792835E+03  0.37351695082E+02 -0.99194624092E+03  0.15623454175E+04  0.10377227024E+04 0.  0.
    9000010    2    1    2  501    0 -0.61538792835E+03 -0.37351695082E+02 -0.81256925999E+03  0.15056159507E+04  0.11074805359E+04 0.  0.
        -13    1    4    4    0    0 -0.43566722371E+03 -0.56208281344E+03 -0.41758696882E+03  0.82469503859E+03  0.10566000000E+00 0.  1.
          4    1    4    4  501    0 -0.17972070465E+03  0.52473111836E+03 -0.39498229117E+03  0.68092091214E+03  0.00000000000E+00 0.  1.
         13    1    3    3    0    0  0.63984562838E+03 -0.36652249352E+03 -0.38216820527E+03  0.83053820785E+03  0.10566000000E+00 0. -1.
         -4    1    3    3    0  503 -0.24457700026E+02  0.40387418860E+03 -0.60977803564E+03  0.73180720963E+03  0.00000000000E+00 0. -1.
<mgrwt>
<rscale>  2 0.12521249E+04</rscale>
<asrwt>0</asrwt>
<pdfrwt beam="1">  1       21 0.97188142E-01 0.12675214E+04</pdfrwt>
<pdfrwt beam="2">  1       21 0.37480592E+00 0.12675214E+04</pdfrwt>
<totfact> 0.32284749E+00</totfact>
</mgrwt>
</event>
<event>
 8    1  0.5815007E-006  0.1156554E+04  0.7818608E-02  0.8651223E-01
         21   -1    0    0  503  502  0.00000000000E+00  0.00000000000E+00  0.11691741614E+04  0.11691741614E+04  0.00000000000E+00 0.  1.
         21   -1    0    0  501  503 -0.00000000000E+00 -0.00000000000E+00 -0.10987761646E+04  0.10987761646E+04  0.00000000000E+00 0.  1.
    9000010    2    1    2  501    0 -0.11084129445E+03 -0.44974353902E+03  0.13650996245E+03  0.11095080607E+04  0.99890846603E+03 0.  0.
   -9000010    2    1    2    0  502  0.11084129445E+03  0.44974353902E+03 -0.66111965599E+02  0.11584422653E+04  0.10597465011E+04 0.  0.
        -13    1    3    3    0    0  0.19733143075E+03 -0.30277440340E+03 -0.35792338797E+03  0.50864643490E+03  0.10566000000E+00 0.  1.
          4    1    3    3  501    0 -0.30817272519E+03 -0.14696913562E+03  0.49443335042E+03  0.60086162582E+03  0.00000000000E+00 0.  1.
         13    1    4    4    0    0 -0.26066865393E+03  0.35813698547E+02 -0.42259169734E+03  0.49780972466E+03  0.10566000000E+00 0. -1.
         -4    1    4    4    0  502  0.37150994837E+03  0.41392984047E+03  0.35647973174E+03  0.66063254061E+03  0.00000000000E+00 0. -1.
<mgrwt>
<rscale>  2 0.11424285E+04</rscale>
<asrwt>0</asrwt>
<pdfrwt beam="1">  1       21 0.17987295E+00 0.11565542E+04</pdfrwt>
<pdfrwt beam="2">  1       21 0.16904249E+00 0.11565542E+04</pdfrwt>
<totfact> 0.17461920E+01</totfact>
</mgrwt>
</event>
<event>
 8    1  0.5815007E-006  0.1121474E+04  0.7818608E-02  0.8672349E-01
         21   -1    0    0  501  502  0.00000000000E+00  0.00000000000E+00  0.90113185923E+03  0.90113185923E+03  0.00000000000E+00 0. -1.
         21   -1    0    0  502  503 -0.00000000000E+00 -0.00000000000E+00 -0.14614061313E+04  0.14614061313E+04  0.00000000000E+00 0. -1.
   -9000010    2    1    2    0  503  0.41381351197E+03 -0.31463990805E+03 -0.57704252462E+03  0.12612224017E+04  0.99371222040E+03 0.  0.
    9000010    2    1    2  501    0 -0.41381351197E+03  0.31463990805E+03  0.16768252511E+02  0.11013155889E+04  0.97075998966E+03 0.  0.
        -13    1    4    4    0    0 -0.68121935408E+03  0.34002657315E+03 -0.16232426783E+03  0.77847739718E+03  0.10566000000E+00 0.  1.
          4    1    4    4  501    0  0.26740584211E+03 -0.25386665100E+02  0.17909252034E+03  0.32283819167E+03  0.00000000000E+00 0.  1.
         13    1    3    3    0    0 -0.24220698060E+03  0.12442877596E+03  0.17677487595E+02  0.27287221638E+03  0.10566000000E+00 0. -1.
         -4    1    3    3    0  503  0.65602049258E+03 -0.43906868400E+03 -0.59472001222E+03  0.98835018535E+03  0.00000000000E+00 0. -1.
<mgrwt>
<rscale>  2 0.11163677E+04</rscale>
<asrwt>0</asrwt>
<pdfrwt beam="1">  1       21 0.13863567E+00 0.11214740E+04</pdfrwt>
<pdfrwt beam="2">  1       21 0.22483171E+00 0.11214740E+04</pdfrwt>
<totfact> 0.14562362E+01</totfact>
</mgrwt>
</event>
<event>
 8    1  0.5815007E-006  0.1059569E+04  0.7818608E-02  0.8722697E-01
         21   -1    0    0  501  502  0.00000000000E+00  0.00000000000E+00  0.17287607960E+04  0.17287607960E+04  0.00000000000E+00 0. -1.
         21   -1    0    0  502  503 -0.00000000000E+00 -0.00000000000E+00 -0.84293903412E+03  0.84293903412E+03  0.00000000000E+00 0. -1.
   -9000010    2    1    2    0  503  0.77200121715E+02  0.34205602861E+03 -0.18418685318E+03  0.10658430556E+04  0.98951222161E+03 0.  0.
    9000010    2    1    2  501    0 -0.77200121715E+02 -0.34205602861E+03  0.10700086151E+04  0.15058567746E+04  0.99986199233E+03 0.  0.
        -13    1    4    4    0    0  0.89643903872E+02 -0.13383321603E+03  0.11988032001E+04  0.12095769851E+04  0.10566000000E+00 0.  1.
          4    1    4    4  501    0 -0.16684402559E+03 -0.20822281259E+03 -0.12879458496E+03  0.29627978951E+03  0.00000000000E+00 0.  1.
         13    1    3    3    0    0  0.52379341740E+03  0.11223758251E+03 -0.17485635168E+03  0.56349940011E+03  0.10566000000E+00 0. -1.
         -4    1    3    3    0  503 -0.44659329569E+03  0.22981844610E+03 -0.93305014976E+01  0.50234365546E+03  0.00000000000E+00 0. -1.
<mgrwt>
<rscale>  2 0.10571202E+04</rscale>
<asrwt>0</asrwt>
<pdfrwt beam="1">  1       21 0.26596320E+00 0.10595689E+04</pdfrwt>
<pdfrwt beam="2">  1       21 0.12968293E+00 0.10595689E+04</pdfrwt>
<totfact> 0.89784022E+00</totfact>
</mgrwt>
</event>
<event>
 8    1  0.5815007E-006  0.1096764E+04  0.7818608E-02  0.8689946E-01
         21   -1    0    0  503  502  0.00000000000E+00  0.00000000000E+00  0.17718622178E+04  0.17718622178E+04  0.00000000000E+00 0. -1.
         21   -1    0    0  501  503 -0.00000000000E+00 -0.00000000000E+00 -0.68799875239E+03  0.68799875239E+03  0.00000000000E+00 0. -1.
    9000010    2    1    2  501    0  0.22901079567E+03 -0.35470108769E+03  0.37171206928E+03  0.11521714589E+04  0.10055199661E+04 0.  0.
   -9000010    2    1    2    0  502 -0.22901079567E+03  0.35470108769E+03  0.71215139609E+03  0.13076895112E+04  0.10122417896E+04 0.  0.
        -13    1    3    3    0    0  0.49455669175E+03  0.13788125990E+03  0.75280748404E+02  0.51890728018E+03  0.10566000000E+00 0.  1.
          4    1    3    3  501    0 -0.26554589607E+03 -0.49258234759E+03  0.29643132088E+03  0.63326417874E+03  0.00000000000E+00 0.  1.
         13    1    4    4    0    0  0.18089684485E+03 -0.24005906384E+03  0.10643094795E+02  0.30077451561E+03  0.10566000000E+00 0. -1.
         -4    1    4    4    0  502 -0.40990764053E+03  0.59476015153E+03  0.70150830130E+03  0.10069149956E+04  0.00000000000E+00 0. -1.
<mgrwt>
<rscale>  2 0.10952110E+04</rscale>
<asrwt>0</asrwt>
<pdfrwt beam="1">  1       21 0.27259418E+00 0.10967644E+04</pdfrwt>
<pdfrwt beam="2">  1       21 0.10584596E+00 0.10967644E+04</pdfrwt>
<totfact> 0.14023913E+01</totfact>
</mgrwt>
</event>
<event>
 8    1  0.5815007E-006  0.1032300E+04  0.7818608E-02  0.8746277E-01
         21   -1    0    0  503  502  0.00000000000E+00  0.00000000000E+00  0.57258809101E+03  0.57258809101E+03  0.00000000000E+00 0.  1.
         21   -1    0    0  501  503 -0.00000000000E+00 -0.00000000000E+00 -0.19293000334E+04  0.19293000334E+04  0.00000000000E+00 0.  1.
    9000010    2    1    2  501    0 -0.81931771995E+02  0.32290290165E+03 -0.93067254649E+03  0.13851283540E+04  0.97028349937E+03 0.  0.
   -9000010    2    1    2    0  502  0.81931771995E+02 -0.32290290165E+03 -0.42603939587E+03  0.11167597704E+04  0.97706894265E+03 0.  0.
        -13    1    3    3    0    0 -0.13646765595E+03 -0.19501098215E+03 -0.81850264446E+03  0.85240793897E+03  0.10566000000E+00 0.  1.
          4    1    3    3  501    0  0.54535883958E+02  0.51791388381E+03 -0.11216990204E+03  0.53272041504E+03  0.00000000000E+00 0.  1.
         13    1    4    4    0    0 -0.34861455541E+03 -0.23334618985E+03 -0.51893820146E+03  0.66729260498E+03  0.10566000000E+00 0. -1.
         -4    1    4    4    0  502  0.43054632741E+03 -0.89556711808E+02  0.92898805589E+02  0.44946716538E+03  0.00000000000E+00 0. -1.
<mgrwt>
<rscale>  2 0.10306910E+04</rscale>
<asrwt>0</asrwt>
<pdfrwt beam="1">  1       21 0.88090477E-01 0.10322998E+04</pdfrwt>
<pdfrwt beam="2">  1       21 0.29681538E+00 0.10322998E+04</pdfrwt>
<totfact> 0.15410070E+01</totfact>
</mgrwt>
</event>
<event>
 8    1  0.5815007E-006  0.1089204E+04  0.7818608E-02  0.8698951E-01
         21   -1    0    0  501  502  0.00000000000E+00  0.00000000000E+00  0.54620328590E+03  0.54620328590E+03  0.00000000000E+00 0.  1.
         21   -1    0    0  502  503 -0.00000000000E+00 -0.00000000000E+00 -0.21955004196E+04  0.21955004196E+04  0.00000000000E+00 0.  1.
   -9000010    2    1    2    0  503  0.27326470396E+03  0.28701556076E+03 -0.10444731003E+04  0.14958392295E+04  0.99476600900E+03 0.  0.
    9000010    2    1    2  501    0 -0.27326470396E+03 -0.28701556076E+03 -0.60482403342E+03  0.12458644760E+04  0.10145514529E+04 0.  0.
        -13    1    4    4    0    0  0.21678035620E+03  0.13120234526E+03  0.11635754828E+03  0.27883125442E+03  0.10566000000E+00 0.  1.
          4    1    4    4  501    0 -0.49004506016E+03 -0.41821790601E+03 -0.72118158170E+03  0.96703322160E+03  0.00000000000E+00 0.  1.
         13    1    3    3    0    0  0.27062235292E+03  0.58915446334E+03 -0.34615834858E+03  0.73495921862E+03  0.10566000000E+00 0. -1.
         -4    1    3    3    0  503  0.26423510398E+01 -0.30213890259E+03 -0.69831475168E+03  0.76088001083E+03  0.00000000000E+00 0. -1.
<mgrwt>
<rscale>  2 0.10845736E+04</rscale>
<asrwt>0</asrwt>
<pdfrwt beam="1">  1       21 0.84031275E-01 0.10892044E+04</pdfrwt>
<pdfrwt beam="2">  1       21 0.33776929E+00 0.10892044E+04</pdfrwt>
<totfact> 0.88302944E+00</totfact>
</mgrwt>
</event>
<event>
 8    1  0.5815007E-006  0.1127207E+04  0.7818608E-02  0.8670507E-01
         21   -1    0    0  501  502  0.00000000000E+00  0.00000000000E+00  0.72304494801E+03  0.72304494801E+03  0.00000000000E+00 0.  1.
         21   -1    0    0  502  503 -0.00000000000E+00 -0.00000000000E+00 -0.17340222348E+04  0.17340222348E+04  0.00000000000E+00 0.  1.
   -9000010    2    1    2    0  503  0.36583531321E+03  0.16789565790E+03 -0.65763747634E+03  0.12757777877E+04  0.10164140323E+04 0.  0.
    9000010    2    1    2  501    0 -0.36583531321E+03 -0.16789565790E+03 -0.35333981045E+03  0.11812893951E+04  0.10528870713E+04 0.  0.
        -13    1    4    4    0    0  0.30827227134E+03  0.68046610158E+02 -0.34416564345E+03  0.46702476993E+03  0.10566000000E+00 0.  1.
          4    1    4    4  501    0 -0.67410758455E+03 -0.23594226806E+03 -0.91741670019E+01  0.71426462515E+03  0.00000000000E+00 0.  1.
         13    1    3    3    0    0  0.13329294443E+03  0.48912960615E+03 -0.71352472412E+03  0.87528985127E+03  0.10566000000E+00 0. -1.
         -4    1    3    3    0  503  0.23254236878E+03 -0.32123394825E+03  0.55887247778E+02  0.40048793646E+03  0.00000000000E+00 0. -1.
<mgrwt>
<rscale>  2 0.11186115E+04</rscale>
<asrwt>0</asrwt>
<pdfrwt beam="1">  1       21 0.11123768E+00 0.11272070E+04</pdfrwt>
<pdfrwt beam="2">  1       21 0.26677265E+00 0.11272070E+04</pdfrwt>
<totfact> 0.13415474E+01</totfact>
</mgrwt>
</event>
<event>
 8    1  0.5815007E-006  0.1105448E+04  0.7818608E-02  0.8693750E-01
         21   -1    0    0  503  502  0.00000000000E+00  0.00000000000E+00  0.17067431565E+04  0.17067431565E+04  0.00000000000E+00 0.  1.
         21   -1    0    0  501  503 -0.00000000000E+00 -0.00000000000E+00 -0.69533116651E+03  0.69533116651E+03  0.00000000000E+00 0.  1.
    9000010    2    1    2  501    0  0.26448769295E+03  0.38781118363E+03  0.70276480005E+03  0.13099215015E+04  0.10008320148E+04 0.  0.
   -9000010    2    1    2    0  502 -0.26448769295E+03 -0.38781118363E+03  0.30864718990E+03  0.10921528215E+04  0.93658071933E+03 0.  0.
        -13    1    3    3    0    0  0.23755068074E+03  0.15175070710E+03  0.93567252425E+03  0.97721117822E+03  0.10566000000E+00 0.  1.
          4    1    3    3  501    0  0.26937012211E+02  0.23606047653E+03 -0.23290772420E+03  0.33271032325E+03  0.00000000000E+00 0.  1.
         13    1    4    4    0    0  0.32498843704E+03 -0.29753395507E+03  0.54755275685E+02  0.44400685806E+03  0.10566000000E+00 0. -1.
         -4    1    4    4    0  502 -0.58947612999E+03 -0.90277228566E+02  0.25389191422E+03  0.64814596345E+03  0.00000000000E+00 0. -1.
<mgrwt>
<rscale>  2 0.10907020E+04</rscale>
<asrwt>0</asrwt>
<pdfrwt beam="1">  1       21 0.26257587E+00 0.11054483E+04</pdfrwt>
<pdfrwt beam="2">  1       21 0.10697403E+00 0.11054483E+04</pdfrwt>
<totfact> 0.16056917E+01</totfact>
</mgrwt>
</event>
<event>
 8    1  0.5815007E-006  0.1196722E+04  0.7818608E-02  0.8611977E-01
         21   -1    0    0  501  502  0.00000000000E+00  0.00000000000E+00  0.19157230459E+04  0.19157230459E+04  0.00000000000E+00 0. -1.
         21   -1    0    0  502  503 -0.00000000000E+00 -0.00000000000E+00 -0.14730728480E+04  0.14730728480E+04  0.00000000000E+00 0. -1.
   -9000010    2    1    2    0  503 -0.56846602179E+03  0.31414082755E+03 -0.97636166313E+03  0.15325259931E+04  0.98666901484E+03 0.  0.
    9000010    2    1    2  501    0  0.56846602179E+03 -0.31414082755E+03  0.14190118610E+04  0.18562699007E+04  0.10051393959E+04 0.  0.
        -13    1    4    4    0    0  0.19986168129E+03 -0.65849560587E+03  0.89422614491E+03  0.11283623372E+04  0.10566000000E+00 0.  1.
          4    1    4    4  501    0  0.36860434050E+03  0.34435477832E+03  0.52478571613E+03  0.72790756353E+03  0.00000000000E+00 0.  1.
         13    1    3    3    0    0 -0.30291660860E+03  0.45299462008E+03 -0.36629536552E+02  0.54617243770E+03  0.10566000000E+00 0. -1.
         -4    1    3    3    0  503 -0.26554941319E+03 -0.13885379253E+03 -0.93973212657E+03  0.98635355541E+03  0.00000000000E+00 0. -1.
<mgrwt>
<rscale>  2 0.11928353E+04</rscale>
<asrwt>0</asrwt>
<pdfrwt beam="1">  1       21 0.29472662E+00 0.11967219E+04</pdfrwt>
<pdfrwt beam="2">  1       21 0.22662659E+00 0.11967219E+04</pdfrwt>
<totfact> 0.84474920E-01</totfact>
</mgrwt>
</event>
<event>
 8    1  0.5815007E-006  0.1099257E+04  0.7818608E-02  0.8692190E-01
         21   -1    0    0  503  502  0.00000000000E+00  0.00000000000E+00  0.17244638331E+04  0.17244638331E+04  0.00000000000E+00 0.  1.
         21   -1    0    0  501  503 -0.00000000000E+00 -0.00000000000E+00 -0.70251209076E+03  0.70251209076E+03  0.00000000000E+00 0.  1.
    9000010    2    1    2  501    0  0.10794485500E+02 -0.40781590354E+03  0.71471605596E+03  0.13111772412E+04  0.10207528522E+04 0.  0.
   -9000010    2    1    2    0  502 -0.10794485500E+02  0.40781590354E+03  0.30723568634E+03  0.11157986826E+04  0.99205977694E+03 0.  0.
        -13    1    3    3    0    0  0.17181552351E+03 -0.71218343700E+03  0.60395063553E+03  0.94946416645E+03  0.10566000000E+00 0.  1.
          4    1    3    3  501    0 -0.16102103801E+03  0.30436753346E+03  0.11076542042E+03  0.36171307478E+03  0.00000000000E+00 0.  1.
         13    1    4    4    0    0  0.74047420300E+02 -0.21528237648E+03 -0.20374646727E+03  0.30551948574E+03  0.10566000000E+00 0. -1.
         -4    1    4    4    0  502 -0.84841905800E+02  0.62309828002E+03  0.51098215361E+03  0.81027919686E+03  0.00000000000E+00 0. -1.
<mgrwt>
<rscale>  2 0.10925484E+04</rscale>
<asrwt>0</asrwt>
<pdfrwt beam="1">  1       21 0.26530213E+00 0.10992573E+04</pdfrwt>
<pdfrwt beam="2">  1       21 0.10807878E+00 0.10992573E+04</pdfrwt>
<totfact> 0.14950349E+01</totfact>
</mgrwt>
</event>
<event>
 8    1  0.5815007E-006  0.1162894E+04  0.7818608E-02  0.8641144E-01
         21   -1    0    0  501  502  0.00000000000E+00  0.00000000000E+00  0.17815324873E+04  0.17815324873E+04  0.00000000000E+00 0.  1.
         21   -1    0    0  502  503 -0.00000000000E+00 -0.00000000000E+00 -0.74138519487E+03  0.74138519487E+03  0.00000000000E+00 0.  1.
   -9000010    2    1    2    0  503 -0.60875632275E+03  0.63609925174E+01  0.45737165406E+03  0.12496042083E+04  0.99080630029E+03 0.  0.
    9000010    2    1    2  501    0  0.60875632275E+03 -0.63609925174E+01  0.58277563837E+03  0.12733134739E+04  0.95450250676E+03 0.  0.
        -13    1    4    4    0    0  0.74693182576E+03 -0.15017168658E+02  0.74838605536E+03  0.10574565555E+04  0.10566000000E+00 0.  1.
          4    1    4    4  501    0 -0.13817550300E+03  0.86561761401E+01 -0.16561041699E+03  0.21585691843E+03  0.00000000000E+00 0.  1.
         13    1    3    3    0    0 -0.69172533032E+03 -0.36295472637E+03  0.26414580168E+03  0.82461693028E+03  0.10566000000E+00 0. -1.
         -4    1    3    3    0  503  0.82969007564E+02  0.36931571889E+03  0.19322585238E+03  0.42498727800E+03  0.00000000000E+00 0. -1.
<mgrwt>
<rscale>  2 0.11551232E+04</rscale>
<asrwt>0</asrwt>
<pdfrwt beam="1">  1       21 0.27408192E+00 0.11628937E+04</pdfrwt>
<pdfrwt beam="2">  1       21 0.11405926E+00 0.11628937E+04</pdfrwt>
<totfact> 0.11018128E+01</totfact>
</mgrwt>
</event>
<event>
 8    1  0.5815007E-006  0.1057080E+04  0.7818608E-02  0.8730980E-01
         21   -1    0    0  503  502  0.00000000000E+00  0.00000000000E+00  0.18169453373E+04  0.18169453373E+04  0.00000000000E+00 0.  1.
         21   -1    0    0  501  503 -0.00000000000E+00 -0.00000000000E+00 -0.59708013687E+03  0.59708013687E+03  0.00000000000E+00 0.  1.
    9000010    2    1    2  501    0 -0.32032744045E+03 -0.69657594144E+02  0.71087734373E+03  0.12738781521E+04  0.10049662178E+04 0.  0.
   -9000010    2    1    2    0  502  0.32032744045E+03  0.69657594144E+02  0.50898785668E+03  0.11401473221E+04  0.96612909505E+03 0.  0.
        -13    1    3    3    0    0 -0.57754610714E+03 -0.21032129344E+03  0.75912867134E+03  0.97676553131E+03  0.10566000000E+00 0.  1.
          4    1    3    3  501    0  0.25721866668E+03  0.14066369930E+03 -0.48251327612E+02  0.29711262075E+03  0.00000000000E+00 0.  1.
         13    1    4    4    0    0  0.41780164770E+02 -0.28664168229E+03 -0.16130131799E+03  0.33155265425E+03  0.10566000000E+00 0. -1.
         -4    1    4    4    0  502  0.27854727568E+03  0.35629927643E+03  0.67028917467E+03  0.80859466784E+03  0.00000000000E+00 0. -1.
<mgrwt>
<rscale>  2 0.10477446E+04</rscale>
<asrwt>0</asrwt>
<pdfrwt beam="1">  1       21 0.27953005E+00 0.10570804E+04</pdfrwt>
<pdfrwt beam="2">  1       21 0.91858483E-01 0.10570804E+04</pdfrwt>
<totfact> 0.18256151E+01</totfact>
</mgrwt>
</event>
<event>
 8    1  0.5815007E-006  0.1145519E+04  0.7818608E-02  0.8650426E-01
         21   -1    0    0  501  502  0.00000000000E+00  0.00000000000E+00  0.15811894546E+04  0.15811894546E+04  0.00000000000E+00 0. -1.
         21   -1    0    0  502  503 -0.00000000000E+00 -0.00000000000E+00 -0.83306513979E+03  0.83306513979E+03  0.00000000000E+00 0. -1.
   -9000010    2    1    2    0  503 -0.49832232986E+03  0.25014507786E+03  0.24849389709E+03  0.11721621119E+04  0.10006583309E+04 0.  0.
    9000010    2    1    2  501    0  0.49832232986E+03 -0.25014507786E+03  0.49963041774E+03  0.12420924825E+04  0.99109307152E+03 0.  0.
        -13    1    4    4    0    0  0.78924976954E+03 -0.29184693937E+03  0.33937726814E+03  0.90734049619E+03  0.10566000000E+00 0.  1.
          4    1    4    4  501    0 -0.29092743967E+03  0.41701861509E+02  0.16025314959E+03  0.33475198634E+03  0.00000000000E+00 0.  1.
         13    1    3    3    0    0  0.30303676469E+03 -0.46812753528E+01  0.92870687910E+02  0.31698291898E+03  0.10566000000E+00 0. -1.
         -4    1    3    3    0  503 -0.80135909455E+03  0.25482635321E+03  0.15562320918E+03  0.85517919289E+03  0.00000000000E+00 0. -1.
<mgrwt>
<rscale>  2 0.11434272E+04</rscale>
<asrwt>0</asrwt>
<pdfrwt beam="1">  1       21 0.24325992E+00 0.11455194E+04</pdfrwt>
<pdfrwt beam="2">  1       21 0.12816387E+00 0.11455194E+04</pdfrwt>
<totfact> 0.13313953E+01</totfact>
</mgrwt>
</event>
<event>
 8    1  0.5815007E-006  0.1203481E+04  0.7818608E-02  0.8604832E-01
         21   -1    0    0  501  502  0.00000000000E+00  0.00000000000E+00  0.18618159729E+04  0.18618159729E+04  0.00000000000E+00 0.  1.
         21   -1    0    0  502  503 -0.00000000000E+00 -0.00000000000E+00 -0.78087944235E+03  0.78087944235E+03  0.00000000000E+00 0.  1.
   -9000010    2    1    2    0  503  0.63453823336E+03  0.19773725614E+03  0.42365041904E+03  0.12714214352E+04  0.99764422328E+03 0.  0.
    9000010    2    1    2  501    0 -0.63453823336E+03 -0.19773725614E+03  0.65728611153E+03  0.13712739801E+04  0.10033087780E+04 0.  0.
        -13    1    4    4    0    0 -0.32888510998E+03 -0.25941145545E+03  0.88903315650E+03  0.98277142984E+03  0.10566000000E+00 0.  1.
          4    1    4    4  501    0 -0.30565312338E+03  0.61674199318E+02 -0.23174704497E+03  0.38850255024E+03  0.00000000000E+00 0.  1.
         13    1    3    3    0    0  0.73079652003E+03 -0.10469828426E+03 -0.47347362100E+01  0.73827346784E+03  0.10566000000E+00 0. -1.
         -4    1    3    3    0  503 -0.96258286675E+02  0.30243554040E+03  0.42838515525E+03  0.53314796735E+03  0.00000000000E+00 0. -1.
<mgrwt>
<rscale>  2 0.12023000E+04</rscale>
<asrwt>0</asrwt>
<pdfrwt beam="1">  1       21 0.28643323E+00 0.12034813E+04</pdfrwt>
<pdfrwt beam="2">  1       21 0.12013530E+00 0.12034813E+04</pdfrwt>
<totfact> 0.77241833E+00</totfact>
</mgrwt>
</event>
<event>
 8    1  0.5815007E-006  0.1193333E+04  0.7818608E-02  0.8614854E-01
         21   -1    0    0  501  502  0.00000000000E+00  0.00000000000E+00  0.10106104165E+04  0.10106104165E+04  0.00000000000E+00 0.  1.
         21   -1    0    0  502  503 -0.00000000000E+00 -0.00000000000E+00 -0.15165917386E+04  0.15165917386E+04  0.00000000000E+00 0.  1.
   -9000010    2    1    2    0  503  0.64372367355E+03 -0.91711820315E+02 -0.61776919477E+03  0.13286443425E+04  0.98023761659E+03 0.  0.
    9000010    2    1    2  501    0 -0.64372367355E+03  0.91711820315E+02  0.11178787261E+03  0.11985578126E+04  0.10006263418E+04 0.  0.
        -13    1    4    4    0    0 -0.66662630715E+03  0.39158620933E+03 -0.16419311366E+03  0.79037319189E+03  0.10566000000E+00 0.  1.
          4    1    4    4  501    0  0.22902633595E+02 -0.29987438902E+03  0.27598098626E+03  0.40818462072E+03  0.00000000000E+00 0.  1.
         13    1    3    3    0    0  0.23970522726E+02 -0.45452221067E+03 -0.28618250090E+03  0.53764808280E+03  0.10566000000E+00 0. -1.
         -4    1    3    3    0  503  0.61975315083E+03  0.36281039036E+03 -0.33158669386E+03  0.79099625970E+03  0.00000000000E+00 0. -1.
<mgrwt>
<rscale>  2 0.11890493E+04</rscale>
<asrwt>0</asrwt>
<pdfrwt beam="1">  1       21 0.15547853E+00 0.11933333E+04</pdfrwt>
<pdfrwt beam="2">  1       21 0.23332181E+00 0.11933333E+04</pdfrwt>
<totfact> 0.87343116E+00</totfact>
</mgrwt>
</event>
<event>
 8    1  0.5815007E-006  0.1057759E+04  0.7818608E-02  0.8772473E-01
         21   -1    0    0  503  502  0.00000000000E+00  0.00000000000E+00  0.90029043639E+03  0.90029043639E+03  0.00000000000E+00 0. -1.
         21   -1    0    0  501  503 -0.00000000000E+00 -0.00000000000E+00 -0.10138141289E+04  0.10138141289E+04  0.00000000000E+00 0. -1.
    9000010    2    1    2  501    0 -0.25270912436E+03  0.12415194698E+03 -0.68894965315E+02  0.85540475203E+03  0.80479510813E+03 0.  0.
   -9000010    2    1    2    0  502  0.25270912436E+03 -0.12415194698E+03 -0.44628727165E+02  0.10586998132E+04  0.10195969614E+04 0.  0.
        -13    1    3    3    0    0  0.14777716247E+03  0.32731019984E+03 -0.16651199611E+03  0.39584885080E+03  0.10566000000E+00 0.  1.
          4    1    3    3  501    0 -0.40048628683E+03 -0.20315825287E+03  0.97617030796E+02  0.45955590122E+03  0.00000000000E+00 0.  1.
         13    1    4    4    0    0  0.21036240717E+03 -0.11769812709E+03 -0.52433249408E+03  0.57708731314E+03  0.10566000000E+00 0. -1.
         -4    1    4    4    0  502  0.42346717196E+02 -0.64538198883E+01  0.47970376692E+03  0.48161250009E+03  0.00000000000E+00 0. -1.
<mgrwt>
<rscale>  2 0.10022581E+04</rscale>
<asrwt>0</asrwt>
<pdfrwt beam="1">  1       21 0.13850622E+00 0.10577587E+04</pdfrwt>
<pdfrwt beam="2">  1       21 0.15597140E+00 0.10577587E+04</pdfrwt>
<totfact> 0.52785755E+01</totfact>
</mgrwt>
</event>
<event>
 8    1  0.5815007E-006  0.1095422E+04  0.7818608E-02  0.8693255E-01
         21   -1    0    0  501  502  0.00000000000E+00  0.00000000000E+00  0.23937807781E+04  0.23937807781E+04  0.00000000000E+00 0. -1.
         21   -1    0    0  502  503 -0.00000000000E+00 -0.00000000000E+00 -0.53895005468E+03  0.53895005468E+03  0.00000000000E+00 0. -1.
   -9000010    2    1    2    0  503 -0.38412830553E+03  0.15086165995E+03  0.50933758033E+03  0.12080456000E+04  0.10147096163E+04 0.  0.
    9000010    2    1    2  501    0  0.38412830553E+03 -0.15086165995E+03  0.13454931431E+04  0.17246852328E+04  0.99693207311E+03 0.  0.
        -13    1    4    4    0    0  0.38843836295E+03  0.37484713492E+03  0.81708561473E+03  0.97929752850E+03  0.10566000000E+00 0.  1.
          4    1    4    4  501    0 -0.43100574203E+01 -0.52570879488E+03  0.52840752838E+03  0.74538770426E+03  0.00000000000E+00 0.  1.
         13    1    3    3    0    0 -0.15433023185E+03 -0.13155359842E+03  0.74647794592E+03  0.77353313092E+03  0.10566000000E+00 0. -1.
         -4    1    3    3    0  503 -0.22979807368E+03  0.28241525838E+03 -0.23714036558E+03  0.43451246912E+03  0.00000000000E+00 0. -1.
<mgrwt>
<rscale>  2 0.10912869E+04</rscale>
<asrwt>0</asrwt>
<pdfrwt beam="1">  1       21 0.36827396E+00 0.10954220E+04</pdfrwt>
<pdfrwt beam="2">  1       21 0.82915394E-01 0.10954220E+04</pdfrwt>
<totfact> 0.55700622E+00</totfact>
</mgrwt>
</event>
<event>
 8    1  0.5815007E-006  0.1066321E+04  0.7818608E-02  0.8720127E-01
         21   -1    0    0  503  502  0.00000000000E+00  0.00000000000E+00  0.79105383053E+03  0.79105383053E+03  0.00000000000E+00 0. -1.
         21   -1    0    0  501  503 -0.00000000000E+00 -0.00000000000E+00 -0.14044948911E+04  0.14044948911E+04  0.00000000000E+00 0. -1.
    9000010    2    1    2  501    0 -0.29813138993E+03  0.14620704741E+03 -0.32972308824E+03  0.11161355147E+04  0.10133026922E+04 0.  0.
   -9000010    2    1    2    0  502  0.29813138993E+03 -0.14620704741E+03 -0.28371797234E+03  0.10794132069E+04  0.98710595028E+03 0.  0.
        -13    1    3    3    0    0 -0.61178577976E+03  0.24105834801E+03 -0.41495907197E+03  0.77754871875E+03  0.10566000000E+00 0.  1.
          4    1    3    3  501    0  0.31365438983E+03 -0.94851300605E+02  0.85235983724E+02  0.33858679597E+03  0.00000000000E+00 0.  1.
         13    1    4    4    0    0  0.21385794160E+03 -0.42923194477E+03  0.19439096712E+03  0.51745834698E+03  0.10566000000E+00 0. -1.
         -4    1    4    4    0  502  0.84273448327E+02  0.28302489736E+03 -0.47810893946E+03  0.56195485994E+03  0.00000000000E+00 0. -1.
<mgrwt>
<rscale>  2 0.10600507E+04</rscale>
<asrwt>0</asrwt>
<pdfrwt beam="1">  1       21 0.12170059E+00 0.10663213E+04</pdfrwt>
<pdfrwt beam="2">  1       21 0.21607614E+00 0.10663213E+04</pdfrwt>
<totfact> 0.25009069E+01</totfact>
</mgrwt>
</event>
<event>
 8    1  0.5815007E-006  0.1178056E+04  0.7818608E-02  0.8632537E-01
         21   -1    0    0  501  502  0.00000000000E+00  0.00000000000E+00  0.15581504183E+04  0.15581504183E+04  0.00000000000E+00 0. -1.
         21   -1    0    0  502  503 -0.00000000000E+00 -0.00000000000E+00 -0.85707035650E+03  0.85707035650E+03  0.00000000000E+00 0. -1.
   -9000010    2    1    2    0  503 -0.19783906620E+03 -0.57374990399E+03  0.30478412831E+03  0.12168441035E+04  0.10096964687E+04 0.  0.
    9000010    2    1    2  501    0  0.19783906620E+03  0.57374990399E+03  0.39629593351E+03  0.11983766713E+04  0.95432014069E+03 0.  0.
        -13    1    4    4    0    0 -0.13961307943E+03  0.11594859759E+03 -0.26813433506E+03  0.32377758111E+03  0.10566000000E+00 0.  1.
          4    1    4    4  501    0  0.33745214564E+03  0.45780130640E+03  0.66443026857E+03  0.87459909017E+03  0.00000000000E+00 0.  1.
         13    1    3    3    0    0  0.25066717664E+03 -0.30226335982E+03  0.51872910776E+03  0.65059747197E+03  0.10566000000E+00 0. -1.
         -4    1    3    3    0  503 -0.44850624284E+03 -0.27148654417E+03 -0.21394497944E+03  0.56624663157E+03  0.00000000000E+00 0. -1.
<mgrwt>
<rscale>  2 0.11660997E+04</rscale>
<asrwt>0</asrwt>
<pdfrwt beam="1">  1       21 0.23971545E+00 0.11780561E+04</pdfrwt>
<pdfrwt beam="2">  1       21 0.13185698E+00 0.11780561E+04</pdfrwt>
<totfact> 0.12933766E+01</totfact>
</mgrwt>
</event>
<event>
 8    1  0.5815007E-006  0.1023732E+04  0.7818608E-02  0.8754239E-01
         21   -1    0    0  503  502  0.00000000000E+00  0.00000000000E+00  0.14711712064E+04  0.14711712064E+04  0.00000000000E+00 0. -1.
         21   -1    0    0  501  503 -0.00000000000E+00 -0.00000000000E+00 -0.73340162892E+03  0.73340162892E+03  0.00000000000E+00 0. -1.
    9000010    2    1    2  501    0 -0.32975498276E+02  0.14883942426E+03  0.16270220422E+03  0.10365800645E+04  0.10123169786E+04 0.  0.
   -9000010    2    1    2    0  502  0.32975498276E+02 -0.14883942426E+03  0.57506737328E+03  0.11679927709E+04  0.10051189339E+04 0.  0.
        -13    1    3    3    0    0  0.28075837370E+03 -0.24235780508E+03  0.34152809480E+03  0.50418649405E+03  0.10566000000E+00 0.  1.
          4    1    3    3  501    0 -0.31373387198E+03  0.39119722933E+03 -0.17882589057E+03  0.53239357040E+03  0.00000000000E+00 0.  1.
         13    1    4    4    0    0 -0.28918600615E+03  0.92171950840E+02 -0.15016389249E+03  0.33863464154E+03  0.10566000000E+00 0. -1.
         -4    1    4    4    0  502  0.32216150443E+03 -0.24101137510E+03  0.72523126578E+03  0.82935812935E+03  0.00000000000E+00 0. -1.
<mgrwt>
<rscale>  2 0.10219476E+04</rscale>
<asrwt>0</asrwt>
<pdfrwt beam="1">  1       21 0.22633403E+00 0.10237315E+04</pdfrwt>
<pdfrwt beam="2">  1       21 0.11283102E+00 0.10237315E+04</pdfrwt>
<totfact> 0.26065909E+01</totfact>
</mgrwt>
</event>
<event>
 8    1  0.5815007E-006  0.1380295E+04  0.7818608E-02  0.8482024E-01
         21   -1    0    0  501  502  0.00000000000E+00  0.00000000000E+00  0.19616775612E+04  0.19616775612E+04  0.00000000000E+00 0. -1.
         21   -1    0    0  502  503 -0.00000000000E+00 -0.00000000000E+00 -0.12977060534E+04  0.12977060534E+04  0.00000000000E+00 0. -1.
   -9000010    2    1    2    0  503 -0.83323621310E+03 -0.43189850728E+03 -0.48603190370E+03  0.14633661991E+04  0.10121238629E+04 0.  0.
    9000010    2    1    2  501    0  0.83323621310E+03  0.43189850728E+03  0.11500034115E+04  0.17960174155E+04  0.10111141395E+04 0.  0.
        -13    1    4    4    0    0  0.13616544051E+03 -0.20767426026E+03  0.71095306428E+03  0.75307628852E+03  0.10566000000E+00 0.  1.
          4    1    4    4  501    0  0.69707077259E+03  0.63957276754E+03  0.43905034718E+03  0.10429411270E+04  0.00000000000E+00 0.  1.
         13    1    3    3    0    0 -0.60962345177E+03  0.17625044370E+01  0.18191713943E+03  0.63619000004E+03  0.10566000000E+00 0. -1.
         -4    1    3    3    0  503 -0.22361276133E+03 -0.43366101171E+03 -0.66794904313E+03  0.82717619908E+03  0.00000000000E+00 0. -1.
<mgrwt>
<rscale>  2 0.13801097E+04</rscale>
<asrwt>0</asrwt>
<pdfrwt beam="1">  1       21 0.30179655E+00 0.13802948E+04</pdfrwt>
<pdfrwt beam="2">  1       21 0.19964708E+00 0.13802948E+04</pdfrwt>
<totfact> 0.11636160E+00</totfact>
</mgrwt>
</event>
<event>
 8    1  0.5815007E-006  0.1130605E+04  0.7818608E-02  0.8661744E-01
         21   -1    0    0  503  502  0.00000000000E+00  0.00000000000E+00  0.80559335999E+03  0.80559335999E+03  0.00000000000E+00 0. -1.
         21   -1    0    0  501  503 -0.00000000000E+00 -0.00000000000E+00 -0.15834243895E+04  0.15834243895E+04  0.00000000000E+00 0. -1.
    9000010    2    1    2  501    0  0.53916407826E+03 -0.77008422222E+02 -0.33063166284E+03  0.11731824900E+04  0.98509474575E+03 0.  0.
   -9000010    2    1    2    0  502 -0.53916407826E+03  0.77008422222E+02 -0.44719936668E+03  0.12158352594E+04  0.99077742413E+03 0.  0.
        -13    1    3    3    0    0  0.32475681875E+03  0.35796686409E+03 -0.46423765125E+03  0.67016705016E+03  0.10566000000E+00 0.  1.
          4    1    3    3  501    0  0.21440725951E+03 -0.43497528631E+03  0.13360598841E+03  0.50301543989E+03  0.00000000000E+00 0.  1.
         13    1    4    4    0    0 -0.61120834047E+03  0.42372849344E+03 -0.16203935921E+03  0.76116899353E+03  0.10566000000E+00 0. -1.
         -4    1    4    4    0  502  0.72044262206E+02 -0.34672007122E+03 -0.28516000746E+03  0.45466626591E+03  0.00000000000E+00 0. -1.
<mgrwt>
<rscale>  2 0.11293590E+04</rscale>
<asrwt>0</asrwt>
<pdfrwt beam="1">  1       21 0.12393744E+00 0.11306052E+04</pdfrwt>
<pdfrwt beam="2">  1       21 0.24360375E+00 0.11306052E+04</pdfrwt>
<totfact> 0.14615070E+01</totfact>
</mgrwt>
</event>
<event>
 8    1  0.5815007E-006  0.1492843E+04  0.7818608E-02  0.8419000E-01
         21   -1    0    0  503  502  0.00000000000E+00  0.00000000000E+00  0.33778272613E+04  0.33778272613E+04  0.00000000000E+00 0. -1.
         21   -1    0    0  501  503 -0.00000000000E+00 -0.00000000000E+00 -0.65196332895E+03  0.65196332895E+03  0.00000000000E+00 0.  1.
    9000010    2    1    2  501    0 -0.10558095659E+04 -0.85980561727E+02  0.11525415652E+04  0.18859827863E+04  0.10518804657E+04 0.  0.
   -9000010    2    1    2    0  502  0.10558095659E+04  0.85980561727E+02  0.15733223671E+04  0.21438078040E+04  0.99922076299E+03 0.  0.
        -13    1    3    3    0    0 -0.11058689623E+04 -0.11174339110E+03  0.13104455395E+04  0.17183423030E+04  0.10566000000E+00 0.  1.
          4    1    3    3  501    0  0.50059396386E+02  0.25762829376E+02 -0.15790397424E+03  0.16764048325E+03  0.00000000000E+00 0.  1.
         13    1    4    4    0    0  0.59607623850E+03  0.53066730522E+03  0.70169428428E+03  0.10626803615E+04  0.10566000000E+00 0. -1.
         -4    1    4    4    0  502  0.45973332739E+03 -0.44468674350E+03  0.87162808286E+03  0.10811274425E+04  0.00000000000E+00 0. -1.
<mgrwt>
<rscale>  2 0.14836008E+04</rscale>
<asrwt>0</asrwt>
<pdfrwt beam="1">  1       21 0.51966572E+00 0.14928426E+04</pdfrwt>
<pdfrwt beam="2">  1       21 0.10030205E+00 0.14928426E+04</pdfrwt>
<totfact> 0.28042666E-01</totfact>
</mgrwt>
</event>
<event>
 8    1  0.5815007E-006  0.1217692E+04  0.7818608E-02  0.8595708E-01
         21   -1    0    0  501  502  0.00000000000E+00  0.00000000000E+00  0.15835714646E+04  0.15835714646E+04  0.00000000000E+00 0.  1.
         21   -1    0    0  502  503 -0.00000000000E+00 -0.00000000000E+00 -0.94335295124E+03  0.94335295124E+03  0.00000000000E+00 0.  1.
   -9000010    2    1    2    0  503 -0.65845594501E+03 -0.14282056755E+03  0.15036526263E+03  0.12143962265E+04  0.99909285687E+03 0.  0.
    9000010    2    1    2  501    0  0.65845594501E+03  0.14282056755E+03  0.48985325073E+03  0.13125281894E+04  0.10143037487E+04 0.  0.
        -13    1    4    4    0    0 -0.28601194883E+02 -0.92631171034E+02 -0.25462981377E+03  0.27246085117E+03  0.10566000000E+00 0.  1.
          4    1    4    4  501    0  0.68705713989E+03  0.23545173858E+03  0.74448306450E+03  0.10400673382E+04  0.00000000000E+00 0.  1.
         13    1    3    3    0    0 -0.16802771808E+03  0.89182445653E+02  0.52279698072E+03  0.55633040261E+03  0.10566000000E+00 0. -1.
         -4    1    3    3    0  503 -0.49042822693E+03 -0.23200301320E+03 -0.37243171809E+03  0.65806582387E+03  0.00000000000E+00 0. -1.
<mgrwt>
<rscale>  2 0.12145195E+04</rscale>
<asrwt>0</asrwt>
<pdfrwt beam="1">  1       21 0.24362638E+00 0.12176921E+04</pdfrwt>
<pdfrwt beam="2">  1       21 0.14513122E+00 0.12176921E+04</pdfrwt>
<totfact> 0.90273822E+00</totfact>
</mgrwt>
</event>
<event>
 8    1  0.5815007E-006  0.1109915E+04  0.7818608E-02  0.8680455E-01
         21   -1    0    0  501  502  0.00000000000E+00  0.00000000000E+00  0.36825085993E+03  0.36825085993E+03  0.00000000000E+00 0.  1.
         21   -1    0    0  502  503 -0.00000000000E+00 -0.00000000000E+00 -0.33160282012E+04  0.33160282012E+04  0.00000000000E+00 0.  1.
   -9000010    2    1    2    0  503 -0.37111945005E+02 -0.45507378959E+03 -0.13595789841E+04  0.17466810074E+04  0.99698047987E+03 0.  0.
    9000010    2    1    2  501    0  0.37111945005E+02  0.45507378959E+03 -0.15881983572E+04  0.19375980537E+04  0.10116534711E+04 0.  0.
        -13    1    4    4    0    0  0.49032952927E+03  0.43583802235E+03 -0.95941238117E+03  0.11622607097E+04  0.10566000000E+00 0.  1.
          4    1    4    4  501    0 -0.45321758426E+03  0.19235767242E+02 -0.62878597601E+03  0.77533734404E+03  0.00000000000E+00 0.  1.
         13    1    3    3    0    0 -0.20585080312E+03 -0.65891688996E+02 -0.13005707433E+04  0.13184083348E+04  0.10566000000E+00 0. -1.
         -4    1    3    3    0  503  0.16873885811E+03 -0.38918210060E+03 -0.59008240864E+02  0.42827267266E+03  0.00000000000E+00 0. -1.
<mgrwt>
<rscale>  2 0.11065609E+04</rscale>
<asrwt>0</asrwt>
<pdfrwt beam="1">  1       21 0.56653979E-01 0.11099154E+04</pdfrwt>
<pdfrwt beam="2">  1       21 0.51015818E+00 0.11099154E+04</pdfrwt>
<totfact> 0.14093792E+00</totfact>
</mgrwt>
</event>
<event>
 8    1  0.5815007E-006  0.1104936E+04  0.7818608E-02  0.8687323E-01
         21   -1    0    0  503  502  0.00000000000E+00  0.00000000000E+00  0.10832973076E+04  0.10832973076E+04  0.00000000000E+00 0.  1.
         21   -1    0    0  501  503 -0.00000000000E+00 -0.00000000000E+00 -0.11009487024E+04  0.11009487024E+04  0.00000000000E+00 0.  1.
    9000010    2    1    2  501    0 -0.78696450237E+02 -0.39417694417E+03 -0.31744911064E+02  0.11053915177E+04  0.10292298448E+04 0.  0.
   -9000010    2    1    2    0  502  0.78696450237E+02  0.39417694417E+03  0.14093516271E+02  0.10788544923E+04  0.10010793144E+04 0.  0.
        -13    1    3    3    0    0  0.41301005485E+03  0.25874924296E+02 -0.16430846755E+03  0.44524611260E+03  0.10566000000E+00 0.  1.
          4    1    3    3  501    0 -0.49170650509E+03 -0.42005186847E+03  0.13256355649E+03  0.66014540509E+03  0.00000000000E+00 0.  1.
         13    1    4    4    0    0 -0.21916028262E+03  0.73716982498E+01  0.40025896994E+03  0.45639108842E+03  0.10566000000E+00 0. -1.
         -4    1    4    4    0  502  0.29785673285E+03  0.38680524592E+03 -0.38616545367E+03  0.62246340389E+03  0.00000000000E+00 0. -1.
<mgrwt>
<rscale>  2 0.10983334E+04</rscale>
<asrwt>0</asrwt>
<pdfrwt beam="1">  1       21 0.16666112E+00 0.11049356E+04</pdfrwt>
<pdfrwt beam="2">  1       21 0.16937672E+00 0.11049356E+04</pdfrwt>
<totfact> 0.22589078E+01</totfact>
</mgrwt>
</event>
<event>
 8    1  0.5815007E-006  0.1032017E+04  0.7818608E-02  0.8752019E-01
         21   -1    0    0  501  502  0.00000000000E+00  0.00000000000E+00  0.14285586334E+04  0.14285586334E+04  0.00000000000E+00 0. -1.
         21   -1    0    0  502  503 -0.00000000000E+00 -0.00000000000E+00 -0.72418534378E+03  0.72418534378E+03  0.00000000000E+00 0. -1.
   -9000010    2    1    2    0  503  0.15931760562E+03  0.11083803526E+03  0.32466995092E+03  0.10530925209E+04  0.98281540029E+03 0.  0.
    9000010    2    1    2  501    0 -0.15931760562E+03 -0.11083803526E+03  0.37970333870E+03  0.10996514563E+04  0.10136032411E+04 0.  0.
        -13    1    4    4    0    0  0.54547770434E+02 -0.27486516122E+03  0.65619702107E+03  0.71352705467E+03  0.10566000000E+00 0.  1.
          4    1    4    4  501    0 -0.21386537606E+03  0.16402712596E+03 -0.27649368237E+03  0.38612440161E+03  0.00000000000E+00 0.  1.
         13    1    3    3    0    0  0.19427004829E+03 -0.18952358630E+02  0.66188986223E+03  0.69007118796E+03  0.10566000000E+00 0. -1.
         -4    1    3    3    0  503 -0.34952442669E+02  0.12979039389E+03 -0.33721991131E+03  0.36302133295E+03  0.00000000000E+00 0. -1.
<mgrwt>
<rscale>  2 0.10243769E+04</rscale>
<asrwt>0</asrwt>
<pdfrwt beam="1">  1       21 0.21977825E+00 0.10320168E+04</pdfrwt>
<pdfrwt beam="2">  1       21 0.11141313E+00 0.10320168E+04</pdfrwt>
<totfact> 0.30163484E+01</totfact>
</mgrwt>
</event>
<event>
 8    1  0.5815007E-006  0.1426437E+04  0.7818608E-02  0.8460539E-01
         21   -1    0    0  503  502  0.00000000000E+00  0.00000000000E+00  0.21130523464E+04  0.21130523464E+04  0.00000000000E+00 0. -1.
         21   -1    0    0  501  503 -0.00000000000E+00 -0.00000000000E+00 -0.94158467419E+03  0.94158467419E+03  0.00000000000E+00 0. -1.
    9000010    2    1    2  501    0  0.74670185747E+03  0.59517883998E+03  0.75692199094E+03  0.16148226733E+04  0.10596791262E+04 0.  0.
   -9000010    2    1    2    0  502 -0.74670185747E+03 -0.59517883998E+03  0.41454568131E+03  0.14398143473E+04  0.99469378067E+03 0.  0.
        -13    1    3    3    0    0  0.57167978095E+03  0.54567692083E+03 -0.45917418167E+02  0.79163722394E+03  0.10566000000E+00 0.  1.
          4    1    3    3  501    0  0.17502207652E+03  0.49501919151E+02  0.80283940910E+03  0.82318544939E+03  0.00000000000E+00 0.  1.
         13    1    4    4    0    0  0.47228564011E+02 -0.25005445282E+03 -0.24365192685E+03  0.35231241712E+03  0.10566000000E+00 0. -1.
         -4    1    4    4    0  502 -0.79393042148E+03 -0.34512438716E+03  0.65819760816E+03  0.10875019302E+04  0.00000000000E+00 0. -1.
<mgrwt>
<rscale>  2 0.14143872E+04</rscale>
<asrwt>0</asrwt>
<pdfrwt beam="1">  1       21 0.32508498E+00 0.14264366E+04</pdfrwt>
<pdfrwt beam="2">  1       21 0.14485918E+00 0.14264366E+04</pdfrwt>
<totfact> 0.22843001E+00</totfact>
</mgrwt>
</event>
<event>
 8    1  0.5815007E-006  0.1264730E+04  0.7818608E-02  0.8560196E-01
         21   -1    0    0  503  502  0.00000000000E+00  0.00000000000E+00  0.11418717235E+04  0.11418717235E+04  0.00000000000E+00 0. -1.
         21   -1    0    0  501  503 -0.00000000000E+00 -0.00000000000E+00 -0.14597808884E+04  0.14597808884E+04  0.00000000000E+00 0. -1.
    9000010    2    1    2  501    0  0.24029262381E+03  0.74402706067E+03 -0.43159272393E+03  0.13318232652E+04  0.98801018133E+03 0.  0.
   -9000010    2    1    2    0  502 -0.24029262381E+03 -0.74402706067E+03  0.11368355911E+03  0.12698293466E+04  0.99409547122E+03 0.  0.
        -13    1    3    3    0    0 -0.75406464588E+02  0.86247174857E+03 -0.48199521885E+03  0.99089003130E+03  0.10566000000E+00 0.  1.
          4    1    3    3  501    0  0.31569908840E+03 -0.11844468789E+03  0.50402494914E+02  0.34093323394E+03  0.00000000000E+00 0.  1.
         13    1    4    4    0    0 -0.53760091547E+03 -0.79464356963E+03  0.44696996689E+02  0.96045352816E+03  0.10566000000E+00 0. -1.
         -4    1    4    4    0  502  0.29730829166E+03  0.50616508959E+02  0.68986562417E+02  0.30937581848E+03  0.00000000000E+00 0. -1.
<mgrwt>
<rscale>  2 0.12635342E+04</rscale>
<asrwt>0</asrwt>
<pdfrwt beam="1">  1       21 0.17567257E+00 0.12647303E+04</pdfrwt>
<pdfrwt beam="2">  1       21 0.22458168E+00 0.12647303E+04</pdfrwt>
<totfact> 0.67313367E+00</totfact>
</mgrwt>
</event>
<event>
 8    1  0.5815007E-006  0.1127747E+04  0.7818608E-02  0.8664701E-01
         21   -1    0    0  501  502  0.00000000000E+00  0.00000000000E+00  0.14802192952E+04  0.14802192952E+04  0.00000000000E+00 0.  1.
         21   -1    0    0  502  503 -0.00000000000E+00 -0.00000000000E+00 -0.11874603586E+04  0.11874603586E+04  0.00000000000E+00 0.  1.
   -9000010    2    1    2    0  503  0.52832137159E+03  0.35526768913E+02 -0.56183342662E+03  0.12527094449E+04  0.98652852518E+03 0.  0.
    9000010    2    1    2  501    0 -0.52832137159E+03 -0.35526768913E+02  0.85459236323E+03  0.14149702089E+04  0.99570425417E+03 0.  0.
        -13    1    4    4    0    0 -0.99115763208E+02 -0.28887048395E+03  0.86409978542E+03  0.91648160993E+03  0.10566000000E+00 0.  1.
          4    1    4    4  501    0 -0.42920560838E+03  0.25334371503E+03 -0.95074221924E+01  0.49848859896E+03  0.00000000000E+00 0.  1.
         13    1    3    3    0    0 -0.21162237407E+03  0.26991491296E+03 -0.15519126304E+03  0.37646039465E+03  0.10566000000E+00 0. -1.
         -4    1    3    3    0  503  0.73994374566E+03 -0.23438814405E+03 -0.40664216358E+03  0.87624905022E+03  0.00000000000E+00 0. -1.
<mgrwt>
<rscale>  2 0.11257179E+04</rscale>
<asrwt>0</asrwt>
<pdfrwt beam="1">  1       21 0.22772605E+00 0.11277467E+04</pdfrwt>
<pdfrwt beam="2">  1       21 0.18268621E+00 0.11277467E+04</pdfrwt>
<totfact> 0.57509359E+00</totfact>
</mgrwt>
</event>
<event>
 8    1  0.5815007E-006  0.1045745E+04  0.7818608E-02  0.8733735E-01
         21   -1    0    0  501  502  0.00000000000E+00  0.00000000000E+00  0.16772429036E+04  0.16772429036E+04  0.00000000000E+00 0.  1.
         21   -1    0    0  502  503 -0.00000000000E+00 -0.00000000000E+00 -0.70952472676E+03  0.70952472676E+03  0.00000000000E+00 0.  1.
   -9000010    2    1    2    0  503  0.11561326463E+03  0.29690078104E+03  0.13705860109E+03  0.10546888672E+04  0.99602562506E+03 0.  0.
    9000010    2    1    2  501    0 -0.11561326463E+03 -0.29690078104E+03  0.83065957577E+03  0.13320787632E+04  0.99142422791E+03 0.  0.
        -13    1    4    4    0    0 -0.96320178217E+02  0.36010417217E+03  0.39726421530E+03  0.54476734434E+03  0.10566000000E+00 0.  1.
          4    1    4    4  501    0 -0.19293086411E+02 -0.65700495320E+03  0.43339536048E+03  0.78731141882E+03  0.00000000000E+00 0.  1.
         13    1    3    3    0    0  0.18231933953E+03  0.45260168896E+03 -0.30899721331E+03  0.57755339096E+03  0.10566000000E+00 0. -1.
         -4    1    3    3    0  503 -0.66706074897E+02 -0.15570090792E+03  0.44605581440E+03  0.47713547627E+03  0.00000000000E+00 0. -1.
<mgrwt>
<rscale>  2 0.10446483E+04</rscale>
<asrwt>0</asrwt>
<pdfrwt beam="1">  1       21 0.25803737E+00 0.10457455E+04</pdfrwt>
<pdfrwt beam="2">  1       21 0.10915765E+00 0.10457455E+04</pdfrwt>
<totfact> 0.16615193E+01</totfact>
</mgrwt>
</event>
<event>
 8    1  0.5815007E-006  0.1328017E+04  0.7818608E-02  0.8516970E-01
         21   -1    0    0  501  502  0.00000000000E+00  0.00000000000E+00  0.15257676654E+04  0.15257676654E+04  0.00000000000E+00 0. -1.
         21   -1    0    0  502  503 -0.00000000000E+00 -0.00000000000E+00 -0.11944698669E+04  0.11944698669E+04  0.00000000000E+00 0. -1.
   -9000010    2    1    2    0  503  0.76680939013E+03 -0.43135944698E+03 -0.95701069583E+02  0.13252620506E+04  0.98645486198E+03 0.  0.
    9000010    2    1    2  501    0 -0.76680939013E+03  0.43135944698E+03  0.42699886811E+03  0.13949754817E+04  0.99476678062E+03 0.  0.
        -13    1    4    4    0    0 -0.89289590583E+03  0.10076268349E+03  0.84487873500E+02  0.90252669155E+03  0.10566000000E+00 0.  1.
          4    1    4    4  501    0  0.12608651569E+03  0.33059676349E+03  0.34251099461E+03  0.49244879013E+03  0.00000000000E+00 0.  1.
         13    1    3    3    0    0  0.51780533535E+03  0.21469260148E+03  0.16672832297E+03  0.58481930824E+03  0.10566000000E+00 0. -1.
         -4    1    3    3    0  503  0.24900405478E+03 -0.64605204847E+03 -0.26242939255E+03  0.74044274235E+03  0.00000000000E+00 0. -1.
<mgrwt>
<rscale>  2 0.13264604E+04</rscale>
<asrwt>0</asrwt>
<pdfrwt beam="1">  1       21 0.23473349E+00 0.13280168E+04</pdfrwt>
<pdfrwt beam="2">  1       21 0.18376460E+00 0.13280168E+04</pdfrwt>
<totfact> 0.47936928E+00</totfact>
</mgrwt>
</event>
<event>
 8    1  0.5815007E-006  0.1129771E+04  0.7818608E-02  0.8662300E-01
         21   -1    0    0  503  502  0.00000000000E+00  0.00000000000E+00  0.14793262119E+04  0.14793262119E+04  0.00000000000E+00 0.  1.
         21   -1    0    0  501  503 -0.00000000000E+00 -0.00000000000E+00 -0.10238450131E+04  0.10238450131E+04  0.00000000000E+00 0.  1.
    9000010    2    1    2  501    0  0.35896812089E+03  0.37981763970E+03 -0.27412051785E+03  0.11582915867E+04  0.99668339515E+03 0.  0.
   -9000010    2    1    2    0  502 -0.35896812089E+03 -0.37981763970E+03  0.72960171668E+03  0.13448796383E+04  0.10016301839E+04 0.  0.
        -13    1    3    3    0    0 -0.25221181174E+03 -0.67497822613E+02 -0.30348539493E+03  0.40033754525E+03  0.10566000000E+00 0.  1.
          4    1    3    3  501    0  0.61117993263E+03  0.44731546231E+03  0.29364877085E+02  0.75795404141E+03  0.00000000000E+00 0.  1.
         13    1    4    4    0    0 -0.17109707322E+03  0.52493742806E+02  0.84157448589E+03  0.86039376332E+03  0.10566000000E+00 0. -1.
         -4    1    4    4    0  502 -0.18787104768E+03 -0.43231138250E+03 -0.11197276921E+03  0.48448587497E+03  0.00000000000E+00 0. -1.
<mgrwt>
<rscale>  2 0.11286736E+04</rscale>
<asrwt>0</asrwt>
<pdfrwt beam="1">  1       21 0.22758865E+00 0.11297710E+04</pdfrwt>
<pdfrwt beam="2">  1       21 0.15751462E+00 0.11297710E+04</pdfrwt>
<totfact> 0.93754902E+00</totfact>
</mgrwt>
</event>
<event>
 8    1  0.5815007E-006  0.1042663E+04  0.7818608E-02  0.8755658E-01
         21   -1    0    0  501  502  0.00000000000E+00  0.00000000000E+00  0.70970002746E+03  0.70970002746E+03  0.00000000000E+00 0. -1.
         21   -1    0    0  502  503 -0.00000000000E+00 -0.00000000000E+00 -0.14166520618E+04  0.14166520618E+04  0.00000000000E+00 0. -1.
   -9000010    2    1    2    0  503 -0.32725671597E+03  0.13515217896E+03 -0.42252038439E+03  0.10455896389E+04  0.88846561455E+03 0.  0.
    9000010    2    1    2  501    0  0.32725671597E+03 -0.13515217896E+03 -0.28443164996E+03  0.10807624503E+04  0.98070537924E+03 0.  0.
        -13    1    4    4    0    0  0.58056272061E+03 -0.35307629061E+03 -0.30746382147E+03  0.74582166248E+03  0.10566000000E+00 0.  1.
          4    1    4    4  501    0 -0.25330600464E+03  0.21792411165E+03  0.23032171517E+02  0.33494078782E+03  0.00000000000E+00 0.  1.
         13    1    3    3    0    0 -0.14568438003E+03  0.43950146827E+03 -0.50143629478E+03  0.68251289225E+03  0.10566000000E+00 0. -1.
         -4    1    3    3    0  503 -0.18157233594E+03 -0.30434928931E+03  0.78915910394E+02  0.36307674670E+03  0.00000000000E+00 0. -1.
<mgrwt>
<rscale>  2 0.10203986E+04</rscale>
<asrwt>0</asrwt>
<pdfrwt beam="1">  1       21 0.10918462E+00 0.10426630E+04</pdfrwt>
<pdfrwt beam="2">  1       21 0.21794647E+00 0.10426630E+04</pdfrwt>
<totfact> 0.32816368E+01</totfact>
</mgrwt>
</event>
<event>
 8    1  0.5815007E-006  0.1350373E+04  0.7818608E-02  0.8510549E-01
         21   -1    0    0  501  502  0.00000000000E+00  0.00000000000E+00  0.10165419646E+04  0.10165419646E+04  0.00000000000E+00 0. -1.
         21   -1    0    0  502  503 -0.00000000000E+00 -0.00000000000E+00 -0.18150909764E+04  0.18150909764E+04  0.00000000000E+00 0. -1.
   -9000010    2    1    2    0  503  0.72126191490E+03 -0.54422219638E+03 -0.83485402966E+02  0.13529509740E+04  0.10035486917E+04 0.  0.
    9000010    2    1    2  501    0 -0.72126191490E+03  0.54422219638E+03 -0.71506360882E+03  0.14786819670E+04  0.92670806950E+03 0.  0.
        -13    1    4    4    0    0 -0.92846568323E+03  0.40421633907E+03 -0.43188572637E+03  0.11008926676E+04  0.10566000000E+00 0.  1.
          4    1    4    4  501    0  0.20720376832E+03  0.14000585731E+03 -0.28317788245E+03  0.37778929947E+03  0.00000000000E+00 0.  1.
         13    1    3    3    0    0  0.42022239130E+03 -0.75316980161E+03 -0.31648367403E+03  0.91870209279E+03  0.10566000000E+00 0. -1.
         -4    1    3    3    0  503  0.30103952360E+03  0.20894760523E+03  0.23299827106E+03  0.43424888119E+03  0.00000000000E+00 0. -1.
<mgrwt>
<rscale>  2 0.13361280E+04</rscale>
<asrwt>0</asrwt>
<pdfrwt beam="1">  1       21 0.15639107E+00 0.13503727E+04</pdfrwt>
<pdfrwt beam="2">  1       21 0.27924476E+00 0.13503727E+04</pdfrwt>
<totfact> 0.38568688E+00</totfact>
</mgrwt>
</event>
<event>
 8    1  0.5815007E-006  0.1130697E+04  0.7818608E-02  0.8662576E-01
         21   -1    0    0  503  502  0.00000000000E+00  0.00000000000E+00  0.12929927273E+04  0.12929927273E+04  0.00000000000E+00 0.  1.
         21   -1    0    0  501  503 -0.00000000000E+00 -0.00000000000E+00 -0.11223862848E+04  0.11223862848E+04  0.00000000000E+00 0.  1.
    9000010    2    1    2  501    0 -0.49196065273E+03  0.16509108929E+03 -0.34432623145E+03  0.11729498113E+04  0.99396697864E+03 0.  0.
   -9000010    2    1    2    0  502  0.49196065273E+03 -0.16509108929E+03  0.51493267388E+03  0.12424292008E+04  0.10045866357E+04 0.  0.
        -13    1    3    3    0    0  0.29013413147E+02  0.15727054474E+03 -0.57960120213E+03  0.60125981661E+03  0.10566000000E+00 0.  1.
          4    1    3    3  501    0 -0.52097406588E+03  0.78205445481E+01  0.23527497068E+03  0.57168999472E+03  0.00000000000E+00 0.  1.
         13    1    4    4    0    0  0.20660047459E+03  0.34049787551E+03 -0.85364417067E+02  0.40732008813E+03  0.10566000000E+00 0. -1.
         -4    1    4    4    0  502  0.28536017814E+03 -0.50558896480E+03  0.60029709095E+03  0.83510911263E+03  0.00000000000E+00 0. -1.
<mgrwt>
<rscale>  2 0.11283330E+04</rscale>
<asrwt>0</asrwt>
<pdfrwt beam="1">  1       21 0.19892196E+00 0.11306965E+04</pdfrwt>
<pdfrwt beam="2">  1       21 0.17267481E+00 0.11306965E+04</pdfrwt>
<totfact> 0.11524741E+01</totfact>
</mgrwt>
</event>
<event>
 8    1  0.5815007E-006  0.1237161E+04  0.7818608E-02  0.8584439E-01
         21   -1    0    0  501  502  0.00000000000E+00  0.00000000000E+00  0.95939197548E+03  0.95939197548E+03  0.00000000000E+00 0. -1.
         21   -1    0    0  502  503 -0.00000000000E+00 -0.00000000000E+00 -0.18105908521E+04  0.18105908521E+04  0.00000000000E+00 0. -1.
   -9000010    2    1    2    0  503 -0.57153702629E+03 -0.44966573073E+03 -0.94718303056E+03  0.15581149212E+04  0.10008559199E+04 0.  0.
    9000010    2    1    2  501    0  0.57153702629E+03  0.44966573073E+03  0.95984153974E+02  0.12118679064E+04  0.96465383575E+03 0.  0.
        -13    1    4    4    0    0  0.30334387359E+03 -0.20048591350E+03  0.30883852370E+03  0.47706745020E+03  0.10566000000E+00 0.  1.
          4    1    4    4  501    0  0.26819315270E+03  0.65015164423E+03 -0.21285436973E+03  0.73480045615E+03  0.00000000000E+00 0.  1.
         13    1    3    3    0    0  0.26294779334E+03 -0.24746322984E+03 -0.16644716970E+03  0.39759811822E+03  0.10566000000E+00 0. -1.
         -4    1    3    3    0  503 -0.83448481963E+03 -0.20220250089E+03 -0.78073586086E+03  0.11605168030E+04  0.00000000000E+00 0. -1.
<mgrwt>
<rscale>  2 0.12298206E+04</rscale>
<asrwt>0</asrwt>
<pdfrwt beam="1">  1       21 0.14759877E+00 0.12371606E+04</pdfrwt>
<pdfrwt beam="2">  1       21 0.27855243E+00 0.12371606E+04</pdfrwt>
<totfact> 0.47756662E+00</totfact>
</mgrwt>
</event>
<event>
 8    1  0.5815007E-006  0.1160661E+04  0.7818608E-02  0.8641961E-01
         21   -1    0    0  501  502  0.00000000000E+00  0.00000000000E+00  0.99096550266E+03  0.99096550266E+03  0.00000000000E+00 0.  1.
         21   -1    0    0  502  503 -0.00000000000E+00 -0.00000000000E+00 -0.15323833148E+04  0.15323833148E+04  0.00000000000E+00 0.  1.
   -9000010    2    1    2    0  503  0.51153428236E+03  0.19600093667E+03 -0.72759808189E+03  0.13478502583E+04  0.99358827526E+03 0.  0.
    9000010    2    1    2  501    0 -0.51153428236E+03 -0.19600093667E+03  0.18618026972E+03  0.11754985592E+04  0.10232546510E+04 0.  0.
        -13    1    4    4    0    0  0.27697664242E+03 -0.16935673689E+03 -0.94456168271E+02  0.33811202828E+03  0.10566000000E+00 0.  1.
          4    1    4    4  501    0 -0.78851092479E+03 -0.26644199782E+02  0.28063643799E+03  0.83738653095E+03  0.00000000000E+00 0.  1.
         13    1    3    3    0    0  0.16518264639E+03  0.18556561130E+03 -0.91900347013E+03  0.95199122477E+03  0.10566000000E+00 0. -1.
         -4    1    3    3    0  503  0.34635163598E+03  0.10435325367E+02  0.19140538823E+03  0.39585903350E+03  0.00000000000E+00 0. -1.
<mgrwt>
<rscale>  2 0.11540883E+04</rscale>
<asrwt>0</asrwt>
<pdfrwt beam="1">  1       21 0.15245623E+00 0.11606609E+04</pdfrwt>
<pdfrwt beam="2">  1       21 0.23575128E+00 0.11606609E+04</pdfrwt>
<totfact> 0.89708730E+00</totfact>
</mgrwt>
</event>
<event>
 8    1  0.5815007E-006  0.1132685E+04  0.7818608E-02  0.8662877E-01
         21   -1    0    0  503  502  0.00000000000E+00  0.00000000000E+00  0.55179997025E+03  0.55179997025E+03  0.00000000000E+00 0. -1.
         21   -1    0    0  501  503 -0.00000000000E+00 -0.00000000000E+00 -0.22878258819E+04  0.22878258819E+04  0.00000000000E+00 0.  1.
    9000010    2    1    2  501    0 -0.15270458529E+03  0.51783452525E+03 -0.84368989779E+03  0.14123699611E+04  0.99574342948E+03 0.  0.
   -9000010    2    1    2    0  502  0.15270458529E+03 -0.51783452525E+03 -0.89233601383E+03  0.14272558911E+04  0.97433286464E+03 0.  0.
        -13    1    3    3    0    0  0.22832414665E+03  0.67647596960E+03 -0.46357129229E+03  0.85126377086E+03  0.10566000000E+00 0.  1.
          4    1    3    3  501    0 -0.38102873194E+03 -0.15864144435E+03 -0.38011860550E+03  0.56110619019E+03  0.00000000000E+00 0.  1.
         13    1    4    4    0    0 -0.83815092563E+02 -0.23555513217E+03  0.17036814067E+03  0.30255000340E+03  0.10566000000E+00 0. -1.
         -4    1    4    4    0  502  0.23651967785E+03 -0.28227939307E+03 -0.10627041545E+04  0.11247058877E+04  0.00000000000E+00 0. -1.
<mgrwt>
<rscale>  2 0.11279621E+04</rscale>
<asrwt>0</asrwt>
<pdfrwt beam="1">  1       21 0.84892304E-01 0.11326854E+04</pdfrwt>
<pdfrwt beam="2">  1       21 0.35197321E+00 0.11326854E+04</pdfrwt>
<totfact> 0.67810249E+00</totfact>
</mgrwt>
</event>
<event>
 8    1  0.5815007E-006  0.1384128E+04  0.7818608E-02  0.8482817E-01
         21   -1    0    0  503  502  0.00000000000E+00  0.00000000000E+00  0.14979128994E+04  0.14979128994E+04  0.00000000000E+00 0. -1.
         21   -1    0    0  501  503 -0.00000000000E+00 -0.00000000000E+00 -0.15120557953E+04  0.15120557953E+04  0.00000000000E+00 0.  1.
    9000010    2    1    2  501    0 -0.80667773948E+03  0.52278050468E+03 -0.62182670335E+03  0.14983176734E+04  0.96657072691E+03 0.  0.
   -9000010    2    1    2    0  502  0.80667773948E+03 -0.52278050468E+03  0.60768380742E+03  0.15116510212E+04  0.99588190500E+03 0.  0.
        -13    1    3    3    0    0 -0.58180338491E+03 -0.17725120717E+03 -0.15593524640E+03  0.62787656539E+03  0.10566000000E+00 0.  1.
          4    1    3    3  501    0 -0.22487435456E+03  0.70003171184E+03 -0.46589145695E+03  0.87044110805E+03  0.00000000000E+00 0.  1.
         13    1    4    4    0    0  0.42286759601E+03  0.19492966929E+03 -0.45798373124E+02  0.46788041407E+03  0.10566000000E+00 0. -1.
         -4    1    4    4    0  502  0.38381014347E+03 -0.71771017397E+03  0.65348218054E+03  0.10437706071E+04  0.00000000000E+00 0. -1.
<mgrwt>
<rscale>  2 0.13788633E+04</rscale>
<asrwt>0</asrwt>
<pdfrwt beam="1">  1       21 0.23044814E+00 0.13841276E+04</pdfrwt>
<pdfrwt beam="2">  1       21 0.23262397E+00 0.13841276E+04</pdfrwt>
<totfact> 0.21369199E+00</totfact>
</mgrwt>
</event>
<event>
 8    1  0.5815007E-006  0.1063600E+04  0.7818608E-02  0.8723229E-01
         21   -1    0    0  503  502  0.00000000000E+00  0.00000000000E+00  0.95672544964E+03  0.95672544964E+03  0.00000000000E+00 0. -1.
         21   -1    0    0  501  503 -0.00000000000E+00 -0.00000000000E+00 -0.11531546986E+04  0.11531546986E+04  0.00000000000E+00 0. -1.
    9000010    2    1    2  501    0  0.12596007041E+03 -0.36392828601E+03 -0.58673508671E+02  0.10652175030E+04  0.99143129437E+03 0.  0.
   -9000010    2    1    2    0  502 -0.12596007041E+03  0.36392828601E+03 -0.13775574025E+03  0.10446626452E+04  0.96126669636E+03 0.  0.
        -13    1    3    3    0    0 -0.36257203792E+03 -0.20590713384E+03  0.22998912500E+03  0.47618403924E+03  0.10566000000E+00 0.  1.
          4    1    3    3  501    0  0.48853210833E+03 -0.15802115218E+03 -0.28866263367E+03  0.58903346380E+03  0.00000000000E+00 0.  1.
         13    1    4    4    0    0  0.23511158371E+03 -0.12270516184E+03  0.21684770326E+03  0.34257400822E+03  0.10566000000E+00 0. -1.
         -4    1    4    4    0  502 -0.36107165412E+03  0.48663344786E+03 -0.35460344351E+03  0.70208863694E+03  0.00000000000E+00 0. -1.
<mgrwt>
<rscale>  2 0.10565148E+04</rscale>
<asrwt>0</asrwt>
<pdfrwt beam="1">  1       21 0.14718853E+00 0.10636004E+04</pdfrwt>
<pdfrwt beam="2">  1       21 0.17740841E+00 0.10636004E+04</pdfrwt>
<totfact> 0.28903032E+01</totfact>
</mgrwt>
</event>
<event>
 8    1  0.5815007E-006  0.1118986E+04  0.7818608E-02  0.8671202E-01
         21   -1    0    0  501  502  0.00000000000E+00  0.00000000000E+00  0.19636282551E+04  0.19636282551E+04  0.00000000000E+00 0.  1.
         21   -1    0    0  502  503 -0.00000000000E+00 -0.00000000000E+00 -0.63507172859E+03  0.63507172859E+03  0.00000000000E+00 0.  1.
   -9000010    2    1    2    0  503 -0.44087450675E+03 -0.23512238739E+03  0.68800557737E+03  0.13135753711E+04  0.10012370914E+04 0.  0.
    9000010    2    1    2  501    0  0.44087450675E+03  0.23512238739E+03  0.64055094916E+03  0.12851246126E+04  0.99578455689E+03 0.  0.
        -13    1    4    4    0    0 -0.29384434182E+03  0.18157380048E+03  0.35424668402E+03  0.49477698667E+03  0.10566000000E+00 0.  1.
          4    1    4    4  501    0  0.73471884857E+03  0.53548586914E+02  0.28630426514E+03  0.79034762594E+03  0.00000000000E+00 0.  1.
         13    1    3    3    0    0 -0.10634136285E+03 -0.51633539071E+03  0.70009436952E+03  0.87638054437E+03  0.10566000000E+00 0. -1.
         -4    1    3    3    0  503 -0.33453314390E+03  0.28121300332E+03 -0.12088792151E+02  0.43719482671E+03  0.00000000000E+00 0. -1.
<mgrwt>
<rscale>  2 0.11177645E+04</rscale>
<asrwt>0</asrwt>
<pdfrwt beam="1">  1       21 0.30209665E+00 0.11189855E+04</pdfrwt>
<pdfrwt beam="2">  1       21 0.97703344E-01 0.11189855E+04</pdfrwt>
<totfact> 0.10636219E+01</totfact>
</mgrwt>
</event>
<event>
 8    1  0.5815007E-006  0.1204658E+04  0.7818608E-02  0.8605306E-01
         21   -1    0    0  501  502  0.00000000000E+00  0.00000000000E+00  0.13404792103E+04  0.13404792103E+04  0.00000000000E+00 0.  1.
         21   -1    0    0  502  503 -0.00000000000E+00 -0.00000000000E+00 -0.10996798416E+04  0.10996798416E+04  0.00000000000E+00 0.  1.
   -9000010    2    1    2    0  503 -0.66751354210E+03 -0.74358899862E+01 -0.72854964740E+02  0.12068590178E+04  0.10027817417E+04 0.  0.
    9000010    2    1    2  501    0  0.66751354210E+03  0.74358899862E+01  0.31365433339E+03  0.12333000342E+04  0.98844337827E+03 0.  0.
        -13    1    4    4    0    0  0.41640940813E+03 -0.38920562975E+02 -0.33522127063E+03  0.53598966114E+03  0.10566000000E+00 0.  1.
          4    1    4    4  501    0  0.25110413397E+03  0.46356452961E+02  0.64887560402E+03  0.69731037302E+03  0.00000000000E+00 0.  1.
         13    1    3    3    0    0 -0.79926634867E+03  0.30227953018E+03 -0.13344542195E+03  0.86487415401E+03  0.10566000000E+00 0. -1.
         -4    1    3    3    0  503  0.13175280657E+03 -0.30971542016E+03  0.60590457208E+02  0.34198486374E+03  0.00000000000E+00 0. -1.
<mgrwt>
<rscale>  2 0.12016696E+04</rscale>
<asrwt>0</asrwt>
<pdfrwt beam="1">  1       21 0.20622757E+00 0.12046580E+04</pdfrwt>
<pdfrwt beam="2">  1       21 0.16918152E+00 0.12046580E+04</pdfrwt>
<totfact> 0.10650075E+01</totfact>
</mgrwt>
</event>
<event>
 8    1  0.5815007E-006  0.1335833E+04  0.7818608E-02  0.8513556E-01
         21   -1    0    0  503  502  0.00000000000E+00  0.00000000000E+00  0.91993763043E+03  0.91993763043E+03  0.00000000000E+00 0. -1.
         21   -1    0    0  501  503 -0.00000000000E+00 -0.00000000000E+00 -0.25700433267E+04  0.25700433267E+04  0.00000000000E+00 0.  1.
    9000010    2    1    2  501    0 -0.85506354860E+03 -0.37427577240E+02 -0.17097145394E+04  0.21696945458E+04  0.10256296214E+04 0.  0.
   -9000010    2    1    2    0  502  0.85506354860E+03  0.37427577240E+02  0.59608843187E+02  0.13202864113E+04  0.10035280255E+04 0.  0.
        -13    1    3    3    0    0  0.11185295147E+03  0.27095441564E+03 -0.21732204406E+03  0.36490582361E+03  0.10566000000E+00 0.  1.
          4    1    3    3  501    0 -0.96691650007E+03 -0.30838199288E+03 -0.14923924954E+04  0.18047887222E+04  0.00000000000E+00 0.  1.
         13    1    4    4    0    0 -0.19441525348E+03 -0.14997046625E+03  0.65757926171E+02  0.25418998319E+03  0.10566000000E+00 0. -1.
         -4    1    4    4    0  502  0.10494788021E+04  0.18739804349E+03 -0.61490829837E+01  0.10660964281E+04  0.00000000000E+00 0. -1.
<mgrwt>
<rscale>  2 0.13315898E+04</rscale>
<asrwt>0</asrwt>
<pdfrwt beam="1">  1       21 0.14152886E+00 0.13358333E+04</pdfrwt>
<pdfrwt beam="2">  1       21 0.39539129E+00 0.13358333E+04</pdfrwt>
<totfact> 0.80074213E-01</totfact>
</mgrwt>
</event>
<event>
 8    1  0.5815007E-006  0.1092333E+04  0.7818608E-02  0.8693811E-01
         21   -1    0    0  503  502  0.00000000000E+00  0.00000000000E+00  0.85143624575E+03  0.85143624575E+03  0.00000000000E+00 0.  1.
         21   -1    0    0  501  503 -0.00000000000E+00 -0.00000000000E+00 -0.16929237837E+04  0.16929237837E+04  0.00000000000E+00 0.  1.
    9000010    2    1    2  501    0  0.41003164759E+03 -0.12783766939E+03 -0.95541735012E+03  0.14461019506E+04  0.99695542377E+03 0.  0.
   -9000010    2    1    2    0  502 -0.41003164759E+03  0.12783766939E+03  0.11392981213E+03  0.10982580789E+04  0.10043517232E+04 0.  0.
        -13    1    3    3    0    0  0.46001025143E+03  0.33154614289E+03 -0.29253147220E+03  0.63804933169E+03  0.10566000000E+00 0.  1.
          4    1    3    3  501    0 -0.49978603842E+02 -0.45938381228E+03 -0.66288587792E+03  0.80805261894E+03  0.00000000000E+00 0.  1.
         13    1    4    4    0    0 -0.67805166331E+03  0.22960251156E+03  0.27798249497E+03  0.76794898925E+03  0.10566000000E+00 0. -1.
         -4    1    4    4    0  502  0.26802001572E+03 -0.10176484217E+03 -0.16405268283E+03  0.33030908960E+03  0.00000000000E+00 0. -1.
<mgrwt>
<rscale>  2 0.10906296E+04</rscale>
<asrwt>0</asrwt>
<pdfrwt beam="1">  1       21 0.13099019E+00 0.10923327E+04</pdfrwt>
<pdfrwt beam="2">  1       21 0.26044981E+00 0.10923327E+04</pdfrwt>
<totfact> 0.94840171E+00</totfact>
</mgrwt>
</event>
<event>
 8    1  0.5815007E-006  0.1114106E+04  0.7818608E-02  0.8676518E-01
         21   -1    0    0  501  502  0.00000000000E+00  0.00000000000E+00  0.35738303618E+03  0.35738303618E+03  0.00000000000E+00 0.  1.
         21   -1    0    0  502  503 -0.00000000000E+00 -0.00000000000E+00 -0.34491286444E+04  0.34491286444E+04  0.00000000000E+00 0.  1.
   -9000010    2    1    2    0  503  0.45234944611E+03 -0.18121237464E+03 -0.16439160291E+04  0.19796447544E+04  0.98948243889E+03 0.  0.
    9000010    2    1    2  501    0 -0.45234944611E+03  0.18121237464E+03 -0.14478295791E+04  0.18268669262E+04  0.10018853875E+04 0.  0.
        -13    1    4    4    0    0  0.73187035119E+02 -0.44827744155E+02 -0.12005694173E+04  0.12036331690E+04  0.10566000000E+00 0.  1.
          4    1    4    4  501    0 -0.52553648123E+03  0.22604011879E+03 -0.24726016187E+03  0.62323375715E+03  0.00000000000E+00 0.  1.
         13    1    3    3    0    0  0.56901164457E+03  0.22454713032E+03 -0.12939496137E+04  0.14312586347E+04  0.10566000000E+00 0. -1.
         -4    1    3    3    0  503 -0.11666219846E+03 -0.40575950496E+03 -0.34996641538E+03  0.54838611973E+03  0.00000000000E+00 0. -1.
<mgrwt>
<rscale>  2 0.11113105E+04</rscale>
<asrwt>0</asrwt>
<pdfrwt beam="1">  1       21 0.54982006E-01 0.11141060E+04</pdfrwt>
<pdfrwt beam="2">  1       21 0.53063517E+00 0.11141060E+04</pdfrwt>
<totfact> 0.10797534E+00</totfact>
</mgrwt>
</event>
<event>
 8    1  0.5815007E-006  0.1093777E+04  0.7818608E-02  0.8706557E-01
         21   -1    0    0  503  502  0.00000000000E+00  0.00000000000E+00  0.17338136032E+04  0.17338136032E+04  0.00000000000E+00 0. -1.
         21   -1    0    0  501  503 -0.00000000000E+00 -0.00000000000E+00 -0.67336776101E+03  0.67336776101E+03  0.00000000000E+00 0. -1.
    9000010    2    1    2  501    0 -0.34066204616E+03 -0.17519322695E+03  0.30555487043E+03  0.11356547788E+04  0.10245021724E+04 0.  0.
   -9000010    2    1    2    0  502  0.34066204616E+03  0.17519322695E+03  0.75489097178E+03  0.12715265854E+04  0.94877614940E+03 0.  0.
        -13    1    3    3    0    0  0.33662226517E+03 -0.23944493881E+03  0.12950314078E+03  0.43291974172E+03  0.10566000000E+00 0.  1.
          4    1    3    3  501    0 -0.67728431133E+03  0.64251711860E+02  0.17605172965E+03  0.70273503710E+03  0.00000000000E+00 0.  1.
         13    1    4    4    0    0  0.20134259317E+02  0.23620598094E+03  0.88802817587E+03  0.91912605562E+03  0.10566000000E+00 0. -1.
         -4    1    4    4    0  502  0.32052778684E+03 -0.61012753989E+02 -0.13313720409E+03  0.35240052979E+03  0.00000000000E+00 0. -1.
<mgrwt>
<rscale>  2 0.10756865E+04</rscale>
<asrwt>0</asrwt>
<pdfrwt beam="1">  1       21 0.26674055E+00 0.10937769E+04</pdfrwt>
<pdfrwt beam="2">  1       21 0.10359504E+00 0.10937769E+04</pdfrwt>
<totfact> 0.16367557E+01</totfact>
</mgrwt>
</event>
<event>
 8    1  0.5815007E-006  0.1391486E+04  0.7818608E-02  0.8483263E-01
         21   -1    0    0  503  502  0.00000000000E+00  0.00000000000E+00  0.89575167507E+03  0.89575167507E+03  0.00000000000E+00 0. -1.
         21   -1    0    0  501  503 -0.00000000000E+00 -0.00000000000E+00 -0.21440611637E+04  0.21440611637E+04  0.00000000000E+00 0. -1.
    9000010    2    1    2  501    0 -0.24636019784E+03 -0.85904340957E+03 -0.87365254265E+03  0.15987715169E+04  0.99707204925E+03 0.  0.
   -9000010    2    1    2    0  502  0.24636019784E+03  0.85904340957E+03 -0.37465694597E+03  0.14410413219E+04  0.10665755189E+04 0.  0.
        -13    1    3    3    0    0  0.35980891891E+03 -0.54605673628E+03 -0.37587787616E+03  0.75427091042E+03  0.10566000000E+00 0.  1.
          4    1    3    3  501    0 -0.60616911674E+03 -0.31298667329E+03 -0.49777466649E+03  0.84450060649E+03  0.00000000000E+00 0.  1.
         13    1    4    4    0    0  0.80717450520E+02 -0.37858638743E+02 -0.51110425862E+03  0.51882189399E+03  0.10566000000E+00 0. -1.
         -4    1    4    4    0  502  0.16564274732E+03  0.89690204831E+03  0.13644731265E+03  0.92221942787E+03  0.00000000000E+00 0. -1.
<mgrwt>
<rscale>  2 0.13781630E+04</rscale>
<asrwt>0</asrwt>
<pdfrwt beam="1">  1       21 0.13780795E+00 0.13914856E+04</pdfrwt>
<pdfrwt beam="2">  1       21 0.32985557E+00 0.13914856E+04</pdfrwt>
<totfact> 0.24726709E+00</totfact>
</mgrwt>
</event>
<event>
 8    1  0.5815007E-006  0.1786961E+04  0.7818608E-02  0.8262735E-01
         21   -1    0    0  501  502  0.00000000000E+00  0.00000000000E+00  0.10960456554E+04  0.10960456554E+04  0.00000000000E+00 0.  1.
         21   -1    0    0  502  503 -0.00000000000E+00 -0.00000000000E+00 -0.29180231957E+04  0.29180231957E+04  0.00000000000E+00 0. -1.
   -9000010    2    1    2    0  503  0.12514032132E+04 -0.79236236689E+03 -0.11008690305E+04  0.20870952504E+04  0.97478502214E+03 0.  0.
    9000010    2    1    2  501    0 -0.12514032132E+04  0.79236236689E+03 -0.72110850987E+03  0.19269736008E+04  0.99969077852E+03 0.  0.
        -13    1    4    4    0    0 -0.98612344101E+03  0.96806725606E+03 -0.80321749252E+03  0.15983591601E+04  0.10566000000E+00 0.  1.
          4    1    4    4  501    0 -0.26527977220E+03 -0.17570488916E+03  0.82108982648E+02  0.32861444072E+03  0.00000000000E+00 0.  1.
         13    1    3    3    0    0  0.96838203754E+03 -0.10098012067E+04 -0.75368952868E+03  0.15891853776E+04  0.10566000000E+00 0. -1.
         -4    1    3    3    0  503  0.28302117568E+03  0.21743883979E+03 -0.34717950177E+03  0.49790987275E+03  0.00000000000E+00 0. -1.
<mgrwt>
<rscale>  2 0.17834977E+04</rscale>
<asrwt>0</asrwt>
<pdfrwt beam="1">  1       21 0.16862241E+00 0.17869610E+04</pdfrwt>
<pdfrwt beam="2">  1       21 0.44892664E+00 0.17869610E+04</pdfrwt>
<totfact> 0.18243654E-01</totfact>
</mgrwt>
</event>
<event>
 8    1  0.5815007E-006  0.1153604E+04  0.7818608E-02  0.8642841E-01
         21   -1    0    0  501  502  0.00000000000E+00  0.00000000000E+00  0.21606178591E+04  0.21606178591E+04  0.00000000000E+00 0.  1.
         21   -1    0    0  502  503 -0.00000000000E+00 -0.00000000000E+00 -0.69455526537E+03  0.69455526537E+03  0.00000000000E+00 0.  1.
   -9000010    2    1    2    0  503 -0.21867479887E+03 -0.54659663250E+03  0.24935305856E+03  0.11802450263E+04  0.99207601923E+03 0.  0.
    9000010    2    1    2  501    0  0.21867479887E+03  0.54659663250E+03  0.12167095352E+04  0.16749280982E+04  0.98914887397E+03 0.  0.
        -13    1    4    4    0    0 -0.33105541703E+03 -0.19967909649E+02  0.54701144712E+03  0.63970144678E+03  0.10566000000E+00 0.  1.
          4    1    4    4  501    0  0.54973021591E+03  0.56656454215E+03  0.66969808809E+03  0.10352266515E+04  0.00000000000E+00 0.  1.
         13    1    3    3    0    0  0.18076518154E+02  0.24139404404E+03  0.26286534883E+03  0.35734583779E+03  0.10566000000E+00 0. -1.
         -4    1    3    3    0  503 -0.23675131702E+03 -0.78799067654E+03 -0.13512290265E+02  0.82289918849E+03  0.00000000000E+00 0. -1.
<mgrwt>
<rscale>  2 0.11529741E+04</rscale>
<asrwt>0</asrwt>
<pdfrwt beam="1">  1       21 0.33240275E+00 0.11536036E+04</pdfrwt>
<pdfrwt beam="2">  1       21 0.10685466E+00 0.11536036E+04</pdfrwt>
<totfact> 0.50992836E+00</totfact>
</mgrwt>
</event>
<event>
 8    1  0.5815007E-006  0.1165904E+04  0.7818608E-02  0.8637518E-01
         21   -1    0    0  503  502  0.00000000000E+00  0.00000000000E+00  0.19884879640E+04  0.19884879640E+04  0.00000000000E+00 0. -1.
         21   -1    0    0  501  503 -0.00000000000E+00 -0.00000000000E+00 -0.78395538498E+03  0.78395538498E+03  0.00000000000E+00 0. -1.
    9000010    2    1    2  501    0 -0.41926889829E+03 -0.40637715399E+03  0.77652660595E+02  0.11684866688E+04  0.10091592338E+04 0.  0.
   -9000010    2    1    2    0  502  0.41926889829E+03  0.40637715399E+03  0.11268799184E+04  0.16039566802E+04  0.98075984878E+03 0.  0.
        -13    1    3    3    0    0 -0.29778754030E+02  0.22171389340E+03  0.32024005697E+03  0.39063733817E+03  0.10566000000E+00 0.  1.
          4    1    3    3  501    0 -0.38949014426E+03 -0.62809104739E+03 -0.24258739638E+03  0.77784933063E+03  0.00000000000E+00 0.  1.
         13    1    4    4    0    0  0.82045790951E+02 -0.29460082903E+03  0.11293374107E+03  0.32599877502E+03  0.10566000000E+00 0. -1.
         -4    1    4    4    0  502  0.33722310734E+03  0.70097798302E+03  0.10139461773E+04  0.12779579052E+04  0.00000000000E+00 0. -1.
<mgrwt>
<rscale>  2 0.11597316E+04</rscale>
<asrwt>0</asrwt>
<pdfrwt beam="1">  1       21 0.30592122E+00 0.11659036E+04</pdfrwt>
<pdfrwt beam="2">  1       21 0.12060852E+00 0.11659036E+04</pdfrwt>
<totfact> 0.56012074E+00</totfact>
</mgrwt>
</event>
<event>
 8    1  0.5815007E-006  0.1244343E+04  0.7818608E-02  0.8582710E-01
         21   -1    0    0  503  502  0.00000000000E+00  0.00000000000E+00  0.23588016068E+04  0.23588016068E+04  0.00000000000E+00 0. -1.
         21   -1    0    0  501  503 -0.00000000000E+00 -0.00000000000E+00 -0.63142693057E+03  0.63142693057E+03  0.00000000000E+00 0.  1.
    9000010    2    1    2  501    0  0.54916862441E+03  0.48710521162E+03  0.87062970308E+03  0.15186789398E+04  0.10047546850E+04 0.  0.
   -9000010    2    1    2    0  502 -0.54916862441E+03 -0.48710521162E+03  0.85674497315E+03  0.14715495976E+04  0.94476907437E+03 0.  0.
        -13    1    3    3    0    0 -0.23661129865E+02  0.43418970570E+02  0.78785277514E+03  0.78940297854E+03  0.10566000000E+00 0.  1.
          4    1    3    3  501    0  0.57282975427E+03  0.44368624105E+03  0.82776927943E+02  0.72927596126E+03  0.00000000000E+00 0.  1.
         13    1    4    4    0    0  0.75215410446E+02 -0.50586609971E+03  0.16019991544E+03  0.53593086576E+03  0.10566000000E+00 0. -1.
         -4    1    4    4    0  502 -0.62438403486E+03  0.18760888092E+02  0.69654505771E+03  0.93561873182E+03  0.00000000000E+00 0. -1.
<mgrwt>
<rscale>  2 0.12321880E+04</rscale>
<asrwt>0</asrwt>
<pdfrwt beam="1">  1       21 0.36289255E+00 0.12443431E+04</pdfrwt>
<pdfrwt beam="2">  1       21 0.97142606E-01 0.12443431E+04</pdfrwt>
<totfact> 0.39355243E+00</totfact>
</mgrwt>
</event>
<event>
 8    1  0.5815007E-006  0.1117626E+04  0.7818608E-02  0.8675427E-01
         21   -1    0    0  503  502  0.00000000000E+00  0.00000000000E+00  0.11781102247E+04  0.11781102247E+04  0.00000000000E+00 0.  1.
         21   -1    0    0  501  503 -0.00000000000E+00 -0.00000000000E+00 -0.15219514378E+04  0.15219514378E+04  0.00000000000E+00 0.  1.
    9000010    2    1    2  501    0 -0.36025650786E+03  0.29211130542E+03 -0.92936422436E+03  0.14383460986E+04  0.99499139271E+03 0.  0.
   -9000010    2    1    2    0  502  0.36025650786E+03 -0.29211130542E+03  0.58552301130E+03  0.12617155640E+04  0.10168457117E+04 0.  0.
        -13    1    3    3    0    0  0.31319553394E+03 -0.46795696810E+02 -0.13827962714E+03  0.34554673514E+03  0.10566000000E+00 0.  1.
          4    1    3    3  501    0 -0.67345204181E+03  0.33890700223E+03 -0.79108459721E+03  0.10927993634E+04  0.00000000000E+00 0.  1.
         13    1    4    4    0    0  0.58246658641E+03 -0.47343485926E+03  0.61906428792E+03  0.97295862912E+03  0.10566000000E+00 0. -1.
         -4    1    4    4    0  502 -0.22221007854E+03  0.18132355385E+03 -0.33541276613E+02  0.28875693485E+03  0.00000000000E+00 0. -1.
<mgrwt>
<rscale>  2 0.11126316E+04</rscale>
<asrwt>0</asrwt>
<pdfrwt beam="1">  1       21 0.18124773E+00 0.11176265E+04</pdfrwt>
<pdfrwt beam="2">  1       21 0.23414637E+00 0.11176265E+04</pdfrwt>
<totfact> 0.53054054E+00</totfact>
</mgrwt>
</event>
<event>
 8    1  0.5815007E-006  0.1044563E+04  0.7818608E-02  0.8736223E-01
         21   -1    0    0  501  502  0.00000000000E+00  0.00000000000E+00  0.56878701098E+03  0.56878701098E+03  0.00000000000E+00 0. -1.
         21   -1    0    0  502  503 -0.00000000000E+00 -0.00000000000E+00 -0.19011741743E+04  0.19011741743E+04  0.00000000000E+00 0. -1.
   -9000010    2    1    2    0  503  0.20257429166E+03 -0.21868725626E+03 -0.71508774869E+03  0.12658837324E+04  0.10011247054E+04 0.  0.
    9000010    2    1    2  501    0 -0.20257429166E+03  0.21868725626E+03 -0.61729941462E+03  0.12040774529E+04  0.98989064326E+03 0.  0.
        -13    1    4    4    0    0  0.58847191165E+02  0.57934080360E+03 -0.41371246075E+03  0.71432259517E+03  0.10566000000E+00 0.  1.
          4    1    4    4  501    0 -0.26142148283E+03 -0.36065354734E+03 -0.20358695386E+03  0.48975485774E+03  0.00000000000E+00 0.  1.
         13    1    3    3    0    0 -0.11325350120E+03 -0.54775856478E+03 -0.53955240413E+03  0.77716318028E+03  0.10566000000E+00 0. -1.
         -4    1    3    3    0  503  0.31582779287E+03  0.32907130851E+03 -0.17553534456E+03  0.48872055208E+03  0.00000000000E+00 0. -1.
<mgrwt>
<rscale>  2 0.10418617E+04</rscale>
<asrwt>0</asrwt>
<pdfrwt beam="1">  1       21 0.87505694E-01 0.10445627E+04</pdfrwt>
<pdfrwt beam="2">  1       21 0.29248834E+00 0.10445627E+04</pdfrwt>
<totfact> 0.16776830E+01</totfact>
</mgrwt>
</event>
<event>
 8    1  0.5815007E-006  0.9978496E+03  0.7818608E-02  0.8777169E-01
         21   -1    0    0  501  502  0.00000000000E+00  0.00000000000E+00  0.12801483476E+04  0.12801483476E+04  0.00000000000E+00 0.  1.
         21   -1    0    0  502  503 -0.00000000000E+00 -0.00000000000E+00 -0.77603787737E+03  0.77603787737E+03  0.00000000000E+00 0.  1.
   -9000010    2    1    2    0  503 -0.11571912731E+03  0.38716247081E+02  0.26122775954E+03  0.10292023942E+04  0.98799178214E+03 0.  0.
    9000010    2    1    2  501    0  0.11571912731E+03 -0.38716247081E+02  0.24288271073E+03  0.10269838309E+04  0.99036049671E+03 0.  0.
        -13    1    4    4    0    0 -0.18835190690E+03 -0.35815202785E+03  0.39006773551E+03  0.56205174613E+03  0.10566000000E+00 0.  1.
          4    1    4    4  501    0  0.30407103421E+03  0.31943578077E+03 -0.14718502478E+03  0.46493208472E+03  0.00000000000E+00 0.  1.
         13    1    3    3    0    0  0.37674318804E+03 -0.11527338793E+03 -0.91137646667E+02  0.40438776627E+03  0.10566000000E+00 0. -1.
         -4    1    3    3    0  503 -0.49246231536E+03  0.15398963501E+03  0.35236540621E+03  0.62481462789E+03  0.00000000000E+00 0. -1.
<mgrwt>
<rscale>  2 0.99726133E+03</rscale>
<asrwt>0</asrwt>
<pdfrwt beam="1">  1       21 0.19694590E+00 0.99784958E+03</pdfrwt>
<pdfrwt beam="2">  1       21 0.11939044E+00 0.99784958E+03</pdfrwt>
<totfact> 0.37625777E+01</totfact>
</mgrwt>
</event>
<event>
 8    1  0.5815007E-006  0.1034469E+04  0.7818608E-02  0.8746543E-01
         21   -1    0    0  503  502  0.00000000000E+00  0.00000000000E+00  0.50064315094E+03  0.50064315094E+03  0.00000000000E+00 0. -1.
         21   -1    0    0  501  503 -0.00000000000E+00 -0.00000000000E+00 -0.22412190885E+04  0.22412190885E+04  0.00000000000E+00 0. -1.
    9000010    2    1    2  501    0  0.18460383986E+03  0.42894759927E+03 -0.12028266775E+04  0.15759718364E+04  0.90488706061E+03 0.  0.
   -9000010    2    1    2    0  502 -0.18460383986E+03 -0.42894759927E+03 -0.53774926004E+03  0.11658904030E+04  0.92306638143E+03 0.  0.
        -13    1    3    3    0    0  0.52213613711E+03  0.14319114094E+03 -0.45524722167E+03  0.70737535476E+03  0.10566000000E+00 0.  1.
          4    1    3    3  501    0 -0.33753229725E+03  0.28575645833E+03 -0.74757945582E+03  0.86859648165E+03  0.00000000000E+00 0.  1.
         13    1    4    4    0    0  0.28873033312E+03 -0.14907283442E+03  0.84237310239E+02  0.33568415337E+03  0.10566000000E+00 0. -1.
         -4    1    4    4    0  502 -0.47333417298E+03 -0.27987476486E+03 -0.62198657028E+03  0.83020624963E+03  0.00000000000E+00 0. -1.
<mgrwt>
<rscale>  2 0.10303979E+04</rscale>
<asrwt>0</asrwt>
<pdfrwt beam="1">  1       21 0.77022023E-01 0.10344690E+04</pdfrwt>
<pdfrwt beam="2">  1       21 0.34480294E+00 0.10344690E+04</pdfrwt>
<totfact> 0.98756958E+00</totfact>
</mgrwt>
</event>
<event>
 8    1  0.5815007E-006  0.1057259E+04  0.7818608E-02  0.8728536E-01
         21   -1    0    0  503  502  0.00000000000E+00  0.00000000000E+00  0.89509839557E+03  0.89509839557E+03  0.00000000000E+00 0.  1.
         21   -1    0    0  501  503 -0.00000000000E+00 -0.00000000000E+00 -0.13547754826E+04  0.13547754826E+04  0.00000000000E+00 0.  1.
    9000010    2    1    2  501    0 -0.23047052860E+03  0.23982712302E+03 -0.58541909692E+03  0.11851633407E+04  0.97532707932E+03 0.  0.
   -9000010    2    1    2    0  502  0.23047052860E+03 -0.23982712302E+03  0.12574200993E+03  0.10647105374E+04  0.10035754889E+04 0.  0.
        -13    1    3    3    0    0 -0.11590471893E+03  0.20564096441E+03  0.24848373404E+03  0.34273355155E+03  0.10566000000E+00 0.  1.
          4    1    3    3  501    0 -0.11456580967E+03  0.34186158607E+02 -0.83390283096E+03  0.84242978916E+03  0.00000000000E+00 0.  1.
         13    1    4    4    0    0  0.53752428905E+03 -0.27328215020E+03  0.33673165171E+03  0.69065455285E+03  0.10566000000E+00 0. -1.
         -4    1    4    4    0  502 -0.30705376045E+03  0.33455027176E+02 -0.21098964178E+03  0.37405598457E+03  0.00000000000E+00 0. -1.
<mgrwt>
<rscale>  2 0.10505010E+04</rscale>
<asrwt>0</asrwt>
<pdfrwt beam="1">  1       21 0.13770745E+00 0.10572594E+04</pdfrwt>
<pdfrwt beam="2">  1       21 0.20842700E+00 0.10572594E+04</pdfrwt>
<totfact> 0.20064896E+01</totfact>
</mgrwt>
</event>
<event>
 8    1  0.5815007E-006  0.1028603E+04  0.7818608E-02  0.8754948E-01
         21   -1    0    0  503  502  0.00000000000E+00  0.00000000000E+00  0.69770205760E+03  0.69770205760E+03  0.00000000000E+00 0. -1.
         21   -1    0    0  501  503 -0.00000000000E+00 -0.00000000000E+00 -0.14985361218E+04  0.14985361218E+04  0.00000000000E+00 0. -1.
    9000010    2    1    2  501    0  0.27128376392E+03 -0.20301020704E+03 -0.53689720064E+03  0.11343118535E+04  0.93999827242E+03 0.  0.
   -9000010    2    1    2    0  502 -0.27128376392E+03  0.20301020704E+03 -0.26393686352E+03  0.10619263259E+04  0.97119350748E+03 0.  0.
        -13    1    3    3    0    0  0.10399156291E+03  0.36894106823E+03 -0.10223266886E+03  0.39671562451E+03  0.10566000000E+00 0.  1.
          4    1    3    3  501    0  0.16729220101E+03 -0.57195127527E+03 -0.43466453179E+03  0.73759622897E+03  0.00000000000E+00 0.  1.
         13    1    4    4    0    0  0.16480670141E+03  0.47446136598E+03 -0.47479931056E+02  0.50450886182E+03  0.10566000000E+00 0. -1.
         -4    1    4    4    0  502 -0.43609046533E+03 -0.27145115894E+03 -0.21645693246E+03  0.55741746407E+03  0.00000000000E+00 0. -1.
<mgrwt>
<rscale>  2 0.10211729E+04</rscale>
<asrwt>0</asrwt>
<pdfrwt beam="1">  1       21 0.10733878E+00 0.10286034E+04</pdfrwt>
<pdfrwt beam="2">  1       21 0.23054402E+00 0.10286034E+04</pdfrwt>
<totfact> 0.27732585E+01</totfact>
</mgrwt>
</event>
<event>
 8    1  0.5815007E-006  0.1335233E+04  0.7818608E-02  0.8513332E-01
         21   -1    0    0  501  502  0.00000000000E+00  0.00000000000E+00  0.97935377062E+03  0.97935377062E+03  0.00000000000E+00 0.  1.
         21   -1    0    0  502  503 -0.00000000000E+00 -0.00000000000E+00 -0.18067438902E+04  0.18067438902E+04  0.00000000000E+00 0.  1.
   -9000010    2    1    2    0  503 -0.63414021408E+03 -0.62714768407E+03 -0.34429122332E+03  0.13661571146E+04  0.97591023492E+03 0.  0.
    9000010    2    1    2  501    0  0.63414021408E+03  0.62714768407E+03 -0.48309889621E+03  0.14199405462E+04  0.99367931564E+03 0.  0.
        -13    1    4    4    0    0  0.77207637749E+03  0.79792342259E+03 -0.35452280123E+03  0.11655342761E+04  0.10566000000E+00 0.  1.
          4    1    4    4  501    0 -0.13793616341E+03 -0.17077573852E+03 -0.12857609497E+03  0.25440627005E+03  0.00000000000E+00 0.  1.
         13    1    3    3    0    0 -0.49563371654E+03  0.87239854923E+01 -0.49243331623E+03  0.69872703611E+03  0.10566000000E+00 0. -1.
         -4    1    3    3    0  503 -0.13850649754E+03 -0.63587166957E+03  0.14814209290E+03  0.66743007852E+03  0.00000000000E+00 0. -1.
<mgrwt>
<rscale>  2 0.13319279E+04</rscale>
<asrwt>0</asrwt>
<pdfrwt beam="1">  1       21 0.15066981E+00 0.13352328E+04</pdfrwt>
<pdfrwt beam="2">  1       21 0.27796060E+00 0.13352328E+04</pdfrwt>
<totfact> 0.44388625E+00</totfact>
</mgrwt>
</event>
<event>
 8    1  0.5815007E-006  0.1312136E+04  0.7818608E-02  0.8527736E-01
         21   -1    0    0  503  502  0.00000000000E+00  0.00000000000E+00  0.93165715151E+03  0.93165715151E+03  0.00000000000E+00 0.  1.
         21   -1    0    0  501  503 -0.00000000000E+00 -0.00000000000E+00 -0.19631285500E+04  0.19631285500E+04  0.00000000000E+00 0.  1.
    9000010    2    1    2  501    0 -0.79119790250E+03  0.27679395340E+03 -0.15226962655E+03  0.13209417426E+04  0.10095008840E+04 0.  0.
   -9000010    2    1    2    0  502  0.79119790250E+03 -0.27679395340E+03 -0.87920177197E+03  0.15738439589E+04  0.10006897809E+04 0.  0.
        -13    1    3    3    0    0  0.20305298116E+03  0.14981912295E+03 -0.19315593943E+03  0.31778217517E+03  0.10566000000E+00 0.  1.
          4    1    3    3  501    0 -0.99425088365E+03  0.12697483045E+03  0.40886312877E+02  0.10031595675E+04  0.00000000000E+00 0.  1.
         13    1    4    4    0    0  0.87719245267E+03  0.10986287947E+03 -0.74352469348E+03  0.11551473639E+04  0.10566000000E+00 0. -1.
         -4    1    4    4    0  502 -0.85994550171E+02 -0.38665683286E+03 -0.13567707849E+03  0.41869659503E+03  0.00000000000E+00 0. -1.
<mgrwt>
<rscale>  2 0.13104411E+04</rscale>
<asrwt>0</asrwt>
<pdfrwt beam="1">  1       21 0.14333187E+00 0.13121361E+04</pdfrwt>
<pdfrwt beam="2">  1       21 0.30201977E+00 0.13121361E+04</pdfrwt>
<totfact> 0.35038681E+00</totfact>
</mgrwt>
</event>
<event>
 8    1  0.5815007E-006  0.1138877E+04  0.7818608E-02  0.8659827E-01
         21   -1    0    0  503  502  0.00000000000E+00  0.00000000000E+00  0.14640134068E+04  0.14640134068E+04  0.00000000000E+00 0. -1.
         21   -1    0    0  501  503 -0.00000000000E+00 -0.00000000000E+00 -0.86405657534E+03  0.86405657534E+03  0.00000000000E+00 0. -1.
    9000010    2    1    2  501    0  0.35366697477E+03 -0.43809129890E+03  0.30068095466E+03  0.11505271140E+04  0.95723523140E+03 0.  0.
   -9000010    2    1    2    0  502 -0.35366697477E+03  0.43809129890E+03  0.29927587677E+03  0.11775428681E+04  0.98996810085E+03 0.  0.
        -13    1    3    3    0    0  0.58582666601E+03 -0.56625786695E+03  0.33920817381E+03  0.88255484296E+03  0.10566000000E+00 0.  1.
          4    1    3    3  501    0 -0.23215969124E+03  0.12816656805E+03 -0.38527219150E+02  0.26797227099E+03  0.00000000000E+00 0.  1.
         13    1    4    4    0    0 -0.69941622216E+03  0.24592220977E+03  0.16242919901E+03  0.75897565240E+03  0.10566000000E+00 0. -1.
         -4    1    4    4    0  502  0.34574924739E+03  0.19216908913E+03  0.13684667775E+03  0.41856721575E+03  0.00000000000E+00 0. -1.
<mgrwt>
<rscale>  2 0.11317263E+04</rscale>
<asrwt>0</asrwt>
<pdfrwt beam="1">  1       21 0.22523283E+00 0.11388771E+04</pdfrwt>
<pdfrwt beam="2">  1       21 0.13293178E+00 0.11388771E+04</pdfrwt>
<totfact> 0.16310091E+01</totfact>
</mgrwt>
</event>
<event>
 8    1  0.5815007E-006  0.1229764E+04  0.7818608E-02  0.8584840E-01
         21   -1    0    0  503  502  0.00000000000E+00  0.00000000000E+00  0.51403120298E+03  0.51403120298E+03  0.00000000000E+00 0.  1.
         21   -1    0    0  501  503 -0.00000000000E+00 -0.00000000000E+00 -0.31199761091E+04  0.31199761091E+04  0.00000000000E+00 0. -1.
    9000010    2    1    2  501    0  0.50912543238E+03  0.47277042696E+03 -0.17415700464E+04  0.21308558834E+04  0.10123042957E+04 0.  0.
   -9000010    2    1    2    0  502 -0.50912543238E+03 -0.47277042696E+03 -0.86437485975E+03  0.15031514287E+04  0.10146919418E+04 0.  0.
        -13    1    3    3    0    0  0.27726969443E+03  0.49571032680E+03 -0.24892691725E+03  0.62013855939E+03  0.10566000000E+00 0.  1.
          4    1    3    3  501    0  0.23185573795E+03 -0.22939899838E+02 -0.14926431291E+04  0.15107173240E+04  0.00000000000E+00 0.  1.
         13    1    4    4    0    0 -0.37586830746E+02 -0.43451959955E+03  0.83233513284E+02  0.44401337946E+03  0.10566000000E+00 0. -1.
         -4    1    4    4    0  502 -0.47153860163E+03 -0.38250827415E+02 -0.94760837304E+03  0.10591380492E+04  0.00000000000E+00 0. -1.
<mgrwt>
<rscale>  2 0.12292717E+04</rscale>
<asrwt>0</asrwt>
<pdfrwt beam="1">  1       21 0.79081724E-01 0.12297643E+04</pdfrwt>
<pdfrwt beam="2">  1       21 0.47999632E+00 0.12297643E+04</pdfrwt>
<totfact> 0.10190005E+00</totfact>
</mgrwt>
</event>
<event>
 8    1  0.5815007E-006  0.1156579E+04  0.7818608E-02  0.8640037E-01
         21   -1    0    0  501  502  0.00000000000E+00  0.00000000000E+00  0.88668913268E+03  0.88668913268E+03  0.00000000000E+00 0. -1.
         21   -1    0    0  502  503 -0.00000000000E+00 -0.00000000000E+00 -0.15854137690E+04  0.15854137690E+04  0.00000000000E+00 0. -1.
   -9000010    2    1    2    0  503  0.14990389440E+02  0.57972067697E+03 -0.62184347264E+03  0.13129709647E+04  0.10004512354E+04 0.  0.
    9000010    2    1    2  501    0 -0.14990389440E+02 -0.57972067697E+03 -0.76881163697E+02  0.11591319370E+04  0.10006874432E+04 0.  0.
        -13    1    4    4    0    0 -0.16949895988E+03  0.12769708893E+03 -0.32976426392E+03  0.39214911048E+03  0.10566000000E+00 0.  1.
          4    1    4    4  501    0  0.15450857044E+03 -0.70741776590E+03  0.25288310023E+03  0.76698282656E+03  0.00000000000E+00 0.  1.
         13    1    3    3    0    0  0.46619394519E+03  0.70145287682E+02 -0.19920935584E+03  0.51180224162E+03  0.10566000000E+00 0. -1.
         -4    1    3    3    0  503 -0.45120355575E+03  0.50957538929E+03 -0.42263411680E+03  0.80116872303E+03  0.00000000000E+00 0. -1.
<mgrwt>
<rscale>  2 0.11565284E+04</rscale>
<asrwt>0</asrwt>
<pdfrwt beam="1">  1       21 0.13641371E+00 0.11565795E+04</pdfrwt>
<pdfrwt beam="2">  1       21 0.24390981E+00 0.11565795E+04</pdfrwt>
<totfact> 0.10954169E+01</totfact>
</mgrwt>
</event>
<event>
 8    1  0.5815007E-006  0.1065534E+04  0.7818608E-02  0.8717541E-01
         21   -1    0    0  501  502  0.00000000000E+00  0.00000000000E+00  0.11274213801E+04  0.11274213801E+04  0.00000000000E+00 0. -1.
         21   -1    0    0  502  503 -0.00000000000E+00 -0.00000000000E+00 -0.14835459874E+04  0.14835459874E+04  0.00000000000E+00 0. -1.
   -9000010    2    1    2    0  503 -0.31225861911E+03  0.74511649826E+02 -0.92468669162E+03  0.14032319571E+04  0.10054635830E+04 0.  0.
    9000010    2    1    2  501    0  0.31225861911E+03 -0.74511649826E+02  0.56856208433E+03  0.12077354105E+04  0.10160238909E+04 0.  0.
        -13    1    4    4    0    0  0.43156891359E+03  0.27099506061E+03 -0.25489242608E+02  0.51023500733E+03  0.10566000000E+00 0.  1.
          4    1    4    4  501    0 -0.11931029449E+03 -0.34550671044E+03  0.59405132694E+03  0.69750040313E+03  0.00000000000E+00 0.  1.
         13    1    3    3    0    0 -0.21290439858E+03  0.48643275488E+03 -0.20723405395E+03  0.56999216857E+03  0.10566000000E+00 0. -1.
         -4    1    3    3    0  503 -0.99354220530E+02 -0.41192110505E+03 -0.71745263767E+03  0.83323978855E+03  0.00000000000E+00 0. -1.
<mgrwt>
<rscale>  2 0.10630085E+04</rscale>
<asrwt>0</asrwt>
<pdfrwt beam="1">  1       21 0.17344944E+00 0.10655337E+04</pdfrwt>
<pdfrwt beam="2">  1       21 0.22823784E+00 0.10655337E+04</pdfrwt>
<totfact> 0.68877885E+00</totfact>
</mgrwt>
</event>
<event>
 8    1  0.5815007E-006  0.1213348E+04  0.7818608E-02  0.8598738E-01
         21   -1    0    0  501  502  0.00000000000E+00  0.00000000000E+00  0.20648152844E+04  0.20648152844E+04  0.00000000000E+00 0.  1.
         21   -1    0    0  502  503 -0.00000000000E+00 -0.00000000000E+00 -0.74902479331E+03  0.74902479331E+03  0.00000000000E+00 0.  1.
   -9000010    2    1    2    0  503  0.53153207147E+02 -0.67064729312E+03  0.99720511241E+03  0.15705514950E+04  0.10097627974E+04 0.  0.
    9000010    2    1    2  501    0 -0.53153207147E+02  0.67064729312E+03  0.31858537863E+03  0.12432885827E+04  0.99582970490E+03 0.  0.
        -13    1    4    4    0    0 -0.32531175356E+03 -0.13361506107E+03  0.69976140014E+02  0.35857689954E+03  0.10566000000E+00 0.  1.
          4    1    4    4  501    0  0.27215854641E+03  0.80426235419E+03  0.24860923862E+03  0.88471168314E+03  0.00000000000E+00 0.  1.
         13    1    3    3    0    0  0.17191133658E+03 -0.86163000566E+03  0.46786609404E+03  0.99541873973E+03  0.10566000000E+00 0. -1.
         -4    1    3    3    0  503 -0.11875812943E+03  0.19098271254E+03  0.52933901837E+03  0.57513275525E+03  0.00000000000E+00 0. -1.
<mgrwt>
<rscale>  2 0.12104452E+04</rscale>
<asrwt>0</asrwt>
<pdfrwt beam="1">  1       21 0.31766389E+00 0.12133482E+04</pdfrwt>
<pdfrwt beam="2">  1       21 0.11523458E+00 0.12133482E+04</pdfrwt>
<totfact> 0.52053085E+00</totfact>
</mgrwt>
</event>
<event>
 8    1  0.5815007E-006  0.1226266E+04  0.7818608E-02  0.8593069E-01
         21   -1    0    0  503  502  0.00000000000E+00  0.00000000000E+00  0.12850346463E+04  0.12850346463E+04  0.00000000000E+00 0.  1.
         21   -1    0    0  501  503 -0.00000000000E+00 -0.00000000000E+00 -0.12295182064E+04  0.12295182064E+04  0.00000000000E+00 0.  1.
    9000010    2    1    2  501    0 -0.15887811377E+03  0.57043141731E+03 -0.31213447316E+03  0.12653678139E+04  0.10738219211E+04 0.  0.
   -9000010    2    1    2    0  502  0.15887811377E+03 -0.57043141731E+03  0.36765091308E+03  0.12491850387E+04  0.10366589653E+04 0.  0.
        -13    1    3    3    0    0 -0.93840489717E+00  0.82481917400E+03  0.10914936771E+02  0.82489193075E+03  0.10566000000E+00 0.  1.
          4    1    3    3  501    0 -0.15793970887E+03 -0.25438775669E+03 -0.32304940993E+03  0.44047588316E+03  0.00000000000E+00 0.  1.
         13    1    4    4    0    0 -0.24036924957E+03 -0.43238732502E+03  0.59149497253E+03  0.77110471965E+03  0.10566000000E+00 0. -1.
         -4    1    4    4    0  502  0.39924736334E+03 -0.13804409229E+03 -0.22384405945E+03  0.47808031909E+03  0.00000000000E+00 0. -1.
<mgrwt>
<rscale>  2 0.12180822E+04</rscale>
<asrwt>0</asrwt>
<pdfrwt beam="1">  1       21 0.19769764E+00 0.12262658E+04</pdfrwt>
<pdfrwt beam="2">  1       21 0.18915665E+00 0.12262658E+04</pdfrwt>
<totfact> 0.84712320E+00</totfact>
</mgrwt>
</event>
<event>
 8    1  0.5815007E-006  0.1090552E+04  0.7818608E-02  0.8702958E-01
         21   -1    0    0  501  502  0.00000000000E+00  0.00000000000E+00  0.18093723793E+04  0.18093723793E+04  0.00000000000E+00 0.  1.
         21   -1    0    0  502  503 -0.00000000000E+00 -0.00000000000E+00 -0.69095067477E+03  0.69095067477E+03  0.00000000000E+00 0.  1.
   -9000010    2    1    2    0  503 -0.41842238896E+03 -0.31030911018E+02  0.91365098995E+03  0.13907131858E+04  0.96087711008E+03 0.  0.
    9000010    2    1    2  501    0  0.41842238896E+03  0.31030911018E+02  0.20477071458E+03  0.11096098683E+04  0.10066095575E+04 0.  0.
        -13    1    4    4    0    0  0.39916737379E+03 -0.27537327201E+03 -0.26179848551E+03  0.55109299525E+03  0.10566000000E+00 0.  1.
          4    1    4    4  501    0  0.19255015170E+02  0.30640418303E+03  0.46656920010E+03  0.55851687304E+03  0.00000000000E+00 0.  1.
         13    1    3    3    0    0 -0.35890940649E+03  0.63698353047E+02  0.11080246849E+04  0.11664442360E+04  0.10566000000E+00 0. -1.
         -4    1    3    3    0  503 -0.59512982466E+02 -0.94729264065E+02 -0.19437369493E+03  0.22426894978E+03  0.00000000000E+00 0. -1.
<mgrwt>
<rscale>  2 0.10798799E+04</rscale>
<asrwt>0</asrwt>
<pdfrwt beam="1">  1       21 0.27836498E+00 0.10905517E+04</pdfrwt>
<pdfrwt beam="2">  1       21 0.10630010E+00 0.10905517E+04</pdfrwt>
<totfact> 0.12626063E+01</totfact>
</mgrwt>
</event>
<event>
 8    1  0.5815007E-006  0.1121670E+04  0.7818608E-02  0.8678446E-01
         21   -1    0    0  503  502  0.00000000000E+00  0.00000000000E+00  0.74863439197E+03  0.74863439197E+03  0.00000000000E+00 0. -1.
         21   -1    0    0  501  503 -0.00000000000E+00 -0.00000000000E+00 -0.18173011025E+04  0.18173011025E+04  0.00000000000E+00 0. -1.
    9000010    2    1    2  501    0  0.85795723862E+02 -0.38916657449E+03 -0.98178208722E+03  0.14906509126E+04  0.10484906044E+04 0.  0.
   -9000010    2    1    2    0  502 -0.85795723862E+02  0.38916657449E+03 -0.86884623294E+02  0.10752845819E+04  0.99492535664E+03 0.  0.
        -13    1    3    3    0    0 -0.15730536279E+03  0.80336180438E+02 -0.94423367435E+03  0.96061236823E+03  0.10566000000E+00 0.  1.
          4    1    3    3  501    0  0.24310108665E+03 -0.46950275493E+03 -0.37548412872E+02  0.53003854438E+03  0.00000000000E+00 0.  1.
         13    1    4    4    0    0  0.41872553509E+02  0.31069634167E+03  0.43280470916E+03  0.53442067222E+03  0.10566000000E+00 0. -1.
         -4    1    4    4    0  502 -0.12766827737E+03  0.78470232822E+02 -0.51968933245E+03  0.54086390964E+03  0.00000000000E+00 0. -1.
<mgrwt>
<rscale>  2 0.11089811E+04</rscale>
<asrwt>0</asrwt>
<pdfrwt beam="1">  1       21 0.11517452E+00 0.11216702E+04</pdfrwt>
<pdfrwt beam="2">  1       21 0.27958479E+00 0.11216702E+04</pdfrwt>
<totfact> 0.98845266E+00</totfact>
</mgrwt>
</event>
<event>
 8    1  0.5815007E-006  0.1103585E+04  0.7818608E-02  0.8688129E-01
         21   -1    0    0  503  502  0.00000000000E+00  0.00000000000E+00  0.21565461151E+04  0.21565461151E+04  0.00000000000E+00 0.  1.
         21   -1    0    0  501  503 -0.00000000000E+00 -0.00000000000E+00 -0.55406920341E+03  0.55406920341E+03  0.00000000000E+00 0.  1.
    9000010    2    1    2  501    0 -0.11863011616E+02 -0.44508103971E+03  0.87078426112E+03  0.13865028518E+04  0.98279553600E+03 0.  0.
   -9000010    2    1    2    0  502  0.11863011616E+02  0.44508103971E+03  0.73169265060E+03  0.13241124668E+04  0.10097830593E+04 0.  0.
        -13    1    3    3    0    0  0.17248568540E+03 -0.66166711085E+03  0.29579764478E+03  0.74501740588E+03  0.10566000000E+00 0.  1.
          4    1    3    3  501    0 -0.18434869701E+03  0.21658607115E+03  0.57498661634E+03  0.64148544588E+03  0.00000000000E+00 0.  1.
         13    1    4    4    0    0 -0.27294950633E+03  0.66093551338E+03  0.33335311192E+03  0.78896228949E+03  0.10566000000E+00 0. -1.
         -4    1    4    4    0  502  0.28481251794E+03 -0.21585447367E+03  0.39833953868E+03  0.53515017729E+03  0.00000000000E+00 0. -1.
<mgrwt>
<rscale>  2 0.10973730E+04</rscale>
<asrwt>0</asrwt>
<pdfrwt beam="1">  1       21 0.33177632E+00 0.11035849E+04</pdfrwt>
<pdfrwt beam="2">  1       21 0.85241417E-01 0.11035849E+04</pdfrwt>
<totfact> 0.93565786E+00</totfact>
</mgrwt>
</event>
<event>
 8    1  0.5815007E-006  0.1100875E+04  0.7818608E-02  0.8689515E-01
         21   -1    0    0  503  502  0.00000000000E+00  0.00000000000E+00  0.14960657178E+04  0.14960657178E+04  0.00000000000E+00 0. -1.
         21   -1    0    0  501  503 -0.00000000000E+00 -0.00000000000E+00 -0.79527213846E+03  0.79527213846E+03  0.00000000000E+00 0. -1.
    9000010    2    1    2  501    0 -0.98059903102E+02  0.38489083789E+03  0.33627535662E+03  0.11510893210E+04  0.10267272315E+04 0.  0.
   -9000010    2    1    2    0  502  0.98059903102E+02 -0.38489083789E+03  0.36451822272E+03  0.11402485352E+04  0.10047569287E+04 0.  0.
        -13    1    3    3    0    0 -0.38567680135E+03  0.25763744990E+03 -0.21900922562E+03  0.51292173162E+03  0.10566000000E+00 0.  1.
          4    1    3    3  501    0  0.28761689825E+03  0.12725338799E+03  0.55528458224E+03  0.63816758942E+03  0.00000000000E+00 0.  1.
         13    1    4    4    0    0  0.39954809573E+03  0.17884371584E+03  0.10412936016E+03  0.44996298771E+03  0.10566000000E+00 0. -1.
         -4    1    4    4    0  502 -0.30148819263E+03 -0.56373455373E+03  0.26038886256E+03  0.69028554752E+03  0.00000000000E+00 0. -1.
<mgrwt>
<rscale>  2 0.10957235E+04</rscale>
<asrwt>0</asrwt>
<pdfrwt beam="1">  1       21 0.23016396E+00 0.11008749E+04</pdfrwt>
<pdfrwt beam="2">  1       21 0.12234956E+00 0.11008749E+04</pdfrwt>
<totfact> 0.19168258E+01</totfact>
</mgrwt>
</event>
<event>
 8    1  0.5815007E-006  0.1103918E+04  0.7818608E-02  0.8685773E-01
         21   -1    0    0  501  502  0.00000000000E+00  0.00000000000E+00  0.21782183092E+04  0.21782183092E+04  0.00000000000E+00 0. -1.
         21   -1    0    0  502  503 -0.00000000000E+00 -0.00000000000E+00 -0.61876323564E+03  0.61876323564E+03  0.00000000000E+00 0. -1.
   -9000010    2    1    2    0  503 -0.82064165677E+02 -0.42599972367E+03  0.31549787704E+03  0.11338322787E+04  0.99891262584E+03 0.  0.
    9000010    2    1    2  501    0  0.82064165677E+02  0.42599972367E+03  0.12439571965E+04  0.16631492661E+04  0.10150988536E+04 0.  0.
        -13    1    4    4    0    0  0.22361324010E+03 -0.27755642849E+03  0.24249530277E+03  0.43109678168E+03  0.10566000000E+00 0.  1.
          4    1    4    4  501    0 -0.14154907442E+03  0.70355615216E+03  0.10014618937E+04  0.12320524844E+04  0.00000000000E+00 0.  1.
         13    1    3    3    0    0  0.33286493676E+03  0.15703332079E+03  0.54222611977E+02  0.37201966719E+03  0.10566000000E+00 0. -1.
         -4    1    3    3    0  503 -0.41492910244E+03 -0.58303304446E+03  0.26127526506E+03  0.76181261155E+03  0.00000000000E+00 0. -1.
<mgrwt>
<rscale>  2 0.11001832E+04</rscale>
<asrwt>0</asrwt>
<pdfrwt beam="1">  1       21 0.33511050E+00 0.11039185E+04</pdfrwt>
<pdfrwt beam="2">  1       21 0.95194345E-01 0.11039185E+04</pdfrwt>
<totfact> 0.66828606E+00</totfact>
</mgrwt>
</event>
<event>
 8    1  0.5815007E-006  0.1058315E+04  0.7818608E-02  0.8724466E-01
         21   -1    0    0  501  502  0.00000000000E+00  0.00000000000E+00  0.21793938477E+04  0.21793938477E+04  0.00000000000E+00 0. -1.
         21   -1    0    0  502  503 -0.00000000000E+00 -0.00000000000E+00 -0.50775154793E+03  0.50775154793E+03  0.00000000000E+00 0. -1.
   -9000010    2    1    2    0  503  0.59093370528E+02  0.32766330654E+03  0.84775744625E+03  0.13559951981E+04  0.10045770358E+04 0.  0.
    9000010    2    1    2  501    0 -0.59093370528E+02 -0.32766330654E+03  0.82388485354E+03  0.13311501975E+04  0.99112023873E+03 0.  0.
        -13    1    4    4    0    0  0.71060507611E+02  0.13882406183E+03 -0.16684456925E+03  0.22838309337E+03  0.10566000000E+00 0.  1.
          4    1    4    4  501    0 -0.13015387814E+03 -0.46648736837E+03  0.99072942280E+03  0.11027671042E+04  0.00000000000E+00 0.  1.
         13    1    3    3    0    0  0.48152657906E+03  0.38757615535E+03  0.39332042334E+03  0.73265550508E+03  0.10566000000E+00 0. -1.
         -4    1    3    3    0  503 -0.42243320854E+03 -0.59912848816E+02  0.45443702291E+03  0.62333969304E+03  0.00000000000E+00 0. -1.
<mgrwt>
<rscale>  2 0.10551091E+04</rscale>
<asrwt>0</asrwt>
<pdfrwt beam="1">  1       21 0.33529136E+00 0.10583148E+04</pdfrwt>
<pdfrwt beam="2">  1       21 0.78115624E-01 0.10583148E+04</pdfrwt>
<totfact> 0.11071137E+01</totfact>
</mgrwt>
</event>
<event>
 8    1  0.5815007E-006  0.1044787E+04  0.7818608E-02  0.8741533E-01
         21   -1    0    0  503  502  0.00000000000E+00  0.00000000000E+00  0.81064598057E+03  0.81064598057E+03  0.00000000000E+00 0.  1.
         21   -1    0    0  501  503 -0.00000000000E+00 -0.00000000000E+00 -0.13044806409E+04  0.13044806409E+04  0.00000000000E+00 0.  1.
    9000010    2    1    2  501    0 -0.93700188844E+02 -0.60711888301E+02 -0.28957382987E+03  0.10505603417E+04  0.10036724415E+04 0.  0.
   -9000010    2    1    2    0  502  0.93700188844E+02  0.60711888301E+02 -0.20426083042E+03  0.10645662797E+04  0.10388037439E+04 0.  0.
        -13    1    3    3    0    0  0.42103069158E+03 -0.21465096243E+03 -0.13844091252E+03  0.49245078572E+03  0.10566000000E+00 0.  1.
          4    1    3    3  501    0 -0.51473088043E+03  0.15393907413E+03 -0.15113291734E+03  0.55810955602E+03  0.00000000000E+00 0.  1.
         13    1    4    4    0    0  0.51246282623E+03  0.11579164849E+02 -0.34748179560E+03  0.61927040520E+03  0.10566000000E+00 0. -1.
         -4    1    4    4    0  502 -0.41876263738E+03  0.49132723452E+02  0.14322096518E+03  0.44529587450E+03  0.00000000000E+00 0. -1.
<mgrwt>
<rscale>  2 0.10359441E+04</rscale>
<asrwt>0</asrwt>
<pdfrwt beam="1">  1       21 0.12471477E+00 0.10447865E+04</pdfrwt>
<pdfrwt beam="2">  1       21 0.20068933E+00 0.10447865E+04</pdfrwt>
<totfact> 0.30781391E+01</totfact>
</mgrwt>
</event>
<event>
 8    1  0.5815007E-006  0.1128085E+04  0.7818608E-02  0.8674793E-01
         21   -1    0    0  501  502  0.00000000000E+00  0.00000000000E+00  0.97904504409E+03  0.97904504409E+03  0.00000000000E+00 0. -1.
         21   -1    0    0  502  503 -0.00000000000E+00 -0.00000000000E+00 -0.17769022409E+04  0.17769022409E+04  0.00000000000E+00 0. -1.
   -9000010    2    1    2    0  503 -0.21923792696E+03  0.44633670757E+03 -0.11529599458E+04  0.15732921408E+04  0.94797141229E+03 0.  0.
    9000010    2    1    2  501    0  0.21923792696E+03 -0.44633670757E+03  0.35510274894E+03  0.11826551442E+04  0.10125677769E+04 0.  0.
        -13    1    4    4    0    0 -0.64449682059E+02  0.30097625538E+03 -0.44844821299E+00  0.30779974024E+03  0.10566000000E+00 0.  1.
          4    1    4    4  501    0  0.28368760902E+03 -0.74731296295E+03  0.35555119715E+03  0.87485540400E+03  0.00000000000E+00 0.  1.
         13    1    3    3    0    0  0.16634384708E+03  0.26972408303E+03 -0.11013790874E+04  0.11460616309E+04  0.10566000000E+00 0. -1.
         -4    1    3    3    0  503 -0.38558177405E+03  0.17661262455E+03 -0.51580858356E+02  0.42723050988E+03  0.00000000000E+00 0. -1.
<mgrwt>
<rscale>  2 0.11133998E+04</rscale>
<asrwt>0</asrwt>
<pdfrwt beam="1">  1       21 0.15062231E+00 0.11280848E+04</pdfrwt>
<pdfrwt beam="2">  1       21 0.27336957E+00 0.11280848E+04</pdfrwt>
<totfact> 0.50019656E+00</totfact>
</mgrwt>
</event>
<event>
 8    1  0.5815007E-006  0.1049243E+04  0.7818608E-02  0.8737186E-01
         21   -1    0    0  501  502  0.00000000000E+00  0.00000000000E+00  0.58893089456E+03  0.58893089456E+03  0.00000000000E+00 0. -1.
         21   -1    0    0  502  503 -0.00000000000E+00 -0.00000000000E+00 -0.18116057166E+04  0.18116057166E+04  0.00000000000E+00 0. -1.
   -9000010    2    1    2    0  503  0.21520498275E+03 -0.19327698819E+03 -0.65388435871E+03  0.12363156657E+04  0.10085844000E+04 0.  0.
    9000010    2    1    2  501    0 -0.21520498275E+03  0.19327698819E+03 -0.56879046333E+03  0.11642209455E+04  0.97376518724E+03 0.  0.
        -13    1    4    4    0    0  0.93150253837E+02  0.27089709542E+02  0.25296156022E+03  0.27092505286E+03  0.10566000000E+00 0.  1.
          4    1    4    4  501    0 -0.30835523659E+03  0.16618727865E+03 -0.82175202355E+03  0.89329589259E+03  0.00000000000E+00 0.  1.
         13    1    3    3    0    0  0.32621889246E+03  0.20103232848E+03  0.84058678824E+02  0.39229916587E+03  0.10566000000E+00 0. -1.
         -4    1    3    3    0  503 -0.11101390971E+03 -0.39430931668E+03 -0.73794303753E+03  0.84401649985E+03  0.00000000000E+00 0. -1.
<mgrwt>
<rscale>  2 0.10407855E+04</rscale>
<asrwt>0</asrwt>
<pdfrwt beam="1">  1       21 0.90604753E-01 0.10492434E+04</pdfrwt>
<pdfrwt beam="2">  1       21 0.27870857E+00 0.10492434E+04</pdfrwt>
<totfact> 0.19198837E+01</totfact>
</mgrwt>
</event>
<event>
 8    1  0.5815007E-006  0.1334766E+04  0.7818608E-02  0.8523693E-01
         21   -1    0    0  503  502  0.00000000000E+00  0.00000000000E+00  0.12779758662E+04  0.12779758662E+04  0.00000000000E+00 0. -1.
         21   -1    0    0  501  503 -0.00000000000E+00 -0.00000000000E+00 -0.14259189196E+04  0.14259189196E+04  0.00000000000E+00 0.  1.
    9000010    2    1    2  501    0 -0.66369842118E+03  0.50886432958E+03 -0.44033275093E+03  0.13374787474E+04  0.94631811138E+03 0.  0.
   -9000010    2    1    2    0  502  0.66369842118E+03 -0.50886432958E+03  0.29238969745E+03  0.13664160384E+04  0.10402704238E+04 0.  0.
        -13    1    3    3    0    0 -0.54007006331E+03  0.40932975279E+03  0.17673185239E+03  0.70032897885E+03  0.10566000000E+00 0.  1.
          4    1    3    3  501    0 -0.12362835786E+03  0.99534576785E+02 -0.61706460333E+03  0.63714976852E+03  0.00000000000E+00 0.  1.
         13    1    4    4    0    0  0.34587015446E+03 -0.80739920550E+03  0.30605057633E+03  0.93015407714E+03  0.10566000000E+00 0. -1.
         -4    1    4    4    0  502  0.31782826672E+03  0.29853487592E+03 -0.13660878874E+02  0.43626196130E+03  0.00000000000E+00 0. -1.
<mgrwt>
<rscale>  2 0.13164293E+04</rscale>
<asrwt>0</asrwt>
<pdfrwt beam="1">  1       21 0.19661167E+00 0.13347663E+04</pdfrwt>
<pdfrwt beam="2">  1       21 0.21937214E+00 0.13347663E+04</pdfrwt>
<totfact> 0.49248510E+00</totfact>
</mgrwt>
</event>
<event>
 8    1  0.5815007E-006  0.1043995E+04  0.7818608E-02  0.8769039E-01
         21   -1    0    0  501  502  0.00000000000E+00  0.00000000000E+00  0.15969520644E+04  0.15969520644E+04  0.00000000000E+00 0.  1.
         21   -1    0    0  502  503 -0.00000000000E+00 -0.00000000000E+00 -0.60519837443E+03  0.60519837443E+03  0.00000000000E+00 0.  1.
   -9000010    2    1    2    0  503  0.94746422457E+02 -0.24386279655E+03  0.29492723060E+03  0.94696433516E+03  0.86099560545E+03 0.  0.
    9000010    2    1    2  501    0 -0.94746422457E+02  0.24386279655E+03  0.69682645941E+03  0.12551861037E+04  0.10106824884E+04 0.  0.
        -13    1    4    4    0    0  0.58856644398E+02  0.39591409520E+03 -0.11389119114E+03  0.41615296461E+03  0.10566000000E+00 0.  1.
          4    1    4    4  501    0 -0.15360306685E+03 -0.15205129865E+03  0.81071765056E+03  0.83903313909E+03  0.00000000000E+00 0.  1.
         13    1    3    3    0    0 -0.37833160368E+02  0.31407902176E+03  0.17338589236E+03  0.36074874743E+03  0.10566000000E+00 0. -1.
         -4    1    3    3    0  503  0.13257958282E+03 -0.55794181831E+03  0.12154133824E+03  0.58621558774E+03  0.00000000000E+00 0. -1.
<mgrwt>
<rscale>  2 0.10059311E+04</rscale>
<asrwt>0</asrwt>
<pdfrwt beam="1">  1       21 0.24568493E+00 0.10439948E+04</pdfrwt>
<pdfrwt beam="2">  1       21 0.93107443E-01 0.10439948E+04</pdfrwt>
<totfact> 0.31011714E+01</totfact>
</mgrwt>
</event>
<event>
 8    1  0.5815007E-006  0.1056285E+04  0.7818608E-02  0.8733074E-01
         21   -1    0    0  501  502  0.00000000000E+00  0.00000000000E+00  0.13376867563E+04  0.13376867563E+04  0.00000000000E+00 0. -1.
         21   -1    0    0  502  503 -0.00000000000E+00 -0.00000000000E+00 -0.80291923026E+03  0.80291923026E+03  0.00000000000E+00 0. -1.
   -9000010    2    1    2    0  503  0.10464536633E+03  0.31332922283E+02  0.20363130248E+03  0.10336326817E+04  0.10074712942E+04 0.  0.
    9000010    2    1    2  501    0 -0.10464536633E+03 -0.31332922283E+02  0.33113622356E+03  0.11069733048E+04  0.10506218608E+04 0.  0.
        -13    1    4    4    0    0 -0.27263847541E+03 -0.23290491869E+03 -0.27144955123E+03  0.44973471008E+03  0.10566000000E+00 0.  1.
          4    1    4    4  501    0  0.16799310908E+03  0.20157199641E+03  0.60258577479E+03  0.65723859474E+03  0.00000000000E+00 0.  1.
         13    1    3    3    0    0  0.11239963071E+03  0.38704163296E+03  0.44753562562E+03  0.60226493339E+03  0.10566000000E+00 0. -1.
         -4    1    3    3    0  503 -0.77542643832E+01 -0.35570871068E+03 -0.24390432314E+03  0.43136774835E+03  0.00000000000E+00 0. -1.
<mgrwt>
<rscale>  2 0.10453906E+04</rscale>
<asrwt>0</asrwt>
<pdfrwt beam="1">  1       21 0.20579796E+00 0.10562853E+04</pdfrwt>
<pdfrwt beam="2">  1       21 0.12352604E+00 0.10562853E+04</pdfrwt>
<totfact> 0.28802142E+01</totfact>
</mgrwt>
</event>
<event>
 8    1  0.5815007E-006  0.1058818E+04  0.7818608E-02  0.8726089E-01
         21   -1    0    0  503  502  0.00000000000E+00  0.00000000000E+00  0.87618785209E+03  0.87618785209E+03  0.00000000000E+00 0.  1.
         21   -1    0    0  501  503 -0.00000000000E+00 -0.00000000000E+00 -0.12574153815E+04  0.12574153815E+04  0.00000000000E+00 0.  1.
    9000010    2    1    2  501    0 -0.30332578314E+03 -0.15075481938E+02 -0.25152347139E+03  0.10668710036E+04  0.99132027152E+03 0.  0.
   -9000010    2    1    2    0  502  0.30332578314E+03  0.15075481938E+02 -0.12970405803E+03  0.10667322300E+04  0.10143277119E+04 0.  0.
        -13    1    3    3    0    0  0.17075895673E+03  0.30521902933E+03  0.13664080803E+03  0.37548368640E+03  0.10566000000E+00 0.  1.
          4    1    3    3  501    0 -0.47408473987E+03 -0.32029451127E+03 -0.38816427942E+03  0.69138731717E+03  0.00000000000E+00 0.  1.
         13    1    4    4    0    0  0.77806152592E+02 -0.44235678916E+02 -0.56546318563E+03  0.57250259226E+03  0.10566000000E+00 0. -1.
         -4    1    4    4    0  502  0.22551963055E+03  0.59311160855E+02  0.43575912760E+03  0.49422963777E+03  0.00000000000E+00 0. -1.
<mgrwt>
<rscale>  2 0.10532691E+04</rscale>
<asrwt>0</asrwt>
<pdfrwt beam="1">  1       21 0.13479813E+00 0.10588175E+04</pdfrwt>
<pdfrwt beam="2">  1       21 0.19344852E+00 0.10588175E+04</pdfrwt>
<totfact> 0.27951796E+01</totfact>
</mgrwt>
</event>
<event>
 8    1  0.5815007E-006  0.1181329E+04  0.7818608E-02  0.8625129E-01
         21   -1    0    0  501  502  0.00000000000E+00  0.00000000000E+00  0.27455087914E+04  0.27455087914E+04  0.00000000000E+00 0.  1.
         21   -1    0    0  502  503 -0.00000000000E+00 -0.00000000000E+00 -0.51967903071E+03  0.51967903071E+03  0.00000000000E+00 0. -1.
   -9000010    2    1    2    0  503 -0.58088814474E+03  0.90043767556E+02  0.79472138216E+03  0.14237693413E+04  0.10246941715E+04 0.  0.
    9000010    2    1    2  501    0  0.58088814474E+03 -0.90043767556E+02  0.14311083785E+04  0.18414184808E+04  0.99860498379E+03 0.  0.
        -13    1    4    4    0    0  0.31785859591E+03 -0.41424599494E+03  0.23135437002E+03  0.57110304413E+03  0.10566000000E+00 0.  1.
          4    1    4    4  501    0  0.26302954883E+03  0.32420222739E+03  0.11997540085E+04  0.12703154367E+04  0.00000000000E+00 0.  1.
         13    1    3    3    0    0 -0.56485888036E+03  0.77898193522E+02  0.10355203550E+04  0.11821320147E+04  0.10566000000E+00 0. -1.
         -4    1    3    3    0  503 -0.16029264374E+02  0.12145574033E+02 -0.24079897285E+03  0.24163732661E+03  0.00000000000E+00 0. -1.
<mgrwt>
<rscale>  2 0.11756484E+04</rscale>
<asrwt>0</asrwt>
<pdfrwt beam="1">  1       21 0.42238596E+00 0.11813285E+04</pdfrwt>
<pdfrwt beam="2">  1       21 0.79950622E-01 0.11813285E+04</pdfrwt>
<totfact> 0.25158331E+00</totfact>
</mgrwt>
</event>
<event>
 8    1  0.5815007E-006  0.1178302E+04  0.7818608E-02  0.8626278E-01
         21   -1    0    0  501  502  0.00000000000E+00  0.00000000000E+00  0.43584539973E+04  0.43584539973E+04  0.00000000000E+00 0. -1.
         21   -1    0    0  502  503 -0.00000000000E+00 -0.00000000000E+00 -0.34724727577E+03  0.34724727577E+03  0.00000000000E+00 0. -1.
   -9000010    2    1    2    0  503 -0.57405268867E+03  0.11005925983E+03  0.12660546729E+04  0.17183519883E+04  0.10040864460E+04 0.  0.
    9000010    2    1    2  501    0  0.57405268867E+03 -0.11005925983E+03  0.27451520486E+04  0.29873492847E+04  0.10231062746E+04 0.  0.
        -13    1    4    4    0    0  0.40325046573E+03 -0.45338684683E+03  0.79631413813E+03  0.10011427414E+04  0.10566000000E+00 0.  1.
          4    1    4    4  501    0  0.17080222293E+03  0.34332758699E+03  0.19488379104E+04  0.19862065433E+04  0.00000000000E+00 0.  1.
         13    1    3    3    0    0 -0.59643304090E+03 -0.34324661371E+03  0.91327188308E+03  0.11435104519E+04  0.10566000000E+00 0. -1.
         -4    1    3    3    0  503  0.22380352236E+02  0.45330587355E+03  0.35278278986E+03  0.57484153641E+03  0.00000000000E+00 0. -1.
<mgrwt>
<rscale>  2 0.11741613E+04</rscale>
<asrwt>0</asrwt>
<pdfrwt beam="1">  1       21 0.67053135E+00 0.11783022E+04</pdfrwt>
<pdfrwt beam="2">  1       21 0.53422661E-01 0.11783022E+04</pdfrwt>
<totfact> 0.94466183E-02</totfact>
</mgrwt>
</event>
<event>
 8    1  0.5815007E-006  0.1318258E+04  0.7818608E-02  0.8525290E-01
         21   -1    0    0  501  502  0.00000000000E+00  0.00000000000E+00  0.21975293860E+04  0.21975293860E+04  0.00000000000E+00 0.  1.
         21   -1    0    0  502  503 -0.00000000000E+00 -0.00000000000E+00 -0.78667447478E+03  0.78667447478E+03  0.00000000000E+00 0. -1.
   -9000010    2    1    2    0  503 -0.60683931650E+03 -0.60565082923E+03  0.58102003880E+03  0.14406212304E+04  0.10013682445E+04 0.  0.
    9000010    2    1    2  501    0  0.60683931650E+03  0.60565082923E+03  0.82983487239E+03  0.15435826303E+04  0.97926224180E+03 0.  0.
        -13    1    4    4    0    0 -0.24440868937E+03  0.29907738317E+01  0.73545123247E+02  0.25525173552E+03  0.10566000000E+00 0.  1.
          4    1    4    4  501    0  0.85124800586E+03  0.60266005539E+03  0.75628974914E+03  0.12883308948E+04  0.00000000000E+00 0.  1.
         13    1    3    3    0    0 -0.57693890187E+03 -0.28546800062E+03  0.81818673362E+03  0.10410475580E+04  0.10566000000E+00 0. -1.
         -4    1    3    3    0  503 -0.29900414621E+02 -0.32018282861E+03 -0.23716669482E+03  0.39957367238E+03  0.00000000000E+00 0. -1.
<mgrwt>
<rscale>  2 0.13140602E+04</rscale>
<asrwt>0</asrwt>
<pdfrwt beam="1">  1       21 0.33808144E+00 0.13182584E+04</pdfrwt>
<pdfrwt beam="2">  1       21 0.12102684E+00 0.13182584E+04</pdfrwt>
<totfact> 0.31961337E+00</totfact>
</mgrwt>
</event>
<event>
 8    1  0.5815007E-006  0.1185672E+04  0.7818608E-02  0.8618648E-01
         21   -1    0    0  501  502  0.00000000000E+00  0.00000000000E+00  0.19839681232E+04  0.19839681232E+04  0.00000000000E+00 0.  1.
         21   -1    0    0  502  503 -0.00000000000E+00 -0.00000000000E+00 -0.71332047236E+03  0.71332047236E+03  0.00000000000E+00 0.  1.
   -9000010    2    1    2    0  503 -0.57765723942E+03 -0.23827276155E+03  0.48956636760E+03  0.12827678874E+04  0.10076489615E+04 0.  0.
    9000010    2    1    2  501    0  0.57765723942E+03  0.23827276155E+03  0.78108128326E+03  0.14145207081E+04  0.10001595211E+04 0.  0.
        -13    1    4    4    0    0  0.63560436815E+03  0.23469695754E+03  0.48113620739E+02  0.67925731969E+03  0.10566000000E+00 0.  1.
          4    1    4    4  501    0 -0.57947128734E+02  0.35758040122E+01  0.73296766252E+03  0.73526338845E+03  0.00000000000E+00 0.  1.
         13    1    3    3    0    0 -0.58415264804E+03 -0.87455891187E+02 -0.16318345079E+03  0.61279009367E+03  0.10566000000E+00 0. -1.
         -4    1    3    3    0  503  0.64954086269E+01 -0.15081687036E+03  0.65274981840E+03  0.66997779376E+03  0.00000000000E+00 0. -1.
<mgrwt>
<rscale>  2 0.11840793E+04</rscale>
<asrwt>0</asrwt>
<pdfrwt beam="1">  1       21 0.30522586E+00 0.11856721E+04</pdfrwt>
<pdfrwt beam="2">  1       21 0.10974161E+00 0.11856721E+04</pdfrwt>
<totfact> 0.73215253E+00</totfact>
</mgrwt>
</event>
<event>
 8    1  0.5815007E-006  0.1031672E+04  0.7818608E-02  0.8746443E-01
         21   -1    0    0  501  502  0.00000000000E+00  0.00000000000E+00  0.16586537690E+04  0.16586537690E+04  0.00000000000E+00 0.  1.
         21   -1    0    0  502  503 -0.00000000000E+00 -0.00000000000E+00 -0.71051876589E+03  0.71051876589E+03  0.00000000000E+00 0.  1.
   -9000010    2    1    2    0  503 -0.56698917343E+02  0.23460576249E+03  0.85136929732E+03  0.13376013378E+04  0.10030418872E+04 0.  0.
    9000010    2    1    2  501    0  0.56698917343E+02 -0.23460576249E+03  0.96765705780E+02  0.10315711970E+04  0.99825893521E+03 0.  0.
        -13    1    4    4    0    0  0.12329327357E+03  0.34916868045E+03  0.22070533503E+03  0.43108103042E+03  0.10566000000E+00 0.  1.
          4    1    4    4  501    0 -0.66594356228E+02 -0.58377444294E+03 -0.12393962925E+03  0.60049016662E+03  0.00000000000E+00 0.  1.
         13    1    3    3    0    0  0.37028598953E+03 -0.20102839640E+03  0.33094601068E+03  0.53576991643E+03  0.10566000000E+00 0. -1.
         -4    1    3    3    0  503 -0.42698490687E+03  0.43563415888E+03  0.52042328664E+03  0.80183142141E+03  0.00000000000E+00 0. -1.
<mgrwt>
<rscale>  2 0.10305079E+04</rscale>
<asrwt>0</asrwt>
<pdfrwt beam="1">  1       21 0.25517750E+00 0.10316723E+04</pdfrwt>
<pdfrwt beam="2">  1       21 0.10931058E+00 0.10316723E+04</pdfrwt>
<totfact> 0.17416310E+01</totfact>
</mgrwt>
</event>
<event>
 8    1  0.5815007E-006  0.1239152E+04  0.7818608E-02  0.8582313E-01
         21   -1    0    0  503  502  0.00000000000E+00  0.00000000000E+00  0.19737386693E+04  0.19737386693E+04  0.00000000000E+00 0. -1.
         21   -1    0    0  501  503 -0.00000000000E+00 -0.00000000000E+00 -0.76824104890E+03  0.76824104890E+03  0.00000000000E+00 0. -1.
    9000010    2    1    2  501    0 -0.58241118838E+03  0.36590783737E+03  0.71958198247E+03  0.14109610197E+04  0.99996071514E+03 0.  0.
   -9000010    2    1    2    0  502  0.58241118838E+03 -0.36590783737E+03  0.48591563790E+03  0.13310186985E+04  0.10307305326E+04 0.  0.
        -13    1    3    3    0    0 -0.42734903124E+03 -0.92177951885E+01 -0.14862697603E+03  0.45255071696E+03  0.10566000000E+00 0.  1.
          4    1    3    3  501    0 -0.15506215713E+03  0.37512563256E+03  0.86820895850E+03  0.95841030274E+03  0.00000000000E+00 0.  1.
         13    1    4    4    0    0  0.66934304584E+02 -0.43223412823E+03  0.65224840362E+03  0.78532447684E+03  0.10566000000E+00 0. -1.
         -4    1    4    4    0  502  0.51547688379E+03  0.66326290860E+02 -0.16633276572E+03  0.54569422164E+03  0.00000000000E+00 0. -1.
<mgrwt>
<rscale>  2 0.12327334E+04</rscale>
<asrwt>0</asrwt>
<pdfrwt beam="1">  1       21 0.30365210E+00 0.12391516E+04</pdfrwt>
<pdfrwt beam="2">  1       21 0.11819093E+00 0.12391516E+04</pdfrwt>
<totfact> 0.60591622E+00</totfact>
</mgrwt>
</event>
<event>
 8    1  0.5815007E-006  0.1046167E+04  0.7818608E-02  0.8735795E-01
         21   -1    0    0  501  502  0.00000000000E+00  0.00000000000E+00  0.57182113992E+03  0.57182113992E+03  0.00000000000E+00 0. -1.
         21   -1    0    0  502  503 -0.00000000000E+00 -0.00000000000E+00 -0.18865128028E+04  0.18865128028E+04  0.00000000000E+00 0. -1.
   -9000010    2    1    2    0  503  0.96768038208E+02 -0.27097904426E+03 -0.66711003433E+03  0.12279568413E+04  0.98997399488E+03 0.  0.
    9000010    2    1    2  501    0 -0.96768038208E+02  0.27097904426E+03 -0.64758162851E+03  0.12303771014E+04  0.10058191440E+04 0.  0.
        -13    1    4    4    0    0  0.25817164944E+03 -0.65367023178E+02  0.14187208732E+03  0.30175014270E+03  0.10566000000E+00 0.  1.
          4    1    4    4  501    0 -0.35493968765E+03  0.33634606744E+03 -0.78945371583E+03  0.92862695868E+03  0.00000000000E+00 0.  1.
         13    1    3    3    0    0 -0.13836196360E+03 -0.48152546653E+03 -0.12425273770E+02  0.50116385193E+03  0.10566000000E+00 0. -1.
         -4    1    3    3    0  503  0.23513000181E+03  0.21054642227E+03 -0.65468476056E+03  0.72679298937E+03  0.00000000000E+00 0. -1.
<mgrwt>
<rscale>  2 0.10423401E+04</rscale>
<asrwt>0</asrwt>
<pdfrwt beam="1">  1       21 0.87972484E-01 0.10461672E+04</pdfrwt>
<pdfrwt beam="2">  1       21 0.29023274E+00 0.10461672E+04</pdfrwt>
<totfact> 0.17163137E+01</totfact>
</mgrwt>
</event>
<event>
 8    1  0.5815007E-006  0.1292064E+04  0.7818608E-02  0.8542114E-01
         21   -1    0    0  501  502  0.00000000000E+00  0.00000000000E+00  0.17524247168E+04  0.17524247168E+04  0.00000000000E+00 0.  1.
         21   -1    0    0  502  503 -0.00000000000E+00 -0.00000000000E+00 -0.97578100952E+03  0.97578100952E+03  0.00000000000E+00 0.  1.
   -9000010    2    1    2    0  503 -0.36782545036E+03  0.72537206712E+03  0.14701097540E+03  0.13004006641E+04  0.10039768238E+04 0.  0.
    9000010    2    1    2  501    0  0.36782545036E+03 -0.72537206712E+03  0.62963273189E+03  0.14278050622E+04  0.99031798980E+03 0.  0.
        -13    1    4    4    0    0 -0.18103703102E+03 -0.70348216150E+03  0.42519344638E+03  0.84169533452E+03  0.10566000000E+00 0.  1.
          4    1    4    4  501    0  0.54886248138E+03 -0.21889905619E+02  0.20443928552E+03  0.58610972769E+03  0.00000000000E+00 0.  1.
         13    1    3    3    0    0 -0.28282098972E+03  0.29927315956E+03 -0.41859284482E+03  0.58717298743E+03  0.10566000000E+00 0. -1.
         -4    1    3    3    0  503 -0.85004460638E+02  0.42609890755E+03  0.56560382023E+03  0.71322767669E+03  0.00000000000E+00 0. -1.
<mgrwt>
<rscale>  2 0.12894098E+04</rscale>
<asrwt>0</asrwt>
<pdfrwt beam="1">  1       21 0.26960380E+00 0.12920641E+04</pdfrwt>
<pdfrwt beam="2">  1       21 0.15012016E+00 0.12920641E+04</pdfrwt>
<totfact> 0.51962075E+00</totfact>
</mgrwt>
</event>
<event>
 8    1  0.5815007E-006  0.1084050E+04  0.7818608E-02  0.8699637E-01
         21   -1    0    0  503  502  0.00000000000E+00  0.00000000000E+00  0.20425615502E+04  0.20425615502E+04  0.00000000000E+00 0.  1.
         21   -1    0    0  501  503 -0.00000000000E+00 -0.00000000000E+00 -0.57500541843E+03  0.57500541843E+03  0.00000000000E+00 0.  1.
    9000010    2    1    2  501    0  0.17622286032E+03 -0.39810880030E+03  0.70528682472E+03  0.12923430797E+04  0.99155232697E+03 0.  0.
   -9000010    2    1    2    0  502 -0.17622286032E+03  0.39810880030E+03  0.76226930707E+03  0.13252238890E+04  0.99278333287E+03 0.  0.
        -13    1    3    3    0    0 -0.26154031971E+03  0.16060455200E+03  0.43599789491E+03  0.53318977531E+03  0.10566000000E+00 0.  1.
          4    1    3    3  501    0  0.43776318003E+03 -0.55871335230E+03  0.26928892980E+03  0.75915330438E+03  0.00000000000E+00 0.  1.
         13    1    4    4    0    0  0.11691559838E+03 -0.15646028108E+03 -0.12992765356E+03  0.23458534273E+03  0.10566000000E+00 0. -1.
         -4    1    4    4    0  502 -0.29313845870E+03  0.55456908138E+03  0.89219696063E+03  0.10906385462E+04  0.00000000000E+00 0. -1.
<mgrwt>
<rscale>  2 0.10837678E+04</rscale>
<asrwt>0</asrwt>
<pdfrwt beam="1">  1       21 0.31424024E+00 0.10840497E+04</pdfrwt>
<pdfrwt beam="2">  1       21 0.88462373E-01 0.10840497E+04</pdfrwt>
<totfact> 0.11353085E+01</totfact>
</mgrwt>
</event>
<event>
 8    1  0.5815007E-006  0.1374400E+04  0.7818608E-02  0.8489154E-01
         21   -1    0    0  501  502  0.00000000000E+00  0.00000000000E+00  0.20133143851E+04  0.20133143851E+04  0.00000000000E+00 0. -1.
         21   -1    0    0  502  503 -0.00000000000E+00 -0.00000000000E+00 -0.17807318415E+04  0.17807318415E+04  0.00000000000E+00 0.  1.
   -9000010    2    1    2    0  503 -0.11316857161E+03  0.91692915310E+03 -0.11993965691E+04  0.18241510951E+04  0.10175504363E+04 0.  0.
    9000010    2    1    2  501    0  0.11316857161E+03 -0.91692915310E+03  0.14319791127E+04  0.19698951316E+04  0.98810751086E+03 0.  0.
        -13    1    4    4    0    0  0.28635714217E+03  0.11290550692E+03  0.30097636474E+03  0.43050534219E+03  0.10566000000E+00 0.  1.
          4    1    4    4  501    0 -0.17318857056E+03 -0.10298346600E+04  0.11310027479E+04  0.15393897894E+04  0.00000000000E+00 0.  1.
         13    1    3    3    0    0  0.71508345373E+01 -0.17815384407E+03 -0.47056858062E+03  0.50321439449E+03  0.10566000000E+00 0. -1.
         -4    1    3    3    0  503 -0.12031940615E+03  0.10950829972E+04 -0.72882798843E+03  0.13209367006E+04  0.00000000000E+00 0. -1.
<mgrwt>
<rscale>  2 0.13689542E+04</rscale>
<asrwt>0</asrwt>
<pdfrwt beam="1">  1       21 0.30974068E+00 0.13743999E+04</pdfrwt>
<pdfrwt beam="2">  1       21 0.27395874E+00 0.13743999E+04</pdfrwt>
<totfact> 0.28671997E-01</totfact>
</mgrwt>
</event>
<event>
 8    1  0.5815007E-006  0.1163509E+04  0.7818608E-02  0.8638414E-01
         21   -1    0    0  501  502  0.00000000000E+00  0.00000000000E+00  0.13286785259E+04  0.13286785259E+04  0.00000000000E+00 0.  1.
         21   -1    0    0  502  503 -0.00000000000E+00 -0.00000000000E+00 -0.10669872780E+04  0.10669872780E+04  0.00000000000E+00 0.  1.
   -9000010    2    1    2    0  503 -0.31630300665E+03  0.48130613571E+03 -0.16411295153E+03  0.11750258308E+04  0.10109646156E+04 0.  0.
    9000010    2    1    2  501    0  0.31630300665E+03 -0.48130613571E+03  0.42580419948E+03  0.12206399731E+04  0.98840757753E+03 0.  0.
        -13    1    4    4    0    0  0.42953545285E+03 -0.25411538687E+03  0.69175130974E+03  0.85299192306E+03  0.10566000000E+00 0.  1.
          4    1    4    4  501    0 -0.11323244620E+03 -0.22719074884E+03 -0.26594711027E+03  0.36764805003E+03  0.00000000000E+00 0.  1.
         13    1    3    3    0    0 -0.34927647842E+03  0.57094444161E+03 -0.49382028508E+03  0.83176324691E+03  0.10566000000E+00 0. -1.
         -4    1    3    3    0  503  0.32973471767E+02 -0.89638305905E+02  0.32970733355E+03  0.34326258392E+03  0.00000000000E+00 0. -1.
<mgrwt>
<rscale>  2 0.11585914E+04</rscale>
<asrwt>0</asrwt>
<pdfrwt beam="1">  1       21 0.20441208E+00 0.11635088E+04</pdfrwt>
<pdfrwt beam="2">  1       21 0.16415189E+00 0.11635088E+04</pdfrwt>
<totfact> 0.12237754E+01</totfact>
</mgrwt>
</event>
<event>
 8    1  0.5815007E-006  0.1069253E+04  0.7818608E-02  0.8717223E-01
         21   -1    0    0  503  502  0.00000000000E+00  0.00000000000E+00  0.27302701400E+04  0.27302701400E+04  0.00000000000E+00 0. -1.
         21   -1    0    0  501  503 -0.00000000000E+00 -0.00000000000E+00 -0.55857037108E+03  0.55857037108E+03  0.00000000000E+00 0. -1.
    9000010    2    1    2  501    0  0.37401933509E+03 -0.38852853480E+02  0.19436376529E+04  0.22183394793E+04  0.10009509042E+04 0.  0.
   -9000010    2    1    2    0  502 -0.37401933509E+03  0.38852853480E+02  0.22806211606E+03  0.10705010318E+04  0.97599186627E+03 0.  0.
        -13    1    3    3    0    0  0.39416678852E+03  0.16681051590E+03  0.19645518137E+04  0.20106359803E+04  0.10566000000E+00 0.  1.
          4    1    3    3  501    0 -0.20147453431E+02 -0.20566336938E+03 -0.20914160825E+02  0.20770349902E+03  0.00000000000E+00 0.  1.
         13    1    4    4    0    0  0.11400128946E+03  0.41432323707E+03  0.78149283217E+02  0.43676923015E+03  0.10566000000E+00 0. -1.
         -4    1    4    4    0  502 -0.48802062456E+03 -0.37547038359E+03  0.14991283285E+03  0.63373180163E+03  0.00000000000E+00 0. -1.
<mgrwt>
<rscale>  2 0.10633731E+04</rscale>
<asrwt>0</asrwt>
<pdfrwt beam="1">  1       21 0.42004155E+00 0.10692533E+04</pdfrwt>
<pdfrwt beam="2">  1       21 0.85933905E-01 0.10692533E+04</pdfrwt>
<totfact> 0.22332916E+00</totfact>
</mgrwt>
</event>
<event>
 8    1  0.5815007E-006  0.1151999E+04  0.7818608E-02  0.8664061E-01
         21   -1    0    0  503  502  0.00000000000E+00  0.00000000000E+00  0.17747276746E+04  0.17747276746E+04  0.00000000000E+00 0.  1.
         21   -1    0    0  501  503 -0.00000000000E+00 -0.00000000000E+00 -0.74591490801E+03  0.74591490801E+03  0.00000000000E+00 0. -1.
    9000010    2    1    2  501    0 -0.35429446171E+02  0.36518903805E+03  0.13379625030E+03  0.10618225254E+04  0.98739422706E+03 0.  0.
   -9000010    2    1    2    0  502  0.35429446171E+02 -0.36518903805E+03  0.89501651629E+03  0.14588200572E+04  0.10920087526E+04 0.  0.
        -13    1    3    3    0    0 -0.36970803514E+03 -0.17848516309E+03  0.40973353253E+01  0.41055789362E+03  0.10566000000E+00 0.  1.
          4    1    3    3  501    0  0.33427858897E+03  0.54367420114E+03  0.12969891498E+03  0.65126463175E+03  0.00000000000E+00 0.  1.
         13    1    4    4    0    0  0.55329011372E+03 -0.19143793697E+03  0.32625291066E+03  0.67023832070E+03  0.10566000000E+00 0. -1.
         -4    1    4    4    0  502 -0.51786066755E+03 -0.17375110108E+03  0.56876360563E+03  0.78858173655E+03  0.00000000000E+00 0. -1.
<mgrwt>
<rscale>  2 0.11265051E+04</rscale>
<asrwt>0</asrwt>
<pdfrwt beam="1">  1       21 0.27303503E+00 0.11519989E+04</pdfrwt>
<pdfrwt beam="2">  1       21 0.11475614E+00 0.11519989E+04</pdfrwt>
<totfact> 0.11048335E+01</totfact>
</mgrwt>
</event>
<event>
 8    1  0.5815007E-006  0.1164950E+04  0.7818608E-02  0.8651796E-01
         21   -1    0    0  503  502  0.00000000000E+00  0.00000000000E+00  0.11458147876E+04  0.11458147876E+04  0.00000000000E+00 0. -1.
         21   -1    0    0  501  503 -0.00000000000E+00 -0.00000000000E+00 -0.11067912827E+04  0.11067912827E+04  0.00000000000E+00 0. -1.
    9000010    2    1    2  501    0  0.10689159260E+03  0.45719687001E+03 -0.10000340055E+03  0.10793900122E+04  0.96676125691E+03 0.  0.
   -9000010    2    1    2    0  502 -0.10689159260E+03 -0.45719687001E+03  0.13902690544E+03  0.11732160581E+04  0.10661391317E+04 0.  0.
        -13    1    3    3    0    0  0.34880389809E+03  0.32832805669E+03  0.32128029240E+03  0.57678809764E+03  0.10566000000E+00 0.  1.
          4    1    3    3  501    0 -0.24191230549E+03  0.12886881332E+03 -0.42128369295E+03  0.50260191458E+03  0.00000000000E+00 0.  1.
         13    1    4    4    0    0  0.11027747079E+03  0.32495256631E+03 -0.28618669912E+02  0.34434623614E+03  0.10566000000E+00 0. -1.
         -4    1    4    4    0  502 -0.21716906339E+03 -0.78214943632E+03  0.16764557536E+03  0.82886982197E+03  0.00000000000E+00 0. -1.
<mgrwt>
<rscale>  2 0.11417130E+04</rscale>
<asrwt>0</asrwt>
<pdfrwt beam="1">  1       21 0.17627920E+00 0.11649495E+04</pdfrwt>
<pdfrwt beam="2">  1       21 0.17027558E+00 0.11649495E+04</pdfrwt>
<totfact> 0.18217943E+01</totfact>
</mgrwt>
</event>
<event>
 8    1  0.5815007E-006  0.1198719E+04  0.7818608E-02  0.8615688E-01
         21   -1    0    0  501  502  0.00000000000E+00  0.00000000000E+00  0.16670571563E+04  0.16670571563E+04  0.00000000000E+00 0.  1.
         21   -1    0    0  502  503 -0.00000000000E+00 -0.00000000000E+00 -0.88966905382E+03  0.88966905382E+03  0.00000000000E+00 0.  1.
   -9000010    2    1    2    0  503 -0.47859462633E+03 -0.35546881078E+03  0.68928448595E+02  0.12006993869E+04  0.10399600929E+04 0.  0.
    9000010    2    1    2  501    0  0.47859462633E+03  0.35546881078E+03  0.70845965385E+03  0.13560268232E+04  0.99069812374E+03 0.  0.
        -13    1    4    4    0    0  0.32426110181E+03  0.44332043761E+03 -0.73506325384E+02  0.55414931524E+03  0.10566000000E+00 0.  1.
          4    1    4    4  501    0  0.15433352452E+03 -0.87851626829E+02  0.78196597924E+03  0.80187750798E+03  0.00000000000E+00 0.  1.
         13    1    3    3    0    0 -0.48835549328E+03 -0.67807453437E+03 -0.90865862716E+02  0.84055504171E+03  0.10566000000E+00 0. -1.
         -4    1    3    3    0  503  0.97608669460E+01  0.32260572359E+03  0.15979431131E+03  0.36014434515E+03  0.00000000000E+00 0. -1.
<mgrwt>
<rscale>  2 0.11879556E+04</rscale>
<asrwt>0</asrwt>
<pdfrwt beam="1">  1       21 0.25647033E+00 0.11987193E+04</pdfrwt>
<pdfrwt beam="2">  1       21 0.13687216E+00 0.11987193E+04</pdfrwt>
<totfact> 0.87084069E+00</totfact>
</mgrwt>
</event>
<event>
 8    1  0.5815007E-006  0.1026030E+04  0.7818608E-02  0.8751020E-01
         21   -1    0    0  501  502  0.00000000000E+00  0.00000000000E+00  0.87898025189E+03  0.87898025189E+03  0.00000000000E+00 0.  1.
         21   -1    0    0  502  503 -0.00000000000E+00 -0.00000000000E+00 -0.12133676299E+04  0.12133676299E+04  0.00000000000E+00 0.  1.
   -9000010    2    1    2    0  503  0.88291235673E+02 -0.22625516288E+03 -0.29545449966E+03  0.10655799215E+04  0.99457552083E+03 0.  0.
    9000010    2    1    2  501    0 -0.88291235673E+02  0.22625516288E+03 -0.38932878335E+02  0.10267679603E+04  0.99687006890E+03 0.  0.
        -13    1    4    4    0    0 -0.54159064606E+03  0.68618398989E+02 -0.30381948674E+02  0.54676501950E+03  0.10566000000E+00 0.  1.
          4    1    4    4  501    0  0.45329941039E+03  0.15763676389E+03 -0.85509296618E+01  0.48000294081E+03  0.00000000000E+00 0.  1.
         13    1    3    3    0    0 -0.86988354441E+01 -0.61597551940E+03 -0.12143965975E+03  0.62789259620E+03  0.10566000000E+00 0. -1.
         -4    1    3    3    0  503  0.96990071117E+02  0.38972035652E+03 -0.17401483991E+03  0.43768732526E+03  0.00000000000E+00 0. -1.
<mgrwt>
<rscale>  2 0.10254718E+04</rscale>
<asrwt>0</asrwt>
<pdfrwt beam="1">  1       21 0.13522773E+00 0.10260296E+04</pdfrwt>
<pdfrwt beam="2">  1       21 0.18667194E+00 0.10260296E+04</pdfrwt>
<totfact> 0.31586183E+01</totfact>
</mgrwt>
</event>
<event>
 8    1  0.5815007E-006  0.1170766E+04  0.7818608E-02  0.8654159E-01
         21   -1    0    0  503  502  0.00000000000E+00  0.00000000000E+00  0.65615550106E+03  0.65615550106E+03  0.00000000000E+00 0.  1.
         21   -1    0    0  501  503 -0.00000000000E+00 -0.00000000000E+00 -0.19515530011E+04  0.19515530011E+04  0.00000000000E+00 0. -1.
    9000010    2    1    2  501    0  0.59628041481E+03  0.96856037796E+01 -0.42518356831E+03  0.12455815491E+04  0.10074959973E+04 0.  0.
   -9000010    2    1    2    0  502 -0.59628041481E+03 -0.96856037796E+01 -0.87021393170E+03  0.13621269531E+04  0.86166896507E+03 0.  0.
        -13    1    3    3    0    0  0.36843485878E+03 -0.32295659854E+02  0.30508599152E+03  0.47944210098E+03  0.10566000000E+00 0.  1.
          4    1    3    3  501    0  0.22784555602E+03  0.41981263634E+02 -0.73026955982E+03  0.76613944808E+03  0.00000000000E+00 0.  1.
         13    1    4    4    0    0 -0.74630197431E+03  0.18732606695E+03 -0.50319379979E+03  0.91938115248E+03  0.10566000000E+00 0. -1.
         -4    1    4    4    0  502  0.15002155950E+03 -0.19701167073E+03 -0.36702013191E+03  0.44274580060E+03  0.00000000000E+00 0. -1.
<mgrwt>
<rscale>  2 0.11387637E+04</rscale>
<asrwt>0</asrwt>
<pdfrwt beam="1">  1       21 0.10094700E+00 0.11707657E+04</pdfrwt>
<pdfrwt beam="2">  1       21 0.30023892E+00 0.11707657E+04</pdfrwt>
<totfact> 0.99576490E+00</totfact>
</mgrwt>
</event>
<event>
 8    1  0.5815007E-006  0.1067212E+04  0.7818608E-02  0.8714030E-01
         21   -1    0    0  501  502  0.00000000000E+00  0.00000000000E+00  0.17748015284E+04  0.17748015284E+04  0.00000000000E+00 0. -1.
         21   -1    0    0  502  503 -0.00000000000E+00 -0.00000000000E+00 -0.64148450770E+03  0.64148450770E+03  0.00000000000E+00 0. -1.
   -9000010    2    1    2    0  503  0.35295850735E+03 -0.12299342514E+03  0.54704777942E+03  0.11986433062E+04  0.99888808780E+03 0.  0.
    9000010    2    1    2  501    0 -0.35295850735E+03  0.12299342514E+03  0.58626924131E+03  0.12176427299E+04  0.99961747882E+03 0.  0.
        -13    1    4    4    0    0 -0.45521960707E+03 -0.30726083796E+03  0.54459210887E+03  0.77344339767E+03  0.10566000000E+00 0.  1.
          4    1    4    4  501    0  0.10226109972E+03  0.43025426309E+03  0.41677132444E+02  0.44419933228E+03  0.00000000000E+00 0.  1.
         13    1    3    3    0    0  0.57551870205E+03 -0.21078354908E+03  0.12538658762E+02  0.61303238911E+03  0.10566000000E+00 0. -1.
         -4    1    3    3    0  503 -0.22256019470E+03  0.87790123947E+02  0.53450912065E+03  0.58561091707E+03  0.00000000000E+00 0. -1.
<mgrwt>
<rscale>  2 0.10670415E+04</rscale>
<asrwt>0</asrwt>
<pdfrwt beam="1">  1       21 0.27304639E+00 0.10672123E+04</pdfrwt>
<pdfrwt beam="2">  1       21 0.98689925E-01 0.10672123E+04</pdfrwt>
<totfact> 0.16855878E+01</totfact>
</mgrwt>
</event>
<event>
 8    1  0.5815007E-006  0.1205722E+04  0.7818608E-02  0.8604626E-01
         21   -1    0    0  501  502  0.00000000000E+00  0.00000000000E+00  0.39410495717E+03  0.39410495717E+03  0.00000000000E+00 0.  1.
         21   -1    0    0  502  503 -0.00000000000E+00 -0.00000000000E+00 -0.36650142394E+04  0.36650142394E+04  0.00000000000E+00 0.  1.
   -9000010    2    1    2    0  503  0.44179541721E+03 -0.48864030095E+03 -0.17716535040E+04  0.21430167543E+04  0.10098574833E+04 0.  0.
    9000010    2    1    2  501    0 -0.44179541721E+03  0.48864030095E+03 -0.14992557783E+04  0.19161024423E+04  0.99485081613E+03 0.  0.
        -13    1    4    4    0    0 -0.73957626705E+03  0.40641995382E+03 -0.85348844687E+03  0.12002469637E+04  0.10566000000E+00 0.  1.
          4    1    4    4  501    0  0.29778084984E+03  0.82220347131E+02 -0.64576733143E+03  0.71585547868E+03  0.00000000000E+00 0.  1.
         13    1    3    3    0    0  0.11421441445E+03  0.16706778660E+03  0.23739285190E+02  0.20376491997E+03  0.10566000000E+00 0. -1.
         -4    1    3    3    0  503  0.32758100277E+03 -0.65570808755E+03 -0.17953927891E+04  0.19392518343E+04  0.00000000000E+00 0. -1.
<mgrwt>
<rscale>  2 0.12025742E+04</rscale>
<asrwt>0</asrwt>
<pdfrwt beam="1">  1       21 0.60631534E-01 0.12057216E+04</pdfrwt>
<pdfrwt beam="2">  1       21 0.56384833E+00 0.12057216E+04</pdfrwt>
<totfact> 0.48701474E-01</totfact>
</mgrwt>
</event>
<event>
 8    1  0.5815007E-006  0.1056001E+04  0.7818608E-02  0.8741556E-01
         21   -1    0    0  503  502  0.00000000000E+00  0.00000000000E+00  0.91322850756E+03  0.91322850756E+03  0.00000000000E+00 0.  1.
         21   -1    0    0  501  503 -0.00000000000E+00 -0.00000000000E+00 -0.11343490667E+04  0.11343490667E+04  0.00000000000E+00 0.  1.
    9000010    2    1    2  501    0  0.14084381044E+03  0.10055413237E+03 -0.73399499968E+02  0.10585486909E+04  0.10417244031E+04 0.  0.
   -9000010    2    1    2    0  502 -0.14084381044E+03 -0.10055413237E+03 -0.14772105917E+03  0.98902888337E+03  0.96250117316E+03 0.  0.
        -13    1    3    3    0    0  0.56347119023E+03  0.17110031636E+03 -0.18230593742E+03  0.61644997077E+03  0.10566000000E+00 0.  1.
          4    1    3    3  501    0 -0.42262737979E+03 -0.70546183993E+02  0.10890643745E+03  0.44209872013E+03  0.00000000000E+00 0.  1.
         13    1    4    4    0    0  0.15817327254E+03 -0.36272081724E+03  0.21538026167E+03  0.45052618535E+03  0.10566000000E+00 0. -1.
         -4    1    4    4    0  502 -0.29901708298E+03  0.26216668488E+03 -0.36310132084E+03  0.53850269801E+03  0.00000000000E+00 0. -1.
<mgrwt>
<rscale>  2 0.10359187E+04</rscale>
<asrwt>0</asrwt>
<pdfrwt beam="1">  1       21 0.14049669E+00 0.10560009E+04</pdfrwt>
<pdfrwt beam="2">  1       21 0.17451524E+00 0.10560009E+04</pdfrwt>
<totfact> 0.35198439E+01</totfact>
</mgrwt>
</event>
<event>
 8    1  0.5815007E-006  0.1016472E+04  0.7818608E-02  0.8769822E-01
         21   -1    0    0  501  502  0.00000000000E+00  0.00000000000E+00  0.16975943419E+04  0.16975943419E+04  0.00000000000E+00 0. -1.
         21   -1    0    0  502  503 -0.00000000000E+00 -0.00000000000E+00 -0.59667055941E+03  0.59667055941E+03  0.00000000000E+00 0. -1.
   -9000010    2    1    2    0  503  0.22171877885E+02  0.19116664355E+03  0.71741501940E+03  0.12078512041E+04  0.95246204301E+03 0.  0.
    9000010    2    1    2  501    0 -0.22171877885E+02 -0.19116664355E+03  0.38350876309E+03  0.10864136972E+04  0.99808790812E+03 0.  0.
        -13    1    4    4    0    0 -0.77226210988E+02  0.40808441598E+02  0.69146054423E+03  0.69695545909E+03  0.10566000000E+00 0.  1.
          4    1    4    4  501    0  0.55054333103E+02 -0.23197508515E+03 -0.30795178114E+03  0.38945823811E+03  0.00000000000E+00 0.  1.
         13    1    3    3    0    0 -0.28129356487E+03  0.47201903102E+03  0.48850713296E+03  0.73523279674E+03  0.10566000000E+00 0. -1.
         -4    1    3    3    0  503  0.30346544276E+03 -0.28085238747E+03  0.22890788644E+03  0.47261840735E+03  0.00000000000E+00 0. -1.
<mgrwt>
<rscale>  2 0.10050919E+04</rscale>
<asrwt>0</asrwt>
<pdfrwt beam="1">  1       21 0.26116836E+00 0.10164722E+04</pdfrwt>
<pdfrwt beam="2">  1       21 0.91795472E-01 0.10164722E+04</pdfrwt>
<totfact> 0.24980307E+01</totfact>
</mgrwt>
</event>
<event>
 8    1  0.5815007E-006  0.1101347E+04  0.7818608E-02  0.8697192E-01
         21   -1    0    0  501  502  0.00000000000E+00  0.00000000000E+00  0.14718743424E+04  0.14718743424E+04  0.00000000000E+00 0. -1.
         21   -1    0    0  502  503 -0.00000000000E+00 -0.00000000000E+00 -0.78803061954E+03  0.78803061954E+03  0.00000000000E+00 0. -1.
   -9000010    2    1    2    0  503  0.27607583302E+03  0.88763008638E+02  0.24834423324E+03  0.11289995784E+04  0.10624822129E+04 0.  0.
    9000010    2    1    2  501    0 -0.27607583302E+03 -0.88763008638E+02  0.43549948957E+03  0.11309053835E+04  0.10025918629E+04 0.  0.
        -13    1    4    4    0    0 -0.39163360734E+03 -0.25018129048E+03  0.67520026441E+03  0.81967247650E+03  0.10566000000E+00 0.  1.
          4    1    4    4  501    0  0.11555777433E+03  0.16141828184E+03 -0.23970077484E+03  0.31123290697E+03  0.00000000000E+00 0.  1.
         13    1    3    3    0    0  0.21464244842E+03 -0.33311511175E+03 -0.25356894159E+03  0.47046177066E+03  0.10566000000E+00 0. -1.
         -4    1    3    3    0  503  0.61433384593E+02  0.42187812039E+03  0.50191317483E+03  0.65853780778E+03  0.00000000000E+00 0. -1.
<mgrwt>
<rscale>  2 0.10866406E+04</rscale>
<asrwt>0</asrwt>
<pdfrwt beam="1">  1       21 0.22644221E+00 0.11013470E+04</pdfrwt>
<pdfrwt beam="2">  1       21 0.12123548E+00 0.11013470E+04</pdfrwt>
<totfact> 0.20963154E+01</totfact>
</mgrwt>
</event>
<event>
 8    1  0.5815007E-006  0.1411971E+04  0.7818608E-02  0.8467138E-01
         21   -1    0    0  501  502  0.00000000000E+00  0.00000000000E+00  0.12638830215E+04  0.12638830215E+04  0.00000000000E+00 0.  1.
         21   -1    0    0  502  503 -0.00000000000E+00 -0.00000000000E+00 -0.18944336858E+04  0.18944336858E+04  0.00000000000E+00 0. -1.
   -9000010    2    1    2    0  503  0.95937201586E+03  0.33240333842E+03 -0.10001186889E+04  0.17302886355E+04  0.98121084686E+03 0.  0.
    9000010    2    1    2  501    0 -0.95937201586E+03 -0.33240333842E+03  0.36956802457E+03  0.14280280718E+04  0.93370070409E+03 0.  0.
        -13    1    4    4    0    0 -0.10974539129E+04 -0.14165155170E+03  0.17037866763E+03  0.11195977647E+04  0.10566000000E+00 0.  1.
          4    1    4    4  501    0  0.13808189706E+03 -0.19075178672E+03  0.19918935694E+03  0.30843030712E+03  0.00000000000E+00 0.  1.
         13    1    3    3    0    0  0.69466171756E+03  0.58563258515E+03 -0.10167764043E+04  0.13635815686E+04  0.10566000000E+00 0. -1.
         -4    1    3    3    0  503  0.26471029830E+03 -0.25322924674E+03  0.16657715428E+02  0.36670706690E+03  0.00000000000E+00 0. -1.
<mgrwt>
<rscale>  2 0.14037511E+04</rscale>
<asrwt>0</asrwt>
<pdfrwt beam="1">  1       21 0.19444354E+00 0.14119707E+04</pdfrwt>
<pdfrwt beam="2">  1       21 0.29145134E+00 0.14119707E+04</pdfrwt>
<totfact> 0.15057064E+00</totfact>
</mgrwt>
</event>
<event>
 8    1  0.5815007E-006  0.1060335E+04  0.7818608E-02  0.8730459E-01
         21   -1    0    0  503  502  0.00000000000E+00  0.00000000000E+00  0.66481751703E+03  0.66481751703E+03  0.00000000000E+00 0.  1.
         21   -1    0    0  501  503 -0.00000000000E+00 -0.00000000000E+00 -0.16253284513E+04  0.16253284513E+04  0.00000000000E+00 0.  1.
    9000010    2    1    2  501    0 -0.34265794859E+03 -0.44327279833E+01 -0.55275769379E+03  0.11541121093E+04  0.95341469146E+03 0.  0.
   -9000010    2    1    2    0  502  0.34265794859E+03  0.44327279833E+01 -0.40775324047E+03  0.11360338591E+04  0.10034321626E+04 0.  0.
        -13    1    3    3    0    0 -0.65007884438E+03  0.54483069111E+02 -0.19961824102E+03  0.68221577381E+03  0.10566000000E+00 0.  1.
          4    1    3    3  501    0  0.30742089578E+03 -0.58915797094E+02 -0.35313945277E+03  0.47189633545E+03  0.00000000000E+00 0.  1.
         13    1    4    4    0    0  0.98554588094E+02  0.46864590877E+03 -0.37907410098E+03  0.61076933440E+03  0.10566000000E+00 0. -1.
         -4    1    4    4    0  502  0.24410336050E+03 -0.46421318079E+03 -0.28679139489E+02  0.52526452466E+03  0.00000000000E+00 0. -1.
<mgrwt>
<rscale>  2 0.10483316E+04</rscale>
<asrwt>0</asrwt>
<pdfrwt beam="1">  1       21 0.10227962E+00 0.10603350E+04</pdfrwt>
<pdfrwt beam="2">  1       21 0.25005053E+00 0.10603350E+04</pdfrwt>
<totfact> 0.22511498E+01</totfact>
</mgrwt>
</event>
<event>
 8    1  0.5815007E-006  0.1114060E+04  0.7818608E-02  0.8720595E-01
         21   -1    0    0  503  502  0.00000000000E+00  0.00000000000E+00  0.63637752552E+03  0.63637752552E+03  0.00000000000E+00 0. -1.
         21   -1    0    0  501  503 -0.00000000000E+00 -0.00000000000E+00 -0.16685608716E+04  0.16685608716E+04  0.00000000000E+00 0.  1.
    9000010    2    1    2  501    0 -0.44145864123E+03  0.19930502582E+03 -0.25438537089E+03  0.94622599004E+03  0.77202557086E+03 0.  0.
   -9000010    2    1    2    0  502  0.44145864123E+03 -0.19930502582E+03 -0.77779797521E+03  0.13587124071E+04  0.10032554459E+04 0.  0.
        -13    1    3    3    0    0 -0.36089088590E+03 -0.23355044320E+03 -0.26648687587E+03  0.50577001416E+03  0.10566000000E+00 0.  1.
          4    1    3    3  501    0 -0.80567755322E+02  0.43285546902E+03  0.12101504982E+02  0.44045597588E+03  0.00000000000E+00 0.  1.
         13    1    4    4    0    0 -0.15844292454E+01  0.24519954987E+03  0.11222855077E+03  0.26966755171E+03  0.10566000000E+00 0. -1.
         -4    1    4    4    0  502  0.44304307047E+03 -0.44450457570E+03 -0.89002652598E+03  0.10890448554E+04  0.00000000000E+00 0. -1.
<mgrwt>
<rscale>  2 0.10595160E+04</rscale>
<asrwt>0</asrwt>
<pdfrwt beam="1">  1       21 0.97904236E-01 0.11140600E+04</pdfrwt>
<pdfrwt beam="2">  1       21 0.25670167E+00 0.11140600E+04</pdfrwt>
<totfact> 0.22336426E+01</totfact>
</mgrwt>
</event>
<event>
 8    1  0.5815007E-006  0.1232354E+04  0.7818608E-02  0.8585621E-01
         21   -1    0    0  503  502  0.00000000000E+00  0.00000000000E+00  0.15374725030E+04  0.15374725030E+04  0.00000000000E+00 0.  1.
         21   -1    0    0  501  503 -0.00000000000E+00 -0.00000000000E+00 -0.14882805222E+04  0.14882805222E+04  0.00000000000E+00 0.  1.
    9000010    2    1    2  501    0 -0.46218766820E+03 -0.56358116353E+03 -0.86409265420E+03  0.15051086373E+04  0.99370756592E+03 0.  0.
   -9000010    2    1    2    0  502  0.46218766820E+03  0.56358116353E+03  0.91328463503E+03  0.15206443879E+04  0.97315433587E+03 0.  0.
        -13    1    3    3    0    0 -0.39952641932E+03 -0.50220970982E+03 -0.10888214736E+04  0.12638703118E+04  0.10566000000E+00 0.  1.
          4    1    3    3  501    0 -0.62661248879E+02 -0.61371453708E+02  0.22472881942E+03  0.24123832556E+03  0.00000000000E+00 0.  1.
         13    1    4    4    0    0  0.26627081395E+03 -0.18134308597E+03  0.61572110349E+03  0.69490859085E+03  0.10566000000E+00 0. -1.
         -4    1    4    4    0  502  0.19591685425E+03  0.74492424950E+03  0.29756353154E+03  0.82573579707E+03  0.00000000000E+00 0. -1.
<mgrwt>
<rscale>  2 0.12282048E+04</rscale>
<asrwt>0</asrwt>
<pdfrwt beam="1">  1       21 0.23653423E+00 0.12323538E+04</pdfrwt>
<pdfrwt beam="2">  1       21 0.22896623E+00 0.12323538E+04</pdfrwt>
<totfact> 0.21150899E+00</totfact>
</mgrwt>
</event>
<event>
 8    1  0.5815007E-006  0.1158027E+04  0.7818608E-02  0.8639304E-01
         21   -1    0    0  503  502  0.00000000000E+00  0.00000000000E+00  0.11988890561E+04  0.11988890561E+04  0.00000000000E+00 0. -1.
         21   -1    0    0  501  503 -0.00000000000E+00 -0.00000000000E+00 -0.15582285320E+04  0.15582285320E+04  0.00000000000E+00 0. -1.
    9000010    2    1    2  501    0  0.46925895737E+02  0.57685596115E+03 -0.91389349810E+03  0.14752047244E+04  0.10030268259E+04 0.  0.
   -9000010    2    1    2    0  502 -0.46925895737E+02 -0.57685596115E+03  0.55455402216E+03  0.12819128636E+04  0.10004027124E+04 0.  0.
        -13    1    3    3    0    0 -0.42884429454E+03  0.12494171387E+03 -0.15698154849E+03  0.47345652235E+03  0.10566000000E+00 0.  1.
          4    1    3    3  501    0  0.47577019028E+03  0.45191424728E+03 -0.75691194961E+03  0.10017482021E+04  0.00000000000E+00 0.  1.
         13    1    4    4    0    0  0.41604816574E+03 -0.26985861361E+03  0.53005258225E+03  0.72586190055E+03  0.10566000000E+00 0. -1.
         -4    1    4    4    0  502 -0.46297406148E+03 -0.30699734755E+03  0.24501439913E+02  0.55605096310E+03  0.00000000000E+00 0. -1.
<mgrwt>
<rscale>  2 0.11574590E+04</rscale>
<asrwt>0</asrwt>
<pdfrwt beam="1">  1       21 0.18444447E+00 0.11580275E+04</pdfrwt>
<pdfrwt beam="2">  1       21 0.23972747E+00 0.11580275E+04</pdfrwt>
<totfact> 0.45037295E+00</totfact>
</mgrwt>
</event>
<event>
 8    1  0.5815007E-006  0.1077541E+04  0.7818608E-02  0.8705869E-01
         21   -1    0    0  501  502  0.00000000000E+00  0.00000000000E+00  0.12819592032E+04  0.12819592032E+04  0.00000000000E+00 0.  1.
         21   -1    0    0  502  503 -0.00000000000E+00 -0.00000000000E+00 -0.94053244776E+03  0.94053244776E+03  0.00000000000E+00 0.  1.
   -9000010    2    1    2    0  503  0.29755621141E+03  0.25349848845E+03  0.39478598266E+03  0.11436304491E+04  0.99961665121E+03 0.  0.
    9000010    2    1    2  501    0 -0.29755621141E+03 -0.25349848845E+03 -0.53359227249E+02  0.10788612018E+04  0.10041379901E+04 0.  0.
        -13    1    4    4    0    0  0.16313920360E+03  0.20170864930E+03 -0.29020932699E+03  0.38925858191E+03  0.10566000000E+00 0.  1.
          4    1    4    4  501    0 -0.46069541501E+03 -0.45520713774E+03  0.23685009974E+03  0.68960261993E+03  0.00000000000E+00 0.  1.
         13    1    3    3    0    0 -0.19612791045E+03 -0.17118447780E+03  0.41750874509E+03  0.49202016837E+03  0.10566000000E+00 0. -1.
         -4    1    3    3    0  503  0.49368412186E+03  0.42468296625E+03 -0.22722762431E+02  0.65161028071E+03  0.00000000000E+00 0. -1.
<mgrwt>
<rscale>  2 0.10764863E+04</rscale>
<asrwt>0</asrwt>
<pdfrwt beam="1">  1       21 0.19722449E+00 0.10775409E+04</pdfrwt>
<pdfrwt beam="2">  1       21 0.14469730E+00 0.10775409E+04</pdfrwt>
<totfact> 0.21041682E+01</totfact>
</mgrwt>
</event>
<event>
 8    1  0.5815007E-006  0.2133979E+04  0.7818608E-02  0.8116052E-01
         21   -1    0    0  501  502  0.00000000000E+00  0.00000000000E+00  0.31877200366E+04  0.31877200366E+04  0.00000000000E+00 0. -1.
         21   -1    0    0  502  503 -0.00000000000E+00 -0.00000000000E+00 -0.15656515123E+04  0.15656515123E+04  0.00000000000E+00 0. -1.
   -9000010    2    1    2    0  503 -0.18829794869E+04  0.10230839988E+03  0.10513756466E+03  0.21351761937E+04  0.99591400919E+03 0.  0.
    9000010    2    1    2  501    0  0.18829794869E+04 -0.10230839988E+03  0.15169309596E+04  0.26181953552E+04  0.99889370054E+03 0.  0.
        -13    1    4    4    0    0  0.40301085820E+03 -0.29351875524E+03  0.84612179929E+03  0.98208610717E+03  0.10566000000E+00 0.  1.
          4    1    4    4  501    0  0.14799686287E+04  0.19121035535E+03  0.67080916035E+03  0.16361092480E+04  0.00000000000E+00 0.  1.
         13    1    3    3    0    0 -0.10970566720E+04  0.54811936674E+03  0.11322208167E+03  0.12315792434E+04  0.10566000000E+00 0. -1.
         -4    1    3    3    0  503 -0.78592281488E+03 -0.44581096686E+03 -0.80845170127E+01  0.90359695027E+03  0.00000000000E+00 0. -1.
<mgrwt>
<rscale>  2 0.21336309E+04</rscale>
<asrwt>0</asrwt>
<pdfrwt beam="1">  1       21 0.49041847E+00 0.21339792E+04</pdfrwt>
<pdfrwt beam="2">  1       21 0.24086946E+00 0.21339792E+04</pdfrwt>
<totfact> 0.24194994E-02</totfact>
</mgrwt>
</event>
<event>
 8    1  0.5815007E-006  0.1225545E+04  0.7818608E-02  0.8587712E-01
         21   -1    0    0  503  502  0.00000000000E+00  0.00000000000E+00  0.91761218275E+03  0.91761218275E+03  0.00000000000E+00 0. -1.
         21   -1    0    0  501  503 -0.00000000000E+00 -0.00000000000E+00 -0.16928726475E+04  0.16928726475E+04  0.00000000000E+00 0. -1.
    9000010    2    1    2  501    0 -0.13987406408E+03 -0.70442874917E+03 -0.62720545776E+03  0.13760289477E+04  0.99211106345E+03 0.  0.
   -9000010    2    1    2    0  502  0.13987406408E+03  0.70442874917E+03 -0.14805500697E+03  0.12344558825E+04  0.99306415923E+03 0.  0.
        -13    1    3    3    0    0 -0.32727981362E+03 -0.55648418084E+03 -0.83778368027E+03  0.10576711332E+04  0.10566000000E+00 0.  1.
          4    1    3    3  501    0  0.18740574954E+03 -0.14794456832E+03  0.21057822251E+03  0.31835781450E+03  0.00000000000E+00 0.  1.
         13    1    4    4    0    0 -0.15020653935E+03 -0.18358762842E+03  0.11545060562E+03  0.26380916450E+03  0.10566000000E+00 0. -1.
         -4    1    4    4    0  502  0.29008060343E+03  0.88801637758E+03 -0.26350561259E+03  0.97064671802E+03  0.00000000000E+00 0. -1.
<mgrwt>
<rscale>  2 0.12253521E+04</rscale>
<asrwt>0</asrwt>
<pdfrwt beam="1">  1       21 0.14117111E+00 0.12255452E+04</pdfrwt>
<pdfrwt beam="2">  1       21 0.26044194E+00 0.12255452E+04</pdfrwt>
<totfact> 0.73915946E+00</totfact>
</mgrwt>
</event>
<event>
 8    1  0.5815007E-006  0.1082511E+04  0.7818608E-02  0.8702284E-01
         21   -1    0    0  501  502  0.00000000000E+00  0.00000000000E+00  0.92051361350E+03  0.92051361350E+03  0.00000000000E+00 0.  1.
         21   -1    0    0  502  503 -0.00000000000E+00 -0.00000000000E+00 -0.14770340462E+04  0.14770340462E+04  0.00000000000E+00 0.  1.
   -9000010    2    1    2    0  503 -0.36440686086E+03 -0.59534460214E+02 -0.73392646574E+03  0.13078526864E+04  0.10175921973E+04 0.  0.
    9000010    2    1    2  501    0  0.36440686086E+03  0.59534460214E+02  0.17740603302E+03  0.10896949733E+04  0.10097650826E+04 0.  0.
        -13    1    4    4    0    0  0.18944265061E+03  0.51376256139E+02  0.60050663711E+03  0.63177232445E+03  0.10566000000E+00 0.  1.
          4    1    4    4  501    0  0.17496421024E+03  0.81582040754E+01 -0.42310060409E+03  0.45792264886E+03  0.00000000000E+00 0.  1.
         13    1    3    3    0    0 -0.49142928200E+03 -0.37207285318E+03 -0.15144438693E+03  0.63472542156E+03  0.10566000000E+00 0. -1.
         -4    1    3    3    0  503  0.12702242114E+03  0.31253839296E+03 -0.58248207881E+03  0.67312726485E+03  0.00000000000E+00 0. -1.
<mgrwt>
<rscale>  2 0.10806679E+04</rscale>
<asrwt>0</asrwt>
<pdfrwt beam="1">  1       21 0.14161748E+00 0.10825112E+04</pdfrwt>
<pdfrwt beam="2">  1       21 0.22723601E+00 0.10825112E+04</pdfrwt>
<totfact> 0.13224512E+01</totfact>
</mgrwt>
</event>
<event>
 8    1  0.5815007E-006  0.1249367E+04  0.7818608E-02  0.8571240E-01
         21   -1    0    0  501  502  0.00000000000E+00  0.00000000000E+00  0.20016198106E+04  0.20016198106E+04  0.00000000000E+00 0.  1.
         21   -1    0    0  502  503 -0.00000000000E+00 -0.00000000000E+00 -0.78128553525E+03  0.78128553525E+03  0.00000000000E+00 0.  1.
   -9000010    2    1    2    0  503 -0.73345585878E+03 -0.13436738144E+03  0.50278866561E+03  0.13467420193E+04  0.10024497665E+04 0.  0.
    9000010    2    1    2  501    0  0.73345585878E+03  0.13436738144E+03  0.71754560973E+03  0.14361633266E+04  0.99583196801E+03 0.  0.
        -13    1    4    4    0    0  0.95819490736E+03  0.19199887788E+02  0.42132433171E+03  0.10469098910E+04  0.10566000000E+00 0.  1.
          4    1    4    4  501    0 -0.22473904858E+03  0.11516749365E+03  0.29622127802E+03  0.38925343557E+03  0.00000000000E+00 0.  1.
         13    1    3    3    0    0 -0.59927347618E+03  0.15526115713E+03  0.72834680109E+03  0.95588901029E+03  0.10566000000E+00 0. -1.
         -4    1    3    3    0  503 -0.13418238260E+03 -0.28962853857E+03 -0.22555813549E+03  0.39085300899E+03  0.00000000000E+00 0. -1.
<mgrwt>
<rscale>  2 0.12480389E+04</rscale>
<asrwt>0</asrwt>
<pdfrwt beam="1">  1       21 0.30794151E+00 0.12493669E+04</pdfrwt>
<pdfrwt beam="2">  1       21 0.12019778E+00 0.12493669E+04</pdfrwt>
<totfact> 0.53794725E+00</totfact>
</mgrwt>
</event>
<event>
 8    1  0.5815007E-006  0.1189813E+04  0.7818608E-02  0.8617573E-01
         21   -1    0    0  501  502  0.00000000000E+00  0.00000000000E+00  0.14343937063E+04  0.14343937063E+04  0.00000000000E+00 0. -1.
         21   -1    0    0  502  503 -0.00000000000E+00 -0.00000000000E+00 -0.12949102935E+04  0.12949102935E+04  0.00000000000E+00 0. -1.
   -9000010    2    1    2    0  503  0.50742663347E+03 -0.39321603473E+03 -0.61134519741E+03  0.13223926110E+04  0.98126379175E+03 0.  0.
    9000010    2    1    2  501    0 -0.50742663347E+03  0.39321603473E+03  0.75082861015E+03  0.14069113888E+04  0.10017761305E+04 0.  0.
        -13    1    4    4    0    0  0.24556598377E+03 -0.84211848297E+02  0.33309680828E+03  0.42231242301E+03  0.10566000000E+00 0.  1.
          4    1    4    4  501    0 -0.75299261724E+03  0.47742788303E+03  0.41773180187E+03  0.98459896577E+03  0.00000000000E+00 0.  1.
         13    1    3    3    0    0  0.72205555657E+02  0.19013524506E+02 -0.71082492971E+03  0.71473578912E+03  0.10566000000E+00 0. -1.
         -4    1    3    3    0  503  0.43522107781E+03 -0.41222955924E+03  0.99479732306E+02  0.60765682191E+03  0.00000000000E+00 0. -1.
<mgrwt>
<rscale>  2 0.11854853E+04</rscale>
<asrwt>0</asrwt>
<pdfrwt beam="1">  1       21 0.22067595E+00 0.11898135E+04</pdfrwt>
<pdfrwt beam="2">  1       21 0.19921697E+00 0.11898135E+04</pdfrwt>
<totfact> 0.47296195E+00</totfact>
</mgrwt>
</event>
<event>
 8    1  0.5815007E-006  0.1131873E+04  0.7818608E-02  0.8669108E-01
         21   -1    0    0  501  502  0.00000000000E+00  0.00000000000E+00  0.65515191028E+03  0.65515191028E+03  0.00000000000E+00 0. -1.
         21   -1    0    0  502  503 -0.00000000000E+00 -0.00000000000E+00 -0.19355520974E+04  0.19355520974E+04  0.00000000000E+00 0. -1.
   -9000010    2    1    2    0  503 -0.34725036576E+03  0.13852587895E+03 -0.87695983830E+03  0.14318502849E+04  0.10683465939E+04 0.  0.
    9000010    2    1    2  501    0  0.34725036576E+03 -0.13852587895E+03 -0.40344034883E+03  0.11588537228E+04  0.10200027452E+04 0.  0.
        -13    1    4    4    0    0 -0.14805301450E+03 -0.40728324516E+02 -0.59829839444E+03  0.61768881443E+03  0.10566000000E+00 0.  1.
          4    1    4    4  501    0  0.49530338026E+03 -0.97797554432E+02  0.19485804561E+03  0.54116490840E+03  0.00000000000E+00 0.  1.
         13    1    3    3    0    0 -0.65701404641E+03 -0.91263033075E+02 -0.27749129462E+03  0.71902561021E+03  0.10566000000E+00 0. -1.
         -4    1    3    3    0  503  0.30976368065E+03  0.22978891202E+03 -0.59946854368E+03  0.71282467465E+03  0.00000000000E+00 0. -1.
<mgrwt>
<rscale>  2 0.11203191E+04</rscale>
<asrwt>0</asrwt>
<pdfrwt beam="1">  1       21 0.10079260E+00 0.11318731E+04</pdfrwt>
<pdfrwt beam="2">  1       21 0.29777724E+00 0.11318731E+04</pdfrwt>
<totfact> 0.10491825E+01</totfact>
</mgrwt>
</event>
<event>
 8    1  0.5815007E-006  0.1055522E+04  0.7818608E-02  0.8725916E-01
         21   -1    0    0  501  502  0.00000000000E+00  0.00000000000E+00  0.11809322247E+04  0.11809322247E+04  0.00000000000E+00 0.  1.
         21   -1    0    0  502  503 -0.00000000000E+00 -0.00000000000E+00 -0.96516339868E+03  0.96516339868E+03  0.00000000000E+00 0.  1.
   -9000010    2    1    2    0  503  0.30274306478E+03  0.14449686968E+03 -0.78696594820E+02  0.10502689221E+04  0.99213857198E+03 0.  0.
    9000010    2    1    2  501    0 -0.30274306478E+03 -0.14449686968E+03  0.29446542088E+03  0.10958267013E+04  0.10007964662E+04 0.  0.
        -13    1    4    4    0    0 -0.35368347596E+03  0.32833952927E+03 -0.81708038666E+02  0.48946405628E+03  0.10566000000E+00 0.  1.
          4    1    4    4  501    0  0.50940411175E+02 -0.47283639895E+03  0.37617345955E+03  0.60636264506E+03  0.00000000000E+00 0.  1.
         13    1    3    3    0    0  0.50250987912E+03 -0.23514168447E+03 -0.22258795647E+03  0.59779026416E+03  0.10566000000E+00 0. -1.
         -4    1    3    3    0  503 -0.19976681434E+03  0.37963855415E+03  0.14389136165E+03  0.45247865791E+03  0.00000000000E+00 0. -1.
<mgrwt>
<rscale>  2 0.10534644E+04</rscale>
<asrwt>0</asrwt>
<pdfrwt beam="1">  1       21 0.18168188E+00 0.10555218E+04</pdfrwt>
<pdfrwt beam="2">  1       21 0.14848668E+00 0.10555218E+04</pdfrwt>
<totfact> 0.26008827E+01</totfact>
</mgrwt>
</event>
<event>
 8    1  0.5815007E-006  0.1125611E+04  0.7818608E-02  0.8691718E-01
         21   -1    0    0  503  502  0.00000000000E+00  0.00000000000E+00  0.13915142248E+04  0.13915142248E+04  0.00000000000E+00 0.  1.
         21   -1    0    0  501  503 -0.00000000000E+00 -0.00000000000E+00 -0.82393722524E+03  0.82393722524E+03  0.00000000000E+00 0. -1.
    9000010    2    1    2  501    0  0.34946179004E+03 -0.29437614529E+03  0.42987630902E+03  0.12049036474E+04  0.10286973805E+04 0.  0.
   -9000010    2    1    2    0  502 -0.34946179004E+03  0.29437614529E+03  0.13770069051E+03  0.10105478026E+04  0.89076625646E+03 0.  0.
        -13    1    3    3    0    0  0.33350734826E+02 -0.19012311079E+03 -0.32606948450E+03  0.37892002937E+03  0.10566000000E+00 0.  1.
          4    1    3    3  501    0  0.31611105522E+03 -0.10425303450E+03  0.75594579353E+03  0.82598361799E+03  0.00000000000E+00 0.  1.
         13    1    4    4    0    0  0.21522813546E+03  0.26101564118E+02 -0.20433608964E+03  0.29792228960E+03  0.10566000000E+00 0. -1.
         -4    1    4    4    0  502 -0.56468992551E+03  0.26827458117E+03  0.34203678015E+03  0.71262551305E+03  0.00000000000E+00 0. -1.
<mgrwt>
<rscale>  2 0.10931075E+04</rscale>
<asrwt>0</asrwt>
<pdfrwt beam="1">  1       21 0.21407911E+00 0.11256106E+04</pdfrwt>
<pdfrwt beam="2">  1       21 0.12675957E+00 0.11256106E+04</pdfrwt>
<totfact> 0.22779144E+01</totfact>
</mgrwt>
</event>
<event>
 8    1  0.5815007E-006  0.1173062E+04  0.7818608E-02  0.8632159E-01
         21   -1    0    0  503  502  0.00000000000E+00  0.00000000000E+00  0.17937302205E+04  0.17937302205E+04  0.00000000000E+00 0.  1.
         21   -1    0    0  501  503 -0.00000000000E+00 -0.00000000000E+00 -0.88840619333E+03  0.88840619333E+03  0.00000000000E+00 0.  1.
    9000010    2    1    2  501    0 -0.56296691464E+03 -0.17459672246E+03 -0.71547978448E+02  0.11752419563E+04  0.10142281697E+04 0.  0.
   -9000010    2    1    2    0  502  0.56296691464E+03  0.17459672246E+03  0.97687200559E+03  0.15068944575E+04  0.98439637760E+03 0.  0.
        -13    1    3    3    0    0 -0.34425547995E+03  0.35184525604E+03  0.21506789907E+03  0.53717886411E+03  0.10566000000E+00 0.  1.
          4    1    3    3  501    0 -0.21871143469E+03 -0.52644197850E+03 -0.28661587752E+03  0.63806309221E+03  0.00000000000E+00 0.  1.
         13    1    4    4    0    0  0.52332594460E+03 -0.25745880384E+03  0.89052739349E+03  0.10645159133E+04  0.10566000000E+00 0. -1.
         -4    1    4    4    0  502  0.39640970041E+02  0.43205552630E+03  0.86344612102E+02  0.44237854418E+03  0.00000000000E+00 0. -1.
<mgrwt>
<rscale>  2 0.11665849E+04</rscale>
<asrwt>0</asrwt>
<pdfrwt beam="1">  1       21 0.27595849E+00 0.11730620E+04</pdfrwt>
<pdfrwt beam="2">  1       21 0.13667788E+00 0.11730620E+04</pdfrwt>
<totfact> 0.63663268E+00</totfact>
</mgrwt>
</event>
<event>
 8    1  0.5815007E-006  0.1122324E+04  0.7818608E-02  0.8668110E-01
         21   -1    0    0  501  502  0.00000000000E+00  0.00000000000E+00  0.16130092783E+04  0.16130092783E+04  0.00000000000E+00 0.  1.
         21   -1    0    0  502  503 -0.00000000000E+00 -0.00000000000E+00 -0.81944123738E+03  0.81944123738E+03  0.00000000000E+00 0.  1.
   -9000010    2    1    2    0  503 -0.51717248325E+03 -0.29013029368E+02  0.12621466218E+03  0.11293982101E+04  0.99564102101E+03 0.  0.
    9000010    2    1    2  501    0  0.51717248325E+03  0.29013029368E+02  0.66735337875E+03  0.13030523056E+04  0.99210667050E+03 0.  0.
        -13    1    4    4    0    0  0.79540812069E+03 -0.74036653291E+02  0.36118733941E+03  0.87670508713E+03  0.10566000000E+00 0.  1.
          4    1    4    4  501    0 -0.27823563744E+03  0.10304968266E+03  0.30616603933E+03  0.42634721845E+03  0.00000000000E+00 0.  1.
         13    1    3    3    0    0  0.13359414994E+03  0.50313859745E+02 -0.31045186985E+03  0.34170053561E+03  0.10566000000E+00 0. -1.
         -4    1    3    3    0  503 -0.65076663319E+03 -0.79326889112E+02  0.43666653202E+03  0.78769767449E+03  0.00000000000E+00 0. -1.
<mgrwt>
<rscale>  2 0.11215392E+04</rscale>
<asrwt>0</asrwt>
<pdfrwt beam="1">  1       21 0.24815527E+00 0.11223236E+04</pdfrwt>
<pdfrwt beam="2">  1       21 0.12606788E+00 0.11223236E+04</pdfrwt>
<totfact> 0.12916789E+01</totfact>
</mgrwt>
</event>
<event>
 8    1  0.5815007E-006  0.1048681E+04  0.7818608E-02  0.8734428E-01
         21   -1    0    0  503  502  0.00000000000E+00  0.00000000000E+00  0.20658009668E+04  0.20658009668E+04  0.00000000000E+00 0. -1.
         21   -1    0    0  501  503 -0.00000000000E+00 -0.00000000000E+00 -0.52283097329E+03  0.52283097329E+03  0.00000000000E+00 0. -1.
    9000010    2    1    2  501    0  0.28633786265E+03  0.88505491179E+02  0.78518149277E+03  0.12948102382E+04  0.98498780846E+03 0.  0.
   -9000010    2    1    2    0  502 -0.28633786265E+03 -0.88505491179E+02  0.75778850076E+03  0.12938217019E+04  0.10049420833E+04 0.  0.
        -13    1    3    3    0    0 -0.16453988216E+03 -0.23445894853E+03  0.66958470576E+03  0.72827746136E+03  0.10566000000E+00 0.  1.
          4    1    3    3  501    0  0.45087774481E+03  0.32296443970E+03  0.11559678700E+03  0.56653277685E+03  0.00000000000E+00 0.  1.
         13    1    4    4    0    0 -0.14644816738E+03 -0.36129106097E+03  0.88101930085E+03  0.96341751910E+03  0.10566000000E+00 0. -1.
         -4    1    4    4    0  502 -0.13988969526E+03  0.27278556979E+03 -0.12323080010E+03  0.33040418281E+03  0.00000000000E+00 0. -1.
<mgrwt>
<rscale>  2 0.10438711E+04</rscale>
<asrwt>0</asrwt>
<pdfrwt beam="1">  1       21 0.31781553E+00 0.10486807E+04</pdfrwt>
<pdfrwt beam="2">  1       21 0.80435535E-01 0.10486807E+04</pdfrwt>
<totfact> 0.13708129E+01</totfact>
</mgrwt>
</event>
<event>
 8    1  0.5815007E-006  0.1234775E+04  0.7818608E-02  0.8581849E-01
         21   -1    0    0  501  502  0.00000000000E+00  0.00000000000E+00  0.77491950516E+03  0.77491950516E+03  0.00000000000E+00 0. -1.
         21   -1    0    0  502  503 -0.00000000000E+00 -0.00000000000E+00 -0.19640222801E+04  0.19640222801E+04  0.00000000000E+00 0. -1.
   -9000010    2    1    2    0  503 -0.41712527320E+03  0.59382491069E+03 -0.66522199939E+03  0.13976289216E+04  0.99208103300E+03 0.  0.
    9000010    2    1    2  501    0  0.41712527320E+03 -0.59382491069E+03 -0.52388077552E+03  0.13413128636E+04  0.99902332954E+03 0.  0.
        -13    1    4    4    0    0  0.53192771849E+03 -0.74801446874E+03 -0.63794372349E+03  0.11177857347E+04  0.10566000000E+00 0.  1.
          4    1    4    4  501    0 -0.11480244529E+03  0.15418955805E+03  0.11406294797E+03  0.22352712890E+03  0.00000000000E+00 0.  1.
         13    1    3    3    0    0 -0.40362033170E+03  0.83723627274E+03 -0.33674400427E+03  0.98856991868E+03  0.10566000000E+00 0. -1.
         -4    1    3    3    0  503 -0.13504941500E+02 -0.24341136205E+03 -0.32847799513E+03  0.40905900296E+03  0.00000000000E+00 0. -1.
<mgrwt>
<rscale>  2 0.12333700E+04</rscale>
<asrwt>0</asrwt>
<pdfrwt beam="1">  1       21 0.11921839E+00 0.12347749E+04</pdfrwt>
<pdfrwt beam="2">  1       21 0.30215727E+00 0.12347749E+04</pdfrwt>
<totfact> 0.60657913E+00</totfact>
</mgrwt>
</event>
<event>
 8    1  0.5815007E-006  0.1074223E+04  0.7818608E-02  0.8708002E-01
         21   -1    0    0  501  502  0.00000000000E+00  0.00000000000E+00  0.73839136143E+03  0.73839136143E+03  0.00000000000E+00 0.  1.
         21   -1    0    0  502  503 -0.00000000000E+00 -0.00000000000E+00 -0.16229723322E+04  0.16229723322E+04  0.00000000000E+00 0.  1.
   -9000010    2    1    2    0  503 -0.33410047405E+03  0.24677914687E+03 -0.67216735654E+03  0.12671876889E+04  0.99067280653E+03 0.  0.
    9000010    2    1    2  501    0  0.33410047405E+03 -0.24677914687E+03 -0.21241361421E+03  0.10941760047E+04  0.98973658704E+03 0.  0.
        -13    1    4    4    0    0 -0.17241103267E+03  0.25736563108E+03 -0.21921996961E+03  0.37949972133E+03  0.10566000000E+00 0.  1.
          4    1    4    4  501    0  0.50651150672E+03 -0.50414477795E+03  0.68063554013E+01  0.71467628340E+03  0.00000000000E+00 0.  1.
         13    1    3    3    0    0 -0.15967407472E+03  0.25055059438E+03  0.21263012252E+03  0.36535324092E+03  0.10566000000E+00 0. -1.
         -4    1    3    3    0  503 -0.17442639933E+03 -0.37714475061E+01 -0.88479747906E+03  0.90183444797E+03  0.00000000000E+00 0. -1.
<mgrwt>
<rscale>  2 0.10740074E+04</rscale>
<asrwt>0</asrwt>
<pdfrwt beam="1">  1       21 0.11359867E+00 0.10742233E+04</pdfrwt>
<pdfrwt beam="2">  1       21 0.24968805E+00 0.10742233E+04</pdfrwt>
<totfact> 0.17024591E+01</totfact>
</mgrwt>
</event>
<event>
 8    1  0.5815007E-006  0.1117425E+04  0.7818608E-02  0.8681190E-01
         21   -1    0    0  503  502  0.00000000000E+00  0.00000000000E+00  0.12314469818E+04  0.12314469818E+04  0.00000000000E+00 0.  1.
         21   -1    0    0  501  503 -0.00000000000E+00 -0.00000000000E+00 -0.99539172296E+03  0.99539172296E+03  0.00000000000E+00 0.  1.
    9000010    2    1    2  501    0 -0.14980521033E+03  0.46470860102E+03 -0.53517791774E+02  0.10725030509E+04  0.95341646469E+03 0.  0.
   -9000010    2    1    2    0  502  0.14980521033E+03 -0.46470860102E+03  0.28957305065E+03  0.11543356539E+04  0.10051082357E+04 0.  0.
        -13    1    3    3    0    0  0.13793102480E+03 -0.25024022365E+03  0.64273339511E+02  0.29287575944E+03  0.10566000000E+00 0.  1.
          4    1    3    3  501    0 -0.28773623513E+03  0.71494882467E+03 -0.11779113128E+03  0.77962729141E+03  0.00000000000E+00 0.  1.
         13    1    4    4    0    0 -0.38203820081E+03 -0.39948819808E+03  0.27718440667E+03  0.61836495191E+03  0.10566000000E+00 0. -1.
         -4    1    4    4    0  502  0.53184341114E+03 -0.65220402941E+02  0.12388643980E+02  0.53597070203E+03  0.00000000000E+00 0. -1.
<mgrwt>
<rscale>  2 0.11056764E+04</rscale>
<asrwt>0</asrwt>
<pdfrwt beam="1">  1       21 0.18945338E+00 0.11174248E+04</pdfrwt>
<pdfrwt beam="2">  1       21 0.15313719E+00 0.11174248E+04</pdfrwt>
<totfact> 0.20194282E+01</totfact>
</mgrwt>
</event>
<event>
 8    1  0.5815007E-006  0.1024305E+04  0.7818608E-02  0.8752708E-01
         21   -1    0    0  501  502  0.00000000000E+00  0.00000000000E+00  0.49701639896E+03  0.49701639896E+03  0.00000000000E+00 0.  1.
         21   -1    0    0  502  503 -0.00000000000E+00 -0.00000000000E+00 -0.21906621576E+04  0.21906621576E+04  0.00000000000E+00 0.  1.
   -9000010    2    1    2    0  503 -0.24949336553E+03  0.12579552485E+03 -0.11108861732E+04  0.15092009646E+04  0.98262302445E+03 0.  0.
    9000010    2    1    2  501    0  0.24949336553E+03 -0.12579552485E+03 -0.58275958540E+03  0.11784775919E+04  0.98545890162E+03 0.  0.
        -13    1    4    4    0    0 -0.18081216444E+03 -0.42384847092E+03 -0.11140057614E+03  0.47407875363E+03  0.10566000000E+00 0.  1.
          4    1    4    4  501    0  0.43030552997E+03  0.29805294608E+03 -0.47135900925E+03  0.70439883830E+03  0.00000000000E+00 0.  1.
         13    1    3    3    0    0 -0.32464188479E+02 -0.38243762431E+03 -0.17387138956E+03  0.42135938496E+03  0.10566000000E+00 0. -1.
         -4    1    3    3    0  503 -0.21702917706E+03  0.50823314916E+03 -0.93701478364E+03  0.10878415796E+04  0.00000000000E+00 0. -1.
<mgrwt>
<rscale>  2 0.10236223E+04</rscale>
<asrwt>0</asrwt>
<pdfrwt beam="1">  1       21 0.76464060E-01 0.10243050E+04</pdfrwt>
<pdfrwt beam="2">  1       21 0.33702496E+00 0.10243050E+04</pdfrwt>
<totfact> 0.11421957E+01</totfact>
</mgrwt>
</event>
<event>
 8    1  0.5815007E-006  0.1048176E+04  0.7818608E-02  0.8734141E-01
         21   -1    0    0  501  502  0.00000000000E+00  0.00000000000E+00  0.17784695763E+04  0.17784695763E+04  0.00000000000E+00 0. -1.
         21   -1    0    0  502  503 -0.00000000000E+00 -0.00000000000E+00 -0.65638917622E+03  0.65638917622E+03  0.00000000000E+00 0. -1.
   -9000010    2    1    2    0  503 -0.26379249145E+03  0.14859834649E+03  0.23603865978E+03  0.10744245642E+04  0.10034968601E+04 0.  0.
    9000010    2    1    2  501    0  0.26379249145E+03 -0.14859834649E+03  0.88604174029E+03  0.13604341883E+04  0.98693630388E+03 0.  0.
        -13    1    4    4    0    0  0.57656839414E+03  0.15436831433E+03  0.50998022898E+03  0.78507358553E+03  0.10566000000E+00 0.  1.
          4    1    4    4  501    0 -0.31277590269E+03 -0.30296666082E+03  0.37606151132E+03  0.57536060272E+03  0.00000000000E+00 0.  1.
         13    1    3    3    0    0 -0.33011224406E+02 -0.48535243887E+02  0.59866761925E+03  0.60153831162E+03  0.10566000000E+00 0. -1.
         -4    1    3    3    0  503 -0.23078126704E+03  0.19713359038E+03 -0.36262895948E+03  0.47288625263E+03  0.00000000000E+00 0. -1.
<mgrwt>
<rscale>  2 0.10441929E+04</rscale>
<asrwt>0</asrwt>
<pdfrwt beam="1">  1       21 0.27361070E+00 0.10481765E+04</pdfrwt>
<pdfrwt beam="2">  1       21 0.10098295E+00 0.10481765E+04</pdfrwt>
<totfact> 0.15790795E+01</totfact>
</mgrwt>
</event>
<event>
 8    1  0.5815007E-006  0.1151201E+04  0.7818608E-02  0.8648479E-01
         21   -1    0    0  503  502  0.00000000000E+00  0.00000000000E+00  0.97408392472E+03  0.97408392472E+03  0.00000000000E+00 0.  1.
         21   -1    0    0  501  503 -0.00000000000E+00 -0.00000000000E+00 -0.14807412706E+04  0.14807412706E+04  0.00000000000E+00 0.  1.
    9000010    2    1    2  501    0 -0.45004040097E+03  0.27068537554E+03 -0.63971235217E+03  0.13170023033E+04  0.10244297137E+04 0.  0.
   -9000010    2    1    2    0  502  0.45004040097E+03 -0.27068537554E+03  0.13305500634E+03  0.11378228920E+04  0.10005650223E+04 0.  0.
        -13    1    3    3    0    0 -0.54501891815E+02 -0.11824457408E+03 -0.74164932117E+03  0.75299134276E+03  0.10566000000E+00 0.  1.
          4    1    3    3  501    0 -0.39553850915E+03  0.38892994961E+03  0.10193696901E+03  0.56401096051E+03  0.00000000000E+00 0.  1.
         13    1    4    4    0    0  0.35359775615E+03  0.27242040445E+03  0.32677103744E+03  0.55319397320E+03  0.10566000000E+00 0. -1.
         -4    1    4    4    0  502  0.96442644820E+02 -0.54310577999E+03 -0.19371603110E+03  0.58462891880E+03  0.00000000000E+00 0. -1.
<mgrwt>
<rscale>  2 0.11458677E+04</rscale>
<asrwt>0</asrwt>
<pdfrwt beam="1">  1       21 0.14985907E+00 0.11512008E+04</pdfrwt>
<pdfrwt beam="2">  1       21 0.22780635E+00 0.11512008E+04</pdfrwt>
<totfact> 0.10860882E+01</totfact>
</mgrwt>
</event>
<event>
 8    1  0.5815007E-006  0.1216395E+04  0.7818608E-02  0.8620387E-01
         21   -1    0    0  501  502  0.00000000000E+00  0.00000000000E+00  0.11063560675E+04  0.11063560675E+04  0.00000000000E+00 0. -1.
         21   -1    0    0  502  503 -0.00000000000E+00 -0.00000000000E+00 -0.13288585823E+04  0.13288585823E+04  0.00000000000E+00 0. -1.
   -9000010    2    1    2    0  503 -0.37968849553E+03 -0.10668825531E+03 -0.50200520324E+03  0.13159128912E+04  0.11506831778E+04 0.  0.
    9000010    2    1    2  501    0  0.37968849553E+03  0.10668825531E+03  0.27950268840E+03  0.11193017586E+04  0.10095389723E+04 0.  0.
        -13    1    4    4    0    0  0.30566379095E+03  0.54329965395E+03  0.26174693957E+03  0.67610379279E+03  0.10566000000E+00 0.  1.
          4    1    4    4  501    0  0.74024704586E+02 -0.43661139865E+03  0.17755748830E+02  0.44319796585E+03  0.00000000000E+00 0.  1.
         13    1    3    3    0    0  0.12730113028E+03  0.30128655835E+03  0.17992944965E+03  0.37330120014E+03  0.10566000000E+00 0. -1.
         -4    1    3    3    0  503 -0.50698962581E+03 -0.40797481366E+03 -0.68193465288E+03  0.94261169103E+03  0.00000000000E+00 0. -1.
<mgrwt>
<rscale>  2 0.11818098E+04</rscale>
<asrwt>0</asrwt>
<pdfrwt beam="1">  1       21 0.17020863E+00 0.12163953E+04</pdfrwt>
<pdfrwt beam="2">  1       21 0.20443978E+00 0.12163953E+04</pdfrwt>
<totfact> 0.10752768E+01</totfact>
</mgrwt>
</event>
<event>
 8    1  0.5815007E-006  0.1138286E+04  0.7818608E-02  0.8655615E-01
         21   -1    0    0  503  502  0.00000000000E+00  0.00000000000E+00  0.70379583645E+03  0.70379583645E+03  0.00000000000E+00 0. -1.
         21   -1    0    0  501  503 -0.00000000000E+00 -0.00000000000E+00 -0.20891923299E+04  0.20891923299E+04  0.00000000000E+00 0. -1.
    9000010    2    1    2  501    0 -0.41110780052E+03 -0.33685624746E+03 -0.11808759706E+04  0.16364741641E+04  0.10005487878E+04 0.  0.
   -9000010    2    1    2    0  502  0.41110780052E+03  0.33685624746E+03 -0.20452052285E+03  0.11565140023E+04  0.10065854351E+04 0.  0.
        -13    1    3    3    0    0  0.21857430867E+03  0.20592321849E+03 -0.34894267840E+03  0.46036953015E+03  0.10566000000E+00 0.  1.
          4    1    3    3  501    0 -0.62968210919E+03 -0.54277946595E+03 -0.83193329218E+03  0.11761046339E+04  0.00000000000E+00 0.  1.
         13    1    4    4    0    0 -0.26811544287E+03  0.27127728363E+03 -0.27541717592E+03  0.47045923019E+03  0.10566000000E+00 0. -1.
         -4    1    4    4    0  502  0.67922324339E+03  0.65578963833E+02  0.70896653067E+02  0.68605477207E+03  0.00000000000E+00 0. -1.
<mgrwt>
<rscale>  2 0.11369504E+04</rscale>
<asrwt>0</asrwt>
<pdfrwt beam="1">  1       21 0.10827628E+00 0.11382864E+04</pdfrwt>
<pdfrwt beam="2">  1       21 0.32141420E+00 0.11382864E+04</pdfrwt>
<totfact> 0.58987156E+00</totfact>
</mgrwt>
</event>
<event>
 8    1  0.5815007E-006  0.1253023E+04  0.7818608E-02  0.8570320E-01
         21   -1    0    0  501  502  0.00000000000E+00  0.00000000000E+00  0.14108117840E+04  0.14108117840E+04  0.00000000000E+00 0. -1.
         21   -1    0    0  502  503 -0.00000000000E+00 -0.00000000000E+00 -0.11399237380E+04  0.11399237380E+04  0.00000000000E+00 0. -1.
   -9000010    2    1    2    0  503 -0.65396017641E+03  0.37875080091E+03 -0.10452774443E+03  0.12426818551E+04  0.98092612469E+03 0.  0.
    9000010    2    1    2  501    0  0.65396017641E+03 -0.37875080091E+03  0.37541579046E+03  0.13080536669E+04  0.99947551159E+03 0.  0.
        -13    1    4    4    0    0  0.55941973396E+03 -0.22042582831E+03 -0.25359429414E+03  0.65257035001E+03  0.10566000000E+00 0.  1.
          4    1    4    4  501    0  0.94540442450E+02 -0.15832497261E+03  0.62901008459E+03  0.65548331690E+03  0.00000000000E+00 0.  1.
         13    1    3    3    0    0 -0.29179576651E+03 -0.18983642669E+03  0.29737579055E+03  0.45783731851E+03  0.10566000000E+00 0. -1.
         -4    1    3    3    0  503 -0.36216440990E+03  0.56858722760E+03 -0.40190353497E+03  0.78484453659E+03  0.00000000000E+00 0. -1.
<mgrwt>
<rscale>  2 0.12493206E+04</rscale>
<asrwt>0</asrwt>
<pdfrwt beam="1">  1       21 0.21704797E+00 0.12530233E+04</pdfrwt>
<pdfrwt beam="2">  1       21 0.17537288E+00 0.12530233E+04</pdfrwt>
<totfact> 0.77356834E+00</totfact>
</mgrwt>
</event>
<event>
 8    1  0.5815007E-006  0.1095152E+04  0.7818608E-02  0.8698470E-01
         21   -1    0    0  501  502  0.00000000000E+00  0.00000000000E+00  0.71669977114E+03  0.71669977114E+03  0.00000000000E+00 0. -1.
         21   -1    0    0  502  503 -0.00000000000E+00 -0.00000000000E+00 -0.16753969162E+04  0.16753969162E+04  0.00000000000E+00 0. -1.
   -9000010    2    1    2    0  503  0.30489638488E+03 -0.20480070532E+03 -0.71747206349E+03  0.13092456130E+04  0.10317232084E+04 0.  0.
    9000010    2    1    2  501    0 -0.30489638488E+03  0.20480070532E+03 -0.24122508154E+03  0.10828510744E+04  0.98968266373E+03 0.  0.
        -13    1    4    4    0    0 -0.32316020422E+03 -0.13477215929E+03  0.28828510421E+03  0.45354643090E+03  0.10566000000E+00 0.  1.
          4    1    4    4  501    0  0.18263819335E+02  0.33957286460E+03 -0.52951018576E+03  0.62930464347E+03  0.00000000000E+00 0.  1.
         13    1    3    3    0    0  0.15110783783E+03 -0.16909301439E+03  0.24503937034E+03  0.33387172739E+03  0.10566000000E+00 0. -1.
         -4    1    3    3    0  503  0.15378854705E+03 -0.35707690928E+02 -0.96251143383E+03  0.97537388556E+03  0.00000000000E+00 0. -1.
<mgrwt>
<rscale>  2 0.10851376E+04</rscale>
<asrwt>0</asrwt>
<pdfrwt beam="1">  1       21 0.11026150E+00 0.10951520E+04</pdfrwt>
<pdfrwt beam="2">  1       21 0.25775337E+00 0.10951520E+04</pdfrwt>
<totfact> 0.16068640E+01</totfact>
</mgrwt>
</event>
<event>
 8    1  0.5815007E-006  0.1336380E+04  0.7818608E-02  0.8516585E-01
         21   -1    0    0  501  502  0.00000000000E+00  0.00000000000E+00  0.17440278640E+04  0.17440278640E+04  0.00000000000E+00 0.  1.
         21   -1    0    0  502  503 -0.00000000000E+00 -0.00000000000E+00 -0.13872432901E+04  0.13872432901E+04  0.00000000000E+00 0.  1.
   -9000010    2    1    2    0  503  0.71423081616E+03 -0.42949448589E+03 -0.65492946540E+03  0.14551221272E+04  0.99692358196E+03 0.  0.
    9000010    2    1    2  501    0 -0.71423081616E+03  0.42949448589E+03  0.10117140393E+04  0.16761490270E+04  0.10446621900E+04 0.  0.
        -13    1    4    4    0    0 -0.18724279334E+02  0.46564763243E+03  0.22764206765E+02  0.46657961432E+03  0.10566000000E+00 0.  1.
          4    1    4    4  501    0 -0.69550653683E+03 -0.36153146546E+02  0.98894983254E+03  0.12095694127E+04  0.00000000000E+00 0.  1.
         13    1    3    3    0    0  0.54842399817E+02 -0.15583941614E+03  0.25174441249E+03  0.30111272445E+03  0.10566000000E+00 0. -1.
         -4    1    3    3    0  503  0.65938841635E+03 -0.27365506975E+03 -0.90667387789E+03  0.11540094028E+04  0.00000000000E+00 0. -1.
<mgrwt>
<rscale>  2 0.13270379E+04</rscale>
<asrwt>0</asrwt>
<pdfrwt beam="1">  1       21 0.26831198E+00 0.13363795E+04</pdfrwt>
<pdfrwt beam="2">  1       21 0.21342204E+00 0.13363795E+04</pdfrwt>
<totfact> 0.15913165E+00</totfact>
</mgrwt>
</event>
<event>
 8    1  0.5815007E-006  0.1056564E+04  0.7818608E-02  0.8741147E-01
         21   -1    0    0  503  502  0.00000000000E+00  0.00000000000E+00  0.77309653913E+03  0.77309653913E+03  0.00000000000E+00 0.  1.
         21   -1    0    0  501  503 -0.00000000000E+00 -0.00000000000E+00 -0.13592449586E+04  0.13592449586E+04  0.00000000000E+00 0.  1.
    9000010    2    1    2  501    0 -0.32125166107E+03 -0.20013297486E+03 -0.15097879864E+03  0.98966879018E+03  0.90188351756E+03 0.  0.
   -9000010    2    1    2    0  502  0.32125166107E+03  0.20013297486E+03 -0.43516962086E+03  0.11426727076E+04  0.98644436252E+03 0.  0.
        -13    1    3    3    0    0  0.78111692297E+02  0.13389748262E+03  0.27585507690E+03  0.31642693776E+03  0.10566000000E+00 0.  1.
          4    1    3    3  501    0 -0.39936335337E+03 -0.33403045748E+03 -0.42683387554E+03  0.67324185242E+03  0.00000000000E+00 0.  1.
         13    1    4    4    0    0  0.17986200003E+03 -0.21394826150E+03  0.21939573683E+03  0.35532899988E+03  0.10566000000E+00 0. -1.
         -4    1    4    4    0  502  0.14138966105E+03  0.41408123637E+03 -0.65456535769E+03  0.78734370770E+03  0.00000000000E+00 0. -1.
<mgrwt>
<rscale>  2 0.10363730E+04</rscale>
<asrwt>0</asrwt>
<pdfrwt beam="1">  1       21 0.11893793E+00 0.10565644E+04</pdfrwt>
<pdfrwt beam="2">  1       21 0.20911461E+00 0.10565644E+04</pdfrwt>
<totfact> 0.30201220E+01</totfact>
</mgrwt>
</event>
<event>
 8    1  0.5815007E-006  0.1081081E+04  0.7818608E-02  0.8714178E-01
         21   -1    0    0  503  502  0.00000000000E+00  0.00000000000E+00  0.70146404414E+03  0.70146404414E+03  0.00000000000E+00 0.  1.
         21   -1    0    0  501  503 -0.00000000000E+00 -0.00000000000E+00 -0.16464512336E+04  0.16464512336E+04  0.00000000000E+00 0.  1.
    9000010    2    1    2  501    0  0.31958760130E+03 -0.25279089500E+03 -0.69384290766E+03  0.12380460715E+04  0.94090415193E+03 0.  0.
   -9000010    2    1    2    0  502 -0.31958760130E+03  0.25279089500E+03 -0.25114428179E+03  0.11098692062E+04  0.10013474588E+04 0.  0.
        -13    1    3    3    0    0  0.15261423300E+03  0.90765324847E+02 -0.81748791748E+03  0.83655003119E+03  0.10566000000E+00 0.  1.
          4    1    3    3  501    0  0.16697336831E+03 -0.34355621985E+03  0.12364500981E+03  0.40149604029E+03  0.00000000000E+00 0.  1.
         13    1    4    4    0    0 -0.67466115850E+03  0.25615601129E+03 -0.12125702101E+03  0.73176967497E+03  0.10566000000E+00 0. -1.
         -4    1    4    4    0  502  0.35507355719E+03 -0.33651162855E+01 -0.12988726078E+03  0.37809953126E+03  0.00000000000E+00 0. -1.
<mgrwt>
<rscale>  2 0.10668702E+04</rscale>
<asrwt>0</asrwt>
<pdfrwt beam="1">  1       21 0.10791755E+00 0.10810810E+04</pdfrwt>
<pdfrwt beam="2">  1       21 0.25330019E+00 0.10810810E+04</pdfrwt>
<totfact> 0.18398136E+01</totfact>
</mgrwt>
</event>
<event>
 8    1  0.5815007E-006  0.1371589E+04  0.7818608E-02  0.8499165E-01
         21   -1    0    0  503  502  0.00000000000E+00  0.00000000000E+00  0.28117036113E+04  0.28117036113E+04  0.00000000000E+00 0. -1.
         21   -1    0    0  501  503 -0.00000000000E+00 -0.00000000000E+00 -0.63581945554E+03  0.63581945554E+03  0.00000000000E+00 0.  1.
    9000010    2    1    2  501    0 -0.17299907411E+03 -0.87932684448E+03  0.11253676504E+04  0.17198539453E+04  0.94249714355E+03 0.  0.
   -9000010    2    1    2    0  502  0.17299907411E+03  0.87932684448E+03  0.10505165054E+04  0.17276691215E+04  0.10383213791E+04 0.  0.
        -13    1    3    3    0    0 -0.48577740134E+03 -0.62640543590E+03  0.39409756948E+03  0.88525496847E+03  0.10566000000E+00 0.  1.
          4    1    3    3  501    0  0.31277832723E+03 -0.25292140858E+03  0.73127008092E+03  0.83459897684E+03  0.00000000000E+00 0.  1.
         13    1    4    4    0    0  0.27349006131E+03  0.36980412029E+03  0.11132808829E+04  0.12045522971E+04  0.10566000000E+00 0. -1.
         -4    1    4    4    0  502 -0.10049098720E+03  0.50952272419E+03 -0.62764377499E+02  0.52311682448E+03  0.00000000000E+00 0. -1.
<mgrwt>
<rscale>  2 0.13534748E+04</rscale>
<asrwt>0</asrwt>
<pdfrwt beam="1">  1       21 0.43256978E+00 0.13715887E+04</pdfrwt>
<pdfrwt beam="2">  1       21 0.97818380E-01 0.13715887E+04</pdfrwt>
<totfact> 0.12375234E+00</totfact>
</mgrwt>
</event>
<event>
 8    1  0.5815007E-006  0.1318056E+04  0.7818608E-02  0.8525983E-01
         21   -1    0    0  503  502  0.00000000000E+00  0.00000000000E+00  0.11315960207E+04  0.11315960207E+04  0.00000000000E+00 0. -1.
         21   -1    0    0  501  503 -0.00000000000E+00 -0.00000000000E+00 -0.18321838583E+04  0.18321838583E+04  0.00000000000E+00 0. -1.
    9000010    2    1    2  501    0  0.80671064484E+03  0.16211846632E+03 -0.97191123055E+03  0.16376458143E+04  0.10296639799E+04 0.  0.
   -9000010    2    1    2    0  502 -0.80671064484E+03 -0.16211846632E+03  0.27132339287E+03  0.13261340647E+04  0.10039674857E+04 0.  0.
        -13    1    3    3    0    0 -0.16221520083E+03  0.28551997356E+03 -0.14967445567E+03  0.36088485771E+03  0.10566000000E+00 0.  1.
          4    1    3    3  501    0  0.96892584568E+03 -0.12340150724E+03 -0.82223677488E+03  0.12767609566E+04  0.00000000000E+00 0.  1.
         13    1    4    4    0    0  0.33415391932E+02  0.18682066749E+03  0.36522480634E+03  0.41159169155E+03  0.10566000000E+00 0. -1.
         -4    1    4    4    0  502 -0.84012603678E+03 -0.34893913381E+03 -0.93901413478E+02  0.91454237312E+03  0.00000000000E+00 0. -1.
<mgrwt>
<rscale>  2 0.13130339E+04</rscale>
<asrwt>0</asrwt>
<pdfrwt beam="1">  1       21 0.17409170E+00 0.13180563E+04</pdfrwt>
<pdfrwt beam="2">  1       21 0.28187444E+00 0.13180563E+04</pdfrwt>
<totfact> 0.26242554E+00</totfact>
</mgrwt>
</event>
<event>
 8    1  0.5815007E-006  0.1101337E+04  0.7818608E-02  0.8686301E-01
         21   -1    0    0  501  502  0.00000000000E+00  0.00000000000E+00  0.35038259350E+03  0.35038259350E+03  0.00000000000E+00 0.  1.
         21   -1    0    0  502  503 -0.00000000000E+00 -0.00000000000E+00 -0.34447642604E+04  0.34447642604E+04  0.00000000000E+00 0.  1.
   -9000010    2    1    2    0  503 -0.44968277476E+03  0.47538019092E+02 -0.16168678657E+04  0.19523256347E+04  0.99641318115E+03 0.  0.
    9000010    2    1    2  501    0  0.44968277476E+03 -0.47538019092E+02 -0.14775138012E+04  0.18428212192E+04  0.10042253492E+04 0.  0.
        -13    1    4    4    0    0 -0.31697151375E+03 -0.26357958056E+02 -0.29778562694E+03  0.43570858754E+03  0.10566000000E+00 0.  1.
          4    1    4    4  501    0  0.76665428851E+03 -0.21180061036E+02 -0.11797281742E+04  0.14071126316E+04  0.00000000000E+00 0.  1.
         13    1    3    3    0    0 -0.47827738316E+03  0.46330950026E+03 -0.85264245512E+03  0.10818521691E+04  0.10566000000E+00 0. -1.
         -4    1    3    3    0  503  0.28594608396E+02 -0.41577148117E+03 -0.76422541061E+03  0.87047346566E+03  0.00000000000E+00 0. -1.
<mgrwt>
<rscale>  2 0.10995529E+04</rscale>
<asrwt>0</asrwt>
<pdfrwt beam="1">  1       21 0.53905015E-01 0.11013369E+04</pdfrwt>
<pdfrwt beam="2">  1       21 0.52996373E+00 0.11013369E+04</pdfrwt>
<totfact> 0.11445888E+00</totfact>
</mgrwt>
</event>
<event>
 8    1  0.5815007E-006  0.1051660E+04  0.7818608E-02  0.8728865E-01
         21   -1    0    0  503  502  0.00000000000E+00  0.00000000000E+00  0.17304645360E+04  0.17304645360E+04  0.00000000000E+00 0.  1.
         21   -1    0    0  501  503 -0.00000000000E+00 -0.00000000000E+00 -0.64487712863E+03  0.64487712863E+03  0.00000000000E+00 0.  1.
    9000010    2    1    2  501    0  0.32707281066E+03 -0.68529238612E+02  0.39740551530E+03  0.11185269606E+04  0.99070608052E+03 0.  0.
   -9000010    2    1    2    0  502 -0.32707281066E+03  0.68529238612E+02  0.68818189213E+03  0.12568147041E+04  0.99715395186E+03 0.  0.
        -13    1    3    3    0    0  0.17666152386E+03 -0.50090136663E+03  0.39298500161E+03  0.66071831802E+03  0.10566000000E+00 0.  1.
          4    1    3    3  501    0  0.15041128680E+03  0.43237212802E+03  0.44205136866E+01  0.45780864258E+03  0.00000000000E+00 0.  1.
         13    1    4    4    0    0 -0.50426622554E+03  0.36729782489E+03  0.66020265858E+03  0.90832795837E+03  0.10566000000E+00 0. -1.
         -4    1    4    4    0  502  0.17719341488E+03 -0.29876858628E+03  0.27979233543E+02  0.34848674571E+03  0.00000000000E+00 0. -1.
<mgrwt>
<rscale>  2 0.10501288E+04</rscale>
<asrwt>0</asrwt>
<pdfrwt beam="1">  1       21 0.26622531E+00 0.10516601E+04</pdfrwt>
<pdfrwt beam="2">  1       21 0.99211866E-01 0.10516601E+04</pdfrwt>
<totfact> 0.18671462E+01</totfact>
</mgrwt>
</event>
<event>
 8    1  0.5815007E-006  0.1119937E+04  0.7818608E-02  0.8671978E-01
         21   -1    0    0  501  502  0.00000000000E+00  0.00000000000E+00  0.19186090598E+04  0.19186090598E+04  0.00000000000E+00 0. -1.
         21   -1    0    0  502  503 -0.00000000000E+00 -0.00000000000E+00 -0.65701103549E+03  0.65701103549E+03  0.00000000000E+00 0. -1.
   -9000010    2    1    2    0  503  0.43650731057E+03  0.20043061150E+03  0.47139935435E+03  0.12151037189E+04  0.10117058042E+04 0.  0.
    9000010    2    1    2  501    0 -0.43650731057E+03 -0.20043061150E+03  0.79019866994E+03  0.13605163764E+04  0.99793777873E+03 0.  0.
        -13    1    4    4    0    0 -0.35898669221E+03 -0.58976597277E+03  0.37346524977E+03  0.78496601950E+03  0.10566000000E+00 0.  1.
          4    1    4    4  501    0 -0.77520618356E+02  0.38933536128E+03  0.41673342018E+03  0.57555035688E+03  0.00000000000E+00 0.  1.
         13    1    3    3    0    0 -0.22605806469E+03 -0.10260929182E+03 -0.12091355204E+03  0.27613586078E+03  0.10566000000E+00 0. -1.
         -4    1    3    3    0  503  0.66256537525E+03  0.30303990331E+03  0.59231290639E+03  0.93896785811E+03  0.00000000000E+00 0. -1.
<mgrwt>
<rscale>  2 0.11168189E+04</rscale>
<asrwt>0</asrwt>
<pdfrwt beam="1">  1       21 0.29517062E+00 0.11199374E+04</pdfrwt>
<pdfrwt beam="2">  1       21 0.10107862E+00 0.11199374E+04</pdfrwt>
<totfact> 0.10894182E+01</totfact>
</mgrwt>
</event>
<event>
 8    1  0.5815007E-006  0.1045728E+04  0.7818608E-02  0.8734697E-01
         21   -1    0    0  501  502  0.00000000000E+00  0.00000000000E+00  0.11621883586E+04  0.11621883586E+04  0.00000000000E+00 0.  1.
         21   -1    0    0  502  503 -0.00000000000E+00 -0.00000000000E+00 -0.94703732050E+03  0.94703732050E+03  0.00000000000E+00 0.  1.
   -9000010    2    1    2    0  503  0.90014440084E+02 -0.29302161403E+03 -0.19426903416E+02  0.10459089060E+04  0.99979186299E+03 0.  0.
    9000010    2    1    2  501    0 -0.90014440084E+02  0.29302161403E+03  0.23457794151E+03  0.10633167731E+04  0.99078326775E+03 0.  0.
        -13    1    4    4    0    0  0.19579681481E+03 -0.15565668860E+03 -0.24276909961E+03  0.34857172043E+03  0.10566000000E+00 0.  1.
          4    1    4    4  501    0 -0.28581125490E+03  0.44867830264E+03  0.47734704112E+03  0.71474505269E+03  0.00000000000E+00 0.  1.
         13    1    3    3    0    0 -0.32492207558E+02  0.20204640740E+03  0.35736924456E+03  0.41181462143E+03  0.10566000000E+00 0. -1.
         -4    1    3    3    0  503  0.12250664764E+03 -0.49506802144E+03 -0.37679614798E+03  0.63409428455E+03  0.00000000000E+00 0. -1.
<mgrwt>
<rscale>  2 0.10435694E+04</rscale>
<asrwt>0</asrwt>
<pdfrwt beam="1">  1       21 0.17879821E+00 0.10457285E+04</pdfrwt>
<pdfrwt beam="2">  1       21 0.14569805E+00 0.10457285E+04</pdfrwt>
<totfact> 0.29155370E+01</totfact>
</mgrwt>
</event>
<event>
 8    1  0.5815007E-006  0.1104327E+04  0.7818608E-02  0.8709960E-01
         21   -1    0    0  503  502  0.00000000000E+00  0.00000000000E+00  0.12839407999E+04  0.12839407999E+04  0.00000000000E+00 0.  1.
         21   -1    0    0  501  503 -0.00000000000E+00 -0.00000000000E+00 -0.85783202050E+03  0.85783202050E+03  0.00000000000E+00 0.  1.
    9000010    2    1    2  501    0  0.31916052178E+03  0.33650303659E+03  0.35318949077E+03  0.11594315488E+04  0.10022180240E+04 0.  0.
   -9000010    2    1    2    0  502 -0.31916052178E+03 -0.33650303659E+03  0.72919288607E+02  0.98234127158E+03  0.86289015459E+03 0.  0.
        -13    1    3    3    0    0  0.20171583696E+03  0.69199312949E+03  0.30222504177E+03  0.78159053038E+03  0.10566000000E+00 0.  1.
          4    1    3    3  501    0  0.11744468481E+03 -0.35549009290E+03  0.50964448995E+02  0.37784101842E+03  0.00000000000E+00 0.  1.
         13    1    4    4    0    0 -0.18042871453E+03 -0.11521803609E+03 -0.39339221624E+03  0.44786958351E+03  0.10566000000E+00 0. -1.
         -4    1    4    4    0  502 -0.13873180725E+03 -0.22128500050E+03  0.46631150485E+03  0.53447168807E+03  0.00000000000E+00 0. -1.
<mgrwt>
<rscale>  2 0.10717389E+04</rscale>
<asrwt>0</asrwt>
<pdfrwt beam="1">  1       21 0.19752935E+00 0.11043273E+04</pdfrwt>
<pdfrwt beam="2">  1       21 0.13197416E+00 0.11043273E+04</pdfrwt>
<totfact> 0.27344388E+01</totfact>
</mgrwt>
</event>
<event>
 8    1  0.5815007E-006  0.1531988E+04  0.7818608E-02  0.8418699E-01
         21   -1    0    0  501  502  0.00000000000E+00  0.00000000000E+00  0.10730885541E+04  0.10730885541E+04  0.00000000000E+00 0. -1.
         21   -1    0    0  502  503 -0.00000000000E+00 -0.00000000000E+00 -0.23514890612E+04  0.23514890612E+04  0.00000000000E+00 0.  1.
   -9000010    2    1    2    0  503  0.94119482114E+02  0.95402167820E+03 -0.13260862875E+04  0.18918476598E+04  0.94950876056E+03 0.  0.
    9000010    2    1    2  501    0 -0.94119482114E+02 -0.95402167820E+03  0.47685780493E+02  0.15327299555E+04  0.11949775494E+04 0.  0.
        -13    1    4    4    0    0  0.34849341239E+03  0.91543296727E+02  0.15507783393E+03  0.39227156333E+03  0.10566000000E+00 0.  1.
          4    1    4    4  501    0 -0.44261289451E+03 -0.10455649749E+04 -0.10739205344E+03  0.11404583922E+04  0.00000000000E+00 0.  1.
         13    1    3    3    0    0  0.34760118538E+03  0.20897451069E+03 -0.92182015533E+03  0.10070994688E+04  0.10566000000E+00 0. -1.
         -4    1    3    3    0  503 -0.25348170326E+03  0.74504716751E+03 -0.40426613220E+03  0.88474819092E+03  0.00000000000E+00 0. -1.
<mgrwt>
<rscale>  2 0.14841159E+04</rscale>
<asrwt>0</asrwt>
<pdfrwt beam="1">  1       21 0.16509055E+00 0.15319880E+04</pdfrwt>
<pdfrwt beam="2">  1       21 0.36176755E+00 0.15319880E+04</pdfrwt>
<totfact> 0.82109786E-01</totfact>
</mgrwt>
</event>
<event>
 8    1  0.5815007E-006  0.1092329E+04  0.7818608E-02  0.8697653E-01
         21   -1    0    0  501  502  0.00000000000E+00  0.00000000000E+00  0.22751267740E+04  0.22751267740E+04  0.00000000000E+00 0.  1.
         21   -1    0    0  502  503 -0.00000000000E+00 -0.00000000000E+00 -0.51491584696E+03  0.51491584696E+03  0.00000000000E+00 0.  1.
   -9000010    2    1    2    0  503 -0.32976791575E+03 -0.26139056150E+03  0.77758113199E+03  0.13207764925E+04  0.98119632200E+03 0.  0.
    9000010    2    1    2  501    0  0.32976791575E+03  0.26139056150E+03  0.98262979508E+03  0.14692661285E+04  0.10080226874E+04 0.  0.
        -13    1    4    4    0    0  0.69045702687E+03  0.19174032050E+03  0.56108013979E+03  0.91011328465E+03  0.10566000000E+00 0.  1.
          4    1    4    4  501    0 -0.36068911112E+03  0.69650240995E+02  0.42154965529E+03  0.55915284389E+03  0.00000000000E+00 0.  1.
         13    1    3    3    0    0 -0.22734697076E+03 -0.52613612420E+03  0.94279569602E+02  0.58085670755E+03  0.10566000000E+00 0. -1.
         -4    1    3    3    0  503 -0.10242094500E+03  0.26474556270E+03  0.68330156238E+03  0.73991978491E+03  0.00000000000E+00 0. -1.
<mgrwt>
<rscale>  2 0.10860990E+04</rscale>
<asrwt>0</asrwt>
<pdfrwt beam="1">  1       21 0.35001950E+00 0.10923285E+04</pdfrwt>
<pdfrwt beam="2">  1       21 0.79217824E-01 0.10923285E+04</pdfrwt>
<totfact> 0.83741707E+00</totfact>
</mgrwt>
</event>
<event>
 8    1  0.5815007E-006  0.1133267E+04  0.7818608E-02  0.8667667E-01
         21   -1    0    0  503  502  0.00000000000E+00  0.00000000000E+00  0.11405342206E+04  0.11405342206E+04  0.00000000000E+00 0.  1.
         21   -1    0    0  501  503 -0.00000000000E+00 -0.00000000000E+00 -0.10918324227E+04  0.10918324227E+04  0.00000000000E+00 0.  1.
    9000010    2    1    2  501    0  0.12038561316E+03 -0.41440630702E+03 -0.78375890880E+02  0.10919972913E+04  0.10000450093E+04 0.  0.
   -9000010    2    1    2    0  502 -0.12038561316E+03  0.41440630702E+03  0.12707768885E+03  0.11403693520E+04  0.10478875115E+04 0.  0.
        -13    1    3    3    0    0  0.52992344555E+03 -0.35372292187E+02 -0.43794293711E+02  0.53290525286E+03  0.10566000000E+00 0.  1.
          4    1    3    3  501    0 -0.40953783239E+03 -0.37903401483E+03 -0.34581597169E+02  0.55909203842E+03  0.00000000000E+00 0.  1.
         13    1    4    4    0    0 -0.55398681432E+03  0.42251429432E+03  0.38809972571E+02  0.69780079140E+03  0.10566000000E+00 0. -1.
         -4    1    4    4    0  502  0.43360120116E+03 -0.81079873047E+01  0.88267716276E+02  0.44256856061E+03  0.00000000000E+00 0. -1.
<mgrwt>
<rscale>  2 0.11220808E+04</rscale>
<asrwt>0</asrwt>
<pdfrwt beam="1">  1       21 0.17546680E+00 0.11332667E+04</pdfrwt>
<pdfrwt beam="2">  1       21 0.16797422E+00 0.11332667E+04</pdfrwt>
<totfact> 0.19471794E+01</totfact>
</mgrwt>
</event>
<event>
 8    1  0.5815007E-006  0.1400645E+04  0.7818608E-02  0.8469153E-01
         21   -1    0    0  503  502  0.00000000000E+00  0.00000000000E+00  0.20402422416E+04  0.20402422416E+04  0.00000000000E+00 0.  1.
         21   -1    0    0  501  503 -0.00000000000E+00 -0.00000000000E+00 -0.96831589264E+03  0.96831589264E+03  0.00000000000E+00 0. -1.
    9000010    2    1    2  501    0  0.29374408903E+03  0.92469051646E+03  0.66464559808E+03  0.15498999964E+04  0.10095038815E+04 0.  0.
   -9000010    2    1    2    0  502 -0.29374408903E+03 -0.92469051646E+03  0.40728075086E+03  0.14586581378E+04  0.10101820687E+04 0.  0.
        -13    1    3    3    0    0  0.24611088190E+03  0.11531010018E+02  0.58172183701E+03  0.63174665587E+03  0.10566000000E+00 0.  1.
          4    1    3    3  501    0  0.47633207134E+02  0.91315950644E+03  0.82923761067E+02  0.91815334056E+03  0.00000000000E+00 0.  1.
         13    1    4    4    0    0 -0.30025213087E+03 -0.50872434231E+03  0.72500354594E+03  0.93519086359E+03  0.10566000000E+00 0. -1.
         -4    1    4    4    0  502  0.65080418413E+01 -0.41596617415E+03 -0.31772279508E+03  0.52346727420E+03  0.00000000000E+00 0. -1.
<mgrwt>
<rscale>  2 0.14005226E+04</rscale>
<asrwt>0</asrwt>
<pdfrwt beam="1">  1       21 0.31388342E+00 0.14006448E+04</pdfrwt>
<pdfrwt beam="2">  1       21 0.14897168E+00 0.14006448E+04</pdfrwt>
<totfact> 0.25252449E+00</totfact>
</mgrwt>
</event>
<event>
 8    1  0.5815007E-006  0.1348257E+04  0.7818608E-02  0.8523000E-01
         21   -1    0    0  501  502  0.00000000000E+00  0.00000000000E+00  0.20323532882E+04  0.20323532882E+04  0.00000000000E+00 0. -1.
         21   -1    0    0  502  503 -0.00000000000E+00 -0.00000000000E+00 -0.86313151544E+03  0.86313151544E+03  0.00000000000E+00 0. -1.
   -9000010    2    1    2    0  503  0.47239328346E+03  0.78141444670E+03  0.27656022089E+03  0.13763294183E+04  0.99198445556E+03 0.  0.
    9000010    2    1    2  501    0 -0.47239328346E+03 -0.78141444670E+03  0.89266155190E+03  0.15191553854E+04  0.82293650239E+03 0.  0.
        -13    1    4    4    0    0 -0.72210230652E+02 -0.76887230436E+03  0.79227899969E+03  0.11063837320E+04  0.10566000000E+00 0.  1.
          4    1    4    4  501    0 -0.40018305281E+03 -0.12542142332E+02  0.10038255221E+03  0.41277165343E+03  0.00000000000E+00 0.  1.
         13    1    3    3    0    0  0.59870154565E+03  0.95660568157E+03  0.19375564429E+03  0.11450236817E+04  0.10566000000E+00 0. -1.
         -4    1    3    3    0  503 -0.12630826219E+03 -0.17519123487E+03  0.82804576599E+02  0.23130573659E+03  0.00000000000E+00 0. -1.
<mgrwt>
<rscale>  2 0.13174592E+04</rscale>
<asrwt>0</asrwt>
<pdfrwt beam="1">  1       21 0.31266974E+00 0.13482571E+04</pdfrwt>
<pdfrwt beam="2">  1       21 0.13278946E+00 0.13482571E+04</pdfrwt>
<totfact> 0.36741927E+00</totfact>
</mgrwt>
</event>
<event>
 8    1  0.5815007E-006  0.1108626E+04  0.7818608E-02  0.8719418E-01
         21   -1    0    0  503  502  0.00000000000E+00  0.00000000000E+00  0.94820015398E+03  0.94820015398E+03  0.00000000000E+00 0.  1.
         21   -1    0    0  501  503 -0.00000000000E+00 -0.00000000000E+00 -0.10959434790E+04  0.10959434790E+04  0.00000000000E+00 0.  1.
    9000010    2    1    2  501    0 -0.44921194197E+03  0.99039054996E+02 -0.92272896935E+02  0.93413123482E+03  0.80776653380E+03 0.  0.
   -9000010    2    1    2    0  502  0.44921194197E+03 -0.99039054996E+02 -0.55470428107E+02  0.11100123982E+04  0.10086874900E+04 0.  0.
        -13    1    3    3    0    0 -0.25207117454E+03  0.42332744096E+03 -0.21173628332E+03  0.53626324146E+03  0.10566000000E+00 0.  1.
          4    1    3    3  501    0 -0.19714076742E+03 -0.32428838596E+03  0.11946338639E+03  0.39786799336E+03  0.00000000000E+00 0.  1.
         13    1    4    4    0    0  0.43690574880E+03 -0.94491939896E+00  0.43092919440E+03  0.61366726160E+03  0.10566000000E+00 0. -1.
         -4    1    4    4    0  502  0.12306193168E+02 -0.98094135597E+02 -0.48639962251E+03  0.49634513658E+03  0.00000000000E+00 0. -1.
<mgrwt>
<rscale>  2 0.10608606E+04</rscale>
<asrwt>0</asrwt>
<pdfrwt beam="1">  1       21 0.14587695E+00 0.11086255E+04</pdfrwt>
<pdfrwt beam="2">  1       21 0.16860669E+00 0.11086255E+04</pdfrwt>
<totfact> 0.34828049E+01</totfact>
</mgrwt>
</event>
<event>
 8    1  0.5815007E-006  0.1028490E+04  0.7818608E-02  0.8749756E-01
         21   -1    0    0  501  502  0.00000000000E+00  0.00000000000E+00  0.12711636424E+04  0.12711636424E+04  0.00000000000E+00 0. -1.
         21   -1    0    0  502  503 -0.00000000000E+00 -0.00000000000E+00 -0.82893634880E+03  0.82893634880E+03  0.00000000000E+00 0. -1.
   -9000010    2    1    2    0  503 -0.21443749865E+02  0.23212819067E+03  0.16965279064E+03  0.10423881580E+04  0.10017223524E+04 0.  0.
    9000010    2    1    2  501    0  0.21443749865E+02 -0.23212819067E+03  0.27257450293E+03  0.10577118332E+04  0.99504478850E+03 0.  0.
        -13    1    4    4    0    0  0.46143611246E+02  0.14387851380E+03 -0.32091319844E+03  0.35470487971E+03  0.10566000000E+00 0.  1.
          4    1    4    4  501    0 -0.24699861381E+02 -0.37600670447E+03  0.59348770138E+03  0.70300695348E+03  0.00000000000E+00 0.  1.
         13    1    3    3    0    0 -0.32646716320E+03 -0.23883244422E+03  0.25004977265E+03  0.47554878301E+03  0.10566000000E+00 0. -1.
         -4    1    3    3    0  503  0.30502341333E+03  0.47096063489E+03 -0.80396982003E+02  0.56683937496E+03  0.00000000000E+00 0. -1.
<mgrwt>
<rscale>  2 0.10268601E+04</rscale>
<asrwt>0</asrwt>
<pdfrwt beam="1">  1       21 0.19556364E+00 0.10284897E+04</pdfrwt>
<pdfrwt beam="2">  1       21 0.12752867E+00 0.10284897E+04</pdfrwt>
<totfact> 0.31796115E+01</totfact>
</mgrwt>
</event>
<event>
 8    1  0.5815007E-006  0.1047122E+04  0.7818608E-02  0.8732371E-01
         21   -1    0    0  503  502  0.00000000000E+00  0.00000000000E+00  0.88820277549E+03  0.88820277549E+03  0.00000000000E+00 0. -1.
         21   -1    0    0  501  503 -0.00000000000E+00 -0.00000000000E+00 -0.12305478467E+04  0.12305478467E+04  0.00000000000E+00 0. -1.
    9000010    2    1    2  501    0  0.77739946067E+02  0.27517646822E+03 -0.19287707064E+03  0.10647374889E+04  0.10073225740E+04 0.  0.
   -9000010    2    1    2    0  502 -0.77739946067E+02 -0.27517646822E+03 -0.14946800056E+03  0.10540131332E+04  0.10034128831E+04 0.  0.
        -13    1    3    3    0    0  0.30173170726E+02 -0.72344669429E+02 -0.55504693197E+03  0.56055443917E+03  0.10566000000E+00 0.  1.
          4    1    3    3  501    0  0.47566775341E+02  0.34752113765E+03  0.36216986132E+03  0.50418304977E+03  0.00000000000E+00 0.  1.
         13    1    4    4    0    0  0.87484305134E+01  0.23565407489E+03  0.29059981402E+03  0.37424275694E+03  0.10566000000E+00 0. -1.
         -4    1    4    4    0  502 -0.86488376580E+02 -0.51083054311E+03 -0.44006781458E+03  0.67977037629E+03  0.00000000000E+00 0. -1.
<mgrwt>
<rscale>  2 0.10461805E+04</rscale>
<asrwt>0</asrwt>
<pdfrwt beam="1">  1       21 0.13664658E+00 0.10471219E+04</pdfrwt>
<pdfrwt beam="2">  1       21 0.18931505E+00 0.10471219E+04</pdfrwt>
<totfact> 0.29035152E+01</totfact>
</mgrwt>
</event>
<event>
 8    1  0.5815007E-006  0.1082319E+04  0.7818608E-02  0.8701969E-01
         21   -1    0    0  503  502  0.00000000000E+00  0.00000000000E+00  0.18837646019E+04  0.18837646019E+04  0.00000000000E+00 0. -1.
         21   -1    0    0  501  503 -0.00000000000E+00 -0.00000000000E+00 -0.92726032392E+03  0.92726032392E+03  0.00000000000E+00 0. -1.
    9000010    2    1    2  501    0  0.34822517766E+03 -0.14687471089E+03 -0.33149645482E+03  0.11319467005E+04  0.10141895672E+04 0.  0.
   -9000010    2    1    2    0  502 -0.34822517766E+03  0.14687471089E+03  0.12880007328E+04  0.16790782253E+04  0.10087243647E+04 0.  0.
        -13    1    3    3    0    0  0.57505419545E+03  0.24647114630E+03 -0.23073589588E+03  0.66683912488E+03  0.10566000000E+00 0.  1.
          4    1    3    3  501    0 -0.22682901778E+03 -0.39334585719E+03 -0.10076055894E+03  0.46510757564E+03  0.00000000000E+00 0.  1.
         13    1    4    4    0    0  0.66210744131E+02  0.44375847093E+03  0.22894486126E+03  0.50370745857E+03  0.10566000000E+00 0. -1.
         -4    1    4    4    0  502 -0.41443592179E+03 -0.29688376004E+03  0.10590558715E+04  0.11753707667E+04  0.00000000000E+00 0. -1.
<mgrwt>
<rscale>  2 0.10810364E+04</rscale>
<asrwt>0</asrwt>
<pdfrwt beam="1">  1       21 0.28980994E+00 0.10823185E+04</pdfrwt>
<pdfrwt beam="2">  1       21 0.14265543E+00 0.10823185E+04</pdfrwt>
<totfact> 0.45573933E+00</totfact>
</mgrwt>
</event>
<event>
 8    1  0.5815007E-006  0.1075640E+04  0.7818608E-02  0.8710075E-01
         21   -1    0    0  503  502  0.00000000000E+00  0.00000000000E+00  0.50782983148E+03  0.50782983148E+03  0.00000000000E+00 0. -1.
         21   -1    0    0  501  503 -0.00000000000E+00 -0.00000000000E+00 -0.29649997003E+04  0.29649997003E+04  0.00000000000E+00 0. -1.
    9000010    2    1    2  501    0  0.32584908261E+03  0.21944462029E+03 -0.20915460007E+04  0.23519282193E+04  0.10013331660E+04 0.  0.
   -9000010    2    1    2    0  502 -0.32584908261E+03 -0.21944462029E+03 -0.36562386813E+03  0.11209013125E+04  0.98407589825E+03 0.  0.
        -13    1    3    3    0    0  0.87779111432E+02  0.37459974321E+03 -0.18970224216E+03  0.42897213413E+03  0.10566000000E+00 0.  1.
          4    1    3    3  501    0  0.23806997118E+03 -0.15515512292E+03 -0.19018437586E+04  0.19229560851E+04  0.00000000000E+00 0.  1.
         13    1    4    4    0    0 -0.10997175826E+03  0.15150938780E+03  0.28528442673E+03  0.34122733991E+03  0.10566000000E+00 0. -1.
         -4    1    4    4    0  502 -0.21587732435E+03 -0.37095400809E+03 -0.65090829486E+03  0.77967397264E+03  0.00000000000E+00 0. -1.
<mgrwt>
<rscale>  2 0.10716059E+04</rscale>
<asrwt>0</asrwt>
<pdfrwt beam="1">  1       21 0.78127667E-01 0.10756401E+04</pdfrwt>
<pdfrwt beam="2">  1       21 0.45615380E+00 0.10756401E+04</pdfrwt>
<totfact> 0.15863060E+00</totfact>
</mgrwt>
</event>
<event>
 8    1  0.5815007E-006  0.1152246E+04  0.7818608E-02  0.8653934E-01
         21   -1    0    0  501  502  0.00000000000E+00  0.00000000000E+00  0.18135871443E+04  0.18135871443E+04  0.00000000000E+00 0.  1.
         21   -1    0    0  502  503 -0.00000000000E+00 -0.00000000000E+00 -0.70095028404E+03  0.70095028404E+03  0.00000000000E+00 0.  1.
   -9000010    2    1    2    0  503 -0.35789038239E+03  0.32189597514E+03  0.62708256198E+03  0.13118324507E+04  0.10468855212E+04 0.  0.
    9000010    2    1    2  501    0  0.35789038239E+03 -0.32189597514E+03  0.48555429825E+03  0.12027049776E+04  0.98946133933E+03 0.  0.
        -13    1    4    4    0    0  0.47969716299E+02 -0.55635985211E+03  0.57752634083E+03  0.80335176868E+03  0.10566000000E+00 0.  1.
          4    1    4    4  501    0  0.30992066609E+03  0.23446387697E+03 -0.91972042584E+02  0.39935320894E+03  0.00000000000E+00 0.  1.
         13    1    3    3    0    0 -0.28933787719E+03  0.54070490426E+03 -0.31915736833E+02  0.61408210045E+03  0.10566000000E+00 0. -1.
         -4    1    3    3    0  503 -0.68552505197E+02 -0.21880892912E+03  0.65899829881E+03  0.69775035024E+03  0.00000000000E+00 0. -1.
<mgrwt>
<rscale>  2 0.11390433E+04</rscale>
<asrwt>0</asrwt>
<pdfrwt beam="1">  1       21 0.27901341E+00 0.11522464E+04</pdfrwt>
<pdfrwt beam="2">  1       21 0.10783851E+00 0.11522464E+04</pdfrwt>
<totfact> 0.11863227E+01</totfact>
</mgrwt>
</event>
<event>
 8    1  0.5815007E-006  0.1116737E+04  0.7818608E-02  0.8674073E-01
         21   -1    0    0  503  502  0.00000000000E+00  0.00000000000E+00  0.27453162606E+04  0.27453162606E+04  0.00000000000E+00 0. -1.
         21   -1    0    0  501  503 -0.00000000000E+00 -0.00000000000E+00 -0.45601840843E+03  0.45601840843E+03  0.00000000000E+00 0. -1.
    9000010    2    1    2  501    0  0.42458385705E+03 -0.28093842932E+03  0.96007634237E+03  0.14652667644E+04  0.98288466009E+03 0.  0.
   -9000010    2    1    2    0  502 -0.42458385705E+03  0.28093842932E+03  0.13292215098E+04  0.17360679045E+04  0.99393364691E+03 0.  0.
        -13    1    3    3    0    0  0.32148599723E+03 -0.59282902142E+03  0.91050705945E+03  0.11330589621E+04  0.10566000000E+00 0.  1.
          4    1    3    3  501    0  0.10309785982E+03  0.31189059210E+03  0.49569282922E+02  0.33220780236E+03  0.00000000000E+00 0.  1.
         13    1    4    4    0    0 -0.62222782134E+03  0.19783120921E+03  0.13701717194E+04  0.15177862830E+04  0.10566000000E+00 0. -1.
         -4    1    4    4    0  502  0.19764396429E+03  0.83107220110E+02 -0.40950209619E+02  0.21828162159E+03  0.00000000000E+00 0. -1.
<mgrwt>
<rscale>  2 0.11142734E+04</rscale>
<asrwt>0</asrwt>
<pdfrwt beam="1">  1       21 0.42235634E+00 0.11167372E+04</pdfrwt>
<pdfrwt beam="2">  1       21 0.70156680E-01 0.11167372E+04</pdfrwt>
<totfact> 0.34914337E+00</totfact>
</mgrwt>
</event>
<event>
 8    1  0.5815007E-006  0.1078068E+04  0.7818608E-02  0.8708436E-01
         21   -1    0    0  501  502  0.00000000000E+00  0.00000000000E+00  0.11156913439E+04  0.11156913439E+04  0.00000000000E+00 0.  1.
         21   -1    0    0  502  503 -0.00000000000E+00 -0.00000000000E+00 -0.10249464859E+04  0.10249464859E+04  0.00000000000E+00 0.  1.
   -9000010    2    1    2    0  503  0.26453746142E+03  0.24446282472E+03  0.18036069178E+02  0.10782185583E+04  0.10161140775E+04 0.  0.
    9000010    2    1    2  501    0 -0.26453746142E+03 -0.24446282472E+03  0.72708788802E+02  0.10624192714E+04  0.99684803211E+03 0.  0.
        -13    1    4    4    0    0 -0.23754679008E+02  0.11223757272E+03 -0.40412516363E+03  0.42009369973E+03  0.10566000000E+00 0.  1.
          4    1    4    4  501    0 -0.24078278242E+03 -0.35670039744E+03  0.47683395244E+03  0.64232557168E+03  0.00000000000E+00 0.  1.
         13    1    3    3    0    0  0.44313857681E+03 -0.27986626939E+03  0.13384293231E+02  0.52428625527E+03  0.10566000000E+00 0. -1.
         -4    1    3    3    0  503 -0.17860111539E+03  0.52432909411E+03  0.46517759466E+01  0.55393230305E+03  0.00000000000E+00 0. -1.
<mgrwt>
<rscale>  2 0.10735040E+04</rscale>
<asrwt>0</asrwt>
<pdfrwt beam="1">  1       21 0.17164482E+00 0.10780677E+04</pdfrwt>
<pdfrwt beam="2">  1       21 0.15768408E+00 0.10780677E+04</pdfrwt>
<totfact> 0.25969495E+01</totfact>
</mgrwt>
</event>
<event>
 8    1  0.5815007E-006  0.1070601E+04  0.7818608E-02  0.8713779E-01
         21   -1    0    0  503  502  0.00000000000E+00  0.00000000000E+00  0.30149029457E+04  0.30149029457E+04  0.00000000000E+00 0.  1.
         21   -1    0    0  501  503 -0.00000000000E+00 -0.00000000000E+00 -0.42363489884E+03  0.42363489884E+03  0.00000000000E+00 0.  1.
    9000010    2    1    2  501    0 -0.30964599914E+03  0.13635107788E+03  0.70945380128E+03  0.12734945651E+04  0.10019937375E+04 0.  0.
   -9000010    2    1    2    0  502  0.30964599914E+03 -0.13635107788E+03  0.18818142456E+04  0.21650432795E+04  0.10157338657E+04 0.  0.
        -13    1    3    3    0    0 -0.51068949978E+03 -0.26056434972E+03  0.22543940184E+03  0.61605233592E+03  0.10566000000E+00 0.  1.
          4    1    3    3  501    0  0.20104350064E+03  0.39691542760E+03  0.48401439943E+03  0.65744222915E+03  0.00000000000E+00 0.  1.
         13    1    4    4    0    0  0.33779307853E+02  0.37381843343E+03  0.12600677042E+04  0.13147820706E+04  0.10566000000E+00 0. -1.
         -4    1    4    4    0  502  0.27586669129E+03 -0.51016951131E+03  0.62174654144E+03  0.85026120894E+03  0.00000000000E+00 0. -1.
<mgrwt>
<rscale>  2 0.10673298E+04</rscale>
<asrwt>0</asrwt>
<pdfrwt beam="1">  1       21 0.46383121E+00 0.10706015E+04</pdfrwt>
<pdfrwt beam="2">  1       21 0.65174602E-01 0.10706015E+04</pdfrwt>
<totfact> 0.21626744E+00</totfact>
</mgrwt>
</event>
<event>
 8    1  0.5815007E-006  0.1172089E+04  0.7818608E-02  0.8629179E-01
         21   -1    0    0  503  502  0.00000000000E+00  0.00000000000E+00  0.88701838492E+03  0.88701838492E+03  0.00000000000E+00 0. -1.
         21   -1    0    0  501  503 -0.00000000000E+00 -0.00000000000E+00 -0.15536084633E+04  0.15536084633E+04  0.00000000000E+00 0. -1.
    9000010    2    1    2  501    0 -0.32583755681E+02 -0.60277508005E+03 -0.21988757096E+03  0.11925362514E+04  0.10046853581E+04 0.  0.
   -9000010    2    1    2    0  502  0.32583755681E+02  0.60277508005E+03 -0.44670250745E+03  0.12480905969E+04  0.99688891535E+03 0.  0.
        -13    1    3    3    0    0  0.26150068735E+03 -0.37738089181E+03 -0.53580851378E+03  0.70561301121E+03  0.10566000000E+00 0.  1.
          4    1    3    3  501    0 -0.29408444303E+03 -0.22539418824E+03  0.31592094282E+03  0.48692324019E+03  0.00000000000E+00 0.  1.
         13    1    4    4    0    0  0.35195936899E+03  0.60392923381E+03 -0.57380058117E+03  0.90435227372E+03  0.10566000000E+00 0. -1.
         -4    1    4    4    0  502 -0.31937561331E+03 -0.11541537694E+01  0.12709807372E+03  0.34373832313E+03  0.00000000000E+00 0. -1.
<mgrwt>
<rscale>  2 0.11704162E+04</rscale>
<asrwt>0</asrwt>
<pdfrwt beam="1">  1       21 0.13646437E+00 0.11720888E+04</pdfrwt>
<pdfrwt beam="2">  1       21 0.23901669E+00 0.11720888E+04</pdfrwt>
<totfact> 0.11847212E+01</totfact>
</mgrwt>
</event>
<event>
 8    1  0.5815007E-006  0.1047425E+04  0.7818608E-02  0.8773798E-01
         21   -1    0    0  503  502  0.00000000000E+00  0.00000000000E+00  0.89868265872E+03  0.89868265872E+03  0.00000000000E+00 0.  1.
         21   -1    0    0  501  503 -0.00000000000E+00 -0.00000000000E+00 -0.10280640937E+04  0.10280640937E+04  0.00000000000E+00 0. -1.
    9000010    2    1    2  501    0  0.17842181463E+03  0.30439064316E+03 -0.28993491748E+02  0.10478261776E+04  0.98621045842E+03 0.  0.
   -9000010    2    1    2    0  502 -0.17842181463E+03 -0.30439064316E+03 -0.10038794323E+03  0.87892057483E+03  0.79870872672E+03 0.  0.
        -13    1    3    3    0    0  0.24912210726E+03 -0.28513523195E+03 -0.20231457118E+03  0.42929607697E+03  0.10566000000E+00 0.  1.
          4    1    3    3  501    0 -0.70700292629E+02  0.58952587510E+03  0.17332107943E+03  0.61853010062E+03  0.00000000000E+00 0.  1.
         13    1    4    4    0    0 -0.39446672548E+03 -0.16168781974E+03 -0.32506457325E+03  0.53611000411E+03  0.10566000000E+00 0. -1.
         -4    1    4    4    0  502  0.21604491085E+03 -0.14270282342E+03  0.22467663002E+03  0.34281057071E+03  0.00000000000E+00 0. -1.
<mgrwt>
<rscale>  2 0.10008448E+04</rscale>
<asrwt>0</asrwt>
<pdfrwt beam="1">  1       21 0.13825887E+00 0.10474250E+04</pdfrwt>
<pdfrwt beam="2">  1       21 0.15816371E+00 0.10474250E+04</pdfrwt>
<totfact> 0.50895080E+01</totfact>
</mgrwt>
</event>
<event>
 8    1  0.5815007E-006  0.1406233E+04  0.7818608E-02  0.8473764E-01
         21   -1    0    0  501  502  0.00000000000E+00  0.00000000000E+00  0.18953215975E+04  0.18953215975E+04  0.00000000000E+00 0. -1.
         21   -1    0    0  502  503 -0.00000000000E+00 -0.00000000000E+00 -0.10234635528E+04  0.10234635528E+04  0.00000000000E+00 0.  1.
   -9000010    2    1    2    0  503 -0.78975717853E+03 -0.52511499369E+03  0.25043284801E+03  0.14283582189E+04  0.10382814804E+04 0.  0.
    9000010    2    1    2  501    0  0.78975717853E+03  0.52511499369E+03  0.62142519669E+03  0.14904269314E+04  0.96733706905E+03 0.  0.
        -13    1    4    4    0    0  0.68726405344E+02 -0.26681296075E+03  0.63187185274E+02  0.28267491287E+03  0.10566000000E+00 0.  1.
          4    1    4    4  501    0  0.72103077319E+03  0.79192795444E+03  0.55823801142E+03  0.12077520185E+04  0.00000000000E+00 0.  1.
         13    1    3    3    0    0 -0.97989851113E+02  0.19727241481E+03  0.36014679703E+03  0.42216601372E+03  0.10566000000E+00 0. -1.
         -4    1    3    3    0  503 -0.69176732742E+03 -0.72238740850E+03 -0.10971394902E+03  0.10061922052E+04  0.00000000000E+00 0. -1.
<mgrwt>
<rscale>  2 0.13931678E+04</rscale>
<asrwt>0</asrwt>
<pdfrwt beam="1">  1       21 0.29158794E+00 0.14062328E+04</pdfrwt>
<pdfrwt beam="2">  1       21 0.15745593E+00 0.14062328E+04</pdfrwt>
<totfact> 0.30516322E+00</totfact>
</mgrwt>
</event>
<event>
 8    1  0.5815007E-006  0.1021252E+04  0.7818608E-02  0.8755720E-01
         21   -1    0    0  503  502  0.00000000000E+00  0.00000000000E+00  0.12167986386E+04  0.12167986386E+04  0.00000000000E+00 0.  1.
         21   -1    0    0  501  503 -0.00000000000E+00 -0.00000000000E+00 -0.90902097825E+03  0.90902097825E+03  0.00000000000E+00 0.  1.
    9000010    2    1    2  501    0  0.16984095100E+03 -0.22838852867E+03 -0.10724522441E+03  0.10268678300E+04  0.98078985184E+03 0.  0.
   -9000010    2    1    2    0  502 -0.16984095100E+03  0.22838852867E+03  0.41502288477E+03  0.10989517869E+04  0.97695637892E+03 0.  0.
        -13    1    3    3    0    0 -0.20194314248E+03  0.45827389101E+01 -0.43473754282E+03  0.47937331652E+03  0.10566000000E+00 0.  1.
          4    1    3    3  501    0  0.37178409348E+03 -0.23297126758E+03  0.32749231841E+03  0.54749451348E+03  0.00000000000E+00 0.  1.
         13    1    4    4    0    0 -0.44490650034E+03  0.37466051887E+03  0.50966925553E+03  0.77335312739E+03  0.10566000000E+00 0. -1.
         -4    1    4    4    0  502  0.27506554934E+03 -0.14627199020E+03 -0.94646370765E+02  0.32559865947E+03  0.00000000000E+00 0. -1.
<mgrwt>
<rscale>  2 0.10203307E+04</rscale>
<asrwt>0</asrwt>
<pdfrwt beam="1">  1       21 0.18719979E+00 0.10212522E+04</pdfrwt>
<pdfrwt beam="2">  1       21 0.13984938E+00 0.10212522E+04</pdfrwt>
<totfact> 0.28346729E+01</totfact>
</mgrwt>
</event>
<event>
 8    1  0.5815007E-006  0.1472208E+04  0.7818608E-02  0.8429847E-01
         21   -1    0    0  503  502  0.00000000000E+00  0.00000000000E+00  0.28880951074E+04  0.28880951074E+04  0.00000000000E+00 0.  1.
         21   -1    0    0  501  503 -0.00000000000E+00 -0.00000000000E+00 -0.81263664060E+03  0.81263664060E+03  0.00000000000E+00 0.  1.
    9000010    2    1    2  501    0 -0.41465125951E+03 -0.98582774510E+03  0.16141607425E+04  0.21846996088E+04  0.10117338919E+04 0.  0.
   -9000010    2    1    2    0  502  0.41465125951E+03  0.98582774510E+03  0.46129772433E+03  0.15160321393E+04  0.97044621013E+03 0.  0.
        -13    1    3    3    0    0 -0.11669844238E+03 -0.59709105280E+03  0.15807370631E+04  0.16937726901E+04  0.10566000000E+00 0.  1.
          4    1    3    3  501    0 -0.29795281714E+03 -0.38873669230E+03  0.33423679417E+02  0.49092691872E+03  0.00000000000E+00 0.  1.
         13    1    4    4    0    0  0.65251270732E+03  0.31232084231E+03  0.30373780716E+03  0.78458511866E+03  0.10566000000E+00 0. -1.
         -4    1    4    4    0  502 -0.23786144780E+03  0.67350690278E+03  0.15755991717E+03  0.73144702060E+03  0.00000000000E+00 0. -1.
<mgrwt>
<rscale>  2 0.14651421E+04</rscale>
<asrwt>0</asrwt>
<pdfrwt beam="1">  1       21 0.44432232E+00 0.14722084E+04</pdfrwt>
<pdfrwt beam="2">  1       21 0.12502102E+00 0.14722084E+04</pdfrwt>
<totfact> 0.51583823E-01</totfact>
</mgrwt>
</event>
<event>
 8    1  0.5815007E-006  0.1168120E+04  0.7818608E-02  0.8633143E-01
         21   -1    0    0  503  502  0.00000000000E+00  0.00000000000E+00  0.14254864234E+04  0.14254864234E+04  0.00000000000E+00 0.  1.
         21   -1    0    0  501  503 -0.00000000000E+00 -0.00000000000E+00 -0.95351739442E+03  0.95351739442E+03  0.00000000000E+00 0.  1.
    9000010    2    1    2  501    0 -0.54221066242E+03 -0.25274470277E+03  0.14749733428E+03  0.11773956452E+04  0.10033108962E+04 0.  0.
   -9000010    2    1    2    0  502  0.54221066242E+03  0.25274470277E+03  0.32447169467E+03  0.12016081726E+04  0.99030703958E+03 0.  0.
        -13    1    3    3    0    0  0.28584887088E+03 -0.47525524428E+02  0.14557194609E+03  0.32428298615E+03  0.10566000000E+00 0.  1.
          4    1    3    3  501    0 -0.82805953330E+03 -0.20521917834E+03  0.19253881962E+01  0.85311265902E+03  0.00000000000E+00 0.  1.
         13    1    4    4    0    0 -0.18257572227E+03 -0.64073397146E+02  0.36118820815E+03  0.40975142154E+03  0.10566000000E+00 0. -1.
         -4    1    4    4    0  502  0.72478638469E+03  0.31681809992E+03 -0.36716513481E+02  0.79185675108E+03  0.00000000000E+00 0. -1.
<mgrwt>
<rscale>  2 0.11653228E+04</rscale>
<asrwt>0</asrwt>
<pdfrwt beam="1">  1       21 0.21930560E+00 0.11681203E+04</pdfrwt>
<pdfrwt beam="2">  1       21 0.14669498E+00 0.11681203E+04</pdfrwt>
<totfact> 0.13386835E+01</totfact>
</mgrwt>
</event>
<event>
 8    1  0.5815007E-006  0.1085094E+04  0.7818608E-02  0.8700163E-01
         21   -1    0    0  501  502  0.00000000000E+00  0.00000000000E+00  0.88649789731E+03  0.88649789731E+03  0.00000000000E+00 0.  1.
         21   -1    0    0  502  503 -0.00000000000E+00 -0.00000000000E+00 -0.16497167713E+04  0.16497167713E+04  0.00000000000E+00 0.  1.
   -9000010    2    1    2    0  503  0.40431196387E+03  0.68924964435E+01 -0.95072951072E+03  0.14426764920E+04  0.10069325634E+04 0.  0.
    9000010    2    1    2  501    0 -0.40431196387E+03 -0.68924964435E+01  0.18751063675E+03  0.10935381766E+04  0.99857390023E+03 0.  0.
        -13    1    4    4    0    0 -0.46017622613E+03 -0.38750578146E+03 -0.10445094627E+03  0.61060044309E+03  0.10566000000E+00 0.  1.
          4    1    4    4  501    0  0.55864262256E+02  0.38061328501E+03  0.29196158302E+03  0.48293773355E+03  0.00000000000E+00 0.  1.
         13    1    3    3    0    0 -0.33554882632E+03 -0.97616297713E+01 -0.38745625800E+03  0.51265062887E+03  0.10566000000E+00 0. -1.
         -4    1    3    3    0  503  0.73986079019E+03  0.16654126215E+02 -0.56327325272E+03  0.93002586309E+03  0.00000000000E+00 0. -1.
<mgrwt>
<rscale>  2 0.10831507E+04</rscale>
<asrwt>0</asrwt>
<pdfrwt beam="1">  1       21 0.13638429E+00 0.10850939E+04</pdfrwt>
<pdfrwt beam="2">  1       21 0.25380258E+00 0.10850939E+04</pdfrwt>
<totfact> 0.94307238E+00</totfact>
</mgrwt>
</event>
<event>
 8    1  0.5815007E-006  0.1124984E+04  0.7818608E-02  0.8666159E-01
         21   -1    0    0  501  502  0.00000000000E+00  0.00000000000E+00  0.72699630536E+03  0.72699630536E+03  0.00000000000E+00 0. -1.
         21   -1    0    0  502  503 -0.00000000000E+00 -0.00000000000E+00 -0.17535982119E+04  0.17535982119E+04  0.00000000000E+00 0. -1.
   -9000010    2    1    2    0  503 -0.33150282830E+03  0.36874003833E+03 -0.38231276221E+03  0.11841772765E+04  0.10051116520E+04 0.  0.
    9000010    2    1    2  501    0  0.33150282830E+03 -0.36874003833E+03 -0.64428914430E+03  0.12964172407E+04  0.10098147452E+04 0.  0.
        -13    1    4    4    0    0  0.31314765310E+03 -0.69931294160E+03 -0.31190699500E+03  0.82727627043E+03  0.10566000000E+00 0.  1.
          4    1    4    4  501    0  0.18355175192E+02  0.33057290327E+03 -0.33238214930E+03  0.46914097029E+03  0.00000000000E+00 0.  1.
         13    1    3    3    0    0 -0.73569736497E+02 -0.20577329383E+03 -0.49804024933E+03  0.54387430138E+03  0.10566000000E+00 0. -1.
         -4    1    3    3    0  503 -0.25793309180E+03  0.57451333215E+03  0.11572748712E+03  0.64030297512E+03  0.00000000000E+00 0. -1.
<mgrwt>
<rscale>  2 0.11239277E+04</rscale>
<asrwt>0</asrwt>
<pdfrwt beam="1">  1       21 0.11184559E+00 0.11249841E+04</pdfrwt>
<pdfrwt beam="2">  1       21 0.26978434E+00 0.11249841E+04</pdfrwt>
<totfact> 0.12581246E+01</totfact>
</mgrwt>
</event>
<event>
 8    1  0.5815007E-006  0.1077829E+04  0.7818608E-02  0.8714578E-01
         21   -1    0    0  501  502  0.00000000000E+00  0.00000000000E+00  0.99265447019E+03  0.99265447019E+03  0.00000000000E+00 0. -1.
         21   -1    0    0  502  503 -0.00000000000E+00 -0.00000000000E+00 -0.11353020103E+04  0.11353020103E+04  0.00000000000E+00 0. -1.
   -9000010    2    1    2    0  503 -0.29098141604E+03  0.13442193709E+03  0.45280199440E+02  0.10338672469E+04  0.98188173733E+03 0.  0.
    9000010    2    1    2  501    0  0.29098141604E+03 -0.13442193709E+03 -0.18792773954E+03  0.10940892336E+04  0.10290650971E+04 0.  0.
        -13    1    4    4    0    0 -0.34715898292E+02  0.38379876679E+03 -0.27834385235E+03  0.47537563914E+03  0.10566000000E+00 0.  1.
          4    1    4    4  501    0  0.32569731433E+03 -0.51822070388E+03  0.90416112807E+02  0.61871359444E+03  0.00000000000E+00 0.  1.
         13    1    3    3    0    0  0.30331426179E+03  0.28138597315E+03  0.77034821560E+02  0.42084674430E+03  0.10566000000E+00 0. -1.
         -4    1    3    3    0  503 -0.59429567783E+03 -0.14696403606E+03 -0.31754622120E+02  0.61302050260E+03  0.00000000000E+00 0. -1.
<mgrwt>
<rscale>  2 0.10664101E+04</rscale>
<asrwt>0</asrwt>
<pdfrwt beam="1">  1       21 0.15271607E+00 0.10778286E+04</pdfrwt>
<pdfrwt beam="2">  1       21 0.17466185E+00 0.10778286E+04</pdfrwt>
<totfact> 0.27095331E+01</totfact>
</mgrwt>
</event>
<event>
 8    1  0.5815007E-006  0.1157205E+04  0.7818608E-02  0.8647251E-01
         21   -1    0    0  503  502  0.00000000000E+00  0.00000000000E+00  0.18819311176E+04  0.18819311176E+04  0.00000000000E+00 0.  1.
         21   -1    0    0  501  503 -0.00000000000E+00 -0.00000000000E+00 -0.82505986308E+03  0.82505986308E+03  0.00000000000E+00 0.  1.
    9000010    2    1    2  501    0  0.43318889426E+03  0.38711035909E+03 -0.15700475483E+02  0.11573118030E+04  0.10008082016E+04 0.  0.
   -9000010    2    1    2    0  502 -0.43318889426E+03 -0.38711035909E+03  0.10725717300E+04  0.15496791776E+04  0.95581817799E+03 0.  0.
        -13    1    3    3    0    0  0.43773794097E+03  0.38296625813E+03 -0.44228662117E+03  0.73068127543E+03  0.10566000000E+00 0.  1.
          4    1    3    3  501    0 -0.45490467088E+01  0.41441009627E+01  0.42658614569E+03  0.42663052761E+03  0.00000000000E+00 0.  1.
         13    1    4    4    0    0 -0.73125340514E+03 -0.17357995011E+03  0.70412027507E+03  0.10298771357E+04  0.10566000000E+00 0. -1.
         -4    1    4    4    0  502  0.29806451088E+03 -0.21353040898E+03  0.36845145494E+03  0.51980204199E+03  0.00000000000E+00 0. -1.
<mgrwt>
<rscale>  2 0.11474113E+04</rscale>
<asrwt>0</asrwt>
<pdfrwt beam="1">  1       21 0.28952786E+00 0.11572053E+04</pdfrwt>
<pdfrwt beam="2">  1       21 0.12693229E+00 0.11572053E+04</pdfrwt>
<totfact> 0.63424994E+00</totfact>
</mgrwt>
</event>
<event>
 8    1  0.5815007E-006  0.1077055E+04  0.7818608E-02  0.8715426E-01
         21   -1    0    0  501  502  0.00000000000E+00  0.00000000000E+00  0.27916694724E+04  0.27916694724E+04  0.00000000000E+00 0. -1.
         21   -1    0    0  502  503 -0.00000000000E+00 -0.00000000000E+00 -0.40205564438E+03  0.40205564438E+03  0.00000000000E+00 0. -1.
   -9000010    2    1    2    0  503 -0.23472634710E+03  0.30447365907E+03  0.10617759850E+04  0.15124204733E+04  0.10061047552E+04 0.  0.
    9000010    2    1    2  501    0  0.23472634710E+03 -0.30447365907E+03  0.13278378430E+04  0.16813046435E+04  0.95699075227E+03 0.  0.
        -13    1    4    4    0    0  0.40247074538E+03 -0.10563535604E+03  0.13571578741E+04  0.14195136617E+04  0.10566000000E+00 0.  1.
          4    1    4    4  501    0 -0.16774439827E+03 -0.19883830303E+03 -0.29320031181E+02  0.26179098176E+03  0.00000000000E+00 0.  1.
         13    1    3    3    0    0  0.32870391173E+03 -0.10208534084E+03  0.55259304285E+03  0.65101978508E+03  0.10566000000E+00 0. -1.
         -4    1    3    3    0  503 -0.56343025883E+03  0.40655899992E+03  0.50918294219E+03  0.86140068818E+03  0.00000000000E+00 0. -1.
<mgrwt>
<rscale>  2 0.10654359E+04</rscale>
<asrwt>0</asrwt>
<pdfrwt beam="1">  1       21 0.42948760E+00 0.10770550E+04</pdfrwt>
<pdfrwt beam="2">  1       21 0.61854716E-01 0.10770550E+04</pdfrwt>
<totfact> 0.42222289E+00</totfact>
</mgrwt>
</event>
<event>
 8    1  0.5815007E-006  0.1333835E+04  0.7818608E-02  0.8513829E-01
         21   -1    0    0  501  502  0.00000000000E+00  0.00000000000E+00  0.17739432913E+04  0.17739432913E+04  0.00000000000E+00 0. -1.
         21   -1    0    0  502  503 -0.00000000000E+00 -0.00000000000E+00 -0.17328154179E+04  0.17328154179E+04  0.00000000000E+00 0. -1.
   -9000010    2    1    2    0  503 -0.16507958459E+03 -0.85567561087E+03 -0.11236287107E+04  0.17359470187E+04  0.99576028836E+03 0.  0.
    9000010    2    1    2  501    0  0.16507958459E+03  0.85567561087E+03  0.11647565840E+04  0.17708116906E+04  0.10097940993E+04 0.  0.
        -13    1    4    4    0    0  0.10466022080E+03 -0.18644920012E+03  0.98282419269E+01  0.21404128468E+03  0.10566000000E+00 0.  1.
          4    1    4    4  501    0  0.60419363790E+02  0.10421248110E+04  0.11549283421E+04  0.15567704059E+04  0.00000000000E+00 0.  1.
         13    1    3    3    0    0  0.37228827336E+02 -0.92758295343E+03 -0.45528756729E+03  0.10339646518E+04  0.10566000000E+00 0. -1.
         -4    1    3    3    0  503 -0.20230841193E+03  0.71907342557E+02 -0.66834114339E+03  0.70198236687E+03  0.00000000000E+00 0. -1.
<mgrwt>
<rscale>  2 0.13311790E+04</rscale>
<asrwt>0</asrwt>
<pdfrwt beam="1">  1       21 0.27291435E+00 0.13338351E+04</pdfrwt>
<pdfrwt beam="2">  1       21 0.26658699E+00 0.13338351E+04</pdfrwt>
<totfact> 0.59716411E-01</totfact>
</mgrwt>
</event>
<event>
 8    1  0.5815007E-006  0.1211802E+04  0.7818608E-02  0.8600679E-01
         21   -1    0    0  503  502  0.00000000000E+00  0.00000000000E+00  0.70858235805E+03  0.70858235805E+03  0.00000000000E+00 0. -1.
         21   -1    0    0  501  503 -0.00000000000E+00 -0.00000000000E+00 -0.20820264812E+04  0.20820264812E+04  0.00000000000E+00 0. -1.
    9000010    2    1    2  501    0 -0.68058902518E+03 -0.67149492723E+00 -0.50642996659E+03  0.13133682658E+04  0.10026280559E+04 0.  0.
   -9000010    2    1    2    0  502  0.68058902518E+03  0.67149492723E+00 -0.86701415657E+03  0.14772405735E+04  0.98352645728E+03 0.  0.
        -13    1    3    3    0    0  0.23227187289E+03 -0.98360121339E+02  0.23494133961E+02  0.25333164410E+03  0.10566000000E+00 0.  1.
          4    1    3    3  501    0 -0.91286089807E+03  0.97688626412E+02 -0.52992410056E+03  0.10600366217E+04  0.00000000000E+00 0.  1.
         13    1    4    4    0    0  0.13265865070E+03 -0.44503310546E+03 -0.49580745191E+03  0.67932159034E+03  0.10566000000E+00 0. -1.
         -4    1    4    4    0  502  0.54793037448E+03  0.44570460039E+03 -0.37120670466E+03  0.79791898315E+03  0.00000000000E+00 0. -1.
<mgrwt>
<rscale>  2 0.12078439E+04</rscale>
<asrwt>0</asrwt>
<pdfrwt beam="1">  1       21 0.10901267E+00 0.12118023E+04</pdfrwt>
<pdfrwt beam="2">  1       21 0.32031177E+00 0.12118023E+04</pdfrwt>
<totfact> 0.58068626E+00</totfact>
</mgrwt>
</event>
<event>
 8    1  0.5815007E-006  0.1122848E+04  0.7818608E-02  0.8667906E-01
         21   -1    0    0  501  502  0.00000000000E+00  0.00000000000E+00  0.82932750725E+03  0.82932750725E+03  0.00000000000E+00 0.  1.
         21   -1    0    0  502  503 -0.00000000000E+00 -0.00000000000E+00 -0.16391009415E+04  0.16391009415E+04  0.00000000000E+00 0.  1.
   -9000010    2    1    2    0  503  0.12786180449E+02 -0.49080720956E+03 -0.74443258270E+03  0.13436812166E+04  0.10051090181E+04 0.  0.
    9000010    2    1    2  501    0 -0.12786180449E+02  0.49080720956E+03 -0.65340851506E+02  0.11247472322E+04  0.10098176598E+04 0.  0.
        -13    1    4    4    0    0 -0.40041670829E+03 -0.99974746682E+02 -0.67217465015E+02  0.41814673144E+03  0.10566000000E+00 0.  1.
          4    1    4    4  501    0  0.38763052784E+03  0.59078195624E+03  0.18766135086E+01  0.70660050071E+03  0.00000000000E+00 0.  1.
         13    1    3    3    0    0 -0.32579277934E+03  0.15193280505E+03 -0.40593751441E+03  0.54222669529E+03  0.10566000000E+00 0. -1.
         -4    1    3    3    0  503  0.33857895979E+03 -0.64274001461E+03 -0.33849506830E+03  0.80145452126E+03  0.00000000000E+00 0. -1.
<mgrwt>
<rscale>  2 0.11217880E+04</rscale>
<asrwt>0</asrwt>
<pdfrwt beam="1">  1       21 0.12758885E+00 0.11228477E+04</pdfrwt>
<pdfrwt beam="2">  1       21 0.25216937E+00 0.11228477E+04</pdfrwt>
<totfact> 0.11667366E+01</totfact>
</mgrwt>
</event>
<event>
 8    1  0.5815007E-006  0.1171027E+04  0.7818608E-02  0.8633718E-01
         21   -1    0    0  503  502  0.00000000000E+00  0.00000000000E+00  0.78494093519E+03  0.78494093519E+03  0.00000000000E+00 0. -1.
         21   -1    0    0  501  503 -0.00000000000E+00 -0.00000000000E+00 -0.17128809247E+04  0.17128809247E+04  0.00000000000E+00 0. -1.
    9000010    2    1    2  501    0  0.47132365960E+03 -0.32351310486E+03 -0.51752657858E+03  0.12569576659E+04  0.99262384275E+03 0.  0.
   -9000010    2    1    2    0  502 -0.47132365960E+03  0.32351310486E+03 -0.41041341098E+03  0.12408641940E+04  0.10220068782E+04 0.  0.
        -13    1    3    3    0    0 -0.18402093680E+03  0.22387038842E+03 -0.16219598141E+03  0.33209818358E+03  0.10566000000E+00 0.  1.
          4    1    3    3  501    0  0.65534459640E+03 -0.54738349328E+03 -0.35533059717E+03  0.92485948231E+03  0.00000000000E+00 0.  1.
         13    1    4    4    0    0 -0.42259330907E+03  0.51018288507E+03  0.12285593373E+03  0.67376945071E+03  0.10566000000E+00 0. -1.
         -4    1    4    4    0  502 -0.48730350530E+02 -0.18666978021E+03 -0.53326934471E+03  0.56709474333E+03  0.00000000000E+00 0. -1.
<mgrwt>
<rscale>  2 0.11645858E+04</rscale>
<asrwt>0</asrwt>
<pdfrwt beam="1">  1       21 0.12076014E+00 0.11710272E+04</pdfrwt>
<pdfrwt beam="2">  1       21 0.26352014E+00 0.11710272E+04</pdfrwt>
<totfact> 0.11177545E+01</totfact>
</mgrwt>
</event>
<event>
 8    1  0.5815007E-006  0.1148561E+04  0.7818608E-02  0.8646611E-01
         21   -1    0    0  503  502  0.00000000000E+00  0.00000000000E+00  0.14269620820E+04  0.14269620820E+04  0.00000000000E+00 0.  1.
         21   -1    0    0  501  503 -0.00000000000E+00 -0.00000000000E+00 -0.94245981279E+03  0.94245981279E+03  0.00000000000E+00 0.  1.
    9000010    2    1    2  501    0  0.54944825238E+03 -0.12211070707E+03  0.73484748286E+02  0.11495336769E+04  0.99961155424E+03 0.  0.
   -9000010    2    1    2    0  502 -0.54944825238E+03  0.12211070707E+03  0.41101752095E+03  0.12198882179E+04  0.10011930157E+04 0.  0.
        -13    1    3    3    0    0  0.56649931110E+03 -0.50604458364E+03  0.89666534202E+02  0.76488083296E+03  0.10566000000E+00 0.  1.
          4    1    3    3  501    0 -0.17051058723E+02  0.38393387658E+03 -0.16181785916E+02  0.38465284398E+03  0.00000000000E+00 0.  1.
         13    1    4    4    0    0 -0.58003333047E+02  0.50360312208E+03  0.73918039748E+02  0.51229325486E+03  0.10566000000E+00 0. -1.
         -4    1    4    4    0  502 -0.49144491933E+03 -0.38149241501E+03  0.33709948120E+03  0.70759496301E+03  0.00000000000E+00 0. -1.
<mgrwt>
<rscale>  2 0.11482161E+04</rscale>
<asrwt>0</asrwt>
<pdfrwt beam="1">  1       21 0.21953263E+00 0.11485608E+04</pdfrwt>
<pdfrwt beam="2">  1       21 0.14499382E+00 0.11485608E+04</pdfrwt>
<totfact> 0.13872467E+01</totfact>
</mgrwt>
</event>
<event>
 8    1  0.5815007E-006  0.1064795E+04  0.7818608E-02  0.8731717E-01
         21   -1    0    0  501  502  0.00000000000E+00  0.00000000000E+00  0.19558716665E+04  0.19558716665E+04  0.00000000000E+00 0. -1.
         21   -1    0    0  502  503 -0.00000000000E+00 -0.00000000000E+00 -0.54321764615E+03  0.54321764615E+03  0.00000000000E+00 0. -1.
   -9000010    2    1    2    0  503 -0.20646188351E+01 -0.36936936075E+03  0.67999982962E+03  0.12634031149E+04  0.99867395843E+03 0.  0.
    9000010    2    1    2  501    0  0.20646188351E+01  0.36936936075E+03  0.73265419077E+03  0.12356861978E+04  0.92395899733E+03 0.  0.
        -13    1    4    4    0    0  0.11993918257E+03 -0.17709922755E+03 -0.97324632500E+02  0.23499284919E+03  0.10566000000E+00 0.  1.
          4    1    4    4  501    0 -0.11787456374E+03  0.54646858830E+03  0.82997882327E+03  0.10006933486E+04  0.00000000000E+00 0.  1.
         13    1    3    3    0    0 -0.24595020803E+03 -0.44083524603E+03 -0.33578194713E+02  0.50591968265E+03  0.10566000000E+00 0. -1.
         -4    1    3    3    0  503  0.24388558920E+03  0.71465885273E+02  0.71357802434E+03  0.75748343229E+03  0.00000000000E+00 0. -1.
<mgrwt>
<rscale>  2 0.10469149E+04</rscale>
<asrwt>0</asrwt>
<pdfrwt beam="1">  1       21 0.30090333E+00 0.10647947E+04</pdfrwt>
<pdfrwt beam="2">  1       21 0.83571947E-01 0.10647947E+04</pdfrwt>
<totfact> 0.16351866E+01</totfact>
</mgrwt>
</event>
<event>
 8    1  0.5815007E-006  0.1284718E+04  0.7818608E-02  0.8545584E-01
         21   -1    0    0  503  502  0.00000000000E+00  0.00000000000E+00  0.95649072364E+03  0.95649072364E+03  0.00000000000E+00 0. -1.
         21   -1    0    0  501  503 -0.00000000000E+00 -0.00000000000E+00 -0.17238499516E+04  0.17238499516E+04  0.00000000000E+00 0.  1.
    9000010    2    1    2  501    0 -0.60480726664E+03  0.53391373751E+03 -0.38064431064E+03  0.13386813323E+04  0.99815926057E+03 0.  0.
   -9000010    2    1    2    0  502  0.60480726664E+03 -0.53391373751E+03 -0.38671491735E+03  0.13416593429E+04  0.99982281244E+03 0.  0.
        -13    1    3    3    0    0  0.40233754982E+01 -0.67613056888E+02 -0.47301843689E+03  0.47784324397E+03  0.10566000000E+00 0.  1.
          4    1    3    3  501    0 -0.60883064213E+03  0.60152679440E+03  0.92374126247E+02  0.86083808837E+03  0.00000000000E+00 0.  1.
         13    1    4    4    0    0  0.50344610571E+03  0.18110906505E+03 -0.30241608234E+03  0.61458439032E+03  0.10566000000E+00 0. -1.
         -4    1    4    4    0  502  0.10136116092E+03 -0.71502280256E+03 -0.84298835009E+02  0.72707495261E+03  0.00000000000E+00 0. -1.
<mgrwt>
<rscale>  2 0.12843947E+04</rscale>
<asrwt>0</asrwt>
<pdfrwt beam="1">  1       21 0.14715242E+00 0.12847184E+04</pdfrwt>
<pdfrwt beam="2">  1       21 0.26520768E+00 0.12847184E+04</pdfrwt>
<totfact> 0.59519838E+00</totfact>
</mgrwt>
</event>
<event>
 8    1  0.5815007E-006  0.1052746E+04  0.7818608E-02  0.8728109E-01
         21   -1    0    0  501  502  0.00000000000E+00  0.00000000000E+00  0.72152597705E+03  0.72152597705E+03  0.00000000000E+00 0. -1.
         21   -1    0    0  502  503 -0.00000000000E+00 -0.00000000000E+00 -0.15292099200E+04  0.15292099200E+04  0.00000000000E+00 0. -1.
   -9000010    2    1    2    0  503  0.28208018224E+03 -0.77390144303E+02 -0.35180611186E+03  0.11099741120E+04  0.10112944801E+04 0.  0.
    9000010    2    1    2  501    0 -0.28208018224E+03  0.77390144303E+02 -0.45587783112E+03  0.11407617850E+04  0.10039693171E+04 0.  0.
        -13    1    4    4    0    0 -0.21703141822E+03 -0.50780805973E+02  0.29865501497E+03  0.37266091274E+03  0.10566000000E+00 0.  1.
          4    1    4    4  501    0 -0.65048764015E+02  0.12817095028E+03 -0.75453284610E+03  0.76810087230E+03  0.00000000000E+00 0.  1.
         13    1    3    3    0    0 -0.12827391882E+03  0.31341876264E+03  0.13337420978E+03  0.36397006748E+03  0.10566000000E+00 0. -1.
         -4    1    3    3    0  503  0.41035410105E+03 -0.39080890695E+03 -0.48518032164E+03  0.74600404456E+03  0.00000000000E+00 0. -1.
<mgrwt>
<rscale>  2 0.10509833E+04</rscale>
<asrwt>0</asrwt>
<pdfrwt beam="1">  1       21 0.11100400E+00 0.10527464E+04</pdfrwt>
<pdfrwt beam="2">  1       21 0.23526306E+00 0.10527464E+04</pdfrwt>
<totfact> 0.23243946E+01</totfact>
</mgrwt>
</event>
<event>
 8    1  0.5815007E-006  0.1019649E+04  0.7818608E-02  0.8783173E-01
         21   -1    0    0  501  502  0.00000000000E+00  0.00000000000E+00  0.14273741356E+04  0.14273741356E+04  0.00000000000E+00 0. -1.
         21   -1    0    0  502  503 -0.00000000000E+00 -0.00000000000E+00 -0.65364624264E+03  0.65364624264E+03  0.00000000000E+00 0. -1.
   -9000010    2    1    2    0  503  0.13836697953E+03  0.13989547045E+03  0.46380312541E+03  0.11201774793E+04  0.10004839241E+04 0.  0.
    9000010    2    1    2  501    0 -0.13836697953E+03 -0.13989547045E+03  0.30992476752E+03  0.96084289890E+03  0.88794681776E+03 0.  0.
        -13    1    4    4    0    0 -0.30906458311E+03 -0.29188093468E+03  0.50517740533E+03  0.66024209089E+03  0.10566000000E+00 0.  1.
          4    1    4    4  501    0  0.17069760358E+03  0.15198546423E+03 -0.19525263781E+03  0.30060080801E+03  0.00000000000E+00 0.  1.
         13    1    3    3    0    0 -0.18681702191E+03  0.17493187959E+03  0.68103883104E+03  0.72754083234E+03  0.10566000000E+00 0. -1.
         -4    1    3    3    0  503  0.32518400144E+03 -0.35036409138E+02 -0.21723570562E+03  0.39263664699E+03  0.00000000000E+00 0. -1.
<mgrwt>
<rscale>  2 0.99091662E+03</rscale>
<asrwt>0</asrwt>
<pdfrwt beam="1">  1       21 0.21959602E+00 0.10196491E+04</pdfrwt>
<pdfrwt beam="2">  1       21 0.10056096E+00 0.10196491E+04</pdfrwt>
<totfact> 0.39892948E+01</totfact>
</mgrwt>
</event>
<event>
 8    1  0.5815007E-006  0.1094340E+04  0.7818608E-02  0.8699729E-01
         21   -1    0    0  503  502  0.00000000000E+00  0.00000000000E+00  0.29166004621E+04  0.29166004621E+04  0.00000000000E+00 0.  1.
         21   -1    0    0  501  503 -0.00000000000E+00 -0.00000000000E+00 -0.40079662269E+03  0.40079662269E+03  0.00000000000E+00 0.  1.
    9000010    2    1    2  501    0 -0.24956068190E+03  0.48894564046E+02  0.14822829363E+04  0.18424829823E+04  0.10643822736E+04 0.  0.
   -9000010    2    1    2    0  502  0.24956068190E+03 -0.48894564046E+02  0.10335209032E+04  0.14749141026E+04  0.10210460030E+04 0.  0.
        -13    1    3    3    0    0  0.41832163438E+03 -0.39959351749E+02  0.54689781157E+03  0.68970063582E+03  0.10566000000E+00 0.  1.
          4    1    3    3  501    0 -0.66788231628E+03  0.88853915795E+02  0.93538512470E+03  0.11527823464E+04  0.00000000000E+00 0.  1.
         13    1    4    4    0    0 -0.31964399806E+02  0.44569743627E+03  0.64950283398E+03  0.78836658356E+03  0.10566000000E+00 0. -1.
         -4    1    4    4    0  502  0.28152508170E+03 -0.49459200031E+03  0.38401806920E+03  0.68654751902E+03  0.00000000000E+00 0. -1.
<mgrwt>
<rscale>  2 0.10836596E+04</rscale>
<asrwt>0</asrwt>
<pdfrwt beam="1">  1       21 0.44870775E+00 0.10943404E+04</pdfrwt>
<pdfrwt beam="2">  1       21 0.61661021E-01 0.10943404E+04</pdfrwt>
<totfact> 0.31187745E+00</totfact>
</mgrwt>
</event>
<event>
 8    1  0.5815007E-006  0.1210089E+04  0.7818608E-02  0.8600962E-01
         21   -1    0    0  503  502  0.00000000000E+00  0.00000000000E+00  0.10329981550E+04  0.10329981550E+04  0.00000000000E+00 0.  1.
         21   -1    0    0  501  503 -0.00000000000E+00 -0.00000000000E+00 -0.15101805047E+04  0.15101805047E+04  0.00000000000E+00 0.  1.
    9000010    2    1    2  501    0 -0.46382147850E+03 -0.50959003311E+03  0.97456635236E+02  0.12035795611E+04  0.98198452048E+03 0.  0.
   -9000010    2    1    2    0  502  0.46382147850E+03  0.50959003311E+03 -0.57463898501E+03  0.13395990985E+04  0.99473786295E+03 0.  0.
        -13    1    3    3    0    0 -0.63311149205E+03 -0.30070022331E+03 -0.26755827798E+03  0.75022545208E+03  0.10566000000E+00 0.  1.
          4    1    3    3  501    0  0.16929001355E+03 -0.20888980980E+03  0.36501491321E+03  0.45335410905E+03  0.00000000000E+00 0.  1.
         13    1    4    4    0    0  0.72545987451E+03  0.13001304802E+03 -0.44403340765E+03  0.86044238648E+03  0.10566000000E+00 0. -1.
         -4    1    4    4    0  502 -0.26163839602E+03  0.37957698509E+03 -0.13060557737E+03  0.47915671207E+03  0.00000000000E+00 0. -1.
<mgrwt>
<rscale>  2 0.12074652E+04</rscale>
<asrwt>0</asrwt>
<pdfrwt beam="1">  1       21 0.15892279E+00 0.12100892E+04</pdfrwt>
<pdfrwt beam="2">  1       21 0.23233546E+00 0.12100892E+04</pdfrwt>
<totfact> 0.82604618E+00</totfact>
</mgrwt>
</event>
<event>
 8    1  0.5815007E-006  0.1084097E+04  0.7818608E-02  0.8699361E-01
         21   -1    0    0  501  502  0.00000000000E+00  0.00000000000E+00  0.16543329741E+04  0.16543329741E+04  0.00000000000E+00 0.  1.
         21   -1    0    0  502  503 -0.00000000000E+00 -0.00000000000E+00 -0.71045486404E+03  0.71045486404E+03  0.00000000000E+00 0.  1.
   -9000010    2    1    2    0  503 -0.16253449181E+03  0.39290501024E+03  0.48196069763E+03  0.11863851223E+04  0.99721198156E+03 0.  0.
    9000010    2    1    2  501    0  0.16253449181E+03 -0.39290501024E+03  0.46191741245E+03  0.11784027159E+04  0.99723289999E+03 0.  0.
        -13    1    4    4    0    0  0.16882883710E+03 -0.19448444854E+03  0.76998349545E+03  0.81191253925E+03  0.10566000000E+00 0.  1.
          4    1    4    4  501    0 -0.62943452897E+01 -0.19842056170E+03 -0.30806608300E+03  0.36649017665E+03  0.00000000000E+00 0.  1.
         13    1    3    3    0    0  0.29726627982E+03  0.19676092588E+03  0.57632520130E+03  0.67766721323E+03  0.10566000000E+00 0. -1.
         -4    1    3    3    0  503 -0.45980077163E+03  0.19614408436E+03 -0.94364503672E+02  0.50871790903E+03  0.00000000000E+00 0. -1.
<mgrwt>
<rscale>  2 0.10840917E+04</rscale>
<asrwt>0</asrwt>
<pdfrwt beam="1">  1       21 0.25451276E+00 0.10840965E+04</pdfrwt>
<pdfrwt beam="2">  1       21 0.10930075E+00 0.10840965E+04</pdfrwt>
<totfact> 0.17409511E+01</totfact>
</mgrwt>
</event>
<event>
 8    1  0.5815007E-006  0.1015047E+04  0.7818608E-02  0.8769559E-01
         21   -1    0    0  501  502  0.00000000000E+00  0.00000000000E+00  0.11365780590E+04  0.11365780590E+04  0.00000000000E+00 0. -1.
         21   -1    0    0  502  503 -0.00000000000E+00 -0.00000000000E+00 -0.87301056930E+03  0.87301056930E+03  0.00000000000E+00 0. -1.
   -9000010    2    1    2    0  503  0.13469669325E+03  0.30605631456E+02  0.11747715929E+03  0.10218227271E+04  0.10056047428E+04 0.  0.
    9000010    2    1    2  501    0 -0.13469669325E+03 -0.30605631456E+02  0.14609033038E+03  0.98776590120E+03  0.96708799346E+03 0.  0.
        -13    1    4    4    0    0  0.37786828213E+03 -0.12163990200E+03  0.23252508274E+03  0.46005285530E+03  0.10566000000E+00 0.  1.
          4    1    4    4  501    0 -0.51256497538E+03  0.91034270544E+02 -0.86434752361E+02  0.52771304590E+03  0.00000000000E+00 0.  1.
         13    1    3    3    0    0 -0.14395961367E+03  0.37725676428E+03  0.33689768529E+03  0.52587745538E+03  0.10566000000E+00 0. -1.
         -4    1    3    3    0  503  0.27865630692E+03 -0.34665113282E+03 -0.21942052601E+03  0.49594527168E+03  0.00000000000E+00 0. -1.
<mgrwt>
<rscale>  2 0.10053737E+04</rscale>
<asrwt>0</asrwt>
<pdfrwt beam="1">  1       21 0.17485816E+00 0.10150472E+04</pdfrwt>
<pdfrwt beam="2">  1       21 0.13430932E+00 0.10150472E+04</pdfrwt>
<totfact> 0.40316543E+01</totfact>
</mgrwt>
</event>
<event>
 8    1  0.5815007E-006  0.1132645E+04  0.7818608E-02  0.8671762E-01
         21   -1    0    0  503  502  0.00000000000E+00  0.00000000000E+00  0.10947108107E+04  0.10947108107E+04  0.00000000000E+00 0. -1.
         21   -1    0    0  501  503 -0.00000000000E+00 -0.00000000000E+00 -0.11386426530E+04  0.11386426530E+04  0.00000000000E+00 0. -1.
    9000010    2    1    2  501    0  0.33764098830E+03 -0.21539871898E+03 -0.19949093940E+03  0.10900764989E+04  0.99401815548E+03 0.  0.
   -9000010    2    1    2    0  502 -0.33764098830E+03  0.21539871898E+03  0.15555909709E+03  0.11432769647E+04  0.10594741811E+04 0.  0.
        -13    1    3    3    0    0 -0.24146022783E+03  0.22378025225E+03  0.22919085313E+02  0.33000899769E+03  0.10566000000E+00 0.  1.
          4    1    3    3  501    0  0.57910121613E+03 -0.43917897123E+03 -0.22241002472E+03  0.76006750121E+03  0.00000000000E+00 0.  1.
         13    1    4    4    0    0 -0.59970368906E+03  0.46697859101E+03  0.36355659837E+02  0.76094366697E+03  0.10566000000E+00 0. -1.
         -4    1    4    4    0  502  0.26206270075E+03 -0.25157987203E+03  0.11920343725E+03  0.38233329778E+03  0.00000000000E+00 0. -1.
<mgrwt>
<rscale>  2 0.11170823E+04</rscale>
<asrwt>0</asrwt>
<pdfrwt beam="1">  1       21 0.16841705E+00 0.11326445E+04</pdfrwt>
<pdfrwt beam="2">  1       21 0.17517579E+00 0.11326445E+04</pdfrwt>
<totfact> 0.19415025E+01</totfact>
</mgrwt>
</event>
<event>
 8    1  0.5815007E-006  0.1065565E+04  0.7818608E-02  0.8730649E-01
         21   -1    0    0  501  502  0.00000000000E+00  0.00000000000E+00  0.10541999526E+04  0.10541999526E+04  0.00000000000E+00 0. -1.
         21   -1    0    0  502  503 -0.00000000000E+00 -0.00000000000E+00 -0.10099677589E+04  0.10099677589E+04  0.00000000000E+00 0. -1.
   -9000010    2    1    2    0  503  0.24237258380E+03  0.21753796048E+03 -0.31790194301E+01  0.10655697598E+04  0.10145745775E+04 0.  0.
    9000010    2    1    2  501    0 -0.24237258380E+03 -0.21753796048E+03  0.47411213137E+02  0.99859795169E+03  0.94280581901E+03 0.  0.
        -13    1    4    4    0    0 -0.19560744503E+03 -0.20204579729E+03  0.48371476524E+03  0.55952190486E+03  0.10566000000E+00 0.  1.
          4    1    4    4  501    0 -0.46765138773E+02 -0.15492163190E+02 -0.43630355210E+03  0.43907604683E+03  0.00000000000E+00 0.  1.
         13    1    3    3    0    0 -0.19653278319E+03  0.45709982333E+03  0.18566309753E+03  0.53107078653E+03  0.10566000000E+00 0. -1.
         -4    1    3    3    0  503  0.43890536699E+03 -0.23956186285E+03 -0.18884211696E+03  0.53449897329E+03  0.00000000000E+00 0. -1.
<mgrwt>
<rscale>  2 0.10481179E+04</rscale>
<asrwt>0</asrwt>
<pdfrwt beam="1">  1       21 0.16218461E+00 0.10655650E+04</pdfrwt>
<pdfrwt beam="2">  1       21 0.15537965E+00 0.10655650E+04</pdfrwt>
<totfact> 0.32790005E+01</totfact>
</mgrwt>
</event>
<event>
 8    1  0.5815007E-006  0.1196105E+04  0.7818608E-02  0.8625055E-01
         21   -1    0    0  503  502  0.00000000000E+00  0.00000000000E+00  0.86971537662E+03  0.86971537662E+03  0.00000000000E+00 0.  1.
         21   -1    0    0  501  503 -0.00000000000E+00 -0.00000000000E+00 -0.16916753565E+04  0.16916753565E+04  0.00000000000E+00 0. -1.
    9000010    2    1    2  501    0  0.30140859707E+03 -0.64075064396E+03 -0.81008100343E+03  0.14446102392E+04  0.96398079912E+03 0.  0.
   -9000010    2    1    2    0  502 -0.30140859707E+03  0.64075064396E+03 -0.11878976469E+02  0.11167804939E+04  0.86350971699E+03 0.  0.
        -13    1    3    3    0    0 -0.17864424358E+03  0.21040912713E+02 -0.56222104284E+03  0.59029568688E+03  0.10566000000E+00 0.  1.
          4    1    3    3  501    0  0.48005284065E+03 -0.66179155667E+03 -0.24785996059E+03  0.85431455235E+03  0.00000000000E+00 0.  1.
         13    1    4    4    0    0 -0.38218359717E+03  0.18412810416E+03  0.33264392929E+03  0.53909132394E+03  0.10566000000E+00 0. -1.
         -4    1    4    4    0  502  0.80775000100E+02  0.45662253980E+03 -0.34452290576E+03  0.57768916996E+03  0.00000000000E+00 0. -1.
<mgrwt>
<rscale>  2 0.11757442E+04</rscale>
<asrwt>0</asrwt>
<pdfrwt beam="1">  1       21 0.13380237E+00 0.11961051E+04</pdfrwt>
<pdfrwt beam="2">  1       21 0.26025775E+00 0.11961051E+04</pdfrwt>
<totfact> 0.87458878E+00</totfact>
</mgrwt>
</event>
<event>
 8    1  0.5815007E-006  0.1080036E+04  0.7818608E-02  0.8747933E-01
         21   -1    0    0  503  502  0.00000000000E+00  0.00000000000E+00  0.96277268373E+03  0.96277268373E+03  0.00000000000E+00 0.  1.
         21   -1    0    0  501  503 -0.00000000000E+00 -0.00000000000E+00 -0.10150860048E+04  0.10150860048E+04  0.00000000000E+00 0.  1.
    9000010    2    1    2  501    0  0.28052704000E+03  0.29001750085E+02  0.58024717232E+02  0.10815937472E+04  0.10425649354E+04 0.  0.
   -9000010    2    1    2    0  502 -0.28052704000E+03 -0.29001750085E+02 -0.11033803834E+03  0.89626494132E+03  0.84355191936E+03 0.  0.
        -13    1    3    3    0    0  0.66872002668E+03  0.11087540358E+03  0.88933387108E+02  0.68365853152E+03  0.10566000000E+00 0.  1.
          4    1    3    3  501    0 -0.38819298668E+03 -0.81873653498E+02 -0.30908669876E+02  0.39793521573E+03  0.00000000000E+00 0.  1.
         13    1    4    4    0    0 -0.69807003251E+02  0.17469569437E+03 -0.42589874742E+03  0.46559784960E+03  0.10566000000E+00 0. -1.
         -4    1    4    4    0  502 -0.21072003675E+03 -0.20369744446E+03  0.31556070909E+03  0.43066709171E+03  0.00000000000E+00 0. -1.
<mgrwt>
<rscale>  2 0.10288659E+04</rscale>
<asrwt>0</asrwt>
<pdfrwt beam="1">  1       21 0.14811887E+00 0.10800362E+04</pdfrwt>
<pdfrwt beam="2">  1       21 0.15616708E+00 0.10800362E+04</pdfrwt>
<totfact> 0.42751499E+01</totfact>
</mgrwt>
</event>
<event>
 8    1  0.5815007E-006  0.1302087E+04  0.7818608E-02  0.8536072E-01
         21   -1    0    0  501  502  0.00000000000E+00  0.00000000000E+00  0.87625287173E+03  0.87625287173E+03  0.00000000000E+00 0. -1.
         21   -1    0    0  502  503 -0.00000000000E+00 -0.00000000000E+00 -0.19282900454E+04  0.19282900454E+04  0.00000000000E+00 0. -1.
   -9000010    2    1    2    0  503  0.56122242787E+03 -0.59297663013E+03 -0.65209477314E+03  0.14424179868E+04  0.99435916960E+03 0.  0.
    9000010    2    1    2  501    0 -0.56122242787E+03  0.59297663013E+03 -0.39994240048E+03  0.13621249302E+04  0.10143167673E+04 0.  0.
        -13    1    4    4    0    0  0.86144346913E+02  0.58461114917E+03  0.18564155076E+02  0.59121542880E+03  0.10566000000E+00 0.  1.
          4    1    4    4  501    0 -0.64736677479E+03  0.83654809617E+01 -0.41850655555E+03  0.77090950144E+03  0.00000000000E+00 0.  1.
         13    1    3    3    0    0  0.48820062089E+03 -0.84570618144E+03 -0.66102340754E+03  0.11791991978E+04  0.10566000000E+00 0. -1.
         -4    1    3    3    0  503  0.73021806988E+02  0.25272955131E+03  0.89286343954E+01  0.26321878906E+03  0.00000000000E+00 0. -1.
<mgrwt>
<rscale>  2 0.12981981E+04</rscale>
<asrwt>0</asrwt>
<pdfrwt beam="1">  1       21 0.13480813E+00 0.13020869E+04</pdfrwt>
<pdfrwt beam="2">  1       21 0.29666001E+00 0.13020869E+04</pdfrwt>
<totfact> 0.46022469E+00</totfact>
</mgrwt>
</event>
<event>
 8    1  0.5815007E-006  0.1227556E+04  0.7818608E-02  0.8586606E-01
         21   -1    0    0  503  502  0.00000000000E+00  0.00000000000E+00  0.24206616819E+04  0.24206616819E+04  0.00000000000E+00 0.  1.
         21   -1    0    0  501  503 -0.00000000000E+00 -0.00000000000E+00 -0.10415819164E+04  0.10415819164E+04  0.00000000000E+00 0.  1.
    9000010    2    1    2  501    0  0.13610140668E+03  0.68074029980E+03 -0.40989184884E+03  0.12941813697E+04  0.10124046331E+04 0.  0.
   -9000010    2    1    2    0  502 -0.13610140668E+03 -0.68074029980E+03  0.17889716143E+04  0.21680622286E+04  0.10090309418E+04 0.  0.
        -13    1    3    3    0    0  0.17504600292E+03  0.73492596380E+03  0.11576778276E+03  0.76430325533E+03  0.10566000000E+00 0.  1.
          4    1    3    3  501    0 -0.38944596244E+02 -0.54185664000E+02 -0.52565963159E+03  0.52987811433E+03  0.00000000000E+00 0.  1.
         13    1    4    4    0    0 -0.39650568858E+03 -0.20287725036E+03  0.14728040879E+04  0.15386772996E+04  0.10566000000E+00 0. -1.
         -4    1    4    4    0  502  0.26040428190E+03 -0.47786304945E+03  0.31616752638E+03  0.62938492895E+03  0.00000000000E+00 0. -1.
<mgrwt>
<rscale>  2 0.12268603E+04</rscale>
<asrwt>0</asrwt>
<pdfrwt beam="1">  1       21 0.37240949E+00 0.12275561E+04</pdfrwt>
<pdfrwt beam="2">  1       21 0.16024337E+00 0.12275561E+04</pdfrwt>
<totfact> 0.80682635E-01</totfact>
</mgrwt>
</event>
<event>
 8    1  0.5815007E-006  0.1064660E+04  0.7818608E-02  0.8721535E-01
         21   -1    0    0  501  502  0.00000000000E+00  0.00000000000E+00  0.33770234280E+04  0.33770234280E+04  0.00000000000E+00 0.  1.
         21   -1    0    0  502  503 -0.00000000000E+00 -0.00000000000E+00 -0.33939344713E+03  0.33939344713E+03  0.00000000000E+00 0.  1.
   -9000010    2    1    2    0  503 -0.43661662394E+02  0.30569825275E+03  0.11944517325E+04  0.16000677296E+04  0.10188935350E+04 0.  0.
    9000010    2    1    2  501    0  0.43661662394E+02 -0.30569825275E+03  0.18431782484E+04  0.21163491455E+04  0.99311121624E+03 0.  0.
        -13    1    4    4    0    0  0.47290422702E+02 -0.19282041705E+03 -0.61873341898E+02  0.20795292475E+03  0.10566000000E+00 0.  1.
          4    1    4    4  501    0 -0.36287603077E+01 -0.11287783570E+03  0.19050515903E+04  0.19083962208E+04  0.00000000000E+00 0.  1.
         13    1    3    3    0    0  0.36312124204E+02 -0.34840653776E+03  0.67682962175E+03  0.76210500192E+03  0.10566000000E+00 0. -1.
         -4    1    3    3    0  503 -0.79973786598E+02  0.65410479051E+03  0.51762211073E+03  0.83796272771E+03  0.00000000000E+00 0. -1.
<mgrwt>
<rscale>  2 0.10584444E+04</rscale>
<asrwt>0</asrwt>
<pdfrwt beam="1">  1       21 0.51954204E+00 0.10646604E+04</pdfrwt>
<pdfrwt beam="2">  1       21 0.52214379E-01 0.10646604E+04</pdfrwt>
<totfact> 0.14688450E+00</totfact>
</mgrwt>
</event>
<event>
 8    1  0.5815007E-006  0.1155435E+04  0.7818608E-02  0.8644075E-01
         21   -1    0    0  503  502  0.00000000000E+00  0.00000000000E+00  0.12622340667E+04  0.12622340667E+04  0.00000000000E+00 0. -1.
         21   -1    0    0  501  503 -0.00000000000E+00 -0.00000000000E+00 -0.11023899497E+04  0.11023899497E+04  0.00000000000E+00 0. -1.
    9000010    2    1    2  501    0 -0.53032213936E+03 -0.19336989087E+03 -0.19378484432E+03  0.11715724029E+04  0.10081645913E+04 0.  0.
   -9000010    2    1    2    0  502  0.53032213936E+03  0.19336989087E+03  0.35362896130E+03  0.11930516136E+04  0.98979049507E+03 0.  0.
        -13    1    3    3    0    0 -0.29690653151E+03  0.32334366624E+03 -0.37393132273E+03  0.57665350102E+03  0.10566000000E+00 0.  1.
          4    1    3    3  501    0 -0.23341560785E+03 -0.51671355711E+03  0.18014647841E+03  0.59491890185E+03  0.00000000000E+00 0.  1.
         13    1    4    4    0    0  0.41171462350E+03  0.57266476098E+03  0.36769613355E+03  0.79539569867E+03  0.10566000000E+00 0. -1.
         -4    1    4    4    0  502  0.11860751586E+03 -0.37929487011E+03 -0.14067172242E+02  0.39765591489E+03  0.00000000000E+00 0. -1.
<mgrwt>
<rscale>  2 0.11514146E+04</rscale>
<asrwt>0</asrwt>
<pdfrwt beam="1">  1       21 0.19418986E+00 0.11554347E+04</pdfrwt>
<pdfrwt beam="2">  1       21 0.16959845E+00 0.11554347E+04</pdfrwt>
<totfact> 0.13254961E+01</totfact>
</mgrwt>
</event>
<event>
 8    1  0.5815007E-006  0.1117740E+04  0.7818608E-02  0.8672316E-01
         21   -1    0    0  503  502  0.00000000000E+00  0.00000000000E+00  0.11745568660E+04  0.11745568660E+04  0.00000000000E+00 0. -1.
         21   -1    0    0  501  503 -0.00000000000E+00 -0.00000000000E+00 -0.10784036545E+04  0.10784036545E+04  0.00000000000E+00 0. -1.
    9000010    2    1    2  501    0  0.48384838136E+03  0.86328935973E+02  0.20077142721E+03  0.11356282134E+04  0.10038826285E+04 0.  0.
   -9000010    2    1    2    0  502 -0.48384838136E+03 -0.86328935973E+02 -0.10461821569E+03  0.11173323071E+04  0.99796020572E+03 0.  0.
        -13    1    3    3    0    0  0.25849586712E+03  0.40336700564E+03  0.46321381686E+03  0.66640236033E+03  0.10566000000E+00 0.  1.
          4    1    3    3  501    0  0.22535251424E+03 -0.31703806966E+03 -0.26244238965E+03  0.46922585306E+03  0.00000000000E+00 0.  1.
         13    1    4    4    0    0 -0.11736462798E+03  0.32388388883E+03 -0.37089120948E+03  0.50619712542E+03  0.10566000000E+00 0. -1.
         -4    1    4    4    0  502 -0.36648375337E+03 -0.41021282480E+03  0.26627299379E+03  0.61113518172E+03  0.00000000000E+00 0. -1.
<mgrwt>
<rscale>  2 0.11164084E+04</rscale>
<asrwt>0</asrwt>
<pdfrwt beam="1">  1       21 0.18070106E+00 0.11177398E+04</pdfrwt>
<pdfrwt beam="2">  1       21 0.16590826E+00 0.11177398E+04</pdfrwt>
<totfact> 0.18421914E+01</totfact>
</mgrwt>
</event>
<event>
 8    1  0.5815007E-006  0.9940819E+03  0.7818608E-02  0.8781164E-01
         21   -1    0    0  501  502  0.00000000000E+00  0.00000000000E+00  0.16351456028E+04  0.16351456028E+04  0.00000000000E+00 0. -1.
         21   -1    0    0  502  503 -0.00000000000E+00 -0.00000000000E+00 -0.60342667380E+03  0.60342667380E+03  0.00000000000E+00 0. -1.
   -9000010    2    1    2    0  503 -0.14341902915E+03 -0.12576890354E+03  0.57492459006E+03  0.11483627638E+04  0.97560848599E+03 0.  0.
    9000010    2    1    2  501    0  0.14341902915E+03  0.12576890354E+03  0.45679433891E+03  0.10902095128E+04  0.97134385195E+03 0.  0.
        -13    1    4    4    0    0 -0.20927779265E+03  0.37680438635E+03  0.49411660468E+03  0.65569045308E+03  0.10566000000E+00 0.  1.
          4    1    4    4  501    0  0.35269682180E+03 -0.25103548281E+03 -0.37322265773E+02  0.43451905972E+03  0.00000000000E+00 0.  1.
         13    1    3    3    0    0 -0.49275676838E+03 -0.14810126157E+03  0.49361300284E+02  0.51689434665E+03  0.10566000000E+00 0. -1.
         -4    1    3    3    0  503  0.34933773923E+03  0.22332358025E+02  0.52556328978E+03  0.63146841713E+03  0.00000000000E+00 0. -1.
<mgrwt>
<rscale>  2 0.99303395E+03</rscale>
<asrwt>0</asrwt>
<pdfrwt beam="1">  1       21 0.25156086E+00 0.99408186E+03</pdfrwt>
<pdfrwt beam="2">  1       21 0.92834874E-01 0.99408186E+03</pdfrwt>
<totfact> 0.28630008E+01</totfact>
</mgrwt>
</event>
<event>
 8    1  0.5815007E-006  0.1081218E+04  0.7818608E-02  0.8713256E-01
         21   -1    0    0  501  502  0.00000000000E+00  0.00000000000E+00  0.22310705347E+04  0.22310705347E+04  0.00000000000E+00 0. -1.
         21   -1    0    0  502  503 -0.00000000000E+00 -0.00000000000E+00 -0.49946368884E+03  0.49946368884E+03  0.00000000000E+00 0. -1.
   -9000010    2    1    2    0  503  0.52093515955E+02  0.32809407734E+03  0.88595579805E+03  0.13578879323E+04  0.97395200216E+03 0.  0.
    9000010    2    1    2  501    0 -0.52093515955E+02 -0.32809407734E+03  0.84565104782E+03  0.13726462913E+04  0.10289182126E+04 0.  0.
        -13    1    4    4    0    0  0.23124280249E+03  0.23416823943E+03  0.13808249496E+02  0.32939137357E+03  0.10566000000E+00 0.  1.
          4    1    4    4  501    0 -0.28333631845E+03 -0.56226231678E+03  0.83184279833E+03  0.10432549177E+04  0.00000000000E+00 0.  1.
         13    1    3    3    0    0  0.43259768034E+03  0.50230487821E+02  0.75039293729E+03  0.86761363892E+03  0.10566000000E+00 0. -1.
         -4    1    3    3    0  503 -0.38050416439E+03  0.27786358952E+03  0.13556286076E+03  0.49027429334E+03  0.00000000000E+00 0. -1.
<mgrwt>
<rscale>  2 0.10679328E+04</rscale>
<asrwt>0</asrwt>
<pdfrwt beam="1">  1       21 0.34324162E+00 0.10812179E+04</pdfrwt>
<pdfrwt beam="2">  1       21 0.76840569E-01 0.10812179E+04</pdfrwt>
<totfact> 0.10082458E+01</totfact>
</mgrwt>
</event>
<event>
 8    1  0.5815007E-006  0.1051810E+04  0.7818608E-02  0.8729222E-01
         21   -1    0    0  501  502  0.00000000000E+00  0.00000000000E+00  0.58092498629E+03  0.58092498629E+03  0.00000000000E+00 0.  1.
         21   -1    0    0  502  503 -0.00000000000E+00 -0.00000000000E+00 -0.20052694744E+04  0.20052694744E+04  0.00000000000E+00 0.  1.
   -9000010    2    1    2    0  503  0.31072760369E+03 -0.39209004989E+02 -0.10257106293E+04  0.14691446486E+04  0.10040989560E+04 0.  0.
    9000010    2    1    2  501    0 -0.31072760369E+03  0.39209004989E+02 -0.39863385872E+03  0.11170498121E+04  0.99539054627E+03 0.  0.
        -13    1    4    4    0    0 -0.56081334728E+03  0.28395446519E+03 -0.62269605828E+02  0.63167971612E+03  0.10566000000E+00 0.  1.
          4    1    4    4  501    0  0.25008574359E+03 -0.24474546020E+03 -0.33636425290E+03  0.48537009597E+03  0.00000000000E+00 0.  1.
         13    1    3    3    0    0 -0.52670859710E+02  0.17601378541E+03  0.13889580727E+03  0.23031962261E+03  0.10566000000E+00 0. -1.
         -4    1    3    3    0  503  0.36339846340E+03 -0.21522279040E+03 -0.11646064366E+04  0.12388250260E+04  0.00000000000E+00 0. -1.
<mgrwt>
<rscale>  2 0.10497260E+04</rscale>
<asrwt>0</asrwt>
<pdfrwt beam="1">  1       21 0.89373075E-01 0.10518097E+04</pdfrwt>
<pdfrwt beam="2">  1       21 0.30850300E+00 0.10518097E+04</pdfrwt>
<totfact> 0.12219640E+01</totfact>
</mgrwt>
</event>
<event>
 8    1  0.5815007E-006  0.1506225E+04  0.7818608E-02  0.8406170E-01
         21   -1    0    0  503  502  0.00000000000E+00  0.00000000000E+00  0.19964008000E+04  0.19964008000E+04  0.00000000000E+00 0.  1.
         21   -1    0    0  501  503 -0.00000000000E+00 -0.00000000000E+00 -0.15731275844E+04  0.15731275844E+04  0.00000000000E+00 0.  1.
    9000010    2    1    2  501    0 -0.11199483143E+04 -0.30658075777E+02 -0.73021433200E+03  0.16723605257E+04  0.10041676220E+04 0.  0.
   -9000010    2    1    2    0  502  0.11199483143E+04  0.30658075777E+02  0.11534875476E+04  0.18971678588E+04  0.10067215194E+04 0.  0.
        -13    1    3    3    0    0 -0.12400463744E+04 -0.13008205924E+03 -0.40377534961E+03  0.13105994419E+04  0.10566000000E+00 0.  1.
          4    1    3    3  501    0  0.12009806017E+03  0.99423983466E+02 -0.32643898239E+03  0.36176108382E+03  0.00000000000E+00 0.  1.
         13    1    4    4    0    0  0.95224866542E+03  0.26763220503E+03  0.36063259080E+03  0.10528344574E+04  0.10566000000E+00 0. -1.
         -4    1    4    4    0  502  0.16769964886E+03 -0.23697412925E+03  0.79285495679E+03  0.84433340137E+03  0.00000000000E+00 0. -1.
<mgrwt>
<rscale>  2 0.15057979E+04</rscale>
<asrwt>0</asrwt>
<pdfrwt beam="1">  1       21 0.30713859E+00 0.15062245E+04</pdfrwt>
<pdfrwt beam="2">  1       21 0.24201963E+00 0.15062245E+04</pdfrwt>
<totfact> 0.49702294E-01</totfact>
</mgrwt>
</event>
<event>
 8    1  0.5815007E-006  0.1200467E+04  0.7818608E-02  0.8608738E-01
         21   -1    0    0  501  502  0.00000000000E+00  0.00000000000E+00  0.24668770721E+04  0.24668770721E+04  0.00000000000E+00 0.  1.
         21   -1    0    0  502  503 -0.00000000000E+00 -0.00000000000E+00 -0.57845718290E+03  0.57845718290E+03  0.00000000000E+00 0.  1.
   -9000010    2    1    2    0  503 -0.14540603914E+03 -0.62211767496E+03  0.88419909869E+03  0.14802208468E+04  0.10005360520E+04 0.  0.
    9000010    2    1    2  501    0  0.14540603914E+03  0.62211767496E+03  0.10042207905E+04  0.15651134082E+04  0.10163401334E+04 0.  0.
        -13    1    4    4    0    0 -0.16131425422E+03 -0.58584900219E+02 -0.12434486526E+03  0.21193427243E+03  0.10566000000E+00 0.  1.
          4    1    4    4  501    0  0.30672029336E+03  0.68070257518E+03  0.11285656557E+04  0.13531791358E+04  0.00000000000E+00 0.  1.
         13    1    3    3    0    0  0.39103054740E+03 -0.50218149563E+03  0.50419798191E+03  0.81197706845E+03  0.10566000000E+00 0. -1.
         -4    1    3    3    0  503 -0.53643658655E+03 -0.11993617933E+03  0.38000111677E+03  0.66824377831E+03  0.00000000000E+00 0. -1.
<mgrwt>
<rscale>  2 0.11971152E+04</rscale>
<asrwt>0</asrwt>
<pdfrwt beam="1">  1       21 0.37951954E+00 0.12004668E+04</pdfrwt>
<pdfrwt beam="2">  1       21 0.88993414E-01 0.12004668E+04</pdfrwt>
<totfact> 0.38000536E+00</totfact>
</mgrwt>
</event>
<event>
 8    1  0.5815007E-006  0.1056728E+04  0.7818608E-02  0.8724151E-01
         21   -1    0    0  501  502  0.00000000000E+00  0.00000000000E+00  0.55853871046E+03  0.55853871046E+03  0.00000000000E+00 0. -1.
         21   -1    0    0  502  503 -0.00000000000E+00 -0.00000000000E+00 -0.19996599254E+04  0.19996599254E+04  0.00000000000E+00 0. -1.
   -9000010    2    1    2    0  503 -0.15997850952E+02 -0.36481482658E+03 -0.81222489462E+03  0.13328100030E+04  0.99162867833E+03 0.  0.
    9000010    2    1    2  501    0  0.15997850952E+02  0.36481482658E+03 -0.62889632032E+03  0.12253886329E+04  0.98626615626E+03 0.  0.
        -13    1    4    4    0    0 -0.44618675459E+03  0.38302380042E+03 -0.37993347077E+03  0.70009949653E+03  0.10566000000E+00 0.  1.
          4    1    4    4  501    0  0.46218460554E+03 -0.18208973842E+02 -0.24896284955E+03  0.52528913637E+03  0.00000000000E+00 0.  1.
         13    1    3    3    0    0 -0.64583250473E+02  0.32472391867E+03 -0.11366071057E+03  0.35005055048E+03  0.10566000000E+00 0. -1.
         -4    1    3    3    0  503  0.48585399521E+02 -0.68953874525E+03 -0.69856418404E+03  0.98275945250E+03  0.00000000000E+00 0. -1.
<mgrwt>
<rscale>  2 0.10554677E+04</rscale>
<asrwt>0</asrwt>
<pdfrwt beam="1">  1       21 0.85929032E-01 0.10567276E+04</pdfrwt>
<pdfrwt beam="2">  1       21 0.30763999E+00 0.10567276E+04</pdfrwt>
<totfact> 0.13688825E+01</totfact>
</mgrwt>
</event>
<event>
 8    1  0.5815007E-006  0.1379197E+04  0.7818608E-02  0.8483528E-01
         21   -1    0    0  501  502  0.00000000000E+00  0.00000000000E+00  0.14027949941E+04  0.14027949941E+04  0.00000000000E+00 0.  1.
         21   -1    0    0  502  503 -0.00000000000E+00 -0.00000000000E+00 -0.15374439416E+04  0.15374439416E+04  0.00000000000E+00 0. -1.
   -9000010    2    1    2    0  503  0.53974655724E+03  0.77432862073E+03  0.44544592942E+03  0.14493464469E+04  0.10056201511E+04 0.  0.
    9000010    2    1    2  501    0 -0.53974655724E+03 -0.77432862073E+03 -0.58009487693E+03  0.14908924887E+04  0.99766687210E+03 0.  0.
        -13    1    4    4    0    0  0.16799207609E+03 -0.37435854702E+03 -0.53833330908E+03  0.67688139448E+03  0.10566000000E+00 0.  1.
          4    1    4    4  501    0 -0.70773863333E+03 -0.39997007371E+03 -0.41761567847E+02  0.81401109422E+03  0.00000000000E+00 0.  1.
         13    1    3    3    0    0  0.65323925674E+03  0.49715418165E+03  0.68235236355E+03  0.10674682975E+04  0.10566000000E+00 0. -1.
         -4    1    3    3    0  503 -0.11349269950E+03  0.27717443908E+03 -0.23690643413E+03  0.38187814948E+03  0.00000000000E+00 0. -1.
<mgrwt>
<rscale>  2 0.13777472E+04</rscale>
<asrwt>0</asrwt>
<pdfrwt beam="1">  1       21 0.21581461E+00 0.13791965E+04</pdfrwt>
<pdfrwt beam="2">  1       21 0.23652984E+00 0.13791965E+04</pdfrwt>
<totfact> 0.25790618E+00</totfact>
</mgrwt>
</event>
<event>
 8    1  0.5815007E-006  0.1041581E+04  0.7818608E-02  0.8764419E-01
         21   -1    0    0  503  502  0.00000000000E+00  0.00000000000E+00  0.30462557997E+04  0.30462557997E+04  0.00000000000E+00 0. -1.
         21   -1    0    0  501  503 -0.00000000000E+00 -0.00000000000E+00 -0.32109679436E+03  0.32109679436E+03  0.00000000000E+00 0. -1.
    9000010    2    1    2  501    0  0.19415293905E+02 -0.25350915709E+03  0.10952600382E+04  0.14330668139E+04  0.88850554048E+03 0.  0.
   -9000010    2    1    2    0  502 -0.19415293905E+02  0.25350915709E+03  0.16298989672E+04  0.19342857802E+04  0.10100727646E+04 0.  0.
        -13    1    3    3    0    0  0.35973466118E+03  0.44683115816E+02  0.83687426219E+03  0.91201104663E+03  0.10566000000E+00 0.  1.
          4    1    3    3  501    0 -0.34031936728E+03 -0.29819227290E+03  0.25838577600E+03  0.52105576727E+03  0.00000000000E+00 0.  1.
         13    1    4    4    0    0 -0.41511276400E+02 -0.38655099554E+03  0.47619407415E+03  0.61474032375E+03  0.10566000000E+00 0. -1.
         -4    1    4    4    0  502  0.22095982495E+02  0.64006015263E+03  0.11537048930E+04  0.13195454564E+04  0.00000000000E+00 0. -1.
<mgrwt>
<rscale>  2 0.10108983E+04</rscale>
<asrwt>0</asrwt>
<pdfrwt beam="1">  1       21 0.46865472E+00 0.10415809E+04</pdfrwt>
<pdfrwt beam="2">  1       21 0.49399509E-01 0.10415809E+04</pdfrwt>
<totfact> 0.37790700E+00</totfact>
</mgrwt>
</event>
<event>
 8    1  0.5815007E-006  0.1025711E+04  0.7818608E-02  0.8754255E-01
         21   -1    0    0  501  502  0.00000000000E+00  0.00000000000E+00  0.12244949984E+04  0.12244949984E+04  0.00000000000E+00 0. -1.
         21   -1    0    0  502  503 -0.00000000000E+00 -0.00000000000E+00 -0.84666642463E+03  0.84666642463E+03  0.00000000000E+00 0. -1.
   -9000010    2    1    2    0  503 -0.12391321132E+03  0.27749307601E+02  0.19279305861E+03  0.10288942792E+04  0.10026613418E+04 0.  0.
    9000010    2    1    2  501    0  0.12391321132E+03 -0.27749307601E+02  0.18503551518E+03  0.10422671439E+04  0.10178202932E+04 0.  0.
        -13    1    4    4    0    0  0.16011167521E+03 -0.32330815181E+03 -0.30261534187E+03  0.47089273287E+03  0.10566000000E+00 0.  1.
          4    1    4    4  501    0 -0.36198463887E+02  0.29555884421E+03  0.48765085705E+03  0.57137441101E+03  0.00000000000E+00 0.  1.
         13    1    3    3    0    0  0.15419656264E+03 -0.31615755801E+03  0.40660111845E+03  0.53763990003E+03  0.10566000000E+00 0. -1.
         -4    1    3    3    0  503 -0.27810977396E+03  0.34390686561E+03 -0.21380805984E+03  0.49125437915E+03  0.00000000000E+00 0. -1.
<mgrwt>
<rscale>  2 0.10219298E+04</rscale>
<asrwt>0</asrwt>
<pdfrwt beam="1">  1       21 0.18838385E+00 0.10257108E+04</pdfrwt>
<pdfrwt beam="2">  1       21 0.13025637E+00 0.10257108E+04</pdfrwt>
<totfact> 0.34132291E+01</totfact>
</mgrwt>
</event>
<event>
 8    1  0.5815007E-006  0.1078266E+04  0.7818608E-02  0.8715710E-01
         21   -1    0    0  503  502  0.00000000000E+00  0.00000000000E+00  0.10535443222E+04  0.10535443222E+04  0.00000000000E+00 0.  1.
         21   -1    0    0  501  503 -0.00000000000E+00 -0.00000000000E+00 -0.12692725888E+04  0.12692725888E+04  0.00000000000E+00 0.  1.
    9000010    2    1    2  501    0 -0.16552779714E+03 -0.35868749483E+03 -0.58682259150E+03  0.11824796948E+04  0.94754488234E+03 0.  0.
   -9000010    2    1    2    0  502  0.16552779714E+03  0.35868749483E+03  0.37109432494E+03  0.11403372163E+04  0.10032954690E+04 0.  0.
        -13    1    3    3    0    0 -0.23034649860E+03  0.29206891646E+03 -0.19270260896E+03  0.41892489547E+03  0.10566000000E+00 0.  1.
          4    1    3    3  501    0  0.64818701461E+02 -0.65075641128E+03 -0.39411998254E+03  0.76355479929E+03  0.00000000000E+00 0.  1.
         13    1    4    4    0    0 -0.15671625267E+03  0.25971441132E+03  0.64057333103E+03  0.70876354512E+03  0.10566000000E+00 0. -1.
         -4    1    4    4    0  502  0.32224404981E+03  0.98973083507E+02 -0.26947900608E+03  0.43157367113E+03  0.00000000000E+00 0. -1.
<mgrwt>
<rscale>  2 0.10651096E+04</rscale>
<asrwt>0</asrwt>
<pdfrwt beam="1">  1       21 0.16208374E+00 0.10782662E+04</pdfrwt>
<pdfrwt beam="2">  1       21 0.19527270E+00 0.10782662E+04</pdfrwt>
<totfact> 0.15307010E+01</totfact>
</mgrwt>
</event>
<event>
 8    1  0.5815007E-006  0.1058193E+04  0.7818608E-02  0.8724155E-01
         21   -1    0    0  503  502  0.00000000000E+00  0.00000000000E+00  0.11462959526E+04  0.11462959526E+04  0.00000000000E+00 0.  1.
         21   -1    0    0  501  503 -0.00000000000E+00 -0.00000000000E+00 -0.10267144974E+04  0.10267144974E+04  0.00000000000E+00 0.  1.
    9000010    2    1    2  501    0 -0.13028242766E+03  0.30119471783E+03 -0.20286635044E+03  0.10667801525E+04  0.99457195246E+03 0.  0.
   -9000010    2    1    2    0  502  0.13028242766E+03 -0.30119471783E+03  0.32244780558E+03  0.11062302975E+04  0.10060224226E+04 0.  0.
        -13    1    3    3    0    0 -0.35193206721E+03 -0.99108067734E+02  0.23404694950E+03  0.43411585407E+03  0.10566000000E+00 0.  1.
          4    1    3    3  501    0  0.22164963956E+03  0.40030278556E+03 -0.43691329993E+03  0.63266429842E+03  0.00000000000E+00 0.  1.
         13    1    4    4    0    0  0.33587359253E+03 -0.53321425438E+03  0.44650142590E+03  0.77232897507E+03  0.10566000000E+00 0. -1.
         -4    1    4    4    0  502 -0.20559116488E+03  0.23201953656E+03 -0.12405362032E+03  0.33390132245E+03  0.00000000000E+00 0. -1.
<mgrwt>
<rscale>  2 0.10554627E+04</rscale>
<asrwt>0</asrwt>
<pdfrwt beam="1">  1       21 0.17635322E+00 0.10581932E+04</pdfrwt>
<pdfrwt beam="2">  1       21 0.15795608E+00 0.10581932E+04</pdfrwt>
<totfact> 0.23708467E+01</totfact>
</mgrwt>
</event>
<event>
 8    1  0.5815007E-006  0.1036639E+04  0.7818608E-02  0.8746200E-01
         21   -1    0    0  503  502  0.00000000000E+00  0.00000000000E+00  0.84598714428E+03  0.84598714428E+03  0.00000000000E+00 0. -1.
         21   -1    0    0  501  503 -0.00000000000E+00 -0.00000000000E+00 -0.12456742047E+04  0.12456742047E+04  0.00000000000E+00 0. -1.
    9000010    2    1    2  501    0  0.82313950601E+02 -0.22714183138E+03 -0.25494803713E+03  0.10449669406E+04  0.98416889164E+03 0.  0.
   -9000010    2    1    2    0  502 -0.82313950601E+02  0.22714183138E+03 -0.14473902327E+03  0.10466944084E+04  0.10080926553E+04 0.  0.
        -13    1    3    3    0    0  0.44829437628E+03  0.62818756068E+02  0.93658447993E+02  0.46226178726E+03  0.10566000000E+00 0.  1.
          4    1    3    3  501    0 -0.36598042568E+03 -0.28996058745E+03 -0.34860648512E+03  0.58270515333E+03  0.00000000000E+00 0.  1.
         13    1    4    4    0    0  0.15319579161E+03  0.13699240747E+03 -0.54003163238E+03  0.57781488853E+03  0.10566000000E+00 0. -1.
         -4    1    4    4    0  502 -0.23550974221E+03  0.90149423907E+02  0.39529260911E+03  0.46887951984E+03  0.00000000000E+00 0. -1.
<mgrwt>
<rscale>  2 0.10307768E+04</rscale>
<asrwt>0</asrwt>
<pdfrwt beam="1">  1       21 0.13015187E+00 0.10366387E+04</pdfrwt>
<pdfrwt beam="2">  1       21 0.19164218E+00 0.10366387E+04</pdfrwt>
<totfact> 0.32148785E+01</totfact>
</mgrwt>
</event>
<event>
 8    1  0.5815007E-006  0.1098572E+04  0.7818608E-02  0.8692080E-01
         21   -1    0    0  501  502  0.00000000000E+00  0.00000000000E+00  0.12625540064E+04  0.12625540064E+04  0.00000000000E+00 0.  1.
         21   -1    0    0  502  503 -0.00000000000E+00 -0.00000000000E+00 -0.94805594163E+03  0.94805594163E+03  0.00000000000E+00 0.  1.
   -9000010    2    1    2    0  503 -0.37711852863E+03  0.24697125796E+03  0.28202914686E+03  0.11115577754E+04  0.97611836444E+03 0.  0.
    9000010    2    1    2  501    0  0.37711852863E+03 -0.24697125796E+03  0.32468917940E+02  0.10990521727E+04  0.10018224697E+04 0.  0.
        -13    1    4    4    0    0 -0.16276084204E+03  0.28212934323E+03 -0.78477062237E+02  0.33503241406E+03  0.10566000000E+00 0.  1.
          4    1    4    4  501    0  0.53987937067E+03 -0.52910060119E+03  0.11094598018E+03  0.76401975863E+03  0.00000000000E+00 0.  1.
         13    1    3    3    0    0 -0.98030390691E+02 -0.71511458993E+02 -0.33890471691E+03  0.35997258864E+03  0.10566000000E+00 0. -1.
         -4    1    3    3    0  503 -0.27908813794E+03  0.31848271695E+03  0.62093386377E+03  0.75158518673E+03  0.00000000000E+00 0. -1.
<mgrwt>
<rscale>  2 0.10926780E+04</rscale>
<asrwt>0</asrwt>
<pdfrwt beam="1">  1       21 0.19423908E+00 0.10985725E+04</pdfrwt>
<pdfrwt beam="2">  1       21 0.14585476E+00 0.10985725E+04</pdfrwt>
<totfact> 0.21584386E+01</totfact>
</mgrwt>
</event>
<event>
 8    1  0.5815007E-006  0.1274854E+04  0.7818608E-02  0.8552380E-01
         21   -1    0    0  501  502  0.00000000000E+00  0.00000000000E+00  0.12838064956E+04  0.12838064956E+04  0.00000000000E+00 0.  1.
         21   -1    0    0  502  503 -0.00000000000E+00 -0.00000000000E+00 -0.15045003508E+04  0.15045003508E+04  0.00000000000E+00 0.  1.
   -9000010    2    1    2    0  503 -0.70622123673E+03  0.35522849439E+03 -0.66642728462E+03  0.14377765355E+04  0.99906972823E+03 0.  0.
    9000010    2    1    2  501    0  0.70622123673E+03 -0.35522849439E+03  0.44573342940E+03  0.13505303108E+04  0.10001590433E+04 0.  0.
        -13    1    4    4    0    0  0.38077787512E+03 -0.32736008958E+03 -0.26539758605E+03  0.56797210166E+03  0.10566000000E+00 0.  1.
          4    1    4    4  501    0  0.32544336162E+03 -0.27868404814E+02  0.71113101545E+03  0.78255820917E+03  0.00000000000E+00 0.  1.
         13    1    3    3    0    0  0.22644981796E+03  0.10600755891E+03  0.23580686120E+02  0.25114374872E+03  0.10566000000E+00 0. -1.
         -4    1    3    3    0  503 -0.93267105469E+03  0.24922093548E+03 -0.69000797074E+03  0.11866327868E+04  0.00000000000E+00 0. -1.
<mgrwt>
<rscale>  2 0.12746408E+04</rscale>
<asrwt>0</asrwt>
<pdfrwt beam="1">  1       21 0.19750869E+00 0.12748544E+04</pdfrwt>
<pdfrwt beam="2">  1       21 0.23146159E+00 0.12748544E+04</pdfrwt>
<totfact> 0.39781769E+00</totfact>
</mgrwt>
</event>
<event>
 8    1  0.5815007E-006  0.1046980E+04  0.7818608E-02  0.8732087E-01
         21   -1    0    0  501  502  0.00000000000E+00  0.00000000000E+00  0.48775337653E+03  0.48775337653E+03  0.00000000000E+00 0. -1.
         21   -1    0    0  502  503 -0.00000000000E+00 -0.00000000000E+00 -0.22436254137E+04  0.22436254137E+04  0.00000000000E+00 0. -1.
   -9000010    2    1    2    0  503  0.27628954063E+03  0.16165325937E+03 -0.89619842733E+03  0.13781648929E+04  0.99684460395E+03 0.  0.
    9000010    2    1    2  501    0 -0.27628954063E+03 -0.16165325937E+03 -0.85967360983E+03  0.13532138973E+04  0.99482734675E+03 0.  0.
        -13    1    4    4    0    0  0.37048877485E+03 -0.91692429513E+00 -0.22833026945E+03  0.43519822627E+03  0.10566000000E+00 0.  1.
          4    1    4    4  501    0 -0.64677831548E+03 -0.16073633507E+03 -0.63134334039E+03  0.91801567102E+03  0.00000000000E+00 0.  1.
         13    1    3    3    0    0 -0.10028509534E+03  0.25314334002E+03  0.11475665271E+03  0.29547885110E+03  0.10566000000E+00 0. -1.
         -4    1    3    3    0  503  0.37657463598E+03 -0.91490080651E+02 -0.10109550800E+04  0.10826860418E+04  0.00000000000E+00 0. -1.
<mgrwt>
<rscale>  2 0.10464994E+04</rscale>
<asrwt>0</asrwt>
<pdfrwt beam="1">  1       21 0.75038981E-01 0.10469799E+04</pdfrwt>
<pdfrwt beam="2">  1       21 0.34517314E+00 0.10469799E+04</pdfrwt>
<totfact> 0.10423686E+01</totfact>
</mgrwt>
</event>
<event>
 8    1  0.5815007E-006  0.1939293E+04  0.7818608E-02  0.8210713E-01
         21   -1    0    0  501  502  0.00000000000E+00  0.00000000000E+00  0.17520551275E+04  0.17520551275E+04  0.00000000000E+00 0.  1.
         21   -1    0    0  502  503 -0.00000000000E+00 -0.00000000000E+00 -0.19791736595E+04  0.19791736595E+04  0.00000000000E+00 0. -1.
   -9000010    2    1    2    0  503  0.13433482296E+04 -0.63858396743E+03 -0.61758285478E+02  0.17848990223E+04  0.98472152643E+03 0.  0.
    9000010    2    1    2  501    0 -0.13433482296E+04  0.63858396743E+03 -0.16536024657E+03  0.19463297647E+04  0.12443800032E+04 0.  0.
        -13    1    4    4    0    0 -0.12305137205E+04  0.42405402486E+03  0.37467650042E+03  0.13543885423E+04  0.10566000000E+00 0.  1.
          4    1    4    4  501    0 -0.11283450909E+03  0.21452994257E+03 -0.54003674699E+03  0.59194122242E+03  0.00000000000E+00 0.  1.
         13    1    3    3    0    0 -0.29911164848E+02  0.76972423801E+02 -0.21356270434E+03  0.22897264390E+03  0.10566000000E+00 0. -1.
         -4    1    3    3    0  503  0.13732593944E+04 -0.71555639123E+03  0.15180441886E+03  0.15559263784E+04  0.00000000000E+00 0. -1.
<mgrwt>
<rscale>  2 0.18992008E+04</rscale>
<asrwt>0</asrwt>
<pdfrwt beam="1">  1       21 0.26954694E+00 0.19392925E+04</pdfrwt>
<pdfrwt beam="2">  1       21 0.30448826E+00 0.19392925E+04</pdfrwt>
<totfact> 0.30489808E-01</totfact>
</mgrwt>
</event>
<event>
 8    1  0.5815007E-006  0.1089887E+04  0.7818608E-02  0.8701955E-01
         21   -1    0    0  503  502  0.00000000000E+00  0.00000000000E+00  0.18674552959E+04  0.18674552959E+04  0.00000000000E+00 0.  1.
         21   -1    0    0  501  503 -0.00000000000E+00 -0.00000000000E+00 -0.63632046586E+03  0.63632046586E+03  0.00000000000E+00 0.  1.
    9000010    2    1    2  501    0 -0.20185076857E+03 -0.22901760881E+03  0.83026818500E+03  0.13425056948E+04  0.10098432966E+04 0.  0.
   -9000010    2    1    2    0  502  0.20185076857E+03  0.22901760881E+03  0.40086664503E+03  0.11612700669E+04  0.10462606288E+04 0.  0.
        -13    1    3    3    0    0 -0.45799628096E+03  0.10745805596E+02  0.18881005847E+02  0.45851125314E+03  0.10566000000E+00 0.  1.
          4    1    3    3  501    0  0.25614551240E+03 -0.23976341441E+03  0.81138717915E+03  0.88399444167E+03  0.00000000000E+00 0.  1.
         13    1    4    4    0    0  0.59258499500E+03  0.79118383082E+02  0.24373299759E+02  0.59834000680E+03  0.10566000000E+00 0. -1.
         -4    1    4    4    0  502 -0.39073422643E+03  0.14989922573E+03  0.37649334527E+03  0.56293006014E+03  0.00000000000E+00 0. -1.
<mgrwt>
<rscale>  2 0.10810528E+04</rscale>
<asrwt>0</asrwt>
<pdfrwt beam="1">  1       21 0.28730081E+00 0.10898872E+04</pdfrwt>
<pdfrwt beam="2">  1       21 0.97895456E-01 0.10898872E+04</pdfrwt>
<totfact> 0.13556766E+01</totfact>
</mgrwt>
</event>
<event>
 8    1  0.5815007E-006  0.1140888E+04  0.7818608E-02  0.8660789E-01
         21   -1    0    0  501  502  0.00000000000E+00  0.00000000000E+00  0.22093024137E+04  0.22093024137E+04  0.00000000000E+00 0.  1.
         21   -1    0    0  502  503 -0.00000000000E+00 -0.00000000000E+00 -0.59163680027E+03  0.59163680027E+03  0.00000000000E+00 0.  1.
   -9000010    2    1    2    0  503  0.50858712991E+03 -0.12492899028E+03  0.11013532915E+04  0.15857501785E+04  0.10135859285E+04 0.  0.
    9000010    2    1    2  501    0 -0.50858712991E+03  0.12492899028E+03  0.51631232191E+03  0.12151890355E+04  0.96738712876E+03 0.  0.
        -13    1    4    4    0    0 -0.12012573048E+02  0.45018950058E+03  0.41614318721E+03  0.61318027673E+03  0.10566000000E+00 0.  1.
          4    1    4    4  501    0 -0.49657455687E+03 -0.32526051029E+03  0.10016913470E+03  0.60200875876E+03  0.00000000000E+00 0.  1.
         13    1    3    3    0    0  0.99619986989E+02  0.12102002527E+03  0.10973687059E+04  0.11085071385E+04  0.10566000000E+00 0. -1.
         -4    1    3    3    0  503  0.40896714293E+03 -0.24594901555E+03  0.39845856043E+01  0.47724303993E+03  0.00000000000E+00 0. -1.
<mgrwt>
<rscale>  2 0.11305378E+04</rscale>
<asrwt>0</asrwt>
<pdfrwt beam="1">  1       21 0.33989268E+00 0.11408876E+04</pdfrwt>
<pdfrwt beam="2">  1       21 0.91021047E-01 0.11408876E+04</pdfrwt>
<totfact> 0.68836969E+00</totfact>
</mgrwt>
</event>
<event>
 8    1  0.5815007E-006  0.1055008E+04  0.7818608E-02  0.8727687E-01
         21   -1    0    0  503  502  0.00000000000E+00  0.00000000000E+00  0.28800077397E+04  0.28800077397E+04  0.00000000000E+00 0. -1.
         21   -1    0    0  501  503 -0.00000000000E+00 -0.00000000000E+00 -0.38313452472E+03  0.38313452472E+03  0.00000000000E+00 0. -1.
    9000010    2    1    2  501    0  0.21962990851E+03  0.16688720333E+03  0.11276693409E+04  0.15346282229E+04  0.10036717615E+04 0.  0.
   -9000010    2    1    2    0  502 -0.21962990851E+03 -0.16688720333E+03  0.13692038741E+04  0.17285140415E+04  0.10183088469E+04 0.  0.
        -13    1    3    3    0    0  0.16277204816E+03  0.38671351496E+03  0.12195312937E+04  0.12896893694E+04  0.10566000000E+00 0.  1.
          4    1    3    3  501    0  0.56857860346E+02 -0.21982631162E+03 -0.91861952747E+02  0.24493885345E+03  0.00000000000E+00 0.  1.
         13    1    4    4    0    0 -0.48050837957E+03 -0.10297445579E+02  0.20034746427E+03  0.52070477032E+03  0.10566000000E+00 0. -1.
         -4    1    4    4    0  502  0.26087847107E+03 -0.15658975775E+03  0.11688564098E+04  0.12078092712E+04  0.00000000000E+00 0. -1.
<mgrwt>
<rscale>  2 0.10514598E+04</rscale>
<asrwt>0</asrwt>
<pdfrwt beam="1">  1       21 0.44307810E+00 0.10550078E+04</pdfrwt>
<pdfrwt beam="2">  1       21 0.58943775E-01 0.10550078E+04</pdfrwt>
<totfact> 0.38147612E+00</totfact>
</mgrwt>
</event>
<event>
 8    1  0.5815007E-006  0.1234973E+04  0.7818608E-02  0.8596106E-01
         21   -1    0    0  501  502  0.00000000000E+00  0.00000000000E+00  0.29736836067E+04  0.29736836067E+04  0.00000000000E+00 0.  1.
         21   -1    0    0  502  503 -0.00000000000E+00 -0.00000000000E+00 -0.53345213875E+03  0.53345213875E+03  0.00000000000E+00 0.  1.
   -9000010    2    1    2    0  503 -0.70253248607E+03 -0.76516040574E+02  0.62494303052E+03  0.13115876990E+04  0.91120903332E+03 0.  0.
    9000010    2    1    2  501    0  0.70253248607E+03  0.76516040574E+02  0.18152884374E+04  0.21955480464E+04  0.10127944089E+04 0.  0.
        -13    1    4    4    0    0  0.41991530240E+03 -0.56257187865E+02  0.78456016136E+02  0.43087015446E+03  0.10566000000E+00 0.  1.
          4    1    4    4  501    0  0.28261718368E+03  0.13277322844E+03  0.17368324213E+04  0.17646778920E+04  0.00000000000E+00 0.  1.
         13    1    3    3    0    0  0.16380229691E+03 -0.89289652691E+02  0.36014824450E+03  0.40559906772E+03  0.10566000000E+00 0. -1.
         -4    1    3    3    0  503 -0.86633478298E+03  0.12773612117E+02  0.26479478602E+03  0.90598863131E+03  0.00000000000E+00 0. -1.
<mgrwt>
<rscale>  2 0.12139834E+04</rscale>
<asrwt>0</asrwt>
<pdfrwt beam="1">  1       21 0.45748978E+00 0.12349733E+04</pdfrwt>
<pdfrwt beam="2">  1       21 0.82069562E-01 0.12349733E+04</pdfrwt>
<totfact> 0.13333602E+00</totfact>
</mgrwt>
</event>
<event>
 8    1  0.5815007E-006  0.1090500E+04  0.7818608E-02  0.8695618E-01
         21   -1    0    0  501  502  0.00000000000E+00  0.00000000000E+00  0.80447094859E+03  0.80447094859E+03  0.00000000000E+00 0.  1.
         21   -1    0    0  502  503 -0.00000000000E+00 -0.00000000000E+00 -0.15438686840E+04  0.15438686840E+04  0.00000000000E+00 0.  1.
   -9000010    2    1    2    0  503 -0.28316411636E+03 -0.32404016446E+03 -0.63228839157E+03  0.12605468197E+04  0.10020008631E+04 0.  0.
    9000010    2    1    2  501    0  0.28316411636E+03  0.32404016446E+03 -0.10710934388E+03  0.10877928129E+04  0.99329595151E+03 0.  0.
        -13    1    4    4    0    0 -0.16141278617E+03  0.37524604087E+03  0.28068726658E+03  0.49562993403E+03  0.10566000000E+00 0.  1.
          4    1    4    4  501    0  0.44457690252E+03 -0.51205876411E+02 -0.38779661045E+03  0.59216287887E+03  0.00000000000E+00 0.  1.
         13    1    3    3    0    0 -0.48446470085E+03  0.19129926361E+03 -0.19813230218E+03  0.55727719759E+03  0.10566000000E+00 0. -1.
         -4    1    3    3    0  503  0.20130058449E+03 -0.51533942807E+03 -0.43415608940E+03  0.70326962212E+03  0.00000000000E+00 0. -1.
<mgrwt>
<rscale>  2 0.10884960E+04</rscale>
<asrwt>0</asrwt>
<pdfrwt beam="1">  1       21 0.12376476E+00 0.10904997E+04</pdfrwt>
<pdfrwt beam="2">  1       21 0.23751826E+00 0.10904997E+04</pdfrwt>
<totfact> 0.16403807E+01</totfact>
</mgrwt>
</event>
<event>
 8    1  0.5815007E-006  0.1046139E+04  0.7818608E-02  0.8735259E-01
         21   -1    0    0  503  502  0.00000000000E+00  0.00000000000E+00  0.77509550819E+03  0.77509550819E+03  0.00000000000E+00 0. -1.
         21   -1    0    0  501  503 -0.00000000000E+00 -0.00000000000E+00 -0.13992211505E+04  0.13992211505E+04  0.00000000000E+00 0. -1.
    9000010    2    1    2  501    0 -0.31750715020E+03 -0.38745599995E+02 -0.24922265421E+03  0.10630296384E+04  0.98265358535E+03 0.  0.
   -9000010    2    1    2    0  502  0.31750715020E+03  0.38745599995E+02 -0.37490298808E+03  0.11112870203E+04  0.99603944652E+03 0.  0.
        -13    1    3    3    0    0 -0.63529206709E+03 -0.21310217969E+03 -0.14113221318E+03  0.68478234663E+03  0.10566000000E+00 0.  1.
          4    1    3    3  501    0  0.31778491690E+03  0.17435657969E+03 -0.10809044104E+03  0.37824729177E+03  0.00000000000E+00 0.  1.
         13    1    4    4    0    0  0.66073159331E+03 -0.13100812927E+02 -0.99760828830E+02  0.66834878905E+03  0.10566000000E+00 0. -1.
         -4    1    4    4    0  502 -0.34322444311E+03  0.51846412923E+02 -0.27514215925E+03  0.44293823122E+03  0.00000000000E+00 0. -1.
<mgrwt>
<rscale>  2 0.10429401E+04</rscale>
<asrwt>0</asrwt>
<pdfrwt beam="1">  1       21 0.11924546E+00 0.10461389E+04</pdfrwt>
<pdfrwt beam="2">  1       21 0.21526479E+00 0.10461389E+04</pdfrwt>
<totfact> 0.26974210E+01</totfact>
</mgrwt>
</event>
<event>
 8    1  0.5815007E-006  0.1164673E+04  0.7818608E-02  0.8635602E-01
         21   -1    0    0  503  502  0.00000000000E+00  0.00000000000E+00  0.71663563458E+03  0.71663563458E+03  0.00000000000E+00 0.  1.
         21   -1    0    0  501  503 -0.00000000000E+00 -0.00000000000E+00 -0.18842327553E+04  0.18842327553E+04  0.00000000000E+00 0.  1.
    9000010    2    1    2  501    0 -0.47680175846E+03  0.39933833734E+03 -0.66864025603E+03  0.13429604696E+04  0.98470909729E+03 0.  0.
   -9000010    2    1    2    0  502  0.47680175846E+03 -0.39933833734E+03 -0.49895686471E+03  0.12579079203E+04  0.97291487740E+03 0.  0.
        -13    1    3    3    0    0 -0.66168002125E+03 -0.46387814985E+02 -0.50414143723E+03  0.83314517330E+03  0.10566000000E+00 0.  1.
          4    1    3    3  501    0  0.18487826279E+03  0.44572615232E+03 -0.16449881880E+03  0.50981529626E+03  0.00000000000E+00 0.  1.
         13    1    4    4    0    0 -0.73282624460E+02 -0.61988409548E+01  0.24312032176E+03  0.25400053286E+03  0.10566000000E+00 0. -1.
         -4    1    4    4    0  502  0.55008438292E+03 -0.39313949638E+03 -0.74207718647E+03  0.10039073875E+04  0.00000000000E+00 0. -1.
<mgrwt>
<rscale>  2 0.11621763E+04</rscale>
<asrwt>0</asrwt>
<pdfrwt beam="1">  1       21 0.11025164E+00 0.11646729E+04</pdfrwt>
<pdfrwt beam="2">  1       21 0.28988196E+00 0.11646729E+04</pdfrwt>
<totfact> 0.93280045E+00</totfact>
</mgrwt>
</event>
<event>
 8    1  0.5815007E-006  0.1525123E+04  0.7818608E-02  0.8396204E-01
         21   -1    0    0  503  502  0.00000000000E+00  0.00000000000E+00  0.17800063292E+04  0.17800063292E+04  0.00000000000E+00 0. -1.
         21   -1    0    0  501  503 -0.00000000000E+00 -0.00000000000E+00 -0.14012750525E+04  0.14012750525E+04  0.00000000000E+00 0.  1.
    9000010    2    1    2  501    0 -0.11522195283E+04 -0.52713290056E+02 -0.23663550121E+03  0.15433715365E+04  0.99780299009E+03 0.  0.
   -9000010    2    1    2    0  502  0.11522195283E+04  0.52713290056E+02  0.61536677798E+03  0.16379098452E+04  0.98675420301E+03 0.  0.
        -13    1    3    3    0    0 -0.17712562986E+03 -0.10964198962E+03 -0.49157730539E+03  0.53389429008E+03  0.10566000000E+00 0.  1.
          4    1    3    3  501    0 -0.97509389841E+03  0.56928699561E+02  0.25494180419E+03  0.10094772464E+04  0.00000000000E+00 0.  1.
         13    1    4    4    0    0  0.89768812224E+03 -0.36886278731E+03  0.60831385805E+03  0.11454036327E+04  0.10566000000E+00 0. -1.
         -4    1    4    4    0  502  0.25453140604E+03  0.42157607737E+03  0.70529199352E+01  0.49250621250E+03  0.00000000000E+00 0. -1.
<mgrwt>
<rscale>  2 0.15233181E+04</rscale>
<asrwt>0</asrwt>
<pdfrwt beam="1">  1       21 0.27384713E+00 0.15251227E+04</pdfrwt>
<pdfrwt beam="2">  1       21 0.21558078E+00 0.15251227E+04</pdfrwt>
<totfact> 0.13490996E+00</totfact>
</mgrwt>
</event>
<event>
 8    1  0.5815007E-006  0.1009278E+04  0.7818608E-02  0.8779436E-01
         21   -1    0    0  501  502  0.00000000000E+00  0.00000000000E+00  0.16083331237E+04  0.16083331237E+04  0.00000000000E+00 0.  1.
         21   -1    0    0  502  503 -0.00000000000E+00 -0.00000000000E+00 -0.60557358056E+03  0.60557358056E+03  0.00000000000E+00 0.  1.
   -9000010    2    1    2    0  503 -0.77187704695E+02 -0.14948535077E+03  0.36690517294E+03  0.10210305654E+04  0.93785936989E+03 0.  0.
    9000010    2    1    2  501    0  0.77187704695E+02  0.14948535077E+03  0.63585437021E+03  0.11928761389E+04  0.99515772154E+03 0.  0.
        -13    1    4    4    0    0  0.13779196144E+03  0.38412531734E+03  0.80144638664E+03  0.89936377839E+03  0.10566000000E+00 0.  1.
          4    1    4    4  501    0 -0.60604256748E+02 -0.23463996657E+03 -0.16559201643E+03  0.29351236048E+03  0.00000000000E+00 0.  1.
         13    1    3    3    0    0 -0.34193405043E+03 -0.41755491468E+03  0.75981886556E+02  0.54501766931E+03  0.10566000000E+00 0. -1.
         -4    1    3    3    0  503  0.26474634574E+03  0.26806956391E+03  0.29092328638E+03  0.47601289608E+03  0.00000000000E+00 0. -1.
<mgrwt>
<rscale>  2 0.99486007E+03</rscale>
<asrwt>0</asrwt>
<pdfrwt beam="1">  1       21 0.24743586E+00 0.10092783E+04</pdfrwt>
<pdfrwt beam="2">  1       21 0.93165167E-01 0.10092783E+04</pdfrwt>
<totfact> 0.30295770E+01</totfact>
</mgrwt>
</event>
<event>
 8    1  0.5815007E-006  0.1233206E+04  0.7818608E-02  0.8609390E-01
         21   -1    0    0  503  502  0.00000000000E+00  0.00000000000E+00  0.16677586261E+04  0.16677586261E+04  0.00000000000E+00 0. -1.
         21   -1    0    0  501  503 -0.00000000000E+00 -0.00000000000E+00 -0.96872130945E+03  0.96872130945E+03  0.00000000000E+00 0. -1.
    9000010    2    1    2  501    0 -0.30539604995E+03  0.56846732972E+03 -0.16483052966E+03  0.12441726854E+04  0.10508923423E+04 0.  0.
   -9000010    2    1    2    0  502  0.30539604995E+03 -0.56846732972E+03  0.86386784630E+03  0.13923072502E+04  0.88081210865E+03 0.  0.
        -13    1    3    3    0    0 -0.53314490737E+03  0.46852148620E+03  0.25668790749E+03  0.75474801643E+03  0.10566000000E+00 0.  1.
          4    1    3    3  501    0  0.22774885742E+03  0.99945843521E+02 -0.42151843715E+03  0.48942466893E+03  0.00000000000E+00 0.  1.
         13    1    4    4    0    0  0.57636120545E+03 -0.27408849984E+03  0.73172945085E+03  0.97095043401E+03  0.10566000000E+00 0. -1.
         -4    1    4    4    0  502 -0.27096515550E+03 -0.29437882988E+03  0.13213839545E+03  0.42135681617E+03  0.00000000000E+00 0. -1.
<mgrwt>
<rscale>  2 0.11962520E+04</rscale>
<asrwt>0</asrwt>
<pdfrwt beam="1">  1       21 0.25657825E+00 0.12332058E+04</pdfrwt>
<pdfrwt beam="2">  1       21 0.14903405E+00 0.12332058E+04</pdfrwt>
<totfact> 0.66752983E+00</totfact>
</mgrwt>
</event>
<event>
 8    1  0.5815007E-006  0.1213795E+04  0.7818608E-02  0.8601162E-01
         21   -1    0    0  501  502  0.00000000000E+00  0.00000000000E+00  0.26858294957E+04  0.26858294957E+04  0.00000000000E+00 0. -1.
         21   -1    0    0  502  503 -0.00000000000E+00 -0.00000000000E+00 -0.63541519261E+03  0.63541519261E+03  0.00000000000E+00 0.  1.
   -9000010    2    1    2    0  503 -0.52521071061E+03  0.39703612207E+03  0.36152514815E+03  0.12414261674E+04  0.98841009886E+03 0.  0.
    9000010    2    1    2  501    0  0.52521071061E+03 -0.39703612207E+03  0.16888891549E+04  0.20798185209E+04  0.10197129643E+04 0.  0.
        -13    1    4    4    0    0 -0.12023701267E+02 -0.39020478771E+03  0.10063887040E+03  0.40315324523E+03  0.10566000000E+00 0.  1.
          4    1    4    4  501    0  0.53723441188E+03 -0.68313343666E+01  0.15882502845E+04  0.16766652757E+04  0.00000000000E+00 0.  1.
         13    1    3    3    0    0 -0.59323102610E+03  0.56766431923E+03  0.54206463206E+03  0.98386986240E+03  0.10566000000E+00 0. -1.
         -4    1    3    3    0  503  0.68020315482E+02 -0.17062819715E+03 -0.18053948391E+03  0.25755630497E+03  0.00000000000E+00 0. -1.
<mgrwt>
<rscale>  2 0.12071974E+04</rscale>
<asrwt>0</asrwt>
<pdfrwt beam="1">  1       21 0.41320453E+00 0.12137951E+04</pdfrwt>
<pdfrwt beam="2">  1       21 0.97756185E-01 0.12137951E+04</pdfrwt>
<totfact> 0.17358959E+00</totfact>
</mgrwt>
</event>
<event>
 8    1  0.5815007E-006  0.1088543E+04  0.7818608E-02  0.8705246E-01
         21   -1    0    0  501  502  0.00000000000E+00  0.00000000000E+00  0.98279603707E+03  0.98279603707E+03  0.00000000000E+00 0.  1.
         21   -1    0    0  502  503 -0.00000000000E+00 -0.00000000000E+00 -0.12813966378E+04  0.12813966378E+04  0.00000000000E+00 0.  1.
   -9000010    2    1    2    0  503 -0.16734126090E+03 -0.38029551891E+03 -0.49949595033E+03  0.11572665701E+04  0.95767527408E+03 0.  0.
    9000010    2    1    2  501    0  0.16734126090E+03  0.38029551891E+03  0.20089534959E+03  0.11069261048E+04  0.10061305485E+04 0.  0.
        -13    1    4    4    0    0  0.48286745280E+03  0.63847349476E+02  0.38774439248E+03  0.62256179298E+03  0.10566000000E+00 0.  1.
          4    1    4    4  501    0 -0.31552619190E+03  0.31644816944E+03 -0.18684904289E+03  0.48436431180E+03  0.00000000000E+00 0.  1.
         13    1    3    3    0    0  0.12148627458E+02 -0.69520498718E+02 -0.72826027321E+03  0.73167187016E+03  0.10566000000E+00 0. -1.
         -4    1    3    3    0  503 -0.17948988836E+03 -0.31077502019E+03  0.22876432287E+03  0.42559469994E+03  0.00000000000E+00 0. -1.
<mgrwt>
<rscale>  2 0.10772118E+04</rscale>
<asrwt>0</asrwt>
<pdfrwt beam="1">  1       21 0.15119939E+00 0.10885433E+04</pdfrwt>
<pdfrwt beam="2">  1       21 0.19713794E+00 0.10885433E+04</pdfrwt>
<totfact> 0.18374830E+01</totfact>
</mgrwt>
</event>
<event>
 8    1  0.5815007E-006  0.1075938E+04  0.7818608E-02  0.8708552E-01
         21   -1    0    0  501  502  0.00000000000E+00  0.00000000000E+00  0.13823603969E+04  0.13823603969E+04  0.00000000000E+00 0.  1.
         21   -1    0    0  502  503 -0.00000000000E+00 -0.00000000000E+00 -0.84460986510E+03  0.84460986510E+03  0.00000000000E+00 0.  1.
   -9000010    2    1    2    0  503 -0.23824858670E+03 -0.27703322584E+03  0.41659108717E+03  0.11442319711E+04  0.10011038271E+04 0.  0.
    9000010    2    1    2  501    0  0.23824858670E+03  0.27703322584E+03  0.12115944460E+03  0.10827382908E+04  0.10119944655E+04 0.  0.
        -13    1    4    4    0    0  0.44953716168E+03 -0.18883274783E+03  0.26015472777E+03  0.55264994339E+03  0.10566000000E+00 0.  1.
          4    1    4    4  501    0 -0.21128857498E+03  0.46586597367E+03 -0.13899528316E+03  0.53008834743E+03  0.00000000000E+00 0.  1.
         13    1    3    3    0    0 -0.63363473795E+03 -0.16672193348E+03  0.25333982149E+03  0.70247438427E+03  0.10566000000E+00 0. -1.
         -4    1    3    3    0  503  0.39538615124E+03 -0.11031129236E+03  0.16325126567E+03  0.44175758688E+03  0.00000000000E+00 0. -1.
<mgrwt>
<rscale>  2 0.10733696E+04</rscale>
<asrwt>0</asrwt>
<pdfrwt beam="1">  1       21 0.21267083E+00 0.10759380E+04</pdfrwt>
<pdfrwt beam="2">  1       21 0.12993998E+00 0.10759380E+04</pdfrwt>
<totfact> 0.21973718E+01</totfact>
</mgrwt>
</event>
<event>
 8    1  0.5815007E-006  0.1194637E+04  0.7818608E-02  0.8620218E-01
         21   -1    0    0  501  502  0.00000000000E+00  0.00000000000E+00  0.30080570000E+04  0.30080570000E+04  0.00000000000E+00 0. -1.
         21   -1    0    0  502  503 -0.00000000000E+00 -0.00000000000E+00 -0.46974954905E+03  0.46974954905E+03  0.00000000000E+00 0. -1.
   -9000010    2    1    2    0  503 -0.56582682408E+03  0.26585717426E+03  0.98652299810E+03  0.15493177252E+04  0.10179969332E+04 0.  0.
    9000010    2    1    2  501    0  0.56582682408E+03 -0.26585717426E+03  0.15517844528E+04  0.19284888238E+04  0.95926749323E+03 0.  0.
        -13    1    4    4    0    0  0.77871147097E+03 -0.92208033368E+02  0.76654660306E+03  0.10965799480E+04  0.10566000000E+00 0.  1.
          4    1    4    4  501    0 -0.21288464689E+03 -0.17364914090E+03  0.78523784976E+03  0.83190887585E+03  0.00000000000E+00 0.  1.
         13    1    3    3    0    0 -0.77848480785E+02 -0.20632065391E+03  0.82142481441E+03  0.85051004408E+03  0.10566000000E+00 0. -1.
         -4    1    3    3    0  503 -0.48797834329E+03  0.47217782818E+03  0.16509818369E+03  0.69880768113E+03  0.00000000000E+00 0. -1.
<mgrwt>
<rscale>  2 0.11820307E+04</rscale>
<asrwt>0</asrwt>
<pdfrwt beam="1">  1       21 0.46277799E+00 0.11946371E+04</pdfrwt>
<pdfrwt beam="2">  1       21 0.72269163E-01 0.11946371E+04</pdfrwt>
<totfact> 0.16802005E+00</totfact>
</mgrwt>
</event>
<event>
 8    1  0.5815007E-006  0.1047007E+04  0.7818608E-02  0.8734331E-01
         21   -1    0    0  503  502  0.00000000000E+00  0.00000000000E+00  0.78149161335E+03  0.78149161335E+03  0.00000000000E+00 0.  1.
         21   -1    0    0  501  503 -0.00000000000E+00 -0.00000000000E+00 -0.13921948997E+04  0.13921948997E+04  0.00000000000E+00 0.  1.
    9000010    2    1    2  501    0 -0.30401760078E+03  0.83555403484E+02 -0.37583061703E+03  0.11124176277E+04  0.99840679017E+03 0.  0.
   -9000010    2    1    2    0  502  0.30401760078E+03 -0.83555403484E+02 -0.23487266929E+03  0.10612688853E+04  0.98575771323E+03 0.  0.
        -13    1    3    3    0    0 -0.33219743591E+03 -0.26873785297E+03  0.17189479491E+03  0.46056812930E+03  0.10566000000E+00 0.  1.
          4    1    3    3  501    0  0.28179835133E+02  0.35229325646E+03 -0.54772541194E+03  0.65184949838E+03  0.00000000000E+00 0.  1.
         13    1    4    4    0    0 -0.85735557023E+02  0.35826407701E+03 -0.29098288157E+03  0.46944092615E+03  0.10566000000E+00 0. -1.
         -4    1    4    4    0  502  0.38975315780E+03 -0.44181948049E+03  0.56110212281E+02  0.59182795919E+03  0.00000000000E+00 0. -1.
<mgrwt>
<rscale>  2 0.10439805E+04</rscale>
<asrwt>0</asrwt>
<pdfrwt beam="1">  1       21 0.12022948E+00 0.10470073E+04</pdfrwt>
<pdfrwt beam="2">  1       21 0.21418383E+00 0.10470073E+04</pdfrwt>
<totfact> 0.26860181E+01</totfact>
</mgrwt>
</event>
<event>
 8    1  0.5815007E-006  0.1133228E+04  0.7818608E-02  0.8658920E-01
         21   -1    0    0  503  502  0.00000000000E+00  0.00000000000E+00  0.78338227976E+03  0.78338227976E+03  0.00000000000E+00 0. -1.
         21   -1    0    0  501  503 -0.00000000000E+00 -0.00000000000E+00 -0.22850276445E+04  0.22850276445E+04  0.00000000000E+00 0. -1.
    9000010    2    1    2  501    0  0.25376934261E+03 -0.45263637550E+03  0.65765043758E+02  0.11351348405E+04  0.10074361009E+04 0.  0.
   -9000010    2    1    2    0  502 -0.25376934261E+03  0.45263637550E+03 -0.15674104085E+04  0.19332750838E+04  0.10057328638E+04 0.  0.
        -13    1    3    3    0    0 -0.30313428352E+03 -0.45675497407E+02 -0.23140493301E+03  0.38408970189E+03  0.10566000000E+00 0.  1.
          4    1    3    3  501    0  0.55690362613E+03 -0.40696087809E+03  0.29716997677E+03  0.75104513858E+03  0.00000000000E+00 0.  1.
         13    1    4    4    0    0 -0.25222761148E+03  0.58715281628E+03 -0.39093001150E+03  0.74912848212E+03  0.10566000000E+00 0. -1.
         -4    1    4    4    0  502 -0.15417311308E+01 -0.13451644078E+03 -0.11764803970E+04  0.11841466017E+04  0.00000000000E+00 0. -1.
<mgrwt>
<rscale>  2 0.11328495E+04</rscale>
<asrwt>0</asrwt>
<pdfrwt beam="1">  1       21 0.12052035E+00 0.11332282E+04</pdfrwt>
<pdfrwt beam="2">  1       21 0.35154271E+00 0.11332282E+04</pdfrwt>
<totfact> 0.27022557E+00</totfact>
</mgrwt>
</event>
<event>
 8    1  0.5815007E-006  0.1076179E+04  0.7818608E-02  0.8706562E-01
         21   -1    0    0  503  502  0.00000000000E+00  0.00000000000E+00  0.16185611439E+04  0.16185611439E+04  0.00000000000E+00 0.  1.
         21   -1    0    0  501  503 -0.00000000000E+00 -0.00000000000E+00 -0.71460259727E+03  0.71460259727E+03  0.00000000000E+00 0.  1.
    9000010    2    1    2  501    0 -0.24424029610E+03 -0.32869658931E+03  0.47918298568E+03  0.11780396982E+04  0.99522179777E+03 0.  0.
   -9000010    2    1    2    0  502  0.24424029610E+03  0.32869658931E+03  0.42477556091E+03  0.11551240429E+04  0.99306722195E+03 0.  0.
        -13    1    3    3    0    0  0.13715008959E+03 -0.24738788953E+03  0.68211323747E+03  0.73843712993E+03  0.10566000000E+00 0.  1.
          4    1    3    3  501    0 -0.38139038569E+03 -0.81308699781E+02 -0.20293025179E+03  0.43960256829E+03  0.00000000000E+00 0.  1.
         13    1    4    4    0    0 -0.21731889215E+03 -0.10385270183E+03  0.46247740396E+03  0.52143863004E+03  0.10566000000E+00 0. -1.
         -4    1    4    4    0  502  0.46155918825E+03  0.43254929114E+03 -0.37701843047E+02  0.63368541288E+03  0.00000000000E+00 0. -1.
<mgrwt>
<rscale>  2 0.10756806E+04</rscale>
<asrwt>0</asrwt>
<pdfrwt beam="1">  1       21 0.24900941E+00 0.10761790E+04</pdfrwt>
<pdfrwt beam="2">  1       21 0.10993886E+00 0.10761790E+04</pdfrwt>
<totfact> 0.18821772E+01</totfact>
</mgrwt>
</event>
<event>
 8    1  0.5815007E-006  0.1073523E+04  0.7818608E-02  0.8718513E-01
         21   -1    0    0  503  502  0.00000000000E+00  0.00000000000E+00  0.64041903695E+03  0.64041903695E+03  0.00000000000E+00 0.  1.
         21   -1    0    0  501  503 -0.00000000000E+00 -0.00000000000E+00 -0.18462425383E+04  0.18462425383E+04  0.00000000000E+00 0.  1.
    9000010    2    1    2  501    0  0.36830864301E+03 -0.18231089671E+03 -0.27032012719E+03  0.10627169379E+04  0.94202218625E+03 0.  0.
   -9000010    2    1    2    0  502 -0.36830864301E+03  0.18231089671E+03 -0.93550337420E+03  0.14239446374E+04  0.99174757251E+03 0.  0.
        -13    1    3    3    0    0 -0.22992029912E+03  0.19119688779E+03 -0.18668128705E+03  0.35251880510E+03  0.10566000000E+00 0.  1.
          4    1    3    3  501    0  0.59822894213E+03 -0.37350778449E+03 -0.83638840138E+02  0.71019813282E+03  0.00000000000E+00 0.  1.
         13    1    4    4    0    0 -0.12001572863E+03 -0.35160818933E+03 -0.69464627961E+03  0.78775983578E+03  0.10566000000E+00 0. -1.
         -4    1    4    4    0  502 -0.24829291438E+03  0.53391908603E+03 -0.24085709459E+03  0.63618480159E+03  0.00000000000E+00 0. -1.
<mgrwt>
<rscale>  2 0.10618952E+04</rscale>
<asrwt>0</asrwt>
<pdfrwt beam="1">  1       21 0.98526006E-01 0.10735231E+04</pdfrwt>
<pdfrwt beam="2">  1       21 0.28403731E+00 0.10735231E+04</pdfrwt>
<totfact> 0.14113639E+01</totfact>
</mgrwt>
</event>
<event>
 8    1  0.5815007E-006  0.1070391E+04  0.7818608E-02  0.8714390E-01
         21   -1    0    0  503  502  0.00000000000E+00  0.00000000000E+00  0.11983752622E+04  0.11983752622E+04  0.00000000000E+00 0. -1.
         21   -1    0    0  501  503 -0.00000000000E+00 -0.00000000000E+00 -0.12790834444E+04  0.12790834444E+04  0.00000000000E+00 0. -1.
    9000010    2    1    2  501    0  0.40247896959E+03  0.72783068142E+02 -0.67533922204E+03  0.12529904069E+04  0.97294151880E+03 0.  0.
   -9000010    2    1    2    0  502 -0.40247896959E+03 -0.72783068142E+02  0.59463103990E+03  0.12244682997E+04  0.98916623850E+03 0.  0.
        -13    1    3    3    0    0  0.39178961580E+03 -0.34099465698E+03 -0.65855848960E+03  0.83873461507E+03  0.10566000000E+00 0.  1.
          4    1    3    3  501    0  0.10689353795E+02  0.41377772512E+03 -0.16780732442E+02  0.41425579184E+03  0.00000000000E+00 0.  1.
         13    1    4    4    0    0  0.10259326795E+03  0.23922163574E+03 -0.12732673371E+03  0.28976624703E+03  0.10566000000E+00 0. -1.
         -4    1    4    4    0  502 -0.50507223754E+03 -0.31200470389E+03  0.72195777361E+03  0.93470205267E+03  0.00000000000E+00 0. -1.
<mgrwt>
<rscale>  2 0.10666272E+04</rscale>
<asrwt>0</asrwt>
<pdfrwt beam="1">  1       21 0.18436542E+00 0.10703908E+04</pdfrwt>
<pdfrwt beam="2">  1       21 0.19678207E+00 0.10703908E+04</pdfrwt>
<totfact> 0.97376443E+00</totfact>
</mgrwt>
</event>
<event>
 8    1  0.5815007E-006  0.1111932E+04  0.7818608E-02  0.8678816E-01
         21   -1    0    0  501  502  0.00000000000E+00  0.00000000000E+00  0.64617597163E+03  0.64617597163E+03  0.00000000000E+00 0. -1.
         21   -1    0    0  502  503 -0.00000000000E+00 -0.00000000000E+00 -0.19761793130E+04  0.19761793130E+04  0.00000000000E+00 0. -1.
   -9000010    2    1    2    0  503  0.34164750411E+03  0.33105398220E+03 -0.93460434714E+03  0.14422137305E+04  0.99003808136E+03 0.  0.
    9000010    2    1    2  501    0 -0.34164750411E+03 -0.33105398220E+03 -0.39539899423E+03  0.11801415541E+04  0.10050243614E+04 0.  0.
        -13    1    4    4    0    0 -0.29363196509E+03  0.23242281108E+03 -0.47949498045E+03  0.60840409390E+03  0.10566000000E+00 0.  1.
          4    1    4    4  501    0 -0.48015539028E+02 -0.56347679328E+03  0.84095986219E+02  0.57173746024E+03  0.00000000000E+00 0.  1.
         13    1    3    3    0    0 -0.31471586318E+03 -0.76744244615E+02 -0.23966694534E+03  0.40295906674E+03  0.10566000000E+00 0. -1.
         -4    1    3    3    0  503  0.65636336729E+03  0.40779822681E+03 -0.69493740180E+03  0.10392546638E+04  0.00000000000E+00 0. -1.
<mgrwt>
<rscale>  2 0.11085352E+04</rscale>
<asrwt>0</asrwt>
<pdfrwt beam="1">  1       21 0.99411688E-01 0.11119324E+04</pdfrwt>
<pdfrwt beam="2">  1       21 0.30402759E+00 0.11119324E+04</pdfrwt>
<totfact> 0.98668328E+00</totfact>
</mgrwt>
</event>
<event>
 8    1  0.5815007E-006  0.1401217E+04  0.7818608E-02  0.8469696E-01
         21   -1    0    0  503  502  0.00000000000E+00  0.00000000000E+00  0.13189216017E+04  0.13189216017E+04  0.00000000000E+00 0. -1.
         21   -1    0    0  501  503 -0.00000000000E+00 -0.00000000000E+00 -0.15457970701E+04  0.15457970701E+04  0.00000000000E+00 0. -1.
    9000010    2    1    2  501    0 -0.15565705066E+03 -0.97370502772E+03 -0.40413084664E+03  0.14523349455E+04  0.98672410246E+03 0.  0.
   -9000010    2    1    2    0  502  0.15565705066E+03  0.97370502772E+03  0.17725537826E+03  0.14123837263E+04  0.99552886588E+03 0.  0.
        -13    1    3    3    0    0  0.32704513742E+03 -0.65088808541E+03 -0.47154139432E+03  0.86773562757E+03  0.10566000000E+00 0.  1.
          4    1    3    3  501    0 -0.48270218808E+03 -0.32281694231E+03  0.67410547680E+02  0.58459931796E+03  0.00000000000E+00 0.  1.
         13    1    4    4    0    0  0.93926378436E+02 -0.59123891438E+02  0.34660809275E+03  0.36394364980E+03  0.10566000000E+00 0. -1.
         -4    1    4    4    0  502  0.61730672223E+02  0.10328289192E+04 -0.16935271449E+03  0.10484400765E+04  0.00000000000E+00 0. -1.
<mgrwt>
<rscale>  2 0.13996537E+04</rscale>
<asrwt>0</asrwt>
<pdfrwt beam="1">  1       21 0.20291102E+00 0.14012167E+04</pdfrwt>
<pdfrwt beam="2">  1       21 0.23781493E+00 0.14012167E+04</pdfrwt>
<totfact> 0.31591695E+00</totfact>
</mgrwt>
</event>
<event>
 8    1  0.5815007E-006  0.1209524E+04  0.7818608E-02  0.8600046E-01
         21   -1    0    0  503  502  0.00000000000E+00  0.00000000000E+00  0.15717223323E+04  0.15717223323E+04  0.00000000000E+00 0. -1.
         21   -1    0    0  501  503 -0.00000000000E+00 -0.00000000000E+00 -0.11962916864E+04  0.11962916864E+04  0.00000000000E+00 0. -1.
    9000010    2    1    2  501    0 -0.63780547431E+03 -0.24529261000E+03 -0.46762184426E+03  0.12936718923E+04  0.99395799115E+03 0.  0.
   -9000010    2    1    2    0  502  0.63780547431E+03  0.24529261000E+03  0.84305249011E+03  0.14743421264E+04  0.99798943734E+03 0.  0.
        -13    1    3    3    0    0 -0.22287062869E+03 -0.20429729115E+03  0.29632876174E+03  0.42334317817E+03  0.10566000000E+00 0.  1.
          4    1    3    3  501    0 -0.41493484562E+03 -0.40995318846E+02 -0.76395060600E+03  0.87032871416E+03  0.00000000000E+00 0.  1.
         13    1    4    4    0    0  0.55838276325E+03  0.32152253058E+03  0.10546030681E+04  0.12358623267E+04  0.10566000000E+00 0. -1.
         -4    1    4    4    0  502  0.79422711067E+02 -0.76229920584E+02 -0.21155057803E+03  0.23847979975E+03  0.00000000000E+00 0. -1.
<mgrwt>
<rscale>  2 0.12086916E+04</rscale>
<asrwt>0</asrwt>
<pdfrwt beam="1">  1       21 0.24180344E+00 0.12095235E+04</pdfrwt>
<pdfrwt beam="2">  1       21 0.18404487E+00 0.12095235E+04</pdfrwt>
<totfact> 0.43316728E+00</totfact>
</mgrwt>
</event>
<event>
 8    1  0.5815007E-006  0.1070178E+04  0.7818608E-02  0.8717580E-01
         21   -1    0    0  501  502  0.00000000000E+00  0.00000000000E+00  0.15297861426E+04  0.15297861426E+04  0.00000000000E+00 0. -1.
         21   -1    0    0  502  503 -0.00000000000E+00 -0.00000000000E+00 -0.77319419399E+03  0.77319419399E+03  0.00000000000E+00 0. -1.
   -9000010    2    1    2    0  503 -0.35837233560E+03 -0.21278503227E+03  0.65899573088E+03  0.12568038462E+04  0.98568368846E+03 0.  0.
    9000010    2    1    2  501    0  0.35837233560E+03  0.21278503227E+03  0.97596217715E+02  0.10461764903E+04  0.95459521596E+03 0.  0.
        -13    1    4    4    0    0 -0.29674917917E+03 -0.10217780712E+03  0.49029511282E+02  0.31765434634E+03  0.10566000000E+00 0.  1.
          4    1    4    4  501    0  0.65512151478E+03  0.31496283939E+03  0.48566706433E+02  0.72852214400E+03  0.00000000000E+00 0.  1.
         13    1    3    3    0    0 -0.58964262876E+03  0.17252105475E+03  0.31202827742E+03  0.68905994010E+03  0.10566000000E+00 0. -1.
         -4    1    3    3    0  503  0.23127029315E+03 -0.38530608702E+03  0.34696745346E+03  0.56774390613E+03  0.00000000000E+00 0. -1.
<mgrwt>
<rscale>  2 0.10629643E+04</rscale>
<asrwt>0</asrwt>
<pdfrwt beam="1">  1       21 0.23535171E+00 0.10701778E+04</pdfrwt>
<pdfrwt beam="2">  1       21 0.11895295E+00 0.10701778E+04</pdfrwt>
<totfact> 0.19110511E+01</totfact>
</mgrwt>
</event>
<event>
 8    1  0.5815007E-006  0.1140769E+04  0.7818608E-02  0.8653411E-01
         21   -1    0    0  501  502  0.00000000000E+00  0.00000000000E+00  0.24676411908E+04  0.24676411908E+04  0.00000000000E+00 0. -1.
         21   -1    0    0  502  503 -0.00000000000E+00 -0.00000000000E+00 -0.12530695398E+04  0.12530695398E+04  0.00000000000E+00 0. -1.
   -9000010    2    1    2    0  503 -0.46242595182E+03  0.27848484935E+03 -0.81087483829E+03  0.13961059108E+04  0.10001010642E+04 0.  0.
    9000010    2    1    2  501    0  0.46242595182E+03 -0.27848484935E+03  0.20254464893E+04  0.23246048199E+04  0.10049689126E+04 0.  0.
        -13    1    4    4    0    0  0.47925677789E+03 -0.48792566554E+03  0.19990850789E+04  0.21128416121E+04  0.10566000000E+00 0.  1.
          4    1    4    4  501    0 -0.16830826065E+02  0.20944081618E+03  0.26361410457E+02  0.21176320774E+03  0.00000000000E+00 0.  1.
         13    1    3    3    0    0 -0.76539007346E+01  0.56832799470E+02  0.23093808780E+03  0.23795159351E+03  0.10566000000E+00 0. -1.
         -4    1    3    3    0  503 -0.45477205109E+03  0.22165204988E+03 -0.10418129261E+04  0.11581543173E+04  0.00000000000E+00 0. -1.
<mgrwt>
<rscale>  2 0.11396961E+04</rscale>
<asrwt>0</asrwt>
<pdfrwt beam="1">  1       21 0.37963711E+00 0.11407691E+04</pdfrwt>
<pdfrwt beam="2">  1       21 0.19277993E+00 0.11407691E+04</pdfrwt>
<totfact> 0.39428286E-01</totfact>
</mgrwt>
</event>
<event>
 8    1  0.5815007E-006  0.1288014E+04  0.7818608E-02  0.8544634E-01
         21   -1    0    0  503  502  0.00000000000E+00  0.00000000000E+00  0.20722838413E+04  0.20722838413E+04  0.00000000000E+00 0.  1.
         21   -1    0    0  501  503 -0.00000000000E+00 -0.00000000000E+00 -0.90283672203E+03  0.90283672203E+03  0.00000000000E+00 0.  1.
    9000010    2    1    2  501    0  0.79340909841E+03  0.18864637767E+03  0.72392746061E+02  0.12900465546E+04  0.99694230031E+03 0.  0.
   -9000010    2    1    2    0  502 -0.79340909841E+03 -0.18864637767E+03  0.10970543732E+04  0.16850740087E+04  0.98532261918E+03 0.  0.
        -13    1    3    3    0    0  0.34132139574E+02 -0.20876522539E+03 -0.29052354998E+03  0.35937705345E+03  0.10566000000E+00 0.  1.
          4    1    3    3  501    0  0.75927695883E+03  0.39741160307E+03  0.36291629605E+03  0.93066950117E+03  0.00000000000E+00 0.  1.
         13    1    4    4    0    0  0.60663258601E+02 -0.34741836416E+03  0.10833744503E+03  0.36893978351E+03  0.10566000000E+00 0. -1.
         -4    1    4    4    0  502 -0.85407235701E+03  0.15877198649E+03  0.98871692821E+03  0.13161342252E+04  0.00000000000E+00 0. -1.
<mgrwt>
<rscale>  2 0.12857647E+04</rscale>
<asrwt>0</asrwt>
<pdfrwt beam="1">  1       21 0.31881290E+00 0.12880137E+04</pdfrwt>
<pdfrwt beam="2">  1       21 0.13889796E+00 0.12880137E+04</pdfrwt>
<totfact> 0.29455627E+00</totfact>
</mgrwt>
</event>
<event>
 8    1  0.5815007E-006  0.1012032E+04  0.7818608E-02  0.8764357E-01
         21   -1    0    0  503  502  0.00000000000E+00  0.00000000000E+00  0.59681324193E+03  0.59681324193E+03  0.00000000000E+00 0.  1.
         21   -1    0    0  501  503 -0.00000000000E+00 -0.00000000000E+00 -0.17114654723E+04  0.17114654723E+04  0.00000000000E+00 0.  1.
    9000010    2    1    2  501    0 -0.14645796328E+03 -0.35679742704E+02 -0.60074402232E+03  0.11732407658E+04  0.99643240364E+03 0.  0.
   -9000010    2    1    2    0  502  0.14645796328E+03  0.35679742704E+02 -0.51390820807E+03  0.11350379485E+04  0.10007429836E+04 0.  0.
        -13    1    3    3    0    0 -0.79217535596E+02  0.43408274850E+03 -0.46654852828E+02  0.44371154701E+03  0.10566000000E+00 0.  1.
          4    1    3    3  501    0 -0.67240427680E+02 -0.46976249120E+03 -0.55408916949E+03  0.72952921875E+03  0.00000000000E+00 0.  1.
         13    1    4    4    0    0  0.34498239117E+03 -0.51051712575E+02  0.19098025926E+03  0.39760859921E+03  0.10566000000E+00 0. -1.
         -4    1    4    4    0  502 -0.19852442789E+03  0.86731455280E+02 -0.70488846734E+03  0.73742934929E+03  0.00000000000E+00 0. -1.
<mgrwt>
<rscale>  2 0.10109651E+04</rscale>
<asrwt>0</asrwt>
<pdfrwt beam="1">  1       21 0.91817422E-01 0.10120324E+04</pdfrwt>
<pdfrwt beam="2">  1       21 0.26330238E+00 0.10120324E+04</pdfrwt>
<totfact> 0.24122375E+01</totfact>
</mgrwt>
</event>
<event>
 8    1  0.5815007E-006  0.1447367E+04  0.7818608E-02  0.8442678E-01
         21   -1    0    0  501  502  0.00000000000E+00  0.00000000000E+00  0.21743072370E+04  0.21743072370E+04  0.00000000000E+00 0. -1.
         21   -1    0    0  502  503 -0.00000000000E+00 -0.00000000000E+00 -0.10820748604E+04  0.10820748604E+04  0.00000000000E+00 0.  1.
   -9000010    2    1    2    0  503  0.83179513196E+03  0.62348271790E+03 -0.12291692279E+02  0.14474191582E+04  0.10071034171E+04 0.  0.
    9000010    2    1    2  501    0 -0.83179513196E+03 -0.62348271790E+03  0.11045240689E+04  0.18089629392E+04  0.98577870515E+03 0.  0.
        -13    1    4    4    0    0 -0.86639061288E+03 -0.84270730023E+03  0.96708735625E+03  0.15479167464E+04  0.10566000000E+00 0.  1.
          4    1    4    4  501    0  0.34595480913E+02  0.21922458233E+03  0.13743671260E+03  0.26104619279E+03  0.00000000000E+00 0.  1.
         13    1    3    3    0    0 -0.21055078204E+02  0.20530523000E+03 -0.37712870861E+03  0.42990653380E+03  0.10566000000E+00 0. -1.
         -4    1    3    3    0  503  0.85285021017E+03  0.41817748791E+03  0.36483701633E+03  0.10175126244E+04  0.00000000000E+00 0. -1.
<mgrwt>
<rscale>  2 0.14436637E+04</rscale>
<asrwt>0</asrwt>
<pdfrwt beam="1">  1       21 0.33450881E+00 0.14473670E+04</pdfrwt>
<pdfrwt beam="2">  1       21 0.16647306E+00 0.14473670E+04</pdfrwt>
<totfact> 0.12599956E+00</totfact>
</mgrwt>
</event>
<event>
 8    1  0.5815007E-006  0.1262359E+04  0.7818608E-02  0.8566201E-01
         21   -1    0    0  503  502  0.00000000000E+00  0.00000000000E+00  0.39524599922E+03  0.39524599922E+03  0.00000000000E+00 0. -1.
         21   -1    0    0  501  503 -0.00000000000E+00 -0.00000000000E+00 -0.42202446644E+04  0.42202446644E+04  0.00000000000E+00 0. -1.
    9000010    2    1    2  501    0  0.71120837683E+03  0.11902734160E+03 -0.12973517356E+04  0.17901501915E+04  0.10007653665E+04 0.  0.
   -9000010    2    1    2    0  502 -0.71120837683E+03 -0.11902734160E+03 -0.25276469296E+04  0.28253404721E+04  0.10361297793E+04 0.  0.
        -13    1    3    3    0    0 -0.19820091036E+02 -0.12671797913E+03  0.12058598931E+03  0.17604338733E+03  0.10566000000E+00 0.  1.
          4    1    3    3  501    0  0.73102846786E+03  0.24574532072E+03 -0.14179377249E+04  0.16141068041E+04  0.00000000000E+00 0.  1.
         13    1    4    4    0    0 -0.76201335922E+03 -0.44919401873E+03 -0.14640825413E+04  0.17105488373E+04  0.10566000000E+00 0. -1.
         -4    1    4    4    0  502  0.50804982396E+02  0.33016667713E+03 -0.10635643883E+04  0.11147916348E+04  0.00000000000E+00 0. -1.
<mgrwt>
<rscale>  2 0.12550808E+04</rscale>
<asrwt>0</asrwt>
<pdfrwt beam="1">  1       21 0.60807082E-01 0.12623588E+04</pdfrwt>
<pdfrwt beam="2">  1       21 0.64926836E+00 0.12623588E+04</pdfrwt>
<totfact> 0.10341354E-01</totfact>
</mgrwt>
</event>
<event>
 8    1  0.5815007E-006  0.1076768E+04  0.7818608E-02  0.8706448E-01
         21   -1    0    0  501  502  0.00000000000E+00  0.00000000000E+00  0.14485687746E+04  0.14485687746E+04  0.00000000000E+00 0. -1.
         21   -1    0    0  502  503 -0.00000000000E+00 -0.00000000000E+00 -0.82805080917E+03  0.82805080917E+03  0.00000000000E+00 0. -1.
   -9000010    2    1    2    0  503  0.36127056211E+03  0.16784072901E+03  0.91313259433E+02  0.10768337021E+04  0.99626591895E+03 0.  0.
    9000010    2    1    2  501    0 -0.36127056211E+03 -0.16784072901E+03  0.52920470599E+03  0.11997858817E+04  0.10003707371E+04 0.  0.
        -13    1    4    4    0    0  0.25382481678E+03  0.22170990712E+03  0.25162733793E+03  0.42059321070E+03  0.10566000000E+00 0.  1.
          4    1    4    4  501    0 -0.61509537889E+03 -0.38955063613E+03  0.27757736806E+03  0.77919267097E+03  0.00000000000E+00 0.  1.
         13    1    3    3    0    0 -0.29833803109E+02 -0.21248674903E+03  0.39715589935E+03  0.45141277549E+03  0.10566000000E+00 0. -1.
         -4    1    3    3    0  503  0.39110436522E+03  0.38032747804E+03 -0.30584263992E+03  0.62542092661E+03  0.00000000000E+00 0. -1.
<mgrwt>
<rscale>  2 0.10758132E+04</rscale>
<asrwt>0</asrwt>
<pdfrwt beam="1">  1       21 0.22285673E+00 0.10767676E+04</pdfrwt>
<pdfrwt beam="2">  1       21 0.12739243E+00 0.10767676E+04</pdfrwt>
<totfact> 0.19475571E+01</totfact>
</mgrwt>
</event>
<event>
 8    1  0.5815007E-006  0.1442153E+04  0.7818608E-02  0.8449525E-01
         21   -1    0    0  501  502  0.00000000000E+00  0.00000000000E+00  0.68878933861E+03  0.68878933861E+03  0.00000000000E+00 0. -1.
         21   -1    0    0  502  503 -0.00000000000E+00 -0.00000000000E+00 -0.30390865389E+04  0.30390865389E+04  0.00000000000E+00 0.  1.
   -9000010    2    1    2    0  503 -0.10256870852E+04 -0.63522109903E+02 -0.15291391007E+04  0.21019206972E+04  0.10117979903E+04 0.  0.
    9000010    2    1    2  501    0  0.10256870852E+04  0.63522109903E+02 -0.82115809958E+03  0.16259551802E+04  0.95569899470E+03 0.  0.
        -13    1    4    4    0    0  0.48217260664E+03 -0.30716439493E+03  0.26292931578E+01  0.57170561695E+03  0.10566000000E+00 0.  1.
          4    1    4    4  501    0  0.54351447854E+03  0.37068650483E+03 -0.82378739274E+03  0.10542495633E+04  0.00000000000E+00 0.  1.
         13    1    3    3    0    0 -0.83890168542E+03  0.74131262908E+02 -0.16408855657E+04  0.18443852452E+04  0.10566000000E+00 0. -1.
         -4    1    3    3    0  503 -0.18678539976E+03 -0.13765337281E+03  0.11174646501E+03  0.25753545203E+03  0.00000000000E+00 0. -1.
<mgrwt>
<rscale>  2 0.14323560E+04</rscale>
<asrwt>0</asrwt>
<pdfrwt beam="1">  1       21 0.10596759E+00 0.14421526E+04</pdfrwt>
<pdfrwt beam="2">  1       21 0.46755178E+00 0.14421526E+04</pdfrwt>
<totfact> 0.56512729E-01</totfact>
</mgrwt>
</event>
<event>
 8    1  0.5815007E-006  0.1158038E+04  0.7818608E-02  0.8641814E-01
         21   -1    0    0  501  502  0.00000000000E+00  0.00000000000E+00  0.59646047505E+03  0.59646047505E+03  0.00000000000E+00 0.  1.
         21   -1    0    0  502  503 -0.00000000000E+00 -0.00000000000E+00 -0.31538944793E+04  0.31538944793E+04  0.00000000000E+00 0.  1.
   -9000010    2    1    2    0  503  0.51915314488E+03 -0.13792321808E+03 -0.25213063107E+03  0.11705340879E+04  0.10089783912E+04 0.  0.
    9000010    2    1    2  501    0 -0.51915314488E+03  0.13792321808E+03 -0.23053033731E+04  0.25798208664E+04  0.10259187388E+04 0.  0.
        -13    1    4    4    0    0 -0.73755714485E+03 -0.15177159547E+03 -0.18518575579E+04  0.19991001938E+04  0.10566000000E+00 0.  1.
          4    1    4    4  501    0  0.21840399998E+03  0.28969481354E+03 -0.45344581525E+03  0.58072067258E+03  0.00000000000E+00 0.  1.
         13    1    3    3    0    0  0.70585417433E+03  0.20058371451E+03 -0.53081835243E+02  0.73571844774E+03  0.10566000000E+00 0. -1.
         -4    1    3    3    0  503 -0.18670102945E+03 -0.33850693259E+03 -0.19904879583E+03  0.43481564016E+03  0.00000000000E+00 0. -1.
<mgrwt>
<rscale>  2 0.11542746E+04</rscale>
<asrwt>0</asrwt>
<pdfrwt beam="1">  1       21 0.91763150E-01 0.11580380E+04</pdfrwt>
<pdfrwt beam="2">  1       21 0.48521454E+00 0.11580380E+04</pdfrwt>
<totfact> 0.65349449E-01</totfact>
</mgrwt>
</event>
<event>
 8    1  0.5815007E-006  0.1132561E+04  0.7818608E-02  0.8659803E-01
         21   -1    0    0  503  502  0.00000000000E+00  0.00000000000E+00  0.18654311781E+04  0.18654311781E+04  0.00000000000E+00 0. -1.
         21   -1    0    0  501  503 -0.00000000000E+00 -0.00000000000E+00 -0.76016414756E+03  0.76016414756E+03  0.00000000000E+00 0. -1.
    9000010    2    1    2  501    0  0.39353660072E+03  0.34508233426E+03  0.14094155844E+03  0.11381082882E+04  0.10007362686E+04 0.  0.
   -9000010    2    1    2    0  502 -0.39353660072E+03 -0.34508233426E+03  0.96432547209E+03  0.14874870374E+04  0.10043610889E+04 0.  0.
        -13    1    3    3    0    0  0.30727920996E+03 -0.14000593712E+03  0.44540062341E+03  0.55893103492E+03  0.10566000000E+00 0.  1.
          4    1    3    3  501    0  0.86257390768E+02  0.48508827138E+03 -0.30445906498E+03  0.57917725330E+03  0.00000000000E+00 0.  1.
         13    1    4    4    0    0  0.30941295310E+02  0.15188821051E+03 -0.13697268976E+03  0.20685483110E+03  0.10566000000E+00 0. -1.
         -4    1    4    4    0  502 -0.42447789603E+03 -0.49697054477E+03  0.11012981619E+04  0.12806322063E+04  0.00000000000E+00 0. -1.
<mgrwt>
<rscale>  2 0.11317567E+04</rscale>
<asrwt>0</asrwt>
<pdfrwt beam="1">  1       21 0.28698941E+00 0.11325608E+04</pdfrwt>
<pdfrwt beam="2">  1       21 0.11694833E+00 0.11325608E+04</pdfrwt>
<totfact> 0.83730050E+00</totfact>
</mgrwt>
</event>
<event>
 8    1  0.5815007E-006  0.1295612E+04  0.7818608E-02  0.8541395E-01
         21   -1    0    0  501  502  0.00000000000E+00  0.00000000000E+00  0.55120661478E+03  0.55120661478E+03  0.00000000000E+00 0. -1.
         21   -1    0    0  502  503 -0.00000000000E+00 -0.00000000000E+00 -0.30060403821E+04  0.30060403821E+04  0.00000000000E+00 0. -1.
   -9000010    2    1    2    0  503 -0.53414965636E+03 -0.60095280453E+03 -0.11412521451E+04  0.17265768168E+04  0.10159482846E+04 0.  0.
    9000010    2    1    2  501    0  0.53414965636E+03  0.60095280453E+03 -0.13135816222E+04  0.18306701801E+04  0.98964463384E+03 0.  0.
        -13    1    4    4    0    0  0.51960038155E+03 -0.13670941327E+03 -0.55225935207E+03  0.77049621887E+03  0.10566000000E+00 0.  1.
          4    1    4    4  501    0  0.14549274805E+02  0.73766221780E+03 -0.76132227013E+03  0.10601739612E+04  0.00000000000E+00 0.  1.
         13    1    3    3    0    0 -0.16450019097E+03 -0.82112185194E+03 -0.57686237847E+03  0.10168931229E+04  0.10566000000E+00 0. -1.
         -4    1    3    3    0  503 -0.36964946538E+03  0.22016904741E+03 -0.56438976664E+03  0.70968369389E+03  0.00000000000E+00 0. -1.
<mgrwt>
<rscale>  2 0.12904511E+04</rscale>
<asrwt>0</asrwt>
<pdfrwt beam="1">  1       21 0.84801015E-01 0.12956122E+04</pdfrwt>
<pdfrwt beam="2">  1       21 0.46246777E+00 0.12956122E+04</pdfrwt>
<totfact> 0.11220685E+00</totfact>
</mgrwt>
</event>
<event>
 8    1  0.5815007E-006  0.1253096E+04  0.7818608E-02  0.8569097E-01
         21   -1    0    0  503  502  0.00000000000E+00  0.00000000000E+00  0.20872855073E+04  0.20872855073E+04  0.00000000000E+00 0. -1.
         21   -1    0    0  501  503 -0.00000000000E+00 -0.00000000000E+00 -0.86356030416E+03  0.86356030416E+03  0.00000000000E+00 0. -1.
    9000010    2    1    2  501    0 -0.80243962044E+02 -0.74483262083E+03  0.68859349532E+02  0.12467435989E+04  0.99418975289E+03 0.  0.
   -9000010    2    1    2    0  502  0.80243962044E+02  0.74483262083E+03  0.11548658536E+04  0.17041022126E+04  0.10045070854E+04 0.  0.
        -13    1    3    3    0    0 -0.14664682895E+03 -0.56980781886E+03 -0.42024219832E+03  0.72304201765E+03  0.10566000000E+00 0.  1.
          4    1    3    3  501    0  0.66402866903E+02 -0.17502480198E+03  0.48910154786E+03  0.52370158120E+03  0.00000000000E+00 0.  1.
         13    1    4    4    0    0  0.52973074090E+03  0.54545913292E+03  0.66753409761E+03  0.10118014164E+04  0.10566000000E+00 0. -1.
         -4    1    4    4    0  502 -0.44948677886E+03  0.19937348791E+03  0.48733175596E+03  0.69230079620E+03  0.00000000000E+00 0. -1.
<mgrwt>
<rscale>  2 0.12510269E+04</rscale>
<asrwt>0</asrwt>
<pdfrwt beam="1">  1       21 0.32112085E+00 0.12530959E+04</pdfrwt>
<pdfrwt beam="2">  1       21 0.13285543E+00 0.12530959E+04</pdfrwt>
<totfact> 0.32588714E+00</totfact>
</mgrwt>
</event>
<event>
 8    1  0.5815007E-006  0.1325338E+04  0.7818608E-02  0.8523564E-01
         21   -1    0    0  503  502  0.00000000000E+00  0.00000000000E+00  0.89676061799E+03  0.89676061799E+03  0.00000000000E+00 0. -1.
         21   -1    0    0  501  503 -0.00000000000E+00 -0.00000000000E+00 -0.19443273758E+04  0.19443273758E+04  0.00000000000E+00 0.  1.
    9000010    2    1    2  501    0  0.23714488895E+03 -0.80617929299E+03 -0.32296160895E+03  0.13306000884E+04  0.97981102444E+03 0.  0.
   -9000010    2    1    2    0  502 -0.23714488895E+03  0.80617929299E+03 -0.72460514882E+03  0.15104879054E+04  0.10248699136E+04 0.  0.
        -13    1    3    3    0    0  0.41337343717E+03 -0.72523905931E+03 -0.57422355375E+03  0.10132038258E+04  0.10566000000E+00 0.  1.
          4    1    3    3  501    0 -0.17622854822E+03 -0.80940233676E+02  0.25126194480E+03  0.31739626264E+03  0.00000000000E+00 0.  1.
         13    1    4    4    0    0  0.15173901782E+03  0.55477726833E+03  0.81443667732E+02  0.58089209769E+03  0.10566000000E+00 0. -1.
         -4    1    4    4    0  502 -0.38888390677E+03  0.25140202466E+03 -0.80604881656E+03  0.92959580766E+03  0.00000000000E+00 0. -1.
<mgrwt>
<rscale>  2 0.13166206E+04</rscale>
<asrwt>0</asrwt>
<pdfrwt beam="1">  1       21 0.13796317E+00 0.13253381E+04</pdfrwt>
<pdfrwt beam="2">  1       21 0.29912728E+00 0.13253381E+04</pdfrwt>
<totfact> 0.41088909E+00</totfact>
</mgrwt>
</event>
<event>
 8    1  0.5815007E-006  0.1294037E+04  0.7818608E-02  0.8541272E-01
         21   -1    0    0  501  502  0.00000000000E+00  0.00000000000E+00  0.14903185972E+04  0.14903185972E+04  0.00000000000E+00 0.  1.
         21   -1    0    0  502  503 -0.00000000000E+00 -0.00000000000E+00 -0.11130056083E+04  0.11130056083E+04  0.00000000000E+00 0. -1.
   -9000010    2    1    2    0  503  0.21569498242E+03 -0.78751235426E+03  0.23163843684E+03  0.13146058954E+04  0.10039084924E+04 0.  0.
    9000010    2    1    2  501    0 -0.21569498242E+03  0.78751235426E+03  0.14567455202E+03  0.12887183101E+04  0.98634363895E+03 0.  0.
        -13    1    4    4    0    0  0.24595600533E+03  0.59804359358E+02  0.32148958526E+03  0.40917781288E+03  0.10566000000E+00 0.  1.
          4    1    4    4  501    0 -0.46165098774E+03  0.72770799490E+03 -0.17581503324E+03  0.87954049721E+03  0.00000000000E+00 0.  1.
         13    1    3    3    0    0 -0.19877880829E+03 -0.67236656954E+03 -0.17501509084E+03  0.72264798598E+03  0.10566000000E+00 0. -1.
         -4    1    3    3    0  503  0.41447379071E+03 -0.11514578472E+03  0.40665352768E+03  0.59195790939E+03  0.00000000000E+00 0. -1.
<mgrwt>
<rscale>  2 0.12906291E+04</rscale>
<asrwt>0</asrwt>
<pdfrwt beam="1">  1       21 0.22927978E+00 0.12940372E+04</pdfrwt>
<pdfrwt beam="2">  1       21 0.17123163E+00 0.12940372E+04</pdfrwt>
<totfact> 0.67220703E+00</totfact>
</mgrwt>
</event>
<event>
 8    1  0.5815007E-006  0.1195905E+04  0.7818608E-02  0.8617254E-01
         21   -1    0    0  501  502  0.00000000000E+00  0.00000000000E+00  0.19931147840E+04  0.19931147840E+04  0.00000000000E+00 0.  1.
         21   -1    0    0  502  503 -0.00000000000E+00 -0.00000000000E+00 -0.77597519345E+03  0.77597519345E+03  0.00000000000E+00 0.  1.
   -9000010    2    1    2    0  503  0.11992212740E+03 -0.65049134569E+03  0.16790400299E+03  0.12076342615E+04  0.99632748019E+03 0.  0.
    9000010    2    1    2  501    0 -0.11992212740E+03  0.65049134569E+03  0.10492355876E+04  0.15614557160E+04  0.94854010320E+03 0.  0.
        -13    1    4    4    0    0  0.29145647296E+03  0.68121672445E+03  0.72642519618E+03  0.10376399559E+04  0.10566000000E+00 0.  1.
          4    1    4    4  501    0 -0.41137860036E+03 -0.30725378763E+02  0.32281039141E+03  0.52381576011E+03  0.00000000000E+00 0.  1.
         13    1    3    3    0    0 -0.34616704175E+03 -0.63515586169E+03  0.41930101831E+02  0.72457762457E+03  0.10566000000E+00 0. -1.
         -4    1    3    3    0  503  0.46608916915E+03 -0.15335484000E+02  0.12597390116E+03  0.48305663688E+03  0.00000000000E+00 0. -1.
<mgrwt>
<rscale>  2 0.11859026E+04</rscale>
<asrwt>0</asrwt>
<pdfrwt beam="1">  1       21 0.30663304E+00 0.11959050E+04</pdfrwt>
<pdfrwt beam="2">  1       21 0.11938080E+00 0.11959050E+04</pdfrwt>
<totfact> 0.56618914E+00</totfact>
</mgrwt>
</event>
<event>
 8    1  0.5815007E-006  0.1088530E+04  0.7818608E-02  0.8698300E-01
         21   -1    0    0  501  502  0.00000000000E+00  0.00000000000E+00  0.15713332513E+04  0.15713332513E+04  0.00000000000E+00 0. -1.
         21   -1    0    0  502  503 -0.00000000000E+00 -0.00000000000E+00 -0.78181668054E+03  0.78181668054E+03  0.00000000000E+00 0. -1.
   -9000010    2    1    2    0  503 -0.39986666204E+03  0.17392856405E+03  0.64685538659E+03  0.12553107793E+04  0.98348297836E+03 0.  0.
    9000010    2    1    2  501    0  0.39986666204E+03 -0.17392856405E+03  0.14266118416E+03  0.10978391525E+04  0.99737360027E+03 0.  0.
        -13    1    4    4    0    0 -0.25242999027E+03  0.54233412470E+02 -0.19991228749E+03  0.32653804813E+03  0.10566000000E+00 0.  1.
          4    1    4    4  501    0  0.65229665231E+03 -0.22816197652E+03  0.34257347165E+03  0.77130110439E+03  0.00000000000E+00 0.  1.
         13    1    3    3    0    0 -0.38244499354E+03  0.38099846783E+03 -0.36489390708E+02  0.54106884255E+03  0.10566000000E+00 0. -1.
         -4    1    3    3    0  503 -0.17421668496E+02 -0.20706990378E+03  0.68334477730E+03  0.71424193678E+03  0.00000000000E+00 0. -1.
<mgrwt>
<rscale>  2 0.10853382E+04</rscale>
<asrwt>0</asrwt>
<pdfrwt beam="1">  1       21 0.24174358E+00 0.10885305E+04</pdfrwt>
<pdfrwt beam="2">  1       21 0.12027949E+00 0.10885305E+04</pdfrwt>
<totfact> 0.16559697E+01</totfact>
</mgrwt>
</event>
<event>
 8    1  0.5815007E-006  0.1046689E+04  0.7818608E-02  0.8744411E-01
         21   -1    0    0  501  502  0.00000000000E+00  0.00000000000E+00  0.10674342625E+04  0.10674342625E+04  0.00000000000E+00 0. -1.
         21   -1    0    0  502  503 -0.00000000000E+00 -0.00000000000E+00 -0.97373472085E+03  0.97373472085E+03  0.00000000000E+00 0. -1.
   -9000010    2    1    2    0  503  0.89755411512E+02  0.22553095046E+02  0.28757390408E+02  0.99246728668E+03  0.98772448165E+03 0.  0.
    9000010    2    1    2  501    0 -0.89755411512E+02 -0.22553095046E+02  0.64942151198E+02  0.10487016966E+04  0.10425896074E+04 0.  0.
        -13    1    4    4    0    0  0.41027398962E+02  0.91251629839E+02 -0.47302487453E+03  0.48349007281E+03  0.10566000000E+00 0.  1.
          4    1    4    4  501    0 -0.13078281047E+03 -0.11380472488E+03  0.53796702573E+03  0.56521162382E+03  0.00000000000E+00 0.  1.
         13    1    3    3    0    0  0.27622047775E+03 -0.41939426226E+03 -0.56230772679E+02  0.50532287748E+03  0.10566000000E+00 0. -1.
         -4    1    3    3    0  503 -0.18646506624E+03  0.44194735730E+03  0.84988163088E+02  0.48714440920E+03  0.00000000000E+00 0. -1.
<mgrwt>
<rscale>  2 0.10327535E+04</rscale>
<asrwt>0</asrwt>
<pdfrwt beam="1">  1       21 0.16422066E+00 0.10466890E+04</pdfrwt>
<pdfrwt beam="2">  1       21 0.14980534E+00 0.10466890E+04</pdfrwt>
<totfact> 0.35430250E+01</totfact>
</mgrwt>
</event>
<event>
 8    1  0.5815007E-006  0.1233482E+04  0.7818608E-02  0.8584223E-01
         21   -1    0    0  503  502  0.00000000000E+00  0.00000000000E+00  0.16801657647E+04  0.16801657647E+04  0.00000000000E+00 0.  1.
         21   -1    0    0  501  503 -0.00000000000E+00 -0.00000000000E+00 -0.10657983481E+04  0.10657983481E+04  0.00000000000E+00 0.  1.
    9000010    2    1    2  501    0 -0.67520576208E+03  0.29461973716E+03 -0.23984606587E+03  0.12565846398E+04  0.98933068839E+03 0.  0.
   -9000010    2    1    2    0  502  0.67520576208E+03 -0.29461973716E+03  0.85421348252E+03  0.14893794730E+04  0.97255690331E+03 0.  0.
        -13    1    3    3    0    0  0.40237218505E+02  0.41619496311E+03 -0.31991517829E+03  0.52648173144E+03  0.10566000000E+00 0.  1.
          4    1    3    3  501    0 -0.71544298058E+03 -0.12157522595E+03  0.80069112420E+02  0.73010290836E+03  0.00000000000E+00 0.  1.
         13    1    4    4    0    0  0.40808299811E+03  0.13059000361E+03  0.88812872106E+03  0.98608220688E+03  0.10566000000E+00 0. -1.
         -4    1    4    4    0  502  0.26712276396E+03 -0.42520974077E+03 -0.33915238533E+02  0.50329726611E+03  0.00000000000E+00 0. -1.
<mgrwt>
<rscale>  2 0.12301155E+04</rscale>
<asrwt>0</asrwt>
<pdfrwt beam="1">  1       21 0.25848704E+00 0.12334824E+04</pdfrwt>
<pdfrwt beam="2">  1       21 0.16396898E+00 0.12334824E+04</pdfrwt>
<totfact> 0.47840723E+00</totfact>
</mgrwt>
</event>
<event>
 8    1  0.5815007E-006  0.1136786E+04  0.7818608E-02  0.8671644E-01
         21   -1    0    0  501  502  0.00000000000E+00  0.00000000000E+00  0.19791791300E+04  0.19791791300E+04  0.00000000000E+00 0. -1.
         21   -1    0    0  502  503 -0.00000000000E+00 -0.00000000000E+00 -0.61070211456E+03  0.61070211456E+03  0.00000000000E+00 0. -1.
   -9000010    2    1    2    0  503 -0.30403974927E+03  0.19731330726E+03  0.61305430548E+03  0.12249833392E+04  0.99668244166E+03 0.  0.
    9000010    2    1    2  501    0  0.30403974927E+03 -0.19731330726E+03  0.75542270993E+03  0.13648979053E+04  0.10774553870E+04 0.  0.
        -13    1    4    4    0    0 -0.72550129062E+02 -0.26247677027E+03  0.91206934572E+03  0.95185507233E+03  0.10566000000E+00 0.  1.
          4    1    4    4  501    0  0.37658987833E+03  0.65163463006E+02 -0.15664663579E+03  0.41304283298E+03  0.00000000000E+00 0.  1.
         13    1    3    3    0    0 -0.96805306614E+02  0.59601519970E+03  0.27953946851E+03  0.66539289993E+03  0.10566000000E+00 0. -1.
         -4    1    3    3    0  503 -0.20723444266E+03 -0.39870189244E+03  0.33351483697E+03  0.55959043928E+03  0.00000000000E+00 0. -1.
<mgrwt>
<rscale>  2 0.11172260E+04</rscale>
<asrwt>0</asrwt>
<pdfrwt beam="1">  1       21 0.30448909E+00 0.11367862E+04</pdfrwt>
<pdfrwt beam="2">  1       21 0.93954172E-01 0.11367862E+04</pdfrwt>
<totfact> 0.11269584E+01</totfact>
</mgrwt>
</event>
<event>
 8    1  0.5815007E-006  0.1081765E+04  0.7818608E-02  0.8746351E-01
         21   -1    0    0  503  502  0.00000000000E+00  0.00000000000E+00  0.61313763966E+03  0.61313763966E+03  0.00000000000E+00 0. -1.
         21   -1    0    0  501  503 -0.00000000000E+00 -0.00000000000E+00 -0.16144836804E+04  0.16144836804E+04  0.00000000000E+00 0.  1.
    9000010    2    1    2  501    0  0.40893194653E+03  0.15912802318E+02 -0.69241087593E+03  0.12843863079E+04  0.10013674713E+04 0.  0.
   -9000010    2    1    2    0  502 -0.40893194653E+03 -0.15912802318E+02 -0.30893516480E+03  0.94323501213E+03  0.79168983692E+03 0.  0.
        -13    1    3    3    0    0 -0.27190155326E+02  0.42330211024E+03 -0.50359425575E+03  0.65843083666E+03  0.10566000000E+00 0.  1.
          4    1    3    3  501    0  0.43612210186E+03 -0.40738930792E+03 -0.18881662018E+03  0.62595547125E+03  0.00000000000E+00 0.  1.
         13    1    4    4    0    0  0.72787718566E+02  0.46816271159E+02 -0.43323772137E+03  0.44179718152E+03  0.10566000000E+00 0. -1.
         -4    1    4    4    0  502 -0.48171966510E+03 -0.62729073477E+02  0.12430255656E+03  0.50143783061E+03  0.00000000000E+00 0. -1.
<mgrwt>
<rscale>  2 0.10306102E+04</rscale>
<asrwt>0</asrwt>
<pdfrwt beam="1">  1       21 0.94328868E-01 0.10817649E+04</pdfrwt>
<pdfrwt beam="2">  1       21 0.24838210E+00 0.10817649E+04</pdfrwt>
<totfact> 0.28436486E+01</totfact>
</mgrwt>
</event>
<event>
 8    1  0.5815007E-006  0.1179295E+04  0.7818608E-02  0.8657300E-01
         21   -1    0    0  503  502  0.00000000000E+00  0.00000000000E+00  0.76191736700E+03  0.76191736700E+03  0.00000000000E+00 0.  1.
         21   -1    0    0  501  503 -0.00000000000E+00 -0.00000000000E+00 -0.17010936606E+04  0.17010936606E+04  0.00000000000E+00 0.  1.
    9000010    2    1    2  501    0 -0.27447092886E+03 -0.46952841207E+03 -0.83780332523E+03  0.14465996228E+04  0.10463961182E+04 0.  0.
   -9000010    2    1    2    0  502  0.27447092886E+03  0.46952841207E+03 -0.10137296837E+03  0.10164114048E+04  0.85265728439E+03 0.  0.
        -13    1    3    3    0    0 -0.20758417886E+02 -0.13849155442E+03  0.24724620204E+03  0.28415052023E+03  0.10566000000E+00 0.  1.
          4    1    3    3  501    0 -0.25371251098E+03 -0.33103685765E+03 -0.10850495273E+04  0.11624491025E+04  0.00000000000E+00 0.  1.
         13    1    4    4    0    0 -0.13489144627E+03 -0.13597429324E+03 -0.20229165447E+03  0.27857967502E+03  0.10566000000E+00 0. -1.
         -4    1    4    4    0  502  0.40936237513E+03  0.60550270531E+03  0.10091868611E+03  0.73783172981E+03  0.00000000000E+00 0. -1.
<mgrwt>
<rscale>  2 0.11348578E+04</rscale>
<asrwt>0</asrwt>
<pdfrwt beam="1">  1       21 0.11721806E+00 0.11792947E+04</pdfrwt>
<pdfrwt beam="2">  1       21 0.26170672E+00 0.11792947E+04</pdfrwt>
<totfact> 0.12495744E+01</totfact>
</mgrwt>
</event>
<event>
 8    1  0.5815007E-006  0.1179194E+04  0.7818608E-02  0.8624689E-01
         21   -1    0    0  501  502  0.00000000000E+00  0.00000000000E+00  0.24884845969E+04  0.24884845969E+04  0.00000000000E+00 0.  1.
         21   -1    0    0  502  503 -0.00000000000E+00 -0.00000000000E+00 -0.57931463811E+03  0.57931463811E+03  0.00000000000E+00 0.  1.
   -9000010    2    1    2    0  503  0.51062233890E+03  0.28143455393E+03  0.62410396362E+03  0.13236966572E+04  0.10112994126E+04 0.  0.
    9000010    2    1    2  501    0 -0.51062233890E+03 -0.28143455393E+03  0.12850659952E+04  0.17441025778E+04  0.10249676135E+04 0.  0.
        -13    1    4    4    0    0 -0.79143725039E+03 -0.30389191628E+02  0.97552795210E+03  0.12565632578E+04  0.10566000000E+00 0.  1.
          4    1    4    4  501    0  0.28081491150E+03 -0.25104536230E+03  0.30953804308E+03  0.48753932002E+03  0.00000000000E+00 0.  1.
         13    1    3    3    0    0  0.11635854486E+03  0.16232052479E+03  0.83669587734E+03  0.86020187517E+03  0.10566000000E+00 0. -1.
         -4    1    3    3    0  503  0.39426379403E+03  0.11911402913E+03 -0.21259191372E+03  0.46349478206E+03  0.00000000000E+00 0. -1.
<mgrwt>
<rscale>  2 0.11762178E+04</rscale>
<asrwt>0</asrwt>
<pdfrwt beam="1">  1       21 0.38284378E+00 0.11791943E+04</pdfrwt>
<pdfrwt beam="2">  1       21 0.89125330E-01 0.11791943E+04</pdfrwt>
<totfact> 0.36027053E+00</totfact>
</mgrwt>
</event>
<event>
 8    1  0.5815007E-006  0.1260876E+04  0.7818608E-02  0.8562641E-01
         21   -1    0    0  503  502  0.00000000000E+00  0.00000000000E+00  0.10363464145E+04  0.10363464145E+04  0.00000000000E+00 0.  1.
         21   -1    0    0  501  503 -0.00000000000E+00 -0.00000000000E+00 -0.16922664323E+04  0.16922664323E+04  0.00000000000E+00 0.  1.
    9000010    2    1    2  501    0  0.72285604392E+03 -0.24540348147E+03 -0.74978972058E+03  0.14642473693E+04  0.99954589919E+03 0.  0.
   -9000010    2    1    2    0  502 -0.72285604392E+03  0.24540348147E+03  0.93869702855E+02  0.12643654775E+04  0.10035261883E+04 0.  0.
        -13    1    3    3    0    0  0.85335085530E+03 -0.48550834389E+03 -0.62480479926E+03  0.11637470011E+04  0.10566000000E+00 0.  1.
          4    1    3    3  501    0 -0.13049481138E+03  0.24010486243E+03 -0.12498492133E+03  0.30050036825E+03  0.00000000000E+00 0.  1.
         13    1    4    4    0    0 -0.46495218042E+03 -0.33537474694E+03 -0.13495363758E+03  0.58895606494E+03  0.10566000000E+00 0. -1.
         -4    1    4    4    0  502 -0.25790386350E+03  0.58077822840E+03  0.22882334044E+03  0.67540941252E+03  0.00000000000E+00 0. -1.
<mgrwt>
<rscale>  2 0.12600840E+04</rscale>
<asrwt>0</asrwt>
<pdfrwt beam="1">  1       21 0.15943791E+00 0.12608761E+04</pdfrwt>
<pdfrwt beam="2">  1       21 0.26034868E+00 0.12608761E+04</pdfrwt>
<totfact> 0.50461976E+00</totfact>
</mgrwt>
</event>
<event>
 8    1  0.5815007E-006  0.1371987E+04  0.7818608E-02  0.8493178E-01
         21   -1    0    0  503  502  0.00000000000E+00  0.00000000000E+00  0.26959641882E+04  0.26959641882E+04  0.00000000000E+00 0.  1.
         21   -1    0    0  501  503 -0.00000000000E+00 -0.00000000000E+00 -0.69781994282E+03  0.69781994282E+03  0.00000000000E+00 0. -1.
    9000010    2    1    2  501    0  0.75237446155E+03  0.52729183319E+03  0.71196050517E+03  0.15131947281E+04  0.96889964216E+03 0.  0.
   -9000010    2    1    2    0  502 -0.75237446155E+03 -0.52729183319E+03  0.12861837402E+04  0.18805894029E+04  0.10189425307E+04 0.  0.
        -13    1    3    3    0    0 -0.15128366085E+03  0.30407002180E+03  0.41477999154E+03  0.53608560579E+03  0.10566000000E+00 0.  1.
          4    1    3    3  501    0  0.90365812240E+03  0.22322181140E+03  0.29718051363E+03  0.97710912233E+03  0.00000000000E+00 0.  1.
         13    1    4    4    0    0 -0.51527397504E+03 -0.10262473022E+02  0.47511476356E+02  0.51756153186E+03  0.10566000000E+00 0. -1.
         -4    1    4    4    0  502 -0.23710048651E+03 -0.51702936017E+03  0.12386722638E+04  0.13630278710E+04  0.00000000000E+00 0. -1.
<mgrwt>
<rscale>  2 0.13627068E+04</rscale>
<asrwt>0</asrwt>
<pdfrwt beam="1">  1       21 0.41476372E+00 0.13719868E+04</pdfrwt>
<pdfrwt beam="2">  1       21 0.10735692E+00 0.13719868E+04</pdfrwt>
<totfact> 0.12829529E+00</totfact>
</mgrwt>
</event>
<event>
 8    1  0.5815007E-006  0.1368723E+04  0.7818608E-02  0.8491056E-01
         21   -1    0    0  501  502  0.00000000000E+00  0.00000000000E+00  0.15861213861E+04  0.15861213861E+04  0.00000000000E+00 0. -1.
         21   -1    0    0  502  503 -0.00000000000E+00 -0.00000000000E+00 -0.15661467856E+04  0.15661467856E+04  0.00000000000E+00 0. -1.
   -9000010    2    1    2    0  503 -0.67006921320E+02 -0.92219925727E+03 -0.78096688891E+03  0.15664217860E+04  0.99439757259E+03 0.  0.
    9000010    2    1    2  501    0  0.67006921320E+02  0.92219925727E+03  0.80094148950E+03  0.15858463857E+04  0.10091878378E+04 0.  0.
        -13    1    4    4    0    0 -0.68445180964E+02  0.17519101577E+03 -0.23531483173E+03  0.30124693525E+03  0.10566000000E+00 0.  1.
          4    1    4    4  501    0  0.13545210228E+03  0.74700824150E+03  0.10362563212E+04  0.12845994505E+04  0.00000000000E+00 0.  1.
         13    1    3    3    0    0  0.19544475028E+03 -0.67110240505E+03 -0.93876027780E+03  0.11704050405E+04  0.10566000000E+00 0. -1.
         -4    1    3    3    0  503 -0.26245167160E+03 -0.25109685222E+03  0.15779338888E+03  0.39601674547E+03  0.00000000000E+00 0. -1.
<mgrwt>
<rscale>  2 0.13659973E+04</rscale>
<asrwt>0</asrwt>
<pdfrwt beam="1">  1       21 0.24401867E+00 0.13687226E+04</pdfrwt>
<pdfrwt beam="2">  1       21 0.24094566E+00 0.13687226E+04</pdfrwt>
<totfact> 0.14759920E+00</totfact>
</mgrwt>
</event>
<event>
 8    1  0.5815007E-006  0.1253767E+04  0.7818608E-02  0.8571256E-01
         21   -1    0    0  501  502  0.00000000000E+00  0.00000000000E+00  0.23249613118E+04  0.23249613118E+04  0.00000000000E+00 0. -1.
         21   -1    0    0  502  503 -0.00000000000E+00 -0.00000000000E+00 -0.74118291872E+03  0.74118291872E+03  0.00000000000E+00 0. -1.
   -9000010    2    1    2    0  503  0.50196016443E+03 -0.45547301196E+03  0.30321729884E+03  0.12899122498E+04  0.10547574179E+04 0.  0.
    9000010    2    1    2  501    0 -0.50196016443E+03  0.45547301196E+03  0.12805610942E+04  0.17762319806E+04  0.10274938743E+04 0.  0.
        -13    1    4    4    0    0 -0.62579136240E+03  0.18511395562E+03  0.13236269499E+04  0.14757609290E+04  0.10566000000E+00 0.  1.
          4    1    4    4  501    0  0.12383119797E+03  0.27035905633E+03 -0.43065855743E+02  0.30047105162E+03  0.00000000000E+00 0.  1.
         13    1    3    3    0    0  0.15435334700E+03  0.28465701689E+03  0.34241752474E+03  0.47127947696E+03  0.10566000000E+00 0. -1.
         -4    1    3    3    0  503  0.34760681743E+03 -0.74013002884E+03 -0.39200225901E+02  0.81863277288E+03  0.00000000000E+00 0. -1.
<mgrwt>
<rscale>  2 0.12480161E+04</rscale>
<asrwt>0</asrwt>
<pdfrwt beam="1">  1       21 0.35768635E+00 0.12537675E+04</pdfrwt>
<pdfrwt beam="2">  1       21 0.11402814E+00 0.12537675E+04</pdfrwt>
<totfact> 0.27826335E+00</totfact>
</mgrwt>
</event>
<event>
 8    1  0.5815007E-006  0.1274020E+04  0.7818608E-02  0.8554036E-01
         21   -1    0    0  503  502  0.00000000000E+00  0.00000000000E+00  0.20030157212E+04  0.20030157212E+04  0.00000000000E+00 0.  1.
         21   -1    0    0  501  503 -0.00000000000E+00 -0.00000000000E+00 -0.10641579233E+04  0.10641579233E+04  0.00000000000E+00 0.  1.
    9000010    2    1    2  501    0 -0.72456764591E+03  0.24559793851E+03  0.12239148668E+04  0.17616530281E+04  0.10100184005E+04 0.  0.
   -9000010    2    1    2    0  502  0.72456764591E+03 -0.24559793851E+03 -0.28505706885E+03  0.13055206165E+04  0.10187295651E+04 0.  0.
        -13    1    3    3    0    0 -0.96528181075E+03  0.23278978987E+03  0.80474690376E+03  0.12781148817E+04  0.10566000000E+00 0.  1.
          4    1    3    3  501    0  0.24071416485E+03  0.12808148645E+02  0.41916796300E+03  0.48353814641E+03  0.00000000000E+00 0.  1.
         13    1    4    4    0    0  0.41124351887E+03  0.13297613438E+03  0.31139699966E+03  0.53270253115E+03  0.10566000000E+00 0. -1.
         -4    1    4    4    0  502  0.31332412703E+03 -0.37857407289E+03 -0.59645406850E+03  0.77281808538E+03  0.00000000000E+00 0. -1.
<mgrwt>
<rscale>  2 0.12722776E+04</rscale>
<asrwt>0</asrwt>
<pdfrwt beam="1">  1       21 0.30815626E+00 0.12740198E+04</pdfrwt>
<pdfrwt beam="2">  1       21 0.16371660E+00 0.12740198E+04</pdfrwt>
<totfact> 0.21080292E+00</totfact>
</mgrwt>
</event>
<event>
 8    1  0.5815007E-006  0.1171951E+04  0.7818608E-02  0.8646471E-01
         21   -1    0    0  503  502  0.00000000000E+00  0.00000000000E+00  0.64767326689E+03  0.64767326689E+03  0.00000000000E+00 0.  1.
         21   -1    0    0  501  503 -0.00000000000E+00 -0.00000000000E+00 -0.20534560156E+04  0.20534560156E+04  0.00000000000E+00 0.  1.
    9000010    2    1    2  501    0  0.31768232903E+03 -0.28259858477E+03 -0.96601594959E+03  0.14493849764E+04  0.99335088087E+03 0.  0.
   -9000010    2    1    2    0  502 -0.31768232903E+03  0.28259858477E+03 -0.43976679911E+03  0.12517443061E+04  0.10921011620E+04 0.  0.
        -13    1    3    3    0    0  0.63137072843E+03 -0.16153384358E+03 -0.89264754941E+03  0.11052338386E+04  0.10566000000E+00 0.  1.
          4    1    3    3  501    0 -0.31368839940E+03 -0.12106474119E+03 -0.73368400173E+02  0.34415113776E+03  0.00000000000E+00 0.  1.
         13    1    4    4    0    0 -0.19640239249E+03  0.62682077209E+03  0.29176262177E+02  0.65751763895E+03  0.10566000000E+00 0. -1.
         -4    1    4    4    0  502 -0.12127993653E+03 -0.34422218731E+03 -0.46894306129E+03  0.59422666717E+03  0.00000000000E+00 0. -1.
<mgrwt>
<rscale>  2 0.11483931E+04</rscale>
<asrwt>0</asrwt>
<pdfrwt beam="1">  1       21 0.99642041E-01 0.11719509E+04</pdfrwt>
<pdfrwt beam="2">  1       21 0.31591631E+00 0.11719509E+04</pdfrwt>
<totfact> 0.79864903E+00</totfact>
</mgrwt>
</event>
<event>
 8    1  0.5815007E-006  0.1421043E+04  0.7818608E-02  0.8456640E-01
         21   -1    0    0  501  502  0.00000000000E+00  0.00000000000E+00  0.10581346083E+04  0.10581346083E+04  0.00000000000E+00 0. -1.
         21   -1    0    0  502  503 -0.00000000000E+00 -0.00000000000E+00 -0.19842654747E+04  0.19842654747E+04  0.00000000000E+00 0.  1.
   -9000010    2    1    2    0  503 -0.10003904241E+04  0.16973922754E+03 -0.16203730119E+03  0.14289554866E+04  0.99300820228E+03 0.  0.
    9000010    2    1    2  501    0  0.10003904241E+04 -0.16973922754E+03 -0.76409356523E+03  0.16134445963E+04  0.99487289788E+03 0.  0.
        -13    1    4    4    0    0  0.11222384608E+03  0.24115711291E+03  0.12259169060E+03  0.29288168004E+03  0.10566000000E+00 0.  1.
          4    1    4    4  501    0  0.88816657802E+03 -0.41089634044E+03 -0.88668525583E+03  0.13205629163E+04  0.00000000000E+00 0.  1.
         13    1    3    3    0    0 -0.23938083866E+03 -0.11663117405E+03  0.37102558267E+03  0.45669027890E+03  0.10566000000E+00 0. -1.
         -4    1    3    3    0  503 -0.76100958544E+03  0.28637040158E+03 -0.53306288385E+03  0.97226520773E+03  0.00000000000E+00 0. -1.
<mgrwt>
<rscale>  2 0.14207171E+04</rscale>
<asrwt>0</asrwt>
<pdfrwt beam="1">  1       21 0.16278994E+00 0.14210435E+04</pdfrwt>
<pdfrwt beam="2">  1       21 0.30527161E+00 0.14210435E+04</pdfrwt>
<totfact> 0.21871678E+00</totfact>
</mgrwt>
</event>
<event>
 8    1  0.5815007E-006  0.1376320E+04  0.7818608E-02  0.8486386E-01
         21   -1    0    0  503  502  0.00000000000E+00  0.00000000000E+00  0.18012109260E+04  0.18012109260E+04  0.00000000000E+00 0.  1.
         21   -1    0    0  501  503 -0.00000000000E+00 -0.00000000000E+00 -0.10429933303E+04  0.10429933303E+04  0.00000000000E+00 0.  1.
    9000010    2    1    2  501    0  0.71960877678E+03 -0.57394766650E+03  0.41487983254E+03  0.14374912511E+04  0.10232316971E+04 0.  0.
   -9000010    2    1    2    0  502 -0.71960877678E+03  0.57394766650E+03  0.34333776309E+03  0.14067130052E+04  0.10068306431E+04 0.  0.
        -13    1    3    3    0    0  0.59033958158E+03 -0.65539127593E+03  0.69195100409E+03  0.11210864148E+04  0.10566000000E+00 0.  1.
          4    1    3    3  501    0  0.12926919520E+03  0.81443609429E+02 -0.27707117155E+03  0.31640483632E+03  0.00000000000E+00 0.  1.
         13    1    4    4    0    0 -0.59256691092E+03  0.12326368528E+02 -0.18943820288E+03  0.62223333819E+03  0.10566000000E+00 0. -1.
         -4    1    4    4    0  502 -0.12704186586E+03  0.56162129798E+03  0.53277596598E+03  0.78447966701E+03  0.00000000000E+00 0. -1.
<mgrwt>
<rscale>  2 0.13732722E+04</rscale>
<asrwt>0</asrwt>
<pdfrwt beam="1">  1       21 0.27710937E+00 0.13763197E+04</pdfrwt>
<pdfrwt beam="2">  1       21 0.16046051E+00 0.13763197E+04</pdfrwt>
<totfact> 0.36637342E+00</totfact>
</mgrwt>
</event>
<event>
 8    1  0.5815007E-006  0.1122248E+04  0.7818608E-02  0.8668265E-01
         21   -1    0    0  501  502  0.00000000000E+00  0.00000000000E+00  0.11851817262E+04  0.11851817262E+04  0.00000000000E+00 0.  1.
         21   -1    0    0  502  503 -0.00000000000E+00 -0.00000000000E+00 -0.11181571971E+04  0.11181571971E+04  0.00000000000E+00 0.  1.
   -9000010    2    1    2    0  503  0.13073427739E+03 -0.47384839350E+03 -0.23075682014E+03  0.11457264224E+04  0.10088689576E+04 0.  0.
    9000010    2    1    2  501    0 -0.13073427739E+03  0.47384839350E+03  0.29778134923E+03  0.11576125008E+04  0.10048727376E+04 0.  0.
        -13    1    4    4    0    0 -0.38866839237E+03  0.78962358297E+02  0.50526429379E+03  0.64233183869E+03  0.10566000000E+00 0.  1.
          4    1    4    4  501    0  0.25793411498E+03  0.39488603520E+03 -0.20748294456E+03  0.51528066211E+03  0.00000000000E+00 0.  1.
         13    1    3    3    0    0  0.44844272285E+03 -0.10221842864E+02 -0.35269327662E+03  0.57061188236E+03  0.10566000000E+00 0. -1.
         -4    1    3    3    0  503 -0.31770844546E+03 -0.46362655063E+03  0.12193645647E+03  0.57511454006E+03  0.00000000000E+00 0. -1.
<mgrwt>
<rscale>  2 0.11213490E+04</rscale>
<asrwt>0</asrwt>
<pdfrwt beam="1">  1       21 0.18233565E+00 0.11222479E+04</pdfrwt>
<pdfrwt beam="2">  1       21 0.17202418E+00 0.11222479E+04</pdfrwt>
<totfact> 0.15854629E+01</totfact>
</mgrwt>
</event>
<event>
 8    1  0.5815007E-006  0.1277275E+04  0.7818608E-02  0.8558595E-01
         21   -1    0    0  503  502  0.00000000000E+00  0.00000000000E+00  0.17848722098E+04  0.17848722098E+04  0.00000000000E+00 0.  1.
         21   -1    0    0  501  503 -0.00000000000E+00 -0.00000000000E+00 -0.11709222238E+04  0.11709222238E+04  0.00000000000E+00 0. -1.
    9000010    2    1    2  501    0  0.78334824520E+03  0.54399194113E+02 -0.42300057793E+03  0.13454968177E+04  0.10073919058E+04 0.  0.
   -9000010    2    1    2    0  502 -0.78334824520E+03 -0.54399194113E+02  0.10369505639E+04  0.16102976160E+04  0.94931459188E+03 0.  0.
        -13    1    3    3    0    0  0.41437497209E+03 -0.46658421388E+03 -0.31139973175E+03  0.69740752092E+03  0.10566000000E+00 0.  1.
          4    1    3    3  501    0  0.36897327311E+03  0.52098340800E+03 -0.11160084618E+03  0.64808929673E+03  0.00000000000E+00 0.  1.
         13    1    4    4    0    0 -0.92800429657E+02  0.27086301648E+03  0.73611524231E+03  0.78983818252E+03  0.10566000000E+00 0. -1.
         -4    1    4    4    0  502 -0.69054781554E+03 -0.32526221059E+03  0.30083532163E+03  0.82045943345E+03  0.00000000000E+00 0. -1.
<mgrwt>
<rscale>  2 0.12657995E+04</rscale>
<asrwt>0</asrwt>
<pdfrwt beam="1">  1       21 0.27459572E+00 0.12772753E+04</pdfrwt>
<pdfrwt beam="2">  1       21 0.18014188E+00 0.12772753E+04</pdfrwt>
<totfact> 0.26587532E+00</totfact>
</mgrwt>
</event>
<event>
 8    1  0.5815007E-006  0.1116335E+04  0.7818608E-02  0.8676150E-01
         21   -1    0    0  503  502  0.00000000000E+00  0.00000000000E+00  0.80420332289E+03  0.80420332289E+03  0.00000000000E+00 0.  1.
         21   -1    0    0  501  503 -0.00000000000E+00 -0.00000000000E+00 -0.15294048422E+04  0.15294048422E+04  0.00000000000E+00 0.  1.
    9000010    2    1    2  501    0  0.12522542592E+03 -0.48438931178E+03 -0.29320922576E+03  0.11366028376E+04  0.97753769636E+03 0.  0.
   -9000010    2    1    2    0  502 -0.12522542592E+03  0.48438931178E+03 -0.43199229352E+03  0.11970053274E+04  0.99794288390E+03 0.  0.
        -13    1    3    3    0    0 -0.92637856950E+02 -0.60620807573E+02  0.33231234093E+03  0.35026869393E+03  0.10566000000E+00 0.  1.
          4    1    3    3  501    0  0.21786328287E+03 -0.42376850420E+03 -0.62552156669E+03  0.78633414371E+03  0.00000000000E+00 0.  1.
         13    1    4    4    0    0 -0.14912406238E+03  0.68524082632E+03  0.20270115920E+02  0.70157242306E+03  0.10566000000E+00 0. -1.
         -4    1    4    4    0  502  0.23898636464E+02 -0.20085151455E+03 -0.45226240944E+03  0.49543290435E+03  0.00000000000E+00 0. -1.
<mgrwt>
<rscale>  2 0.11117564E+04</rscale>
<asrwt>0</asrwt>
<pdfrwt beam="1">  1       21 0.12372359E+00 0.11163353E+04</pdfrwt>
<pdfrwt beam="2">  1       21 0.23529305E+00 0.11163353E+04</pdfrwt>
<totfact> 0.16957571E+01</totfact>
</mgrwt>
</event>
<event>
 8    1  0.5815007E-006  0.1327638E+04  0.7818608E-02  0.8526001E-01
         21   -1    0    0  503  502  0.00000000000E+00  0.00000000000E+00  0.13787437393E+04  0.13787437393E+04  0.00000000000E+00 0.  1.
         21   -1    0    0  501  503 -0.00000000000E+00 -0.00000000000E+00 -0.12383340886E+04  0.12383340886E+04  0.00000000000E+00 0.  1.
    9000010    2    1    2  501    0  0.70663113805E+03 -0.29566141399E+03 -0.70984622047E+02  0.13295346970E+04  0.10843802179E+04 0.  0.
   -9000010    2    1    2    0  502 -0.70663113805E+03  0.29566141399E+03  0.21139427273E+03  0.12875431309E+04  0.10130826907E+04 0.  0.
        -13    1    3    3    0    0  0.76634558371E+03 -0.51177928211E+03  0.23422080978E+03  0.95082226844E+03  0.10566000000E+00 0.  1.
          4    1    3    3  501    0 -0.59714445655E+02  0.21611786812E+03 -0.30520543182E+03  0.37871242857E+03  0.00000000000E+00 0.  1.
         13    1    4    4    0    0 -0.68266800207E+03  0.63348238663E+03  0.14814378118E+03  0.94301756414E+03  0.10566000000E+00 0. -1.
         -4    1    4    4    0  502 -0.23963135985E+02 -0.33782097264E+03  0.63250491552E+02  0.34452556672E+03  0.00000000000E+00 0. -1.
<mgrwt>
<rscale>  2 0.13130064E+04</rscale>
<asrwt>0</asrwt>
<pdfrwt beam="1">  1       21 0.21211442E+00 0.13276384E+04</pdfrwt>
<pdfrwt beam="2">  1       21 0.19051294E+00 0.13276384E+04</pdfrwt>
<totfact> 0.62610211E+00</totfact>
</mgrwt>
</event>
<event>
 8    1  0.5815007E-006  0.1030605E+04  0.7818608E-02  0.8747030E-01
         21   -1    0    0  503  502  0.00000000000E+00  0.00000000000E+00  0.35034272598E+04  0.35034272598E+04  0.00000000000E+00 0.  1.
         21   -1    0    0  501  503 -0.00000000000E+00 -0.00000000000E+00 -0.30254977332E+03  0.30254977332E+03  0.00000000000E+00 0.  1.
    9000010    2    1    2  501    0 -0.63201141129E+02 -0.19639341521E+03  0.15433143632E+04  0.18541411985E+04  0.10067053207E+04 0.  0.
   -9000010    2    1    2    0  502  0.63201141129E+02  0.19639341521E+03  0.16575631233E+04  0.19518358345E+04  0.10097439574E+04 0.  0.
        -13    1    3    3    0    0  0.42223723645E+02  0.26351966138E+03  0.29511505134E+02  0.26850771846E+03  0.10566000000E+00 0.  1.
          4    1    3    3  501    0 -0.10542486477E+03 -0.45991307660E+03  0.15138028580E+04  0.15856334801E+04  0.00000000000E+00 0.  1.
         13    1    4    4    0    0  0.34185499297E+03  0.41880313868E+03  0.48505190357E+03  0.72631691809E+03  0.10566000000E+00 0. -1.
         -4    1    4    4    0  502 -0.27865385184E+03 -0.22240972347E+03  0.11725112197E+04  0.12255189165E+04  0.00000000000E+00 0. -1.
<mgrwt>
<rscale>  2 0.10298604E+04</rscale>
<asrwt>0</asrwt>
<pdfrwt beam="1">  1       21 0.53898878E+00 0.10306055E+04</pdfrwt>
<pdfrwt beam="2">  1       21 0.46546121E-01 0.10306055E+04</pdfrwt>
<totfact> 0.13862948E+00</totfact>
</mgrwt>
</event>
<event>
 8    1  0.5815007E-006  0.1154683E+04  0.7818608E-02  0.8642034E-01
         21   -1    0    0  501  502  0.00000000000E+00  0.00000000000E+00  0.16513519566E+04  0.16513519566E+04  0.00000000000E+00 0.  1.
         21   -1    0    0  502  503 -0.00000000000E+00 -0.00000000000E+00 -0.86986133839E+03  0.86986133839E+03  0.00000000000E+00 0.  1.
   -9000010    2    1    2    0  503 -0.28215395417E+03  0.48498878193E+03  0.47350708633E+02  0.11529100656E+04  0.10060489835E+04 0.  0.
    9000010    2    1    2  501    0  0.28215395417E+03 -0.48498878193E+03  0.73413990953E+03  0.13683032294E+04  0.10091914329E+04 0.  0.
        -13    1    4    4    0    0  0.12824942100E+03 -0.63288480108E+03  0.45508191088E+02  0.64735005372E+03  0.10566000000E+00 0.  1.
          4    1    4    4  501    0  0.15390453317E+03  0.14789601915E+03  0.68863171845E+03  0.72095317564E+03  0.00000000000E+00 0.  1.
         13    1    3    3    0    0 -0.48722161073E+03  0.45154453619E+03 -0.31502019869E+03  0.73519732240E+03  0.10566000000E+00 0. -1.
         -4    1    3    3    0  503  0.20506765656E+03  0.33444245742E+02  0.36237090732E+03  0.41771274318E+03  0.00000000000E+00 0. -1.
<mgrwt>
<rscale>  2 0.11539958E+04</rscale>
<asrwt>0</asrwt>
<pdfrwt beam="1">  1       21 0.25405415E+00 0.11546828E+04</pdfrwt>
<pdfrwt beam="2">  1       21 0.13382482E+00 0.11546828E+04</pdfrwt>
<totfact> 0.97788065E+00</totfact>
</mgrwt>
</event>
<event>
 8    1  0.5815007E-006  0.1226680E+04  0.7818608E-02  0.8597352E-01
         21   -1    0    0  501  502  0.00000000000E+00  0.00000000000E+00  0.19399900613E+04  0.19399900613E+04  0.00000000000E+00 0. -1.
         21   -1    0    0  502  503 -0.00000000000E+00 -0.00000000000E+00 -0.75539940117E+03  0.75539940117E+03  0.00000000000E+00 0. -1.
   -9000010    2    1    2    0  503  0.10822874795E+03 -0.72689165706E+03  0.76886665335E+03  0.14001789769E+04  0.91063730086E+03 0.  0.
    9000010    2    1    2  501    0 -0.10822874795E+03  0.72689165706E+03  0.41572400677E+03  0.12952104856E+04  0.98217045830E+03 0.  0.
        -13    1    4    4    0    0  0.34835579007E+03  0.51574301972E+03 -0.30022244959E+02  0.62309226060E+03  0.10566000000E+00 0.  1.
          4    1    4    4  501    0 -0.45658453802E+03  0.21114863733E+03  0.44574625173E+03  0.67211822497E+03  0.00000000000E+00 0.  1.
         13    1    3    3    0    0 -0.93192327777E+02 -0.40041475130E+03  0.90429731526E+03  0.99336319066E+03  0.10566000000E+00 0. -1.
         -4    1    3    3    0  503  0.20142107573E+03 -0.32647690576E+03 -0.13543066191E+03  0.40681578623E+03  0.00000000000E+00 0. -1.
<mgrwt>
<rscale>  2 0.12123069E+04</rscale>
<asrwt>0</asrwt>
<pdfrwt beam="1">  1       21 0.29846001E+00 0.12266800E+04</pdfrwt>
<pdfrwt beam="2">  1       21 0.11621529E+00 0.12266800E+04</pdfrwt>
<totfact> 0.69282484E+00</totfact>
</mgrwt>
</event>
<event>
 8    1  0.5815007E-006  0.1149772E+04  0.7818608E-02  0.8648333E-01
         21   -1    0    0  503  502  0.00000000000E+00  0.00000000000E+00  0.15018938044E+04  0.15018938044E+04  0.00000000000E+00 0.  1.
         21   -1    0    0  501  503 -0.00000000000E+00 -0.00000000000E+00 -0.92155371449E+03  0.92155371449E+03  0.00000000000E+00 0.  1.
    9000010    2    1    2  501    0  0.53028579601E+03 -0.10094731380E+03 -0.12257425650E+01  0.11349618980E+04  0.99837048328E+03 0.  0.
   -9000010    2    1    2    0  502 -0.53028579601E+03  0.10094731380E+03  0.58156583246E+03  0.12884856208E+04  0.10151763354E+04 0.  0.
        -13    1    3    3    0    0  0.80137750276E+03  0.18509315562E+02 -0.12977654921E+03  0.81202860823E+03  0.10566000000E+00 0.  1.
          4    1    3    3  501    0 -0.27109170675E+03 -0.11945662936E+03  0.12855080664E+03  0.32293328979E+03  0.00000000000E+00 0.  1.
         13    1    4    4    0    0 -0.17010222336E+03 -0.39295540958E+03  0.52073917739E+03  0.67417951789E+03  0.10566000000E+00 0. -1.
         -4    1    4    4    0  502 -0.36018357266E+03  0.49390272338E+03  0.60826655070E+02  0.61430610296E+03  0.00000000000E+00 0. -1.
<mgrwt>
<rscale>  2 0.11460515E+04</rscale>
<asrwt>0</asrwt>
<pdfrwt beam="1">  1       21 0.23106058E+00 0.11497723E+04</pdfrwt>
<pdfrwt beam="2">  1       21 0.14177749E+00 0.11497723E+04</pdfrwt>
<totfact> 0.12163809E+01</totfact>
</mgrwt>
</event>
<event>
 8    1  0.5815007E-006  0.1118836E+04  0.7818608E-02  0.8676252E-01
         21   -1    0    0  503  502  0.00000000000E+00  0.00000000000E+00  0.17045380276E+04  0.17045380276E+04  0.00000000000E+00 0.  1.
         21   -1    0    0  501  503 -0.00000000000E+00 -0.00000000000E+00 -0.84080326094E+03  0.84080326094E+03  0.00000000000E+00 0.  1.
    9000010    2    1    2  501    0  0.85331943043E+02  0.46814424442E+03 -0.63606340862E+02  0.10921533495E+04  0.98097533004E+03 0.  0.
   -9000010    2    1    2    0  502 -0.85331943043E+02 -0.46814424442E+03  0.92734110753E+03  0.14531879390E+04  0.10125971965E+04 0.  0.
        -13    1    3    3    0    0 -0.35024196140E+03  0.50821213634E+03 -0.17352771255E+03  0.64114030074E+03  0.10566000000E+00 0.  1.
          4    1    3    3  501    0  0.43557390445E+03 -0.40067891919E+02  0.10992137169E+03  0.45101304876E+03  0.00000000000E+00 0.  1.
         13    1    4    4    0    0 -0.30982063480E+03 -0.53705558689E+03  0.10257496776E+04  0.11985741285E+04  0.10566000000E+00 0. -1.
         -4    1    4    4    0  502  0.22448869175E+03  0.68911342475E+02 -0.98408570114E+02  0.25461381054E+03  0.00000000000E+00 0. -1.
<mgrwt>
<rscale>  2 0.11116325E+04</rscale>
<asrwt>0</asrwt>
<pdfrwt beam="1">  1       21 0.26223662E+00 0.11188358E+04</pdfrwt>
<pdfrwt beam="2">  1       21 0.12935435E+00 0.11188358E+04</pdfrwt>
<totfact> 0.94912198E+00</totfact>
</mgrwt>
</event>
<event>
 8    1  0.5815007E-006  0.1119920E+04  0.7818608E-02  0.8680084E-01
         21   -1    0    0  501  502  0.00000000000E+00  0.00000000000E+00  0.74079563364E+03  0.74079563364E+03  0.00000000000E+00 0. -1.
         21   -1    0    0  502  503 -0.00000000000E+00 -0.00000000000E+00 -0.19436305554E+04  0.19436305554E+04  0.00000000000E+00 0. -1.
   -9000010    2    1    2    0  503 -0.30987137715E+03  0.20626648409E+03 -0.11629578188E+04  0.16145250071E+04  0.10562452260E+04 0.  0.
    9000010    2    1    2  501    0  0.30987137715E+03 -0.20626648409E+03 -0.39877102971E+02  0.10699011819E+04  0.10022635496E+04 0.  0.
        -13    1    4    4    0    0 -0.12864419086E+03 -0.21714763698E+03 -0.41964357533E+03  0.48969701404E+03  0.10566000000E+00 0.  1.
          4    1    4    4  501    0  0.43851556801E+03  0.10881152885E+02  0.37976647236E+03  0.58020416786E+03  0.00000000000E+00 0.  1.
         13    1    3    3    0    0 -0.36360204186E+03  0.53032446286E+03 -0.11085952628E+04  0.12815747925E+04  0.10566000000E+00 0. -1.
         -4    1    3    3    0  503  0.53730664703E+02 -0.32405797877E+03 -0.54362555916E+02  0.33295021463E+03  0.00000000000E+00 0. -1.
<mgrwt>
<rscale>  2 0.11070076E+04</rscale>
<asrwt>0</asrwt>
<pdfrwt beam="1">  1       21 0.11396856E+00 0.11199197E+04</pdfrwt>
<pdfrwt beam="2">  1       21 0.29902009E+00 0.11199197E+04</pdfrwt>
<totfact> 0.74081084E+00</totfact>
</mgrwt>
</event>
<event>
 8    1  0.5815007E-006  0.1411358E+04  0.7818608E-02  0.8463145E-01
         21   -1    0    0  501  502  0.00000000000E+00  0.00000000000E+00  0.85878834952E+03  0.85878834952E+03  0.00000000000E+00 0. -1.
         21   -1    0    0  502  503 -0.00000000000E+00 -0.00000000000E+00 -0.23315737993E+04  0.23315737993E+04  0.00000000000E+00 0. -1.
   -9000010    2    1    2    0  503 -0.94468851069E+03 -0.22795179080E+03 -0.58794842140E+03  0.15245685719E+04  0.10169698044E+04 0.  0.
    9000010    2    1    2  501    0  0.94468851069E+03  0.22795179080E+03 -0.88483702835E+03  0.16657935768E+04  0.10234907292E+04 0.  0.
        -13    1    4    4    0    0  0.32323094255E+03  0.40418454988E+03 -0.87872241674E+03  0.10198021815E+04  0.10566000000E+00 0.  1.
          4    1    4    4  501    0  0.62145756814E+03 -0.17623275909E+03 -0.61146116150E+01  0.64599139533E+03  0.00000000000E+00 0.  1.
         13    1    3    3    0    0 -0.86554488503E+03 -0.58245247792E+03 -0.44534362415E+03  0.11343499424E+04  0.10566000000E+00 0. -1.
         -4    1    3    3    0  503 -0.79143625658E+02  0.35450068712E+03 -0.14260479725E+03  0.39021862955E+03  0.00000000000E+00 0. -1.
<mgrwt>
<rscale>  2 0.14101762E+04</rscale>
<asrwt>0</asrwt>
<pdfrwt beam="1">  1       21 0.13212129E+00 0.14113581E+04</pdfrwt>
<pdfrwt beam="2">  1       21 0.35870366E+00 0.14113581E+04</pdfrwt>
<totfact> 0.17504029E+00</totfact>
</mgrwt>
</event>
<event>
 8    1  0.5815007E-006  0.1343764E+04  0.7818608E-02  0.8506147E-01
         21   -1    0    0  501  502  0.00000000000E+00  0.00000000000E+00  0.17273602765E+04  0.17273602765E+04  0.00000000000E+00 0.  1.
         21   -1    0    0  502  503 -0.00000000000E+00 -0.00000000000E+00 -0.13594207328E+04  0.13594207328E+04  0.00000000000E+00 0.  1.
   -9000010    2    1    2    0  503 -0.84674721448E+03  0.28643274738E+03 -0.56158713476E+03  0.14528530070E+04  0.99818694940E+03 0.  0.
    9000010    2    1    2  501    0  0.84674721448E+03 -0.28643274738E+03  0.92952667844E+03  0.16339280023E+04  0.10033326003E+04 0.  0.
        -13    1    4    4    0    0  0.16652426457E+03 -0.50788860359E+03  0.10926413111E+03  0.54554543885E+03  0.10566000000E+00 0.  1.
          4    1    4    4  501    0  0.68022294991E+03  0.22145585621E+03  0.82026254733E+03  0.10883825634E+04  0.00000000000E+00 0.  1.
         13    1    3    3    0    0  0.28290603101E+02 -0.33291601632E+02 -0.51839511839E+03  0.52023283143E+03  0.10566000000E+00 0. -1.
         -4    1    3    3    0  503 -0.87503781758E+03  0.31972434901E+03 -0.43192016369E+02  0.93262017554E+03  0.00000000000E+00 0. -1.
<mgrwt>
<rscale>  2 0.13428032E+04</rscale>
<asrwt>0</asrwt>
<pdfrwt beam="1">  1       21 0.26574774E+00 0.13437637E+04</pdfrwt>
<pdfrwt beam="2">  1       21 0.20914165E+00 0.13437637E+04</pdfrwt>
<totfact> 0.17882397E+00</totfact>
</mgrwt>
</event>
<event>
 8    1  0.5815007E-006  0.1236908E+04  0.7818608E-02  0.8581773E-01
         21   -1    0    0  503  502  0.00000000000E+00  0.00000000000E+00  0.98331173118E+03  0.98331173118E+03  0.00000000000E+00 0.  1.
         21   -1    0    0  501  503 -0.00000000000E+00 -0.00000000000E+00 -0.15558539161E+04  0.15558539161E+04  0.00000000000E+00 0.  1.
    9000010    2    1    2  501    0 -0.31064896033E+03  0.64936012354E+03 -0.41780726781E+03  0.12926171437E+04  0.98900193155E+03 0.  0.
   -9000010    2    1    2    0  502  0.31064896033E+03 -0.64936012354E+03 -0.15473491709E+03  0.12465485035E+04  0.10058672529E+04 0.  0.
        -13    1    3    3    0    0 -0.37806723991E+02  0.84530791300E+03 -0.14200799051E+03  0.85798665298E+03  0.10566000000E+00 0.  1.
          4    1    3    3  501    0 -0.27284223633E+03 -0.19594778946E+03 -0.27579927731E+03  0.43463049074E+03  0.00000000000E+00 0.  1.
         13    1    4    4    0    0 -0.19092288892E+03 -0.31677559499E+03 -0.44478988850E+03  0.57847764276E+03  0.10566000000E+00 0. -1.
         -4    1    4    4    0  502  0.50157184925E+03 -0.33258452855E+03  0.29005497141E+03  0.66807086078E+03  0.00000000000E+00 0. -1.
<mgrwt>
<rscale>  2 0.12334744E+04</rscale>
<asrwt>0</asrwt>
<pdfrwt beam="1">  1       21 0.15127873E+00 0.12369075E+04</pdfrwt>
<pdfrwt beam="2">  1       21 0.23936214E+00 0.12369075E+04</pdfrwt>
<totfact> 0.85079637E+00</totfact>
</mgrwt>
</event>
<event>
 8    1  0.5815007E-006  0.1077460E+04  0.7818608E-02  0.8710083E-01
         21   -1    0    0  501  502  0.00000000000E+00  0.00000000000E+00  0.16156492985E+04  0.16156492985E+04  0.00000000000E+00 0. -1.
         21   -1    0    0  502  503 -0.00000000000E+00 -0.00000000000E+00 -0.86922538412E+03  0.86922538412E+03  0.00000000000E+00 0. -1.
   -9000010    2    1    2    0  503  0.23370144708E+03  0.28051315712E+03 -0.17318547661E+03  0.10683289450E+04  0.98895375405E+03 0.  0.
    9000010    2    1    2  501    0 -0.23370144708E+03 -0.28051315712E+03  0.91960939096E+03  0.14165457376E+04  0.10137141595E+04 0.  0.
        -13    1    4    4    0    0 -0.32463168561E+03 -0.13795543014E+03  0.11083600010E+04  0.11631334124E+04  0.10566000000E+00 0.  1.
          4    1    4    4  501    0  0.90930238528E+02 -0.14255772698E+03 -0.18875061005E+03  0.25341232526E+03  0.00000000000E+00 0.  1.
         13    1    3    3    0    0 -0.10666479271E+03 -0.54166870562E+02  0.34418847006E+03  0.36438597937E+03  0.10566000000E+00 0. -1.
         -4    1    3    3    0  503  0.34036623979E+03  0.33468002768E+03 -0.51737394667E+03  0.70394296559E+03  0.00000000000E+00 0. -1.
<mgrwt>
<rscale>  2 0.10715969E+04</rscale>
<asrwt>0</asrwt>
<pdfrwt beam="1">  1       21 0.24856143E+00 0.10774602E+04</pdfrwt>
<pdfrwt beam="2">  1       21 0.13372698E+00 0.10774602E+04</pdfrwt>
<totfact> 0.10927399E+01</totfact>
</mgrwt>
</event>
<event>
 8    1  0.5815007E-006  0.1595107E+04  0.7818608E-02  0.8357708E-01
         21   -1    0    0  501  502  0.00000000000E+00  0.00000000000E+00  0.20562335792E+04  0.20562335792E+04  0.00000000000E+00 0.  1.
         21   -1    0    0  502  503 -0.00000000000E+00 -0.00000000000E+00 -0.12344478146E+04  0.12344478146E+04  0.00000000000E+00 0. -1.
   -9000010    2    1    2    0  503  0.12374759282E+04 -0.74837801844E+02  0.33830526389E+03  0.16305876351E+04  0.10037022539E+04 0.  0.
    9000010    2    1    2  501    0 -0.12374759282E+04  0.74837801844E+02  0.48348050067E+03  0.16600937588E+04  0.99257771675E+03 0.  0.
        -13    1    4    4    0    0 -0.80090852922E+03  0.13434898588E+03 -0.20969807677E+03  0.83873560599E+03  0.10566000000E+00 0.  1.
          4    1    4    4  501    0 -0.43656739903E+03 -0.59511184039E+02  0.69317857744E+03  0.82135815278E+03  0.00000000000E+00 0.  1.
         13    1    3    3    0    0  0.36213002633E+03 -0.49547791487E+03  0.41641518974E+02  0.61511831980E+03  0.10566000000E+00 0. -1.
         -4    1    3    3    0  503  0.87534590192E+03  0.42064011303E+03  0.29666374491E+03  0.10154693153E+04  0.00000000000E+00 0. -1.
<mgrwt>
<rscale>  2 0.15933598E+04</rscale>
<asrwt>0</asrwt>
<pdfrwt beam="1">  1       21 0.31634363E+00 0.15951068E+04</pdfrwt>
<pdfrwt beam="2">  1       21 0.18991505E+00 0.15951068E+04</pdfrwt>
<totfact> 0.10556267E+00</totfact>
</mgrwt>
</event>
<event>
 8    1  0.5815007E-006  0.1248098E+04  0.7818608E-02  0.8571456E-01
         21   -1    0    0  503  502  0.00000000000E+00  0.00000000000E+00  0.99451750149E+03  0.99451750149E+03  0.00000000000E+00 0. -1.
         21   -1    0    0  501  503 -0.00000000000E+00 -0.00000000000E+00 -0.15949904691E+04  0.15949904691E+04  0.00000000000E+00 0. -1.
    9000010    2    1    2  501    0  0.45895297587E+03  0.57983147255E+03 -0.12112921895E+03  0.12525263831E+04  0.10036471900E+04 0.  0.
   -9000010    2    1    2    0  502 -0.45895297587E+03 -0.57983147255E+03 -0.47934374870E+03  0.13369815876E+04  0.10054386931E+04 0.  0.
        -13    1    3    3    0    0  0.60808180329E+03  0.55538463335E+03  0.24270388572E+03  0.85855737010E+03  0.10566000000E+00 0.  1.
          4    1    3    3  501    0 -0.14912882741E+03  0.24446839199E+02 -0.36383310467E+03  0.39396901295E+03  0.00000000000E+00 0.  1.
         13    1    4    4    0    0 -0.47203554195E+02 -0.28513558312E+03  0.29422605669E+03  0.41243115776E+03  0.10566000000E+00 0. -1.
         -4    1    4    4    0  502 -0.41174942168E+03 -0.29469588943E+03 -0.77356980539E+03  0.92455042983E+03  0.00000000000E+00 0. -1.
<mgrwt>
<rscale>  2 0.12477374E+04</rscale>
<asrwt>0</asrwt>
<pdfrwt beam="1">  1       21 0.15300269E+00 0.12480983E+04</pdfrwt>
<pdfrwt beam="2">  1       21 0.24538315E+00 0.12480983E+04</pdfrwt>
<totfact> 0.74018215E+00</totfact>
</mgrwt>
</event>
<event>
 8    1  0.5815007E-006  0.1363409E+04  0.7818608E-02  0.8518412E-01
         21   -1    0    0  501  502  0.00000000000E+00  0.00000000000E+00  0.70368207824E+03  0.70368207824E+03  0.00000000000E+00 0.  1.
         21   -1    0    0  502  503 -0.00000000000E+00 -0.00000000000E+00 -0.26142751752E+04  0.26142751752E+04  0.00000000000E+00 0.  1.
   -9000010    2    1    2    0  503  0.34911901148E+03  0.59298251096E+03 -0.48814461182E+03  0.14481602074E+04  0.11770176217E+04 0.  0.
    9000010    2    1    2  501    0 -0.34911901148E+03 -0.59298251096E+03 -0.14224484852E+04  0.18697970460E+04  0.99963441213E+03 0.  0.
        -13    1    4    4    0    0 -0.32634625003E+02  0.17657098548E+03 -0.82783453220E+03  0.84708462123E+03  0.10566000000E+00 0.  1.
          4    1    4    4  501    0 -0.31648438648E+03 -0.76955349644E+03 -0.59461395296E+03  0.10227124248E+04  0.00000000000E+00 0.  1.
         13    1    3    3    0    0  0.20794179682E+03  0.25699095044E+03  0.38175876554E+03  0.50499891654E+03  0.10566000000E+00 0. -1.
         -4    1    3    3    0  503  0.14117721466E+03  0.33599156052E+03 -0.86990337737E+03  0.94316129089E+03  0.00000000000E+00 0. -1.
<mgrwt>
<rscale>  2 0.13243012E+04</rscale>
<asrwt>0</asrwt>
<pdfrwt beam="1">  1       21 0.10825878E+00 0.13634085E+04</pdfrwt>
<pdfrwt beam="2">  1       21 0.40219617E+00 0.13634085E+04</pdfrwt>
<totfact> 0.15341196E+00</totfact>
</mgrwt>
</event>
<event>
 8    1  0.5815007E-006  0.1139070E+04  0.7818608E-02  0.8657004E-01
         21   -1    0    0  503  502  0.00000000000E+00  0.00000000000E+00  0.68186513263E+03  0.68186513263E+03  0.00000000000E+00 0.  1.
         21   -1    0    0  501  503 -0.00000000000E+00 -0.00000000000E+00 -0.20207051915E+04  0.20207051915E+04  0.00000000000E+00 0.  1.
    9000010    2    1    2  501    0  0.29886783806E+03 -0.46042881920E+03 -0.10335205491E+04  0.15380651001E+04  0.99807957832E+03 0.  0.
   -9000010    2    1    2    0  502 -0.29886783806E+03  0.46042881920E+03 -0.30531950974E+03  0.11645052240E+04  0.98057928361E+03 0.  0.
        -13    1    3    3    0    0  0.22924270676E+03  0.14997266952E+03  0.63067105164E+02  0.28110761484E+03  0.10566000000E+00 0.  1.
          4    1    3    3  501    0  0.69625131298E+02 -0.61040148872E+03 -0.10965876542E+04  0.12569574853E+04  0.00000000000E+00 0.  1.
         13    1    4    4    0    0 -0.54355987220E+01  0.45367103907E+03 -0.59758186856E+03  0.75030064522E+03  0.10566000000E+00 0. -1.
         -4    1    4    4    0  502 -0.29343223933E+03  0.67577801374E+01  0.29226235882E+03  0.41420457875E+03  0.00000000000E+00 0. -1.
<mgrwt>
<rscale>  2 0.11352245E+04</rscale>
<asrwt>0</asrwt>
<pdfrwt beam="1">  1       21 0.10490233E+00 0.11390696E+04</pdfrwt>
<pdfrwt beam="2">  1       21 0.31087772E+00 0.11390696E+04</pdfrwt>
<totfact> 0.76133013E+00</totfact>
</mgrwt>
</event>
<event>
 8    1  0.5815007E-006  0.1103652E+04  0.7818608E-02  0.8686185E-01
         21   -1    0    0  503  502  0.00000000000E+00  0.00000000000E+00  0.15513427987E+04  0.15513427987E+04  0.00000000000E+00 0. -1.
         21   -1    0    0  501  503 -0.00000000000E+00 -0.00000000000E+00 -0.78085090347E+03  0.78085090347E+03  0.00000000000E+00 0. -1.
    9000010    2    1    2  501    0 -0.78455643045E+02 -0.42877060639E+03  0.49732602642E+03  0.12105291350E+04  0.10139270631E+04 0.  0.
   -9000010    2    1    2    0  502  0.78455643045E+02  0.42877060639E+03  0.27316586885E+03  0.11216645672E+04  0.99675086586E+03 0.  0.
        -13    1    3    3    0    0 -0.37515109115E+03 -0.26632457967E+03 -0.14685275570E+03  0.48294188672E+03  0.10566000000E+00 0.  1.
          4    1    3    3  501    0  0.29669544810E+03 -0.16244602672E+03  0.64417878212E+03  0.72758724828E+03  0.00000000000E+00 0.  1.
         13    1    4    4    0    0 -0.16497241057E+01  0.36100850464E+03  0.64290276220E+03  0.73732885121E+03  0.10566000000E+00 0. -1.
         -4    1    4    4    0  502  0.80105367151E+02  0.67762101748E+02 -0.36973689336E+03  0.38433571599E+03  0.00000000000E+00 0. -1.
<mgrwt>
<rscale>  2 0.10996910E+04</rscale>
<asrwt>0</asrwt>
<pdfrwt beam="1">  1       21 0.23866812E+00 0.11036519E+04</pdfrwt>
<pdfrwt beam="2">  1       21 0.12013091E+00 0.11036519E+04</pdfrwt>
<totfact> 0.17446761E+01</totfact>
</mgrwt>
</event>
<event>
 8    1  0.5815007E-006  0.1227058E+04  0.7818608E-02  0.8588088E-01
         21   -1    0    0  503  502  0.00000000000E+00  0.00000000000E+00  0.16484818107E+04  0.16484818107E+04  0.00000000000E+00 0.  1.
         21   -1    0    0  501  503 -0.00000000000E+00 -0.00000000000E+00 -0.10296204307E+04  0.10296204307E+04  0.00000000000E+00 0.  1.
    9000010    2    1    2  501    0 -0.61349244487E+03  0.38503679914E+03 -0.15404262189E+03  0.12279117663E+04  0.97949571708E+03 0.  0.
   -9000010    2    1    2    0  502  0.61349244487E+03 -0.38503679914E+03  0.77290400196E+03  0.14501904751E+04  0.99047741080E+03 0.  0.
        -13    1    3    3    0    0  0.21402862114E+03  0.83142827702E+02 -0.25281631406E+03  0.34152171276E+03  0.10566000000E+00 0.  1.
          4    1    3    3  501    0 -0.82752106602E+03  0.30189397143E+03  0.98773692172E+02  0.88639005351E+03  0.00000000000E+00 0.  1.
         13    1    4    4    0    0  0.79705508609E+03 -0.31361811415E+03  0.87828948346E+03  0.12268029833E+04  0.10566000000E+00 0. -1.
         -4    1    4    4    0  502 -0.18356264122E+03 -0.71418684987E+02 -0.10538548150E+03  0.22338749188E+03  0.00000000000E+00 0. -1.
<mgrwt>
<rscale>  2 0.12248404E+04</rscale>
<asrwt>0</asrwt>
<pdfrwt beam="1">  1       21 0.25361259E+00 0.12270582E+04</pdfrwt>
<pdfrwt beam="2">  1       21 0.15840314E+00 0.12270582E+04</pdfrwt>
<totfact> 0.58048193E+00</totfact>
</mgrwt>
</event>
<event>
 8    1  0.5815007E-006  0.1020530E+04  0.7818608E-02  0.8757126E-01
         21   -1    0    0  503  502  0.00000000000E+00  0.00000000000E+00  0.75438034381E+03  0.75438034381E+03  0.00000000000E+00 0. -1.
         21   -1    0    0  501  503 -0.00000000000E+00 -0.00000000000E+00 -0.13747482596E+04  0.13747482596E+04  0.00000000000E+00 0. -1.
    9000010    2    1    2  501    0  0.19024215516E+03  0.77219743428E+02 -0.36283874190E+03  0.10766060350E+04  0.99260950814E+03 0.  0.
   -9000010    2    1    2    0  502 -0.19024215516E+03 -0.77219743428E+02 -0.25752917386E+03  0.10525225683E+04  0.99966370101E+03 0.  0.
        -13    1    3    3    0    0  0.25641580188E+03  0.51207769340E+03 -0.22966483673E+03  0.61702396706E+03  0.10566000000E+00 0.  1.
          4    1    3    3  501    0 -0.66173646716E+02 -0.43485794998E+03 -0.13317390517E+03  0.45958206796E+03  0.00000000000E+00 0.  1.
         13    1    4    4    0    0 -0.49432155947E+02 -0.28788592456E+03 -0.57582864461E+03  0.64567831210E+03  0.10566000000E+00 0. -1.
         -4    1    4    4    0  502 -0.14080999922E+03  0.21066618113E+03  0.31829947076E+03  0.40684425624E+03  0.00000000000E+00 0. -1.
<mgrwt>
<rscale>  2 0.10187988E+04</rscale>
<asrwt>0</asrwt>
<pdfrwt beam="1">  1       21 0.11605852E+00 0.10205305E+04</pdfrwt>
<pdfrwt beam="2">  1       21 0.21149973E+00 0.10205305E+04</pdfrwt>
<totfact> 0.31238592E+01</totfact>
</mgrwt>
</event>
<event>
 8    1  0.5815007E-006  0.1052748E+04  0.7818608E-02  0.8727471E-01
         21   -1    0    0  501  502  0.00000000000E+00  0.00000000000E+00  0.11573916729E+04  0.11573916729E+04  0.00000000000E+00 0. -1.
         21   -1    0    0  502  503 -0.00000000000E+00 -0.00000000000E+00 -0.11802710973E+04  0.11802710973E+04  0.00000000000E+00 0. -1.
   -9000010    2    1    2    0  503  0.32941953581E+03 -0.14442094130E+03 -0.52347740747E+03  0.11757152104E+04  0.98939528041E+03 0.  0.
    9000010    2    1    2  501    0 -0.32941953581E+03  0.14442094130E+03  0.50059798308E+03  0.11619475599E+04  0.98496149795E+03 0.  0.
        -13    1    4    4    0    0 -0.55575996204E+03  0.11330049649E+03 -0.46466611622E+02  0.56909164030E+03  0.10566000000E+00 0.  1.
          4    1    4    4  501    0  0.22634042622E+03  0.31120444815E+02  0.54706459470E+03  0.59285591959E+03  0.00000000000E+00 0.  1.
         13    1    3    3    0    0  0.53321981575E+03 -0.29700777758E+03 -0.64980309415E+03  0.89150494345E+03  0.10566000000E+00 0. -1.
         -4    1    3    3    0  503 -0.20380027994E+03  0.15258683628E+03  0.12632568668E+03  0.28421026692E+03  0.00000000000E+00 0. -1.
<mgrwt>
<rscale>  2 0.10517047E+04</rscale>
<asrwt>0</asrwt>
<pdfrwt beam="1">  1       21 0.17806026E+00 0.10527477E+04</pdfrwt>
<pdfrwt beam="2">  1       21 0.18158017E+00 0.10527477E+04</pdfrwt>
<totfact> 0.14556562E+01</totfact>
</mgrwt>
</event>
<event>
 8    1  0.5815007E-006  0.1437550E+04  0.7818608E-02  0.8447799E-01
         21   -1    0    0  501  502  0.00000000000E+00  0.00000000000E+00  0.13627860834E+04  0.13627860834E+04  0.00000000000E+00 0. -1.
         21   -1    0    0  502  503 -0.00000000000E+00 -0.00000000000E+00 -0.15794246625E+04  0.15794246625E+04  0.00000000000E+00 0. -1.
   -9000010    2    1    2    0  503 -0.62893450273E+03  0.79552500322E+03 -0.42470955898E+03  0.14989759574E+04  0.10188876640E+04 0.  0.
    9000010    2    1    2  501    0  0.62893450273E+03 -0.79552500322E+03  0.20807097988E+03  0.14432347886E+04  0.10055916084E+04 0.  0.
        -13    1    4    4    0    0 -0.11038266256E+03  0.11843342260E+03 -0.14339631578E+03  0.21627140895E+03  0.10566000000E+00 0.  1.
          4    1    4    4  501    0  0.73931716530E+03 -0.91395842582E+03  0.35146729567E+03  0.12269633796E+04  0.00000000000E+00 0.  1.
         13    1    3    3    0    0 -0.74949163639E+03  0.93526138986E+03 -0.21159176590E+03  0.12170549153E+04  0.10566000000E+00 0. -1.
         -4    1    3    3    0  503  0.12055713366E+03 -0.13973638665E+03 -0.21311779308E+03  0.28192104206E+03  0.00000000000E+00 0. -1.
<mgrwt>
<rscale>  2 0.14351962E+04</rscale>
<asrwt>0</asrwt>
<pdfrwt beam="1">  1       21 0.20965940E+00 0.14375502E+04</pdfrwt>
<pdfrwt beam="2">  1       21 0.24298841E+00 0.14375502E+04</pdfrwt>
<totfact> 0.25483698E+00</totfact>
</mgrwt>
</event>
<event>
 8    1  0.5815007E-006  0.1117733E+04  0.7818608E-02  0.8686841E-01
         21   -1    0    0  503  502  0.00000000000E+00  0.00000000000E+00  0.12214486308E+04  0.12214486308E+04  0.00000000000E+00 0. -1.
         21   -1    0    0  501  503 -0.00000000000E+00 -0.00000000000E+00 -0.10713909375E+04  0.10713909375E+04  0.00000000000E+00 0. -1.
    9000010    2    1    2  501    0  0.15634457920E+03  0.24101930692E+03 -0.30207202088E+03  0.10871244235E+04  0.10040209523E+04 0.  0.
   -9000010    2    1    2    0  502 -0.15634457920E+03 -0.24101930692E+03  0.45212971416E+03  0.12057151449E+04  0.10801822987E+04 0.  0.
        -13    1    3    3    0    0 -0.10570737307E+03  0.27047044117E+03  0.30750657727E+03  0.42295226030E+03  0.10566000000E+00 0.  1.
          4    1    3    3  501    0  0.26205195228E+03 -0.29451134248E+02 -0.60957859816E+03  0.66417216317E+03  0.00000000000E+00 0.  1.
         13    1    4    4    0    0 -0.35000592087E+03  0.16607324345E+03 -0.18171322012E+03  0.42790673325E+03  0.10566000000E+00 0. -1.
         -4    1    4    4    0  502  0.19366134166E+03 -0.40709255037E+03  0.63384293428E+03  0.77780841160E+03  0.00000000000E+00 0. -1.
<mgrwt>
<rscale>  2 0.10989082E+04</rscale>
<asrwt>0</asrwt>
<pdfrwt beam="1">  1       21 0.18791517E+00 0.11177333E+04</pdfrwt>
<pdfrwt beam="2">  1       21 0.16482938E+00 0.11177333E+04</pdfrwt>
<totfact> 0.16448393E+01</totfact>
</mgrwt>
</event>
<event>
 8    1  0.5815007E-006  0.1207058E+04  0.7818608E-02  0.8607270E-01
         21   -1    0    0  503  502  0.00000000000E+00  0.00000000000E+00  0.40469102064E+04  0.40469102064E+04  0.00000000000E+00 0. -1.
         21   -1    0    0  501  503 -0.00000000000E+00 -0.00000000000E+00 -0.35068090727E+03  0.35068090727E+03  0.00000000000E+00 0. -1.
    9000010    2    1    2  501    0 -0.56376250823E+03  0.18993499368E+03  0.18473284931E+04  0.21895551921E+04  0.10137188517E+04 0.  0.
   -9000010    2    1    2    0  502  0.56376250823E+03 -0.18993499368E+03  0.18489008060E+04  0.22080359216E+04  0.10502785216E+04 0.  0.
        -13    1    3    3    0    0 -0.38055867181E+03 -0.31311837063E+03  0.14245221593E+04  0.15073590847E+04  0.10566000000E+00 0.  1.
          4    1    3    3  501    0 -0.18320383642E+03  0.50305336431E+03  0.42280633383E+03  0.68219610740E+03  0.00000000000E+00 0.  1.
         13    1    4    4    0    0  0.41328804659E+02 -0.40862231002E+03  0.18511627160E+03  0.45049784408E+03  0.10566000000E+00 0. -1.
         -4    1    4    4    0  502  0.52243370357E+03  0.21868731634E+03  0.16637845344E+04  0.17575380775E+04  0.00000000000E+00 0. -1.
<mgrwt>
<rscale>  2 0.11990604E+04</rscale>
<asrwt>0</asrwt>
<pdfrwt beam="1">  1       21 0.62260154E+00 0.12070578E+04</pdfrwt>
<pdfrwt beam="2">  1       21 0.53950912E-01 0.12070578E+04</pdfrwt>
<totfact> 0.22541555E-01</totfact>
</mgrwt>
</event>
<event>
 8    1  0.5815007E-006  0.1061294E+04  0.7818608E-02  0.8719403E-01
         21   -1    0    0  501  502  0.00000000000E+00  0.00000000000E+00  0.22167876462E+04  0.22167876462E+04  0.00000000000E+00 0. -1.
         21   -1    0    0  502  503 -0.00000000000E+00 -0.00000000000E+00 -0.52997390910E+03  0.52997390910E+03  0.00000000000E+00 0. -1.
   -9000010    2    1    2    0  503 -0.11966602521E+02 -0.34356625813E+03  0.55871902570E+03  0.11979096723E+04  0.10023171454E+04 0.  0.
    9000010    2    1    2  501    0  0.11966602521E+02  0.34356625813E+03  0.11280947114E+04  0.15488518830E+04  0.10040734556E+04 0.  0.
        -13    1    4    4    0    0 -0.12702194378E+03 -0.28152070231E+03  0.77401154495E+02  0.31840136606E+03  0.10566000000E+00 0.  1.
          4    1    4    4  501    0  0.13898854630E+03  0.62508696044E+03  0.10506935570E+04  0.12304505170E+04  0.00000000000E+00 0.  1.
         13    1    3    3    0    0  0.48575700215E+03 -0.13140778595E+03  0.16798022468E+03  0.53051412648E+03  0.10566000000E+00 0. -1.
         -4    1    3    3    0  503 -0.49772360467E+03 -0.21215847217E+03  0.39073880102E+03  0.66739554582E+03  0.00000000000E+00 0. -1.
<mgrwt>
<rscale>  2 0.10608782E+04</rscale>
<asrwt>0</asrwt>
<pdfrwt beam="1">  1       21 0.34104425E+00 0.10612938E+04</pdfrwt>
<pdfrwt beam="2">  1       21 0.81534449E-01 0.10612938E+04</pdfrwt>
<totfact> 0.90811039E+00</totfact>
</mgrwt>
</event>
<event>
 8    1  0.5815007E-006  0.1050175E+04  0.7818608E-02  0.8736671E-01
         21   -1    0    0  501  502  0.00000000000E+00  0.00000000000E+00  0.14226508562E+04  0.14226508562E+04  0.00000000000E+00 0.  1.
         21   -1    0    0  502  503 -0.00000000000E+00 -0.00000000000E+00 -0.75781232813E+03  0.75781232813E+03  0.00000000000E+00 0.  1.
   -9000010    2    1    2    0  503 -0.18540789809E+03 -0.20728564983E+02  0.45050693148E+03  0.11427263879E+04  0.10334705318E+04 0.  0.
    9000010    2    1    2  501    0  0.18540789809E+03  0.20728564983E+02  0.21433159661E+03  0.10377367965E+04  0.99807507903E+03 0.  0.
        -13    1    4    4    0    0 -0.12012187323E+03 -0.37385455306E+03  0.34408343930E+03  0.52210144190E+03  0.10566000000E+00 0.  1.
          4    1    4    4  501    0  0.30552977132E+03  0.39458311804E+03 -0.12975184269E+03  0.51563535458E+03  0.00000000000E+00 0.  1.
         13    1    3    3    0    0 -0.82337017646E+02  0.47325330538E+03  0.22252156505E+02  0.48087757814E+03  0.10566000000E+00 0. -1.
         -4    1    3    3    0  503 -0.10307088045E+03 -0.49398187036E+03  0.42825477498E+03  0.66184880972E+03  0.00000000000E+00 0. -1.
<mgrwt>
<rscale>  2 0.10413612E+04</rscale>
<asrwt>0</asrwt>
<pdfrwt beam="1">  1       21 0.21886936E+00 0.10501748E+04</pdfrwt>
<pdfrwt beam="2">  1       21 0.11658651E+00 0.10501748E+04</pdfrwt>
<totfact> 0.26944516E+01</totfact>
</mgrwt>
</event>
<event>
 8    1  0.5815007E-006  0.9958009E+03  0.7818608E-02  0.8796646E-01
         21   -1    0    0  501  502  0.00000000000E+00  0.00000000000E+00  0.13587930240E+04  0.13587930240E+04  0.00000000000E+00 0. -1.
         21   -1    0    0  502  503 -0.00000000000E+00 -0.00000000000E+00 -0.67836694230E+03  0.67836694230E+03  0.00000000000E+00 0. -1.
   -9000010    2    1    2    0  503  0.51099693047E+02  0.29984301477E+03  0.27836329926E+03  0.96325407074E+03  0.87054883050E+03 0.  0.
    9000010    2    1    2  501    0 -0.51099693047E+02 -0.29984301477E+03  0.40206278246E+03  0.10739058956E+04  0.94821009244E+03 0.  0.
        -13    1    4    4    0    0 -0.42304759472E+03 -0.19551410054E+02  0.43487688741E+03  0.60701683947E+03  0.10566000000E+00 0.  1.
          4    1    4    4  501    0  0.37194790168E+03 -0.28029160472E+03 -0.32814104949E+02  0.46688905611E+03  0.00000000000E+00 0.  1.
         13    1    3    3    0    0 -0.34824401694E+03 -0.69023953173E+02  0.21719998447E+03  0.41618991562E+03  0.10566000000E+00 0. -1.
         -4    1    3    3    0  503  0.39934370998E+03  0.36886696794E+03  0.61163314791E+02  0.54706415512E+03  0.00000000000E+00 0. -1.
<mgrwt>
<rscale>  2 0.97685593E+03</rscale>
<asrwt>0</asrwt>
<pdfrwt beam="1">  1       21 0.20904508E+00 0.99580088E+03</pdfrwt>
<pdfrwt beam="2">  1       21 0.10436415E+00 0.99580088E+03</pdfrwt>
<totfact> 0.43731390E+01</totfact>
</mgrwt>
</event>
<event>
 8    1  0.5815007E-006  0.1056673E+04  0.7818608E-02  0.8726520E-01
         21   -1    0    0  501  502  0.00000000000E+00  0.00000000000E+00  0.10933773694E+04  0.10933773694E+04  0.00000000000E+00 0. -1.
         21   -1    0    0  502  503 -0.00000000000E+00 -0.00000000000E+00 -0.10173390835E+04  0.10173390835E+04  0.00000000000E+00 0. -1.
   -9000010    2    1    2    0  503  0.25989159081E+03  0.19470284038E+03 -0.71670615920E+02  0.10591008593E+04  0.10055372285E+04 0.  0.
    9000010    2    1    2  501    0 -0.25989159081E+03 -0.19470284038E+03  0.14770890177E+03  0.10516155936E+04  0.98925456891E+03 0.  0.
        -13    1    4    4    0    0  0.25015602714E+03 -0.37451246363E+03 -0.92630522591E+02  0.45980218378E+03  0.10566000000E+00 0.  1.
          4    1    4    4  501    0 -0.51004761795E+03  0.17980962325E+03  0.24033942436E+03  0.59181340986E+03  0.00000000000E+00 0.  1.
         13    1    3    3    0    0  0.17123939086E+02 -0.37900489385E+03 -0.19109300802E+03  0.42479934996E+03  0.10566000000E+00 0. -1.
         -4    1    3    3    0  503  0.24276765172E+03  0.57370773422E+03  0.11942239210E+03  0.63430150935E+03  0.00000000000E+00 0. -1.
<mgrwt>
<rscale>  2 0.10527809E+04</rscale>
<asrwt>0</asrwt>
<pdfrwt beam="1">  1       21 0.16821190E+00 0.10566731E+04</pdfrwt>
<pdfrwt beam="2">  1       21 0.15651370E+00 0.10566731E+04</pdfrwt>
<totfact> 0.28540590E+01</totfact>
</mgrwt>
</event>
<event>
 8    1  0.5815007E-006  0.1038944E+04  0.7818608E-02  0.8745371E-01
         21   -1    0    0  501  502  0.00000000000E+00  0.00000000000E+00  0.45632871337E+03  0.45632871337E+03  0.00000000000E+00 0. -1.
         21   -1    0    0  502  503 -0.00000000000E+00 -0.00000000000E+00 -0.23300477861E+04  0.23300477861E+04  0.00000000000E+00 0. -1.
   -9000010    2    1    2    0  503 -0.16610908641E+03  0.23719772293E+03 -0.76703998325E+03  0.12684357558E+04  0.96784499916E+03 0.  0.
    9000010    2    1    2  501    0  0.16610908641E+03 -0.23719772293E+03 -0.11066790895E+04  0.15179407436E+04  0.99777277262E+03 0.  0.
        -13    1    4    4    0    0  0.27301406784E+03 -0.45902969976E+03 -0.18701455246E+03  0.56587931619E+03  0.10566000000E+00 0.  1.
          4    1    4    4  501    0 -0.10690498142E+03  0.22183197683E+03 -0.91966453702E+03  0.95206142746E+03  0.00000000000E+00 0.  1.
         13    1    3    3    0    0 -0.15963072623E+03  0.42726858140E+03 -0.91836594609E+03  0.10253957439E+04  0.10566000000E+00 0. -1.
         -4    1    3    3    0  503 -0.64783601781E+01 -0.19007085847E+03  0.15132596284E+03  0.24304001197E+03  0.00000000000E+00 0. -1.
<mgrwt>
<rscale>  2 0.10316920E+04</rscale>
<asrwt>0</asrwt>
<pdfrwt beam="1">  1       21 0.70204417E-01 0.10389444E+04</pdfrwt>
<pdfrwt beam="2">  1       21 0.35846889E+00 0.10389444E+04</pdfrwt>
<totfact> 0.98766973E+00</totfact>
</mgrwt>
</event>
<event>
 8    1  0.5815007E-006  0.1053870E+04  0.7818608E-02  0.8729027E-01
         21   -1    0    0  503  502  0.00000000000E+00  0.00000000000E+00  0.11458647789E+04  0.11458647789E+04  0.00000000000E+00 0. -1.
         21   -1    0    0  501  503 -0.00000000000E+00 -0.00000000000E+00 -0.99469536652E+03  0.99469536652E+03  0.00000000000E+00 0. -1.
    9000010    2    1    2  501    0  0.19393482686E+03 -0.21367398586E+03 -0.13778434459E+03  0.10628388847E+04  0.10135949289E+04 0.  0.
   -9000010    2    1    2    0  502 -0.19393482686E+03  0.21367398586E+03  0.28895375695E+03  0.10777212607E+04  0.99735728441E+03 0.  0.
        -13    1    3    3    0    0  0.17972469751E+03  0.63618661001E+02  0.40807847992E+03  0.45041798128E+03  0.10566000000E+00 0.  1.
          4    1    3    3  501    0  0.14210129352E+02 -0.27729264686E+03 -0.54586282451E+03  0.61242090343E+03  0.00000000000E+00 0.  1.
         13    1    4    4    0    0  0.51958880269E+02  0.37285544866E+03  0.56255523873E+03  0.67689683012E+03  0.10566000000E+00 0. -1.
         -4    1    4    4    0  502 -0.24589370713E+03 -0.15918146280E+03 -0.27360148178E+03  0.40082443057E+03  0.00000000000E+00 0. -1.
<mgrwt>
<rscale>  2 0.10499462E+04</rscale>
<asrwt>0</asrwt>
<pdfrwt beam="1">  1       21 0.17628689E+00 0.10538700E+04</pdfrwt>
<pdfrwt beam="2">  1       21 0.15303006E+00 0.10538700E+04</pdfrwt>
<totfact> 0.26240225E+01</totfact>
</mgrwt>
</event>
<event>
 8    1  0.5815007E-006  0.1326550E+04  0.7818608E-02  0.8517832E-01
         21   -1    0    0  503  502  0.00000000000E+00  0.00000000000E+00  0.47158565696E+03  0.47158565696E+03  0.00000000000E+00 0. -1.
         21   -1    0    0  501  503 -0.00000000000E+00 -0.00000000000E+00 -0.37173120332E+04  0.37173120332E+04  0.00000000000E+00 0. -1.
    9000010    2    1    2  501    0 -0.44750193586E+03  0.75344990757E+03 -0.16582272811E+04  0.21201088059E+04  0.98853370573E+03 0.  0.
   -9000010    2    1    2    0  502  0.44750193586E+03 -0.75344990757E+03 -0.15874990951E+04  0.20687888842E+04  0.99588620064E+03 0.  0.
        -13    1    3    3    0    0 -0.43537537961E+03  0.23231890105E+02 -0.18072939345E+03  0.47196881964E+03  0.10566000000E+00 0.  1.
          4    1    3    3  501    0 -0.12126556247E+02  0.73021801746E+03 -0.14774978877E+04  0.16481399863E+04  0.00000000000E+00 0.  1.
         13    1    4    4    0    0  0.11180215723E+03 -0.38980792826E+03  0.42990287547E+00  0.40552452364E+03  0.10566000000E+00 0. -1.
         -4    1    4    4    0  502  0.33569977863E+03 -0.36364197931E+03 -0.15879289980E+04  0.16632643605E+04  0.00000000000E+00 0. -1.
<mgrwt>
<rscale>  2 0.13251698E+04</rscale>
<asrwt>0</asrwt>
<pdfrwt beam="1">  1       21 0.72551639E-01 0.13265497E+04</pdfrwt>
<pdfrwt beam="2">  1       21 0.57189416E+00 0.13265497E+04</pdfrwt>
<totfact> 0.27197264E-01</totfact>
</mgrwt>
</event>
<event>
 8    1  0.5815007E-006  0.1015508E+04  0.7818608E-02  0.8760229E-01
         21   -1    0    0  503  502  0.00000000000E+00  0.00000000000E+00  0.10308839570E+04  0.10308839570E+04  0.00000000000E+00 0. -1.
         21   -1    0    0  501  503 -0.00000000000E+00 -0.00000000000E+00 -0.10004367798E+04  0.10004367798E+04  0.00000000000E+00 0. -1.
    9000010    2    1    2  501    0 -0.12639270960E+03  0.14273080916E+03 -0.47485258544E+01  0.10155188340E+04  0.99745112805E+03 0.  0.
   -9000010    2    1    2    0  502  0.12639270960E+03 -0.14273080916E+03  0.35195703054E+02  0.10158019028E+04  0.99712966426E+03 0.  0.
        -13    1    3    3    0    0 -0.16589655180E+03 -0.41352346203E+03 -0.80400346119E+02  0.45275550396E+03  0.10566000000E+00 0.  1.
          4    1    3    3  501    0  0.39503842200E+02  0.55625427119E+03  0.75651820264E+02  0.56276333007E+03  0.00000000000E+00 0.  1.
         13    1    4    4    0    0  0.62301869441E+02  0.42609207054E+03  0.92735726319E+02  0.44049506423E+03  0.10566000000E+00 0. -1.
         -4    1    4    4    0  502  0.64090840162E+02 -0.56882287970E+03 -0.57540023265E+02  0.57530683860E+03  0.00000000000E+00 0. -1.
<mgrwt>
<rscale>  2 0.10154288E+04</rscale>
<asrwt>0</asrwt>
<pdfrwt beam="1">  1       21 0.15859753E+00 0.10155077E+04</pdfrwt>
<pdfrwt beam="2">  1       21 0.15391335E+00 0.10155077E+04</pdfrwt>
<totfact> 0.36672023E+01</totfact>
</mgrwt>
</event>
<event>
 8    1  0.5815007E-006  0.1166404E+04  0.7818608E-02  0.8633050E-01
         21   -1    0    0  501  502  0.00000000000E+00  0.00000000000E+00  0.91987057252E+03  0.91987057252E+03  0.00000000000E+00 0. -1.
         21   -1    0    0  502  503 -0.00000000000E+00 -0.00000000000E+00 -0.15754082598E+04  0.15754082598E+04  0.00000000000E+00 0.  1.
   -9000010    2    1    2    0  503 -0.33514267721E+03  0.49631063584E+03 -0.64358792164E+03  0.13288134638E+04  0.99644114091E+03 0.  0.
    9000010    2    1    2  501    0  0.33514267721E+03 -0.49631063584E+03 -0.11949765638E+02  0.11664653685E+04  0.10009264697E+04 0.  0.
        -13    1    4    4    0    0 -0.66049313372E+02 -0.53385438779E+03  0.33586614190E+03  0.63416803420E+03  0.10566000000E+00 0.  1.
          4    1    4    4  501    0  0.40119199058E+03  0.37543751954E+02 -0.34781590753E+03  0.53229733435E+03  0.00000000000E+00 0.  1.
         13    1    3    3    0    0 -0.11503102461E+03  0.77964641614E+03 -0.33794172746E+03  0.85748778017E+03  0.10566000000E+00 0. -1.
         -4    1    3    3    0  503 -0.22011165261E+03 -0.28333578030E+03 -0.30564619418E+03  0.47132568361E+03  0.00000000000E+00 0. -1.
<mgrwt>
<rscale>  2 0.11654413E+04</rscale>
<asrwt>0</asrwt>
<pdfrwt beam="1">  1       21 0.14151855E+00 0.11664042E+04</pdfrwt>
<pdfrwt beam="2">  1       21 0.24237050E+00 0.11664042E+04</pdfrwt>
<totfact> 0.10055693E+01</totfact>
</mgrwt>
</event>
<event>
 8    1  0.5815007E-006  0.1118284E+04  0.7818608E-02  0.8674341E-01
         21   -1    0    0  503  502  0.00000000000E+00  0.00000000000E+00  0.10831408405E+04  0.10831408405E+04  0.00000000000E+00 0.  1.
         21   -1    0    0  501  503 -0.00000000000E+00 -0.00000000000E+00 -0.11571677403E+04  0.11571677403E+04  0.00000000000E+00 0.  1.
    9000010    2    1    2  501    0 -0.21047384301E+03  0.41878362560E+03 -0.18521024143E+03  0.11165112061E+04  0.99630089643E+03 0.  0.
   -9000010    2    1    2    0  502  0.21047384301E+03 -0.41878362560E+03  0.11118334157E+03  0.11237973747E+04  0.10153225301E+04 0.  0.
        -13    1    3    3    0    0  0.36593416161E+02  0.17786938032E+02 -0.53078014072E+03  0.53233731996E+03  0.10566000000E+00 0.  1.
          4    1    3    3  501    0 -0.24706725917E+03  0.40099668757E+03  0.34556989929E+03  0.58417388618E+03  0.00000000000E+00 0.  1.
         13    1    4    4    0    0  0.51509605280E+03 -0.10744287580E+03 -0.22629531897E+03  0.57278049698E+03  0.10566000000E+00 0. -1.
         -4    1    4    4    0  502 -0.30462220979E+03 -0.31134074980E+03  0.33747866054E+03  0.55101687769E+03  0.00000000000E+00 0. -1.
<mgrwt>
<rscale>  2 0.11139484E+04</rscale>
<asrwt>0</asrwt>
<pdfrwt beam="1">  1       21 0.16663705E+00 0.11182839E+04</pdfrwt>
<pdfrwt beam="2">  1       21 0.17802581E+00 0.11182839E+04</pdfrwt>
<totfact> 0.19098109E+01</totfact>
</mgrwt>
</event>
<event>
 8    1  0.5815007E-006  0.1128905E+04  0.7818608E-02  0.8668077E-01
         21   -1    0    0  501  502  0.00000000000E+00  0.00000000000E+00  0.12381277657E+04  0.12381277657E+04  0.00000000000E+00 0. -1.
         21   -1    0    0  502  503 -0.00000000000E+00 -0.00000000000E+00 -0.12264063485E+04  0.12264063485E+04  0.00000000000E+00 0. -1.
   -9000010    2    1    2    0  503 -0.31084456790E+03  0.40890263009E+03 -0.52007192558E+03  0.12166433101E+04  0.97258440759E+03 0.  0.
    9000010    2    1    2  501    0  0.31084456790E+03 -0.40890263009E+03  0.53179334275E+03  0.12478908041E+04  0.10052868214E+04 0.  0.
        -13    1    4    4    0    0 -0.78996855279E+01  0.26139590243E+03 -0.93146412002E+02  0.27760851585E+03  0.10566000000E+00 0.  1.
          4    1    4    4  501    0  0.31874425343E+03 -0.67029853252E+03  0.62493975476E+03  0.97028228824E+03  0.00000000000E+00 0.  1.
         13    1    3    3    0    0 -0.63020960996E+03  0.10397142372E+03 -0.41828039628E+03  0.76350030158E+03  0.10566000000E+00 0. -1.
         -4    1    3    3    0  503  0.31936504206E+03  0.30493120637E+03 -0.10179152930E+03  0.45314300849E+03  0.00000000000E+00 0. -1.
<mgrwt>
<rscale>  2 0.11215792E+04</rscale>
<asrwt>0</asrwt>
<pdfrwt beam="1">  1       21 0.19048120E+00 0.11289054E+04</pdfrwt>
<pdfrwt beam="2">  1       21 0.18867790E+00 0.11289054E+04</pdfrwt>
<totfact> 0.99503340E+00</totfact>
</mgrwt>
</event>
<event>
 8    1  0.5815007E-006  0.1075033E+04  0.7818608E-02  0.8714736E-01
         21   -1    0    0  501  502  0.00000000000E+00  0.00000000000E+00  0.12599952506E+04  0.12599952506E+04  0.00000000000E+00 0. -1.
         21   -1    0    0  502  503 -0.00000000000E+00 -0.00000000000E+00 -0.98352621023E+03  0.98352621023E+03  0.00000000000E+00 0. -1.
   -9000010    2    1    2    0  503 -0.85259597626E+02 -0.32971588845E+03 -0.21377455118E+03  0.10619819193E+04  0.98291620804E+03 0.  0.
    9000010    2    1    2  501    0  0.85259597626E+02  0.32971588845E+03  0.49024359158E+03  0.11815395416E+04  0.10196642306E+04 0.  0.
        -13    1    4    4    0    0 -0.10286129607E+03 -0.20120403295E+03 -0.19221013402E+03  0.29666185446E+03  0.10566000000E+00 0.  1.
          4    1    4    4  501    0  0.18812089369E+03  0.53091992141E+03  0.68245372560E+03  0.88487768713E+03  0.00000000000E+00 0.  1.
         13    1    3    3    0    0  0.39773057641E+03 -0.13736120215E+03  0.12799583907E+03  0.43981889142E+03  0.10566000000E+00 0. -1.
         -4    1    3    3    0  503 -0.48299017404E+03 -0.19235468630E+03 -0.34177039025E+03  0.62216302784E+03  0.00000000000E+00 0. -1.
<mgrwt>
<rscale>  2 0.10662283E+04</rscale>
<asrwt>0</asrwt>
<pdfrwt beam="1">  1       21 0.19384542E+00 0.10750334E+04</pdfrwt>
<pdfrwt beam="2">  1       21 0.15131172E+00 0.10750334E+04</pdfrwt>
<totfact> 0.19520138E+01</totfact>
</mgrwt>
</event>
<event>
 8    1  0.5815007E-006  0.1281688E+04  0.7818608E-02  0.8549215E-01
         21   -1    0    0  503  502  0.00000000000E+00  0.00000000000E+00  0.30259316437E+04  0.30259316437E+04  0.00000000000E+00 0.  1.
         21   -1    0    0  501  503 -0.00000000000E+00 -0.00000000000E+00 -0.54424391404E+03  0.54424391404E+03  0.00000000000E+00 0.  1.
    9000010    2    1    2  501    0  0.21996248313E+03  0.76915680539E+03  0.14268086427E+04  0.19179431700E+04  0.10013677722E+04 0.  0.
   -9000010    2    1    2    0  502 -0.21996248313E+03 -0.76915680539E+03  0.10548790869E+04  0.16522323877E+04  0.98849192700E+03 0.  0.
        -13    1    3    3    0    0  0.35870831872E+03  0.17462122004E+03  0.37866038445E+02  0.40074689822E+03  0.10566000000E+00 0.  1.
          4    1    3    3  501    0 -0.13874583559E+03  0.59453558535E+03  0.13889426043E+04  0.15171962718E+04  0.00000000000E+00 0.  1.
         13    1    4    4    0    0  0.36207136254E+03 -0.19860502691E+03  0.16282284858E+03  0.44390417825E+03  0.10566000000E+00 0. -1.
         -4    1    4    4    0  502 -0.58203384567E+03 -0.57055177848E+03  0.89205623833E+03  0.12083282095E+04  0.00000000000E+00 0. -1.
<mgrwt>
<rscale>  2 0.12791716E+04</rscale>
<asrwt>0</asrwt>
<pdfrwt beam="1">  1       21 0.46552794E+00 0.12816876E+04</pdfrwt>
<pdfrwt beam="2">  1       21 0.83729835E-01 0.12816876E+04</pdfrwt>
<totfact> 0.11056488E+00</totfact>
</mgrwt>
</event>
<event>
 8    1  0.5815007E-006  0.1058932E+04  0.7818608E-02  0.8721868E-01
         21   -1    0    0  501  502  0.00000000000E+00  0.00000000000E+00  0.78954138366E+03  0.78954138366E+03  0.00000000000E+00 0. -1.
         21   -1    0    0  502  503 -0.00000000000E+00 -0.00000000000E+00 -0.14307159384E+04  0.14307159384E+04  0.00000000000E+00 0. -1.
   -9000010    2    1    2    0  503  0.22421858469E+03  0.26602654043E+03 -0.20697583093E+03  0.10789695534E+04  0.10001460936E+04 0.  0.
    9000010    2    1    2  501    0 -0.22421858469E+03 -0.26602654043E+03 -0.43419872382E+03  0.11412877687E+04  0.99647636464E+03 0.  0.
        -13    1    4    4    0    0  0.18988055443E+03 -0.39877169835E+03 -0.53614685927E+03  0.69464160416E+03  0.10566000000E+00 0.  1.
          4    1    4    4  501    0 -0.41409913912E+03  0.13274515792E+03  0.10194813546E+03  0.44664616454E+03  0.00000000000E+00 0.  1.
         13    1    3    3    0    0  0.20549581454E+03 -0.18536966890E+03  0.29441035046E+03  0.40406423940E+03  0.10566000000E+00 0. -1.
         -4    1    3    3    0  503  0.18722770148E+02  0.45139620933E+03 -0.50138618140E+03  0.67490531396E+03  0.00000000000E+00 0. -1.
<mgrwt>
<rscale>  2 0.10580643E+04</rscale>
<asrwt>0</asrwt>
<pdfrwt beam="1">  1       21 0.12146791E+00 0.10589317E+04</pdfrwt>
<pdfrwt beam="2">  1       21 0.22011014E+00 0.10589317E+04</pdfrwt>
<totfact> 0.23477519E+01</totfact>
</mgrwt>
</event>
<event>
 8    1  0.5815007E-006  0.1117059E+04  0.7818608E-02  0.8676644E-01
         21   -1    0    0  501  502  0.00000000000E+00  0.00000000000E+00  0.14722581019E+04  0.14722581019E+04  0.00000000000E+00 0. -1.
         21   -1    0    0  502  503 -0.00000000000E+00 -0.00000000000E+00 -0.89300054042E+03  0.89300054042E+03  0.00000000000E+00 0. -1.
   -9000010    2    1    2    0  503 -0.52952401937E+03 -0.72133362995E+02 -0.21918818452E+02  0.11172735397E+04  0.98092854921E+03 0.  0.
    9000010    2    1    2  501    0  0.52952401937E+03  0.72133362995E+02  0.60117637992E+03  0.12479851027E+04  0.95417758700E+03 0.  0.
        -13    1    4    4    0    0 -0.24897633027E+03 -0.13191507948E+03  0.22002450404E+03  0.35749348913E+03  0.10566000000E+00 0.  1.
          4    1    4    4  501    0  0.77850034964E+03  0.20404844248E+03  0.38115187588E+03  0.89049161352E+03  0.00000000000E+00 0.  1.
         13    1    3    3    0    0  0.24938175409E+03  0.14930931476E+03  0.79078131833E+02  0.30122731092E+03  0.10566000000E+00 0. -1.
         -4    1    3    3    0  503 -0.77890577346E+03 -0.22144267776E+03 -0.10099695029E+03  0.81604622873E+03  0.00000000000E+00 0. -1.
<mgrwt>
<rscale>  2 0.11111579E+04</rscale>
<asrwt>0</asrwt>
<pdfrwt beam="1">  1       21 0.22650125E+00 0.11170585E+04</pdfrwt>
<pdfrwt beam="2">  1       21 0.13738470E+00 0.11170585E+04</pdfrwt>
<totfact> 0.14549552E+01</totfact>
</mgrwt>
</event>
<event>
 8    1  0.5815007E-006  0.1072061E+04  0.7818608E-02  0.8714417E-01
         21   -1    0    0  503  502  0.00000000000E+00  0.00000000000E+00  0.10645547580E+04  0.10645547580E+04  0.00000000000E+00 0.  1.
         21   -1    0    0  501  503 -0.00000000000E+00 -0.00000000000E+00 -0.10823501045E+04  0.10823501045E+04  0.00000000000E+00 0.  1.
    9000010    2    1    2  501    0  0.36380888517E+03 -0.11990566468E+03  0.15256987153E+03  0.10613918897E+04  0.97802909188E+03 0.  0.
   -9000010    2    1    2    0  502 -0.36380888517E+03  0.11990566468E+03 -0.17036521809E+03  0.10855129727E+04  0.10012890857E+04 0.  0.
        -13    1    3    3    0    0  0.38597143363E+03  0.23870573748E+03 -0.25298496745E+03  0.51957269136E+03  0.10566000000E+00 0.  1.
          4    1    3    3  501    0 -0.22162548453E+02 -0.35861140216E+03  0.40555483899E+03  0.54181919839E+03  0.00000000000E+00 0.  1.
         13    1    4    4    0    0 -0.22150764224E+03 -0.39378223599E+03  0.13456657315E+03  0.47142152976E+03  0.10566000000E+00 0. -1.
         -4    1    4    4    0  502 -0.14230124294E+03  0.51368790067E+03 -0.30493179124E+03  0.61409144298E+03  0.00000000000E+00 0. -1.
<mgrwt>
<rscale>  2 0.10665961E+04</rscale>
<asrwt>0</asrwt>
<pdfrwt beam="1">  1       21 0.16377765E+00 0.10720607E+04</pdfrwt>
<pdfrwt beam="2">  1       21 0.16651540E+00 0.10720607E+04</pdfrwt>
<totfact> 0.25444454E+01</totfact>
</mgrwt>
</event>
<event>
 8    1  0.5815007E-006  0.1570415E+04  0.7818608E-02  0.8371518E-01
         21   -1    0    0  501  502  0.00000000000E+00  0.00000000000E+00  0.25967738539E+04  0.25967738539E+04  0.00000000000E+00 0.  1.
         21   -1    0    0  502  503 -0.00000000000E+00 -0.00000000000E+00 -0.10435352204E+04  0.10435352204E+04  0.00000000000E+00 0. -1.
   -9000010    2    1    2    0  503  0.42683488860E+03 -0.11173813239E+04  0.21046316360E+03  0.15740930469E+04  0.10013716254E+04 0.  0.
    9000010    2    1    2  501    0 -0.42683488860E+03  0.11173813239E+04  0.13427754699E+04  0.20662160273E+04  0.10175822638E+04 0.  0.
        -13    1    4    4    0    0 -0.39664134174E+03  0.13001880387E+04  0.12889142485E+04  0.18732627261E+04  0.10566000000E+00 0.  1.
          4    1    4    4  501    0 -0.30193546861E+02 -0.18280671482E+03  0.53861221476E+02  0.19295330118E+03  0.00000000000E+00 0.  1.
         13    1    3    3    0    0 -0.19465404245E+03  0.80336315200E+02  0.25838295580E+02  0.21215972395E+03  0.10566000000E+00 0. -1.
         -4    1    3    3    0  503  0.62148893105E+03 -0.11977176391E+04  0.18462486801E+03  0.13619333230E+04  0.00000000000E+00 0. -1.
<mgrwt>
<rscale>  2 0.15677945E+04</rscale>
<asrwt>0</asrwt>
<pdfrwt beam="1">  1       21 0.39950367E+00 0.15704148E+04</pdfrwt>
<pdfrwt beam="2">  1       21 0.16054388E+00 0.15704148E+04</pdfrwt>
<totfact> 0.48622266E-01</totfact>
</mgrwt>
</event>
<event>
 8    1  0.5815007E-006  0.1316011E+04  0.7818608E-02  0.8525489E-01
         21   -1    0    0  503  502  0.00000000000E+00  0.00000000000E+00  0.28199132333E+04  0.28199132333E+04  0.00000000000E+00 0.  1.
         21   -1    0    0  501  503 -0.00000000000E+00 -0.00000000000E+00 -0.61407027594E+03  0.61407027594E+03  0.00000000000E+00 0.  1.
    9000010    2    1    2  501    0  0.53772143471E+03 -0.68557593864E+03  0.12466310173E+04  0.18127257182E+04  0.98626919619E+03 0.  0.
   -9000010    2    1    2    0  502 -0.53772143471E+03  0.68557593864E+03  0.95921194011E+03  0.16212577910E+04  0.97428464523E+03 0.  0.
        -13    1    3    3    0    0 -0.52851011527E+02 -0.61110054034E+03  0.27264233436E+03  0.67124582194E+03  0.10566000000E+00 0.  1.
          4    1    3    3  501    0  0.59057244623E+03 -0.74475398293E+02  0.97398868291E+03  0.11414798963E+04  0.00000000000E+00 0.  1.
         13    1    4    4    0    0 -0.32931673139E+03  0.92786527130E+03  0.67666914434E+03  0.11946818042E+04  0.10566000000E+00 0. -1.
         -4    1    4    4    0  502 -0.20840470331E+03 -0.24228933266E+03  0.28254279577E+03  0.42657598681E+03  0.00000000000E+00 0. -1.
<mgrwt>
<rscale>  2 0.13137661E+04</rscale>
<asrwt>0</asrwt>
<pdfrwt beam="1">  1       21 0.43383280E+00 0.13160113E+04</pdfrwt>
<pdfrwt beam="2">  1       21 0.94472352E-01 0.13160113E+04</pdfrwt>
<totfact> 0.13398383E+00</totfact>
</mgrwt>
</event>
<event>
 8    1  0.5815007E-006  0.1469277E+04  0.7818608E-02  0.8428925E-01
         21   -1    0    0  501  502  0.00000000000E+00  0.00000000000E+00  0.21183293273E+04  0.21183293273E+04  0.00000000000E+00 0.  1.
         21   -1    0    0  502  503 -0.00000000000E+00 -0.00000000000E+00 -0.13417485982E+04  0.13417485982E+04  0.00000000000E+00 0.  1.
   -9000010    2    1    2    0  503 -0.92801052488E+03 -0.52550363466E+03 -0.47041586639E+03  0.15329617957E+04  0.99565213574E+03 0.  0.
    9000010    2    1    2  501    0  0.92801052488E+03  0.52550363466E+03  0.12469965955E+04  0.19271161298E+04  0.10106524942E+04 0.  0.
        -13    1    4    4    0    0  0.14865076019E+03  0.34877439277E+03  0.10321709643E+04  0.10995988070E+04  0.10566000000E+00 0.  1.
          4    1    4    4  501    0  0.77935976468E+03  0.17672924190E+03  0.21482563123E+03  0.82751732283E+03  0.00000000000E+00 0.  1.
         13    1    3    3    0    0 -0.35949403347E+03 -0.34111174492E+03 -0.72920773662E+03  0.88166723708E+03  0.10566000000E+00 0. -1.
         -4    1    3    3    0  503 -0.56851649140E+03 -0.18439188974E+03  0.25879187023E+03  0.65129455863E+03  0.00000000000E+00 0. -1.
<mgrwt>
<rscale>  2 0.14667013E+04</rscale>
<asrwt>0</asrwt>
<pdfrwt beam="1">  1       21 0.32589682E+00 0.14692774E+04</pdfrwt>
<pdfrwt beam="2">  1       21 0.20642286E+00 0.14692774E+04</pdfrwt>
<totfact> 0.68497092E-01</totfact>
</mgrwt>
</event>
<event>
 8    1  0.5815007E-006  0.1036869E+04  0.7818608E-02  0.8742189E-01
         21   -1    0    0  503  502  0.00000000000E+00  0.00000000000E+00  0.11217140375E+04  0.11217140375E+04  0.00000000000E+00 0.  1.
         21   -1    0    0  501  503 -0.00000000000E+00 -0.00000000000E+00 -0.97155067453E+03  0.97155067453E+03  0.00000000000E+00 0.  1.
    9000010    2    1    2  501    0 -0.10135042511E+03 -0.32600905157E+03 -0.71798374679E+02  0.10393520031E+04  0.97905248547E+03 0.  0.
   -9000010    2    1    2    0  502  0.10135042511E+03  0.32600905157E+03  0.22196173765E+03  0.10539127090E+04  0.97206541692E+03 0.  0.
        -13    1    3    3    0    0 -0.14920989744E+03  0.24871477723E+03  0.24649526927E+03  0.38063442151E+03  0.10566000000E+00 0.  1.
          4    1    3    3  501    0  0.47859472329E+02 -0.57472382879E+03 -0.31829364395E+03  0.65871758156E+03  0.00000000000E+00 0.  1.
         13    1    4    4    0    0 -0.29170085674E+03  0.46098688149E+03 -0.64267796945E+02  0.54929833025E+03  0.10566000000E+00 0. -1.
         -4    1    4    4    0  502  0.39305128184E+03 -0.13497782993E+03  0.28622953460E+03  0.50461437872E+03  0.00000000000E+00 0. -1.
<mgrwt>
<rscale>  2 0.10352165E+04</rscale>
<asrwt>0</asrwt>
<pdfrwt beam="1">  1       21 0.17257139E+00 0.10368691E+04</pdfrwt>
<pdfrwt beam="2">  1       21 0.14946933E+00 0.10368691E+04</pdfrwt>
<totfact> 0.30410922E+01</totfact>
</mgrwt>
</event>
<event>
 8    1  0.5815007E-006  0.1123429E+04  0.7818608E-02  0.8670177E-01
         21   -1    0    0  501  502  0.00000000000E+00  0.00000000000E+00  0.25319545593E+04  0.25319545593E+04  0.00000000000E+00 0.  1.
         21   -1    0    0  502  503 -0.00000000000E+00 -0.00000000000E+00 -0.60271338442E+03  0.60271338442E+03  0.00000000000E+00 0.  1.
   -9000010    2    1    2    0  503  0.27445509738E+03  0.42884532223E+03  0.28278936021E+03  0.11414551878E+04  0.98169048714E+03 0.  0.
    9000010    2    1    2  501    0 -0.27445509738E+03 -0.42884532223E+03  0.16464518147E+04  0.19932127560E+04  0.10014287801E+04 0.  0.
        -13    1    4    4    0    0 -0.52481427356E+03  0.54051897406E+01  0.12446998131E+04  0.13508282177E+04  0.10566000000E+00 0.  1.
          4    1    4    4  501    0  0.25035917618E+03 -0.43425051197E+03  0.40175200154E+03  0.64238453825E+03  0.00000000000E+00 0.  1.
         13    1    3    3    0    0  0.60890005907E+03  0.46623177721E+03  0.16135589084E+03  0.78368813101E+03  0.10566000000E+00 0. -1.
         -4    1    3    3    0  503 -0.33444496168E+03 -0.37386454982E+02  0.12143346937E+03  0.35776705675E+03  0.00000000000E+00 0. -1.
<mgrwt>
<rscale>  2 0.11190137E+04</rscale>
<asrwt>0</asrwt>
<pdfrwt beam="1">  1       21 0.38953147E+00 0.11234294E+04</pdfrwt>
<pdfrwt beam="2">  1       21 0.92725137E-01 0.11234294E+04</pdfrwt>
<totfact> 0.29558464E+00</totfact>
</mgrwt>
</event>
<event>
 8    1  0.5815007E-006  0.1258808E+04  0.7818608E-02  0.8564233E-01
         21   -1    0    0  503  502  0.00000000000E+00  0.00000000000E+00  0.56053094157E+03  0.56053094157E+03  0.00000000000E+00 0.  1.
         21   -1    0    0  501  503 -0.00000000000E+00 -0.00000000000E+00 -0.28749837472E+04  0.28749837472E+04  0.00000000000E+00 0. -1.
    9000010    2    1    2  501    0 -0.57908270886E+03 -0.49900046744E+03 -0.13966761400E+04  0.18776595139E+04  0.99527019442E+03 0.  0.
   -9000010    2    1    2    0  502  0.57908270886E+03  0.49900046744E+03 -0.91777666560E+03  0.15578551749E+04  0.10001302354E+04 0.  0.
        -13    1    3    3    0    0 -0.51779390357E+03 -0.60736892497E+03 -0.43698193318E+03  0.90992349056E+03  0.10566000000E+00 0.  1.
          4    1    3    3  501    0 -0.61288805293E+02  0.10836845753E+03 -0.95969420685E+03  0.96773602336E+03  0.00000000000E+00 0.  1.
         13    1    4    4    0    0  0.54937658824E+03  0.75674343197E+03 -0.48539398273E+03  0.10536045687E+04  0.10566000000E+00 0. -1.
         -4    1    4    4    0  502  0.29706120617E+02 -0.25774296453E+03 -0.43238268287E+03  0.50425060616E+03  0.00000000000E+00 0. -1.
<mgrwt>
<rscale>  2 0.12578429E+04</rscale>
<asrwt>0</asrwt>
<pdfrwt beam="1">  1       21 0.86235529E-01 0.12588085E+04</pdfrwt>
<pdfrwt beam="2">  1       21 0.44230519E+00 0.12588085E+04</pdfrwt>
<totfact> 0.14949911E+00</totfact>
</mgrwt>
</event>
<event>
 8    1  0.5815007E-006  0.1230765E+04  0.7818608E-02  0.8586257E-01
         21   -1    0    0  501  502  0.00000000000E+00  0.00000000000E+00  0.12298017921E+04  0.12298017921E+04  0.00000000000E+00 0. -1.
         21   -1    0    0  502  503 -0.00000000000E+00 -0.00000000000E+00 -0.13080947673E+04  0.13080947673E+04  0.00000000000E+00 0. -1.
   -9000010    2    1    2    0  503  0.67703344254E+03  0.17458125724E+03 -0.37218651860E+03  0.12858091978E+04  0.10128818246E+04 0.  0.
    9000010    2    1    2  501    0 -0.67703344254E+03 -0.17458125724E+03  0.29389354334E+03  0.12520873616E+04  0.99624115987E+03 0.  0.
        -13    1    4    4    0    0 -0.68334557190E+03  0.89142858231E+02  0.55204973207E+03  0.88298728057E+03  0.10566000000E+00 0.  1.
          4    1    4    4  501    0  0.63121293596E+01 -0.26372411547E+03 -0.25815618872E+03  0.36910008105E+03  0.00000000000E+00 0.  1.
         13    1    3    3    0    0  0.41764611808E+03 -0.40633588113E+03 -0.26707150774E+03  0.64098699648E+03  0.10566000000E+00 0. -1.
         -4    1    3    3    0  503  0.25938732446E+03  0.58091713837E+03 -0.10511501086E+03  0.64482220127E+03  0.00000000000E+00 0. -1.
<mgrwt>
<rscale>  2 0.12273362E+04</rscale>
<asrwt>0</asrwt>
<pdfrwt beam="1">  1       21 0.18920028E+00 0.12307650E+04</pdfrwt>
<pdfrwt beam="2">  1       21 0.20124535E+00 0.12307650E+04</pdfrwt>
<totfact> 0.79322949E+00</totfact>
</mgrwt>
</event>
<event>
 8    1  0.5815007E-006  0.1089103E+04  0.7818608E-02  0.8699737E-01
         21   -1    0    0  503  502  0.00000000000E+00  0.00000000000E+00  0.26571037212E+04  0.26571037212E+04  0.00000000000E+00 0. -1.
         21   -1    0    0  501  503 -0.00000000000E+00 -0.00000000000E+00 -0.61394468499E+03  0.61394468499E+03  0.00000000000E+00 0. -1.
    9000010    2    1    2  501    0  0.35844562988E+03 -0.12865938553E+03  0.15231778116E+03  0.10997025342E+04  0.10203472205E+04 0.  0.
   -9000010    2    1    2    0  502 -0.35844562988E+03  0.12865938553E+03  0.18908412550E+04  0.21713458719E+04  0.99720897347E+03 0.  0.
        -13    1    3    3    0    0  0.63949590247E+03  0.16371845083E+03 -0.16716299851E+02  0.66033187585E+03  0.10566000000E+00 0.  1.
          4    1    3    3  501    0 -0.28105027259E+03 -0.29237783636E+03  0.16903408101E+03  0.43937065840E+03  0.00000000000E+00 0.  1.
         13    1    4    4    0    0 -0.24027569340E+03 -0.40315988930E+03  0.12199680950E+04  0.13071313894E+04  0.10566000000E+00 0. -1.
         -4    1    4    4    0  502 -0.11816993649E+03  0.53181927483E+03  0.67087316006E+03  0.86421448255E+03  0.00000000000E+00 0. -1.
<mgrwt>
<rscale>  2 0.10836503E+04</rscale>
<asrwt>0</asrwt>
<pdfrwt beam="1">  1       21 0.40878518E+00 0.10891028E+04</pdfrwt>
<pdfrwt beam="2">  1       21 0.94453030E-01 0.10891028E+04</pdfrwt>
<totfact> 0.20873015E+00</totfact>
</mgrwt>
</event>
<event>
 8    1  0.5815007E-006  0.1227827E+04  0.7818608E-02  0.8588405E-01
         21   -1    0    0  501  502  0.00000000000E+00  0.00000000000E+00  0.81128110855E+03  0.81128110855E+03  0.00000000000E+00 0.  1.
         21   -1    0    0  502  503 -0.00000000000E+00 -0.00000000000E+00 -0.24807332602E+04  0.24807332602E+04  0.00000000000E+00 0.  1.
   -9000010    2    1    2    0  503 -0.64235297907E+03 -0.22568751280E+03 -0.16761942801E+04  0.20777839417E+04  0.10217664315E+04 0.  0.
    9000010    2    1    2  501    0  0.64235297907E+03  0.22568751280E+03  0.67421284790E+01  0.12142304270E+04  0.10053645460E+04 0.  0.
        -13    1    4    4    0    0 -0.26373968346E+03 -0.29300979003E+02  0.57704194334E+02  0.27156390263E+03  0.10566000000E+00 0.  1.
          4    1    4    4  501    0  0.90609266254E+03  0.25498849180E+03 -0.50962065855E+02  0.94266652439E+03  0.00000000000E+00 0.  1.
         13    1    3    3    0    0  0.24124303402E+03  0.99604186534E+02 -0.55759341632E+03  0.61565381874E+03  0.10566000000E+00 0. -1.
         -4    1    3    3    0  503 -0.88359601310E+03 -0.32529169933E+03 -0.11186008638E+04  0.14621301230E+04  0.00000000000E+00 0. -1.
<mgrwt>
<rscale>  2 0.12244088E+04</rscale>
<asrwt>0</asrwt>
<pdfrwt beam="1">  1       21 0.12481248E+00 0.12278269E+04</pdfrwt>
<pdfrwt beam="2">  1       21 0.38165127E+00 0.12278269E+04</pdfrwt>
<totfact> 0.14747406E+00</totfact>
</mgrwt>
</event>
<event>
 8    1  0.5815007E-006  0.1085084E+04  0.7818608E-02  0.8701914E-01
         21   -1    0    0  501  502  0.00000000000E+00  0.00000000000E+00  0.55850557829E+03  0.55850557829E+03  0.00000000000E+00 0.  1.
         21   -1    0    0  502  503 -0.00000000000E+00 -0.00000000000E+00 -0.20794178347E+04  0.20794178347E+04  0.00000000000E+00 0.  1.
   -9000010    2    1    2    0  503 -0.13575894792E+03 -0.39449531140E+03 -0.71439593615E+03  0.12859334974E+04  0.98448278987E+03 0.  0.
    9000010    2    1    2  501    0  0.13575894792E+03  0.39449531140E+03 -0.80651632030E+03  0.13519899156E+04  0.10016741558E+04 0.  0.
        -13    1    4    4    0    0  0.63862338289E+01 -0.33113516632E+02  0.22519479964E+03  0.22770594616E+03  0.10566000000E+00 0.  1.
          4    1    4    4  501    0  0.12937271409E+03  0.42760882803E+03 -0.10317111199E+04  0.11242839695E+04  0.00000000000E+00 0.  1.
         13    1    3    3    0    0 -0.39408330190E+03 -0.28541497169E+03 -0.84617465209E+03  0.97610189422E+03  0.10566000000E+00 0. -1.
         -4    1    3    3    0  503  0.25832435398E+03 -0.10908033971E+03  0.13177871593E+03  0.30983160320E+03  0.00000000000E+00 0. -1.
<mgrwt>
<rscale>  2 0.10811002E+04</rscale>
<asrwt>0</asrwt>
<pdfrwt beam="1">  1       21 0.85923935E-01 0.10850844E+04</pdfrwt>
<pdfrwt beam="2">  1       21 0.31991043E+00 0.10850844E+04</pdfrwt>
<totfact> 0.11155873E+01</totfact>
</mgrwt>
</event>
<event>
 8    1  0.5815007E-006  0.1039796E+04  0.7818608E-02  0.8770628E-01
         21   -1    0    0  503  502  0.00000000000E+00  0.00000000000E+00  0.23125664736E+04  0.23125664736E+04  0.00000000000E+00 0. -1.
         21   -1    0    0  501  503 -0.00000000000E+00 -0.00000000000E+00 -0.41759184385E+03  0.41759184385E+03  0.00000000000E+00 0. -1.
    9000010    2    1    2  501    0  0.27965766235E+03 -0.59114359181E+02  0.12102438956E+04  0.15955769422E+04  0.99973625326E+03 0.  0.
   -9000010    2    1    2    0  502 -0.27965766235E+03  0.59114359181E+02  0.68473073417E+03  0.11345813753E+04  0.85832150341E+03 0.  0.
        -13    1    3    3    0    0  0.21608632630E+03  0.42110495346E+03  0.28852391544E+03  0.55431826886E+03  0.10566000000E+00 0.  1.
          4    1    3    3  501    0  0.63571336044E+02 -0.48021931264E+03  0.92171998017E+03  0.10412586734E+04  0.00000000000E+00 0.  1.
         13    1    4    4    0    0  0.43303640091E+02 -0.29349808091E+03  0.57039951444E+03  0.64294007962E+03  0.10566000000E+00 0. -1.
         -4    1    4    4    0  502 -0.32296130244E+03  0.35261244009E+03  0.11433121973E+03  0.49164129565E+03  0.00000000000E+00 0. -1.
<mgrwt>
<rscale>  2 0.10042296E+04</rscale>
<asrwt>0</asrwt>
<pdfrwt beam="1">  1       21 0.35577945E+00 0.10397959E+04</pdfrwt>
<pdfrwt beam="2">  1       21 0.64244900E-01 0.10397959E+04</pdfrwt>
<totfact> 0.12709866E+01</totfact>
</mgrwt>
</event>
<event>
 8    1  0.5815007E-006  0.1202370E+04  0.7818608E-02  0.8605328E-01
         21   -1    0    0  501  502  0.00000000000E+00  0.00000000000E+00  0.13523066796E+04  0.13523066796E+04  0.00000000000E+00 0. -1.
         21   -1    0    0  502  503 -0.00000000000E+00 -0.00000000000E+00 -0.16269476306E+04  0.16269476306E+04  0.00000000000E+00 0. -1.
   -9000010    2    1    2    0  503 -0.13088175737E+03 -0.66367194443E+03 -0.10117521869E+04  0.15714121071E+04  0.99403372100E+03 0.  0.
    9000010    2    1    2  501    0  0.13088175737E+03  0.66367194443E+03  0.73711123598E+03  0.14078422030E+04  0.99050300865E+03 0.  0.
        -13    1    4    4    0    0  0.13034928850E+03  0.88574283769E+03  0.34942214181E+03  0.96105523040E+03  0.10566000000E+00 0.  1.
          4    1    4    4  501    0  0.53246886927E+00 -0.22207089326E+03  0.38768909416E+03  0.44678697261E+03  0.00000000000E+00 0.  1.
         13    1    3    3    0    0  0.15078962677E+03  0.19751015667E+03 -0.42384101114E+03  0.49131353270E+03  0.10566000000E+00 0. -1.
         -4    1    3    3    0  503 -0.28167138413E+03 -0.86118210110E+03 -0.58791117579E+03  0.10800985744E+04  0.00000000000E+00 0. -1.
<mgrwt>
<rscale>  2 0.12016400E+04</rscale>
<asrwt>0</asrwt>
<pdfrwt beam="1">  1       21 0.20804718E+00 0.12023700E+04</pdfrwt>
<pdfrwt beam="2">  1       21 0.25029963E+00 0.12023700E+04</pdfrwt>
<totfact> 0.24305908E+00</totfact>
</mgrwt>
</event>
<event>
 8    1  0.5815007E-006  0.1050134E+04  0.7818608E-02  0.8731412E-01
         21   -1    0    0  501  502  0.00000000000E+00  0.00000000000E+00  0.87224842452E+03  0.87224842452E+03  0.00000000000E+00 0. -1.
         21   -1    0    0  502  503 -0.00000000000E+00 -0.00000000000E+00 -0.12510261108E+04  0.12510261108E+04  0.00000000000E+00 0. -1.
   -9000010    2    1    2    0  503  0.85933453142E+02 -0.22965397668E+03 -0.16953854028E+03  0.10637314685E+04  0.10211051919E+04 0.  0.
    9000010    2    1    2  501    0 -0.85933453142E+02  0.22965397668E+03 -0.20923914603E+03  0.10595430669E+04  0.10093190690E+04 0.  0.
        -13    1    4    4    0    0 -0.22988406086E+03  0.55817423240E+03 -0.32120795274E+03  0.68379800762E+03  0.10566000000E+00 0.  1.
          4    1    4    4  501    0  0.14395060771E+03 -0.32852025572E+03  0.11196880671E+03  0.37574505925E+03  0.00000000000E+00 0.  1.
         13    1    3    3    0    0  0.78293633659E+02 -0.13470274180E+03 -0.60152076874E+03  0.62137103900E+03  0.10566000000E+00 0. -1.
         -4    1    3    3    0  503  0.76398194832E+01 -0.94951234884E+02  0.43198222847E+03  0.44236042947E+03  0.00000000000E+00 0. -1.
<mgrwt>
<rscale>  2 0.10472580E+04</rscale>
<asrwt>0</asrwt>
<pdfrwt beam="1">  1       21 0.13419207E+00 0.10501340E+04</pdfrwt>
<pdfrwt beam="2">  1       21 0.19246555E+00 0.10501340E+04</pdfrwt>
<totfact> 0.28890617E+01</totfact>
</mgrwt>
</event>
<event>
 8    1  0.5815007E-006  0.1679945E+04  0.7818608E-02  0.8315115E-01
         21   -1    0    0  503  502  0.00000000000E+00  0.00000000000E+00  0.23824535394E+04  0.23824535394E+04  0.00000000000E+00 0. -1.
         21   -1    0    0  501  503 -0.00000000000E+00 -0.00000000000E+00 -0.12435727354E+04  0.12435727354E+04  0.00000000000E+00 0.  1.
    9000010    2    1    2  501    0  0.13274752013E+04  0.21885198289E+03  0.10015685083E+04  0.19404788854E+04  0.97582387115E+03 0.  0.
   -9000010    2    1    2    0  502 -0.13274752013E+04 -0.21885198289E+03  0.13731229569E+03  0.16855473894E+04  0.10060460899E+04 0.  0.
        -13    1    3    3    0    0  0.90814635246E+03  0.32073804386E+03  0.13516831449E+03  0.97256011365E+03  0.10566000000E+00 0.  1.
          4    1    3    3  501    0  0.41932884881E+03 -0.10188606096E+03  0.86640019384E+03  0.96791877177E+03  0.00000000000E+00 0.  1.
         13    1    4    4    0    0 -0.14269617707E+04 -0.20948310732E+02  0.41943068446E+01  0.14271216942E+04  0.10566000000E+00 0. -1.
         -4    1    4    4    0  502  0.99486569447E+02 -0.19790367216E+03  0.13311798884E+03  0.25842569514E+03  0.00000000000E+00 0. -1.
<mgrwt>
<rscale>  2 0.16754464E+04</rscale>
<asrwt>0</asrwt>
<pdfrwt beam="1">  1       21 0.36653131E+00 0.16799450E+04</pdfrwt>
<pdfrwt beam="2">  1       21 0.19131888E+00 0.16799450E+04</pdfrwt>
<totfact> 0.45037508E-01</totfact>
</mgrwt>
</event>
<event>
 8    1  0.5815007E-006  0.1227833E+04  0.7818608E-02  0.8587704E-01
         21   -1    0    0  501  502  0.00000000000E+00  0.00000000000E+00  0.16471373048E+04  0.16471373048E+04  0.00000000000E+00 0.  1.
         21   -1    0    0  502  503 -0.00000000000E+00 -0.00000000000E+00 -0.12009454406E+04  0.12009454406E+04  0.00000000000E+00 0.  1.
   -9000010    2    1    2    0  503  0.68012654830E+03 -0.20818236806E+03 -0.47961268418E+03  0.13181816744E+04  0.10008309447E+04 0.  0.
    9000010    2    1    2  501    0 -0.68012654830E+03  0.20818236806E+03  0.92580454843E+03  0.15299010710E+04  0.98872200591E+03 0.  0.
        -13    1    4    4    0    0 -0.26619833044E+03 -0.22860361406E+02  0.10132291966E+04  0.10478633323E+04  0.10566000000E+00 0.  1.
          4    1    4    4  501    0 -0.41392821786E+03  0.23104272947E+03 -0.87424648146E+02  0.48203773865E+03  0.00000000000E+00 0.  1.
         13    1    3    3    0    0  0.60335083522E+03 -0.57934117232E+03 -0.24169976902E+03  0.87068203945E+03  0.10566000000E+00 0. -1.
         -4    1    3    3    0  503  0.76775713075E+02  0.37115880425E+03 -0.23791291516E+03  0.44749963496E+03  0.00000000000E+00 0. -1.
<mgrwt>
<rscale>  2 0.12253633E+04</rscale>
<asrwt>0</asrwt>
<pdfrwt beam="1">  1       21 0.25340574E+00 0.12278333E+04</pdfrwt>
<pdfrwt beam="2">  1       21 0.18476084E+00 0.12278333E+04</pdfrwt>
<totfact> 0.35024718E+00</totfact>
</mgrwt>
</event>
<event>
 8    1  0.5815007E-006  0.1040403E+04  0.7818608E-02  0.8747250E-01
         21   -1    0    0  503  502  0.00000000000E+00  0.00000000000E+00  0.11079968045E+04  0.11079968045E+04  0.00000000000E+00 0. -1.
         21   -1    0    0  501  503 -0.00000000000E+00 -0.00000000000E+00 -0.96990569318E+03  0.96990569318E+03  0.00000000000E+00 0. -1.
    9000010    2    1    2  501    0 -0.22518063893E+03 -0.26911896339E+02  0.25764931715E+03  0.10306527800E+04  0.97181861059E+03 0.  0.
   -9000010    2    1    2    0  502  0.22518063893E+03  0.26911896339E+02 -0.11955820587E+03  0.10472497177E+04  0.10153852649E+04 0.  0.
        -13    1    3    3    0    0 -0.21959562226E+03  0.38803749032E+03 -0.12827501210E+03  0.46395023558E+03  0.10566000000E+00 0.  1.
          4    1    3    3  501    0 -0.55850166737E+01 -0.41494938665E+03  0.38592432924E+03  0.56670254437E+03  0.00000000000E+00 0.  1.
         13    1    4    4    0    0  0.44266601619E+03 -0.81879181811E+02  0.31488888165E+03  0.54937457282E+03  0.10566000000E+00 0. -1.
         -4    1    4    4    0  502 -0.21748537726E+03  0.10879107815E+03 -0.43444708753E+03  0.49787514486E+03  0.00000000000E+00 0. -1.
<mgrwt>
<rscale>  2 0.10296177E+04</rscale>
<asrwt>0</asrwt>
<pdfrwt beam="1">  1       21 0.17046105E+00 0.10404027E+04</pdfrwt>
<pdfrwt beam="2">  1       21 0.14921626E+00 0.10404027E+04</pdfrwt>
<totfact> 0.31811124E+01</totfact>
</mgrwt>
</event>
<event>
 8    1  0.5815007E-006  0.1098051E+04  0.7818608E-02  0.8688626E-01
         21   -1    0    0  501  502  0.00000000000E+00  0.00000000000E+00  0.53259311533E+03  0.53259311533E+03  0.00000000000E+00 0. -1.
         21   -1    0    0  502  503 -0.00000000000E+00 -0.00000000000E+00 -0.24926425515E+04  0.24926425515E+04  0.00000000000E+00 0. -1.
   -9000010    2    1    2    0  503  0.30410812296E+03 -0.33065878062E+03 -0.14506760429E+04  0.18193894768E+04  0.10019481559E+04 0.  0.
    9000010    2    1    2  501    0 -0.30410812296E+03  0.33065878062E+03 -0.50937339327E+03  0.12058461900E+04  0.99638687296E+03 0.  0.
        -13    1    4    4    0    0 -0.28292930132E+03  0.38222245154E+03 -0.78872121574E+03  0.92099085735E+03  0.10566000000E+00 0.  1.
          4    1    4    4  501    0 -0.21178821639E+02 -0.51563670915E+02  0.27934782246E+03  0.28485533269E+03  0.00000000000E+00 0.  1.
         13    1    3    3    0    0  0.46337367531E+03  0.10843733651E+03 -0.26426480251E+03  0.54434338054E+03  0.10566000000E+00 0. -1.
         -4    1    3    3    0  503 -0.15926555236E+03 -0.43909611713E+03 -0.11864112404E+04  0.12750460963E+04  0.00000000000E+00 0. -1.
<mgrwt>
<rscale>  2 0.10967812E+04</rscale>
<asrwt>0</asrwt>
<pdfrwt beam="1">  1       21 0.81937402E-01 0.10980515E+04</pdfrwt>
<pdfrwt beam="2">  1       21 0.38348347E+00 0.10980515E+04</pdfrwt>
<totfact> 0.44844702E+00</totfact>
</mgrwt>
</event>
<event>
 8    1  0.5815007E-006  0.1014709E+04  0.7818608E-02  0.8775692E-01
         21   -1    0    0  501  502  0.00000000000E+00  0.00000000000E+00  0.25301118234E+04  0.25301118234E+04  0.00000000000E+00 0.  1.
         21   -1    0    0  502  503 -0.00000000000E+00 -0.00000000000E+00 -0.39169649234E+03  0.39169649234E+03  0.00000000000E+00 0.  1.
   -9000010    2    1    2    0  503 -0.61156722091E+01  0.32999469343E+03  0.87778174692E+03  0.13416910414E+04  0.95953121683E+03 0.  0.
    9000010    2    1    2  501    0  0.61156722091E+01 -0.32999469343E+03  0.12606335842E+04  0.15801172744E+04  0.89366641887E+03 0.  0.
        -13    1    4    4    0    0  0.12997906309E+03  0.28699513392E+03  0.52251173070E+03  0.61014693609E+03  0.10566000000E+00 0.  1.
          4    1    4    4  501    0 -0.12386339088E+03 -0.61698982735E+03  0.73812185346E+03  0.96997033832E+03  0.00000000000E+00 0.  1.
         13    1    3    3    0    0  0.42202702824E+03  0.15234122443E+03  0.72688502065E+03  0.85421104279E+03  0.10566000000E+00 0. -1.
         -4    1    3    3    0  503 -0.42814270045E+03  0.17765346900E+03  0.15089672628E+03  0.48747999856E+03  0.00000000000E+00 0. -1.
<mgrwt>
<rscale>  2 0.99882940E+03</rscale>
<asrwt>0</asrwt>
<pdfrwt beam="1">  1       21 0.38924796E+00 0.10147089E+04</pdfrwt>
<pdfrwt beam="2">  1       21 0.60261000E-01 0.10147089E+04</pdfrwt>
<totfact> 0.86282932E+00</totfact>
</mgrwt>
</event>
<event>
 8    1  0.5815007E-006  0.1246800E+04  0.7818608E-02  0.8575932E-01
         21   -1    0    0  503  502  0.00000000000E+00  0.00000000000E+00  0.10375471023E+04  0.10375471023E+04  0.00000000000E+00 0.  1.
         21   -1    0    0  501  503 -0.00000000000E+00 -0.00000000000E+00 -0.19767977586E+04  0.19767977586E+04  0.00000000000E+00 0.  1.
    9000010    2    1    2  501    0 -0.51118349721E+03  0.52304127039E+03 -0.12333153116E+04  0.17537322579E+04  0.10097670207E+04 0.  0.
   -9000010    2    1    2    0  502  0.51118349721E+03 -0.52304127039E+03  0.29406465532E+03  0.12606126030E+04  0.98376286522E+03 0.  0.
        -13    1    3    3    0    0 -0.40456943097E+03  0.74343820276E+03 -0.12485893096E+04  0.15084270155E+04  0.10566000000E+00 0.  1.
          4    1    3    3  501    0 -0.10661406623E+03 -0.22039693236E+03  0.15273998035E+02  0.24530524236E+03  0.00000000000E+00 0.  1.
         13    1    4    4    0    0 -0.58440942945E+02  0.25460306901E+03  0.79716944518E+02  0.27311695108E+03  0.10566000000E+00 0. -1.
         -4    1    4    4    0  502  0.56962444015E+03 -0.77764433940E+03  0.21434771080E+03  0.98749565192E+03  0.00000000000E+00 0. -1.
<mgrwt>
<rscale>  2 0.12415252E+04</rscale>
<asrwt>0</asrwt>
<pdfrwt beam="1">  1       21 0.15962263E+00 0.12468000E+04</pdfrwt>
<pdfrwt beam="2">  1       21 0.30412273E+00 0.12468000E+04</pdfrwt>
<totfact> 0.24557816E+00</totfact>
</mgrwt>
</event>
<event>
 8    1  0.5815007E-006  0.1015715E+04  0.7818608E-02  0.8761018E-01
         21   -1    0    0  503  502  0.00000000000E+00  0.00000000000E+00  0.95880102675E+03  0.95880102675E+03  0.00000000000E+00 0. -1.
         21   -1    0    0  501  503 -0.00000000000E+00 -0.00000000000E+00 -0.10726948737E+04  0.10726948737E+04  0.00000000000E+00 0. -1.
    9000010    2    1    2  501    0  0.14198971258E+03 -0.10769131746E+03 -0.94950371702E+02  0.10156041322E+04  0.99532792686E+03 0.  0.
   -9000010    2    1    2    0  502 -0.14198971258E+03  0.10769131746E+03 -0.18943475259E+02  0.10158917682E+04  0.99995936476E+03 0.  0.
        -13    1    3    3    0    0  0.32787831897E+03  0.22182095578E+03  0.27849146028E+03  0.48401057125E+03  0.10566000000E+00 0.  1.
          4    1    3    3  501    0 -0.18588860639E+03 -0.32951227324E+03 -0.37344183198E+03  0.53159356098E+03  0.00000000000E+00 0.  1.
         13    1    4    4    0    0 -0.43857358086E+03 -0.81220834127E+02 -0.32326116804E+03  0.55085515668E+03  0.10566000000E+00 0. -1.
         -4    1    4    4    0  502  0.29658386828E+03  0.18891215159E+03  0.30431769278E+03  0.46503661154E+03  0.00000000000E+00 0. -1.
<mgrwt>
<rscale>  2 0.10145734E+04</rscale>
<asrwt>0</asrwt>
<pdfrwt beam="1">  1       21 0.14750785E+00 0.10157151E+04</pdfrwt>
<pdfrwt beam="2">  1       21 0.16502998E+00 0.10157151E+04</pdfrwt>
<totfact> 0.36819711E+01</totfact>
</mgrwt>
</event>
<event>
 8    1  0.5815007E-006  0.1122696E+04  0.7818608E-02  0.8670487E-01
         21   -1    0    0  501  502  0.00000000000E+00  0.00000000000E+00  0.12294962767E+04  0.12294962767E+04  0.00000000000E+00 0. -1.
         21   -1    0    0  502  503 -0.00000000000E+00 -0.00000000000E+00 -0.10314462583E+04  0.10314462583E+04  0.00000000000E+00 0. -1.
   -9000010    2    1    2    0  503 -0.47876215025E+03 -0.68693977502E+02  0.26090841132E+03  0.11526139699E+04  0.10131701266E+04 0.  0.
    9000010    2    1    2  501    0  0.47876215025E+03  0.68693977502E+02 -0.62858392897E+02  0.11083285651E+04  0.99524317212E+03 0.  0.
        -13    1    4    4    0    0  0.66589621133E+03  0.32892356665E+03  0.98962782012E+02  0.74926772274E+03  0.10566000000E+00 0.  1.
          4    1    4    4  501    0 -0.18713406107E+03 -0.26022958915E+03 -0.16182117491E+03  0.35906084238E+03  0.00000000000E+00 0.  1.
         13    1    3    3    0    0  0.10548198097E+03  0.15705517708E+03 -0.27126204625E+03  0.33072025317E+03  0.10566000000E+00 0. -1.
         -4    1    3    3    0  503 -0.58424413123E+03 -0.22574915458E+03  0.53217045756E+03  0.82189371671E+03  0.00000000000E+00 0. -1.
<mgrwt>
<rscale>  2 0.11186360E+04</rscale>
<asrwt>0</asrwt>
<pdfrwt beam="1">  1       21 0.18915327E+00 0.11226958E+04</pdfrwt>
<pdfrwt beam="2">  1       21 0.15868404E+00 0.11226958E+04</pdfrwt>
<totfact> 0.18139087E+01</totfact>
</mgrwt>
</event>
<event>
 8    1  0.5815007E-006  0.1156694E+04  0.7818608E-02  0.8640307E-01
         21   -1    0    0  501  502  0.00000000000E+00  0.00000000000E+00  0.17169913313E+04  0.17169913313E+04  0.00000000000E+00 0. -1.
         21   -1    0    0  502  503 -0.00000000000E+00 -0.00000000000E+00 -0.78500676062E+03  0.78500676062E+03  0.00000000000E+00 0. -1.
   -9000010    2    1    2    0  503  0.55909738262E+03  0.11237260975E+03  0.34708674496E+03  0.12076469370E+04  0.10063421035E+04 0.  0.
    9000010    2    1    2  501    0 -0.55909738262E+03 -0.11237260975E+03  0.58489782573E+03  0.12943511549E+04  0.10040029676E+04 0.  0.
        -13    1    4    4    0    0  0.29488175784E+03 -0.28617381315E+02  0.16342616406E+03  0.33835237236E+03  0.10566000000E+00 0.  1.
          4    1    4    4  501    0 -0.85397914046E+03 -0.83755228433E+02  0.42147166167E+03  0.95599878254E+03  0.00000000000E+00 0.  1.
         13    1    3    3    0    0 -0.22898473682E+03 -0.13792717155E+03  0.26549317944E+03  0.37675529703E+03  0.10566000000E+00 0. -1.
         -4    1    3    3    0  503  0.78808211944E+03  0.25029978130E+03  0.81593565518E+02  0.83089164000E+03  0.00000000000E+00 0. -1.
<mgrwt>
<rscale>  2 0.11561854E+04</rscale>
<asrwt>0</asrwt>
<pdfrwt beam="1">  1       21 0.26415251E+00 0.11566944E+04</pdfrwt>
<pdfrwt beam="2">  1       21 0.12077027E+00 0.11566944E+04</pdfrwt>
<totfact> 0.11091322E+01</totfact>
</mgrwt>
</event>
<event>
 8    1  0.5815007E-006  0.1071671E+04  0.7818608E-02  0.8711399E-01
         21   -1    0    0  503  502  0.00000000000E+00  0.00000000000E+00  0.24210610282E+04  0.24210610282E+04  0.00000000000E+00 0.  1.
         21   -1    0    0  501  503 -0.00000000000E+00 -0.00000000000E+00 -0.47187992330E+03  0.47187992330E+03  0.00000000000E+00 0.  1.
    9000010    2    1    2  501    0 -0.34518085665E+03 -0.12887654343E+03  0.10096367689E+04  0.14677314030E+04  0.99955494053E+03 0.  0.
   -9000010    2    1    2    0  502  0.34518085665E+03  0.12887654343E+03  0.93954433600E+03  0.14252095484E+04  0.10063397589E+04 0.  0.
        -13    1    3    3    0    0 -0.24900337798E+02 -0.49698586292E+03  0.78765102125E+03  0.93167006886E+03  0.10566000000E+00 0.  1.
          4    1    3    3  501    0 -0.32028051886E+03  0.36810931949E+03  0.22198574764E+03  0.53606133419E+03  0.00000000000E+00 0.  1.
         13    1    4    4    0    0 -0.24652250931E+03 -0.18108049616E+02  0.74546462293E+03  0.78537810274E+03  0.10566000000E+00 0. -1.
         -4    1    4    4    0  502  0.59170336597E+03  0.14698459304E+03  0.19407971307E+03  0.63983144571E+03  0.00000000000E+00 0. -1.
<mgrwt>
<rscale>  2 0.10700753E+04</rscale>
<asrwt>0</asrwt>
<pdfrwt beam="1">  1       21 0.37247092E+00 0.10716710E+04</pdfrwt>
<pdfrwt beam="2">  1       21 0.72596913E-01 0.10716710E+04</pdfrwt>
<totfact> 0.72210775E+00</totfact>
</mgrwt>
</event>
<event>
 8    1  0.5815007E-006  0.1021731E+04  0.7818608E-02  0.8758060E-01
         21   -1    0    0  501  502  0.00000000000E+00  0.00000000000E+00  0.10754306972E+04  0.10754306972E+04  0.00000000000E+00 0. -1.
         21   -1    0    0  502  503 -0.00000000000E+00 -0.00000000000E+00 -0.95604630094E+03  0.95604630094E+03  0.00000000000E+00 0. -1.
   -9000010    2    1    2    0  503  0.12624618730E+02 -0.10546658579E+03  0.73597993590E+02  0.10087203570E+04  0.10004086726E+04 0.  0.
    9000010    2    1    2  501    0 -0.12624618730E+02  0.10546658579E+03  0.45786402680E+02  0.10227566412E+04  0.10161949472E+04 0.  0.
        -13    1    4    4    0    0 -0.96385937673E+02 -0.27888239675E+03  0.39752225708E+03  0.49506524442E+03  0.10566000000E+00 0.  1.
          4    1    4    4  501    0  0.83761318943E+02  0.38434898254E+03 -0.35173585440E+03  0.52769139675E+03  0.00000000000E+00 0.  1.
         13    1    3    3    0    0  0.92474737664E+01 -0.37482612806E+03  0.42447905586E+03  0.56635909287E+03  0.10566000000E+00 0. -1.
         -4    1    3    3    0  503  0.33771449638E+01  0.26935954227E+03 -0.35088106227E+03  0.44236126411E+03  0.00000000000E+00 0. -1.
<mgrwt>
<rscale>  2 0.10177836E+04</rscale>
<asrwt>0</asrwt>
<pdfrwt beam="1">  1       21 0.16545088E+00 0.10217313E+04</pdfrwt>
<pdfrwt beam="2">  1       21 0.14708405E+00 0.10217313E+04</pdfrwt>
<totfact> 0.36790897E+01</totfact>
</mgrwt>
</event>
<event>
 8    1  0.5815007E-006  0.1535966E+04  0.7818608E-02  0.8389559E-01
         21   -1    0    0  503  502  0.00000000000E+00  0.00000000000E+00  0.32839958958E+04  0.32839958958E+04  0.00000000000E+00 0. -1.
         21   -1    0    0  501  503 -0.00000000000E+00 -0.00000000000E+00 -0.73023278411E+03  0.73023278411E+03  0.00000000000E+00 0.  1.
    9000010    2    1    2  501    0 -0.10578554659E+04 -0.47242594552E+03  0.15499982373E+04  0.21821288537E+04  0.10084380684E+04 0.  0.
   -9000010    2    1    2    0  502  0.10578554659E+04  0.47242594552E+03  0.10037648744E+04  0.18320998262E+04  0.10033949319E+04 0.  0.
        -13    1    3    3    0    0 -0.59817146601E+03 -0.14469653745E+03  0.14928089005E+04  0.16146902536E+04  0.10566000000E+00 0.  1.
          4    1    3    3  501    0 -0.45968399987E+03 -0.32772940808E+03  0.57189336889E+02  0.56743860012E+03  0.00000000000E+00 0.  1.
         13    1    4    4    0    0  0.68765518215E+03 -0.21336016115E+03  0.29299551614E+03  0.77732785332E+03  0.10566000000E+00 0. -1.
         -4    1    4    4    0  502  0.37020028373E+03  0.68578610667E+03  0.71076935822E+03  0.10547719729E+04  0.00000000000E+00 0. -1.
<mgrwt>
<rscale>  2 0.15351388E+04</rscale>
<asrwt>0</asrwt>
<pdfrwt beam="1">  1       21 0.50523013E+00 0.15359661E+04</pdfrwt>
<pdfrwt beam="2">  1       21 0.11234351E+00 0.15359661E+04</pdfrwt>
<totfact> 0.25936407E-01</totfact>
</mgrwt>
</event>
<event>
 8    1  0.5815007E-006  0.1090331E+04  0.7818608E-02  0.8694632E-01
         21   -1    0    0  501  502  0.00000000000E+00  0.00000000000E+00  0.13384209800E+04  0.13384209800E+04  0.00000000000E+00 0. -1.
         21   -1    0    0  502  503 -0.00000000000E+00 -0.00000000000E+00 -0.89281284852E+03  0.89281284852E+03  0.00000000000E+00 0. -1.
   -9000010    2    1    2    0  503 -0.30796088432E+03 -0.26450418724E+03  0.12539359617E+03  0.10948543508E+04  0.10090491188E+04 0.  0.
    9000010    2    1    2  501    0  0.30796088432E+03  0.26450418724E+03  0.32021453528E+03  0.11363794777E+04  0.10119380403E+04 0.  0.
        -13    1    4    4    0    0  0.56959833485E+03 -0.15228127180E+03  0.24535428691E+03  0.63861614924E+03  0.10566000000E+00 0.  1.
          4    1    4    4  501    0 -0.26163745053E+03  0.41678545904E+03  0.74860248371E+02  0.49776332847E+03  0.00000000000E+00 0.  1.
         13    1    3    3    0    0  0.24589449930E+03 -0.25307332398E+03  0.35007268895E+03  0.49705242260E+03  0.10566000000E+00 0. -1.
         -4    1    3    3    0  503 -0.55385538362E+03 -0.11430863261E+02 -0.22467909278E+03  0.59780192818E+03  0.00000000000E+00 0. -1.
<mgrwt>
<rscale>  2 0.10896599E+04</rscale>
<asrwt>0</asrwt>
<pdfrwt beam="1">  1       21 0.20591092E+00 0.10903307E+04</pdfrwt>
<pdfrwt beam="2">  1       21 0.13735582E+00 0.10903307E+04</pdfrwt>
<totfact> 0.20986892E+01</totfact>
</mgrwt>
</event>
<event>
 8    1  0.5815007E-006  0.1100261E+04  0.7818608E-02  0.8686747E-01
         21   -1    0    0  501  502  0.00000000000E+00  0.00000000000E+00  0.11438744775E+04  0.11438744775E+04  0.00000000000E+00 0. -1.
         21   -1    0    0  502  503 -0.00000000000E+00 -0.00000000000E+00 -0.10542812497E+04  0.10542812497E+04  0.00000000000E+00 0. -1.
   -9000010    2    1    2    0  503 -0.68636356191E+02  0.39974695380E+03  0.73632163951E+02  0.10977794237E+04  0.10174425738E+04 0.  0.
    9000010    2    1    2  501    0  0.68636356191E+02 -0.39974695380E+03  0.15961063813E+02  0.11003763036E+04  0.10227730332E+04 0.  0.
        -13    1    4    4    0    0  0.45645092991E+03 -0.41845585548E+03 -0.20666705043E+03  0.65281240437E+03  0.10566000000E+00 0.  1.
          4    1    4    4  501    0 -0.38781457372E+03  0.18708901686E+02  0.22262811424E+03  0.44756389918E+03  0.00000000000E+00 0.  1.
         13    1    3    3    0    0 -0.50218413995E+02  0.17362096640E+03  0.54525239110E+03  0.57442694074E+03  0.10566000000E+00 0. -1.
         -4    1    3    3    0  503 -0.18417942196E+02  0.22612598740E+03 -0.47162022715E+03  0.52335248297E+03  0.00000000000E+00 0. -1.
<mgrwt>
<rscale>  2 0.10990201E+04</rscale>
<asrwt>0</asrwt>
<pdfrwt beam="1">  1       21 0.17598069E+00 0.11002605E+04</pdfrwt>
<pdfrwt beam="2">  1       21 0.16219712E+00 0.11002605E+04</pdfrwt>
<totfact> 0.21743875E+01</totfact>
</mgrwt>
</event>
<event>
 8    1  0.5815007E-006  0.1134773E+04  0.7818608E-02  0.8657709E-01
         21   -1    0    0  503  502  0.00000000000E+00  0.00000000000E+00  0.77530095125E+03  0.77530095125E+03  0.00000000000E+00 0. -1.
         21   -1    0    0  501  503 -0.00000000000E+00 -0.00000000000E+00 -0.16895944183E+04  0.16895944183E+04  0.00000000000E+00 0. -1.
    9000010    2    1    2  501    0  0.44937334447E+03  0.32481634904E+03 -0.28947403520E+03  0.11694772577E+04  0.98814967282E+03 0.  0.
   -9000010    2    1    2    0  502 -0.44937334447E+03 -0.32481634904E+03 -0.62481943184E+03  0.12954181118E+04  0.99008418771E+03 0.  0.
        -13    1    3    3    0    0  0.72154869522E+03  0.28155280883E+03 -0.66209729575E+01  0.77456333000E+03  0.10566000000E+00 0.  1.
          4    1    3    3  501    0 -0.27217535075E+03  0.43263540209E+02 -0.28285306224E+03  0.39491392770E+03  0.00000000000E+00 0.  1.
         13    1    4    4    0    0 -0.29470278990E+03 -0.40662115290E+03 -0.86383650665E+03  0.99920169022E+03  0.10566000000E+00 0. -1.
         -4    1    4    4    0  502 -0.15467055457E+03  0.81804803858E+02  0.23901707481E+03  0.29621642162E+03  0.00000000000E+00 0. -1.
<mgrwt>
<rscale>  2 0.11343505E+04</rscale>
<asrwt>0</asrwt>
<pdfrwt beam="1">  1       21 0.11927707E+00 0.11347726E+04</pdfrwt>
<pdfrwt beam="2">  1       21 0.25993760E+00 0.11347726E+04</pdfrwt>
<totfact> 0.12373236E+01</totfact>
</mgrwt>
</event>
<event>
 8    1  0.7388833E-006  0.1019523E+04  0.7818608E-02  0.8778093E-01
         21   -1    0    0  503  502  0.00000000000E+00  0.00000000000E+00  0.11691205532E+04  0.11691205532E+04  0.00000000000E+00 0.  1.
         21   -1    0    0  501  503 -0.00000000000E+00 -0.00000000000E+00 -0.81621571579E+03  0.81621571579E+03  0.00000000000E+00 0.  1.
    9000010    2    1    2  501    0 -0.14082690594E+03 -0.24186461351E+03  0.11723669665E+03  0.10262411073E+04  0.98035486360E+03 0.  0.
   -9000010    2    1    2    0  502  0.14082690594E+03  0.24186461351E+03  0.23566814074E+03  0.95909516167E+03  0.88656265874E+03 0.  0.
        -13    1    3    3    0    0 -0.22922174799E+03 -0.23792967716E+03 -0.39012328018E+03  0.51122336207E+03  0.10566000000E+00 0.  1.
          4    1    3    3  501    0  0.88394842056E+02 -0.39349363558E+01  0.50735997682E+03  0.51501774524E+03  0.00000000000E+00 0.  1.
         13    1    4    4    0    0 -0.31241711499E+03  0.17672480856E+03 -0.12088544782E+03  0.37874716416E+03  0.10566000000E+00 0. -1.
         -4    1    4    4    0  502  0.45324402093E+03  0.65139804954E+02  0.35655358856E+03  0.58034799751E+03  0.00000000000E+00 0. -1.
<mgrwt>
<rscale>  2 0.99628186E+03</rscale>
<asrwt>0</asrwt>
<pdfrwt beam="1">  1       21 0.17986470E+00 0.10195226E+04</pdfrwt>
<pdfrwt beam="2">  1       21 0.12557165E+00 0.10195226E+04</pdfrwt>
<totfact> 0.44486171E+01</totfact>
</mgrwt>
</event>
<event>
 8    1  0.5815007E-006  0.1065241E+04  0.7818608E-02  0.8721606E-01
         21   -1    0    0  503  502  0.00000000000E+00  0.00000000000E+00  0.14984481466E+04  0.14984481466E+04  0.00000000000E+00 0. -1.
         21   -1    0    0  501  503 -0.00000000000E+00 -0.00000000000E+00 -0.74589889266E+03  0.74589889266E+03  0.00000000000E+00 0. -1.
    9000010    2    1    2  501    0 -0.18716766249E+03  0.32912501506E+03  0.25619448174E+03  0.10691417764E+04  0.96647478820E+03 0.  0.
   -9000010    2    1    2    0  502  0.18716766249E+03 -0.32912501506E+03  0.49635477219E+03  0.11752052628E+04  0.99568285134E+03 0.  0.
        -13    1    3    3    0    0 -0.51681248468E+03 -0.41016141751E+02  0.24487908844E+03  0.57336135842E+03  0.10566000000E+00 0.  1.
          4    1    3    3  501    0  0.32964482219E+03  0.37014115681E+03  0.11315393300E+02  0.49578041802E+03  0.00000000000E+00 0.  1.
         13    1    4    4    0    0  0.86484317000E+02  0.17558507765E+03  0.61640537352E+03  0.64673429803E+03  0.10566000000E+00 0. -1.
         -4    1    4    4    0  502  0.10068334549E+03 -0.50471009271E+03 -0.12005060133E+03  0.52847096479E+03  0.00000000000E+00 0. -1.
<mgrwt>
<rscale>  2 0.10583629E+04</rscale>
<asrwt>0</asrwt>
<pdfrwt beam="1">  1       21 0.23053048E+00 0.10652415E+04</pdfrwt>
<pdfrwt beam="2">  1       21 0.11475368E+00 0.10652415E+04</pdfrwt>
<totfact> 0.22944775E+01</totfact>
</mgrwt>
</event>
<event>
 8    1  0.5815007E-006  0.1044850E+04  0.7818608E-02  0.8735956E-01
         21   -1    0    0  501  502  0.00000000000E+00  0.00000000000E+00  0.53848080869E+03  0.53848080869E+03  0.00000000000E+00 0.  1.
         21   -1    0    0  502  503 -0.00000000000E+00 -0.00000000000E+00 -0.21733145184E+04  0.21733145184E+04  0.00000000000E+00 0.  1.
   -9000010    2    1    2    0  503  0.13082183181E+03 -0.17699410522E+03 -0.11890038129E+04  0.15758042877E+04  0.10104394199E+04 0.  0.
    9000010    2    1    2  501    0 -0.13082183181E+03  0.17699410522E+03 -0.44582989689E+03  0.11359910394E+04  0.10214059329E+04 0.  0.
        -13    1    4    4    0    0 -0.62557871687E+02  0.20163339573E+03  0.31089197675E+03  0.37579694777E+03  0.10566000000E+00 0.  1.
          4    1    4    4  501    0 -0.68263960120E+02 -0.24639290514E+02 -0.75672187364E+03  0.76019409162E+03  0.00000000000E+00 0.  1.
         13    1    3    3    0    0 -0.38022689137E+02 -0.56518578234E+03 -0.89932256204E+03  0.10628554818E+04  0.10566000000E+00 0. -1.
         -4    1    3    3    0  503  0.16884452094E+03  0.38819167711E+03 -0.28968125082E+03  0.51294880594E+03  0.00000000000E+00 0. -1.
<mgrwt>
<rscale>  2 0.10421601E+04</rscale>
<asrwt>0</asrwt>
<pdfrwt beam="1">  1       21 0.82843200E-01 0.10448499E+04</pdfrwt>
<pdfrwt beam="2">  1       21 0.33435608E+00 0.10448499E+04</pdfrwt>
<totfact> 0.97619895E+00</totfact>
</mgrwt>
</event>
<event>
 8    1  0.5815007E-006  0.1130776E+04  0.7818608E-02  0.8673489E-01
         21   -1    0    0  503  502  0.00000000000E+00  0.00000000000E+00  0.22396910425E+04  0.22396910425E+04  0.00000000000E+00 0.  1.
         21   -1    0    0  501  503 -0.00000000000E+00 -0.00000000000E+00 -0.54309736939E+03  0.54309736939E+03  0.00000000000E+00 0.  1.
    9000010    2    1    2  501    0  0.32436032560E+03  0.26598266896E+03  0.97534283190E+03  0.14933009542E+04  0.10500941382E+04 0.  0.
   -9000010    2    1    2    0  502 -0.32436032560E+03 -0.26598266896E+03  0.72125084123E+03  0.12894874577E+04  0.98316770009E+03 0.  0.
        -13    1    3    3    0    0 -0.33525045713E+03 -0.50123142982E+02  0.55315941747E+03  0.64876078085E+03  0.10566000000E+00 0.  1.
          4    1    3    3  501    0  0.65961078273E+03  0.31610581194E+03  0.42218341443E+03  0.84454017338E+03  0.00000000000E+00 0.  1.
         13    1    4    4    0    0 -0.13808085151E+03 -0.49408410759E+02  0.92630730433E+03  0.93784473439E+03  0.10566000000E+00 0. -1.
         -4    1    4    4    0  502 -0.18627947409E+03 -0.21657425820E+03 -0.20505646309E+03  0.35164272328E+03  0.00000000000E+00 0. -1.
<mgrwt>
<rscale>  2 0.11149824E+04</rscale>
<asrwt>0</asrwt>
<pdfrwt beam="1">  1       21 0.34456785E+00 0.11307759E+04</pdfrwt>
<pdfrwt beam="2">  1       21 0.83553443E-01 0.11307759E+04</pdfrwt>
<totfact> 0.79551883E+00</totfact>
</mgrwt>
</event>
<event>
 8    1  0.5815007E-006  0.1102828E+04  0.7818608E-02  0.8686441E-01
         21   -1    0    0  501  502  0.00000000000E+00  0.00000000000E+00  0.79273277065E+03  0.79273277065E+03  0.00000000000E+00 0.  1.
         21   -1    0    0  502  503 -0.00000000000E+00 -0.00000000000E+00 -0.15284983230E+04  0.15284983230E+04  0.00000000000E+00 0.  1.
   -9000010    2    1    2    0  503 -0.29755119317E+03 -0.31626045941E+03 -0.47833073352E+03  0.12020937096E+04  0.10137413897E+04 0.  0.
    9000010    2    1    2  501    0  0.29755119317E+03  0.31626045941E+03 -0.25743481880E+03  0.11191373840E+04  0.99881850587E+03 0.  0.
        -13    1    4    4    0    0 -0.21448534092E+03  0.42276805748E+03  0.10151418126E+03  0.48481123343E+03  0.10566000000E+00 0.  1.
          4    1    4    4  501    0  0.51203653410E+03 -0.10650759806E+03 -0.35894900006E+03  0.63432615061E+03  0.00000000000E+00 0.  1.
         13    1    3    3    0    0  0.19085917415E+03  0.21099861065E+03  0.75947561445E+02  0.29447526434E+03  0.10566000000E+00 0. -1.
         -4    1    3    3    0  503 -0.48841036733E+03 -0.52725907006E+03 -0.55427829496E+03  0.90761844524E+03  0.00000000000E+00 0. -1.
<mgrwt>
<rscale>  2 0.10993863E+04</rscale>
<asrwt>0</asrwt>
<pdfrwt beam="1">  1       21 0.12195889E+00 0.11028277E+04</pdfrwt>
<pdfrwt beam="2">  1       21 0.23515359E+00 0.11028277E+04</pdfrwt>
<totfact> 0.17754007E+01</totfact>
</mgrwt>
</event>
<event>
 8    1  0.5815007E-006  0.1057658E+04  0.7818608E-02  0.8724050E-01
         21   -1    0    0  503  502  0.00000000000E+00  0.00000000000E+00  0.15075189724E+04  0.15075189724E+04  0.00000000000E+00 0. -1.
         21   -1    0    0  501  503 -0.00000000000E+00 -0.00000000000E+00 -0.77824882043E+03  0.77824882043E+03  0.00000000000E+00 0. -1.
    9000010    2    1    2  501    0  0.29065523401E+03 -0.18286201974E+03  0.10047502461E+03  0.10624201203E+04  0.10003610839E+04 0.  0.
   -9000010    2    1    2    0  502 -0.29065523401E+03  0.18286201974E+03  0.62879512738E+03  0.12233476725E+04  0.99160336442E+03 0.  0.
        -13    1    3    3    0    0 -0.15972656689E+03 -0.48744143423E+03  0.71997435216E+02  0.51797236396E+03  0.10566000000E+00 0.  1.
          4    1    3    3  501    0  0.45038180091E+03  0.30457941449E+03  0.28477589392E+02  0.54444775637E+03  0.00000000000E+00 0.  1.
         13    1    4    4    0    0 -0.62614783908E+03  0.28289387658E+03  0.50227364284E+03  0.85109863427E+03  0.10566000000E+00 0. -1.
         -4    1    4    4    0  502  0.33549260507E+03 -0.10003185684E+03  0.12652148454E+03  0.37224903826E+03  0.00000000000E+00 0. -1.
<mgrwt>
<rscale>  2 0.10555824E+04</rscale>
<asrwt>0</asrwt>
<pdfrwt beam="1">  1       21 0.23192600E+00 0.10576584E+04</pdfrwt>
<pdfrwt beam="2">  1       21 0.11973059E+00 0.10576584E+04</pdfrwt>
<totfact> 0.19951231E+01</totfact>
</mgrwt>
</event>
<event>
 8    1  0.5815007E-006  0.1153153E+04  0.7818608E-02  0.8655471E-01
         21   -1    0    0  501  502  0.00000000000E+00  0.00000000000E+00  0.13041920597E+04  0.13041920597E+04  0.00000000000E+00 0.  1.
         21   -1    0    0  502  503 -0.00000000000E+00 -0.00000000000E+00 -0.10293216786E+04  0.10293216786E+04  0.00000000000E+00 0.  1.
   -9000010    2    1    2    0  503 -0.51583957437E+03 -0.25973122829E+03 -0.15804527468E+03  0.11017756985E+04  0.92486788440E+03 0.  0.
    9000010    2    1    2  501    0  0.51583957437E+03  0.25973122829E+03  0.43291565580E+03  0.12317380398E+04  0.99810413092E+03 0.  0.
        -13    1    4    4    0    0  0.21564549115E+03  0.53216263000E+03  0.56482256328E+03  0.80543440564E+03  0.10566000000E+00 0.  1.
          4    1    4    4  501    0  0.30019408322E+03 -0.27243140171E+03 -0.13190690749E+03  0.42630363414E+03  0.00000000000E+00 0.  1.
         13    1    3    3    0    0  0.20267005018E+03  0.12060571419E+03 -0.16662682235E+03  0.28876529678E+03  0.10566000000E+00 0. -1.
         -4    1    3    3    0  503 -0.71850962456E+03 -0.38033694247E+03  0.85815476706E+01  0.81301040175E+03  0.00000000000E+00 0. -1.
<mgrwt>
<rscale>  2 0.11371294E+04</rscale>
<asrwt>0</asrwt>
<pdfrwt beam="1">  1       21 0.20064493E+00 0.11531533E+04</pdfrwt>
<pdfrwt beam="2">  1       21 0.15835718E+00 0.11531533E+04</pdfrwt>
<totfact> 0.14719140E+01</totfact>
</mgrwt>
</event>
<event>
 8    1  0.5815007E-006  0.1093118E+04  0.7818608E-02  0.8694838E-01
         21   -1    0    0  503  502  0.00000000000E+00  0.00000000000E+00  0.64475606759E+03  0.64475606759E+03  0.00000000000E+00 0.  1.
         21   -1    0    0  501  503 -0.00000000000E+00 -0.00000000000E+00 -0.19982551135E+04  0.19982551135E+04  0.00000000000E+00 0.  1.
    9000010    2    1    2  501    0 -0.63271675128E+02 -0.44688884085E+03 -0.10578495094E+04  0.15106176003E+04  0.97939114193E+03 0.  0.
   -9000010    2    1    2    0  502  0.63271675128E+02  0.44688884085E+03 -0.29564953655E+03  0.11323935808E+04  0.99558707929E+03 0.  0.
        -13    1    3    3    0    0  0.27178200579E+03 -0.12737331975E+03  0.55141012688E+02  0.30517202313E+03  0.10566000000E+00 0.  1.
          4    1    3    3  501    0 -0.33505368092E+03 -0.31951552109E+03 -0.11129905221E+04  0.12054455772E+04  0.00000000000E+00 0.  1.
         13    1    4    4    0    0  0.36646563751E+03  0.99857227513E+02  0.22151823245E+03  0.43970315878E+03  0.10566000000E+00 0. -1.
         -4    1    4    4    0  502 -0.30319396239E+03  0.34703161333E+03 -0.51716776900E+03  0.69269042203E+03  0.00000000000E+00 0. -1.
<mgrwt>
<rscale>  2 0.10894165E+04</rscale>
<asrwt>0</asrwt>
<pdfrwt beam="1">  1       21 0.99193243E-01 0.10931178E+04</pdfrwt>
<pdfrwt beam="2">  1       21 0.30742386E+00 0.10931178E+04</pdfrwt>
<totfact> 0.94283307E+00</totfact>
</mgrwt>
</event>
<event>
 8    1  0.5815007E-006  0.1104450E+04  0.7818608E-02  0.8682212E-01
         21   -1    0    0  501  502  0.00000000000E+00  0.00000000000E+00  0.18609158931E+04  0.18609158931E+04  0.00000000000E+00 0. -1.
         21   -1    0    0  502  503 -0.00000000000E+00 -0.00000000000E+00 -0.87485401810E+03  0.87485401810E+03  0.00000000000E+00 0. -1.
   -9000010    2    1    2    0  503  0.34000025924E+03  0.29014209038E+03 -0.19193509827E+03  0.11209981820E+04  0.10099580354E+04 0.  0.
    9000010    2    1    2  501    0 -0.34000025924E+03 -0.29014209038E+03  0.11779969732E+04  0.16147717292E+04  0.10099644843E+04 0.  0.
        -13    1    4    4    0    0 -0.60591457420E+03 -0.40637123239E+03  0.10897941928E+04  0.13114577552E+04  0.10566000000E+00 0.  1.
          4    1    4    4  501    0  0.26591431495E+03  0.11622914200E+03  0.88202780417E+02  0.30331397400E+03  0.00000000000E+00 0.  1.
         13    1    3    3    0    0  0.24541087062E+03  0.63168588609E+03 -0.31302295930E+03  0.74648304623E+03  0.10566000000E+00 0. -1.
         -4    1    3    3    0  503  0.94589388617E+02 -0.34154379570E+03  0.12108786103E+03  0.37451513576E+03  0.00000000000E+00 0. -1.
<mgrwt>
<rscale>  2 0.11044490E+04</rscale>
<asrwt>0</asrwt>
<pdfrwt beam="1">  1       21 0.28629475E+00 0.11044505E+04</pdfrwt>
<pdfrwt beam="2">  1       21 0.13459293E+00 0.11044505E+04</pdfrwt>
<totfact> 0.57083851E+00</totfact>
</mgrwt>
</event>
<event>
 8    1  0.5815007E-006  0.1314225E+04  0.7818608E-02  0.8554374E-01
         21   -1    0    0  501  502  0.00000000000E+00  0.00000000000E+00  0.70691627935E+03  0.70691627935E+03  0.00000000000E+00 0. -1.
         21   -1    0    0  502  503 -0.00000000000E+00 -0.00000000000E+00 -0.23216823395E+04  0.23216823395E+04  0.00000000000E+00 0. -1.
   -9000010    2    1    2    0  503 -0.66188283628E+03  0.53165945187E+03 -0.11669624219E+04  0.16401770756E+04  0.77950553788E+03 0.  0.
    9000010    2    1    2  501    0  0.66188283628E+03 -0.53165945187E+03 -0.44780363829E+03  0.13884215433E+04  0.10032126502E+04 0.  0.
        -13    1    4    4    0    0  0.32225124890E+02 -0.44407559483E+03  0.19345319583E+03  0.48545416131E+03  0.10566000000E+00 0.  1.
          4    1    4    4  501    0  0.62965771139E+03 -0.87583857044E+02 -0.64125683413E+03  0.90296738194E+03  0.00000000000E+00 0.  1.
         13    1    3    3    0    0 -0.37018588656E+03 -0.64192025156E+02 -0.79569453067E+03  0.87993636361E+03  0.10566000000E+00 0. -1.
         -4    1    3    3    0  503 -0.29169694972E+03  0.59585147703E+03 -0.37126789120E+03  0.76024071200E+03  0.00000000000E+00 0. -1.
<mgrwt>
<rscale>  2 0.12717960E+04</rscale>
<asrwt>0</asrwt>
<pdfrwt beam="1">  1       21 0.10875635E+00 0.13142246E+04</pdfrwt>
<pdfrwt beam="2">  1       21 0.35718191E+00 0.13142246E+04</pdfrwt>
<totfact> 0.31566608E+00</totfact>
</mgrwt>
</event>
<event>
 8    1  0.5815007E-006  0.1103655E+04  0.7818608E-02  0.8683345E-01
         21   -1    0    0  501  502  0.00000000000E+00  0.00000000000E+00  0.12959680524E+04  0.12959680524E+04  0.00000000000E+00 0.  1.
         21   -1    0    0  502  503 -0.00000000000E+00 -0.00000000000E+00 -0.94685284381E+03  0.94685284381E+03  0.00000000000E+00 0.  1.
   -9000010    2    1    2    0  503 -0.11830211169E+03 -0.44957125009E+03  0.66038390848E+02  0.11056290861E+04  0.10009719818E+04 0.  0.
    9000010    2    1    2  501    0  0.11830211169E+03  0.44957125009E+03  0.28307681774E+03  0.11371918101E+04  0.99848036020E+03 0.  0.
        -13    1    4    4    0    0 -0.44710782615E+02 -0.68213940093E+02  0.53326921316E+03  0.53947035190E+03  0.10566000000E+00 0.  1.
          4    1    4    4  501    0  0.16301289431E+03  0.51778519019E+03 -0.25019239542E+03  0.59772145822E+03  0.00000000000E+00 0.  1.
         13    1    3    3    0    0  0.40721794832E+03 -0.19604907451E+03 -0.16066091042E+03  0.47965991739E+03  0.10566000000E+00 0. -1.
         -4    1    3    3    0  503 -0.52552006001E+03 -0.25352217559E+03  0.22669930126E+03  0.62596916871E+03  0.00000000000E+00 0. -1.
<mgrwt>
<rscale>  2 0.11030899E+04</rscale>
<asrwt>0</asrwt>
<pdfrwt beam="1">  1       21 0.19937970E+00 0.11036551E+04</pdfrwt>
<pdfrwt beam="2">  1       21 0.14566967E+00 0.11036551E+04</pdfrwt>
<totfact> 0.19719194E+01</totfact>
</mgrwt>
</event>
<event>
 8    1  0.5815007E-006  0.1266456E+04  0.7818608E-02  0.8562596E-01
         21   -1    0    0  503  502  0.00000000000E+00  0.00000000000E+00  0.72874182278E+03  0.72874182278E+03  0.00000000000E+00 0.  1.
         21   -1    0    0  501  503 -0.00000000000E+00 -0.00000000000E+00 -0.21763617424E+04  0.21763617424E+04  0.00000000000E+00 0.  1.
    9000010    2    1    2  501    0 -0.39899152173E+03  0.61958169243E+03 -0.58184751851E+03  0.13710000371E+04  0.99900893830E+03 0.  0.
   -9000010    2    1    2    0  502  0.39899152173E+03 -0.61958169243E+03 -0.86577240113E+03  0.15341035282E+04  0.10299689687E+04 0.  0.
        -13    1    3    3    0    0  0.25833184419E+03  0.46420699543E+03 -0.98169150026E+02  0.54024130674E+03  0.10566000000E+00 0.  1.
          4    1    3    3  501    0 -0.65732336592E+03  0.15537469700E+03 -0.48367836849E+03  0.83075873032E+03  0.00000000000E+00 0.  1.
         13    1    4    4    0    0  0.69845057185E+03 -0.28384302532E+03 -0.30037049195E+03  0.81155560989E+03  0.10566000000E+00 0. -1.
         -4    1    4    4    0  502 -0.29945905012E+03 -0.33573866711E+03 -0.56540190918E+03  0.72254791827E+03  0.00000000000E+00 0. -1.
<mgrwt>
<rscale>  2 0.12601474E+04</rscale>
<asrwt>0</asrwt>
<pdfrwt beam="1">  1       21 0.11211413E+00 0.12664564E+04</pdfrwt>
<pdfrwt beam="2">  1       21 0.33482488E+00 0.12664564E+04</pdfrwt>
<totfact> 0.42073279E+00</totfact>
</mgrwt>
</event>
<event>
 8    1  0.5815007E-006  0.1055668E+04  0.7818608E-02  0.8724138E-01
         21   -1    0    0  503  502  0.00000000000E+00  0.00000000000E+00  0.85308430260E+03  0.85308430260E+03  0.00000000000E+00 0. -1.
         21   -1    0    0  501  503 -0.00000000000E+00 -0.00000000000E+00 -0.13126575113E+04  0.13126575113E+04  0.00000000000E+00 0. -1.
    9000010    2    1    2  501    0 -0.92058192855E+02  0.31939118394E+03 -0.31001843769E+03  0.10995325513E+04  0.10011867760E+04 0.  0.
   -9000010    2    1    2    0  502  0.92058192855E+02 -0.31939118394E+03 -0.14955477098E+03  0.10662092625E+04  0.10019731148E+04 0.  0.
        -13    1    3    3    0    0  0.38161164475E+03 -0.42874164219E+02 -0.32491320159E+03  0.50302508993E+03  0.10566000000E+00 0.  1.
          4    1    3    3  501    0 -0.47366983760E+03  0.36226534816E+03  0.14894763905E+02  0.59650746141E+03  0.00000000000E+00 0.  1.
         13    1    4    4    0    0 -0.25662073347E+03 -0.21815829752E+03 -0.47251839226E+03  0.58027655976E+03  0.10566000000E+00 0. -1.
         -4    1    4    4    0  502  0.34867892632E+03 -0.10123288642E+03  0.32296362128E+03  0.48593270277E+03  0.00000000000E+00 0. -1.
<mgrwt>
<rscale>  2 0.10554817E+04</rscale>
<asrwt>0</asrwt>
<pdfrwt beam="1">  1       21 0.13124374E+00 0.10556683E+04</pdfrwt>
<pdfrwt beam="2">  1       21 0.20194731E+00 0.10556683E+04</pdfrwt>
<totfact> 0.25933775E+01</totfact>
</mgrwt>
</event>
<event>
 8    1  0.5815007E-006  0.1162647E+04  0.7818608E-02  0.8641008E-01
         21   -1    0    0  503  502  0.00000000000E+00  0.00000000000E+00  0.61574971242E+03  0.61574971242E+03  0.00000000000E+00 0. -1.
         21   -1    0    0  501  503 -0.00000000000E+00 -0.00000000000E+00 -0.22164532137E+04  0.22164532137E+04  0.00000000000E+00 0. -1.
    9000010    2    1    2  501    0 -0.12768387884E+03 -0.56074869133E+03 -0.10524440739E+04  0.15467703438E+04  0.97678948609E+03 0.  0.
   -9000010    2    1    2    0  502  0.12768387884E+03  0.56074869133E+03 -0.54825942733E+03  0.12854325822E+04  0.10104485420E+04 0.  0.
        -13    1    3    3    0    0  0.40199720968E+03 -0.39662794249E+03 -0.40858946301E+03  0.69703718825E+03  0.10566000000E+00 0.  1.
          4    1    3    3  501    0 -0.52968108852E+03 -0.16412074884E+03 -0.64385461090E+03  0.84973315559E+03  0.00000000000E+00 0.  1.
         13    1    4    4    0    0 -0.21737982063E+03 -0.57985738708E+01 -0.58191698774E+03  0.62122057408E+03  0.10566000000E+00 0. -1.
         -4    1    4    4    0  502  0.34506369947E+03  0.56654726520E+03  0.33657560415E+02  0.66421200815E+03  0.00000000000E+00 0. -1.
<mgrwt>
<rscale>  2 0.11552951E+04</rscale>
<asrwt>0</asrwt>
<pdfrwt beam="1">  1       21 0.94730723E-01 0.11626472E+04</pdfrwt>
<pdfrwt beam="2">  1       21 0.34099281E+00 0.11626472E+04</pdfrwt>
<totfact> 0.60779521E+00</totfact>
</mgrwt>
</event>
<event>
 8    1  0.5815007E-006  0.1283998E+04  0.7818608E-02  0.8561082E-01
         21   -1    0    0  501  502  0.00000000000E+00  0.00000000000E+00  0.20171479607E+04  0.20171479607E+04  0.00000000000E+00 0.  1.
         21   -1    0    0  502  503 -0.00000000000E+00 -0.00000000000E+00 -0.81699437443E+03  0.81699437443E+03  0.00000000000E+00 0.  1.
   -9000010    2    1    2    0  503 -0.79188400479E+02  0.80675450036E+03  0.25953564982E+03  0.13099655277E+04  0.99575464029E+03 0.  0.
    9000010    2    1    2  501    0  0.79188400479E+02 -0.80675450036E+03  0.94061793641E+03  0.15241768074E+04  0.88387171650E+03 0.  0.
        -13    1    4    4    0    0  0.28274470341E+03 -0.86346614160E+03  0.94752716794E+03  0.13127551524E+04  0.10566000000E+00 0.  1.
          4    1    4    4  501    0 -0.20355630293E+03  0.56711641242E+02 -0.69092315255E+01  0.21142165498E+03  0.00000000000E+00 0.  1.
         13    1    3    3    0    0  0.32925297093E+03  0.94679511668E+02  0.34305562340E+03  0.48482873337E+03  0.10566000000E+00 0. -1.
         -4    1    3    3    0  503 -0.40844137141E+03  0.71207498869E+03 -0.83519973578E+02  0.82513679434E+03  0.00000000000E+00 0. -1.
<mgrwt>
<rscale>  2 0.12622822E+04</rscale>
<asrwt>0</asrwt>
<pdfrwt beam="1">  1       21 0.31033045E+00 0.12839980E+04</pdfrwt>
<pdfrwt beam="2">  1       21 0.12569144E+00 0.12839980E+04</pdfrwt>
<totfact> 0.45279809E+00</totfact>
</mgrwt>
</event>
<event>
 8    1  0.5815007E-006  0.1155352E+04  0.7818608E-02  0.8648620E-01
         21   -1    0    0  503  502  0.00000000000E+00  0.00000000000E+00  0.98948281074E+03  0.98948281074E+03  0.00000000000E+00 0. -1.
         21   -1    0    0  501  503 -0.00000000000E+00 -0.00000000000E+00 -0.13053871006E+04  0.13053871006E+04  0.00000000000E+00 0.  1.
    9000010    2    1    2  501    0  0.41178350214E+03 -0.34768072982E+03 -0.13700021426E+03  0.11634462096E+04  0.10219542462E+04 0.  0.
   -9000010    2    1    2    0  502 -0.41178350214E+03  0.34768072982E+03 -0.17890407558E+03  0.11314237018E+04  0.97860379222E+03 0.  0.
        -13    1    3    3    0    0  0.32626210742E+03 -0.70226200838E+03 -0.18335786534E+03  0.79576316143E+03  0.10566000000E+00 0.  1.
          4    1    3    3  501    0  0.85521394716E+02  0.35458127856E+03  0.46357651080E+02  0.36768304812E+03  0.00000000000E+00 0.  1.
         13    1    4    4    0    0  0.17082900878E+03 -0.14466259252E+03 -0.28380276963E+03  0.36146070205E+03  0.10566000000E+00 0. -1.
         -4    1    4    4    0  502 -0.58261251091E+03  0.49234332233E+03  0.10489869405E+03  0.76996299972E+03  0.00000000000E+00 0. -1.
<mgrwt>
<rscale>  2 0.11456909E+04</rscale>
<asrwt>0</asrwt>
<pdfrwt beam="1">  1       21 0.15222812E+00 0.11553519E+04</pdfrwt>
<pdfrwt beam="2">  1       21 0.20082879E+00 0.11553519E+04</pdfrwt>
<totfact> 0.16596153E+01</totfact>
</mgrwt>
</event>
<event>
 8    1  0.5815007E-006  0.1217340E+04  0.7818608E-02  0.8621403E-01
         21   -1    0    0  503  502  0.00000000000E+00  0.00000000000E+00  0.15826129233E+04  0.15826129233E+04  0.00000000000E+00 0. -1.
         21   -1    0    0  501  503 -0.00000000000E+00 -0.00000000000E+00 -0.84442910045E+03  0.84442910045E+03  0.00000000000E+00 0. -1.
    9000010    2    1    2  501    0  0.65381657572E+03 -0.11842640471E+03  0.49859542885E+03  0.11863484805E+04  0.84695005019E+03 0.  0.
   -9000010    2    1    2    0  502 -0.65381657572E+03  0.11842640471E+03  0.23958839395E+03  0.12406935432E+04  0.10200083047E+04 0.  0.
        -13    1    3    3    0    0 -0.32615270531E+02 -0.34590898192E+03  0.22088938779E+03  0.41171460072E+03  0.10566000000E+00 0.  1.
          4    1    3    3  501    0  0.68643184625E+03  0.22748257721E+03  0.27770604107E+03  0.77463387980E+03  0.00000000000E+00 0.  1.
         13    1    4    4    0    0  0.27057495814E+03  0.57054940881E+02 -0.23815895299E+02  0.27754870255E+03  0.10566000000E+00 0. -1.
         -4    1    4    4    0  502 -0.92439153387E+03  0.61371463829E+02  0.26340428925E+03  0.96314484064E+03  0.00000000000E+00 0. -1.
<mgrwt>
<rscale>  2 0.11804872E+04</rscale>
<asrwt>0</asrwt>
<pdfrwt beam="1">  1       21 0.24347891E+00 0.12173405E+04</pdfrwt>
<pdfrwt beam="2">  1       21 0.12991217E+00 0.12173405E+04</pdfrwt>
<totfact> 0.12571901E+01</totfact>
</mgrwt>
</event>
<event>
 8    1  0.5815007E-006  0.1333941E+04  0.7818608E-02  0.8512010E-01
         21   -1    0    0  501  502  0.00000000000E+00  0.00000000000E+00  0.78378752505E+03  0.78378752505E+03  0.00000000000E+00 0.  1.
         21   -1    0    0  502  503 -0.00000000000E+00 -0.00000000000E+00 -0.22705790877E+04  0.22705790877E+04  0.00000000000E+00 0.  1.
   -9000010    2    1    2    0  503 -0.78834390749E+03  0.37860322720E+03 -0.76525648704E+03  0.15378608491E+04  0.10072596389E+04 0.  0.
    9000010    2    1    2  501    0  0.78834390749E+03 -0.37860322720E+03 -0.72153507565E+03  0.15165057637E+04  0.10071496144E+04 0.  0.
        -13    1    4    4    0    0  0.10082563426E+03  0.31473117236E+03 -0.32228238403E+03  0.46161397899E+03  0.10566000000E+00 0.  1.
          4    1    4    4  501    0  0.68751827323E+03 -0.69333439956E+03 -0.39925269162E+03  0.10548917847E+04  0.00000000000E+00 0.  1.
         13    1    3    3    0    0 -0.15115320854E+03 -0.31786840606E+03 -0.38093570495E+03  0.51865175069E+03  0.10566000000E+00 0. -1.
         -4    1    3    3    0  503 -0.63719069895E+03  0.69647163326E+03 -0.38432078209E+03  0.10192090984E+04  0.00000000000E+00 0. -1.
<mgrwt>
<rscale>  2 0.13339202E+04</rscale>
<asrwt>0</asrwt>
<pdfrwt beam="1">  1       21 0.12058270E+00 0.13339410E+04</pdfrwt>
<pdfrwt beam="2">  1       21 0.34931986E+00 0.13339410E+04</pdfrwt>
<totfact> 0.26852493E+00</totfact>
</mgrwt>
</event>
<event>
 8    1  0.5815007E-006  0.1360432E+04  0.7818608E-02  0.8495763E-01
         21   -1    0    0  501  502  0.00000000000E+00  0.00000000000E+00  0.16254386778E+04  0.16254386778E+04  0.00000000000E+00 0. -1.
         21   -1    0    0  502  503 -0.00000000000E+00 -0.00000000000E+00 -0.11389676963E+04  0.11389676963E+04  0.00000000000E+00 0.  1.
   -9000010    2    1    2    0  503 -0.88791522801E+03  0.19489011139E+03  0.34481630100E+03  0.14034502721E+04  0.10121258702E+04 0.  0.
    9000010    2    1    2  501    0  0.88791522801E+03 -0.19489011139E+03  0.14165468049E+03  0.13609561021E+04  0.10028757927E+04 0.  0.
        -13    1    4    4    0    0  0.12483886840E+03  0.27628641016E+03  0.32620458320E+03  0.44534072884E+03  0.10566000000E+00 0.  1.
          4    1    4    4  501    0  0.76307635961E+03 -0.47117652155E+03 -0.18454990270E+03  0.91561537321E+03  0.00000000000E+00 0.  1.
         13    1    3    3    0    0 -0.72480703182E+03 -0.22590500188E+03  0.51906570464E+03  0.91967794371E+03  0.10566000000E+00 0. -1.
         -4    1    3    3    0  503 -0.16310819620E+03  0.42079511327E+03 -0.17424940364E+03  0.48377232836E+03  0.00000000000E+00 0. -1.
<mgrwt>
<rscale>  2 0.13587115E+04</rscale>
<asrwt>0</asrwt>
<pdfrwt beam="1">  1       21 0.25006749E+00 0.13604317E+04</pdfrwt>
<pdfrwt beam="2">  1       21 0.17522580E+00 0.13604317E+04</pdfrwt>
<totfact> 0.43181645E+00</totfact>
</mgrwt>
</event>
<event>
 8    1  0.5815007E-006  0.1027175E+04  0.7818608E-02  0.8753411E-01
         21   -1    0    0  501  502  0.00000000000E+00  0.00000000000E+00  0.66188114133E+03  0.66188114133E+03  0.00000000000E+00 0. -1.
         21   -1    0    0  502  503 -0.00000000000E+00 -0.00000000000E+00 -0.15792819696E+04  0.15792819696E+04  0.00000000000E+00 0. -1.
   -9000010    2    1    2    0  503 -0.18138154243E+03 -0.25187516172E+02 -0.35818835148E+03  0.10716298740E+04  0.99325626944E+03 0.  0.
    9000010    2    1    2  501    0  0.18138154243E+03  0.25187516172E+02 -0.55921247683E+03  0.11695332370E+04  0.10107203982E+04 0.  0.
        -13    1    4    4    0    0 -0.93041277412E+02 -0.39760815554E+03 -0.52390844755E+03  0.66425070360E+03  0.10566000000E+00 0.  1.
          4    1    4    4  501    0  0.27442281984E+03  0.42279567171E+03 -0.35304029285E+02  0.50528253339E+03  0.00000000000E+00 0.  1.
         13    1    3    3    0    0 -0.13245627726E+03 -0.40824142591E+03 -0.50118149982E+03  0.65983985492E+03  0.10566000000E+00 0. -1.
         -4    1    3    3    0  503 -0.48925265170E+02  0.38305390973E+03  0.14299314834E+03  0.41179001907E+03  0.00000000000E+00 0. -1.
<mgrwt>
<rscale>  2 0.10228534E+04</rscale>
<asrwt>0</asrwt>
<pdfrwt beam="1">  1       21 0.10182787E+00 0.10271754E+04</pdfrwt>
<pdfrwt beam="2">  1       21 0.24296645E+00 0.10271754E+04</pdfrwt>
<totfact> 0.25845840E+01</totfact>
</mgrwt>
</event>
<event>
 8    1  0.5815007E-006  0.1095459E+04  0.7818608E-02  0.8693065E-01
         21   -1    0    0  503  502  0.00000000000E+00  0.00000000000E+00  0.11669373850E+04  0.11669373850E+04  0.00000000000E+00 0.  1.
         21   -1    0    0  501  503 -0.00000000000E+00 -0.00000000000E+00 -0.10373140139E+04  0.10373140139E+04  0.00000000000E+00 0.  1.
    9000010    2    1    2  501    0  0.33902980758E+03 -0.23124153567E+03 -0.10112150221E+03  0.11001161796E+04  0.10156850851E+04 0.  0.
   -9000010    2    1    2    0  502 -0.33902980758E+03  0.23124153567E+03  0.23074487331E+03  0.11041352192E+04  0.99872795472E+03 0.  0.
        -13    1    3    3    0    0  0.13227516246E+03 -0.60225141917E+03 -0.22709752933E+03  0.65709724508E+03  0.10566000000E+00 0.  1.
          4    1    3    3  501    0  0.20675464512E+03  0.37100988350E+03  0.12597602712E+03  0.44301893452E+03  0.00000000000E+00 0.  1.
         13    1    4    4    0    0 -0.42108756960E+03  0.55092259783E+03 -0.13489196174E+02  0.69355058910E+03  0.10566000000E+00 0. -1.
         -4    1    4    4    0  502  0.82057762013E+02 -0.31968106215E+03  0.24423406948E+03  0.41058463013E+03  0.00000000000E+00 0. -1.
<mgrwt>
<rscale>  2 0.10915117E+04</rscale>
<asrwt>0</asrwt>
<pdfrwt beam="1">  1       21 0.17952883E+00 0.10954588E+04</pdfrwt>
<pdfrwt beam="2">  1       21 0.15958677E+00 0.10954588E+04</pdfrwt>
<totfact> 0.21437239E+01</totfact>
</mgrwt>
</event>
<event>
 8    1  0.5815007E-006  0.1273491E+04  0.7818608E-02  0.8553410E-01
         21   -1    0    0  503  502  0.00000000000E+00  0.00000000000E+00  0.15789948877E+04  0.15789948877E+04  0.00000000000E+00 0.  1.
         21   -1    0    0  501  503 -0.00000000000E+00 -0.00000000000E+00 -0.10411964843E+04  0.10411964843E+04  0.00000000000E+00 0.  1.
    9000010    2    1    2  501    0  0.10202371773E+03  0.78012530814E+03  0.11081403857E+03  0.12770254293E+04  0.99975490027E+03 0.  0.
   -9000010    2    1    2    0  502 -0.10202371773E+03 -0.78012530814E+03  0.42698436477E+03  0.13431659426E+04  0.10013864221E+04 0.  0.
        -13    1    3    3    0    0  0.22890491526E+03  0.97504935137E+03  0.21139964107E+03  0.10236251840E+04  0.10566000000E+00 0.  1.
          4    1    3    3  501    0 -0.12688119752E+03 -0.19492404323E+03 -0.10058560251E+03  0.25340024536E+03  0.00000000000E+00 0.  1.
         13    1    4    4    0    0  0.41178935117E+03 -0.54750227783E+03  0.36362879127E+03  0.77559984719E+03  0.10566000000E+00 0. -1.
         -4    1    4    4    0  502 -0.51381306890E+03 -0.23262303031E+03  0.63355573498E+02  0.56756609545E+03  0.00000000000E+00 0. -1.
<mgrwt>
<rscale>  2 0.12731702E+04</rscale>
<asrwt>0</asrwt>
<pdfrwt beam="1">  1       21 0.24292229E+00 0.12734909E+04</pdfrwt>
<pdfrwt beam="2">  1       21 0.16018407E+00 0.12734909E+04</pdfrwt>
<totfact> 0.66430371E+00</totfact>
</mgrwt>
</event>
<event>
 8    1  0.5815007E-006  0.1053247E+04  0.7818608E-02  0.8727808E-01
         21   -1    0    0  501  502  0.00000000000E+00  0.00000000000E+00  0.17333319153E+04  0.17333319153E+04  0.00000000000E+00 0.  1.
         21   -1    0    0  502  503 -0.00000000000E+00 -0.00000000000E+00 -0.68140123977E+03  0.68140123977E+03  0.00000000000E+00 0.  1.
   -9000010    2    1    2    0  503 -0.49167040507E+02  0.29456970378E+03  0.21386508689E+03  0.10747411081E+04  0.10100205274E+04 0.  0.
    9000010    2    1    2  501    0  0.49167040507E+02 -0.29456970378E+03  0.83806558865E+03  0.13399920470E+04  0.10020159913E+04 0.  0.
        -13    1    4    4    0    0  0.12094042230E+03 -0.12297287539E+03 -0.21215901623E+03  0.27342343199E+03  0.10566000000E+00 0.  1.
          4    1    4    4  501    0 -0.71773381790E+02 -0.17159682839E+03  0.10502246049E+04  0.10665686150E+04  0.00000000000E+00 0.  1.
         13    1    3    3    0    0 -0.43880577197E+03 -0.77577749398E+02  0.28841323208E+03  0.53080223843E+03  0.10566000000E+00 0. -1.
         -4    1    3    3    0  503  0.38963873146E+03  0.37214745318E+03 -0.74548145194E+02  0.54393886964E+03  0.00000000000E+00 0. -1.
<mgrwt>
<rscale>  2 0.10513238E+04</rscale>
<asrwt>0</asrwt>
<pdfrwt beam="1">  1       21 0.26666645E+00 0.10532474E+04</pdfrwt>
<pdfrwt beam="2">  1       21 0.10483096E+00 0.10532474E+04</pdfrwt>
<totfact> 0.16021572E+01</totfact>
</mgrwt>
</event>
<event>
 8    1  0.5815007E-006  0.1259278E+04  0.7818608E-02  0.8572893E-01
         21   -1    0    0  503  502  0.00000000000E+00  0.00000000000E+00  0.69786430311E+03  0.69786430311E+03  0.00000000000E+00 0. -1.
         21   -1    0    0  501  503 -0.00000000000E+00 -0.00000000000E+00 -0.25092924327E+04  0.25092924327E+04  0.00000000000E+00 0.  1.
    9000010    2    1    2  501    0  0.25011979899E+03 -0.70979419146E+03 -0.15059531992E+04  0.19630780893E+04  0.10096597637E+04 0.  0.
   -9000010    2    1    2    0  502 -0.25011979899E+03  0.70979419146E+03 -0.30547493044E+03  0.12440786465E+04  0.94236353787E+03 0.  0.
        -13    1    3    3    0    0  0.33466419891E+03  0.10765095665E+03 -0.82154429136E+03  0.89360163850E+03  0.10566000000E+00 0.  1.
          4    1    3    3  501    0 -0.84544399915E+02 -0.81744514811E+03 -0.68440890781E+03  0.10694764508E+04  0.00000000000E+00 0.  1.
         13    1    4    4    0    0 -0.57207633579E+03  0.63409174865E+03 -0.32255893468E+03  0.91290084740E+03  0.10566000000E+00 0. -1.
         -4    1    4    4    0  502  0.32195653679E+03  0.75702442813E+02  0.17084004242E+02  0.33117779912E+03  0.00000000000E+00 0. -1.
<mgrwt>
<rscale>  2 0.12457396E+04</rscale>
<asrwt>0</asrwt>
<pdfrwt beam="1">  1       21 0.10736374E+00 0.12592778E+04</pdfrwt>
<pdfrwt beam="2">  1       21 0.38604500E+00 0.12592778E+04</pdfrwt>
<totfact> 0.20721754E+00</totfact>
</mgrwt>
</event>
<event>
 8    1  0.5815007E-006  0.1472790E+04  0.7818608E-02  0.8460471E-01
         21   -1    0    0  501  502  0.00000000000E+00  0.00000000000E+00  0.22889721160E+04  0.22889721160E+04  0.00000000000E+00 0. -1.
         21   -1    0    0  502  503 -0.00000000000E+00 -0.00000000000E+00 -0.11287866923E+04  0.11287866923E+04  0.00000000000E+00 0.  1.
   -9000010    2    1    2    0  503  0.80591169377E+03  0.11455905491E+03 -0.35733418607E+03  0.13030542171E+04  0.95270411828E+03 0.  0.
    9000010    2    1    2  501    0 -0.80591169377E+03 -0.11455905491E+03  0.15175196098E+04  0.21147045912E+04  0.12273924827E+04 0.  0.
        -13    1    4    4    0    0 -0.41267864412E+03 -0.59446886629E+03  0.12384688450E+04  0.14343995215E+04  0.10566000000E+00 0.  1.
          4    1    4    4  501    0 -0.39323304965E+03  0.47990981138E+03  0.27905076483E+03  0.68030506962E+03  0.00000000000E+00 0.  1.
         13    1    3    3    0    0 -0.11524522407E+03  0.23463073193E+03  0.84036549114E+02  0.27458185444E+03  0.10566000000E+00 0. -1.
         -4    1    3    3    0  503  0.92115691783E+03 -0.12007167702E+03 -0.44137073519E+03  0.10284723627E+04  0.00000000000E+00 0. -1.
<mgrwt>
<rscale>  2 0.14144972E+04</rscale>
<asrwt>0</asrwt>
<pdfrwt beam="1">  1       21 0.35214955E+00 0.14727898E+04</pdfrwt>
<pdfrwt beam="2">  1       21 0.17365949E+00 0.14727898E+04</pdfrwt>
<totfact> 0.82033074E-01</totfact>
</mgrwt>
</event>
<event>
 8    1  0.5815007E-006  0.1110687E+04  0.7818608E-02  0.8680268E-01
         21   -1    0    0  503  502  0.00000000000E+00  0.00000000000E+00  0.69300997327E+03  0.69300997327E+03  0.00000000000E+00 0.  1.
         21   -1    0    0  501  503 -0.00000000000E+00 -0.00000000000E+00 -0.17553071209E+04  0.17553071209E+04  0.00000000000E+00 0.  1.
    9000010    2    1    2  501    0 -0.36926427245E+03  0.38899988504E+03 -0.52943352289E+03  0.12164201754E+04  0.95483044283E+03 0.  0.
   -9000010    2    1    2    0  502  0.36926427245E+03 -0.38899988504E+03 -0.53286362476E+03  0.12318969188E+04  0.97259928153E+03 0.  0.
        -13    1    3    3    0    0 -0.36938995798E+03 -0.21299593126E+03 -0.43126994900E+03  0.60647340244E+03  0.10566000000E+00 0.  1.
          4    1    3    3  501    0  0.12568553148E+00  0.60199581630E+03 -0.98163573893E+02  0.60994677299E+03  0.00000000000E+00 0.  1.
         13    1    4    4    0    0 -0.33803010824E+02  0.43621707565E+02  0.24707238336E+03  0.25316056307E+03  0.10566000000E+00 0. -1.
         -4    1    4    4    0  502  0.40306728327E+03 -0.43262159260E+03 -0.77993600812E+03  0.97873635571E+03  0.00000000000E+00 0. -1.
<mgrwt>
<rscale>  2 0.11067853E+04</rscale>
<asrwt>0</asrwt>
<pdfrwt beam="1">  1       21 0.10661692E+00 0.11106873E+04</pdfrwt>
<pdfrwt beam="2">  1       21 0.27004725E+00 0.11106873E+04</pdfrwt>
<totfact> 0.14302190E+01</totfact>
</mgrwt>
</event>
<event>
 8    1  0.5815007E-006  0.1038496E+04  0.7818608E-02  0.8739415E-01
         21   -1    0    0  503  502  0.00000000000E+00  0.00000000000E+00  0.18339227074E+04  0.18339227074E+04  0.00000000000E+00 0.  1.
         21   -1    0    0  501  503 -0.00000000000E+00 -0.00000000000E+00 -0.59510427816E+03  0.59510427816E+03  0.00000000000E+00 0.  1.
    9000010    2    1    2  501    0 -0.90397889865E+02  0.22724065599E+03  0.48348111636E+03  0.11455255081E+04  0.10092891585E+04 0.  0.
   -9000010    2    1    2    0  502  0.90397889865E+02 -0.22724065599E+03  0.75533731289E+03  0.12835014775E+04  0.10084797927E+04 0.  0.
        -13    1    3    3    0    0  0.31543289151E+03 -0.91204633208E+02 -0.12182580029E+03  0.35022525744E+03  0.10566000000E+00 0.  1.
          4    1    3    3  501    0 -0.40583078138E+03  0.31844528920E+03  0.60530691666E+03  0.79530025065E+03  0.00000000000E+00 0.  1.
         13    1    4    4    0    0 -0.54375430650E+01 -0.27474086935E+03  0.98902920739E+03  0.10264944697E+04  0.10566000000E+00 0. -1.
         -4    1    4    4    0  502  0.95835432930E+02  0.47500213361E+02 -0.23369189450E+03  0.25700700774E+03  0.00000000000E+00 0. -1.
<mgrwt>
<rscale>  2 0.10382997E+04</rscale>
<asrwt>0</asrwt>
<pdfrwt beam="1">  1       21 0.28214195E+00 0.10384964E+04</pdfrwt>
<pdfrwt beam="2">  1       21 0.91554505E-01 0.10384964E+04</pdfrwt>
<totfact> 0.17712164E+01</totfact>
</mgrwt>
</event>
<event>
 8    1  0.5815007E-006  0.1189677E+04  0.7818608E-02  0.8615148E-01
         21   -1    0    0  501  502  0.00000000000E+00  0.00000000000E+00  0.16746106059E+04  0.16746106059E+04  0.00000000000E+00 0.  1.
         21   -1    0    0  502  503 -0.00000000000E+00 -0.00000000000E+00 -0.11353990378E+04  0.11353990378E+04  0.00000000000E+00 0.  1.
   -9000010    2    1    2    0  503  0.32440722946E+03  0.55214850531E+03  0.98312449059E+03  0.15402100565E+04  0.99780019626E+03 0.  0.
    9000010    2    1    2  501    0 -0.32440722946E+03 -0.55214850531E+03 -0.44391292252E+03  0.12697995872E+04  0.10026087404E+04 0.  0.
        -13    1    4    4    0    0  0.84605288550E+00  0.23795552804E+03 -0.33141350996E+03  0.40799322896E+03  0.10566000000E+00 0.  1.
          4    1    4    4  501    0 -0.32525328235E+03 -0.79010403335E+03 -0.11249941256E+03  0.86180635819E+03  0.00000000000E+00 0.  1.
         13    1    3    3    0    0 -0.15000927731E+03  0.49345632922E+03  0.92445106886E+03  0.10585894965E+04  0.10566000000E+00 0. -1.
         -4    1    3    3    0  503  0.47441650677E+03  0.58692176095E+02  0.58673421734E+02  0.48162056004E+03  0.00000000000E+00 0. -1.
<mgrwt>
<rscale>  2 0.11886637E+04</rscale>
<asrwt>0</asrwt>
<pdfrwt beam="1">  1       21 0.25763240E+00 0.11896774E+04</pdfrwt>
<pdfrwt beam="2">  1       21 0.17467678E+00 0.11896774E+04</pdfrwt>
<totfact> 0.39798733E+00</totfact>
</mgrwt>
</event>
<event>
 8    1  0.5815007E-006  0.1282795E+04  0.7818608E-02  0.8548587E-01
         21   -1    0    0  501  502  0.00000000000E+00  0.00000000000E+00  0.96062374833E+03  0.96062374833E+03  0.00000000000E+00 0. -1.
         21   -1    0    0  502  503 -0.00000000000E+00 -0.00000000000E+00 -0.22683411895E+04  0.22683411895E+04  0.00000000000E+00 0. -1.
   -9000010    2    1    2    0  503 -0.17497221042E+03 -0.79055838920E+03  0.15737501292E+03  0.12816440044E+04  0.98094169962E+03 0.  0.
    9000010    2    1    2  501    0  0.17497221042E+03  0.79055838920E+03 -0.14650924541E+04  0.19473209335E+04  0.99496988787E+03 0.  0.
        -13    1    4    4    0    0 -0.32780736910E+03 -0.11794100316E+02 -0.47588720786E+03  0.57798392522E+03  0.10566000000E+00 0.  1.
          4    1    4    4  501    0  0.50277957952E+03  0.80235248951E+03 -0.98920524621E+03  0.13693370082E+04  0.00000000000E+00 0.  1.
         13    1    3    3    0    0  0.11936807611E+03 -0.76076723865E+03 -0.22117023451E+03  0.80120647326E+03  0.10566000000E+00 0. -1.
         -4    1    3    3    0  503 -0.29434028653E+03 -0.29791150543E+02  0.37854524743E+03  0.48043753109E+03  0.00000000000E+00 0. -1.
<mgrwt>
<rscale>  2 0.12800739E+04</rscale>
<asrwt>0</asrwt>
<pdfrwt beam="1">  1       21 0.14778827E+00 0.12827950E+04</pdfrwt>
<pdfrwt beam="2">  1       21 0.34897556E+00 0.12827950E+04</pdfrwt>
<totfact> 0.15002549E+00</totfact>
</mgrwt>
</event>
<event>
 8    1  0.5815007E-006  0.1182719E+04  0.7818608E-02  0.8624540E-01
         21   -1    0    0  501  502  0.00000000000E+00  0.00000000000E+00  0.32047418212E+04  0.32047418212E+04  0.00000000000E+00 0.  1.
         21   -1    0    0  502  503 -0.00000000000E+00 -0.00000000000E+00 -0.46180910809E+03  0.46180910809E+03  0.00000000000E+00 0.  1.
   -9000010    2    1    2    0  503 -0.19926662724E+03 -0.58757381508E+03  0.88389982890E+03  0.14765173409E+04  0.10069132900E+04 0.  0.
    9000010    2    1    2  501    0  0.19926662724E+03  0.58757381508E+03  0.18590328842E+04  0.21900335883E+04  0.97739126078E+03 0.  0.
        -13    1    4    4    0    0 -0.69359018736E+02 -0.12921760523E+02 -0.10063191329E+03  0.12290011600E+03  0.10566000000E+00 0.  1.
          4    1    4    4  501    0  0.26862564597E+03  0.60049557560E+03  0.19596647975E+04  0.20671334723E+04  0.00000000000E+00 0.  1.
         13    1    3    3    0    0 -0.18038038092E+03 -0.32107955007E+02  0.90201616673E+03  0.92043532027E+03  0.10566000000E+00 0. -1.
         -4    1    3    3    0  503 -0.18886246318E+02 -0.55546586007E+03 -0.18116337835E+02  0.55608202066E+03  0.00000000000E+00 0. -1.
<mgrwt>
<rscale>  2 0.11764113E+04</rscale>
<asrwt>0</asrwt>
<pdfrwt beam="1">  1       21 0.49303719E+00 0.11827191E+04</pdfrwt>
<pdfrwt beam="2">  1       21 0.71047557E-01 0.11827191E+04</pdfrwt>
<totfact> 0.10799728E+00</totfact>
</mgrwt>
</event>
<event>
 8    1  0.5815007E-006  0.1305663E+04  0.7818608E-02  0.8531003E-01
         21   -1    0    0  501  502  0.00000000000E+00  0.00000000000E+00  0.90010487889E+03  0.90010487889E+03  0.00000000000E+00 0. -1.
         21   -1    0    0  502  503 -0.00000000000E+00 -0.00000000000E+00 -0.18960118690E+04  0.18960118690E+04  0.00000000000E+00 0. -1.
   -9000010    2    1    2    0  503 -0.79335770473E+03 -0.27111826242E+03 -0.54629713355E+03  0.14152096980E+04  0.10007279208E+04 0.  0.
    9000010    2    1    2  501    0  0.79335770473E+03  0.27111826242E+03 -0.44960985660E+03  0.13809070499E+04  0.10009164288E+04 0.  0.
        -13    1    4    4    0    0 -0.72706206559E+02 -0.24071279192E+03  0.52017203568E+02  0.25677741586E+03  0.10566000000E+00 0.  1.
          4    1    4    4  501    0  0.86606391129E+03  0.51183105434E+03 -0.50162706017E+03  0.11241296340E+04  0.00000000000E+00 0.  1.
         13    1    3    3    0    0 -0.54596354714E+03 -0.38407758863E+03 -0.80094188856E+03  0.10426407382E+04  0.10566000000E+00 0. -1.
         -4    1    3    3    0  503 -0.24739415760E+03  0.11295932621E+03  0.25464475501E+03  0.37256895985E+03  0.00000000000E+00 0. -1.
<mgrwt>
<rscale>  2 0.13056266E+04</rscale>
<asrwt>0</asrwt>
<pdfrwt beam="1">  1       21 0.13847767E+00 0.13056628E+04</pdfrwt>
<pdfrwt beam="2">  1       21 0.29169413E+00 0.13056628E+04</pdfrwt>
<totfact> 0.46060224E+00</totfact>
</mgrwt>
</event>
<event>
 8    1  0.5815007E-006  0.1111649E+04  0.7818608E-02  0.8690216E-01
         21   -1    0    0  501  502  0.00000000000E+00  0.00000000000E+00  0.89789898459E+03  0.89789898459E+03  0.00000000000E+00 0. -1.
         21   -1    0    0  502  503 -0.00000000000E+00 -0.00000000000E+00 -0.13136895359E+04  0.13136895359E+04  0.00000000000E+00 0. -1.
   -9000010    2    1    2    0  503  0.37870864634E+03 -0.22139768505E+03 -0.32867886444E+03  0.10965319929E+04  0.94969228793E+03 0.  0.
    9000010    2    1    2  501    0 -0.37870864634E+03  0.22139768505E+03 -0.87111686901E+02  0.11150565276E+04  0.10214330326E+04 0.  0.
        -13    1    4    4    0    0  0.11473794451E+03  0.37993112724E+03  0.27496298705E+03  0.48282203012E+03  0.10566000000E+00 0.  1.
          4    1    4    4  501    0 -0.49344659085E+03 -0.15853344219E+03 -0.36207467396E+03  0.63223449750E+03  0.00000000000E+00 0.  1.
         13    1    3    3    0    0  0.31326800877E+03  0.18305500080E+03  0.21040485955E+03  0.41942364588E+03  0.10566000000E+00 0. -1.
         -4    1    3    3    0  503  0.65440637574E+02 -0.40445268585E+03 -0.53908372398E+03  0.67710834702E+03  0.00000000000E+00 0. -1.
<mgrwt>
<rscale>  2 0.10948895E+04</rscale>
<asrwt>0</asrwt>
<pdfrwt beam="1">  1       21 0.13813831E+00 0.11116486E+04</pdfrwt>
<pdfrwt beam="2">  1       21 0.20210608E+00 0.11116486E+04</pdfrwt>
<totfact> 0.21984410E+01</totfact>
</mgrwt>
</event>
<event>
 8    1  0.5815007E-006  0.1074402E+04  0.7818608E-02  0.8707686E-01
         21   -1    0    0  503  502  0.00000000000E+00  0.00000000000E+00  0.45384802632E+03  0.45384802632E+03  0.00000000000E+00 0. -1.
         21   -1    0    0  501  503 -0.00000000000E+00 -0.00000000000E+00 -0.26095984675E+04  0.26095984675E+04  0.00000000000E+00 0. -1.
    9000010    2    1    2  501    0  0.37989889101E+03 -0.13804250685E+03 -0.13221675564E+04  0.17035932620E+04  0.99535122149E+03 0.  0.
   -9000010    2    1    2    0  502 -0.37989889101E+03  0.13804250685E+03 -0.83358288479E+03  0.13598532318E+04  0.99547048430E+03 0.  0.
        -13    1    3    3    0    0 -0.32578350342E+03 -0.16977786167E+03 -0.42722257433E+03  0.56345235166E+03  0.10566000000E+00 0.  1.
          4    1    3    3  501    0  0.70568239443E+03  0.31735354820E+02 -0.89494498203E+03  0.11401409103E+04  0.00000000000E+00 0.  1.
         13    1    4    4    0    0  0.23329190382E+03  0.24402878723E+02 -0.67754120140E+03  0.71699560922E+03  0.10566000000E+00 0. -1.
         -4    1    4    4    0  502 -0.61319079483E+03  0.11363962812E+03 -0.15604168339E+03  0.64285762257E+03  0.00000000000E+00 0. -1.
<mgrwt>
<rscale>  2 0.10743747E+04</rscale>
<asrwt>0</asrwt>
<pdfrwt beam="1">  1       21 0.69822774E-01 0.10744023E+04</pdfrwt>
<pdfrwt beam="2">  1       21 0.40147668E+00 0.10744023E+04</pdfrwt>
<totfact> 0.49645590E+00</totfact>
</mgrwt>
</event>
<event>
 8    1  0.5815007E-006  0.1188102E+04  0.7818608E-02  0.8616649E-01
         21   -1    0    0  501  502  0.00000000000E+00  0.00000000000E+00  0.83639451870E+03  0.83639451870E+03  0.00000000000E+00 0. -1.
         21   -1    0    0  502  503 -0.00000000000E+00 -0.00000000000E+00 -0.19141151969E+04  0.19141151969E+04  0.00000000000E+00 0. -1.
   -9000010    2    1    2    0  503  0.49538788449E+03 -0.38667035943E+03 -0.10189745462E+04  0.15609566722E+04  0.10016753385E+04 0.  0.
    9000010    2    1    2  501    0 -0.49538788449E+03  0.38667035943E+03 -0.58746132017E+02  0.11895530434E+04  0.10082966886E+04 0.  0.
        -13    1    4    4    0    0 -0.16995419476E+03  0.35484636108E+03  0.44184462542E+03  0.59163084137E+03  0.10566000000E+00 0.  1.
          4    1    4    4  501    0 -0.32543368973E+03  0.31823998350E+02 -0.50059075743E+03  0.59792220206E+03  0.00000000000E+00 0.  1.
         13    1    3    3    0    0  0.20461439586E+03 -0.70846812447E+03 -0.53480830573E+03  0.91094130954E+03  0.10566000000E+00 0. -1.
         -4    1    3    3    0  503  0.29077348862E+03  0.32179776504E+03 -0.48416624048E+03  0.65001536266E+03  0.00000000000E+00 0. -1.
<mgrwt>
<rscale>  2 0.11866955E+04</rscale>
<asrwt>0</asrwt>
<pdfrwt beam="1">  1       21 0.12867608E+00 0.11881016E+04</pdfrwt>
<pdfrwt beam="2">  1       21 0.29447926E+00 0.11881016E+04</pdfrwt>
<totfact> 0.55881614E+00</totfact>
</mgrwt>
</event>
<event>
 8    1  0.5815007E-006  0.1109408E+04  0.7818608E-02  0.8690878E-01
         21   -1    0    0  501  502  0.00000000000E+00  0.00000000000E+00  0.74123629326E+03  0.74123629326E+03  0.00000000000E+00 0. -1.
         21   -1    0    0  502  503 -0.00000000000E+00 -0.00000000000E+00 -0.15871150271E+04  0.15871150271E+04  0.00000000000E+00 0. -1.
   -9000010    2    1    2    0  503  0.43515451032E+03  0.20527365954E+03 -0.52518987474E+03  0.11735229607E+04  0.93264945799E+03 0.  0.
    9000010    2    1    2  501    0 -0.43515451032E+03 -0.20527365954E+03 -0.32068885914E+03  0.11548283597E+04  0.99964517352E+03 0.  0.
        -13    1    4    4    0    0  0.25979942419E+03  0.11951002139E+03  0.69354620191E+02  0.29425917237E+03  0.10566000000E+00 0.  1.
          4    1    4    4  501    0 -0.69495393451E+03 -0.32478368093E+03 -0.39004347933E+03  0.86056918737E+03  0.00000000000E+00 0.  1.
         13    1    3    3    0    0  0.56402408190E+03 -0.17514392659E+03 -0.11934745651E+03  0.60252998806E+03  0.10566000000E+00 0. -1.
         -4    1    3    3    0  503 -0.12886957157E+03  0.38041758613E+03 -0.40584241823E+03  0.57099297259E+03  0.00000000000E+00 0. -1.
<mgrwt>
<rscale>  2 0.10941034E+04</rscale>
<asrwt>0</asrwt>
<pdfrwt beam="1">  1       21 0.11403635E+00 0.11094085E+04</pdfrwt>
<pdfrwt beam="2">  1       21 0.24417154E+00 0.11094085E+04</pdfrwt>
<totfact> 0.18343447E+01</totfact>
</mgrwt>
</event>
<event>
 8    1  0.5815007E-006  0.1061408E+04  0.7818608E-02  0.8721504E-01
         21   -1    0    0  501  502  0.00000000000E+00  0.00000000000E+00  0.19476690774E+04  0.19476690774E+04  0.00000000000E+00 0.  1.
         21   -1    0    0  502  503 -0.00000000000E+00 -0.00000000000E+00 -0.57559568767E+03  0.57559568767E+03  0.00000000000E+00 0.  1.
   -9000010    2    1    2    0  503 -0.29230803705E+03 -0.15332150376E+03  0.78829999209E+03  0.13221207869E+04  0.10087789775E+04 0.  0.
    9000010    2    1    2  501    0  0.29230803705E+03  0.15332150376E+03  0.58377339761E+03  0.12011439782E+04  0.99649586276E+03 0.  0.
        -13    1    4    4    0    0  0.38518735129E+03 -0.10727327032E+03  0.77001755206E+03  0.86764272126E+03  0.10566000000E+00 0.  1.
          4    1    4    4  501    0 -0.92879314240E+02  0.26059477408E+03 -0.18624415445E+03  0.33350125690E+03  0.00000000000E+00 0.  1.
         13    1    3    3    0    0 -0.22410293887E+03  0.28560795430E+03  0.79920040706E+03  0.87779002762E+03  0.10566000000E+00 0. -1.
         -4    1    3    3    0  503 -0.68205098178E+02 -0.43892945806E+03 -0.10900414976E+02  0.44433075925E+03  0.00000000000E+00 0. -1.
<mgrwt>
<rscale>  2 0.10584789E+04</rscale>
<asrwt>0</asrwt>
<pdfrwt beam="1">  1       21 0.29964139E+00 0.10614078E+04</pdfrwt>
<pdfrwt beam="2">  1       21 0.88553183E-01 0.10614078E+04</pdfrwt>
<totfact> 0.14424284E+01</totfact>
</mgrwt>
</event>
<event>
 8    1  0.5815007E-006  0.1082718E+04  0.7818608E-02  0.8706604E-01
         21   -1    0    0  501  502  0.00000000000E+00  0.00000000000E+00  0.91274545764E+03  0.91274545764E+03  0.00000000000E+00 0. -1.
         21   -1    0    0  502  503 -0.00000000000E+00 -0.00000000000E+00 -0.14721524406E+04  0.14721524406E+04  0.00000000000E+00 0. -1.
   -9000010    2    1    2    0  503 -0.23419854399E+03  0.26821516283E+03 -0.73844807212E+03  0.12874767605E+04  0.99272479674E+03 0.  0.
    9000010    2    1    2  501    0  0.23419854399E+03 -0.26821516283E+03  0.17904108918E+03  0.10974211377E+04  0.10224916187E+04 0.  0.
        -13    1    4    4    0    0 -0.29896823523E+03  0.57047468004E+01 -0.22528230136E+03  0.37438840298E+03  0.10566000000E+00 0.  1.
          4    1    4    4  501    0  0.53316677922E+03 -0.27391990963E+03  0.40432339054E+03  0.72303273473E+03  0.00000000000E+00 0.  1.
         13    1    3    3    0    0  0.22017577428E+03  0.33884223990E+03 -0.72195376496E+03  0.82735040039E+03  0.10566000000E+00 0. -1.
         -4    1    3    3    0  503 -0.45437431826E+03 -0.70627077073E+02 -0.16494307165E+02  0.46012636012E+03  0.00000000000E+00 0. -1.
<mgrwt>
<rscale>  2 0.10756320E+04</rscale>
<asrwt>0</asrwt>
<pdfrwt beam="1">  1       21 0.14042238E+00 0.10827176E+04</pdfrwt>
<pdfrwt beam="2">  1       21 0.22648499E+00 0.10827176E+04</pdfrwt>
<totfact> 0.13739718E+01</totfact>
</mgrwt>
</event>
<event>
 8    1  0.5815007E-006  0.1070832E+04  0.7818608E-02  0.8713584E-01
         21   -1    0    0  503  502  0.00000000000E+00  0.00000000000E+00  0.11706758189E+04  0.11706758189E+04  0.00000000000E+00 0.  1.
         21   -1    0    0  501  503 -0.00000000000E+00 -0.00000000000E+00 -0.98064141599E+03  0.98064141599E+03  0.00000000000E+00 0.  1.
    9000010    2    1    2  501    0 -0.13303198234E+03 -0.33205486362E+03  0.21846842024E+03  0.10801080860E+04  0.99546325201E+03 0.  0.
   -9000010    2    1    2    0  502  0.13303198234E+03  0.33205486362E+03 -0.28434017285E+02  0.10712091489E+04  0.10093178917E+04 0.  0.
        -13    1    3    3    0    0 -0.34362310245E+03 -0.55421126791E+00  0.49299650994E+03  0.60093486640E+03  0.10566000000E+00 0.  1.
          4    1    3    3  501    0  0.21059112011E+03 -0.33150065236E+03 -0.27452808969E+03  0.47917321963E+03  0.00000000000E+00 0.  1.
         13    1    4    4    0    0  0.14263531572E+03  0.59070926543E+03  0.27955231468E+03  0.66890341408E+03  0.10566000000E+00 0. -1.
         -4    1    4    4    0  502 -0.96033333849E+01 -0.25865440181E+03 -0.30798633197E+03  0.40230573482E+03  0.00000000000E+00 0. -1.
<mgrwt>
<rscale>  2 0.10675545E+04</rscale>
<asrwt>0</asrwt>
<pdfrwt beam="1">  1       21 0.18010397E+00 0.10708317E+04</pdfrwt>
<pdfrwt beam="2">  1       21 0.15086791E+00 0.10708317E+04</pdfrwt>
<totfact> 0.25422284E+01</totfact>
</mgrwt>
</event>
<event>
 8    1  0.5815007E-006  0.1210385E+04  0.7818608E-02  0.8600142E-01
         21   -1    0    0  501  502  0.00000000000E+00  0.00000000000E+00  0.25719039804E+04  0.25719039804E+04  0.00000000000E+00 0. -1.
         21   -1    0    0  502  503 -0.00000000000E+00 -0.00000000000E+00 -0.57775975035E+03  0.57775975035E+03  0.00000000000E+00 0. -1.
   -9000010    2    1    2    0  503  0.52576432012E+03  0.38384721458E+03  0.12226618522E+04  0.17204455840E+04  0.10204235387E+04 0.  0.
    9000010    2    1    2  501    0 -0.52576432012E+03 -0.38384721458E+03  0.77148237783E+03  0.14292181467E+04  0.10117868586E+04 0.  0.
        -13    1    4    4    0    0  0.23402921326E+03 -0.35212266083E+03  0.15517001236E+03  0.45037516009E+03  0.10566000000E+00 0.  1.
          4    1    4    4  501    0 -0.75979353338E+03 -0.31724553755E+02  0.61631236546E+03  0.97884298664E+03  0.00000000000E+00 0.  1.
         13    1    3    3    0    0  0.48488729870E+03  0.23028750935E+03  0.52289842631E+02  0.53933502409E+03  0.10566000000E+00 0. -1.
         -4    1    3    3    0  503  0.40877021419E+02  0.15355970523E+03  0.11703720096E+04  0.11811105599E+04  0.00000000000E+00 0. -1.
<mgrwt>
<rscale>  2 0.12085625E+04</rscale>
<asrwt>0</asrwt>
<pdfrwt beam="1">  1       21 0.39567753E+00 0.12103847E+04</pdfrwt>
<pdfrwt beam="2">  1       21 0.88886117E-01 0.12103847E+04</pdfrwt>
<totfact> 0.29326106E+00</totfact>
</mgrwt>
</event>
<event>
 8    1  0.5815007E-006  0.1157774E+04  0.7818608E-02  0.8643871E-01
         21   -1    0    0  503  502  0.00000000000E+00  0.00000000000E+00  0.77415731465E+03  0.77415731465E+03  0.00000000000E+00 0.  1.
         21   -1    0    0  501  503 -0.00000000000E+00 -0.00000000000E+00 -0.16977693650E+04  0.16977693650E+04  0.00000000000E+00 0.  1.
    9000010    2    1    2  501    0 -0.18836718846E+03  0.53581534287E+03 -0.51233282259E+03  0.12660670868E+04  0.10088908107E+04 0.  0.
   -9000010    2    1    2    0  502  0.18836718846E+03 -0.53581534287E+03 -0.41127922772E+03  0.12058595928E+04  0.98100279055E+03 0.  0.
        -13    1    3    3    0    0 -0.29782760347E+03  0.79103838943E+03 -0.24366027536E+03  0.87966661633E+03  0.10566000000E+00 0.  1.
          4    1    3    3  501    0  0.10946041501E+03 -0.25522304656E+03 -0.26867254723E+03  0.38640047048E+03  0.00000000000E+00 0.  1.
         13    1    4    4    0    0 -0.17767078280E+03 -0.37960833756E+03  0.20941677482E+03  0.46853473057E+03  0.10566000000E+00 0. -1.
         -4    1    4    4    0  502  0.36603797125E+03 -0.15620700531E+03 -0.62069600254E+03  0.73732486224E+03  0.00000000000E+00 0. -1.
<mgrwt>
<rscale>  2 0.11516712E+04</rscale>
<asrwt>0</asrwt>
<pdfrwt beam="1">  1       21 0.11910113E+00 0.11577741E+04</pdfrwt>
<pdfrwt beam="2">  1       21 0.26119529E+00 0.11577741E+04</pdfrwt>
<totfact> 0.12108831E+01</totfact>
</mgrwt>
</event>
<event>
 8    1  0.5815007E-006  0.1062275E+04  0.7818608E-02  0.8738307E-01
         21   -1    0    0  501  502  0.00000000000E+00  0.00000000000E+00  0.10633028601E+04  0.10633028601E+04  0.00000000000E+00 0.  1.
         21   -1    0    0  502  503 -0.00000000000E+00 -0.00000000000E+00 -0.97706040644E+03  0.97706040644E+03  0.00000000000E+00 0.  1.
   -9000010    2    1    2    0  503  0.16293215483E+03 -0.13893450174E+03  0.87192175700E+02  0.97808804812E+03  0.95037049171E+03 0.  0.
    9000010    2    1    2  501    0 -0.16293215483E+03  0.13893450174E+03 -0.94972205426E+00  0.10622752184E+04  0.10404701124E+04 0.  0.
        -13    1    4    4    0    0 -0.55213275749E+03 -0.35195391426E+02  0.20339847092E+03  0.58945758678E+03  0.10566000000E+00 0.  1.
          4    1    4    4  501    0  0.38920060266E+03  0.17412989317E+03 -0.20434819297E+03  0.47281763163E+03  0.00000000000E+00 0.  1.
         13    1    3    3    0    0  0.16729673308E+03 -0.82020578668E+02  0.51438940273E+03  0.54709417930E+03  0.10566000000E+00 0. -1.
         -4    1    3    3    0  503 -0.43645782471E+01 -0.56913923073E+02 -0.42719722703E+03  0.43099386882E+03  0.00000000000E+00 0. -1.
<mgrwt>
<rscale>  2 0.10395347E+04</rscale>
<asrwt>0</asrwt>
<pdfrwt beam="1">  1       21 0.16358505E+00 0.10622748E+04</pdfrwt>
<pdfrwt beam="2">  1       21 0.15031699E+00 0.10622748E+04</pdfrwt>
<totfact> 0.35380648E+01</totfact>
</mgrwt>
</event>
<event>
 8    1  0.5815007E-006  0.1150753E+04  0.7818608E-02  0.8646206E-01
         21   -1    0    0  501  502  0.00000000000E+00  0.00000000000E+00  0.13421894339E+04  0.13421894339E+04  0.00000000000E+00 0. -1.
         21   -1    0    0  502  503 -0.00000000000E+00 -0.00000000000E+00 -0.11123658160E+04  0.11123658160E+04  0.00000000000E+00 0. -1.
   -9000010    2    1    2    0  503 -0.23319119198E+02  0.55768810758E+03 -0.30927250166E+03  0.11837851606E+04  0.99706470183E+03 0.  0.
    9000010    2    1    2  501    0  0.23319119198E+02 -0.55768810758E+03  0.53909611956E+03  0.12707700893E+04  0.10063161467E+04 0.  0.
        -13    1    4    4    0    0  0.44676399502E+03 -0.98249089549E+02  0.44632899618E+03  0.63910917287E+03  0.10566000000E+00 0.  1.
          4    1    4    4  501    0 -0.42344487582E+03 -0.45943901803E+03  0.92767123381E+02  0.63166091642E+03  0.00000000000E+00 0.  1.
         13    1    3    3    0    0 -0.37089158539E+03 -0.71813404174E+02 -0.26863823852E+03  0.46355608883E+03  0.10566000000E+00 0. -1.
         -4    1    3    3    0  503  0.34757246619E+03  0.62950151175E+03 -0.40634263140E+02  0.72022907182E+03  0.00000000000E+00 0. -1.
<mgrwt>
<rscale>  2 0.11487271E+04</rscale>
<asrwt>0</asrwt>
<pdfrwt beam="1">  1       21 0.20649068E+00 0.11507528E+04</pdfrwt>
<pdfrwt beam="2">  1       21 0.17113320E+00 0.11507528E+04</pdfrwt>
<totfact> 0.10323439E+01</totfact>
</mgrwt>
</event>
<event>
 8    1  0.5815007E-006  0.1230318E+04  0.7818608E-02  0.8586049E-01
         21   -1    0    0  503  502  0.00000000000E+00  0.00000000000E+00  0.21595382229E+04  0.21595382229E+04  0.00000000000E+00 0. -1.
         21   -1    0    0  501  503 -0.00000000000E+00 -0.00000000000E+00 -0.70741173206E+03  0.70741173206E+03  0.00000000000E+00 0. -1.
    9000010    2    1    2  501    0 -0.15132503452E+03 -0.69140222956E+03  0.53789740731E+03  0.13427645862E+04  0.10063532203E+04 0.  0.
   -9000010    2    1    2    0  502  0.15132503452E+03  0.69140222956E+03  0.91422908354E+03  0.15241853688E+04  0.99317164280E+03 0.  0.
        -13    1    3    3    0    0  0.50529968141E+02 -0.89573995266E+03  0.23948102852E+03  0.92857660678E+03  0.10566000000E+00 0.  1.
          4    1    3    3  501    0 -0.20185500266E+03  0.20433772310E+03  0.29841637879E+03  0.41418797944E+03  0.00000000000E+00 0.  1.
         13    1    4    4    0    0  0.21743276065E+03  0.42982034639E+03  0.10971396356E+04  0.11982228201E+04  0.10566000000E+00 0. -1.
         -4    1    4    4    0  502 -0.66107726127E+02  0.26158188317E+03 -0.18291055204E+03  0.32596254862E+03  0.00000000000E+00 0. -1.
<mgrwt>
<rscale>  2 0.12276198E+04</rscale>
<asrwt>0</asrwt>
<pdfrwt beam="1">  1       21 0.33223665E+00 0.12303183E+04</pdfrwt>
<pdfrwt beam="2">  1       21 0.10883258E+00 0.12303183E+04</pdfrwt>
<totfact> 0.47907873E+00</totfact>
</mgrwt>
</event>
<event>
 8    1  0.5815007E-006  0.1181071E+04  0.7818608E-02  0.8624093E-01
         21   -1    0    0  501  502  0.00000000000E+00  0.00000000000E+00  0.52287159283E+03  0.52287159283E+03  0.00000000000E+00 0.  1.
         21   -1    0    0  502  503 -0.00000000000E+00 -0.00000000000E+00 -0.26791754797E+04  0.26791754797E+04  0.00000000000E+00 0.  1.
   -9000010    2    1    2    0  503  0.61738666813E+03  0.32013048201E+02 -0.12848858038E+04  0.17342943645E+04  0.98724580568E+03 0.  0.
    9000010    2    1    2  501    0 -0.61738666813E+03 -0.32013048201E+02 -0.87141808310E+03  0.14677527080E+04  0.10063485495E+04 0.  0.
        -13    1    4    4    0    0 -0.73783528735E+03 -0.34504974325E+03 -0.45481139915E+03  0.93290602771E+03  0.10566000000E+00 0.  1.
          4    1    4    4  501    0  0.12044861922E+03  0.31303669505E+03 -0.41660668395E+03  0.53484668030E+03  0.00000000000E+00 0.  1.
         13    1    3    3    0    0  0.66744354600E+02  0.60991543954E+02  0.16220851084E+03  0.18570511425E+03  0.10566000000E+00 0. -1.
         -4    1    3    3    0  503  0.55064231353E+03 -0.28978495752E+02 -0.14470943146E+04  0.15485892503E+04  0.00000000000E+00 0. -1.
<mgrwt>
<rscale>  2 0.11769914E+04</rscale>
<asrwt>0</asrwt>
<pdfrwt beam="1">  1       21 0.80441782E-01 0.11810709E+04</pdfrwt>
<pdfrwt beam="2">  1       21 0.41218085E+00 0.11810709E+04</pdfrwt>
<totfact> 0.29146032E+00</totfact>
</mgrwt>
</event>
<event>
 8    1  0.5815007E-006  0.1327553E+04  0.7818608E-02  0.8518176E-01
         21   -1    0    0  501  502  0.00000000000E+00  0.00000000000E+00  0.15130728581E+04  0.15130728581E+04  0.00000000000E+00 0.  1.
         21   -1    0    0  502  503 -0.00000000000E+00 -0.00000000000E+00 -0.18242752912E+04  0.18242752912E+04  0.00000000000E+00 0.  1.
   -9000010    2    1    2    0  503  0.59514995154E+02  0.84988590340E+03 -0.11661326826E+04  0.17583286083E+04  0.10029984935E+04 0.  0.
    9000010    2    1    2  501    0 -0.59514995154E+02 -0.84988590340E+03  0.85493024948E+03  0.15790195410E+04  0.10181104537E+04 0.  0.
        -13    1    4    4    0    0  0.96945549815E+02  0.15449666815E+03 -0.78866630705E+02  0.19871491314E+03  0.10566000000E+00 0.  1.
          4    1    4    4  501    0 -0.15646054497E+03 -0.10043825716E+04  0.93379688018E+03  0.13803046278E+04  0.00000000000E+00 0.  1.
         13    1    3    3    0    0  0.39344057396E+02  0.69047083181E+03 -0.12244846631E+03  0.70234718089E+03  0.10566000000E+00 0. -1.
         -4    1    3    3    0  503  0.20170937759E+02  0.15941507158E+03 -0.10436842163E+04  0.10559814274E+04  0.00000000000E+00 0. -1.
<mgrwt>
<rscale>  2 0.13246551E+04</rscale>
<asrwt>0</asrwt>
<pdfrwt beam="1">  1       21 0.23278044E+00 0.13275530E+04</pdfrwt>
<pdfrwt beam="2">  1       21 0.28065773E+00 0.13275530E+04</pdfrwt>
<totfact> 0.92948969E-01</totfact>
</mgrwt>
</event>
<event>
 8    1  0.5815007E-006  0.1246915E+04  0.7818608E-02  0.8573913E-01
         21   -1    0    0  503  502  0.00000000000E+00  0.00000000000E+00  0.99316990960E+03  0.99316990960E+03  0.00000000000E+00 0. -1.
         21   -1    0    0  501  503 -0.00000000000E+00 -0.00000000000E+00 -0.15884457316E+04  0.15884457316E+04  0.00000000000E+00 0.  1.
    9000010    2    1    2  501    0 -0.71710226839E+03  0.19584123323E+03 -0.49048543239E+03  0.13303053714E+04  0.98820391110E+03 0.  0.
   -9000010    2    1    2    0  502  0.71710226839E+03 -0.19584123323E+03 -0.10479038956E+03  0.12513102697E+04  0.10011028486E+04 0.  0.
        -13    1    3    3    0    0 -0.35293942465E+03 -0.15524408180E+03  0.23076363329E+03  0.44935378937E+03  0.10566000000E+00 0.  1.
          4    1    3    3  501    0 -0.36416284374E+03  0.35108531503E+03 -0.72124906568E+03  0.88095158206E+03  0.00000000000E+00 0.  1.
         13    1    4    4    0    0  0.40291286373E+03  0.22752562090E+03  0.32967250597E+03  0.56814668553E+03  0.10566000000E+00 0. -1.
         -4    1    4    4    0  502  0.31418940466E+03 -0.42336685413E+03 -0.43446289553E+03  0.68316358419E+03  0.00000000000E+00 0. -1.
<mgrwt>
<rscale>  2 0.12443236E+04</rscale>
<asrwt>0</asrwt>
<pdfrwt beam="1">  1       21 0.15279537E+00 0.12469147E+04</pdfrwt>
<pdfrwt beam="2">  1       21 0.24437626E+00 0.12469147E+04</pdfrwt>
<totfact> 0.75624054E+00</totfact>
</mgrwt>
</event>
<event>
 8    1  0.5815007E-006  0.1183356E+04  0.7818608E-02  0.8623095E-01
         21   -1    0    0  503  502  0.00000000000E+00  0.00000000000E+00  0.21086382602E+04  0.21086382602E+04  0.00000000000E+00 0.  1.
         21   -1    0    0  501  503 -0.00000000000E+00 -0.00000000000E+00 -0.90229626765E+03  0.90229626765E+03  0.00000000000E+00 0. -1.
    9000010    2    1    2  501    0  0.51098085056E+03 -0.41287441368E+03  0.13909908390E+04  0.18132588358E+04  0.95994030051E+03 0.  0.
   -9000010    2    1    2    0  502 -0.51098085056E+03  0.41287441368E+03 -0.18464884645E+03  0.11976756920E+04  0.98425868326E+03 0.  0.
        -13    1    3    3    0    0  0.17702191024E+03  0.23151616920E+03  0.60455894823E+02  0.29764310792E+03  0.10566000000E+00 0.  1.
          4    1    3    3  501    0  0.33395894032E+03 -0.64439058289E+03  0.13305349441E+04  0.15156157279E+04  0.00000000000E+00 0.  1.
         13    1    4    4    0    0 -0.55670571662E+03 -0.34290199169E+02 -0.41250374799E+03  0.69372647776E+03  0.10566000000E+00 0. -1.
         -4    1    4    4    0  502  0.45724866057E+02  0.44716461285E+03  0.22785490154E+03  0.50394921423E+03  0.00000000000E+00 0. -1.
<mgrwt>
<rscale>  2 0.11782866E+04</rscale>
<asrwt>0</asrwt>
<pdfrwt beam="1">  1       21 0.32440588E+00 0.11833562E+04</pdfrwt>
<pdfrwt beam="2">  1       21 0.13881481E+00 0.11833562E+04</pdfrwt>
<totfact> 0.27542012E+00</totfact>
</mgrwt>
</event>
<event>
 8    1  0.5815007E-006  0.1144625E+04  0.7818608E-02  0.8650381E-01
         21   -1    0    0  503  502  0.00000000000E+00  0.00000000000E+00  0.28641928639E+04  0.28641928639E+04  0.00000000000E+00 0.  1.
         21   -1    0    0  501  503 -0.00000000000E+00 -0.00000000000E+00 -0.47335082426E+03  0.47335082426E+03  0.00000000000E+00 0.  1.
    9000010    2    1    2  501    0  0.26487153962E+03  0.48692319347E+03  0.15162067471E+04  0.18970040749E+04  0.99623813999E+03 0.  0.
   -9000010    2    1    2    0  502 -0.26487153962E+03 -0.48692319347E+03  0.87463529258E+03  0.14405396133E+04  0.10014571152E+04 0.  0.
        -13    1    3    3    0    0  0.61674426627E+03  0.46703840727E+03  0.11724533590E+04  0.14046868883E+04  0.10566000000E+00 0.  1.
          4    1    3    3  501    0 -0.35187272664E+03  0.19884786207E+02  0.34375338805E+03  0.49231718666E+03  0.00000000000E+00 0.  1.
         13    1    4    4    0    0 -0.45804950521E+02 -0.77757934319E+03  0.55870155061E+03  0.95857976312E+03  0.10566000000E+00 0. -1.
         -4    1    4    4    0  502 -0.21906658910E+03  0.29065614971E+03  0.31593374196E+03  0.48195985013E+03  0.00000000000E+00 0. -1.
<mgrwt>
<rscale>  2 0.11434829E+04</rscale>
<asrwt>0</asrwt>
<pdfrwt beam="1">  1       21 0.44064505E+00 0.11446255E+04</pdfrwt>
<pdfrwt beam="2">  1       21 0.72823205E-01 0.11446255E+04</pdfrwt>
<totfact> 0.23740206E+00</totfact>
</mgrwt>
</event>
<event>
 8    1  0.5815007E-006  0.1255582E+04  0.7818608E-02  0.8567560E-01
         21   -1    0    0  501  502  0.00000000000E+00  0.00000000000E+00  0.61758016472E+03  0.61758016472E+03  0.00000000000E+00 0.  1.
         21   -1    0    0  502  503 -0.00000000000E+00 -0.00000000000E+00 -0.25445046996E+04  0.25445046996E+04  0.00000000000E+00 0.  1.
   -9000010    2    1    2    0  503 -0.39012520278E+03  0.67173633291E+03 -0.10724290923E+04  0.16512387500E+04  0.98643696035E+03 0.  0.
    9000010    2    1    2  501    0  0.39012520278E+03 -0.67173633291E+03 -0.85449544261E+03  0.15108461143E+04  0.97420025915E+03 0.  0.
        -13    1    4    4    0    0  0.67140998178E+03 -0.69150480569E+03 -0.65023206928E+03  0.11626573076E+04  0.10566000000E+00 0.  1.
          4    1    4    4  501    0 -0.28128477900E+03  0.19768472776E+02 -0.20426337333E+03  0.34818880668E+03  0.00000000000E+00 0.  1.
         13    1    3    3    0    0 -0.86794905057E+02  0.24028868559E+03 -0.10939573307E+04  0.11233942588E+04  0.10566000000E+00 0. -1.
         -4    1    3    3    0  503 -0.30333029772E+03  0.43144764732E+03  0.21528238454E+02  0.52784449125E+03  0.00000000000E+00 0. -1.
<mgrwt>
<rscale>  2 0.12531771E+04</rscale>
<asrwt>0</asrwt>
<pdfrwt beam="1">  1       21 0.95012333E-01 0.12555816E+04</pdfrwt>
<pdfrwt beam="2">  1       21 0.39146226E+00 0.12555816E+04</pdfrwt>
<totfact> 0.26220558E+00</totfact>
</mgrwt>
</event>
