<event>
 8    1  0.7008488E-006  0.1066010E+04  0.7818608E-02  0.8716542E-01
         21   -1    0    0  503  502  0.00000000000E+00  0.00000000000E+00  0.12113867319E+04  0.12113867319E+04  0.00000000000E+00 0. -1.
         21   -1    0    0  501  503 -0.00000000000E+00 -0.00000000000E+00 -0.93753722022E+03  0.93753722022E+03  0.00000000000E+00 0. -1.
    9000010    2    1    2  501    0  0.19335807966E+03  0.30492310226E+03  0.51725813878E+02  0.10672638264E+04  0.10030010319E+04 0.  0.
   -9000010    2    1    2    0  502 -0.19335807966E+03 -0.30492310226E+03  0.22212369779E+03  0.10816601257E+04  0.99513026543E+03 0.  0.
        -13    1    3    3    0    0  0.30569436455E+03  0.53547863697E+03  0.32121312828E+03  0.69524405795E+03  0.10566000000E+00 0.  1.
         13    1    4    4    0    0  0.19699326008E+03 -0.48200160184E+03 -0.11867037519E+03  0.53405482659E+03  0.10566000000E+00 0. -1.
          4    1    3    3  501    0 -0.11233628490E+03 -0.23055553471E+03 -0.26948731440E+03  0.37201976844E+03  0.00000000000E+00 0.  1.
         -4    1    4    4    0  502 -0.39035133973E+03  0.17707849958E+03  0.34079407298E+03  0.54760529912E+03  0.00000000000E+00 0. -1.
</event>
<event>
 8    1  0.7008488E-006  0.1224984E+04  0.7818608E-02  0.8598071E-01
         21   -1    0    0  501  502  0.00000000000E+00  0.00000000000E+00  0.67023964352E+03  0.67023964352E+03  0.00000000000E+00 0. -1.
         21   -1    0    0  502  503 -0.00000000000E+00 -0.00000000000E+00 -0.21419499367E+04  0.21419499367E+04  0.00000000000E+00 0. -1.
   -9000010    2    1    2    0  503  0.61647754158E+03  0.11606702101E+03 -0.71069313176E+03  0.13700620188E+04  0.98917596771E+03 0.  0.
    9000010    2    1    2  501    0 -0.61647754158E+03 -0.11606702101E+03 -0.76101716139E+03  0.14421275614E+04  0.10521733084E+04 0.  0.
        -13    1    4    4    0    0 -0.76336930953E+03 -0.25193351006E+03 -0.89369977622E+03  0.12020409716E+04  0.10566000000E+00 0.  1.
         13    1    3    3    0    0 -0.13903617737E+03 -0.20322675322E+03 -0.44377268738E+03  0.50750998126E+03  0.10566000000E+00 0. -1.
          4    1    4    4  501    0  0.14689176796E+03  0.13586648905E+03  0.13268261482E+03  0.24008658983E+03  0.00000000000E+00 0.  1.
         -4    1    3    3    0  503  0.75551371895E+03  0.31929377423E+03 -0.26692044438E+03  0.86255203751E+03  0.00000000000E+00 0. -1.
</event>
<event>
 8    1  0.7008488E-006  0.1536614E+04  0.7818608E-02  0.8389918E-01
         21   -1    0    0  503  502  0.00000000000E+00  0.00000000000E+00  0.87507413291E+03  0.87507413291E+03  0.00000000000E+00 0. -1.
         21   -1    0    0  501  503 -0.00000000000E+00 -0.00000000000E+00 -0.29600494751E+04  0.29600494751E+04  0.00000000000E+00 0. -1.
    9000010    2    1    2  501    0  0.11249516597E+04 -0.29775037627E+03 -0.16312591096E+04  0.22410238964E+04  0.10034990275E+04 0.  0.
   -9000010    2    1    2    0  502 -0.11249516597E+04  0.29775037627E+03 -0.45371623252E+03  0.15940997116E+04  0.99051701020E+03 0.  0.
        -13    1    3    3    0    0  0.12110757881E+04 -0.25909265109E+02 -0.10914885415E+04  0.16305591379E+04  0.10566000000E+00 0.  1.
         13    1    4    4    0    0 -0.66700636793E+03  0.39759049476E+03  0.18847197670E+03  0.79906031909E+03  0.10566000000E+00 0. -1.
          4    1    3    3  501    0 -0.86124128436E+02 -0.27184111116E+03 -0.53977056808E+03  0.61046475851E+03  0.00000000000E+00 0.  1.
         -4    1    4    4    0  502 -0.45794529178E+03 -0.99840118488E+02 -0.64218820922E+03  0.79503939247E+03  0.00000000000E+00 0. -1.
</event>
<event>
 8    1  0.7008488E-006  0.1162581E+04  0.7818608E-02  0.8640461E-01
         21   -1    0    0  501  502  0.00000000000E+00  0.00000000000E+00  0.17051550062E+04  0.17051550062E+04  0.00000000000E+00 0. -1.
         21   -1    0    0  502  503 -0.00000000000E+00 -0.00000000000E+00 -0.82602310762E+03  0.82602310762E+03  0.00000000000E+00 0. -1.
   -9000010    2    1    2    0  503 -0.57085924017E+03  0.17929826603E+03  0.75900085710E+03  0.13884084431E+04  0.99677859305E+03 0.  0.
    9000010    2    1    2  501    0  0.57085924017E+03 -0.17929826603E+03  0.12013104148E+03  0.11427696707E+04  0.96615884453E+03 0.  0.
        -13    1    4    4    0    0  0.62988046594E+03 -0.45051641721E+03 -0.11003154520E+03  0.78219012756E+03  0.10566000000E+00 0.  1.
         13    1    3    3    0    0 -0.98635980372E+02 -0.27861909216E+03 -0.94992313203E+02  0.31045322654E+03  0.10566000000E+00 0. -1.
          4    1    4    4  501    0 -0.59021225770E+02  0.27121815119E+03  0.23016258668E+03  0.36057954314E+03  0.00000000000E+00 0.  1.
         -4    1    3    3    0  503 -0.47222325980E+03  0.45791735819E+03  0.85399317030E+03  0.10779552166E+04  0.00000000000E+00 0. -1.
</event>
<event>
 8    1  0.7008488E-006  0.1071879E+04  0.7818608E-02  0.8722650E-01
         21   -1    0    0  501  502  0.00000000000E+00  0.00000000000E+00  0.28239260858E+04  0.28239260858E+04  0.00000000000E+00 0. -1.
         21   -1    0    0  502  503 -0.00000000000E+00 -0.00000000000E+00 -0.39294581493E+03  0.39294581493E+03  0.00000000000E+00 0. -1.
   -9000010    2    1    2    0  503 -0.33756261402E+02  0.30345525701E+03  0.95794095261E+03  0.13951229810E+04  0.96720870817E+03 0.  0.
    9000010    2    1    2  501    0  0.33756261402E+02 -0.30345525701E+03  0.14730393183E+04  0.18217489198E+04  0.10274724888E+04 0.  0.
        -13    1    4    4    0    0  0.48396479056E+03 -0.37718361892E+03  0.78826820827E+03  0.99892751499E+03  0.10566000000E+00 0.  1.
         13    1    3    3    0    0 -0.26323692837E+03 -0.26554048987E+03  0.21395381925E+03  0.43079192211E+03  0.10566000000E+00 0. -1.
          4    1    4    4  501    0 -0.45020852915E+03  0.73728361909E+02  0.68477111001E+03  0.82282140478E+03  0.00000000000E+00 0.  1.
         -4    1    3    3    0  503  0.22948066697E+03  0.56899574688E+03  0.74398713336E+03  0.96433105886E+03  0.00000000000E+00 0. -1.
</event>
<event>
 8    1  0.7008488E-006  0.1171511E+04  0.7818608E-02  0.8630753E-01
         21   -1    0    0  501  502  0.00000000000E+00  0.00000000000E+00  0.16911741506E+04  0.16911741506E+04  0.00000000000E+00 0.  1.
         21   -1    0    0  502  503 -0.00000000000E+00 -0.00000000000E+00 -0.97028804920E+03  0.97028804920E+03  0.00000000000E+00 0.  1.
   -9000010    2    1    2    0  503  0.54925528004E+03 -0.25079431843E+03 -0.19061104620E+03  0.11869165630E+04  0.10039219112E+04 0.  0.
    9000010    2    1    2  501    0 -0.54925528004E+03  0.25079431843E+03  0.91149714764E+03  0.14745456368E+04  0.98938295522E+03 0.  0.
        -13    1    4    4    0    0 -0.27171085720E+03  0.50218151589E+03  0.93910699330E+03  0.10990609723E+04  0.10566000000E+00 0.  1.
         13    1    3    3    0    0 -0.23857323717E+03  0.60315364219E+02 -0.23291600754E+03  0.33882888069E+03  0.10566000000E+00 0. -1.
          4    1    4    4  501    0 -0.27754442284E+03 -0.25138719747E+03 -0.27609845661E+02  0.37548466451E+03  0.00000000000E+00 0.  1.
         -4    1    3    3    0  503  0.78782851722E+03 -0.31110968264E+03  0.42304961339E+02  0.84808768234E+03  0.00000000000E+00 0. -1.
</event>
<event>
 8    1  0.7008488E-006  0.1033396E+04  0.7818608E-02  0.8744846E-01
         21   -1    0    0  503  502  0.00000000000E+00  0.00000000000E+00  0.22358838194E+04  0.22358838194E+04  0.00000000000E+00 0. -1.
         21   -1    0    0  501  503 -0.00000000000E+00 -0.00000000000E+00 -0.48883997427E+03  0.48883997427E+03  0.00000000000E+00 0. -1.
    9000010    2    1    2  501    0 -0.30614819176E+03  0.18417802298E+02  0.10962963207E+04  0.15035030652E+04  0.98213538443E+03 0.  0.
   -9000010    2    1    2    0  502  0.30614819176E+03 -0.18417802298E+02  0.65074752445E+03  0.12212207286E+04  0.98683422950E+03 0.  0.
        -13    1    3    3    0    0 -0.10698835366E+03 -0.52882142502E+02 -0.17660250347E+03  0.21314662608E+03  0.10566000000E+00 0.  1.
         13    1    4    4    0    0  0.42687191651E+03 -0.11853022438E+03  0.85544077285E+03  0.96335246624E+03  0.10566000000E+00 0. -1.
          4    1    3    3  501    0 -0.19915983811E+03  0.71299944800E+02  0.12728988242E+04  0.12903564391E+04  0.00000000000E+00 0.  1.
         -4    1    4    4    0  502 -0.12072372474E+03  0.10011242208E+03 -0.20469324839E+03  0.25786826232E+03  0.00000000000E+00 0. -1.
</event>
<event>
 8    1  0.7008488E-006  0.1054590E+04  0.7818608E-02  0.8729368E-01
         21   -1    0    0  501  502  0.00000000000E+00  0.00000000000E+00  0.46091192254E+03  0.46091192254E+03  0.00000000000E+00 0. -1.
         21   -1    0    0  502  503 -0.00000000000E+00 -0.00000000000E+00 -0.23854296651E+04  0.23854296651E+04  0.00000000000E+00 0. -1.
   -9000010    2    1    2    0  503  0.26136668671E+03 -0.21289720273E+03 -0.82966674068E+03  0.13261909961E+04  0.97816046412E+03 0.  0.
    9000010    2    1    2  501    0 -0.26136668671E+03  0.21289720273E+03 -0.10948510019E+04  0.15201505916E+04  0.99926039696E+03 0.  0.
        -13    1    4    4    0    0 -0.64389285095E+03  0.18936361572E+03 -0.68336039875E+03  0.95782985348E+03  0.10566000000E+00 0.  1.
         13    1    3    3    0    0  0.10083679774E+02  0.37619196713E+03 -0.19219303170E+03  0.42256389970E+03  0.10566000000E+00 0. -1.
          4    1    4    4  501    0  0.38252616424E+03  0.23533587011E+02 -0.41149060313E+03  0.56232073811E+03  0.00000000000E+00 0.  1.
         -4    1    3    3    0  503  0.25128300694E+03 -0.58908916986E+03 -0.63747370898E+03  0.90362709636E+03  0.00000000000E+00 0. -1.
</event>
<event>
 8    1  0.7008488E-006  0.1273934E+04  0.7818608E-02  0.8556621E-01
         21   -1    0    0  501  502  0.00000000000E+00  0.00000000000E+00  0.12757334433E+04  0.12757334433E+04  0.00000000000E+00 0.  1.
         21   -1    0    0  502  503 -0.00000000000E+00 -0.00000000000E+00 -0.12832956465E+04  0.12832956465E+04  0.00000000000E+00 0.  1.
   -9000010    2    1    2    0  503  0.75847299724E+03 -0.36112087805E+02 -0.20655378470E+03  0.12696477333E+04  0.99637118102E+03 0.  0.
    9000010    2    1    2  501    0 -0.75847299724E+03  0.36112087805E+02  0.19899158144E+03  0.12893813565E+04  0.10228984615E+04 0.  0.
        -13    1    4    4    0    0 -0.35484574667E+03 -0.25126247816E+03  0.53598257548E+03  0.69016350906E+03  0.10566000000E+00 0.  1.
         13    1    3    3    0    0  0.52477105755E+03  0.11152811500E+03 -0.58967751249E+03  0.79720935969E+03  0.10566000000E+00 0. -1.
          4    1    4    4  501    0 -0.40362725057E+03  0.28737456597E+03 -0.33699099404E+03  0.59921784739E+03  0.00000000000E+00 0.  1.
         -4    1    3    3    0  503  0.23370193969E+03 -0.14764020280E+03  0.38312372779E+03  0.47243837365E+03  0.00000000000E+00 0. -1.
</event>
<event>
 8    1  0.7008488E-006  0.1064722E+04  0.7818608E-02  0.8716400E-01
         21   -1    0    0  501  502  0.00000000000E+00  0.00000000000E+00  0.89586266945E+03  0.89586266945E+03  0.00000000000E+00 0.  1.
         21   -1    0    0  502  503 -0.00000000000E+00 -0.00000000000E+00 -0.12888320068E+04  0.12888320068E+04  0.00000000000E+00 0.  1.
   -9000010    2    1    2    0  503  0.37130372510E+03  0.64691936754E+02 -0.43146996310E+02  0.10639771376E+04  0.99404938665E+03 0.  0.
    9000010    2    1    2  501    0 -0.37130372510E+03 -0.64691936754E+02 -0.34982234105E+03  0.11207175387E+04  0.99578141588E+03 0.  0.
        -13    1    4    4    0    0  0.35127674512E+01  0.43682089821E+03 -0.17579311856E+03  0.47088009975E+03  0.10566000000E+00 0.  1.
         13    1    3    3    0    0  0.10124804459E+03 -0.40250344752E+02 -0.50617790959E+03  0.51777151728E+03  0.10566000000E+00 0. -1.
          4    1    4    4  501    0 -0.37481649255E+03 -0.50151283496E+03 -0.17402922249E+03  0.64983743890E+03  0.00000000000E+00 0.  1.
         -4    1    3    3    0  503  0.27005568050E+03  0.10494228151E+03  0.46303091328E+03  0.54620562032E+03  0.00000000000E+00 0. -1.
</event>
<event>
 8    1  0.7008488E-006  0.1262715E+04  0.7818608E-02  0.8573599E-01
         21   -1    0    0  503  502  0.00000000000E+00  0.00000000000E+00  0.16588183333E+04  0.16588183333E+04  0.00000000000E+00 0. -1.
         21   -1    0    0  501  503 -0.00000000000E+00 -0.00000000000E+00 -0.93783074131E+03  0.93783074131E+03  0.00000000000E+00 0. -1.
    9000010    2    1    2  501    0  0.43876864672E+03 -0.49109504686E+03  0.14067041957E+03  0.12705260725E+04  0.10773838980E+04 0.  0.
   -9000010    2    1    2    0  502 -0.43876864672E+03  0.49109504686E+03  0.58031717241E+03  0.13261230021E+04  0.99405328106E+03 0.  0.
        -13    1    3    3    0    0  0.61484026688E+03 -0.69896806782E+03 -0.58991603894E+02  0.93277271299E+03  0.10566000000E+00 0.  1.
         13    1    4    4    0    0 -0.10748053599E+03  0.17227343588E+03  0.79368368255E+03  0.81924599568E+03  0.10566000000E+00 0. -1.
          4    1    3    3  501    0 -0.17607162017E+03  0.20787302096E+03  0.19966202346E+03  0.33775335954E+03  0.00000000000E+00 0.  1.
         -4    1    4    4    0  502 -0.33128811073E+03  0.31882161098E+03 -0.21336651014E+03  0.50687700637E+03  0.00000000000E+00 0. -1.
</event>
<event>
 8    1  0.7008488E-006  0.1084440E+04  0.7818608E-02  0.8716152E-01
         21   -1    0    0  501  502  0.00000000000E+00  0.00000000000E+00  0.39918286362E+03  0.39918286362E+03  0.00000000000E+00 0.  1.
         21   -1    0    0  502  503 -0.00000000000E+00 -0.00000000000E+00 -0.30428637695E+04  0.30428637695E+04  0.00000000000E+00 0.  1.
   -9000010    2    1    2    0  503 -0.36904424455E+03  0.59738032609E+02 -0.18204952883E+04  0.20805604801E+04  0.93528954311E+03 0.  0.
    9000010    2    1    2  501    0  0.36904424455E+03 -0.59738032609E+02 -0.82318561760E+03  0.13614861531E+04  0.10179625224E+04 0.  0.
        -13    1    4    4    0    0 -0.87944723897E+02 -0.87924708207E+02  0.20284602686E+03  0.23793181912E+03  0.10566000000E+00 0.  1.
         13    1    3    3    0    0  0.23822136449E+03 -0.18333067624E+03 -0.29696061915E+03  0.42254606357E+03  0.10566000000E+00 0. -1.
          4    1    4    4  501    0  0.45698896844E+03  0.28186675598E+02 -0.10260316445E+04  0.11235543340E+04  0.00000000000E+00 0.  1.
         -4    1    3    3    0  503 -0.60726560904E+03  0.24306870885E+03 -0.15235346692E+04  0.16580144165E+04  0.00000000000E+00 0. -1.
</event>
<event>
 8    1  0.7008488E-006  0.1187013E+04  0.7818608E-02  0.8619558E-01
         21   -1    0    0  501  502  0.00000000000E+00  0.00000000000E+00  0.12070951253E+04  0.12070951253E+04  0.00000000000E+00 0. -1.
         21   -1    0    0  502  503 -0.00000000000E+00 -0.00000000000E+00 -0.11907772095E+04  0.11907772095E+04  0.00000000000E+00 0.  1.
   -9000010    2    1    2    0  503 -0.60202844905E+03  0.78522966416E+02 -0.21037370652E+03  0.12055109709E+04  0.10199977916E+04 0.  0.
    9000010    2    1    2  501    0  0.60202844905E+03 -0.78522966416E+02  0.22669162235E+03  0.11923613638E+04  0.10008658355E+04 0.  0.
        -13    1    4    4    0    0  0.43580102168E+03 -0.40777560104E+03 -0.19898130561E+03  0.62912402787E+03  0.10566000000E+00 0.  1.
         13    1    3    3    0    0 -0.33745406971E+03 -0.14820747400E+03  0.37403619738E+03  0.52511312365E+03  0.10566000000E+00 0. -1.
          4    1    4    4  501    0  0.16622742737E+03  0.32925263462E+03  0.42567292796E+03  0.56323733595E+03  0.00000000000E+00 0.  1.
         -4    1    3    3    0  503 -0.26457437934E+03  0.22673044041E+03 -0.58440990389E+03  0.68039784728E+03  0.00000000000E+00 0. -1.
</event>
<event>
 8    1  0.7008488E-006  0.1052965E+04  0.7818608E-02  0.8729927E-01
         21   -1    0    0  501  502  0.00000000000E+00  0.00000000000E+00  0.17275569126E+04  0.17275569126E+04  0.00000000000E+00 0.  1.
         21   -1    0    0  502  503 -0.00000000000E+00 -0.00000000000E+00 -0.63535481009E+03  0.63535481009E+03  0.00000000000E+00 0.  1.
   -9000010    2    1    2    0  503 -0.32611506960E+03 -0.14753271065E+03  0.63545508446E+03  0.12298533031E+04  0.99026210842E+03 0.  0.
    9000010    2    1    2  501    0  0.32611506960E+03  0.14753271065E+03  0.45674701802E+03  0.11330584196E+04  0.97318374647E+03 0.  0.
        -13    1    4    4    0    0 -0.15389126699E+03  0.38333502381E+03 -0.24240675943E+02  0.41378241150E+03  0.10566000000E+00 0.  1.
         13    1    3    3    0    0  0.14861220572E+03  0.25111909356E+02 -0.20188619504E+03  0.25194095060E+03  0.10566000000E+00 0. -1.
          4    1    4    4  501    0  0.48000633660E+03 -0.23580231316E+03  0.48098769396E+03  0.71927600809E+03  0.00000000000E+00 0.  1.
         -4    1    3    3    0  503 -0.47472727533E+03 -0.17264462001E+03  0.83734127950E+03  0.97791235247E+03  0.00000000000E+00 0. -1.
</event>
<event>
 8    1  0.7008488E-006  0.1266353E+04  0.7818608E-02  0.8565248E-01
         21   -1    0    0  503  502  0.00000000000E+00  0.00000000000E+00  0.85054518803E+03  0.85054518803E+03  0.00000000000E+00 0. -1.
         21   -1    0    0  501  503 -0.00000000000E+00 -0.00000000000E+00 -0.18953057689E+04  0.18953057689E+04  0.00000000000E+00 0. -1.
    9000010    2    1    2  501    0 -0.67797859957E+03 -0.38576412137E+03 -0.77426608443E+03  0.14509308127E+04  0.94722928311E+03 0.  0.
   -9000010    2    1    2    0  502  0.67797859957E+03  0.38576412137E+03 -0.27049449641E+03  0.12949201443E+04  0.99758807561E+03 0.  0.
        -13    1    3    3    0    0 -0.10132669068E+03 -0.59233345119E+03 -0.27579831455E+03  0.66120400567E+03  0.10566000000E+00 0.  1.
         13    1    4    4    0    0  0.41282478947E+03  0.31996672599E+03 -0.64588357925E+03  0.83064349853E+03  0.10566000000E+00 0. -1.
          4    1    3    3  501    0 -0.57665190889E+03  0.20656932982E+03 -0.49846776989E+03  0.78972680698E+03  0.00000000000E+00 0.  1.
         -4    1    4    4    0  502  0.26515381010E+03  0.65797395383E+02  0.37538908284E+03  0.46427664573E+03  0.00000000000E+00 0. -1.
</event>
<event>
 8    1  0.7008488E-006  0.1122960E+04  0.7818608E-02  0.8669530E-01
         21   -1    0    0  503  502  0.00000000000E+00  0.00000000000E+00  0.25377050709E+04  0.25377050709E+04  0.00000000000E+00 0. -1.
         21   -1    0    0  501  503 -0.00000000000E+00 -0.00000000000E+00 -0.60934424356E+03  0.60934424356E+03  0.00000000000E+00 0. -1.
    9000010    2    1    2  501    0  0.29180748513E+03 -0.38634500222E+03  0.26745119874E+03  0.11421403397E+04  0.99926990480E+03 0.  0.
   -9000010    2    1    2    0  502 -0.29180748513E+03  0.38634500222E+03  0.16609096286E+04  0.20049089748E+04  0.10132251150E+04 0.  0.
        -13    1    3    3    0    0  0.61219222664E+03 -0.22984745013E+03  0.39440226189E+03  0.76365065837E+03  0.10566000000E+00 0.  1.
         13    1    4    4    0    0 -0.10458580407E+03  0.59544201323E+03  0.42867583474E+03  0.74111562120E+03  0.10566000000E+00 0. -1.
          4    1    3    3  501    0 -0.32038474151E+03 -0.15649755209E+03 -0.12695106314E+03  0.37848968128E+03  0.00000000000E+00 0.  1.
         -4    1    4    4    0  502 -0.18722168106E+03 -0.20909701101E+03  0.12322337938E+04  0.12637933536E+04  0.00000000000E+00 0. -1.
</event>
<event>
 8    1  0.7008488E-006  0.1127572E+04  0.7818608E-02  0.8669158E-01
         21   -1    0    0  501  502  0.00000000000E+00  0.00000000000E+00  0.14872732431E+04  0.14872732431E+04  0.00000000000E+00 0. -1.
         21   -1    0    0  502  503 -0.00000000000E+00 -0.00000000000E+00 -0.84104345343E+03  0.84104345343E+03  0.00000000000E+00 0. -1.
   -9000010    2    1    2    0  503 -0.32508815726E+03  0.41445825501E+03  0.44084716121E+03  0.12106876953E+04  0.99697568723E+03 0.  0.
    9000010    2    1    2  501    0  0.32508815726E+03 -0.41445825501E+03  0.20538262841E+03  0.11176290012E+04  0.96408226052E+03 0.  0.
        -13    1    4    4    0    0  0.66451512916E+03 -0.21863961875E+03  0.19247329781E+03  0.72555469905E+03  0.10566000000E+00 0.  1.
         13    1    3    3    0    0 -0.26021675392E+03  0.39993850230E+03 -0.23479565151E+03  0.53178244967E+03  0.10566000000E+00 0. -1.
          4    1    4    4  501    0 -0.33942697190E+03 -0.19581863626E+03  0.12909330596E+02  0.39207430211E+03  0.00000000000E+00 0.  1.
         -4    1    3    3    0  503 -0.64871403345E+02  0.14519752707E+02  0.67564281272E+03  0.67890524565E+03  0.00000000000E+00 0. -1.
</event>
<event>
 8    1  0.7008488E-006  0.1091194E+04  0.7818608E-02  0.8693809E-01
         21   -1    0    0  503  502  0.00000000000E+00  0.00000000000E+00  0.30900129872E+04  0.30900129872E+04  0.00000000000E+00 0.  1.
         21   -1    0    0  501  503 -0.00000000000E+00 -0.00000000000E+00 -0.41629034523E+03  0.41629034523E+03  0.00000000000E+00 0.  1.
    9000010    2    1    2  501    0 -0.27180100882E+03  0.31894390520E+03  0.85401926282E+03  0.13856594965E+04  0.10075228712E+04 0.  0.
   -9000010    2    1    2    0  502  0.27180100882E+03 -0.31894390520E+03  0.18197033791E+04  0.21206438359E+04  0.10050914822E+04 0.  0.
        -13    1    3    3    0    0  0.30076050197E+03  0.39880439964E+03  0.50534617203E+03  0.71054668634E+03  0.10566000000E+00 0.  1.
         13    1    4    4    0    0 -0.19737494570E+03 -0.69639034705E+02 -0.15700851623E+02  0.20988804695E+03  0.10566000000E+00 0. -1.
          4    1    3    3  501    0 -0.57256151079E+03 -0.79860494444E+02  0.34867309080E+03  0.67511281017E+03  0.00000000000E+00 0.  1.
         -4    1    4    4    0  502  0.46917595452E+03 -0.24930487049E+03  0.18354042307E+04  0.19107557889E+04  0.00000000000E+00 0. -1.
</event>
<event>
 8    1  0.7008488E-006  0.1253987E+04  0.7818608E-02  0.8570537E-01
         21   -1    0    0  503  502  0.00000000000E+00  0.00000000000E+00  0.13404052709E+04  0.13404052709E+04  0.00000000000E+00 0.  1.
         21   -1    0    0  501  503 -0.00000000000E+00 -0.00000000000E+00 -0.11822717096E+04  0.11822717096E+04  0.00000000000E+00 0.  1.
    9000010    2    1    2  501    0 -0.19102233528E+03 -0.75286309244E+03 -0.11405763027E+03  0.12394887070E+04  0.95918233059E+03 0.  0.
   -9000010    2    1    2    0  502  0.19102233528E+03  0.75286309244E+03  0.27219119153E+03  0.12831882734E+04  0.98447535866E+03 0.  0.
        -13    1    3    3    0    0  0.21825992989E+03 -0.18382511373E+02  0.24198724067E+03  0.32639416283E+03  0.10566000000E+00 0.  1.
         13    1    4    4    0    0  0.58590436718E+03  0.41261898678E+03  0.25833378767E+03  0.76175764699E+03  0.10566000000E+00 0. -1.
          4    1    3    3  501    0 -0.40928226517E+03 -0.73448058107E+03 -0.35604487094E+03  0.91309454421E+03  0.00000000000E+00 0.  1.
         -4    1    4    4    0  502 -0.39488203190E+03  0.34024410566E+03  0.13857403857E+02  0.52143062645E+03  0.00000000000E+00 0. -1.
</event>
<event>
 8    1  0.7008488E-006  0.1040528E+04  0.7818608E-02  0.8740887E-01
         21   -1    0    0  501  502  0.00000000000E+00  0.00000000000E+00  0.93151592467E+03  0.93151592467E+03  0.00000000000E+00 0.  1.
         21   -1    0    0  502  503 -0.00000000000E+00 -0.00000000000E+00 -0.12004737754E+04  0.12004737754E+04  0.00000000000E+00 0.  1.
   -9000010    2    1    2    0  503  0.23069025045E+03  0.14405528367E+03 -0.36420049637E+03  0.11024250676E+04  0.10043550726E+04 0.  0.
    9000010    2    1    2  501    0 -0.23069025045E+03 -0.14405528367E+03  0.95242645588E+02  0.10295646325E+04  0.98841400967E+03 0.  0.
        -13    1    4    4    0    0 -0.37014951537E+03 -0.83742242935E+00 -0.36989470218E+03  0.52329099636E+03  0.10566000000E+00 0.  1.
         13    1    3    3    0    0  0.45182618528E+03  0.33243529955E+03  0.85129314638E+02  0.56736861163E+03  0.10566000000E+00 0. -1.
          4    1    4    4  501    0  0.13945926492E+03 -0.14321786124E+03  0.46513734777E+03  0.50627363613E+03  0.00000000000E+00 0.  1.
         -4    1    3    3    0  503 -0.22113593482E+03 -0.18838001588E+03 -0.44932981100E+03  0.53505645600E+03  0.00000000000E+00 0. -1.
</event>
<event>
 8    1  0.7008488E-006  0.1213557E+04  0.7818608E-02  0.8601990E-01
         21   -1    0    0  503  502  0.00000000000E+00  0.00000000000E+00  0.86649225374E+03  0.86649225374E+03  0.00000000000E+00 0.  1.
         21   -1    0    0  501  503 -0.00000000000E+00 -0.00000000000E+00 -0.16586787913E+04  0.16586787913E+04  0.00000000000E+00 0.  1.
    9000010    2    1    2  501    0 -0.55785756381E+03  0.37502953111E+03 -0.38605065557E+03  0.12734819680E+04  0.10103806230E+04 0.  0.
   -9000010    2    1    2    0  502  0.55785756381E+03 -0.37502953111E+03 -0.40613588198E+03  0.12516890770E+04  0.97464197541E+03 0.  0.
        -13    1    3    3    0    0  0.28060884016E+03  0.16753208440E+03 -0.21984053721E+03  0.39387586045E+03  0.10566000000E+00 0.  1.
         13    1    4    4    0    0  0.48057233457E+03 -0.47494809968E+03  0.14094773472E+03  0.69021137431E+03  0.10566000000E+00 0. -1.
          4    1    3    3  501    0 -0.83846640397E+03  0.20749744671E+03 -0.16621011835E+03  0.87960610754E+03  0.00000000000E+00 0.  1.
         -4    1    4    4    0  502  0.77285229234E+02  0.99918568563E+02 -0.54708361669E+03  0.56147770272E+03  0.00000000000E+00 0. -1.
</event>
<event>
 8    1  0.7008488E-006  0.1075485E+04  0.7818608E-02  0.8709201E-01
         21   -1    0    0  503  502  0.00000000000E+00  0.00000000000E+00  0.70463824682E+03  0.70463824682E+03  0.00000000000E+00 0. -1.
         21   -1    0    0  501  503 -0.00000000000E+00 -0.00000000000E+00 -0.16260056600E+04  0.16260056600E+04  0.00000000000E+00 0. -1.
    9000010    2    1    2  501    0 -0.36985259031E+03 -0.52798975669E+02 -0.50288226584E+03  0.11872485029E+04  0.10085086832E+04 0.  0.
   -9000010    2    1    2    0  502  0.36985259031E+03  0.52798975669E+02 -0.41848514735E+03  0.11433954039E+04  0.99631549257E+03 0.  0.
        -13    1    3    3    0    0 -0.64720870547E+03 -0.19581917881E+03 -0.10929180493E+03  0.68495910025E+03  0.10566000000E+00 0.  1.
         13    1    4    4    0    0 -0.31016756187E+03  0.15706287028E+03 -0.26847822419E+03  0.43926441887E+03  0.10566000000E+00 0. -1.
          4    1    3    3  501    0  0.27735611515E+03  0.14302020314E+03 -0.39359046091E+03  0.50228940267E+03  0.00000000000E+00 0.  1.
         -4    1    4    4    0  502  0.68002015218E+03 -0.10426389461E+03 -0.15000692316E+03  0.70413098504E+03  0.00000000000E+00 0. -1.
</event>
<event>
 8    1  0.7008488E-006  0.1439379E+04  0.7818608E-02  0.8445459E-01
         21   -1    0    0  501  502  0.00000000000E+00  0.00000000000E+00  0.23740712631E+04  0.23740712631E+04  0.00000000000E+00 0. -1.
         21   -1    0    0  502  503 -0.00000000000E+00 -0.00000000000E+00 -0.90104149207E+03  0.90104149207E+03  0.00000000000E+00 0. -1.
   -9000010    2    1    2    0  503  0.98744253589E+03 -0.28413064549E+03  0.44171424421E+03  0.15044001950E+04  0.10061488398E+04 0.  0.
    9000010    2    1    2  501    0 -0.98744253589E+03  0.28413064549E+03  0.10313155269E+04  0.17707125602E+04  0.10079872367E+04 0.  0.
        -13    1    4    4    0    0 -0.24988561341E+03  0.53155399176E+03  0.17301288414E+03  0.61231195904E+03  0.10566000000E+00 0.  1.
         13    1    3    3    0    0 -0.19068350146E+03 -0.15430453451E+03  0.19045004808E+02  0.24603416526E+03  0.10566000000E+00 0. -1.
          4    1    4    4  501    0 -0.73755692248E+03 -0.24742334627E+03  0.85830264272E+03  0.11584006011E+04  0.00000000000E+00 0.  1.
         -4    1    3    3    0  503  0.11781260374E+04 -0.12982611098E+03  0.42266923941E+03  0.12583660298E+04  0.00000000000E+00 0. -1.
</event>
<event>
 8    1  0.7008488E-006  0.1110926E+04  0.7818608E-02  0.8678280E-01
         21   -1    0    0  503  502  0.00000000000E+00  0.00000000000E+00  0.12435218916E+04  0.12435218916E+04  0.00000000000E+00 0.  1.
         21   -1    0    0  501  503 -0.00000000000E+00 -0.00000000000E+00 -0.99402801942E+03  0.99402801942E+03  0.00000000000E+00 0.  1.
    9000010    2    1    2  501    0  0.28970459901E+03 -0.37093363311E+03  0.22404473741E+03  0.11332928859E+04  0.10062982689E+04 0.  0.
   -9000010    2    1    2    0  502 -0.28970459901E+03  0.37093363311E+03  0.25449134770E+02  0.11042570251E+04  0.99860673152E+03 0.  0.
        -13    1    3    3    0    0  0.13430013688E+03  0.13096341062E+03 -0.32380797245E+03  0.37421859370E+03  0.10566000000E+00 0.  1.
         13    1    4    4    0    0 -0.56246114904E+03  0.31864791909E+03  0.30094547307E+03  0.71306888128E+03  0.10566000000E+00 0. -1.
          4    1    3    3  501    0  0.15540446213E+03 -0.50189704373E+03  0.54785270985E+03  0.75907429218E+03  0.00000000000E+00 0.  1.
         -4    1    4    4    0  502  0.27275655003E+03  0.52285714013E+02 -0.27549633830E+03  0.39118814386E+03  0.00000000000E+00 0. -1.
</event>
<event>
 8    1  0.7008488E-006  0.1423185E+04  0.7818608E-02  0.8479877E-01
         21   -1    0    0  503  502  0.00000000000E+00  0.00000000000E+00  0.16265302771E+04  0.16265302771E+04  0.00000000000E+00 0. -1.
         21   -1    0    0  501  503 -0.00000000000E+00 -0.00000000000E+00 -0.11311345955E+04  0.11311345955E+04  0.00000000000E+00 0. -1.
    9000010    2    1    2  501    0  0.36331301826E+03 -0.67433867387E+03  0.39521801218E+03  0.13309588663E+04  0.10141623294E+04 0.  0.
   -9000010    2    1    2    0  502 -0.36331301826E+03  0.67433867387E+03  0.10017766939E+03  0.14267060063E+04  0.11994688269E+04 0.  0.
        -13    1    3    3    0    0  0.19046258388E+03 -0.25386025852E+03  0.71019858232E+03  0.77788370867E+03  0.10566000000E+00 0.  1.
         13    1    4    4    0    0 -0.72769134876E+03  0.60331176333E+03 -0.17918960017E+03  0.96209599666E+03  0.10566000000E+00 0. -1.
          4    1    3    3  501    0  0.17285043438E+03 -0.42047841535E+03 -0.31498057014E+03  0.55307515765E+03  0.00000000000E+00 0.  1.
         -4    1    4    4    0  502  0.36437833050E+03  0.71026910538E+02  0.27936726956E+03  0.46461000964E+03  0.00000000000E+00 0. -1.
</event>
<event>
 8    1  0.7008488E-006  0.1135284E+04  0.7818608E-02  0.8672661E-01
         21   -1    0    0  501  502  0.00000000000E+00  0.00000000000E+00  0.39030746544E+03  0.39030746544E+03  0.00000000000E+00 0.  1.
         21   -1    0    0  502  503 -0.00000000000E+00 -0.00000000000E+00 -0.31889122148E+04  0.31889122148E+04  0.00000000000E+00 0.  1.
   -9000010    2    1    2    0  503 -0.36416299169E+03  0.77551747191E+02 -0.17655209472E+04  0.20990318749E+04  0.10724931882E+04 0.  0.
    9000010    2    1    2  501    0  0.36416299169E+03 -0.77551747191E+02 -0.10330838022E+04  0.14801878054E+04  0.99250432688E+03 0.  0.
        -13    1    4    4    0    0 -0.15513472964E+03 -0.34534836426E+03 -0.12184274939E+03  0.39771590838E+03  0.10566000000E+00 0.  1.
         13    1    3    3    0    0  0.36321184587E+03 -0.11096181747E+03 -0.51068978294E+03  0.63642708575E+03  0.10566000000E+00 0. -1.
          4    1    4    4  501    0  0.51929772134E+03  0.26779661707E+03 -0.91124105281E+03  0.10824718970E+04  0.00000000000E+00 0.  1.
         -4    1    3    3    0  503 -0.72737483756E+03  0.18851356466E+03 -0.12548311643E+04  0.14626047891E+04  0.00000000000E+00 0. -1.
</event>
<event>
 8    1  0.7008488E-006  0.1039863E+04  0.7818608E-02  0.8739753E-01
         21   -1    0    0  501  502  0.00000000000E+00  0.00000000000E+00  0.13930552724E+04  0.13930552724E+04  0.00000000000E+00 0. -1.
         21   -1    0    0  502  503 -0.00000000000E+00 -0.00000000000E+00 -0.83227595061E+03  0.83227595061E+03  0.00000000000E+00 0. -1.
   -9000010    2    1    2    0  503  0.11275204176E+03  0.29022215253E+03 -0.23825245300E+02  0.10324032686E+04  0.98404621129E+03 0.  0.
    9000010    2    1    2  501    0 -0.11275204176E+03 -0.29022215253E+03  0.58460456712E+03  0.11929279544E+04  0.99215557441E+03 0.  0.
        -13    1    4    4    0    0 -0.26590380675E+03 -0.59324254062E+03  0.20060973292E+03  0.68035712869E+03  0.10566000000E+00 0.  1.
         13    1    3    3    0    0 -0.22528048980E+03  0.39609650863E+03  0.30560395186E+03  0.54866887080E+03  0.10566000000E+00 0. -1.
          4    1    4    4  501    0  0.15315176499E+03  0.30302038809E+03  0.38399483420E+03  0.51257082575E+03  0.00000000000E+00 0.  1.
         -4    1    3    3    0  503  0.33803253156E+03 -0.10587435609E+03 -0.32942919716E+03  0.48373439780E+03  0.00000000000E+00 0. -1.
</event>
<event>
 8    1  0.7008488E-006  0.1179323E+04  0.7818608E-02  0.8624332E-01
         21   -1    0    0  501  502  0.00000000000E+00  0.00000000000E+00  0.19299834810E+04  0.19299834810E+04  0.00000000000E+00 0. -1.
         21   -1    0    0  502  503 -0.00000000000E+00 -0.00000000000E+00 -0.81728780875E+03  0.81728780875E+03  0.00000000000E+00 0. -1.
   -9000010    2    1    2    0  503 -0.54614282355E+03  0.26757765636E+03  0.66336102438E+02  0.11706705424E+04  0.99809781807E+03 0.  0.
    9000010    2    1    2  501    0  0.54614282355E+03 -0.26757765636E+03  0.10463595698E+04  0.15766007474E+04  0.10104116890E+04 0.  0.
        -13    1    4    4    0    0  0.27991285452E+02  0.35294654027E+03  0.20194705589E+03  0.40759955459E+03  0.10566000000E+00 0.  1.
         13    1    3    3    0    0  0.16648810913E+03  0.27645291873E+03 -0.23262645541E+03  0.39781853360E+03  0.10566000000E+00 0. -1.
          4    1    4    4  501    0  0.51815153810E+03 -0.62052419663E+03  0.84441251395E+03  0.11690011928E+04  0.00000000000E+00 0.  1.
         -4    1    3    3    0  503 -0.71263093268E+03 -0.88752623712E+01  0.29896255785E+03  0.77285200879E+03  0.00000000000E+00 0. -1.
</event>
<event>
 8    1  0.7008488E-006  0.1193669E+04  0.7818608E-02  0.8611927E-01
         21   -1    0    0  503  502  0.00000000000E+00  0.00000000000E+00  0.11928875889E+04  0.11928875889E+04  0.00000000000E+00 0.  1.
         21   -1    0    0  501  503 -0.00000000000E+00 -0.00000000000E+00 -0.14600338798E+04  0.14600338798E+04  0.00000000000E+00 0.  1.
    9000010    2    1    2  501    0 -0.46025331512E+03  0.51051535248E+03 -0.70270478602E+03  0.13851494917E+04  0.97590268927E+03 0.  0.
   -9000010    2    1    2    0  502  0.46025331512E+03 -0.51051535248E+03  0.43555849512E+03  0.12677719770E+04  0.97214995949E+03 0.  0.
        -13    1    3    3    0    0 -0.35476137458E+03  0.63105316875E+01  0.15296806482E+03  0.38638671784E+03  0.10566000000E+00 0.  1.
         13    1    4    4    0    0  0.10692816278E+03  0.33106327062E+02 -0.28037402717E+03  0.30189280740E+03  0.10566000000E+00 0. -1.
          4    1    3    3  501    0 -0.10549194055E+03  0.50420482080E+03 -0.85567285084E+03  0.99876277389E+03  0.00000000000E+00 0.  1.
         -4    1    4    4    0  502  0.35332515235E+03 -0.54362167955E+03  0.71593252229E+03  0.96587916958E+03  0.00000000000E+00 0. -1.
</event>
<event>
 8    1  0.7008488E-006  0.1221812E+04  0.7818608E-02  0.8596262E-01
         21   -1    0    0  501  502  0.00000000000E+00  0.00000000000E+00  0.13172871891E+04  0.13172871891E+04  0.00000000000E+00 0. -1.
         21   -1    0    0  502  503 -0.00000000000E+00 -0.00000000000E+00 -0.12301928455E+04  0.12301928455E+04  0.00000000000E+00 0. -1.
   -9000010    2    1    2    0  503 -0.45761904914E+03 -0.44499099339E+03 -0.36501926382E+03  0.12447021803E+04  0.10042969065E+04 0.  0.
    9000010    2    1    2  501    0  0.45761904914E+03  0.44499099339E+03  0.45211360740E+03  0.13027778543E+04  0.10418211196E+04 0.  0.
        -13    1    4    4    0    0  0.63339994811E+03  0.18585785495E+03 -0.10040613421E+03  0.66769756587E+03  0.10566000000E+00 0.  1.
         13    1    3    3    0    0 -0.33593404743E+03  0.26809279103E+03  0.99311431614E+01  0.42991169744E+03  0.10566000000E+00 0. -1.
          4    1    4    4  501    0 -0.17578089897E+03  0.25913313844E+03  0.55251974161E+03  0.63508028842E+03  0.00000000000E+00 0.  1.
         -4    1    3    3    0  503 -0.12168500171E+03 -0.71308378441E+03 -0.37495040698E+03  0.81479048284E+03  0.00000000000E+00 0. -1.
</event>
<event>
 8    1  0.7008488E-006  0.1448103E+04  0.7818608E-02  0.8443452E-01
         21   -1    0    0  501  502  0.00000000000E+00  0.00000000000E+00  0.17297558138E+04  0.17297558138E+04  0.00000000000E+00 0.  1.
         21   -1    0    0  502  503 -0.00000000000E+00 -0.00000000000E+00 -0.12161666733E+04  0.12161666733E+04  0.00000000000E+00 0. -1.
   -9000010    2    1    2    0  503 -0.99394893081E+03  0.20079519673E+03  0.46061218810E+03  0.15195941015E+04  0.10338033939E+04 0.  0.
    9000010    2    1    2  501    0  0.99394893081E+03 -0.20079519673E+03  0.52976952400E+02  0.14263283856E+04  0.10016750561E+04 0.  0.
        -13    1    4    4    0    0  0.95096593045E+02 -0.22099174843E+03  0.39656242283E+03  0.46383454080E+03  0.10566000000E+00 0.  1.
         13    1    3    3    0    0 -0.19461787267E+03 -0.27900739470E+03 -0.18343573033E+03  0.38648405010E+03  0.10566000000E+00 0. -1.
          4    1    4    4  501    0  0.89885233776E+03  0.20196551699E+02 -0.34358547043E+03  0.96249384481E+03  0.00000000000E+00 0.  1.
         -4    1    3    3    0  503 -0.79933105814E+03  0.47980259143E+03  0.64404791843E+03  0.11331100514E+04  0.00000000000E+00 0. -1.
</event>
<event>
 8    1  0.7008488E-006  0.1074912E+04  0.7818608E-02  0.8711301E-01
         21   -1    0    0  503  502  0.00000000000E+00  0.00000000000E+00  0.11802797046E+04  0.11802797046E+04  0.00000000000E+00 0.  1.
         21   -1    0    0  501  503 -0.00000000000E+00 -0.00000000000E+00 -0.98809007510E+03  0.98809007510E+03  0.00000000000E+00 0.  1.
    9000010    2    1    2  501    0  0.24857102876E+03 -0.22695523093E+03 -0.79490071427E+02  0.10778474566E+04  0.10208527000E+04 0.  0.
   -9000010    2    1    2    0  502 -0.24857102876E+03  0.22695523093E+03  0.27167970097E+03  0.10905223231E+04  0.10010658540E+04 0.  0.
        -13    1    3    3    0    0 -0.28650965011E+03 -0.38213229435E+03  0.10864288521E+03  0.48981236986E+03  0.10566000000E+00 0.  1.
         13    1    4    4    0    0 -0.53686478435E+03  0.43705714975E+03  0.23870252852E+03  0.73227157333E+03  0.10566000000E+00 0. -1.
          4    1    3    3  501    0  0.53508067887E+03  0.15517706342E+03 -0.18813295664E+03  0.58803508678E+03  0.00000000000E+00 0.  1.
         -4    1    4    4    0  502  0.28829375559E+03 -0.21010191882E+03  0.32977172445E+02  0.35825074976E+03  0.00000000000E+00 0. -1.
</event>
<event>
 8    1  0.7008488E-006  0.1058428E+04  0.7818608E-02  0.8723143E-01
         21   -1    0    0  503  502  0.00000000000E+00  0.00000000000E+00  0.24264748890E+04  0.24264748890E+04  0.00000000000E+00 0.  1.
         21   -1    0    0  501  503 -0.00000000000E+00 -0.00000000000E+00 -0.47379196670E+03  0.47379196670E+03  0.00000000000E+00 0.  1.
    9000010    2    1    2  501    0  0.36241538564E+03  0.13713460658E+03  0.71934053097E+03  0.12797349705E+04  0.98494669055E+03 0.  0.
   -9000010    2    1    2    0  502 -0.36241538564E+03 -0.13713460658E+03  0.12333423913E+04  0.16205318852E+04  0.97715880211E+03 0.  0.
        -13    1    3    3    0    0  0.45960860810E+03  0.29727746842E+03  0.87773019566E+03  0.10344197762E+04  0.10566000000E+00 0.  1.
         13    1    4    4    0    0 -0.22468207650E+03 -0.54987987406E+03  0.87113428683E+03  0.10543836438E+04  0.10566000000E+00 0. -1.
          4    1    3    3  501    0 -0.97193222457E+02 -0.16014286183E+03 -0.15838966469E+03  0.24531519433E+03  0.00000000000E+00 0.  1.
         -4    1    4    4    0  502 -0.13773330914E+03  0.41274526748E+03  0.36220810448E+03  0.56614824139E+03  0.00000000000E+00 0. -1.
</event>
<event>
 8    1  0.7008488E-006  0.1076282E+04  0.7818608E-02  0.8718486E-01
         21   -1    0    0  503  502  0.00000000000E+00  0.00000000000E+00  0.84599809588E+03  0.84599809588E+03  0.00000000000E+00 0. -1.
         21   -1    0    0  501  503 -0.00000000000E+00 -0.00000000000E+00 -0.14296986956E+04  0.14296986956E+04  0.00000000000E+00 0. -1.
    9000010    2    1    2  501    0 -0.24417717107E+03  0.31433846299E+01 -0.62920002076E+03  0.11984538757E+04  0.99033663683E+03 0.  0.
   -9000010    2    1    2    0  502  0.24417717107E+03 -0.31433846299E+01  0.45499421012E+02  0.10772429158E+04  0.10482126362E+04 0.  0.
        -13    1    3    3    0    0  0.26056078502E+03 -0.30098842833E+03 -0.40516703959E+03  0.56801962802E+03  0.10566000000E+00 0.  1.
         13    1    4    4    0    0 -0.37038495465E+03 -0.20806219864E+03 -0.25203072396E+02  0.42557032222E+03  0.10566000000E+00 0. -1.
          4    1    3    3  501    0 -0.50473795609E+03  0.30413181296E+03 -0.22403298116E+03  0.63043424765E+03  0.00000000000E+00 0.  1.
         -4    1    4    4    0  502  0.61456212572E+03  0.20491881401E+03  0.70702493408E+02  0.65167259362E+03  0.00000000000E+00 0. -1.
</event>
<event>
 8    1  0.7008488E-006  0.1267085E+04  0.7818608E-02  0.8559301E-01
         21   -1    0    0  503  502  0.00000000000E+00  0.00000000000E+00  0.10454438478E+04  0.10454438478E+04  0.00000000000E+00 0.  1.
         21   -1    0    0  501  503 -0.00000000000E+00 -0.00000000000E+00 -0.15441747772E+04  0.15441747772E+04  0.00000000000E+00 0.  1.
    9000010    2    1    2  501    0 -0.77261644364E+03  0.12628317883E+03 -0.10303225198E+03  0.12621845977E+04  0.98468812496E+03 0.  0.
   -9000010    2    1    2    0  502  0.77261644364E+03 -0.12628317883E+03 -0.39569867745E+03  0.13274340273E+04  0.99630318842E+03 0.  0.
        -13    1    3    3    0    0 -0.29896432235E+03  0.28879542203E+03 -0.48031793473E+03  0.63520688867E+03  0.10566000000E+00 0.  1.
         13    1    4    4    0    0  0.67317019591E+03 -0.50489216217E+03 -0.40932301348E+03  0.93574545076E+03  0.10566000000E+00 0. -1.
          4    1    3    3  501    0 -0.47365212129E+03 -0.16251224320E+03  0.37728568275E+03  0.62697770901E+03  0.00000000000E+00 0.  1.
         -4    1    4    4    0  502  0.99446247726E+02  0.37860898335E+03  0.13624336026E+02  0.39168857654E+03  0.00000000000E+00 0. -1.
</event>
<event>
 8    1  0.7008488E-006  0.1098004E+04  0.7818608E-02  0.8688558E-01
         21   -1    0    0  503  502  0.00000000000E+00  0.00000000000E+00  0.22163892823E+04  0.22163892823E+04  0.00000000000E+00 0. -1.
         21   -1    0    0  501  503 -0.00000000000E+00 -0.00000000000E+00 -0.54649177434E+03  0.54649177434E+03  0.00000000000E+00 0. -1.
    9000010    2    1    2  501    0 -0.41198395722E+03  0.19417468551E+03  0.70380107778E+03  0.13003643478E+04  0.99407086788E+03 0.  0.
   -9000010    2    1    2    0  502  0.41198395722E+03 -0.19417468551E+03  0.96609643023E+03  0.14625167089E+04  0.99908869568E+03 0.  0.
        -13    1    3    3    0    0  0.18089098131E+03 -0.25717471206E+03  0.36521728678E+03  0.48191706483E+03  0.10566000000E+00 0.  1.
         13    1    4    4    0    0  0.58536080079E+03 -0.32736536966E+03  0.25326176303E+03  0.71690786307E+03  0.10566000000E+00 0. -1.
          4    1    3    3  501    0 -0.59287493853E+03  0.45134939757E+03  0.33858379100E+03  0.81844728294E+03  0.00000000000E+00 0.  1.
         -4    1    4    4    0  502 -0.17337684357E+03  0.13319068414E+03  0.71283466720E+03  0.74560884584E+03  0.00000000000E+00 0. -1.
</event>
<event>
 8    1  0.7008488E-006  0.1558602E+04  0.7818608E-02  0.8377637E-01
         21   -1    0    0  503  502  0.00000000000E+00  0.00000000000E+00  0.25869088352E+04  0.25869088352E+04  0.00000000000E+00 0. -1.
         21   -1    0    0  501  503 -0.00000000000E+00 -0.00000000000E+00 -0.93836225762E+03  0.93836225762E+03  0.00000000000E+00 0. -1.
    9000010    2    1    2  501    0 -0.10458306365E+04  0.58440561657E+03  0.94232915361E+03  0.18213249470E+04  0.99696975083E+03 0.  0.
   -9000010    2    1    2    0  502  0.10458306365E+04 -0.58440561657E+03  0.70621742399E+03  0.17039461458E+04  0.98457999828E+03 0.  0.
        -13    1    3    3    0    0 -0.91189644462E+03  0.26148199204E+03  0.10872085398E+04  0.14428965237E+04  0.10566000000E+00 0.  1.
         13    1    4    4    0    0  0.57067684905E+03  0.13460829413E+03 -0.52908151426E+01  0.58636120504E+03  0.10566000000E+00 0. -1.
          4    1    3    3  501    0 -0.13393419184E+03  0.32292362453E+03 -0.14487938623E+03  0.37842842332E+03  0.00000000000E+00 0.  1.
         -4    1    4    4    0  502  0.47515378741E+03 -0.71901391070E+03  0.71150823913E+03  0.11175849408E+04  0.00000000000E+00 0. -1.
</event>
<event>
 8    1  0.7008488E-006  0.1288494E+04  0.7818608E-02  0.8553259E-01
         21   -1    0    0  503  502  0.00000000000E+00  0.00000000000E+00  0.89273609620E+03  0.89273609620E+03  0.00000000000E+00 0. -1.
         21   -1    0    0  501  503 -0.00000000000E+00 -0.00000000000E+00 -0.17749925842E+04  0.17749925842E+04  0.00000000000E+00 0. -1.
    9000010    2    1    2  501    0 -0.67896688665E+03  0.24745361254E+03 -0.42729546151E+03  0.13012712930E+04  0.99423148364E+03 0.  0.
   -9000010    2    1    2    0  502  0.67896688665E+03 -0.24745361254E+03 -0.45496102647E+03  0.13664573874E+04  0.10667647034E+04 0.  0.
        -13    1    3    3    0    0  0.12759127581E+03 -0.67972973577E+02 -0.41034085378E+03  0.43506262336E+03  0.10566000000E+00 0.  1.
         13    1    4    4    0    0  0.65785125158E+03 -0.17247654665E+03 -0.77847277526E+03  0.10337002957E+04  0.10566000000E+00 0. -1.
          4    1    3    3  501    0 -0.80655816246E+03  0.31542658611E+03 -0.16954607728E+02  0.86620866965E+03  0.00000000000E+00 0.  1.
         -4    1    4    4    0  502  0.21115635076E+02 -0.74977065887E+02  0.32351174879E+03  0.33275709167E+03  0.00000000000E+00 0. -1.
</event>
<event>
 8    1  0.7008488E-006  0.1174347E+04  0.7818608E-02  0.8637175E-01
         21   -1    0    0  501  502  0.00000000000E+00  0.00000000000E+00  0.18388799122E+04  0.18388799122E+04  0.00000000000E+00 0.  1.
         21   -1    0    0  502  503 -0.00000000000E+00 -0.00000000000E+00 -0.84190644080E+03  0.84190644080E+03  0.00000000000E+00 0.  1.
   -9000010    2    1    2    0  503 -0.43700247189E+03 -0.49288167518E+03 -0.11880756165E+02  0.11744067835E+04  0.97220709448E+03 0.  0.
    9000010    2    1    2  501    0  0.43700247189E+03  0.49288167518E+03  0.10088542276E+04  0.15063795695E+04  0.90415100994E+03 0.  0.
        -13    1    4    4    0    0  0.30023502336E+03  0.69771067844E+03  0.41967914379E+03  0.86779712777E+03  0.10566000000E+00 0.  1.
         13    1    3    3    0    0  0.59599982805E+02 -0.64486018779E+03 -0.72010731343E+02  0.65159985907E+03  0.10566000000E+00 0. -1.
          4    1    4    4  501    0  0.13676744853E+03 -0.20482900327E+03  0.58917508376E+03  0.63858244173E+03  0.00000000000E+00 0.  1.
         -4    1    3    3    0  503 -0.49660245469E+03  0.15197851261E+03  0.60129975178E+02  0.52280692442E+03  0.00000000000E+00 0. -1.
</event>
<event>
 8    1  0.7008488E-006  0.1133892E+04  0.7818608E-02  0.8666259E-01
         21   -1    0    0  503  502  0.00000000000E+00  0.00000000000E+00  0.12061525988E+04  0.12061525988E+04  0.00000000000E+00 0. -1.
         21   -1    0    0  501  503 -0.00000000000E+00 -0.00000000000E+00 -0.10387958665E+04  0.10387958665E+04  0.00000000000E+00 0. -1.
    9000010    2    1    2  501    0 -0.30427562199E+03 -0.43454918706E+03 -0.27532015682E+02  0.10944303484E+04  0.95687153027E+03 0.  0.
   -9000010    2    1    2    0  502  0.30427562199E+03  0.43454918706E+03  0.19488874801E+03  0.11505181169E+04  0.10021445320E+04 0.  0.
        -13    1    3    3    0    0  0.31021524065E+03 -0.23833574489E+03 -0.18149826692E+03  0.43125288971E+03  0.10566000000E+00 0.  1.
         13    1    4    4    0    0 -0.22158698075E+03 -0.18494306705E+03 -0.67876585301E+02  0.29649952797E+03  0.10566000000E+00 0. -1.
          4    1    3    3  501    0 -0.61449086264E+03 -0.19621344217E+03  0.15396625124E+03  0.66317745866E+03  0.00000000000E+00 0.  1.
         -4    1    4    4    0  502  0.52586260274E+03  0.61949225411E+03  0.26276533331E+03  0.85401858894E+03  0.00000000000E+00 0. -1.
</event>
<event>
 8    1  0.7008488E-006  0.1121835E+04  0.7818608E-02  0.8671416E-01
         21   -1    0    0  503  502  0.00000000000E+00  0.00000000000E+00  0.93277788407E+03  0.93277788407E+03  0.00000000000E+00 0.  1.
         21   -1    0    0  501  503 -0.00000000000E+00 -0.00000000000E+00 -0.14782304685E+04  0.14782304685E+04  0.00000000000E+00 0.  1.
    9000010    2    1    2  501    0  0.41621093282E+03  0.27157108263E+03  0.11273204773E+03  0.11103467883E+04  0.98649839440E+03 0.  0.
   -9000010    2    1    2    0  502 -0.41621093282E+03 -0.27157108263E+03 -0.65818463220E+03  0.13006615643E+04  0.10057490250E+04 0.  0.
        -13    1    3    3    0    0  0.94316911149E+02  0.48881986538E+02  0.52864705381E+03  0.53921502854E+03  0.10566000000E+00 0.  1.
         13    1    4    4    0    0  0.29501481565E+03 -0.22972883525E+03 -0.78246877012E+02  0.38201003145E+03  0.10566000000E+00 0. -1.
          4    1    3    3  501    0  0.32189402167E+03  0.22268909610E+03 -0.41591500608E+03  0.57113175974E+03  0.00000000000E+00 0.  1.
         -4    1    4    4    0  502 -0.71122574847E+03 -0.41842247382E+02 -0.57993775519E+03  0.91865153287E+03  0.00000000000E+00 0. -1.
</event>
<event>
 8    1  0.7008488E-006  0.1133351E+04  0.7818608E-02  0.8663040E-01
         21   -1    0    0  503  502  0.00000000000E+00  0.00000000000E+00  0.89773920555E+03  0.89773920555E+03  0.00000000000E+00 0. -1.
         21   -1    0    0  501  503 -0.00000000000E+00 -0.00000000000E+00 -0.14130832097E+04  0.14130832097E+04  0.00000000000E+00 0. -1.
    9000010    2    1    2  501    0  0.21727793948E+03  0.50283248705E+03 -0.35312694027E+03  0.11659210185E+04  0.96675900430E+03 0.  0.
   -9000010    2    1    2    0  502 -0.21727793948E+03 -0.50283248705E+03 -0.16221706386E+03  0.11449013967E+04  0.99218678656E+03 0.  0.
        -13    1    3    3    0    0 -0.15050888617E+03  0.58272024339E+03 -0.47886648565E+03  0.76910917893E+03  0.10566000000E+00 0.  1.
         13    1    4    4    0    0 -0.52329518820E+03  0.23725164066E+02 -0.91883591502E+02  0.53183018244E+03  0.10566000000E+00 0. -1.
          4    1    3    3  501    0  0.36778682566E+03 -0.79887756336E+02  0.12573954539E+03  0.39681183956E+03  0.00000000000E+00 0.  1.
         -4    1    4    4    0  502  0.30601724872E+03 -0.52655765112E+03 -0.70333472355E+02  0.61307121430E+03  0.00000000000E+00 0. -1.
</event>
<event>
 8    1  0.7008488E-006  0.1077600E+04  0.7818608E-02  0.8707106E-01
         21   -1    0    0  503  502  0.00000000000E+00  0.00000000000E+00  0.11373167694E+04  0.11373167694E+04  0.00000000000E+00 0.  1.
         21   -1    0    0  501  503 -0.00000000000E+00 -0.00000000000E+00 -0.10185425232E+04  0.10185425232E+04  0.00000000000E+00 0.  1.
    9000010    2    1    2  501    0  0.18717500251E+03 -0.34719315117E+03  0.14991020048E+03  0.10879775898E+04  0.10028183294E+04 0.  0.
   -9000010    2    1    2    0  502 -0.18717500251E+03  0.34719315117E+03 -0.31135954353E+02  0.10678817029E+04  0.99187918511E+03 0.  0.
        -13    1    3    3    0    0  0.26156335108E+03 -0.78689069104E+02 -0.39250318134E+03  0.47819045866E+03  0.10566000000E+00 0.  1.
         13    1    4    4    0    0  0.16499392567E+03 -0.24687502865E+03 -0.19863885775E+03  0.35725016760E+03  0.10566000000E+00 0. -1.
          4    1    3    3  501    0 -0.74388348576E+02 -0.26850408206E+03  0.54241338182E+03  0.60978713111E+03  0.00000000000E+00 0.  1.
         -4    1    4    4    0  502 -0.35216892818E+03  0.59406817981E+03  0.16750290340E+03  0.71063153525E+03  0.00000000000E+00 0. -1.
</event>
<event>
 8    1  0.7008488E-006  0.1133011E+04  0.7818608E-02  0.8672958E-01
         21   -1    0    0  503  502  0.00000000000E+00  0.00000000000E+00  0.14212813934E+04  0.14212813934E+04  0.00000000000E+00 0.  1.
         21   -1    0    0  501  503 -0.00000000000E+00 -0.00000000000E+00 -0.90094936465E+03  0.90094936465E+03  0.00000000000E+00 0.  1.
    9000010    2    1    2  501    0 -0.47238497612E+03 -0.11945402496E+02  0.52896763620E+03  0.11891870247E+04  0.95449922013E+03 0.  0.
   -9000010    2    1    2    0  502  0.47238497612E+03  0.11945402496E+02 -0.86356074086E+01  0.11330437334E+04  0.10297685516E+04 0.  0.
        -13    1    3    3    0    0 -0.61615971936E+03 -0.13250284051E+02 -0.25055044878E+02  0.61681126467E+03  0.10566000000E+00 0.  1.
         13    1    4    4    0    0  0.53649304243E+02 -0.41768112739E+03 -0.24618427520E+03  0.48779348145E+03  0.10566000000E+00 0. -1.
          4    1    3    3  501    0  0.14377474323E+03  0.13048815552E+01  0.55402268108E+03  0.57237576002E+03  0.00000000000E+00 0.  1.
         -4    1    4    4    0  502  0.41873567188E+03  0.42962652989E+03  0.23754866779E+03  0.64525025196E+03  0.00000000000E+00 0. -1.
</event>
<event>
 8    1  0.7008488E-006  0.1057466E+04  0.7818608E-02  0.8723140E-01
         21   -1    0    0  503  502  0.00000000000E+00  0.00000000000E+00  0.16581931977E+04  0.16581931977E+04  0.00000000000E+00 0.  1.
         21   -1    0    0  501  503 -0.00000000000E+00 -0.00000000000E+00 -0.68241971056E+03  0.68241971056E+03  0.00000000000E+00 0.  1.
    9000010    2    1    2  501    0  0.10874490372E+03 -0.31645272891E+03  0.34549919024E+03  0.11124762402E+04  0.10031280630E+04 0.  0.
   -9000010    2    1    2    0  502 -0.10874490372E+03  0.31645272891E+03  0.63027429685E+03  0.12281366680E+04  0.99955300128E+03 0.  0.
        -13    1    3    3    0    0  0.11164864836E+02 -0.42665922695E+03 -0.25298948139E+03  0.49615162905E+03  0.10566000000E+00 0.  1.
         13    1    4    4    0    0  0.20270731933E+03 -0.15709615642E+03  0.60917200414E+03  0.66095385729E+03  0.10566000000E+00 0. -1.
          4    1    3    3  501    0  0.97580038883E+02  0.11020649804E+03  0.59848867164E+03  0.61632461113E+03  0.00000000000E+00 0.  1.
         -4    1    4    4    0  502 -0.31145222305E+03  0.47354888533E+03  0.21102292711E+02  0.56718281074E+03  0.00000000000E+00 0. -1.
</event>
<event>
 8    1  0.7008488E-006  0.1215796E+04  0.7818608E-02  0.8604738E-01
         21   -1    0    0  501  502  0.00000000000E+00  0.00000000000E+00  0.21432239910E+04  0.21432239910E+04  0.00000000000E+00 0. -1.
         21   -1    0    0  502  503 -0.00000000000E+00 -0.00000000000E+00 -0.66053005777E+03  0.66053005777E+03  0.00000000000E+00 0.  1.
   -9000010    2    1    2    0  503 -0.54463933863E+03  0.39823375908E+03  0.72509653131E+03  0.14156008021E+04  0.10114042293E+04 0.  0.
    9000010    2    1    2  501    0  0.54463933863E+03 -0.39823375908E+03  0.75759740194E+03  0.13881532467E+04  0.94751964456E+03 0.  0.
        -13    1    4    4    0    0  0.40955291224E+03  0.15522091050E+03  0.68610583279E+03  0.81398301207E+03  0.10566000000E+00 0.  1.
         13    1    3    3    0    0 -0.29872515018E+03  0.55461223554E+03  0.88259057688E+03  0.10843420054E+04  0.10566000000E+00 0. -1.
          4    1    4    4  501    0  0.13508642639E+03 -0.55345466958E+03  0.71491569154E+02  0.57417023463E+03  0.00000000000E+00 0.  1.
         -4    1    3    3    0  503 -0.24591418845E+03 -0.15637847646E+03 -0.15749404558E+03  0.33125879667E+03  0.00000000000E+00 0. -1.
</event>
<event>
 8    1  0.7008488E-006  0.1188362E+04  0.7818608E-02  0.8619986E-01
         21   -1    0    0  503  502  0.00000000000E+00  0.00000000000E+00  0.13766153196E+04  0.13766153196E+04  0.00000000000E+00 0.  1.
         21   -1    0    0  501  503 -0.00000000000E+00 -0.00000000000E+00 -0.10929327436E+04  0.10929327436E+04  0.00000000000E+00 0.  1.
    9000010    2    1    2  501    0 -0.52050881182E+03  0.29538646101E+03 -0.20646585238E+03  0.12061648121E+04  0.10266561359E+04 0.  0.
   -9000010    2    1    2    0  502  0.52050881182E+03 -0.29538646101E+03  0.49014842839E+03  0.12633832510E+04  0.99885392951E+03 0.  0.
        -13    1    3    3    0    0  0.15088234985E+03  0.33755138482E+03  0.19982275235E+03  0.42028034027E+03  0.10566000000E+00 0.  1.
         13    1    4    4    0    0  0.14890905406E+02 -0.35549325491E+03  0.64030902583E+03  0.73252498461E+03  0.10566000000E+00 0. -1.
          4    1    3    3  501    0 -0.67139116167E+03 -0.42164923813E+02 -0.40628860473E+03  0.78588447186E+03  0.00000000000E+00 0.  1.
         -4    1    4    4    0  502  0.50561790641E+03  0.60106793906E+02 -0.15016059744E+03  0.53085826638E+03  0.00000000000E+00 0. -1.
</event>
<event>
 8    1  0.7008488E-006  0.1095977E+04  0.7818608E-02  0.8692810E-01
         21   -1    0    0  501  502  0.00000000000E+00  0.00000000000E+00  0.14821238758E+04  0.14821238758E+04  0.00000000000E+00 0.  1.
         21   -1    0    0  502  503 -0.00000000000E+00 -0.00000000000E+00 -0.79867776571E+03  0.79867776571E+03  0.00000000000E+00 0.  1.
   -9000010    2    1    2    0  503 -0.27991567582E+03  0.27259170173E+03  0.31233814598E+03  0.11236990868E+04  0.10062233842E+04 0.  0.
    9000010    2    1    2  501    0  0.27991567582E+03 -0.27259170173E+03  0.37110796416E+03  0.11571025547E+04  0.10239659075E+04 0.  0.
        -13    1    4    4    0    0 -0.10894717388E+03 -0.39770264081E+03  0.56939448390E+03  0.70302700280E+03  0.10566000000E+00 0.  1.
         13    1    3    3    0    0 -0.34969861088E+03 -0.32521619725E+03  0.13749480578E+03  0.49695022506E+03  0.10566000000E+00 0. -1.
          4    1    4    4  501    0  0.38886284970E+03  0.12511093908E+03 -0.19828651974E+03  0.45407555194E+03  0.00000000000E+00 0.  1.
         -4    1    3    3    0  503  0.69782935062E+02  0.59780789898E+03  0.17484334020E+03  0.62674886176E+03  0.00000000000E+00 0. -1.
</event>
<event>
 8    1  0.7008488E-006  0.1223082E+04  0.7818608E-02  0.8594297E-01
         21   -1    0    0  503  502  0.00000000000E+00  0.00000000000E+00  0.16074512406E+04  0.16074512406E+04  0.00000000000E+00 0.  1.
         21   -1    0    0  501  503 -0.00000000000E+00 -0.00000000000E+00 -0.91793139852E+03  0.91793139852E+03  0.00000000000E+00 0. -1.
    9000010    2    1    2  501    0 -0.66501342175E+03 -0.44146489775E+02  0.45364034260E+03  0.12797625670E+04  0.99388676608E+03 0.  0.
   -9000010    2    1    2    0  502  0.66501342175E+03  0.44146489775E+02  0.23587949948E+03  0.12456200721E+04  0.10255430084E+04 0.  0.
        -13    1    3    3    0    0  0.25955194934E+03 -0.69902344325E+02  0.14024188524E+03  0.30318533884E+03  0.10566000000E+00 0.  1.
         13    1    4    4    0    0  0.52819889686E+03 -0.19358449417E+03 -0.30445190479E+03  0.63965616117E+03  0.10566000000E+00 0. -1.
          4    1    3    3  501    0 -0.92456537110E+03  0.25755854550E+02  0.31339845737E+03  0.97657722816E+03  0.00000000000E+00 0.  1.
         -4    1    4    4    0  502  0.13681452489E+03  0.23773098394E+03  0.54033140428E+03  0.60596391097E+03  0.00000000000E+00 0. -1.
</event>
<event>
 8    1  0.7008488E-006  0.1381753E+04  0.7818608E-02  0.8482499E-01
         21   -1    0    0  501  502  0.00000000000E+00  0.00000000000E+00  0.15296252188E+04  0.15296252188E+04  0.00000000000E+00 0.  1.
         21   -1    0    0  502  503 -0.00000000000E+00 -0.00000000000E+00 -0.12500007642E+04  0.12500007642E+04  0.00000000000E+00 0. -1.
   -9000010    2    1    2    0  503  0.13451191726E+03 -0.91943047329E+03  0.13365687010E+02  0.13818172416E+04  0.10226408932E+04 0.  0.
    9000010    2    1    2  501    0 -0.13451191726E+03  0.91943047329E+03  0.26625876752E+03  0.13978087414E+04  0.10097176314E+04 0.  0.
        -13    1    4    4    0    0 -0.32353468058E+03  0.73153880714E+03  0.57859445592E+03  0.98721591938E+03  0.10566000000E+00 0.  1.
         13    1    3    3    0    0  0.43228818255E+03 -0.36900390330E+03 -0.34083105522E+03  0.66272375300E+03  0.10566000000E+00 0. -1.
          4    1    4    4  501    0  0.18902276332E+03  0.18789166615E+03 -0.31233568840E+03  0.41059282204E+03  0.00000000000E+00 0.  1.
         -4    1    3    3    0  503 -0.29777626529E+03 -0.55042656999E+03  0.35419674223E+03  0.71909348859E+03  0.00000000000E+00 0. -1.
</event>
<event>
 8    1  0.7008488E-006  0.1112778E+04  0.7818608E-02  0.8675435E-01
         21   -1    0    0  501  502  0.00000000000E+00  0.00000000000E+00  0.11020224872E+04  0.11020224872E+04  0.00000000000E+00 0.  1.
         21   -1    0    0  502  503 -0.00000000000E+00 -0.00000000000E+00 -0.11382135448E+04  0.11382135448E+04  0.00000000000E+00 0.  1.
   -9000010    2    1    2    0  503 -0.35781363320E+03  0.32980999222E+03 -0.14755945394E+03  0.11225188015E+04  0.10007344504E+04 0.  0.
    9000010    2    1    2  501    0  0.35781363320E+03 -0.32980999222E+03  0.11136839642E+03  0.11177172305E+04  0.10000418294E+04 0.  0.
        -13    1    4    4    0    0  0.63275427881E+03 -0.43305169941E+03 -0.74170203046E+02  0.77033303311E+03  0.10566000000E+00 0.  1.
         13    1    3    3    0    0  0.11409939786E+03 -0.14241195517E+03  0.27674130754E+03  0.33148996973E+03  0.10566000000E+00 0. -1.
          4    1    4    4  501    0 -0.27494064561E+03  0.10324170719E+03  0.18553859946E+03  0.34738419740E+03  0.00000000000E+00 0.  1.
         -4    1    3    3    0  503 -0.47191303106E+03  0.47222194739E+03 -0.42430076148E+03  0.79102883176E+03  0.00000000000E+00 0. -1.
</event>
<event>
 8    1  0.7008488E-006  0.1052944E+04  0.7818608E-02  0.8738742E-01
         21   -1    0    0  501  502  0.00000000000E+00  0.00000000000E+00  0.90953459055E+03  0.90953459055E+03  0.00000000000E+00 0.  1.
         21   -1    0    0  502  503 -0.00000000000E+00 -0.00000000000E+00 -0.11606815341E+04  0.11606815341E+04  0.00000000000E+00 0.  1.
   -9000010    2    1    2    0  503 -0.36940365950E+02 -0.13136125237E+03 -0.61650047414E+02  0.10003563093E+04  0.98908626926E+03 0.  0.
    9000010    2    1    2  501    0  0.36940365950E+02  0.13136125237E+03 -0.18949689611E+03  0.10698598153E+04  0.10440644527E+04 0.  0.
        -13    1    4    4    0    0 -0.43394809130E+02 -0.12439137278E+03  0.40061025560E+03  0.42171662421E+03  0.10566000000E+00 0.  1.
         13    1    3    3    0    0 -0.42160678813E+03 -0.25411027720E+03 -0.25306764184E+03  0.55350479608E+03  0.10566000000E+00 0. -1.
          4    1    4    4  501    0  0.80335175080E+02  0.25575262515E+03 -0.59010715171E+03  0.64814319107E+03  0.00000000000E+00 0.  1.
         -4    1    3    3    0  503  0.38466642218E+03  0.12274902483E+03  0.19141759442E+03  0.44685151326E+03  0.00000000000E+00 0. -1.
</event>
<event>
 8    1  0.7008488E-006  0.1216922E+04  0.7818608E-02  0.8600108E-01
         21   -1    0    0  503  502  0.00000000000E+00  0.00000000000E+00  0.17971263431E+04  0.17971263431E+04  0.00000000000E+00 0. -1.
         21   -1    0    0  501  503 -0.00000000000E+00 -0.00000000000E+00 -0.11573999150E+04  0.11573999150E+04  0.00000000000E+00 0. -1.
    9000010    2    1    2  501    0 -0.63743057195E+03  0.23178957966E+03 -0.50184062029E+03  0.12859719736E+04  0.97048223340E+03 0.  0.
   -9000010    2    1    2    0  502  0.63743057195E+03 -0.23178957966E+03  0.11415670484E+04  0.16685542845E+04  0.10103731642E+04 0.  0.
        -13    1    3    3    0    0 -0.60017766598E+03  0.27441879699E+03 -0.76872901343E+03  0.10131452088E+04  0.10566000000E+00 0.  1.
         13    1    4    4    0    0 -0.26473579974E+03 -0.20604587678E+02  0.40784591229E+03  0.48667020870E+03  0.10566000000E+00 0. -1.
          4    1    3    3  501    0 -0.37252905972E+02 -0.42629217326E+02  0.26688839314E+03  0.27282676476E+03  0.00000000000E+00 0.  1.
         -4    1    4    4    0  502  0.90216637169E+03 -0.21118499198E+03  0.73372113611E+03  0.11818840758E+04  0.00000000000E+00 0. -1.
</event>
<event>
 8    1  0.7008488E-006  0.1243777E+04  0.7818608E-02  0.8574671E-01
         21   -1    0    0  501  502  0.00000000000E+00  0.00000000000E+00  0.93926290311E+03  0.93926290311E+03  0.00000000000E+00 0.  1.
         21   -1    0    0  502  503 -0.00000000000E+00 -0.00000000000E+00 -0.17711152398E+04  0.17711152398E+04  0.00000000000E+00 0.  1.
   -9000010    2    1    2    0  503 -0.55938772864E+03 -0.43446669322E+03 -0.77818511089E+03  0.14654433648E+04  0.10199393365E+04 0.  0.
    9000010    2    1    2  501    0  0.55938772864E+03  0.43446669322E+03 -0.53667225800E+02  0.12449347781E+04  0.10224023143E+04 0.  0.
        -13    1    4    4    0    0 -0.67287231809E+02  0.36579067292E+03  0.33815016326E+03  0.50266880949E+03  0.10566000000E+00 0.  1.
         13    1    3    3    0    0 -0.71664406764E+03 -0.46934860647E+02 -0.18849915078E+03  0.74250491031E+03  0.10566000000E+00 0. -1.
          4    1    4    4  501    0  0.62667496045E+03  0.68676020294E+02 -0.39181738906E+03  0.74226596863E+03  0.00000000000E+00 0.  1.
         -4    1    3    3    0  503  0.15725633900E+03 -0.38753183257E+03 -0.58968596011E+03  0.72293845448E+03  0.00000000000E+00 0. -1.
</event>
<event>
 8    1  0.7008488E-006  0.1131787E+04  0.7818608E-02  0.8659865E-01
         21   -1    0    0  501  502  0.00000000000E+00  0.00000000000E+00  0.14699883106E+04  0.14699883106E+04  0.00000000000E+00 0. -1.
         21   -1    0    0  502  503 -0.00000000000E+00 -0.00000000000E+00 -0.97414525128E+03  0.97414525128E+03  0.00000000000E+00 0. -1.
   -9000010    2    1    2    0  503  0.50964478260E+03  0.33855209741E+02  0.64540630159E+03  0.13025069312E+04  0.10095003873E+04 0.  0.
    9000010    2    1    2  501    0 -0.50964478260E+03 -0.33855209741E+02 -0.14956324232E+03  0.11416266307E+04  0.10099793170E+04 0.  0.
        -13    1    4    4    0    0 -0.10341376717E+03 -0.42788031668E+03 -0.32718374556E+03  0.54847532959E+03  0.10566000000E+00 0.  1.
         13    1    3    3    0    0 -0.11436575760E+03  0.33766753127E+03  0.25980266372E+01  0.35651879206E+03  0.10566000000E+00 0. -1.
          4    1    4    4  501    0 -0.40623101543E+03  0.39402510694E+03  0.17762050324E+03  0.59315130108E+03  0.00000000000E+00 0.  1.
         -4    1    3    3    0  503  0.62401054020E+03 -0.30381232153E+03  0.64280827496E+03  0.94598813912E+03  0.00000000000E+00 0. -1.
</event>
<event>
 8    1  0.7008488E-006  0.1139337E+04  0.7818608E-02  0.8664338E-01
         21   -1    0    0  503  502  0.00000000000E+00  0.00000000000E+00  0.66692920584E+03  0.66692920584E+03  0.00000000000E+00 0.  1.
         21   -1    0    0  501  503 -0.00000000000E+00 -0.00000000000E+00 -0.21677887949E+04  0.21677887949E+04  0.00000000000E+00 0.  1.
    9000010    2    1    2  501    0 -0.38722675166E+03  0.17043242927E+03 -0.23050070775E+03  0.11624196966E+04  0.10578739077E+04 0.  0.
   -9000010    2    1    2    0  502  0.38722675166E+03 -0.17043242927E+03 -0.12703588813E+04  0.16722983042E+04  0.10018872994E+04 0.  0.
        -13    1    3    3    0    0 -0.25028237854E+03 -0.30093375493E+03  0.25888742912E+03  0.46928147841E+03  0.10566000000E+00 0.  1.
         13    1    4    4    0    0 -0.47685583876E+00 -0.58343908309E+02  0.16828795314E+03  0.17811537093E+03  0.10566000000E+00 0. -1.
          4    1    3    3  501    0 -0.13694437313E+03  0.47136618420E+03 -0.48938813687E+03  0.69313821814E+03  0.00000000000E+00 0.  1.
         -4    1    4    4    0  502  0.38770360750E+03 -0.11208852096E+03 -0.14386468344E+04  0.14941829332E+04  0.00000000000E+00 0. -1.
</event>
<event>
 8    1  0.7008488E-006  0.1835012E+04  0.7818608E-02  0.8239973E-01
         21   -1    0    0  501  502  0.00000000000E+00  0.00000000000E+00  0.89772371580E+03  0.89772371580E+03  0.00000000000E+00 0.  1.
         21   -1    0    0  502  503 -0.00000000000E+00 -0.00000000000E+00 -0.37813705955E+04  0.37813705955E+04  0.00000000000E+00 0. -1.
   -9000010    2    1    2    0  503  0.15011749507E+04 -0.32190116305E+03 -0.17041679343E+04  0.25042876851E+04  0.10050481929E+04 0.  0.
    9000010    2    1    2  501    0 -0.15011749507E+04  0.32190116305E+03 -0.11794789454E+04  0.21748066263E+04  0.99069000573E+03 0.  0.
        -13    1    4    4    0    0 -0.14056717255E+04 -0.84118993418E+02 -0.86763933296E+03  0.16540214715E+04  0.10566000000E+00 0.  1.
         13    1    3    3    0    0  0.44271821490E+03 -0.37706236709E+03 -0.11938232238E+04  0.13279267101E+04  0.10566000000E+00 0. -1.
          4    1    4    4  501    0 -0.95503225191E+02  0.40602015647E+03 -0.31183961249E+03  0.52078515474E+03  0.00000000000E+00 0.  1.
         -4    1    3    3    0  503  0.10584567358E+04  0.55161204036E+02 -0.51034471046E+03  0.11763609750E+04  0.00000000000E+00 0. -1.
</event>
<event>
 8    1  0.7008488E-006  0.1036099E+04  0.7818608E-02  0.8745897E-01
         21   -1    0    0  503  502  0.00000000000E+00  0.00000000000E+00  0.61949872883E+03  0.61949872883E+03  0.00000000000E+00 0.  1.
         21   -1    0    0  501  503 -0.00000000000E+00 -0.00000000000E+00 -0.17136845866E+04  0.17136845866E+04  0.00000000000E+00 0.  1.
    9000010    2    1    2  501    0 -0.57308180419E+02  0.18914982118E+03 -0.65702297903E+03  0.12268581599E+04  0.10170741699E+04 0.  0.
   -9000010    2    1    2    0  502  0.57308180419E+02 -0.18914982118E+03 -0.43716287876E+03  0.11063251556E+04  0.99688619458E+03 0.  0.
        -13    1    3    3    0    0 -0.12335920071E+03 -0.24639088608E+03 -0.73005522101E+03  0.78032467475E+03  0.10566000000E+00 0.  1.
         13    1    4    4    0    0 -0.21414695537E+03  0.34048927335E+03 -0.73595791443E+02  0.40891101164E+03  0.10566000000E+00 0. -1.
          4    1    3    3  501    0  0.66051020290E+02  0.43554070726E+03  0.73032241980E+02  0.44653348511E+03  0.00000000000E+00 0.  1.
         -4    1    4    4    0  502  0.27145513579E+03 -0.52963909453E+03 -0.36356708732E+03  0.69741414395E+03  0.00000000000E+00 0. -1.
</event>
<event>
 8    1  0.7008488E-006  0.1038610E+04  0.7818608E-02  0.8742631E-01
         21   -1    0    0  501  502  0.00000000000E+00  0.00000000000E+00  0.88321045592E+03  0.88321045592E+03  0.00000000000E+00 0.  1.
         21   -1    0    0  502  503 -0.00000000000E+00 -0.00000000000E+00 -0.12036452668E+04  0.12036452668E+04  0.00000000000E+00 0.  1.
   -9000010    2    1    2    0  503 -0.15721632024E+03 -0.10156350167E+03 -0.18036282179E+03  0.10541546876E+04  0.10216062067E+04 0.  0.
    9000010    2    1    2  501    0  0.15721632024E+03  0.10156350167E+03 -0.14007198912E+03  0.10327010352E+04  0.10058922157E+04 0.  0.
        -13    1    4    4    0    0  0.29202477638E+03  0.45342280791E+03  0.14700623583E+03  0.55900049847E+03  0.10566000000E+00 0.  1.
         13    1    3    3    0    0  0.29333432186E+03  0.21208643036E+03  0.17309713325E+03  0.40123348193E+03  0.10566000000E+00 0. -1.
          4    1    4    4  501    0 -0.13480845614E+03 -0.35185930624E+03 -0.28707822495E+03  0.47370053670E+03  0.00000000000E+00 0.  1.
         -4    1    3    3    0  503 -0.45055064209E+03 -0.31364993203E+03 -0.35345995504E+03  0.65292120564E+03  0.00000000000E+00 0. -1.
</event>
<event>
 8    1  0.7008488E-006  0.1545951E+04  0.7818608E-02  0.8384657E-01
         21   -1    0    0  503  502  0.00000000000E+00  0.00000000000E+00  0.12700573643E+04  0.12700573643E+04  0.00000000000E+00 0. -1.
         21   -1    0    0  501  503 -0.00000000000E+00 -0.00000000000E+00 -0.21163173204E+04  0.21163173204E+04  0.00000000000E+00 0. -1.
    9000010    2    1    2  501    0 -0.88859139376E+03 -0.76714132190E+03 -0.99748483205E+03  0.18330450683E+04  0.99346754328E+03 0.  0.
   -9000010    2    1    2    0  502  0.88859139376E+03  0.76714132190E+03  0.15122487595E+03  0.15533296163E+04  0.10059142413E+04 0.  0.
        -13    1    3    3    0    0 -0.38237025145E+03  0.75700766766E+02 -0.70787264442E+03  0.80809733768E+03  0.10566000000E+00 0.  1.
         13    1    4    4    0    0 -0.20062091781E+03 -0.73137535493E+01 -0.35516689108E+02  0.20387174896E+03  0.10566000000E+00 0. -1.
          4    1    3    3  501    0 -0.50622114232E+03 -0.84284208867E+03 -0.28961218763E+03  0.10249477307E+04  0.00000000000E+00 0.  1.
         -4    1    4    4    0  502  0.10892123116E+04  0.77445507545E+03  0.18674156505E+03  0.13494578673E+04  0.00000000000E+00 0. -1.
</event>
<event>
 8    1  0.7008488E-006  0.1100584E+04  0.7818608E-02  0.8686725E-01
         21   -1    0    0  503  502  0.00000000000E+00  0.00000000000E+00  0.95092390973E+03  0.95092390973E+03  0.00000000000E+00 0. -1.
         21   -1    0    0  501  503 -0.00000000000E+00 -0.00000000000E+00 -0.17271186108E+04  0.17271186108E+04  0.00000000000E+00 0. -1.
    9000010    2    1    2  501    0  0.13808503247E+03  0.46351866034E+03 -0.10802442768E+04  0.15421454385E+04  0.98861915368E+03 0.  0.
   -9000010    2    1    2    0  502 -0.13808503247E+03 -0.46351866034E+03  0.30404957581E+03  0.11358970820E+04  0.98178358702E+03 0.  0.
        -13    1    3    3    0    0  0.30578496842E+03  0.62062089528E+03 -0.11125125702E+04  0.13100988408E+04  0.10566000000E+00 0.  1.
         13    1    4    4    0    0  0.23439656730E+03 -0.55231950970E+03  0.42392608101E+03  0.73465088640E+03  0.10566000000E+00 0. -1.
          4    1    3    3  501    0 -0.16769993595E+03 -0.15710223494E+03  0.32268293365E+02  0.23204659768E+03  0.00000000000E+00 0.  1.
         -4    1    4    4    0  502 -0.37248159978E+03  0.88800849361E+02 -0.11987650519E+03  0.40124619564E+03  0.00000000000E+00 0. -1.
</event>
<event>
 8    1  0.7008488E-006  0.1121902E+04  0.7818608E-02  0.8676436E-01
         21   -1    0    0  503  502  0.00000000000E+00  0.00000000000E+00  0.14087587947E+04  0.14087587947E+04  0.00000000000E+00 0.  1.
         21   -1    0    0  501  503 -0.00000000000E+00 -0.00000000000E+00 -0.93913393603E+03  0.93913393603E+03  0.00000000000E+00 0.  1.
    9000010    2    1    2  501    0 -0.34600647645E+03  0.34255147523E+03  0.56975156479E+03  0.12215316802E+04  0.96460396293E+03 0.  0.
   -9000010    2    1    2    0  502  0.34600647645E+03 -0.34255147523E+03 -0.10012670607E+03  0.11263610505E+04  0.10107432236E+04 0.  0.
        -13    1    3    3    0    0 -0.59801211386E+03  0.17052162408E+02  0.54476675951E+03  0.80912304256E+03  0.10566000000E+00 0.  1.
         13    1    4    4    0    0 -0.17196150764E+03 -0.23491064020E+03 -0.41783796719E+03  0.50925666120E+03  0.10566000000E+00 0. -1.
          4    1    3    3  501    0  0.25200563741E+03  0.32549931282E+03  0.24984805276E+02  0.41240863767E+03  0.00000000000E+00 0.  1.
         -4    1    4    4    0  502  0.51796798409E+03 -0.10764083502E+03  0.31771126112E+03  0.61710438934E+03  0.00000000000E+00 0. -1.
</event>
<event>
 8    1  0.7008488E-006  0.1161663E+04  0.7818608E-02  0.8638961E-01
         21   -1    0    0  501  502  0.00000000000E+00  0.00000000000E+00  0.17627766912E+04  0.17627766912E+04  0.00000000000E+00 0. -1.
         21   -1    0    0  502  503 -0.00000000000E+00 -0.00000000000E+00 -0.76586867609E+03  0.76586867609E+03  0.00000000000E+00 0. -1.
   -9000010    2    1    2    0  503  0.58112684305E+03 -0.65502939171E+02  0.35583201834E+03  0.12149388570E+04  0.10037235467E+04 0.  0.
    9000010    2    1    2  501    0 -0.58112684305E+03  0.65502939171E+02  0.64107599682E+03  0.13137065103E+04  0.98633022809E+03 0.  0.
        -13    1    4    4    0    0 -0.86130511732E+03  0.85855235083E+02  0.47400756882E+03  0.98686413096E+03  0.10566000000E+00 0.  1.
         13    1    3    3    0    0  0.15204843556E+02 -0.10049935029E+03 -0.31825670484E+03  0.33409377129E+03  0.10566000000E+00 0. -1.
          4    1    4    4  501    0  0.28017827427E+03 -0.20352295912E+02  0.16706842800E+03  0.32684237937E+03  0.00000000000E+00 0.  1.
         -4    1    3    3    0  503  0.56592199950E+03  0.34996411122E+02  0.67408872317E+03  0.88084508571E+03  0.00000000000E+00 0. -1.
</event>
<event>
 8    1  0.7008488E-006  0.1112033E+04  0.7818608E-02  0.8679777E-01
         21   -1    0    0  501  502  0.00000000000E+00  0.00000000000E+00  0.62887864388E+03  0.62887864388E+03  0.00000000000E+00 0. -1.
         21   -1    0    0  502  503 -0.00000000000E+00 -0.00000000000E+00 -0.19343476186E+04  0.19343476186E+04  0.00000000000E+00 0. -1.
   -9000010    2    1    2    0  503 -0.12707369821E+03  0.44132948234E+03 -0.63657186634E+03  0.12813433328E+04  0.10127672776E+04 0.  0.
    9000010    2    1    2  501    0  0.12707369821E+03 -0.44132948234E+03 -0.66889710838E+03  0.12818829297E+04  0.99241174273E+03 0.  0.
        -13    1    4    4    0    0  0.73304885270E+02  0.31811507339E+03 -0.14201715506E+03  0.35600518201E+03  0.10566000000E+00 0.  1.
         13    1    3    3    0    0  0.39845907315E+03  0.21075418467E+03 -0.38404210374E+02  0.45239568285E+03  0.10566000000E+00 0. -1.
          4    1    4    4  501    0  0.53768812936E+02 -0.75944455573E+03 -0.52687995333E+03  0.92587774770E+03  0.00000000000E+00 0.  1.
         -4    1    3    3    0  503 -0.52553277135E+03  0.23057529767E+03 -0.59816765596E+03  0.82894764992E+03  0.00000000000E+00 0. -1.
</event>
<event>
 8    1  0.7008488E-006  0.1250996E+04  0.7818608E-02  0.8600471E-01
         21   -1    0    0  501  502  0.00000000000E+00  0.00000000000E+00  0.92497549185E+03  0.92497549185E+03  0.00000000000E+00 0.  1.
         21   -1    0    0  502  503 -0.00000000000E+00 -0.00000000000E+00 -0.19009317738E+04  0.19009317738E+04  0.00000000000E+00 0.  1.
   -9000010    2    1    2    0  503  0.64254892223E+03 -0.33887177933E+03 -0.11261184186E+04  0.15659308486E+04  0.81011945396E+03 0.  0.
    9000010    2    1    2  501    0 -0.64254892223E+03  0.33887177933E+03  0.15016213662E+03  0.12599764170E+04  0.10184737129E+04 0.  0.
        -13    1    4    4    0    0 -0.78809494445E+03  0.35226854243E+03 -0.19513192725E+03  0.88502160858E+03  0.10566000000E+00 0.  1.
         13    1    3    3    0    0  0.45068129747E+03  0.12159884492E+03 -0.90906616645E+03  0.10219105720E+04  0.10566000000E+00 0. -1.
          4    1    4    4  501    0  0.14554602222E+03 -0.13396763102E+02  0.34529406387E+03  0.37495480847E+03  0.00000000000E+00 0.  1.
         -4    1    3    3    0  503  0.19186762475E+03 -0.46047062425E+03 -0.21705225214E+03  0.54402027663E+03  0.00000000000E+00 0. -1.
</event>
<event>
 8    1  0.7008488E-006  0.1153030E+04  0.7818608E-02  0.8644458E-01
         21   -1    0    0  501  502  0.00000000000E+00  0.00000000000E+00  0.12725699580E+04  0.12725699580E+04  0.00000000000E+00 0.  1.
         21   -1    0    0  502  503 -0.00000000000E+00 -0.00000000000E+00 -0.10372884437E+04  0.10372884437E+04  0.00000000000E+00 0.  1.
   -9000010    2    1    2    0  503  0.14838313604E+03 -0.54025370172E+03  0.13151541261E+03  0.11605056389E+04  0.10077625796E+04 0.  0.
    9000010    2    1    2  501    0 -0.14838313604E+03  0.54025370172E+03  0.10376610169E+03  0.11493527629E+04  0.99817471035E+03 0.  0.
        -13    1    4    4    0    0 -0.10383105581E+03 -0.29249069145E+03  0.40800482900E+02  0.31304374024E+03  0.10566000000E+00 0.  1.
         13    1    3    3    0    0 -0.29930770795E+03  0.28496140166E+02  0.29199604697E+03  0.41911673392E+03  0.10566000000E+00 0. -1.
          4    1    4    4  501    0 -0.44552080236E+02  0.83274439316E+03  0.62965618789E+02  0.83630902264E+03  0.00000000000E+00 0.  1.
         -4    1    3    3    0  503  0.44769084399E+03 -0.56874984188E+03 -0.16048063436E+03  0.74138890499E+03  0.00000000000E+00 0. -1.
</event>
<event>
 8    1  0.7008488E-006  0.1478788E+04  0.7818608E-02  0.8421975E-01
         21   -1    0    0  503  502  0.00000000000E+00  0.00000000000E+00  0.15468473676E+04  0.15468473676E+04  0.00000000000E+00 0. -1.
         21   -1    0    0  501  503 -0.00000000000E+00 -0.00000000000E+00 -0.14337506316E+04  0.14337506316E+04  0.00000000000E+00 0.  1.
    9000010    2    1    2  501    0 -0.78166270679E+03 -0.76709417184E+03 -0.12421206067E+03  0.14828902890E+04  0.99202062355E+03 0.  0.
   -9000010    2    1    2    0  502  0.78166270679E+03  0.76709417184E+03  0.23730879671E+03  0.14977077102E+04  0.99367140679E+03 0.  0.
        -13    1    3    3    0    0 -0.79560037693E+03 -0.93381395170E+03  0.67262423259E+02  0.12286222776E+04  0.10566000000E+00 0.  1.
         13    1    4    4    0    0  0.89170273729E+03  0.41417183736E+03  0.43881522569E+03  0.10766758547E+04  0.10566000000E+00 0. -1.
          4    1    3    3  501    0  0.13937670148E+02  0.16671977986E+03 -0.19147448393E+03  0.25426801144E+03  0.00000000000E+00 0.  1.
         -4    1    4    4    0  502 -0.11004003051E+03  0.35292233448E+03 -0.20150642898E+03  0.42103185558E+03  0.00000000000E+00 0. -1.
</event>
<event>
 8    1  0.7008488E-006  0.1154381E+04  0.7818608E-02  0.8647252E-01
         21   -1    0    0  501  502  0.00000000000E+00  0.00000000000E+00  0.79032823442E+03  0.79032823442E+03  0.00000000000E+00 0. -1.
         21   -1    0    0  502  503 -0.00000000000E+00 -0.00000000000E+00 -0.16564266098E+04  0.16564266098E+04  0.00000000000E+00 0. -1.
   -9000010    2    1    2    0  503 -0.13916771300E+03 -0.55960569315E+03 -0.34126525340E+03  0.12037683849E+04  0.10000350829E+04 0.  0.
    9000010    2    1    2  501    0  0.13916771300E+03  0.55960569315E+03 -0.52483312203E+03  0.12429864594E+04  0.96800792772E+03 0.  0.
        -13    1    4    4    0    0  0.51776985459E+02 -0.21610262891E+03  0.99434669427E+02  0.24345115956E+03  0.10566000000E+00 0.  1.
         13    1    3    3    0    0 -0.83152759079E+02 -0.77526403972E+03 -0.50349938054E+03  0.92814888352E+03  0.10566000000E+00 0. -1.
          4    1    4    4  501    0  0.87390727543E+02  0.77570832206E+03 -0.62426779146E+03  0.99953529984E+03  0.00000000000E+00 0.  1.
         -4    1    3    3    0  503 -0.56014953924E+02  0.21565834657E+03  0.16223412714E+03  0.27561950134E+03  0.00000000000E+00 0. -1.
</event>
<event>
 8    1  0.7008488E-006  0.1559006E+04  0.7818608E-02  0.8377508E-01
         21   -1    0    0  501  502  0.00000000000E+00  0.00000000000E+00  0.76799602815E+03  0.76799602815E+03  0.00000000000E+00 0. -1.
         21   -1    0    0  502  503 -0.00000000000E+00 -0.00000000000E+00 -0.33912778433E+04  0.33912778433E+04  0.00000000000E+00 0. -1.
   -9000010    2    1    2    0  503 -0.92830311746E+03 -0.73808674611E+03 -0.75054901726E+03  0.17225490283E+04  0.99866541182E+03 0.  0.
    9000010    2    1    2  501    0  0.92830311746E+03  0.73808674611E+03 -0.18727327979E+04  0.24367248432E+04  0.10119195158E+04 0.  0.
        -13    1    4    4    0    0 -0.39708311433E+02  0.29542264256E+03 -0.10497547535E+04  0.10912544806E+04  0.10566000000E+00 0.  1.
         13    1    3    3    0    0 -0.63748879521E+03 -0.46847942484E+03 -0.98383649162E+03  0.12624575989E+04  0.10566000000E+00 0. -1.
          4    1    4    4  501    0  0.96801142889E+03  0.44266410355E+03 -0.82297804432E+03  0.13454703625E+04  0.00000000000E+00 0.  1.
         -4    1    3    3    0  503 -0.29081432225E+03 -0.26960732127E+03  0.23328747436E+03  0.46009142939E+03  0.00000000000E+00 0. -1.
</event>
<event>
 8    1  0.7008488E-006  0.1136237E+04  0.7818608E-02  0.8659875E-01
         21   -1    0    0  503  502  0.00000000000E+00  0.00000000000E+00  0.10837491164E+04  0.10837491164E+04  0.00000000000E+00 0. -1.
         21   -1    0    0  501  503 -0.00000000000E+00 -0.00000000000E+00 -0.11724254658E+04  0.11724254658E+04  0.00000000000E+00 0. -1.
    9000010    2    1    2  501    0  0.33792013835E+03  0.39643548506E+03 -0.32672358622E+02  0.11367066061E+04  0.10097936975E+04 0.  0.
   -9000010    2    1    2    0  502 -0.33792013835E+03 -0.39643548506E+03 -0.56003990767E+02  0.11194679761E+04  0.98930328450E+03 0.  0.
        -13    1    3    3    0    0 -0.26678542031E+03  0.36556013417E+03 -0.21958919409E+03  0.50301898325E+03  0.10566000000E+00 0.  1.
         13    1    4    4    0    0 -0.20706499263E+03  0.32472608472E+03 -0.20231809163E+02  0.38565824059E+03  0.10566000000E+00 0. -1.
          4    1    3    3  501    0  0.60470555866E+03  0.30875350894E+02  0.18691683546E+03  0.63368762285E+03  0.00000000000E+00 0.  1.
         -4    1    4    4    0  502 -0.13085514571E+03 -0.72116156978E+03 -0.35772181604E+02  0.73380973546E+03  0.00000000000E+00 0. -1.
</event>
<event>
 8    1  0.7008488E-006  0.1174730E+04  0.7818608E-02  0.8630474E-01
         21   -1    0    0  503  502  0.00000000000E+00  0.00000000000E+00  0.72246410847E+03  0.72246410847E+03  0.00000000000E+00 0.  1.
         21   -1    0    0  501  503 -0.00000000000E+00 -0.00000000000E+00 -0.19905384388E+04  0.19905384388E+04  0.00000000000E+00 0.  1.
    9000010    2    1    2  501    0 -0.26396749845E+03 -0.55065345876E+03 -0.95937325340E+03  0.14983889907E+04  0.97564053639E+03 0.  0.
   -9000010    2    1    2    0  502  0.26396749845E+03  0.55065345876E+03 -0.30870107693E+03  0.12146135566E+04  0.10035395682E+04 0.  0.
        -13    1    3    3    0    0  0.10903030048E+03 -0.47545335789E+03 -0.23772403054E+02  0.48837346392E+03  0.10566000000E+00 0.  1.
         13    1    4    4    0    0 -0.34404404587E+03  0.18412193898E+03 -0.31989533145E+03  0.50457925855E+03  0.10566000000E+00 0. -1.
          4    1    3    3  501    0 -0.37299779893E+03 -0.75200100866E+02 -0.93560085034E+03  0.10100155268E+04  0.00000000000E+00 0.  1.
         -4    1    4    4    0  502  0.60801154432E+03  0.36653151977E+03  0.11194254515E+02  0.71003429801E+03  0.00000000000E+00 0. -1.
</event>
<event>
 8    1  0.7008488E-006  0.1329687E+04  0.7818608E-02  0.8518252E-01
         21   -1    0    0  503  502  0.00000000000E+00  0.00000000000E+00  0.81625920225E+03  0.81625920225E+03  0.00000000000E+00 0. -1.
         21   -1    0    0  501  503 -0.00000000000E+00 -0.00000000000E+00 -0.26813420670E+04  0.26813420670E+04  0.00000000000E+00 0. -1.
    9000010    2    1    2  501    0 -0.18360441188E+03 -0.85144572201E+03 -0.17292204935E+04  0.21813459546E+04  0.10046871457E+04 0.  0.
   -9000010    2    1    2    0  502  0.18360441188E+03  0.85144572201E+03 -0.13586237124E+03  0.13162553147E+04  0.97744517590E+03 0.  0.
        -13    1    3    3    0    0 -0.52179891843E+03 -0.43112368863E+03 -0.50805912578E+03  0.84632489779E+03  0.10566000000E+00 0.  1.
         13    1    4    4    0    0  0.34987833999E+03 -0.73254768201E+02  0.42373918467E+02  0.35996760131E+03  0.10566000000E+00 0. -1.
          4    1    3    3  501    0  0.33819450655E+03 -0.42032203338E+03 -0.12211613677E+04  0.13350210568E+04  0.00000000000E+00 0.  1.
         -4    1    4    4    0  502 -0.16627392811E+03  0.92470049021E+03 -0.17823628970E+03  0.95628771336E+03  0.00000000000E+00 0. -1.
</event>
<event>
 8    1  0.7008488E-006  0.1181734E+04  0.7818608E-02  0.8634372E-01
         21   -1    0    0  503  502  0.00000000000E+00  0.00000000000E+00  0.17129384655E+04  0.17129384655E+04  0.00000000000E+00 0.  1.
         21   -1    0    0  501  503 -0.00000000000E+00 -0.00000000000E+00 -0.77605903058E+03  0.77605903058E+03  0.00000000000E+00 0.  1.
    9000010    2    1    2  501    0 -0.27787547535E+02  0.63323088506E+03  0.61346126437E+03  0.13314767275E+04  0.99736756086E+03 0.  0.
   -9000010    2    1    2    0  502  0.27787547535E+02 -0.63323088506E+03  0.32341817053E+03  0.11575207685E+04  0.91296304142E+03 0.  0.
        -13    1    3    3    0    0  0.46824398089E+03  0.20819870564E+03  0.16205806251E+03  0.53745879234E+03  0.10566000000E+00 0.  1.
         13    1    4    4    0    0 -0.41955108264E+03 -0.44451422902E+03  0.86660416159E+02  0.61735407153E+03  0.10566000000E+00 0. -1.
          4    1    3    3  501    0 -0.49603152843E+03  0.42503217942E+03  0.45140320186E+03  0.79401793518E+03  0.00000000000E+00 0.  1.
         -4    1    4    4    0  502  0.44733863017E+03 -0.18871665604E+03  0.23675775437E+03  0.54016669702E+03  0.00000000000E+00 0. -1.
</event>
<event>
 8    1  0.7008488E-006  0.1212079E+04  0.7818608E-02  0.8599961E-01
         21   -1    0    0  501  502  0.00000000000E+00  0.00000000000E+00  0.87537518832E+03  0.87537518832E+03  0.00000000000E+00 0. -1.
         21   -1    0    0  502  503 -0.00000000000E+00 -0.00000000000E+00 -0.16731800448E+04  0.16731800448E+04  0.00000000000E+00 0. -1.
   -9000010    2    1    2    0  503 -0.14218156880E+03 -0.66885769228E+03 -0.50861749012E+03  0.13024558078E+04  0.98494323136E+03 0.  0.
    9000010    2    1    2  501    0  0.14218156880E+03  0.66885769228E+03 -0.28918736637E+03  0.12460994253E+04  0.10007738175E+04 0.  0.
        -13    1    4    4    0    0 -0.25822572385E+03  0.22921370232E+03  0.26344082906E+03  0.43430464811E+03  0.10566000000E+00 0.  1.
         13    1    3    3    0    0  0.15191980458E+03 -0.18565571941E+03 -0.67210760733E+03  0.71363598576E+03  0.10566000000E+00 0. -1.
          4    1    4    4  501    0  0.40040729265E+03  0.43964398996E+03 -0.55262819543E+03  0.81179477721E+03  0.00000000000E+00 0.  1.
         -4    1    3    3    0  503 -0.29410137338E+03 -0.48320197287E+03  0.16349011721E+03  0.58881982205E+03  0.00000000000E+00 0. -1.
</event>
<event>
 8    1  0.7008488E-006  0.1213432E+04  0.7818608E-02  0.8598685E-01
         21   -1    0    0  501  502  0.00000000000E+00  0.00000000000E+00  0.29173429812E+04  0.29173429812E+04  0.00000000000E+00 0.  1.
         21   -1    0    0  502  503 -0.00000000000E+00 -0.00000000000E+00 -0.51437199210E+03  0.51437199210E+03  0.00000000000E+00 0.  1.
   -9000010    2    1    2    0  503 -0.57415935735E+03 -0.35941610388E+03  0.14950078357E+04  0.19254779422E+04  0.10067660968E+04 0.  0.
    9000010    2    1    2  501    0  0.57415935735E+03  0.35941610388E+03  0.90796315346E+03  0.15062370312E+04  0.99273057909E+03 0.  0.
        -13    1    4    4    0    0 -0.26539171977E+03  0.23221842447E+03  0.26115112532E+03  0.43881440611E+03  0.10566000000E+00 0.  1.
         13    1    3    3    0    0 -0.67494339450E+03 -0.61886561394E+03  0.12796891320E+04  0.15735779357E+04  0.10566000000E+00 0. -1.
          4    1    4    4  501    0  0.83955107713E+03  0.12719767941E+03  0.64681202813E+03  0.10674226251E+04  0.00000000000E+00 0.  1.
         -4    1    3    3    0  503  0.10078403715E+03  0.25944951005E+03  0.21531870368E+03  0.35190000649E+03  0.00000000000E+00 0. -1.
</event>
<event>
 8    1  0.7008488E-006  0.1072885E+04  0.7818608E-02  0.8710320E-01
         21   -1    0    0  503  502  0.00000000000E+00  0.00000000000E+00  0.14831235441E+04  0.14831235441E+04  0.00000000000E+00 0.  1.
         21   -1    0    0  501  503 -0.00000000000E+00 -0.00000000000E+00 -0.77339911409E+03  0.77339911409E+03  0.00000000000E+00 0.  1.
    9000010    2    1    2  501    0 -0.33679021639E+03 -0.10462471785E+01  0.40803226293E+03  0.11420273334E+04  0.10120807074E+04 0.  0.
   -9000010    2    1    2    0  502  0.33679021639E+03  0.10462471785E+01  0.30169216707E+03  0.11144953247E+04  0.10186525024E+04 0.  0.
        -13    1    3    3    0    0 -0.96637638191E+02  0.40190078354E+03  0.51553073266E+03  0.66078364115E+03  0.10566000000E+00 0.  1.
         13    1    4    4    0    0  0.10215113154E+01 -0.41046891208E+03 -0.12946507602E+03  0.43040328570E+03  0.10566000000E+00 0. -1.
          4    1    3    3  501    0 -0.24015257819E+03 -0.40294703072E+03 -0.10749846973E+03  0.48124369230E+03  0.00000000000E+00 0.  1.
         -4    1    4    4    0  502  0.33576870507E+03  0.41151515926E+03  0.43115724309E+03  0.68409203904E+03  0.00000000000E+00 0. -1.
</event>
<event>
 8    1  0.7008488E-006  0.1154503E+04  0.7818608E-02  0.8641693E-01
         21   -1    0    0  501  502  0.00000000000E+00  0.00000000000E+00  0.21249650751E+04  0.21249650751E+04  0.00000000000E+00 0.  1.
         21   -1    0    0  502  503 -0.00000000000E+00 -0.00000000000E+00 -0.68460412252E+03  0.68460412252E+03  0.00000000000E+00 0.  1.
   -9000010    2    1    2    0  503  0.24704042595E+03 -0.51571604698E+03  0.11272941795E+04  0.16133720507E+04  0.10025892447E+04 0.  0.
    9000010    2    1    2  501    0 -0.24704042595E+03  0.51571604698E+03  0.31306677311E+03  0.11961971470E+04  0.10029380822E+04 0.  0.
        -13    1    4    4    0    0 -0.61605967548E+03  0.48429962002E+03  0.19580038223E+03  0.80772114405E+03  0.10566000000E+00 0.  1.
         13    1    3    3    0    0  0.15713654127E+03  0.28424000834E+03  0.18399359518E+03  0.37327996085E+03  0.10566000000E+00 0. -1.
          4    1    4    4  501    0  0.36901924952E+03  0.31416426961E+02  0.11726639088E+03  0.38847600290E+03  0.00000000000E+00 0.  1.
         -4    1    3    3    0  503  0.89903884677E+02 -0.79995605531E+03  0.94330058433E+03  0.12400920899E+04  0.00000000000E+00 0. -1.
</event>
<event>
 8    1  0.7008488E-006  0.1169027E+04  0.7818608E-02  0.8641985E-01
         21   -1    0    0  503  502  0.00000000000E+00  0.00000000000E+00  0.88323274252E+03  0.88323274252E+03  0.00000000000E+00 0. -1.
         21   -1    0    0  501  503 -0.00000000000E+00 -0.00000000000E+00 -0.14894082106E+04  0.14894082106E+04  0.00000000000E+00 0. -1.
    9000010    2    1    2  501    0  0.51263297353E+03 -0.23131345471E+03 -0.16186023117E+03  0.11220247703E+04  0.95730996587E+03 0.  0.
   -9000010    2    1    2    0  502 -0.51263297353E+03  0.23131345471E+03 -0.44431523691E+03  0.12506161829E+04  0.10248542956E+04 0.  0.
        -13    1    3    3    0    0  0.31813059632E+03 -0.24286654652E+03  0.37649745419E+03  0.54949211088E+03  0.10566000000E+00 0.  1.
         13    1    4    4    0    0 -0.39564773333E+03  0.56898030126E+03 -0.54240052561E+03  0.88004207482E+03  0.10566000000E+00 0. -1.
          4    1    3    3  501    0  0.19450237720E+03  0.11553091815E+02 -0.53835768536E+03  0.57253265938E+03  0.00000000000E+00 0.  1.
         -4    1    4    4    0  502 -0.11698524020E+03 -0.33766684655E+03  0.98085288708E+02  0.37057410803E+03  0.00000000000E+00 0. -1.
</event>
<event>
 8    1  0.7008488E-006  0.1321501E+04  0.7818608E-02  0.8531048E-01
         21   -1    0    0  501  502  0.00000000000E+00  0.00000000000E+00  0.15602046864E+04  0.15602046864E+04  0.00000000000E+00 0.  1.
         21   -1    0    0  502  503 -0.00000000000E+00 -0.00000000000E+00 -0.11893877999E+04  0.11893877999E+04  0.00000000000E+00 0. -1.
   -9000010    2    1    2    0  503 -0.79010167114E+03  0.17316170905E+03 -0.25161736574E+03  0.13452424189E+04  0.10450455677E+04 0.  0.
    9000010    2    1    2  501    0  0.79010167114E+03 -0.17316170905E+03  0.62243425229E+03  0.14043500674E+04  0.96463935501E+03 0.  0.
        -13    1    4    4    0    0  0.92990975617E+03 -0.32392308216E+03  0.67286457149E+03  0.11926462428E+04  0.10566000000E+00 0.  1.
         13    1    3    3    0    0 -0.11046789970E+03 -0.21201912824E+03 -0.47582601232E+03  0.53250884759E+03  0.10566000000E+00 0. -1.
          4    1    4    4  501    0 -0.13980808503E+03  0.15076137310E+03 -0.50430319198E+02  0.21170382461E+03  0.00000000000E+00 0.  1.
         -4    1    3    3    0  503 -0.67963377144E+03  0.38518083729E+03  0.22420864658E+03  0.81273357129E+03  0.00000000000E+00 0. -1.
</event>
<event>
 8    1  0.7008488E-006  0.1036442E+04  0.7818608E-02  0.8744372E-01
         21   -1    0    0  501  502  0.00000000000E+00  0.00000000000E+00  0.53873396458E+03  0.53873396458E+03  0.00000000000E+00 0. -1.
         21   -1    0    0  502  503 -0.00000000000E+00 -0.00000000000E+00 -0.19925192334E+04  0.19925192334E+04  0.00000000000E+00 0. -1.
   -9000010    2    1    2    0  503 -0.24329837789E+03  0.84951471367E+02 -0.86742031214E+03  0.13404402756E+04  0.98891419311E+03 0.  0.
    9000010    2    1    2  501    0  0.24329837789E+03 -0.84951471367E+02 -0.58636495673E+03  0.11908129224E+04  0.10038927735E+04 0.  0.
        -13    1    4    4    0    0  0.44028530072E+03  0.10325859572E+03  0.90478446359E+02  0.46119393322E+03  0.10566000000E+00 0.  1.
         13    1    3    3    0    0 -0.27683259692E+03 -0.39862097872E+03 -0.64479218630E+03  0.80702660803E+03  0.10566000000E+00 0. -1.
          4    1    4    4  501    0 -0.19698692283E+03 -0.18821006708E+03 -0.67684340309E+03  0.72961898921E+03  0.00000000000E+00 0.  1.
         -4    1    3    3    0  503  0.33534219030E+02  0.48357245008E+03 -0.22262812583E+03  0.53341366756E+03  0.00000000000E+00 0. -1.
</event>
<event>
 8    1  0.7008488E-006  0.1202484E+04  0.7818608E-02  0.8615745E-01
         21   -1    0    0  503  502  0.00000000000E+00  0.00000000000E+00  0.10408140239E+04  0.10408140239E+04  0.00000000000E+00 0. -1.
         21   -1    0    0  501  503 -0.00000000000E+00 -0.00000000000E+00 -0.13669353284E+04  0.13669353284E+04  0.00000000000E+00 0. -1.
    9000010    2    1    2  501    0  0.50620534746E+03  0.41135908848E+02 -0.37302925478E+03  0.12043505212E+04  0.10263397762E+04 0.  0.
   -9000010    2    1    2    0  502 -0.50620534746E+03 -0.41135908848E+02  0.46907950355E+02  0.12033988311E+04  0.10899689785E+04 0.  0.
        -13    1    3    3    0    0  0.85088367902E+02 -0.46955432129E+03 -0.21733214918E+03  0.52436110193E+03  0.10566000000E+00 0.  1.
         13    1    4    4    0    0 -0.50672160203E+03  0.43601170337E+03 -0.15348317660E+03  0.68587905939E+03  0.10566000000E+00 0. -1.
          4    1    3    3  501    0  0.42111697956E+03  0.51069023013E+03 -0.15569710560E+03  0.67998941927E+03  0.00000000000E+00 0.  1.
         -4    1    4    4    0  502  0.51625457611E+00 -0.47714761222E+03  0.20039112696E+03  0.51751977173E+03  0.00000000000E+00 0. -1.
</event>
<event>
 8    1  0.7008488E-006  0.1087089E+04  0.7818608E-02  0.8702591E-01
         21   -1    0    0  501  502  0.00000000000E+00  0.00000000000E+00  0.15816250651E+04  0.15816250651E+04  0.00000000000E+00 0. -1.
         21   -1    0    0  502  503 -0.00000000000E+00 -0.00000000000E+00 -0.78541503764E+03  0.78541503764E+03  0.00000000000E+00 0. -1.
   -9000010    2    1    2    0  503 -0.40427414118E+03 -0.84991745398E+02  0.85079924615E+02  0.10904136432E+04  0.10055357486E+04 0.  0.
    9000010    2    1    2  501    0  0.40427414118E+03  0.84991745398E+02  0.71113010288E+03  0.12766264596E+04  0.97642609352E+03 0.  0.
        -13    1    4    4    0    0  0.37251018750E+03  0.34503459051E+03  0.84240915090E+03  0.98359844303E+03  0.10566000000E+00 0.  1.
         13    1    3    3    0    0 -0.48411288916E+03 -0.48051359383E+03  0.81021862451E+02  0.68689384672E+03  0.10566000000E+00 0. -1.
          4    1    4    4  501    0  0.31763953682E+02 -0.26004284511E+03 -0.13127904802E+03  0.29302801657E+03  0.00000000000E+00 0.  1.
         -4    1    3    3    0  503  0.79838747975E+02  0.39552184844E+03  0.40580621639E+01  0.40351979646E+03  0.00000000000E+00 0. -1.
</event>
<event>
 8    1  0.7008488E-006  0.1511451E+04  0.7818608E-02  0.8403123E-01
         21   -1    0    0  503  502  0.00000000000E+00  0.00000000000E+00  0.17301145208E+04  0.17301145208E+04  0.00000000000E+00 0. -1.
         21   -1    0    0  501  503 -0.00000000000E+00 -0.00000000000E+00 -0.13397585492E+04  0.13397585492E+04  0.00000000000E+00 0.  1.
    9000010    2    1    2  501    0  0.11314191505E+04 -0.62614582070E+02  0.38493938919E+03  0.15596991276E+04  0.10002265520E+04 0.  0.
   -9000010    2    1    2    0  502 -0.11314191505E+04  0.62614582070E+02  0.54165823954E+01  0.15101739424E+04  0.99828158198E+03 0.  0.
        -13    1    3    3    0    0  0.25977919109E+02  0.22062250224E+03 -0.18041610172E+03  0.28618022590E+03  0.10566000000E+00 0.  1.
         13    1    4    4    0    0 -0.19957442488E+03 -0.61953636825E+02 -0.42697740961E+03  0.47537135343E+03  0.10566000000E+00 0. -1.
          4    1    3    3  501    0  0.11054412314E+04 -0.28323708431E+03  0.56535549090E+03  0.12735189017E+04  0.00000000000E+00 0.  1.
         -4    1    4    4    0  502 -0.93184472561E+03  0.12456821889E+03  0.43239399200E+03  0.10348025890E+04  0.00000000000E+00 0. -1.
</event>
<event>
 8    1  0.7008488E-006  0.1103341E+04  0.7818608E-02  0.8693099E-01
         21   -1    0    0  503  502  0.00000000000E+00  0.00000000000E+00  0.10293168881E+04  0.10293168881E+04  0.00000000000E+00 0. -1.
         21   -1    0    0  501  503 -0.00000000000E+00 -0.00000000000E+00 -0.11824845109E+04  0.11824845109E+04  0.00000000000E+00 0. -1.
    9000010    2    1    2  501    0  0.36304457517E+03  0.12004978742E+03 -0.30085350141E+03  0.10986198045E+04  0.98500727430E+03 0.  0.
   -9000010    2    1    2    0  502 -0.36304457517E+03 -0.12004978742E+03  0.14768587855E+03  0.11131815945E+04  0.10349632016E+04 0.  0.
        -13    1    3    3    0    0  0.63667122444E+03 -0.84810325831E+02 -0.38199434848E+03  0.74730364165E+03  0.10566000000E+00 0.  1.
         13    1    4    4    0    0 -0.31378393976E+03 -0.55349739189E+03 -0.41674735724E+02  0.63761784671E+03  0.10566000000E+00 0. -1.
          4    1    3    3  501    0 -0.27362664927E+03  0.20486011325E+03  0.81140847065E+02  0.35131616281E+03  0.00000000000E+00 0.  1.
         -4    1    4    4    0  502 -0.49260635413E+02  0.43344760447E+03  0.18936061428E+03  0.47556374784E+03  0.00000000000E+00 0. -1.
</event>
<event>
 8    1  0.7008488E-006  0.1118417E+04  0.7818608E-02  0.8679624E-01
         21   -1    0    0  501  502  0.00000000000E+00  0.00000000000E+00  0.48584453906E+03  0.48584453906E+03  0.00000000000E+00 0. -1.
         21   -1    0    0  502  503 -0.00000000000E+00 -0.00000000000E+00 -0.30858969281E+04  0.30858969281E+04  0.00000000000E+00 0. -1.
   -9000010    2    1    2    0  503 -0.16312569754E+03  0.39865841682E+03 -0.20728211867E+04  0.23352832567E+04  0.98560726993E+03 0.  0.
    9000010    2    1    2  501    0  0.16312569754E+03 -0.39865841682E+03 -0.52723120236E+03  0.12364582105E+04  0.10321422571E+04 0.  0.
        -13    1    4    4    0    0  0.35090786716E+03  0.68746974710E+02 -0.62808944224E+03  0.72274396323E+03  0.10566000000E+00 0.  1.
         13    1    3    3    0    0  0.15320441069E+03  0.12434354383E+03  0.22448889735E+02  0.19858719032E+03  0.10566000000E+00 0. -1.
          4    1    4    4  501    0 -0.18778216961E+03 -0.46740539153E+03  0.10085823989E+03  0.51371424723E+03  0.00000000000E+00 0.  1.
         -4    1    3    3    0  503 -0.31633010823E+03  0.27431487299E+03 -0.20952700764E+04  0.21366960664E+04  0.00000000000E+00 0. -1.
</event>
<event>
 8    1  0.7008488E-006  0.1119440E+04  0.7818608E-02  0.8672963E-01
         21   -1    0    0  503  502  0.00000000000E+00  0.00000000000E+00  0.63195438258E+03  0.63195438258E+03  0.00000000000E+00 0. -1.
         21   -1    0    0  501  503 -0.00000000000E+00 -0.00000000000E+00 -0.19776147563E+04  0.19776147563E+04  0.00000000000E+00 0. -1.
    9000010    2    1    2  501    0 -0.34657808120E+03 -0.31006223692E+03 -0.81335200799E+03  0.13837224736E+04  0.10182786642E+04 0.  0.
   -9000010    2    1    2    0  502  0.34657808120E+03  0.31006223692E+03 -0.53230836572E+03  0.12258466653E+04  0.10015452528E+04 0.  0.
        -13    1    3    3    0    0 -0.49367375942E+03 -0.59924737501E+03 -0.68300105300E+03  0.10340704264E+04  0.10566000000E+00 0.  1.
         13    1    4    4    0    0  0.37480796547E+02  0.61430736448E+03 -0.49632693299E+03  0.79064453691E+03  0.10566000000E+00 0. -1.
          4    1    3    3  501    0  0.14709567822E+03  0.28918513809E+03 -0.13035095499E+03  0.34965204720E+03  0.00000000000E+00 0.  1.
         -4    1    4    4    0  502  0.30909728466E+03 -0.30424512756E+03 -0.35981432732E+02  0.43520212836E+03  0.00000000000E+00 0. -1.
</event>
<event>
 8    1  0.7008488E-006  0.1089042E+04  0.7818608E-02  0.8704618E-01
         21   -1    0    0  503  502  0.00000000000E+00  0.00000000000E+00  0.84481014400E+03  0.84481014400E+03  0.00000000000E+00 0. -1.
         21   -1    0    0  501  503 -0.00000000000E+00 -0.00000000000E+00 -0.13623958096E+04  0.13623958096E+04  0.00000000000E+00 0. -1.
    9000010    2    1    2  501    0 -0.32369251742E+03 -0.10463275789E+03 -0.37713029944E+03  0.11524931318E+04  0.10345473871E+04 0.  0.
   -9000010    2    1    2    0  502  0.32369251742E+03  0.10463275789E+03 -0.14045536621E+03  0.10547128219E+04  0.98841619112E+03 0.  0.
        -13    1    3    3    0    0 -0.12099157789E+03 -0.21975010112E+03 -0.70608161881E+03  0.74931991329E+03  0.10566000000E+00 0.  1.
         13    1    4    4    0    0  0.66460716782E+03 -0.41153452497E+02 -0.24901376220E+02  0.66634554389E+03  0.10566000000E+00 0. -1.
          4    1    3    3  501    0 -0.20270093952E+03  0.11511734322E+03  0.32895131937E+03  0.40317321849E+03  0.00000000000E+00 0.  1.
         -4    1    4    4    0  502 -0.34091465040E+03  0.14578621039E+03 -0.11555398999E+03  0.38836727797E+03  0.00000000000E+00 0. -1.
</event>
<event>
 8    1  0.7008488E-006  0.1157728E+04  0.7818608E-02  0.8646554E-01
         21   -1    0    0  501  502  0.00000000000E+00  0.00000000000E+00  0.10708983054E+04  0.10708983054E+04  0.00000000000E+00 0. -1.
         21   -1    0    0  502  503 -0.00000000000E+00 -0.00000000000E+00 -0.12232849076E+04  0.12232849076E+04  0.00000000000E+00 0. -1.
   -9000010    2    1    2    0  503  0.40127942098E+03 -0.31097905598E+03  0.34669427552E+02  0.11582471629E+04  0.10404813185E+04 0.  0.
    9000010    2    1    2  501    0 -0.40127942098E+03  0.31097905598E+03 -0.18705602979E+03  0.11359360501E+04  0.99881309801E+03 0.  0.
        -13    1    4    4    0    0  0.57104157139E+02 -0.22604589797E+03  0.22032830065E+03  0.32078373397E+03  0.10566000000E+00 0.  1.
         13    1    3    3    0    0  0.29345537528E+03 -0.13762752832E+02 -0.47498104339E+03  0.55849124737E+03  0.10566000000E+00 0. -1.
          4    1    4    4  501    0 -0.45838357812E+03  0.53702495395E+03 -0.40738433045E+03  0.81515231616E+03  0.00000000000E+00 0.  1.
         -4    1    3    3    0  503  0.10782404570E+03 -0.29721630315E+03  0.50965047094E+03  0.59975591553E+03  0.00000000000E+00 0. -1.
</event>
<event>
 8    1  0.7008488E-006  0.1062263E+04  0.7818608E-02  0.8720205E-01
         21   -1    0    0  501  502  0.00000000000E+00  0.00000000000E+00  0.12806338370E+04  0.12806338370E+04  0.00000000000E+00 0.  1.
         21   -1    0    0  502  503 -0.00000000000E+00 -0.00000000000E+00 -0.88420776583E+03  0.88420776583E+03  0.00000000000E+00 0.  1.
   -9000010    2    1    2    0  503  0.20190569331E+03 -0.32230801727E+03  0.78428142758E+02  0.10560022683E+04  0.98200888491E+03 0.  0.
    9000010    2    1    2  501    0 -0.20190569331E+03  0.32230801727E+03  0.31799792843E+03  0.11088393346E+04  0.99184354634E+03 0.  0.
        -13    1    4    4    0    0 -0.21279003219E+03  0.10953043147E+03 -0.34080457078E+03  0.41644240880E+03  0.10566000000E+00 0.  1.
         13    1    3    3    0    0  0.90193545560E+01 -0.60031358977E+03  0.27965919553E+03  0.66231943322E+03  0.10566000000E+00 0. -1.
          4    1    4    4  501    0  0.10884338880E+02  0.21277758580E+03  0.65880249921E+03  0.69239692577E+03  0.00000000000E+00 0.  1.
         -4    1    3    3    0  503  0.19288633876E+03  0.27800557250E+03 -0.20123105277E+03  0.39368283506E+03  0.00000000000E+00 0. -1.
</event>
<event>
 8    1  0.7008488E-006  0.1038793E+04  0.7818608E-02  0.8743090E-01
         21   -1    0    0  501  502  0.00000000000E+00  0.00000000000E+00  0.73896181499E+03  0.73896181499E+03  0.00000000000E+00 0.  1.
         21   -1    0    0  502  503 -0.00000000000E+00 -0.00000000000E+00 -0.14353611770E+04  0.14353611770E+04  0.00000000000E+00 0.  1.
   -9000010    2    1    2    0  503  0.11716658978E+02  0.19868642496E+03 -0.32417720030E+03  0.10708560039E+04  0.10010135605E+04 0.  0.
    9000010    2    1    2  501    0 -0.11716658978E+02 -0.19868642496E+03 -0.37222216170E+03  0.11034669881E+04  0.10195471939E+04 0.  0.
        -13    1    4    4    0    0  0.68136126246E+02 -0.58093087523E+03 -0.40523966239E+03  0.71157740874E+03  0.10566000000E+00 0.  1.
         13    1    3    3    0    0 -0.12654086859E+03  0.93063874789E+02 -0.66762386463E+03  0.68585356455E+03  0.10566000000E+00 0. -1.
          4    1    4    4  501    0 -0.79852785223E+02  0.38224445027E+03  0.33017500684E+02  0.39188957937E+03  0.00000000000E+00 0.  1.
         -4    1    3    3    0  503  0.13825752757E+03  0.10562255017E+03  0.34344666433E+03  0.38500243931E+03  0.00000000000E+00 0. -1.
</event>
<event>
 8    1  0.7008488E-006  0.1090086E+04  0.7818608E-02  0.8694977E-01
         21   -1    0    0  503  502  0.00000000000E+00  0.00000000000E+00  0.26080973264E+04  0.26080973264E+04  0.00000000000E+00 0. -1.
         21   -1    0    0  501  503 -0.00000000000E+00 -0.00000000000E+00 -0.45630855942E+03  0.45630855942E+03  0.00000000000E+00 0. -1.
    9000010    2    1    2  501    0  0.44061113400E+03  0.84970696927E+02  0.97067394400E+03  0.14571351812E+04  0.98978625981E+03 0.  0.
   -9000010    2    1    2    0  502 -0.44061113400E+03 -0.84970696927E+02  0.11811148230E+04  0.16072707046E+04  0.99344285291E+03 0.  0.
        -13    1    3    3    0    0  0.22638297917E+03 -0.74769278318E+02  0.11240262824E+04  0.11490321113E+04  0.10566000000E+00 0.  1.
         13    1    4    4    0    0 -0.55204187537E+02  0.55617343436E+02 -0.17431344498E+03  0.19111771105E+03  0.10566000000E+00 0. -1.
          4    1    3    3  501    0  0.21422815483E+03  0.15973997525E+03 -0.15335233837E+03  0.30810306992E+03  0.00000000000E+00 0.  1.
         -4    1    4    4    0  502 -0.38540694646E+03 -0.14058804036E+03  0.13554282680E+04  0.14161529936E+04  0.00000000000E+00 0. -1.
</event>
<event>
 8    1  0.7008488E-006  0.1174587E+04  0.7818608E-02  0.8628752E-01
         21   -1    0    0  503  502  0.00000000000E+00  0.00000000000E+00  0.20375210429E+04  0.20375210429E+04  0.00000000000E+00 0. -1.
         21   -1    0    0  501  503 -0.00000000000E+00 -0.00000000000E+00 -0.77085403703E+03  0.77085403703E+03  0.00000000000E+00 0. -1.
    9000010    2    1    2  501    0 -0.60689162162E+03  0.57876785800E+02  0.11912695876E+03  0.11662720523E+04  0.98708262322E+03 0.  0.
   -9000010    2    1    2    0  502  0.60689162162E+03 -0.57876785800E+02  0.11475400471E+04  0.16421030276E+04  0.10039855730E+04 0.  0.
        -13    1    3    3    0    0 -0.17313617018E+03 -0.44646119639E+03 -0.45449093823E+02  0.48100869493E+03  0.10566000000E+00 0.  1.
         13    1    4    4    0    0 -0.25096345737E+03  0.12714381232E+03  0.17122120876E+03  0.32934012729E+03  0.10566000000E+00 0. -1.
          4    1    3    3  501    0 -0.43375545144E+03  0.50433798219E+03  0.16457605258E+03  0.68526335741E+03  0.00000000000E+00 0.  1.
         -4    1    4    4    0  502  0.85785507899E+03 -0.18502059812E+03  0.97631883839E+03  0.13127629003E+04  0.00000000000E+00 0. -1.
</event>
<event>
 8    1  0.7008488E-006  0.1183629E+04  0.7818608E-02  0.8619637E-01
         21   -1    0    0  503  502  0.00000000000E+00  0.00000000000E+00  0.87004601868E+03  0.87004601868E+03  0.00000000000E+00 0.  1.
         21   -1    0    0  501  503 -0.00000000000E+00 -0.00000000000E+00 -0.17003003228E+04  0.17003003228E+04  0.00000000000E+00 0.  1.
    9000010    2    1    2  501    0  0.62372054791E+03 -0.71072922035E+02 -0.71776640122E+03  0.13813845604E+04  0.99947787105E+03 0.  0.
   -9000010    2    1    2    0  502 -0.62372054791E+03  0.71072922035E+02 -0.11248790293E+03  0.11889617812E+04  0.10034430261E+04 0.  0.
        -13    1    3    3    0    0 -0.18412884563E+03 -0.28526944595E+03 -0.15116226648E+03  0.37166131163E+03  0.10566000000E+00 0.  1.
         13    1    4    4    0    0 -0.82239281547E+03  0.26910642982E+03  0.46453699170E+02  0.86654842383E+03  0.10566000000E+00 0. -1.
          4    1    3    3  501    0  0.80784939354E+03  0.21419652392E+03 -0.56660413474E+03  0.10097232487E+04  0.00000000000E+00 0.  1.
         -4    1    4    4    0  502  0.19867226756E+03 -0.19803350779E+03 -0.15894160210E+03  0.32241335733E+03  0.00000000000E+00 0. -1.
</event>
<event>
 8    1  0.7008488E-006  0.1133247E+04  0.7818608E-02  0.8676687E-01
         21   -1    0    0  503  502  0.00000000000E+00  0.00000000000E+00  0.72617870223E+03  0.72617870223E+03  0.00000000000E+00 0.  1.
         21   -1    0    0  501  503 -0.00000000000E+00 -0.00000000000E+00 -0.17302236030E+04  0.17302236030E+04  0.00000000000E+00 0.  1.
    9000010    2    1    2  501    0  0.73407248424E+01  0.46806154355E+03 -0.19816082643E+03  0.10658272996E+04  0.93679486801E+03 0.  0.
   -9000010    2    1    2    0  502 -0.73407248424E+01 -0.46806154355E+03 -0.80588407434E+03  0.13905750056E+04  0.10320437055E+04 0.  0.
        -13    1    3    3    0    0 -0.27417631500E+03  0.46163899044E+03  0.20443780655E+03  0.57452418323E+03  0.10566000000E+00 0.  1.
         13    1    4    4    0    0 -0.25795714131E+03 -0.43958158371E+03  0.36746913726E+02  0.51100313338E+03  0.10566000000E+00 0. -1.
          4    1    3    3  501    0  0.28151703985E+03  0.64225531140E+01 -0.40259863298E+03  0.49130311641E+03  0.00000000000E+00 0.  1.
         -4    1    4    4    0  502  0.25061641647E+03 -0.28479959842E+02 -0.84263098807E+03  0.87957187220E+03  0.00000000000E+00 0. -1.
</event>
<event>
 8    1  0.7008488E-006  0.1103804E+04  0.7818608E-02  0.8683416E-01
         21   -1    0    0  503  502  0.00000000000E+00  0.00000000000E+00  0.10578231925E+04  0.10578231925E+04  0.00000000000E+00 0. -1.
         21   -1    0    0  501  503 -0.00000000000E+00 -0.00000000000E+00 -0.11817573251E+04  0.11817573251E+04  0.00000000000E+00 0. -1.
    9000010    2    1    2  501    0 -0.29655054013E+03  0.35340038944E+03 -0.24986498787E+03  0.11286165956E+04  0.99925414665E+03 0.  0.
   -9000010    2    1    2    0  502  0.29655054013E+03 -0.35340038944E+03  0.12593085529E+03  0.11109639219E+04  0.10027702615E+04 0.  0.
        -13    1    3    3    0    0 -0.12130391816E+03 -0.10206992080E+01 -0.59289084775E+03  0.60517373613E+03  0.10566000000E+00 0.  1.
         13    1    4    4    0    0  0.16928228055E+03 -0.45364996532E+03  0.50444978770E+03  0.69923127863E+03  0.10566000000E+00 0. -1.
          4    1    3    3  501    0 -0.17524662197E+03  0.35442108865E+03  0.34302585988E+03  0.52344285947E+03  0.00000000000E+00 0.  1.
         -4    1    4    4    0  502  0.12726825958E+03  0.10024957588E+03 -0.37851893241E+03  0.41173264329E+03  0.00000000000E+00 0. -1.
</event>
<event>
 8    1  0.7008488E-006  0.1055329E+04  0.7818608E-02  0.8724553E-01
         21   -1    0    0  503  502  0.00000000000E+00  0.00000000000E+00  0.11810254591E+04  0.11810254591E+04  0.00000000000E+00 0.  1.
         21   -1    0    0  501  503 -0.00000000000E+00 -0.00000000000E+00 -0.95703855235E+03  0.95703855235E+03  0.00000000000E+00 0.  1.
    9000010    2    1    2  501    0 -0.21887039179E+03 -0.23651797598E+03 -0.22505450448E+02  0.10555692796E+04  0.10049253740E+04 0.  0.
   -9000010    2    1    2    0  502  0.21887039179E+03  0.23651797598E+03  0.24649235718E+03  0.10824947318E+04  0.10035892391E+04 0.  0.
        -13    1    3    3    0    0 -0.18715267452E+01 -0.22438994515E+03 -0.49059795472E+03  0.53948189445E+03  0.10566000000E+00 0.  1.
         13    1    4    4    0    0  0.60605435249E+03  0.24985614573E+03  0.23005007542E+03  0.69473233702E+03  0.10566000000E+00 0. -1.
          4    1    3    3  501    0 -0.21699886505E+03 -0.12128030829E+02  0.46809250427E+03  0.51608738516E+03  0.00000000000E+00 0.  1.
         -4    1    4    4    0  502 -0.38718396070E+03 -0.13338169749E+02  0.16442281763E+02  0.38776239480E+03  0.00000000000E+00 0. -1.
</event>
<event>
 8    1  0.7008488E-006  0.1166447E+04  0.7818608E-02  0.8633285E-01
         21   -1    0    0  503  502  0.00000000000E+00  0.00000000000E+00  0.13761975155E+04  0.13761975155E+04  0.00000000000E+00 0.  1.
         21   -1    0    0  501  503 -0.00000000000E+00 -0.00000000000E+00 -0.10243280343E+04  0.10243280343E+04  0.00000000000E+00 0.  1.
    9000010    2    1    2  501    0 -0.59135618913E+03 -0.74205375732E+02  0.41373019966E+03  0.12376474777E+04  0.10026913886E+04 0.  0.
   -9000010    2    1    2    0  502  0.59135618913E+03  0.74205375732E+02 -0.61860718506E+02  0.11628780721E+04  0.99661932644E+03 0.  0.
        -13    1    3    3    0    0 -0.39869197205E+03  0.14946984458E+03  0.70457002485E+03  0.82323475029E+03  0.10566000000E+00 0.  1.
         13    1    4    4    0    0  0.85287696274E+03 -0.53540039159E+02 -0.12884962648E+03  0.86421518546E+03  0.10566000000E+00 0. -1.
          4    1    3    3  501    0 -0.19266421708E+03 -0.22367522031E+03 -0.29083982519E+03  0.41441272741E+03  0.00000000000E+00 0.  1.
         -4    1    4    4    0  502 -0.26152077361E+03  0.12774541489E+03  0.66988907974E+02  0.29866288663E+03  0.00000000000E+00 0. -1.
</event>
<event>
 8    1  0.7008488E-006  0.1073940E+04  0.7818608E-02  0.8712750E-01
         21   -1    0    0  503  502  0.00000000000E+00  0.00000000000E+00  0.26770695665E+04  0.26770695665E+04  0.00000000000E+00 0.  1.
         21   -1    0    0  501  503 -0.00000000000E+00 -0.00000000000E+00 -0.44313096724E+03  0.44313096724E+03  0.00000000000E+00 0.  1.
    9000010    2    1    2  501    0 -0.12132605697E+03  0.31655556691E+03  0.78893933779E+03  0.13325814329E+04  0.10190292232E+04 0.  0.
   -9000010    2    1    2    0  502  0.12132605697E+03 -0.31655556691E+03  0.14449992614E+04  0.17876191008E+04  0.99630906092E+03 0.  0.
        -13    1    3    3    0    0  0.37137158456E+03 -0.13800125406E+03  0.21894136066E+03  0.45265497955E+03  0.10566000000E+00 0.  1.
         13    1    4    4    0    0  0.36342291701E+03  0.24652818532E+03  0.62544970909E+03  0.76422490965E+03  0.10566000000E+00 0. -1.
          4    1    3    3  501    0 -0.49269764152E+03  0.45455682097E+03  0.56999797712E+03  0.87992645339E+03  0.00000000000E+00 0.  1.
         -4    1    4    4    0  502 -0.24209686004E+03 -0.56308375224E+03  0.81954955236E+03  0.10233941911E+04  0.00000000000E+00 0. -1.
</event>
<event>
 8    1  0.7008488E-006  0.1161928E+04  0.7818608E-02  0.8636947E-01
         21   -1    0    0  503  502  0.00000000000E+00  0.00000000000E+00  0.88800964270E+03  0.88800964270E+03  0.00000000000E+00 0.  1.
         21   -1    0    0  501  503 -0.00000000000E+00 -0.00000000000E+00 -0.15183756373E+04  0.15183756373E+04  0.00000000000E+00 0.  1.
    9000010    2    1    2  501    0 -0.26601257510E+03 -0.52399237746E+03 -0.24069902371E+03  0.11808583323E+04  0.99557002730E+03 0.  0.
   -9000010    2    1    2    0  502  0.26601257510E+03  0.52399237746E+03 -0.38966697090E+03  0.12255269477E+04  0.10023698168E+04 0.  0.
        -13    1    3    3    0    0  0.88021316101E+02 -0.28953703378E+03  0.34404565739E+03  0.45819959794E+03  0.10566000000E+00 0.  1.
         13    1    4    4    0    0  0.64925680739E+03  0.28153492319E+03 -0.21582284108E+03  0.73984851478E+03  0.10566000000E+00 0. -1.
          4    1    3    3  501    0 -0.35403389120E+03 -0.23445534368E+03 -0.58474468110E+03  0.72265873438E+03  0.00000000000E+00 0.  1.
         -4    1    4    4    0  502 -0.38324423229E+03  0.24245745427E+03 -0.17384412982E+03  0.48567843291E+03  0.00000000000E+00 0. -1.
</event>
<event>
 8    1  0.7008488E-006  0.1087694E+04  0.7818608E-02  0.8697040E-01
         21   -1    0    0  503  502  0.00000000000E+00  0.00000000000E+00  0.57516024919E+03  0.57516024919E+03  0.00000000000E+00 0.  1.
         21   -1    0    0  501  503 -0.00000000000E+00 -0.00000000000E+00 -0.20533493160E+04  0.20533493160E+04  0.00000000000E+00 0. -1.
    9000010    2    1    2  501    0  0.41405913720E+03  0.15257463181E+03 -0.68772890186E+03  0.12839256901E+04  0.99033840070E+03 0.  0.
   -9000010    2    1    2    0  502 -0.41405913720E+03 -0.15257463181E+03 -0.79046016499E+03  0.13445838751E+04  0.99416021719E+03 0.  0.
        -13    1    3    3    0    0 -0.17985569254E+03  0.35914558087E+03 -0.47053932816E+03  0.61866056033E+03  0.10566000000E+00 0.  1.
         13    1    4    4    0    0  0.27224958897E+03  0.10986933809E+03 -0.43475309334E+02  0.29678481065E+03  0.10566000000E+00 0. -1.
          4    1    3    3  501    0  0.59391482974E+03 -0.20657094905E+03 -0.21718957370E+03  0.66526512978E+03  0.00000000000E+00 0.  1.
         -4    1    4    4    0  502 -0.68630872617E+03 -0.26244396990E+03 -0.74698485566E+03  0.10477990645E+04  0.00000000000E+00 0. -1.
</event>
<event>
 8    1  0.7008488E-006  0.1127250E+04  0.7818608E-02  0.8664079E-01
         21   -1    0    0  503  502  0.00000000000E+00  0.00000000000E+00  0.28163132122E+03  0.28163132122E+03  0.00000000000E+00 0.  1.
         21   -1    0    0  501  503 -0.00000000000E+00 -0.00000000000E+00 -0.45000858138E+04  0.45000858138E+04  0.00000000000E+00 0.  1.
    9000010    2    1    2  501    0  0.11116746297E+03 -0.49643556101E+03 -0.21358469589E+04  0.24150639483E+04  0.10059250327E+04 0.  0.
   -9000010    2    1    2    0  502 -0.11116746297E+03  0.49643556101E+03 -0.20826075337E+04  0.23666531867E+04  0.10024902473E+04 0.  0.
        -13    1    3    3    0    0  0.67990465943E+02 -0.51719113697E+03 -0.34910801710E+03  0.62768287725E+03  0.10566000000E+00 0.  1.
         13    1    4    4    0    0  0.10887076584E+03  0.40488827173E+03 -0.20865908646E+04  0.21282971605E+04  0.10566000000E+00 0. -1.
          4    1    3    3  501    0  0.43176997025E+02  0.20755575955E+02 -0.17867389418E+04  0.17873810710E+04  0.00000000000E+00 0.  1.
         -4    1    4    4    0  502 -0.22003822881E+03  0.91547289285E+02  0.39833308575E+01  0.23835602623E+03  0.00000000000E+00 0. -1.
</event>
<event>
 8    1  0.7008488E-006  0.1034710E+04  0.7818608E-02  0.8744214E-01
         21   -1    0    0  503  502  0.00000000000E+00  0.00000000000E+00  0.18112279246E+04  0.18112279246E+04  0.00000000000E+00 0.  1.
         21   -1    0    0  501  503 -0.00000000000E+00 -0.00000000000E+00 -0.58905944164E+03  0.58905944164E+03  0.00000000000E+00 0.  1.
    9000010    2    1    2  501    0  0.73926507993E+02  0.18297914457E+03  0.68147321126E+03  0.12389635334E+04  0.10157157099E+04 0.  0.
   -9000010    2    1    2    0  502 -0.73926507993E+02 -0.18297914457E+03  0.54069527167E+03  0.11613238328E+04  0.10086501732E+04 0.  0.
        -13    1    3    3    0    0  0.35307257170E+03 -0.22078011773E+03  0.22181202560E+02  0.41700853490E+03  0.10566000000E+00 0.  1.
         13    1    4    4    0    0 -0.15089649896E+03 -0.43523643615E+03 -0.97431156237E+02  0.47084323306E+03  0.10566000000E+00 0. -1.
          4    1    3    3  501    0 -0.27914606371E+03  0.40375926230E+03  0.65929200870E+03  0.82195499847E+03  0.00000000000E+00 0.  1.
         -4    1    4    4    0  502  0.76969990971E+02  0.25225729158E+03  0.63812642791E+03  0.69048059977E+03  0.00000000000E+00 0. -1.
</event>
<event>
 8    1  0.7008488E-006  0.1199562E+04  0.7818608E-02  0.8610683E-01
         21   -1    0    0  503  502  0.00000000000E+00  0.00000000000E+00  0.89063273975E+03  0.89063273975E+03  0.00000000000E+00 0. -1.
         21   -1    0    0  501  503 -0.00000000000E+00 -0.00000000000E+00 -0.16072124887E+04  0.16072124887E+04  0.00000000000E+00 0. -1.
    9000010    2    1    2  501    0 -0.55754137972E+03 -0.29553310153E+03 -0.49460391776E+03  0.12975294482E+04  0.10201751954E+04 0.  0.
   -9000010    2    1    2    0  502  0.55754137972E+03  0.29553310153E+03 -0.22197583118E+03  0.12003157802E+04  0.99664060647E+03 0.  0.
        -13    1    3    3    0    0 -0.24173876607E+03  0.12171733633E+02 -0.74992425882E+03  0.78801788511E+03  0.10566000000E+00 0.  1.
         13    1    4    4    0    0  0.61895351022E+02  0.42244498277E+03 -0.46723791834E+03  0.63293134023E+03  0.10566000000E+00 0. -1.
          4    1    3    3  501    0 -0.31580261365E+03 -0.30770483517E+03  0.25532034106E+03  0.50951156310E+03  0.00000000000E+00 0.  1.
         -4    1    4    4    0  502  0.49564602870E+03 -0.12691188124E+03  0.24526208716E+03  0.56738444000E+03  0.00000000000E+00 0. -1.
</event>
<event>
 8    1  0.7008488E-006  0.1162451E+04  0.7818608E-02  0.8646644E-01
         21   -1    0    0  501  502  0.00000000000E+00  0.00000000000E+00  0.20829311718E+04  0.20829311718E+04  0.00000000000E+00 0. -1.
         21   -1    0    0  502  503 -0.00000000000E+00 -0.00000000000E+00 -0.65015313979E+03  0.65015313979E+03  0.00000000000E+00 0. -1.
   -9000010    2    1    2    0  503  0.57053062272E+03 -0.83747877273E+02  0.10377950227E+04  0.15583035874E+04  0.10093426886E+04 0.  0.
    9000010    2    1    2  501    0 -0.57053062272E+03  0.83747877273E+02  0.39498300934E+03  0.11747807242E+04  0.94423475571E+03 0.  0.
        -13    1    4    4    0    0 -0.26763047760E+03  0.39443711064E+03 -0.12963157614E+03  0.49397475997E+03  0.10566000000E+00 0.  1.
         13    1    3    3    0    0 -0.48893319511E+02  0.25670470529E+03 -0.45063892517E+02  0.26517659773E+03  0.10566000000E+00 0. -1.
          4    1    4    4  501    0 -0.30290014512E+03 -0.31068923337E+03  0.52461458548E+03  0.68080596424E+03  0.00000000000E+00 0.  1.
         -4    1    3    3    0  503  0.61942394223E+03 -0.34045258256E+03  0.10828589152E+04  0.12931269897E+04  0.00000000000E+00 0. -1.
</event>
<event>
 8    1  0.7008488E-006  0.1110180E+04  0.7818608E-02  0.8679659E-01
         21   -1    0    0  503  502  0.00000000000E+00  0.00000000000E+00  0.89769875494E+03  0.89769875494E+03  0.00000000000E+00 0.  1.
         21   -1    0    0  501  503 -0.00000000000E+00 -0.00000000000E+00 -0.14121627755E+04  0.14121627755E+04  0.00000000000E+00 0.  1.
    9000010    2    1    2  501    0 -0.39182742897E+03 -0.25565934530E+03 -0.33798954290E+02  0.11000939913E+04  0.99507486429E+03 0.  0.
   -9000010    2    1    2    0  502  0.39182742897E+03  0.25565934530E+03 -0.48066506625E+03  0.12097675391E+04  0.10067810873E+04 0.  0.
        -13    1    3    3    0    0 -0.65410079298E+03 -0.30498929366E+03 -0.24244038787E+03  0.76134333219E+03  0.10566000000E+00 0.  1.
         13    1    4    4    0    0  0.30485478446E+03 -0.19791506874E+03 -0.62748758005E+03  0.72515342399E+03  0.10566000000E+00 0. -1.
          4    1    3    3  501    0  0.26227336401E+03  0.49329948359E+02  0.20864143358E+03  0.33875065916E+03  0.00000000000E+00 0.  1.
         -4    1    4    4    0  502  0.86972644506E+02  0.45357441405E+03  0.14682251380E+03  0.48461411507E+03  0.00000000000E+00 0. -1.
</event>
<event>
 8    1  0.7008488E-006  0.1189150E+04  0.7818608E-02  0.8616921E-01
         21   -1    0    0  503  502  0.00000000000E+00  0.00000000000E+00  0.83467238116E+03  0.83467238116E+03  0.00000000000E+00 0.  1.
         21   -1    0    0  501  503 -0.00000000000E+00 -0.00000000000E+00 -0.16908154233E+04  0.16908154233E+04  0.00000000000E+00 0.  1.
    9000010    2    1    2  501    0 -0.52721376879E+03  0.31016072054E+03 -0.53493004156E+03  0.12937185362E+04  0.10066794281E+04 0.  0.
   -9000010    2    1    2    0  502  0.52721376879E+03 -0.31016072054E+03 -0.32121300063E+03  0.12317692683E+04  0.10197664968E+04 0.  0.
        -13    1    3    3    0    0 -0.64912410953E+03  0.51847505307E+03 -0.62126675875E+03  0.10373769262E+04  0.10566000000E+00 0.  1.
         13    1    4    4    0    0  0.17897480140E+03 -0.46756053722E+03 -0.58306204987E+03  0.76850907650E+03  0.10566000000E+00 0. -1.
          4    1    3    3  501    0  0.12191034073E+03 -0.20831433253E+03  0.86336717197E+02  0.25634161007E+03  0.00000000000E+00 0.  1.
         -4    1    4    4    0  502  0.34823896739E+03  0.15739981668E+03  0.26184904924E+03  0.46326019179E+03  0.00000000000E+00 0. -1.
</event>
<event>
 8    1  0.7008488E-006  0.1051863E+04  0.7818608E-02  0.8727467E-01
         21   -1    0    0  503  502  0.00000000000E+00  0.00000000000E+00  0.10319304061E+04  0.10319304061E+04  0.00000000000E+00 0.  1.
         21   -1    0    0  501  503 -0.00000000000E+00 -0.00000000000E+00 -0.12707696412E+04  0.12707696412E+04  0.00000000000E+00 0.  1.
    9000010    2    1    2  501    0  0.33243627917E+03 -0.11120374599E+02 -0.57531709980E+03  0.11989187342E+04  0.99788717967E+03 0.  0.
   -9000010    2    1    2    0  502 -0.33243627917E+03  0.11120374599E+02  0.33647786468E+03  0.11037813132E+04  0.99723532405E+03 0.  0.
        -13    1    3    3    0    0 -0.31950353215E+03 -0.16641749552E+03 -0.89567191903E+02  0.37121366206E+03  0.10566000000E+00 0.  1.
         13    1    4    4    0    0 -0.27991480101E+03  0.13648774002E+03  0.67261075890E+03  0.74120607334E+03  0.10566000000E+00 0. -1.
          4    1    3    3  501    0  0.65193981131E+03  0.15529712092E+03 -0.48574990790E+03  0.82770507209E+03  0.00000000000E+00 0.  1.
         -4    1    4    4    0  502 -0.52521478155E+02 -0.12536736542E+03 -0.33613289423E+03  0.36257523987E+03  0.00000000000E+00 0. -1.
</event>
<event>
 8    1  0.7008488E-006  0.1123515E+04  0.7818608E-02  0.8679926E-01
         21   -1    0    0  503  502  0.00000000000E+00  0.00000000000E+00  0.26947081017E+04  0.26947081017E+04  0.00000000000E+00 0.  1.
         21   -1    0    0  501  503 -0.00000000000E+00 -0.00000000000E+00 -0.44249969587E+03  0.44249969587E+03  0.00000000000E+00 0.  1.
    9000010    2    1    2  501    0 -0.74275395396E+02  0.33996792307E+03  0.11170718344E+04  0.15843404982E+04  0.10682650925E+04 0.  0.
   -9000010    2    1    2    0  502  0.74275395396E+02 -0.33996792307E+03  0.11351365714E+04  0.15528672994E+04  0.10008830055E+04 0.  0.
        -13    1    3    3    0    0 -0.21408619686E+03 -0.29079235056E+03  0.77111279857E+03  0.85147404547E+03  0.10566000000E+00 0.  1.
         13    1    4    4    0    0 -0.24951050310E+01 -0.51974210846E+03  0.13939089529E+03  0.53811515284E+03  0.10566000000E+00 0. -1.
          4    1    3    3  501    0  0.13981080147E+03  0.63076027362E+03  0.34595903586E+03  0.73286645269E+03  0.00000000000E+00 0.  1.
         -4    1    4    4    0  502  0.76770500427E+02  0.17977418540E+03  0.99574567613E+03  0.10147521466E+04  0.00000000000E+00 0. -1.
</event>
<event>
 8    1  0.7008488E-006  0.1264828E+04  0.7818608E-02  0.8560320E-01
         21   -1    0    0  503  502  0.00000000000E+00  0.00000000000E+00  0.10152449834E+04  0.10152449834E+04  0.00000000000E+00 0. -1.
         21   -1    0    0  501  503 -0.00000000000E+00 -0.00000000000E+00 -0.16923629095E+04  0.16923629095E+04  0.00000000000E+00 0. -1.
    9000010    2    1    2  501    0 -0.24637103003E+02 -0.77819800241E+03  0.27011455194E+02  0.12651165419E+04  0.99679041336E+03 0.  0.
   -9000010    2    1    2    0  502  0.24637103003E+02  0.77819800241E+03 -0.70412938132E+03  0.14424913510E+04  0.98933512742E+03 0.  0.
        -13    1    3    3    0    0  0.14508628333E+02 -0.90375905825E+03  0.30796715691E+03  0.95490036997E+03  0.10566000000E+00 0.  1.
         13    1    4    4    0    0  0.38479598903E+03 -0.17820121151E+02 -0.22129051488E+03  0.44424656783E+03  0.10566000000E+00 0. -1.
          4    1    3    3  501    0 -0.39145731336E+02  0.12556105584E+03 -0.28095570171E+03  0.31021617197E+03  0.00000000000E+00 0.  1.
         -4    1    4    4    0  502 -0.36015888603E+03  0.79601812356E+03 -0.48283886644E+03  0.99824478319E+03  0.00000000000E+00 0. -1.
</event>
<event>
 8    1  0.7008488E-006  0.1313641E+04  0.7818608E-02  0.8526504E-01
         21   -1    0    0  501  502  0.00000000000E+00  0.00000000000E+00  0.85753908287E+03  0.85753908287E+03  0.00000000000E+00 0. -1.
         21   -1    0    0  502  503 -0.00000000000E+00 -0.00000000000E+00 -0.21173820638E+04  0.21173820638E+04  0.00000000000E+00 0.  1.
   -9000010    2    1    2    0  503  0.31949014876E+03 -0.78809276632E+03 -0.97551466882E+03  0.16362403652E+04  0.10012439763E+04 0.  0.
    9000010    2    1    2  501    0 -0.31949014876E+03  0.78809276632E+03 -0.28432831213E+03  0.13386807815E+04  0.99401181194E+03 0.  0.
        -13    1    4    4    0    0  0.24807267802E+02  0.10634434078E+03 -0.52630187964E+03  0.53751111526E+03  0.10566000000E+00 0.  1.
         13    1    3    3    0    0  0.55638223856E+03 -0.79565989497E+03 -0.47160379450E+03  0.10793729726E+04  0.10566000000E+00 0. -1.
          4    1    4    4  501    0 -0.34429741656E+03  0.68174842554E+03  0.24197356751E+03  0.80116966627E+03  0.00000000000E+00 0.  1.
         -4    1    3    3    0  503 -0.23689208980E+03  0.75671286487E+01 -0.50391087432E+03  0.55686739256E+03  0.00000000000E+00 0. -1.
</event>
<event>
 8    1  0.7008488E-006  0.1126508E+04  0.7818608E-02  0.8666957E-01
         21   -1    0    0  501  502  0.00000000000E+00  0.00000000000E+00  0.10498967296E+04  0.10498967296E+04  0.00000000000E+00 0. -1.
         21   -1    0    0  502  503 -0.00000000000E+00 -0.00000000000E+00 -0.12710928740E+04  0.12710928740E+04  0.00000000000E+00 0. -1.
   -9000010    2    1    2    0  503 -0.40102588872E+03 -0.28443642264E+03 -0.39786273543E+03  0.11947031764E+04  0.10135556627E+04 0.  0.
    9000010    2    1    2  501    0  0.40102588872E+03  0.28443642264E+03  0.17666659105E+03  0.11262864272E+04  0.99778965207E+03 0.  0.
        -13    1    4    4    0    0  0.26286842847E+03 -0.25503871205E+03 -0.23376042654E+03  0.43449799023E+03  0.10566000000E+00 0.  1.
         13    1    3    3    0    0 -0.28705811749E+03 -0.60684429984E+03 -0.16320632311E+01  0.67131590318E+03  0.10566000000E+00 0. -1.
          4    1    4    4  501    0  0.13815746025E+03  0.53947513469E+03  0.41042701760E+03  0.69178843699E+03  0.00000000000E+00 0.  1.
         -4    1    3    3    0  503 -0.11396777123E+03  0.32240787720E+03 -0.39623067220E+03  0.52338727321E+03  0.00000000000E+00 0. -1.
</event>
<event>
 8    1  0.7008488E-006  0.1184137E+04  0.7818608E-02  0.8635578E-01
         21   -1    0    0  503  502  0.00000000000E+00  0.00000000000E+00  0.10409637544E+04  0.10409637544E+04  0.00000000000E+00 0.  1.
         21   -1    0    0  501  503 -0.00000000000E+00 -0.00000000000E+00 -0.13730993528E+04  0.13730993528E+04  0.00000000000E+00 0.  1.
    9000010    2    1    2  501    0  0.10114939986E+03 -0.60874092810E+03 -0.51907922520E+03  0.12152604364E+04  0.90918533183E+03 0.  0.
   -9000010    2    1    2    0  502 -0.10114939986E+03  0.60874092810E+03  0.18694362679E+03  0.11988026709E+04  0.10106350506E+04 0.  0.
        -13    1    3    3    0    0  0.39910565681E+03  0.22205171866E+02 -0.16035526477E+03  0.43068807397E+03  0.10566000000E+00 0.  1.
         13    1    4    4    0    0  0.77211351602E+02  0.39032187101E+03 -0.38967766753E+03  0.55692140517E+03  0.10566000000E+00 0. -1.
          4    1    3    3  501    0 -0.29795625695E+03 -0.63094609996E+03 -0.35872396042E+03  0.78457236243E+03  0.00000000000E+00 0.  1.
         -4    1    4    4    0  502 -0.17836075146E+03  0.21841905709E+03  0.57662129433E+03  0.64188126568E+03  0.00000000000E+00 0. -1.
</event>
<event>
 8    1  0.7008488E-006  0.1079503E+04  0.7818608E-02  0.8705939E-01
         21   -1    0    0  501  502  0.00000000000E+00  0.00000000000E+00  0.85766619682E+03  0.85766619682E+03  0.00000000000E+00 0.  1.
         21   -1    0    0  502  503 -0.00000000000E+00 -0.00000000000E+00 -0.13988301044E+04  0.13988301044E+04  0.00000000000E+00 0.  1.
   -9000010    2    1    2    0  503  0.15144596330E+03  0.34702407970E+03 -0.49401452246E+03  0.11759642901E+04  0.99773747621E+03 0.  0.
    9000010    2    1    2  501    0 -0.15144596330E+03 -0.34702407970E+03 -0.47149385115E+02  0.10805320111E+04  0.10109227324E+04 0.  0.
        -13    1    4    4    0    0 -0.24794975013E+03  0.17311427905E+03 -0.35667697509E+03  0.46761748034E+03  0.10566000000E+00 0.  1.
         13    1    3    3    0    0 -0.19101248175E+03  0.23666132534E+02  0.23764539489E+03  0.30581235895E+03  0.10566000000E+00 0. -1.
          4    1    4    4  501    0  0.96503786823E+02 -0.52013835874E+03  0.30952758997E+03  0.61291453080E+03  0.00000000000E+00 0.  1.
         -4    1    3    3    0  503  0.34245844505E+03  0.32335794716E+03 -0.73165991735E+03  0.87015193112E+03  0.00000000000E+00 0. -1.
</event>
<event>
 8    1  0.7008488E-006  0.1091937E+04  0.7818608E-02  0.8700381E-01
         21   -1    0    0  503  502  0.00000000000E+00  0.00000000000E+00  0.28588760577E+04  0.28588760577E+04  0.00000000000E+00 0.  1.
         21   -1    0    0  501  503 -0.00000000000E+00 -0.00000000000E+00 -0.41798911686E+03  0.41798911686E+03  0.00000000000E+00 0.  1.
    9000010    2    1    2  501    0  0.38589369495E+03  0.46063478425E+02  0.15447160302E+04  0.18916852943E+04  0.10204361081E+04 0.  0.
   -9000010    2    1    2    0  502 -0.38589369495E+03 -0.46063478425E+02  0.89617091061E+03  0.13851798803E+04  0.98212280894E+03 0.  0.
        -13    1    3    3    0    0 -0.26750753501E+03  0.26692193007E+03  0.36646932457E+03  0.52640989262E+03  0.10566000000E+00 0.  1.
         13    1    4    4    0    0 -0.57491532029E+03  0.15049758828E+03  0.93686880045E+03  0.11094594675E+04  0.10566000000E+00 0. -1.
          4    1    3    3  501    0  0.65340122996E+03 -0.22085845164E+03  0.11782467057E+04  0.13652754017E+04  0.00000000000E+00 0.  1.
         -4    1    4    4    0  502  0.18902162534E+03 -0.19656106670E+03 -0.40697889840E+02  0.27572041279E+03  0.00000000000E+00 0. -1.
</event>
<event>
 8    1  0.7008488E-006  0.1142303E+04  0.7818608E-02  0.8651638E-01
         21   -1    0    0  503  502  0.00000000000E+00  0.00000000000E+00  0.92565460634E+03  0.92565460634E+03  0.00000000000E+00 0. -1.
         21   -1    0    0  501  503 -0.00000000000E+00 -0.00000000000E+00 -0.14356121839E+04  0.14356121839E+04  0.00000000000E+00 0. -1.
    9000010    2    1    2  501    0 -0.37821293707E+02 -0.55165873908E+03 -0.41937617927E+03  0.12153775822E+04  0.99775170899E+03 0.  0.
   -9000010    2    1    2    0  502  0.37821293707E+02  0.55165873908E+03 -0.90581398264E+02  0.11458892081E+04  0.99954953492E+03 0.  0.
        -13    1    3    3    0    0  0.32576586186E+03 -0.64952380053E+03 -0.12472887773E+03  0.73726648392E+03  0.10566000000E+00 0.  1.
         13    1    4    4    0    0  0.34879315230E+03  0.67622943175E+03  0.88533190643E+02  0.76601634739E+03  0.10566000000E+00 0. -1.
          4    1    3    3  501    0 -0.36358715557E+03  0.97865061454E+02 -0.29464730154E+03  0.47811109823E+03  0.00000000000E+00 0.  1.
         -4    1    4    4    0  502 -0.31097185860E+03 -0.12457069267E+03 -0.17911458891E+03  0.37987286066E+03  0.00000000000E+00 0. -1.
</event>
<event>
 8    1  0.7008488E-006  0.1129529E+04  0.7818608E-02  0.8666840E-01
         21   -1    0    0  501  502  0.00000000000E+00  0.00000000000E+00  0.26753237037E+04  0.26753237037E+04  0.00000000000E+00 0. -1.
         21   -1    0    0  502  503 -0.00000000000E+00 -0.00000000000E+00 -0.54867603240E+03  0.54867603240E+03  0.00000000000E+00 0. -1.
   -9000010    2    1    2    0  503  0.50187038020E+03 -0.18309503073E+03  0.44860181945E+03  0.12153512613E+04  0.99520722827E+03 0.  0.
    9000010    2    1    2  501    0 -0.50187038020E+03  0.18309503073E+03  0.16780458519E+04  0.20086484748E+04  0.96614343940E+03 0.  0.
        -13    1    4    4    0    0  0.21924949547E+03  0.55731942299E+02  0.94803024561E+03  0.97464749957E+03  0.10566000000E+00 0.  1.
         13    1    3    3    0    0  0.79863528738E+03 -0.18074751269E+03  0.41103647749E+03  0.91620902778E+03  0.10566000000E+00 0. -1.
          4    1    4    4  501    0 -0.72111987567E+03  0.12736308843E+03  0.73001560628E+03  0.10340009752E+04  0.00000000000E+00 0.  1.
         -4    1    3    3    0  503 -0.29676490718E+03 -0.23475180364E+01  0.37565341957E+02  0.29914223355E+03  0.00000000000E+00 0. -1.
</event>
<event>
 8    1  0.7008488E-006  0.1139550E+04  0.7818608E-02  0.8653694E-01
         21   -1    0    0  501  502  0.00000000000E+00  0.00000000000E+00  0.99012542452E+03  0.99012542452E+03  0.00000000000E+00 0. -1.
         21   -1    0    0  502  503 -0.00000000000E+00 -0.00000000000E+00 -0.13394199738E+04  0.13394199738E+04  0.00000000000E+00 0. -1.
   -9000010    2    1    2    0  503 -0.10887016313E+03  0.51687362207E+03 -0.37753881935E+01  0.11395564591E+04  0.10097344286E+04 0.  0.
    9000010    2    1    2  501    0  0.10887016313E+03 -0.51687362207E+03 -0.34551916104E+03  0.11899889392E+04  0.10088008382E+04 0.  0.
        -13    1    4    4    0    0 -0.18891558398E+03  0.13489799180E+03 -0.40933500576E+03  0.47057594942E+03  0.10566000000E+00 0.  1.
         13    1    3    3    0    0  0.24003334963E+03 -0.12372811268E+03 -0.25166319122E+03  0.36913280507E+03  0.10566000000E+00 0. -1.
          4    1    4    4  501    0  0.29778574711E+03 -0.65177161387E+03  0.63815844717E+02  0.71941298978E+03  0.00000000000E+00 0.  1.
         -4    1    3    3    0  503 -0.34890351275E+03  0.64060173475E+03  0.24788780303E+03  0.77042365402E+03  0.00000000000E+00 0. -1.
</event>
<event>
 8    1  0.7008488E-006  0.1155693E+04  0.7818608E-02  0.8641392E-01
         21   -1    0    0  501  502  0.00000000000E+00  0.00000000000E+00  0.76549775206E+03  0.76549775206E+03  0.00000000000E+00 0. -1.
         21   -1    0    0  502  503 -0.00000000000E+00 -0.00000000000E+00 -0.17550320792E+04  0.17550320792E+04  0.00000000000E+00 0. -1.
   -9000010    2    1    2    0  503  0.31519730310E+03  0.41624927095E+03 -0.37527135547E+03  0.12117344378E+04  0.10270632707E+04 0.  0.
    9000010    2    1    2  501    0 -0.31519730310E+03 -0.41624927095E+03 -0.61426297169E+03  0.13087953935E+04  0.10310255032E+04 0.  0.
        -13    1    4    4    0    0 -0.26200159546E+03 -0.16482628569E+03  0.25581131469E+03  0.40156192594E+03  0.10566000000E+00 0.  1.
         13    1    3    3    0    0  0.42841843230E+03 -0.20625691499E+03 -0.32721187940E+03  0.57719311613E+03  0.10566000000E+00 0. -1.
          4    1    4    4  501    0 -0.53195707646E+02 -0.25142298526E+03 -0.87007428638E+03  0.90723346756E+03  0.00000000000E+00 0.  1.
         -4    1    3    3    0  503 -0.11322112920E+03  0.62250618595E+03 -0.48059476065E+02  0.63454132165E+03  0.00000000000E+00 0. -1.
</event>
<event>
 8    1  0.7008488E-006  0.1057406E+04  0.7818608E-02  0.8724948E-01
         21   -1    0    0  503  502  0.00000000000E+00  0.00000000000E+00  0.19048806995E+04  0.19048806995E+04  0.00000000000E+00 0.  1.
         21   -1    0    0  501  503 -0.00000000000E+00 -0.00000000000E+00 -0.60982014628E+03  0.60982014628E+03  0.00000000000E+00 0.  1.
    9000010    2    1    2  501    0  0.32944770551E+03  0.11995565755E+02  0.37609218220E+03  0.11222980062E+04  0.10047028421E+04 0.  0.
   -9000010    2    1    2    0  502 -0.32944770551E+03 -0.11995565755E+02  0.91896837105E+03  0.13924028396E+04  0.99277546122E+03 0.  0.
        -13    1    3    3    0    0 -0.13447094622E+03 -0.73077878511E+02  0.58628175387E+03  0.60592831077E+03  0.10566000000E+00 0.  1.
         13    1    4    4    0    0  0.24921084198E+03  0.26764892909E+03  0.52078072540E+03  0.63636040741E+03  0.10566000000E+00 0. -1.
          4    1    3    3  501    0  0.46391865173E+03  0.85073444266E+02 -0.21018957168E+03  0.51636969546E+03  0.00000000000E+00 0.  1.
         -4    1    4    4    0  502 -0.57865854750E+03 -0.27964449485E+03  0.39818764565E+03  0.75604243217E+03  0.00000000000E+00 0. -1.
</event>
<event>
 8    1  0.7008488E-006  0.1046496E+04  0.7818608E-02  0.8734612E-01
         21   -1    0    0  501  502  0.00000000000E+00  0.00000000000E+00  0.30387769468E+04  0.30387769468E+04  0.00000000000E+00 0. -1.
         21   -1    0    0  502  503 -0.00000000000E+00 -0.00000000000E+00 -0.35967340283E+03  0.35967340283E+03  0.00000000000E+00 0. -1.
   -9000010    2    1    2    0  503  0.79465239813E+02  0.27005481931E+03  0.11732644867E+04  0.15646825306E+04  0.99621159201E+03 0.  0.
    9000010    2    1    2  501    0 -0.79465239813E+02 -0.27005481931E+03  0.15058390573E+04  0.18337678190E+04  0.10079230218E+04 0.  0.
        -13    1    4    4    0    0 -0.17156783371E+03 -0.48332401035E+02 -0.10383663300E+03  0.20628523959E+03  0.10566000000E+00 0.  1.
         13    1    3    3    0    0 -0.45338976989E+03  0.20775407333E+03  0.56923478996E+03  0.75680400084E+03  0.10566000000E+00 0. -1.
          4    1    4    4  501    0  0.92102593900E+02 -0.22172241827E+03  0.16096756903E+04  0.16274825795E+04  0.00000000000E+00 0.  1.
         -4    1    3    3    0  503  0.53285500970E+03  0.62300745974E+02  0.60402969676E+03  0.80787852978E+03  0.00000000000E+00 0. -1.
</event>
<event>
 8    1  0.7008488E-006  0.1125522E+04  0.7818608E-02  0.8667184E-01
         21   -1    0    0  501  502  0.00000000000E+00  0.00000000000E+00  0.56506748886E+03  0.56506748886E+03  0.00000000000E+00 0.  1.
         21   -1    0    0  502  503 -0.00000000000E+00 -0.00000000000E+00 -0.26092647721E+04  0.26092647721E+04  0.00000000000E+00 0.  1.
   -9000010    2    1    2    0  503  0.50893649347E+03 -0.59562997584E+02 -0.41292039061E+03  0.11988756747E+04  0.10021155269E+04 0.  0.
    9000010    2    1    2  501    0 -0.50893649347E+03  0.59562997584E+02 -0.16312768926E+04  0.19754565863E+04  0.98934337760E+03 0.  0.
        -13    1    4    4    0    0 -0.11083993440E+03 -0.12454817916E+03  0.96661312540E+02  0.19272042054E+03  0.10566000000E+00 0.  1.
         13    1    3    3    0    0  0.42057562644E+03 -0.51279347270E+03 -0.22490242835E+03  0.70030144698E+03  0.10566000000E+00 0. -1.
          4    1    4    4  501    0 -0.39809655907E+03  0.18411117674E+03 -0.17279382052E+04  0.17827361657E+04  0.00000000000E+00 0.  1.
         -4    1    3    3    0  503  0.88360867025E+02  0.45323047511E+03 -0.18801796227E+03  0.49857422770E+03  0.00000000000E+00 0. -1.
</event>
<event>
 8    1  0.7008488E-006  0.1068818E+04  0.7818608E-02  0.8715469E-01
         21   -1    0    0  501  502  0.00000000000E+00  0.00000000000E+00  0.80879883606E+03  0.80879883606E+03  0.00000000000E+00 0. -1.
         21   -1    0    0  502  503 -0.00000000000E+00 -0.00000000000E+00 -0.13975173999E+04  0.13975173999E+04  0.00000000000E+00 0. -1.
   -9000010    2    1    2    0  503  0.25255624211E+03  0.21797224351E+03 -0.34807451887E+03  0.11240679643E+04  0.10154193042E+04 0.  0.
    9000010    2    1    2  501    0 -0.25255624211E+03 -0.21797224351E+03 -0.24064404492E+03  0.10822482716E+04  0.10010270779E+04 0.  0.
        -13    1    4    4    0    0  0.32313406243E+03 -0.31782637088E+03 -0.20335928382E+03  0.49677382561E+03  0.10566000000E+00 0.  1.
         13    1    3    3    0    0  0.59326478445E+03  0.13712588562E+03  0.28847383959E+02  0.60958903837E+03  0.10566000000E+00 0. -1.
          4    1    4    4  501    0 -0.57569030454E+03  0.99854127370E+02 -0.37284761099E+02  0.58547444599E+03  0.00000000000E+00 0.  1.
         -4    1    3    3    0  503 -0.34070854234E+03  0.80846357890E+02 -0.37692190283E+03  0.51447892595E+03  0.00000000000E+00 0. -1.
</event>
<event>
 8    1  0.7008488E-006  0.1148295E+04  0.7818608E-02  0.8652676E-01
         21   -1    0    0  501  502  0.00000000000E+00  0.00000000000E+00  0.24861040009E+04  0.24861040009E+04  0.00000000000E+00 0. -1.
         21   -1    0    0  502  503 -0.00000000000E+00 -0.00000000000E+00 -0.51832627474E+03  0.51832627474E+03  0.00000000000E+00 0. -1.
   -9000010    2    1    2    0  503  0.80191764666E+02  0.55645033470E+03  0.10881020349E+04  0.15819444180E+04  0.10012564153E+04 0.  0.
    9000010    2    1    2  501    0 -0.80191764666E+02 -0.55645033470E+03  0.87967569127E+03  0.14224858576E+04  0.96621374407E+03 0.  0.
        -13    1    4    4    0    0 -0.50564099948E+03 -0.26082598854E+03  0.29354051245E+03  0.64021016882E+03  0.10566000000E+00 0.  1.
         13    1    3    3    0    0  0.43956243168E+03  0.73094379634E+02  0.15589064892E+03  0.47208031654E+03  0.10566000000E+00 0. -1.
          4    1    4    4  501    0  0.42544923481E+03 -0.29562434615E+03  0.58613517883E+03  0.78227568881E+03  0.00000000000E+00 0.  1.
         -4    1    3    3    0  503 -0.35937066702E+03  0.48335595506E+03  0.93221138600E+03  0.11098641015E+04  0.00000000000E+00 0. -1.
</event>
<event>
 8    1  0.7008488E-006  0.1126499E+04  0.7818608E-02  0.8665172E-01
         21   -1    0    0  503  502  0.00000000000E+00  0.00000000000E+00  0.80989930018E+03  0.80989930018E+03  0.00000000000E+00 0.  1.
         21   -1    0    0  501  503 -0.00000000000E+00 -0.00000000000E+00 -0.15597979001E+04  0.15597979001E+04  0.00000000000E+00 0.  1.
    9000010    2    1    2  501    0  0.63187354607E+02 -0.49339661744E+03 -0.35333640544E+03  0.11754349776E+04  0.10046730350E+04 0.  0.
   -9000010    2    1    2    0  502 -0.63187354607E+02  0.49339661744E+03 -0.39656219445E+03  0.11942622227E+04  0.10107263816E+04 0.  0.
        -13    1    3    3    0    0 -0.41686153908E+03 -0.23953810579E+03 -0.40677108689E+03  0.62977359042E+03  0.10566000000E+00 0.  1.
         13    1    4    4    0    0 -0.77298616230E+02 -0.25368903707E+03 -0.35868903512E+03  0.44608411615E+03  0.10566000000E+00 0. -1.
          4    1    3    3  501    0  0.48004889369E+03 -0.25385851165E+03  0.53434681447E+02  0.54566138717E+03  0.00000000000E+00 0.  1.
         -4    1    4    4    0  502  0.14111261624E+02  0.74708565451E+03 -0.37873159332E+02  0.74817810652E+03  0.00000000000E+00 0. -1.
</event>
<event>
 8    1  0.7008488E-006  0.1151730E+04  0.7818608E-02  0.8646474E-01
         21   -1    0    0  503  502  0.00000000000E+00  0.00000000000E+00  0.95407652633E+03  0.95407652633E+03  0.00000000000E+00 0. -1.
         21   -1    0    0  501  503 -0.00000000000E+00 -0.00000000000E+00 -0.13900863565E+04  0.13900863565E+04  0.00000000000E+00 0. -1.
    9000010    2    1    2  501    0 -0.16578527815E+03 -0.52537489229E+03 -0.34409724523E+03  0.12020337223E+04  0.10114240552E+04 0.  0.
   -9000010    2    1    2    0  502  0.16578527815E+03  0.52537489229E+03 -0.91912584916E+02  0.11421291605E+04  0.99624673654E+03 0.  0.
        -13    1    3    3    0    0 -0.22574134070E+03 -0.25541906096E+02  0.30518080070E+03  0.38045613959E+03  0.10566000000E+00 0.  1.
         13    1    4    4    0    0  0.18425812910E+03  0.81109814373E+03 -0.16191298514E+03  0.84737658855E+03  0.10566000000E+00 0. -1.
          4    1    3    3  501    0  0.59956062554E+02 -0.49983298620E+03 -0.64927804593E+03  0.82157758274E+03  0.00000000000E+00 0.  1.
         -4    1    4    4    0  502 -0.18472850946E+02 -0.28572325143E+03  0.70000400223E+02  0.29475257194E+03  0.00000000000E+00 0. -1.
</event>
<event>
 8    1  0.7008488E-006  0.1030146E+04  0.7818608E-02  0.8747102E-01
         21   -1    0    0  501  502  0.00000000000E+00  0.00000000000E+00  0.16498677587E+04  0.16498677587E+04  0.00000000000E+00 0. -1.
         21   -1    0    0  502  503 -0.00000000000E+00 -0.00000000000E+00 -0.69065334689E+03  0.69065334689E+03  0.00000000000E+00 0. -1.
   -9000010    2    1    2    0  503  0.13098746196E+03 -0.22693714708E+03  0.78959463985E+03  0.12979450560E+04  0.99626476860E+03 0.  0.
    9000010    2    1    2  501    0 -0.13098746196E+03  0.22693714708E+03  0.16961977191E+03  0.10425760496E+04  0.99475412449E+03 0.  0.
        -13    1    4    4    0    0 -0.23683684385E+03 -0.33363986556E+03 -0.84935064063E+02  0.41787704743E+03  0.10566000000E+00 0.  1.
         13    1    3    3    0    0 -0.48781067659E+02  0.29295353252E+02 -0.22712042379E+03  0.23413993327E+03  0.10566000000E+00 0. -1.
          4    1    4    4  501    0  0.10584938189E+03  0.56057701264E+03  0.25455483598E+03  0.62469900213E+03  0.00000000000E+00 0.  1.
         -4    1    3    3    0  503  0.17976852961E+03 -0.25623250033E+03  0.10167150636E+04  0.10638051227E+04  0.00000000000E+00 0. -1.
</event>
<event>
 8    1  0.7008488E-006  0.1073678E+04  0.7818608E-02  0.8713778E-01
         21   -1    0    0  503  502  0.00000000000E+00  0.00000000000E+00  0.17525624877E+04  0.17525624877E+04  0.00000000000E+00 0. -1.
         21   -1    0    0  501  503 -0.00000000000E+00 -0.00000000000E+00 -0.66227428424E+03  0.66227428424E+03  0.00000000000E+00 0. -1.
    9000010    2    1    2  501    0 -0.29368300585E+03  0.20610069749E+03  0.32997201138E+03  0.10992134927E+04  0.98522158363E+03 0.  0.
   -9000010    2    1    2    0  502  0.29368300585E+03 -0.20610069749E+03  0.76031619211E+03  0.13156232793E+04  0.10119568644E+04 0.  0.
        -13    1    3    3    0    0  0.19614511726E+03 -0.26230086684E+02  0.49453038694E+03  0.53265489695E+03  0.10566000000E+00 0.  1.
         13    1    4    4    0    0 -0.25956935936E+03 -0.25147343488E+03  0.65863783930E+03  0.75127821430E+03  0.10566000000E+00 0. -1.
          4    1    3    3  501    0 -0.48982812311E+03  0.23233078417E+03 -0.16455837557E+03  0.56655859577E+03  0.00000000000E+00 0.  1.
         -4    1    4    4    0  502  0.55325236521E+03  0.45372737388E+02  0.10167835281E+03  0.56434506495E+03  0.00000000000E+00 0. -1.
</event>
<event>
 8    1  0.7008488E-006  0.1142550E+04  0.7818608E-02  0.8655150E-01
         21   -1    0    0  501  502  0.00000000000E+00  0.00000000000E+00  0.87881560440E+03  0.87881560440E+03  0.00000000000E+00 0. -1.
         21   -1    0    0  502  503 -0.00000000000E+00 -0.00000000000E+00 -0.14760631713E+04  0.14760631713E+04  0.00000000000E+00 0. -1.
   -9000010    2    1    2    0  503  0.49340816233E+03 -0.61636869488E+02 -0.42035364849E+03  0.11987161031E+04  0.10064652939E+04 0.  0.
    9000010    2    1    2  501    0 -0.49340816233E+03  0.61636869488E+02 -0.17689391845E+03  0.11561626726E+04  0.10286738787E+04 0.  0.
        -13    1    4    4    0    0 -0.79171463086E+03  0.19435259889E+03 -0.14619414844E+03  0.82822565139E+03  0.10566000000E+00 0.  1.
         13    1    3    3    0    0  0.37693145505E+03 -0.21004467322E+03  0.25247419289E+03  0.49993931211E+03  0.10566000000E+00 0. -1.
          4    1    4    4  501    0  0.29830646853E+03 -0.13271572940E+03 -0.30699770006E+02  0.32793702121E+03  0.00000000000E+00 0.  1.
         -4    1    3    3    0  503  0.11647670727E+03  0.14840780373E+03 -0.67282784138E+03  0.69877679103E+03  0.00000000000E+00 0. -1.
</event>
<event>
 8    1  0.7008488E-006  0.1188811E+04  0.7818608E-02  0.8620369E-01
         21   -1    0    0  503  502  0.00000000000E+00  0.00000000000E+00  0.10575990090E+04  0.10575990090E+04  0.00000000000E+00 0.  1.
         21   -1    0    0  501  503 -0.00000000000E+00 -0.00000000000E+00 -0.13124524101E+04  0.13124524101E+04  0.00000000000E+00 0.  1.
    9000010    2    1    2  501    0 -0.20316485496E+03 -0.62683337533E+03 -0.21288278360E+03  0.11804995542E+04  0.95606698464E+03 0.  0.
   -9000010    2    1    2    0  502  0.20316485496E+03  0.62683337533E+03 -0.41970617479E+02  0.11895518649E+04  0.98948272742E+03 0.  0.
        -13    1    3    3    0    0  0.34919738990E+03 -0.28348743381E+03  0.96918663413E+02  0.46010561910E+03  0.10566000000E+00 0.  1.
         13    1    4    4    0    0  0.10449069131E+03  0.84935866468E+03  0.16321624742E+03  0.87118769529E+03  0.10566000000E+00 0. -1.
          4    1    3    3  501    0 -0.55236224487E+03 -0.34334594152E+03 -0.30980144701E+03  0.72039393507E+03  0.00000000000E+00 0.  1.
         -4    1    4    4    0  502  0.98674163658E+02 -0.22252528935E+03 -0.20518686490E+03  0.31836416962E+03  0.00000000000E+00 0. -1.
</event>
<event>
 8    1  0.7008488E-006  0.1079435E+04  0.7818608E-02  0.8716170E-01
         21   -1    0    0  503  502  0.00000000000E+00  0.00000000000E+00  0.16192989255E+04  0.16192989255E+04  0.00000000000E+00 0.  1.
         21   -1    0    0  501  503 -0.00000000000E+00 -0.00000000000E+00 -0.75215129849E+03  0.75215129849E+03  0.00000000000E+00 0.  1.
    9000010    2    1    2  501    0 -0.16455405251E+03  0.42085131830E+03  0.80621986208E+02  0.10824417966E+04  0.98029917376E+03 0.  0.
   -9000010    2    1    2    0  502  0.16455405251E+03 -0.42085131830E+03  0.78652564079E+03  0.12890084274E+04  0.91582000081E+03 0.  0.
        -13    1    3    3    0    0 -0.33004098099E+03  0.52993023064E+03 -0.26959781413E+03  0.68002653700E+03  0.10566000000E+00 0.  1.
         13    1    4    4    0    0 -0.37089713071E+03 -0.15127577766E+03  0.44636401493E+03  0.59974151721E+03  0.10566000000E+00 0. -1.
          4    1    3    3  501    0  0.16548692848E+03 -0.10907891234E+03  0.35021980034E+03  0.40241525961E+03  0.00000000000E+00 0.  1.
         -4    1    4    4    0  502  0.53545118323E+03 -0.26957554064E+03  0.34016162586E+03  0.68926691016E+03  0.00000000000E+00 0. -1.
</event>
<event>
 8    1  0.7008488E-006  0.1470211E+04  0.7818608E-02  0.8427144E-01
         21   -1    0    0  501  502  0.00000000000E+00  0.00000000000E+00  0.99866867690E+03  0.99866867690E+03  0.00000000000E+00 0.  1.
         21   -1    0    0  502  503 -0.00000000000E+00 -0.00000000000E+00 -0.22423967657E+04  0.22423967657E+04  0.00000000000E+00 0.  1.
   -9000010    2    1    2    0  503  0.53180901455E+03  0.95120965793E+03 -0.31364601275E+03  0.15013606429E+04  0.98391529989E+03 0.  0.
    9000010    2    1    2  501    0 -0.53180901455E+03 -0.95120965793E+03 -0.93008207609E+03  0.17397047998E+04  0.98686345601E+03 0.  0.
        -13    1    4    4    0    0 -0.38589237945E+03 -0.11516636936E+04 -0.70231750398E+03  0.14030296074E+04  0.10566000000E+00 0.  1.
         13    1    3    3    0    0  0.68728144936E+03  0.86098626121E+03  0.42439220251E+02  0.11024764085E+04  0.10566000000E+00 0. -1.
          4    1    4    4  501    0 -0.14591663510E+03  0.20045403571E+03 -0.22776457211E+03  0.33667519234E+03  0.00000000000E+00 0.  1.
         -4    1    3    3    0  503 -0.15547243481E+03  0.90223396718E+02 -0.35608523300E+03  0.39888423441E+03  0.00000000000E+00 0. -1.
</event>
<event>
 8    1  0.7008488E-006  0.1205103E+04  0.7818608E-02  0.8605563E-01
         21   -1    0    0  501  502  0.00000000000E+00  0.00000000000E+00  0.10537648153E+04  0.10537648153E+04  0.00000000000E+00 0.  1.
         21   -1    0    0  502  503 -0.00000000000E+00 -0.00000000000E+00 -0.14233650265E+04  0.14233650265E+04  0.00000000000E+00 0. -1.
   -9000010    2    1    2    0  503  0.12873366307E+03  0.64903133568E+03  0.75469133069E+02  0.11924664400E+04  0.98917470137E+03 0.  0.
    9000010    2    1    2  501    0 -0.12873366307E+03 -0.64903133568E+03 -0.44506934430E+03  0.12846634018E+04  0.10072037053E+04 0.  0.
        -13    1    4    4    0    0 -0.27377789252E+03 -0.87810705272E+03 -0.25813021031E+03  0.95533111909E+03  0.10566000000E+00 0.  1.
         13    1    3    3    0    0 -0.48895950192E+02  0.31473672200E+03 -0.44601378056E+03  0.54806780761E+03  0.10566000000E+00 0. -1.
          4    1    4    4  501    0  0.14504422945E+03  0.22907571704E+03 -0.18693913399E+03  0.32933228273E+03  0.00000000000E+00 0.  1.
         -4    1    3    3    0  503  0.17762961326E+03  0.33429461368E+03  0.52148291363E+03  0.64439863241E+03  0.00000000000E+00 0. -1.
</event>
<event>
 8    1  0.7008488E-006  0.1170461E+04  0.7818608E-02  0.8631614E-01
         21   -1    0    0  501  502  0.00000000000E+00  0.00000000000E+00  0.11034808444E+04  0.11034808444E+04  0.00000000000E+00 0. -1.
         21   -1    0    0  502  503 -0.00000000000E+00 -0.00000000000E+00 -0.15717806093E+04  0.15717806093E+04  0.00000000000E+00 0. -1.
   -9000010    2    1    2    0  503  0.41557440385E+03 -0.36666641870E+03 -0.86060829414E+03  0.14527995414E+04  0.10309381765E+04 0.  0.
    9000010    2    1    2  501    0 -0.41557440385E+03  0.36666641870E+03  0.39230852932E+03  0.12224619123E+04  0.10165435539E+04 0.  0.
        -13    1    4    4    0    0 -0.17341152244E+03 -0.27943459093E+03  0.41815489807E+03  0.53198569216E+03  0.10566000000E+00 0.  1.
         13    1    3    3    0    0 -0.78931401058E+02 -0.61185705297E+03 -0.49181904282E+03  0.78897731361E+03  0.10566000000E+00 0. -1.
          4    1    4    4  501    0 -0.24216288142E+03  0.64610100963E+03 -0.25846368752E+02  0.69047622012E+03  0.00000000000E+00 0.  1.
         -4    1    3    3    0  503  0.49450580491E+03  0.24519063427E+03 -0.36878925132E+03  0.66382222780E+03  0.00000000000E+00 0. -1.
</event>
<event>
 8    1  0.7008488E-006  0.1104962E+04  0.7818608E-02  0.8683808E-01
         21   -1    0    0  501  502  0.00000000000E+00  0.00000000000E+00  0.13415030306E+04  0.13415030306E+04  0.00000000000E+00 0. -1.
         21   -1    0    0  502  503 -0.00000000000E+00 -0.00000000000E+00 -0.11490421714E+04  0.11490421714E+04  0.00000000000E+00 0. -1.
   -9000010    2    1    2    0  503  0.46460327343E+03  0.27019604513E+02 -0.48063463234E+03  0.12049694891E+04  0.10021754133E+04 0.  0.
    9000010    2    1    2  501    0 -0.46460327343E+03 -0.27019604513E+02  0.67309549149E+03  0.12855757130E+04  0.99149438344E+03 0.  0.
        -13    1    4    4    0    0  0.26772442918E+03 -0.18058149365E+03  0.33229964992E+03  0.46336714852E+03  0.10566000000E+00 0.  1.
         13    1    3    3    0    0 -0.18284954380E+03 -0.26744868292E+03 -0.35864930543E+03  0.48331365501E+03  0.10566000000E+00 0. -1.
          4    1    4    4  501    0 -0.73232770261E+03  0.15356188914E+03  0.34079584157E+03  0.82220856444E+03  0.00000000000E+00 0.  1.
         -4    1    3    3    0  503  0.64745281724E+03  0.29446828744E+03 -0.12198532691E+03  0.72165583406E+03  0.00000000000E+00 0. -1.
</event>
<event>
 8    1  0.7008488E-006  0.1123955E+04  0.7818608E-02  0.8671298E-01
         21   -1    0    0  503  502  0.00000000000E+00  0.00000000000E+00  0.11611514839E+04  0.11611514839E+04  0.00000000000E+00 0. -1.
         21   -1    0    0  501  503 -0.00000000000E+00 -0.00000000000E+00 -0.14492883101E+04  0.14492883101E+04  0.00000000000E+00 0. -1.
    9000010    2    1    2  501    0  0.35571267216E+03 -0.24839848061E+03 -0.81594052829E+03  0.13687262106E+04  0.10096629059E+04 0.  0.
   -9000010    2    1    2    0  502 -0.35571267216E+03  0.24839848061E+03  0.52780370212E+03  0.12417135833E+04  0.10368425940E+04 0.  0.
        -13    1    3    3    0    0 -0.30114775890E+03  0.93510729657E+02 -0.81345843049E+02  0.32565531870E+03  0.10566000000E+00 0.  1.
         13    1    4    4    0    0  0.36274413149E+03  0.17051945164E+03  0.20548676582E+03  0.45042758620E+03  0.10566000000E+00 0. -1.
          4    1    3    3  501    0  0.65686043106E+03 -0.34190921026E+03 -0.73459468524E+03  0.10430708919E+04  0.00000000000E+00 0.  1.
         -4    1    4    4    0  502 -0.71845680365E+03  0.77879028963E+02  0.32231693630E+03  0.79128599715E+03  0.00000000000E+00 0. -1.
</event>
<event>
 8    1  0.7008488E-006  0.1046804E+04  0.7818608E-02  0.8747999E-01
         21   -1    0    0  503  502  0.00000000000E+00  0.00000000000E+00  0.94312304766E+03  0.94312304766E+03  0.00000000000E+00 0.  1.
         21   -1    0    0  501  503 -0.00000000000E+00 -0.00000000000E+00 -0.11633692704E+04  0.11633692704E+04  0.00000000000E+00 0.  1.
    9000010    2    1    2  501    0 -0.29267205214E+03 -0.27191102968E+02 -0.38643367883E+03  0.11158535742E+04  0.10046899644E+04 0.  0.
   -9000010    2    1    2    0  502  0.29267205214E+03  0.27191102968E+02  0.16618745609E+03  0.99063874392E+03  0.93131657572E+03 0.  0.
        -13    1    3    3    0    0  0.36517388292E+03  0.83500556946E+02 -0.19236640228E+03  0.42110468018E+03  0.10566000000E+00 0.  1.
         13    1    4    4    0    0  0.19508866409E+03 -0.19538160838E+03 -0.33471261589E+03  0.43389642330E+03  0.10566000000E+00 0. -1.
          4    1    3    3  501    0 -0.65784593506E+03 -0.11069165991E+03 -0.19406727655E+03  0.69474889397E+03  0.00000000000E+00 0.  1.
         -4    1    4    4    0  502  0.97583388056E+02  0.22257271135E+03  0.50090007198E+03  0.55674232062E+03  0.00000000000E+00 0. -1.
</event>
<event>
 8    1  0.7008488E-006  0.1309742E+04  0.7818608E-02  0.8563632E-01
         21   -1    0    0  503  502  0.00000000000E+00  0.00000000000E+00  0.70568078423E+03  0.70568078423E+03  0.00000000000E+00 0.  1.
         21   -1    0    0  501  503 -0.00000000000E+00 -0.00000000000E+00 -0.20865934667E+04  0.20865934667E+04  0.00000000000E+00 0.  1.
    9000010    2    1    2  501    0 -0.49922700387E+03 -0.32243610799E+02 -0.63363819796E+03  0.12843472134E+04  0.99889095848E+03 0.  0.
   -9000010    2    1    2    0  502  0.49922700387E+03  0.32243610799E+02 -0.74727448454E+03  0.15079270375E+04  0.12104369225E+04 0.  0.
        -13    1    3    3    0    0 -0.37067117104E+03 -0.31573877385E+03  0.91301157206E+02  0.49540286921E+03  0.10566000000E+00 0.  1.
         13    1    4    4    0    0 -0.39152619863E+03 -0.11148651302E+03 -0.24917965030E+03  0.47729709415E+03  0.10566000000E+00 0. -1.
          4    1    3    3  501    0 -0.12855583283E+03  0.28349516305E+03 -0.72493935516E+03  0.78894434423E+03  0.00000000000E+00 0.  1.
         -4    1    4    4    0  502  0.89075320250E+03  0.14373012382E+03 -0.49809483424E+03  0.10306299434E+04  0.00000000000E+00 0. -1.
</event>
<event>
 8    1  0.7008488E-006  0.1197156E+04  0.7818608E-02  0.8617757E-01
         21   -1    0    0  501  502  0.00000000000E+00  0.00000000000E+00  0.15197818300E+04  0.15197818300E+04  0.00000000000E+00 0. -1.
         21   -1    0    0  502  503 -0.00000000000E+00 -0.00000000000E+00 -0.10377273460E+04  0.10377273460E+04  0.00000000000E+00 0. -1.
   -9000010    2    1    2    0  503 -0.50758733675E+03 -0.43715294466E+03 -0.20957729670E+03  0.12153617567E+04  0.99218645166E+03 0.  0.
    9000010    2    1    2  501    0  0.50758733675E+03  0.43715294466E+03  0.69163178071E+03  0.13421474194E+04  0.93501741896E+03 0.  0.
        -13    1    4    4    0    0  0.35711052657E+03  0.64638300774E+02  0.83906865968E+03  0.91418940320E+03  0.10566000000E+00 0.  1.
         13    1    3    3    0    0 -0.85917805575E+02  0.30947757998E+03 -0.15371132054E+03  0.35606940763E+03  0.10566000000E+00 0. -1.
          4    1    4    4  501    0  0.15047681018E+03  0.37251464389E+03 -0.14743687897E+03  0.42795801616E+03  0.00000000000E+00 0.  1.
         -4    1    3    3    0  503 -0.42166953118E+03 -0.74663052464E+03 -0.55865976160E+02  0.85929234905E+03  0.00000000000E+00 0. -1.
</event>
<event>
 8    1  0.7008488E-006  0.1190218E+04  0.7818608E-02  0.8614780E-01
         21   -1    0    0  501  502  0.00000000000E+00  0.00000000000E+00  0.11245527786E+04  0.11245527786E+04  0.00000000000E+00 0.  1.
         21   -1    0    0  502  503 -0.00000000000E+00 -0.00000000000E+00 -0.12620987973E+04  0.12620987973E+04  0.00000000000E+00 0.  1.
   -9000010    2    1    2    0  503  0.65696827101E+03  0.17436594806E+03  0.19367259710E+02  0.11903758159E+04  0.97704078697E+03 0.  0.
    9000010    2    1    2  501    0 -0.65696827101E+03 -0.17436594806E+03 -0.15691327835E+03  0.11962757600E+04  0.97182463647E+03 0.  0.
        -13    1    4    4    0    0  0.16121596861E+03 -0.11393918749E+03 -0.30430179420E+03  0.36272898988E+03  0.10566000000E+00 0.  1.
         13    1    3    3    0    0  0.23624231003E+03 -0.30590224737E+03  0.30359252069E+03  0.49148249590E+03  0.10566000000E+00 0. -1.
          4    1    4    4  501    0 -0.81818423962E+03 -0.60426760562E+02  0.14738851585E+03  0.83354677011E+03  0.00000000000E+00 0.  1.
         -4    1    3    3    0  503  0.42072596098E+03  0.48026819542E+03 -0.28422526098E+03  0.69889332001E+03  0.00000000000E+00 0. -1.
</event>
<event>
 8    1  0.7008488E-006  0.1036265E+04  0.7818608E-02  0.8743283E-01
         21   -1    0    0  503  502  0.00000000000E+00  0.00000000000E+00  0.60820824273E+03  0.60820824273E+03  0.00000000000E+00 0. -1.
         21   -1    0    0  501  503 -0.00000000000E+00 -0.00000000000E+00 -0.18001765267E+04  0.18001765267E+04  0.00000000000E+00 0. -1.
    9000010    2    1    2  501    0 -0.59823056656E+02  0.26688716639E+03 -0.39292141005E+03  0.10998282615E+04  0.99016534614E+03 0.  0.
   -9000010    2    1    2    0  502  0.59823056656E+02 -0.26688716639E+03 -0.79904687387E+03  0.13085565078E+04  0.99951821889E+03 0.  0.
        -13    1    3    3    0    0 -0.23823405608E+03  0.86869531005E+02 -0.67473345127E+03  0.72080997656E+03  0.10566000000E+00 0.  1.
         13    1    4    4    0    0 -0.17384261698E+03 -0.58537663256E+03 -0.63458943470E+03  0.88067634192E+03  0.10566000000E+00 0. -1.
          4    1    3    3  501    0  0.17841099943E+03  0.18001763539E+03  0.28181204121E+03  0.37901828497E+03  0.00000000000E+00 0.  1.
         -4    1    4    4    0  502  0.23366567364E+03  0.31848946617E+03 -0.16445743917E+03  0.42788016593E+03  0.00000000000E+00 0. -1.
</event>
<event>
 8    1  0.7008488E-006  0.1078123E+04  0.7818608E-02  0.8706549E-01
         21   -1    0    0  503  502  0.00000000000E+00  0.00000000000E+00  0.12054771409E+04  0.12054771409E+04  0.00000000000E+00 0. -1.
         21   -1    0    0  501  503 -0.00000000000E+00 -0.00000000000E+00 -0.95811329310E+03  0.95811329310E+03  0.00000000000E+00 0. -1.
    9000010    2    1    2  501    0  0.31020915805E+03 -0.19617741975E+03  0.67611551505E+02  0.10705858234E+04  0.10034278159E+04 0.  0.
   -9000010    2    1    2    0  502 -0.31020915805E+03  0.19617741975E+03  0.17975229630E+03  0.10930046106E+04  0.10137222938E+04 0.  0.
        -13    1    3    3    0    0 -0.16604879923E+03 -0.32515103364E+03  0.34689269683E+03  0.50361687092E+03  0.10566000000E+00 0.  1.
         13    1    4    4    0    0 -0.65543971414E+03  0.18377957659E+02  0.24356014705E+03  0.69947160385E+03  0.10566000000E+00 0. -1.
          4    1    3    3  501    0  0.47625795728E+03  0.12897361389E+03 -0.27928114532E+03  0.56696895249E+03  0.00000000000E+00 0.  1.
         -4    1    4    4    0  502  0.34523055609E+03  0.17779946209E+03 -0.63807850753E+02  0.39353300674E+03  0.00000000000E+00 0. -1.
</event>
<event>
 8    1  0.7008488E-006  0.1132250E+04  0.7818608E-02  0.8660255E-01
         21   -1    0    0  501  502  0.00000000000E+00  0.00000000000E+00  0.31141787705E+04  0.31141787705E+04  0.00000000000E+00 0. -1.
         21   -1    0    0  502  503 -0.00000000000E+00 -0.00000000000E+00 -0.43082873511E+03  0.43082873511E+03  0.00000000000E+00 0. -1.
   -9000010    2    1    2    0  503  0.42780767958E+03 -0.31577750677E+03  0.17325068175E+04  0.20696786884E+04  0.99962750861E+03 0.  0.
    9000010    2    1    2  501    0 -0.42780767958E+03  0.31577750677E+03  0.95084321786E+03  0.14753288172E+04  0.99486554340E+03 0.  0.
        -13    1    4    4    0    0 -0.40194595328E+03 -0.23245121720E+03  0.76685635713E+03  0.89647242086E+03  0.10566000000E+00 0.  1.
         13    1    3    3    0    0  0.56204215566E+03 -0.13824915745E+03  0.17530879821E+04  0.18461640497E+04  0.10566000000E+00 0. -1.
          4    1    4    4  501    0 -0.25861726300E+02  0.54822872397E+03  0.18398686074E+03  0.57885639635E+03  0.00000000000E+00 0.  1.
         -4    1    3    3    0  503 -0.13423447608E+03 -0.17752834932E+03 -0.20581164571E+02  0.22351463871E+03  0.00000000000E+00 0. -1.
</event>
<event>
 8    1  0.7008488E-006  0.1121157E+04  0.7818608E-02  0.8669895E-01
         21   -1    0    0  501  502  0.00000000000E+00  0.00000000000E+00  0.15655769806E+04  0.15655769806E+04  0.00000000000E+00 0.  1.
         21   -1    0    0  502  503 -0.00000000000E+00 -0.00000000000E+00 -0.91188847484E+03  0.91188847484E+03  0.00000000000E+00 0.  1.
   -9000010    2    1    2    0  503 -0.24696067702E+03 -0.44593541136E+03  0.76415459920E+03  0.13508796210E+04  0.99050266623E+03 0.  0.
    9000010    2    1    2  501    0  0.24696067702E+03  0.44593541136E+03 -0.11046609341E+03  0.11265858345E+04  0.99857143840E+03 0.  0.
        -13    1    4    4    0    0  0.39573314742E+03 -0.20865644091E+03 -0.73938741712E+01  0.44743369882E+03  0.10566000000E+00 0.  1.
         13    1    3    3    0    0 -0.37959933433E+03 -0.32154450693E+03 -0.65280953266E+02  0.50174509323E+03  0.10566000000E+00 0. -1.
          4    1    4    4  501    0 -0.14877247040E+03  0.65459185227E+03 -0.10307221924E+03  0.67915213567E+03  0.00000000000E+00 0.  1.
         -4    1    3    3    0  503  0.13263865731E+03 -0.12439090443E+03  0.82943555247E+03  0.84913452775E+03  0.00000000000E+00 0. -1.
</event>
<event>
 8    1  0.7008488E-006  0.1072006E+04  0.7818608E-02  0.8710162E-01
         21   -1    0    0  501  502  0.00000000000E+00  0.00000000000E+00  0.12725274786E+04  0.12725274786E+04  0.00000000000E+00 0. -1.
         21   -1    0    0  502  503 -0.00000000000E+00 -0.00000000000E+00 -0.93492570603E+03  0.93492570603E+03  0.00000000000E+00 0. -1.
   -9000010    2    1    2    0  503 -0.37913474380E+03 -0.78016427831E+02 -0.40373526244E+02  0.10707639214E+04  0.99753477969E+03 0.  0.
    9000010    2    1    2  501    0  0.37913474380E+03  0.78016427831E+02  0.37797529885E+03  0.11366892633E+04  0.99968366888E+03 0.  0.
        -13    1    4    4    0    0 -0.82810815796E+02  0.26158433087E+03 -0.22528367164E+03  0.35501653094E+03  0.10566000000E+00 0.  1.
         13    1    3    3    0    0 -0.25148877963E+02 -0.76138346640E+02  0.45494300446E+03  0.46195526013E+03  0.10566000000E+00 0. -1.
          4    1    4    4  501    0  0.46194555960E+03 -0.18356790304E+03  0.60325897050E+03  0.78167273238E+03  0.00000000000E+00 0.  1.
         -4    1    3    3    0  503 -0.35398586584E+03 -0.18780811912E+01 -0.49531653070E+03  0.60880866123E+03  0.00000000000E+00 0. -1.
</event>
<event>
 8    1  0.7008488E-006  0.1026260E+04  0.7818608E-02  0.8771602E-01
         21   -1    0    0  503  502  0.00000000000E+00  0.00000000000E+00  0.93837420509E+03  0.93837420509E+03  0.00000000000E+00 0.  1.
         21   -1    0    0  501  503 -0.00000000000E+00 -0.00000000000E+00 -0.10875705112E+04  0.10875705112E+04  0.00000000000E+00 0.  1.
    9000010    2    1    2  501    0 -0.21010220685E+03  0.15735423115E+01  0.16118321861E+03  0.10388406008E+04  0.10045219512E+04 0.  0.
   -9000010    2    1    2    0  502  0.21010220685E+03 -0.15735423115E+01 -0.31037952473E+03  0.98710411556E+03  0.91317778785E+03 0.  0.
        -13    1    3    3    0    0  0.36695680694E+03 -0.18466813074E+03  0.13307742739E+03  0.43182083034E+03  0.10566000000E+00 0.  1.
         13    1    4    4    0    0  0.23781786706E+03  0.40566626657E+03  0.66242166271E+01  0.47028326478E+03  0.10566000000E+00 0. -1.
          4    1    3    3  501    0 -0.57705901379E+03  0.18624167305E+03  0.28105791216E+02  0.60701977042E+03  0.00000000000E+00 0.  1.
         -4    1    4    4    0  502 -0.27715660202E+02 -0.40723980888E+03 -0.31700374136E+03  0.51682085077E+03  0.00000000000E+00 0. -1.
</event>
<event>
 8    1  0.7008488E-006  0.1073831E+04  0.7818608E-02  0.8710932E-01
         21   -1    0    0  501  502  0.00000000000E+00  0.00000000000E+00  0.48991319518E+03  0.48991319518E+03  0.00000000000E+00 0.  1.
         21   -1    0    0  502  503 -0.00000000000E+00 -0.00000000000E+00 -0.23259015765E+04  0.23259015765E+04  0.00000000000E+00 0.  1.
   -9000010    2    1    2    0  503 -0.30837953561E+02  0.36650378372E+03 -0.92497032473E+03  0.14076007121E+04  0.99523547973E+03 0.  0.
    9000010    2    1    2  501    0  0.30837953561E+02 -0.36650378372E+03 -0.91101805664E+03  0.14082140597E+04  0.10088790490E+04 0.  0.
        -13    1    4    4    0    0  0.35889958319E+03 -0.51884441422E+03 -0.82113691447E+03  0.10355067747E+04  0.10566000000E+00 0.  1.
         13    1    3    3    0    0  0.35383793598E+03  0.43555060280E+03 -0.83583718414E+03  0.10067419839E+04  0.10566000000E+00 0. -1.
          4    1    4    4  501    0 -0.32806162963E+03  0.15234063050E+03 -0.89881142165E+02  0.37270728495E+03  0.00000000000E+00 0.  1.
         -4    1    3    3    0  503 -0.38467588954E+03 -0.69046819077E+02 -0.89133140597E+02  0.40085872820E+03  0.00000000000E+00 0. -1.
</event>
<event>
 8    1  0.7008488E-006  0.1098507E+04  0.7818608E-02  0.8687759E-01
         21   -1    0    0  501  502  0.00000000000E+00  0.00000000000E+00  0.94765578689E+03  0.94765578689E+03  0.00000000000E+00 0.  1.
         21   -1    0    0  502  503 -0.00000000000E+00 -0.00000000000E+00 -0.12945664484E+04  0.12945664484E+04  0.00000000000E+00 0.  1.
   -9000010    2    1    2    0  503  0.49349127253E+03  0.93975604707E+02 -0.32716730243E+03  0.11435382649E+04  0.97379477777E+03 0.  0.
    9000010    2    1    2  501    0 -0.49349127253E+03 -0.93975604707E+02 -0.19743359118E+02  0.10986839704E+04  0.97690921598E+03 0.  0.
        -13    1    4    4    0    0 -0.70076659667E+03  0.16402997952E+02 -0.27396791448E+03  0.75259637966E+03  0.10566000000E+00 0.  1.
         13    1    3    3    0    0  0.31073628162E+03  0.52709309315E+03 -0.94873679847E+02  0.61918106549E+03  0.10566000000E+00 0. -1.
          4    1    4    4  501    0  0.20727532414E+03 -0.11037860266E+03  0.25422455536E+03  0.34608759075E+03  0.00000000000E+00 0.  1.
         -4    1    3    3    0  503  0.18275499091E+03 -0.43311748845E+03 -0.23229362258E+03  0.52435719943E+03  0.00000000000E+00 0. -1.
</event>
<event>
 8    1  0.7008488E-006  0.1092691E+04  0.7818608E-02  0.8694124E-01
         21   -1    0    0  503  502  0.00000000000E+00  0.00000000000E+00  0.92432097352E+03  0.92432097352E+03  0.00000000000E+00 0.  1.
         21   -1    0    0  501  503 -0.00000000000E+00 -0.00000000000E+00 -0.12898126058E+04  0.12898126058E+04  0.00000000000E+00 0.  1.
    9000010    2    1    2  501    0  0.43643189114E+03 -0.17088227443E+03 -0.86852887476E+02  0.10864751162E+04  0.97632535910E+03 0.  0.
   -9000010    2    1    2    0  502 -0.43643189114E+03  0.17088227443E+03 -0.27863874480E+03  0.11276584631E+04  0.98706661980E+03 0.  0.
        -13    1    3    3    0    0  0.36474661013E+03  0.11458808714E+03 -0.46838083123E+03  0.60460824799E+03  0.10566000000E+00 0.  1.
         13    1    4    4    0    0 -0.50067300138E+03  0.43588859035E+03  0.89171853189E+02  0.66979395942E+03  0.10566000000E+00 0. -1.
          4    1    3    3  501    0  0.71685281016E+02 -0.28547036157E+03  0.38152794376E+03  0.48186686825E+03  0.00000000000E+00 0.  1.
         -4    1    4    4    0  502  0.64241110242E+02 -0.26500631592E+03 -0.36781059798E+03  0.45786450366E+03  0.00000000000E+00 0. -1.
</event>
<event>
 8    1  0.7008488E-006  0.1169040E+04  0.7818608E-02  0.8642788E-01
         21   -1    0    0  503  502  0.00000000000E+00  0.00000000000E+00  0.13278169978E+04  0.13278169978E+04  0.00000000000E+00 0. -1.
         21   -1    0    0  501  503 -0.00000000000E+00 -0.00000000000E+00 -0.10560914560E+04  0.10560914560E+04  0.00000000000E+00 0.  1.
    9000010    2    1    2  501    0  0.21699853129E+03  0.59543911133E+03 -0.19127565753E+03  0.11845842564E+04  0.98235298409E+03 0.  0.
   -9000010    2    1    2    0  502 -0.21699853129E+03 -0.59543911133E+03  0.46300119927E+03  0.11993241974E+04  0.90684746353E+03 0.  0.
        -13    1    3    3    0    0  0.60237955930E+03  0.26411514740E+03 -0.65250470988E+02  0.66096564183E+03  0.10566000000E+00 0.  1.
         13    1    4    4    0    0  0.14207686022E+03 -0.71283382740E+03  0.33610899381E+03  0.80080407503E+03  0.10566000000E+00 0. -1.
          4    1    3    3  501    0 -0.38538102802E+03  0.33132396393E+03 -0.12602518654E+03  0.52361861452E+03  0.00000000000E+00 0.  1.
         -4    1    4    4    0  502 -0.35907539150E+03  0.11739471607E+03  0.12689220546E+03  0.39852012239E+03  0.00000000000E+00 0. -1.
</event>
<event>
 8    1  0.7008488E-006  0.1578064E+04  0.7818608E-02  0.8367448E-01
         21   -1    0    0  501  502  0.00000000000E+00  0.00000000000E+00  0.13681928804E+04  0.13681928804E+04  0.00000000000E+00 0. -1.
         21   -1    0    0  502  503 -0.00000000000E+00 -0.00000000000E+00 -0.19672531922E+04  0.19672531922E+04  0.00000000000E+00 0. -1.
   -9000010    2    1    2    0  503  0.11759684866E+04  0.30493529091E+03 -0.77405973097E+03  0.17477086577E+04  0.98966139263E+03 0.  0.
    9000010    2    1    2  501    0 -0.11759684866E+04 -0.30493529091E+03  0.17499941922E+03  0.15877374149E+04  0.10071732170E+04 0.  0.
        -13    1    4    4    0    0 -0.95978395789E+03  0.11193796170E+03 -0.20001812375E+03  0.98677384140E+03  0.10566000000E+00 0.  1.
         13    1    3    3    0    0  0.66006420421E+03  0.36724397819E+02 -0.93434037666E+03  0.11445634040E+04  0.10566000000E+00 0. -1.
          4    1    4    4  501    0 -0.21618452868E+03 -0.41687325261E+03  0.37501754297E+03  0.60096357354E+03  0.00000000000E+00 0.  1.
         -4    1    3    3    0  503  0.51590428235E+03  0.26821089309E+03  0.16028064569E+03  0.60314525374E+03  0.00000000000E+00 0. -1.
</event>
<event>
 8    1  0.7008488E-006  0.1165883E+04  0.7818608E-02  0.8634639E-01
         21   -1    0    0  501  502  0.00000000000E+00  0.00000000000E+00  0.77502449599E+03  0.77502449599E+03  0.00000000000E+00 0.  1.
         21   -1    0    0  502  503 -0.00000000000E+00 -0.00000000000E+00 -0.17874686704E+04  0.17874686704E+04  0.00000000000E+00 0.  1.
   -9000010    2    1    2    0  503 -0.54094273594E+03 -0.24319627178E+03 -0.71921342983E+03  0.13698725383E+04  0.10037526306E+04 0.  0.
    9000010    2    1    2  501    0  0.54094273594E+03  0.24319627178E+03 -0.29323074458E+03  0.11926206281E+04  0.99226822119E+03 0.  0.
        -13    1    4    4    0    0 -0.16115608232E+02  0.48621264075E+03  0.59201330892E+02  0.49006862131E+03  0.10566000000E+00 0.  1.
         13    1    3    3    0    0 -0.65188583987E+03  0.21835212639E+03 -0.37138612902E+03  0.78138368764E+03  0.10566000000E+00 0. -1.
          4    1    4    4  501    0  0.55705834417E+03 -0.24301636897E+03 -0.35243207547E+03  0.70255200677E+03  0.00000000000E+00 0.  1.
         -4    1    3    3    0  503  0.11094310393E+03 -0.46154839817E+03 -0.34782730080E+03  0.58848885066E+03  0.00000000000E+00 0. -1.
</event>
<event>
 8    1  0.7008488E-006  0.1053000E+04  0.7818608E-02  0.8726479E-01
         21   -1    0    0  501  502  0.00000000000E+00  0.00000000000E+00  0.44759152039E+03  0.44759152039E+03  0.00000000000E+00 0.  1.
         21   -1    0    0  502  503 -0.00000000000E+00 -0.00000000000E+00 -0.24759272400E+04  0.24759272400E+04  0.00000000000E+00 0.  1.
   -9000010    2    1    2    0  503  0.11289397064E+03  0.30792207265E+03 -0.10291801840E+04  0.14719260353E+04  0.99989667001E+03 0.  0.
    9000010    2    1    2  501    0 -0.11289397064E+03 -0.30792207265E+03 -0.99915553559E+03  0.14515927251E+04  0.10006241072E+04 0.  0.
        -13    1    4    4    0    0  0.40294023198E+03 -0.10980199921E+03 -0.16081468861E+03  0.44752506613E+03  0.10566000000E+00 0.  1.
         13    1    3    3    0    0  0.67419904645E+02 -0.16052713993E+03 -0.98380461532E+03  0.99909255751E+03  0.10566000000E+00 0. -1.
          4    1    4    4  501    0 -0.51583420262E+03 -0.19812007344E+03 -0.83834084698E+03  0.10040676590E+04  0.00000000000E+00 0.  1.
         -4    1    3    3    0  503  0.45474065997E+02  0.46844921258E+03 -0.45375568687E+02  0.47283347775E+03  0.00000000000E+00 0. -1.
</event>
<event>
 8    1  0.7008488E-006  0.1147169E+04  0.7818608E-02  0.8648761E-01
         21   -1    0    0  503  502  0.00000000000E+00  0.00000000000E+00  0.17526396659E+04  0.17526396659E+04  0.00000000000E+00 0. -1.
         21   -1    0    0  501  503 -0.00000000000E+00 -0.00000000000E+00 -0.83892304548E+03  0.83892304548E+03  0.00000000000E+00 0. -1.
    9000010    2    1    2  501    0 -0.26932060770E+03 -0.47982347723E+03  0.25708862114E+02  0.11408546864E+04  0.99906171522E+03 0.  0.
   -9000010    2    1    2    0  502  0.26932060770E+03  0.47982347723E+03  0.88800775834E+03  0.14507080250E+04  0.10065941764E+04 0.  0.
        -13    1    3    3    0    0 -0.54820507544E+03 -0.34158164017E+03  0.31256276701E+03  0.71756694192E+03  0.10566000000E+00 0.  1.
         13    1    4    4    0    0 -0.21575020944E+03  0.55797255957E+03  0.70929239420E+03  0.92788859339E+03  0.10566000000E+00 0. -1.
          4    1    3    3  501    0  0.27888446774E+03 -0.13824183705E+03 -0.28685390490E+03  0.42328774447E+03  0.00000000000E+00 0.  1.
         -4    1    4    4    0  502  0.48507081714E+03 -0.78149082339E+02  0.17871536413E+03  0.52281943163E+03  0.00000000000E+00 0. -1.
</event>
<event>
 8    1  0.7008488E-006  0.1109324E+04  0.7818608E-02  0.8680878E-01
         21   -1    0    0  501  502  0.00000000000E+00  0.00000000000E+00  0.12003299860E+04  0.12003299860E+04  0.00000000000E+00 0.  1.
         21   -1    0    0  502  503 -0.00000000000E+00 -0.00000000000E+00 -0.11685049942E+04  0.11685049942E+04  0.00000000000E+00 0.  1.
   -9000010    2    1    2    0  503  0.15476440033E+02  0.47099967131E+03 -0.41578559808E+03  0.11846842208E+04  0.10042503815E+04 0.  0.
    9000010    2    1    2  501    0 -0.15476440033E+02 -0.47099967131E+03  0.44761058993E+03  0.11841507594E+04  0.98983714326E+03 0.  0.
        -13    1    4    4    0    0 -0.44683993943E+03 -0.40627145074E+03  0.71395286849E+02  0.60812804680E+03  0.10566000000E+00 0.  1.
         13    1    3    3    0    0 -0.32516653954E+03  0.63475033067E+03 -0.37148065525E+03  0.80413876234E+03  0.10566000000E+00 0. -1.
          4    1    4    4  501    0  0.43136349940E+03 -0.64728220572E+02  0.37621530308E+03  0.57602271259E+03  0.00000000000E+00 0.  1.
         -4    1    3    3    0  503  0.34064297957E+03 -0.16375065936E+03 -0.44304942826E+02  0.38054545843E+03  0.00000000000E+00 0. -1.
</event>
<event>
 8    1  0.7008488E-006  0.1037402E+04  0.7818608E-02  0.8746858E-01
         21   -1    0    0  503  502  0.00000000000E+00  0.00000000000E+00  0.14053338057E+04  0.14053338057E+04  0.00000000000E+00 0. -1.
         21   -1    0    0  501  503 -0.00000000000E+00 -0.00000000000E+00 -0.76455318550E+03  0.76455318550E+03  0.00000000000E+00 0. -1.
    9000010    2    1    2  501    0  0.42612240629E+02 -0.14972220310E+03  0.14901768543E+03  0.10480501127E+04  0.10256559984E+04 0.  0.
   -9000010    2    1    2    0  502 -0.42612240629E+02  0.14972220310E+03  0.49176293481E+03  0.11218368785E+04  0.99622018489E+03 0.  0.
        -13    1    3    3    0    0  0.25824658312E+03 -0.19383171149E+03 -0.36593803292E+03  0.48802938966E+03  0.10566000000E+00 0.  1.
         13    1    4    4    0    0 -0.70068200017E+02  0.39148669355E+03  0.69768379841E+03  0.80307787767E+03  0.10566000000E+00 0. -1.
          4    1    3    3  501    0 -0.21563434249E+03  0.44109508389E+02  0.51495571835E+03  0.56002072306E+03  0.00000000000E+00 0.  1.
         -4    1    4    4    0  502  0.27455959387E+02 -0.24176449045E+03 -0.20592086360E+03  0.31875900084E+03  0.00000000000E+00 0. -1.
</event>
<event>
 8    1  0.7008488E-006  0.1059795E+04  0.7818608E-02  0.8726334E-01
         21   -1    0    0  501  502  0.00000000000E+00  0.00000000000E+00  0.91924090200E+03  0.91924090200E+03  0.00000000000E+00 0. -1.
         21   -1    0    0  502  503 -0.00000000000E+00 -0.00000000000E+00 -0.13067208831E+04  0.13067208831E+04  0.00000000000E+00 0. -1.
   -9000010    2    1    2    0  503  0.11651174418E+03  0.25051874845E+03 -0.52725194169E+03  0.11837059273E+04  0.10231473415E+04 0.  0.
    9000010    2    1    2  501    0 -0.11651174418E+03 -0.25051874845E+03  0.13977196055E+03  0.10422558579E+04  0.99520170942E+03 0.  0.
        -13    1    4    4    0    0 -0.44475243012E+03  0.18570070309E+03  0.11647366389E+03  0.49583828087E+03  0.10566000000E+00 0.  1.
         13    1    3    3    0    0 -0.14399908202E+03  0.37837852035E+03  0.16183927655E+03  0.43600229688E+03  0.10566000000E+00 0. -1.
          4    1    4    4  501    0  0.32824068594E+03 -0.43621945155E+03  0.23298296668E+02  0.54641757699E+03  0.00000000000E+00 0.  1.
         -4    1    3    3    0  503  0.26051082620E+03 -0.12785977190E+03 -0.68909121824E+03  0.74770363039E+03  0.00000000000E+00 0. -1.
</event>
<event>
 8    1  0.7008488E-006  0.1146444E+04  0.7818608E-02  0.8649893E-01
         21   -1    0    0  503  502  0.00000000000E+00  0.00000000000E+00  0.14914166002E+04  0.14914166002E+04  0.00000000000E+00 0.  1.
         21   -1    0    0  501  503 -0.00000000000E+00 -0.00000000000E+00 -0.89963014986E+03  0.89963014986E+03  0.00000000000E+00 0.  1.
    9000010    2    1    2  501    0 -0.41009597665E+03  0.35143157601E+03  0.95594835476E+02  0.11504226491E+04  0.10112621006E+04 0.  0.
   -9000010    2    1    2    0  502  0.41009597665E+03 -0.35143157601E+03  0.49619161488E+03  0.12406241010E+04  0.10006293913E+04 0.  0.
        -13    1    3    3    0    0 -0.29191332370E+03  0.47372816566E+01  0.51597968227E+03  0.59284979048E+03  0.10566000000E+00 0.  1.
         13    1    4    4    0    0  0.55671252964E+03  0.12718268365E+03  0.55567527689E+02  0.57375259213E+03  0.10566000000E+00 0. -1.
          4    1    3    3  501    0 -0.11818265295E+03  0.34669429436E+03 -0.42038484680E+03  0.55757285857E+03  0.00000000000E+00 0.  1.
         -4    1    4    4    0  502 -0.14661655300E+03 -0.47861425966E+03  0.44062408719E+03  0.66687150890E+03  0.00000000000E+00 0. -1.
</event>
<event>
 8    1  0.7008488E-006  0.1165446E+04  0.7818608E-02  0.8640567E-01
         21   -1    0    0  501  502  0.00000000000E+00  0.00000000000E+00  0.75181792041E+03  0.75181792041E+03  0.00000000000E+00 0. -1.
         21   -1    0    0  502  503 -0.00000000000E+00 -0.00000000000E+00 -0.17670206098E+04  0.17670206098E+04  0.00000000000E+00 0. -1.
   -9000010    2    1    2    0  503 -0.17497433458E+03  0.56938244675E+03 -0.64525880473E+03  0.13321500494E+04  0.10017247330E+04 0.  0.
    9000010    2    1    2  501    0  0.17497433458E+03 -0.56938244675E+03 -0.36994388464E+03  0.11866884808E+04  0.95737071406E+03 0.  0.
        -13    1    4    4    0    0 -0.11361009509E+03 -0.75230124760E+03 -0.36766054635E+03  0.84500811201E+03  0.10566000000E+00 0.  1.
         13    1    3    3    0    0 -0.32709956403E+03  0.66016654175E+03 -0.80667057077E+03  0.10924886309E+04  0.10566000000E+00 0. -1.
          4    1    4    4  501    0  0.28858442967E+03  0.18291880085E+03 -0.22833382927E+01  0.34168036875E+03  0.00000000000E+00 0.  1.
         -4    1    3    3    0  503  0.15212522945E+03 -0.90784095003E+02  0.16141176604E+03  0.23966141858E+03  0.00000000000E+00 0. -1.
</event>
<event>
 8    1  0.7008488E-006  0.1106238E+04  0.7818608E-02  0.8681937E-01
         21   -1    0    0  503  502  0.00000000000E+00  0.00000000000E+00  0.57120063472E+03  0.57120063472E+03  0.00000000000E+00 0.  1.
         21   -1    0    0  501  503 -0.00000000000E+00 -0.00000000000E+00 -0.22101431118E+04  0.22101431118E+04  0.00000000000E+00 0.  1.
    9000010    2    1    2  501    0  0.25721770724E+03 -0.39487121565E+03 -0.10844316790E+04  0.15491137718E+04  0.10008382415E+04 0.  0.
   -9000010    2    1    2    0  502 -0.25721770724E+03  0.39487121565E+03 -0.55451079808E+03  0.12322299748E+04  0.99439642983E+03 0.  0.
        -13    1    3    3    0    0 -0.35870204266E+03 -0.28162519095E+03 -0.30222534066E+03  0.54710151827E+03  0.10566000000E+00 0.  1.
         13    1    4    4    0    0 -0.16133775761E+03  0.13811633553E+03 -0.82215947912E+03  0.84914793437E+03  0.10566000000E+00 0. -1.
          4    1    3    3  501    0  0.61591974990E+03 -0.11324602469E+03 -0.78220633838E+03  0.10020122535E+04  0.00000000000E+00 0.  1.
         -4    1    4    4    0  502 -0.95879949630E+02  0.25675488012E+03  0.26764868105E+03  0.38308204039E+03  0.00000000000E+00 0. -1.
</event>
<event>
 8    1  0.7008488E-006  0.1124021E+04  0.7818608E-02  0.8667266E-01
         21   -1    0    0  503  502  0.00000000000E+00  0.00000000000E+00  0.68249557287E+03  0.68249557287E+03  0.00000000000E+00 0.  1.
         21   -1    0    0  501  503 -0.00000000000E+00 -0.00000000000E+00 -0.20213323103E+04  0.20213323103E+04  0.00000000000E+00 0.  1.
    9000010    2    1    2  501    0  0.52573015047E+01  0.50949813927E+03 -0.26479442063E+03  0.11491607450E+04  0.99540862944E+03 0.  0.
   -9000010    2    1    2    0  502 -0.52573015047E+01 -0.50949813927E+03 -0.10740423168E+04  0.15546671382E+04  0.10019017013E+04 0.  0.
        -13    1    3    3    0    0 -0.17131093849E+03 -0.26698134729E+03 -0.12355736770E+03  0.34043048002E+03  0.10566000000E+00 0.  1.
         13    1    4    4    0    0  0.44921595596E+03 -0.37671809472E+03 -0.84562360701E+03  0.10289756041E+04  0.10566000000E+00 0. -1.
          4    1    3    3  501    0  0.17656823999E+03  0.77647948656E+03 -0.14123705293E+03  0.80873026501E+03  0.00000000000E+00 0.  1.
         -4    1    4    4    0  502 -0.45447325746E+03 -0.13278004455E+03 -0.22841870982E+03  0.52569153405E+03  0.00000000000E+00 0. -1.
</event>
<event>
 8    1  0.7008488E-006  0.1256918E+04  0.7818608E-02  0.8566456E-01
         21   -1    0    0  503  502  0.00000000000E+00  0.00000000000E+00  0.16021389657E+04  0.16021389657E+04  0.00000000000E+00 0.  1.
         21   -1    0    0  501  503 -0.00000000000E+00 -0.00000000000E+00 -0.10552947672E+04  0.10552947672E+04  0.00000000000E+00 0.  1.
    9000010    2    1    2  501    0  0.74189261650E+03 -0.84082593367E+02  0.62927465465E+03  0.13978161315E+04  0.10002143818E+04 0.  0.
   -9000010    2    1    2    0  502 -0.74189261650E+03  0.84082593367E+02 -0.82430456146E+02  0.12596176015E+04  0.10111217458E+04 0.  0.
        -13    1    3    3    0    0  0.56387563247E+03  0.27737036417E+03  0.74880498525E+03  0.97754742336E+03  0.10566000000E+00 0.  1.
         13    1    4    4    0    0 -0.64450013610E+03 -0.38400511240E+03 -0.18030657968E+03  0.77158980399E+03  0.10566000000E+00 0. -1.
          4    1    3    3  501    0  0.17801698403E+03 -0.36145295754E+03 -0.11953033060E+03  0.42026870815E+03  0.00000000000E+00 0.  1.
         -4    1    4    4    0  502 -0.97392480404E+02  0.46808770577E+03  0.97876123536E+02  0.48802779746E+03  0.00000000000E+00 0. -1.
</event>
<event>
 8    1  0.7008488E-006  0.1192800E+04  0.7818608E-02  0.8616325E-01
         21   -1    0    0  501  502  0.00000000000E+00  0.00000000000E+00  0.15093756420E+04  0.15093756420E+04  0.00000000000E+00 0. -1.
         21   -1    0    0  502  503 -0.00000000000E+00 -0.00000000000E+00 -0.95014199451E+03  0.95014199451E+03  0.00000000000E+00 0. -1.
   -9000010    2    1    2    0  503 -0.41765214341E+03  0.42715347007E+03  0.48272461704E+03  0.12867771612E+04  0.10324141643E+04 0.  0.
    9000010    2    1    2  501    0  0.41765214341E+03 -0.42715347007E+03  0.76509030469E+02  0.11727404754E+04  0.10062669581E+04 0.  0.
        -13    1    4    4    0    0  0.71083635226E+03 -0.19005081658E+03  0.22203015185E+03  0.76857337455E+03  0.10566000000E+00 0.  1.
         13    1    3    3    0    0  0.14373912598E+03  0.54638776511E+03  0.43086607104E+03  0.71052523427E+03  0.10566000000E+00 0. -1.
          4    1    4    4  501    0 -0.29318420884E+03 -0.23710265349E+03 -0.14552112138E+03  0.40416710081E+03  0.00000000000E+00 0.  1.
         -4    1    3    3    0  503 -0.56139126939E+03 -0.11923429504E+03  0.51858546001E+02  0.57625192690E+03  0.00000000000E+00 0. -1.
</event>
<event>
 8    1  0.7008488E-006  0.1110468E+04  0.7818608E-02  0.8682153E-01
         21   -1    0    0  503  502  0.00000000000E+00  0.00000000000E+00  0.64876016572E+03  0.64876016572E+03  0.00000000000E+00 0. -1.
         21   -1    0    0  501  503 -0.00000000000E+00 -0.00000000000E+00 -0.18980049685E+04  0.18980049685E+04  0.00000000000E+00 0. -1.
    9000010    2    1    2  501    0 -0.37817951928E+03 -0.29247232889E+03 -0.79685268126E+03  0.13476826762E+04  0.97607099537E+03 0.  0.
   -9000010    2    1    2    0  502  0.37817951928E+03  0.29247232889E+03 -0.45239212154E+03  0.11990824581E+04  0.10022875324E+04 0.  0.
        -13    1    3    3    0    0 -0.12946483565E+03 -0.59824320358E+03 -0.72190654572E+03  0.94646983376E+03  0.10566000000E+00 0.  1.
         13    1    4    4    0    0 -0.29130693901E+03 -0.38382549217E+02 -0.33083562685E+03  0.44247618689E+03  0.10566000000E+00 0. -1.
          4    1    3    3  501    0 -0.24871468364E+03  0.30577087469E+03 -0.74946135540E+02  0.40121284239E+03  0.00000000000E+00 0.  1.
         -4    1    4    4    0  502  0.66948645830E+03  0.33085487811E+03 -0.12155649469E+03  0.75660627120E+03  0.00000000000E+00 0. -1.
</event>
<event>
 8    1  0.7008488E-006  0.1559983E+04  0.7818608E-02  0.8378568E-01
         21   -1    0    0  501  502  0.00000000000E+00  0.00000000000E+00  0.23036182789E+04  0.23036182789E+04  0.00000000000E+00 0.  1.
         21   -1    0    0  502  503 -0.00000000000E+00 -0.00000000000E+00 -0.10461975908E+04  0.10461975908E+04  0.00000000000E+00 0. -1.
   -9000010    2    1    2    0  503 -0.11906737055E+04  0.24714729765E+01  0.53781946667E+03  0.16500895307E+04  0.10078867493E+04 0.  0.
    9000010    2    1    2  501    0  0.11906737055E+04 -0.24714729765E+01  0.71960122141E+03  0.16997263389E+04  0.97649051611E+03 0.  0.
        -13    1    4    4    0    0  0.10453380729E+03  0.35899482094E+03  0.30405180851E+03  0.48192542135E+03  0.10566000000E+00 0.  1.
         13    1    3    3    0    0  0.15152785546E+03  0.10624158304E+03 -0.32789676574E+02  0.18794451043E+03  0.10566000000E+00 0. -1.
          4    1    4    4  501    0  0.10861398983E+04 -0.36146629391E+03  0.41554941291E+03  0.12178009176E+04  0.00000000000E+00 0.  1.
         -4    1    3    3    0  503 -0.13422015610E+04 -0.10377011007E+03  0.57060914324E+03  0.14621450203E+04  0.00000000000E+00 0. -1.
</event>
<event>
 8    1  0.7008488E-006  0.1724813E+04  0.7818608E-02  0.8291106E-01
         21   -1    0    0  501  502  0.00000000000E+00  0.00000000000E+00  0.26969655634E+04  0.26969655634E+04  0.00000000000E+00 0. -1.
         21   -1    0    0  502  503 -0.00000000000E+00 -0.00000000000E+00 -0.15428380901E+04  0.15428380901E+04  0.00000000000E+00 0.  1.
   -9000010    2    1    2    0  503  0.42616770409E+03 -0.13326433719E+04 -0.55709066927E+03  0.18125481135E+04  0.10086740708E+04 0.  0.
    9000010    2    1    2  501    0 -0.42616770409E+03  0.13326433719E+04  0.17112181426E+04  0.24272555400E+04  0.10028682148E+04 0.  0.
        -13    1    4    4    0    0  0.33022182591E+03  0.46432784558E+03  0.55519275663E+03  0.79554120614E+03  0.10566000000E+00 0.  1.
         13    1    3    3    0    0 -0.38074010454E+01 -0.89175741834E+03  0.11710565845E+03  0.89942177863E+03  0.10566000000E+00 0. -1.
          4    1    4    4  501    0 -0.75638953000E+03  0.86831552633E+03  0.11560253860E+04  0.16317143339E+04  0.00000000000E+00 0.  1.
         -4    1    3    3    0  503  0.42997510513E+03 -0.44088595357E+03 -0.67419632772E+03  0.91312633485E+03  0.00000000000E+00 0. -1.
</event>
<event>
 8    1  0.7008488E-006  0.1114756E+04  0.7818608E-02  0.8674091E-01
         21   -1    0    0  501  502  0.00000000000E+00  0.00000000000E+00  0.91426603558E+03  0.91426603558E+03  0.00000000000E+00 0. -1.
         21   -1    0    0  502  503 -0.00000000000E+00 -0.00000000000E+00 -0.13576095088E+04  0.13576095088E+04  0.00000000000E+00 0. -1.
   -9000010    2    1    2    0  503 -0.41003798309E+03 -0.25422268960E+03 -0.19334757263E+03  0.11313989548E+04  0.10049477536E+04 0.  0.
    9000010    2    1    2  501    0  0.41003798309E+03  0.25422268960E+03 -0.24999590062E+03  0.11404765897E+04  0.10027106152E+04 0.  0.
        -13    1    4    4    0    0  0.76548456294E+02 -0.25887674343E+03  0.23634903963E+03  0.35880038203E+03  0.10566000000E+00 0.  1.
         13    1    3    3    0    0  0.17695957896E+03 -0.43533499680E+02  0.28990109774E+03  0.34242154695E+03  0.10566000000E+00 0. -1.
          4    1    4    4  501    0  0.33348952680E+03  0.51309943302E+03 -0.48634494025E+03  0.78167620762E+03  0.00000000000E+00 0.  1.
         -4    1    3    3    0  503 -0.58699756205E+03 -0.21068918992E+03 -0.48324867038E+03  0.78897740780E+03  0.00000000000E+00 0. -1.
</event>
<event>
 8    1  0.7008488E-006  0.1181728E+04  0.7818608E-02  0.8654292E-01
         21   -1    0    0  503  502  0.00000000000E+00  0.00000000000E+00  0.83906649314E+03  0.83906649314E+03  0.00000000000E+00 0. -1.
         21   -1    0    0  501  503 -0.00000000000E+00 -0.00000000000E+00 -0.15497034254E+04  0.15497034254E+04  0.00000000000E+00 0. -1.
    9000010    2    1    2  501    0  0.18341609109E+03  0.63459023515E+03 -0.64443629572E+03  0.12051892630E+04  0.77513662764E+03 0.  0.
   -9000010    2    1    2    0  502 -0.18341609109E+03 -0.63459023515E+03 -0.66200636577E+02  0.11835806555E+04  0.97986448801E+03 0.  0.
        -13    1    3    3    0    0 -0.21685368685E+03  0.55986516014E+03 -0.29659768736E+03  0.66966015139E+03  0.10566000000E+00 0.  1.
         13    1    4    4    0    0 -0.12759637448E+03 -0.18315798263E+03 -0.50464194485E+03  0.55180719916E+03  0.10566000000E+00 0. -1.
          4    1    3    3  501    0  0.40026977794E+03  0.74725075006E+02 -0.34783860836E+03  0.53552911166E+03  0.00000000000E+00 0.  1.
         -4    1    4    4    0  502 -0.55819716606E+02 -0.45143225252E+03  0.43844130827E+03  0.63177345637E+03  0.00000000000E+00 0. -1.
</event>
<event>
 8    1  0.7008488E-006  0.1198933E+04  0.7818608E-02  0.8614603E-01
         21   -1    0    0  501  502  0.00000000000E+00  0.00000000000E+00  0.56717916669E+03  0.56717916669E+03  0.00000000000E+00 0.  1.
         21   -1    0    0  502  503 -0.00000000000E+00 -0.00000000000E+00 -0.24552388192E+04  0.24552388192E+04  0.00000000000E+00 0.  1.
   -9000010    2    1    2    0  503  0.59083161809E+03 -0.99559782635E+02 -0.93628585887E+03  0.14916294854E+04  0.99465228141E+03 0.  0.
    9000010    2    1    2  501    0 -0.59083161809E+03  0.99559782635E+02 -0.95177379364E+03  0.15307885005E+04  0.10384825120E+04 0.  0.
        -13    1    4    4    0    0 -0.26854322054E+03  0.31998733362E+03 -0.10483917322E+04  0.11285533174E+04  0.10566000000E+00 0.  1.
         13    1    3    3    0    0  0.52638306473E+03 -0.15234239010E+02  0.22406675567E+02  0.52707995897E+03  0.10566000000E+00 0. -1.
          4    1    4    4  501    0 -0.32228839755E+03 -0.22042755098E+03  0.96617938583E+02  0.40223518305E+03  0.00000000000E+00 0.  1.
         -4    1    3    3    0  503  0.64448553359E+02 -0.84325543625E+02 -0.95869253444E+03  0.96454952642E+03  0.00000000000E+00 0. -1.
</event>
<event>
 8    1  0.7008488E-006  0.1332476E+04  0.7818608E-02  0.8516158E-01
         21   -1    0    0  501  502  0.00000000000E+00  0.00000000000E+00  0.31798390941E+04  0.31798390941E+04  0.00000000000E+00 0.  1.
         21   -1    0    0  502  503 -0.00000000000E+00 -0.00000000000E+00 -0.65999694903E+03  0.65999694903E+03  0.00000000000E+00 0.  1.
   -9000010    2    1    2    0  503 -0.65769505407E+03  0.57183121783E+03  0.48511321857E+03  0.14180363313E+04  0.10079377343E+04 0.  0.
    9000010    2    1    2  501    0  0.65769505407E+03 -0.57183121783E+03  0.20347289265E+04  0.24217997118E+04  0.98256720588E+03 0.  0.
        -13    1    4    4    0    0  0.38814137988E+03 -0.68685589168E+03  0.19693860398E+04  0.21215339100E+04  0.10566000000E+00 0.  1.
         13    1    3    3    0    0 -0.41625472656E+03  0.84141603738E+03  0.20619154220E+03  0.96112637493E+03  0.10566000000E+00 0. -1.
          4    1    4    4  501    0  0.26955367418E+03  0.11502467384E+03  0.65342886697E+02  0.30026580175E+03  0.00000000000E+00 0.  1.
         -4    1    3    3    0  503 -0.24144032751E+03 -0.26958481955E+03  0.27892167637E+03  0.45690995637E+03  0.00000000000E+00 0. -1.
</event>
<event>
 8    1  0.7008488E-006  0.1159862E+04  0.7818608E-02  0.8642552E-01
         21   -1    0    0  503  502  0.00000000000E+00  0.00000000000E+00  0.15539273880E+04  0.15539273880E+04  0.00000000000E+00 0. -1.
         21   -1    0    0  501  503 -0.00000000000E+00 -0.00000000000E+00 -0.10032345534E+04  0.10032345534E+04  0.00000000000E+00 0. -1.
    9000010    2    1    2  501    0 -0.53509991244E+03 -0.18401469621E+01 -0.23256995995E+03  0.11575977010E+04  0.99980415518E+03 0.  0.
   -9000010    2    1    2    0  502  0.53509991244E+03  0.18401469621E+01  0.78326279457E+03  0.13995642403E+04  0.10290501227E+04 0.  0.
        -13    1    3    3    0    0  0.35053341350E+02 -0.15363634105E+03  0.31527050911E+03  0.35246044758E+03  0.10566000000E+00 0.  1.
         13    1    4    4    0    0  0.25582855418E+03  0.20632220743E+03  0.95729833781E+03  0.10121448617E+04  0.10566000000E+00 0. -1.
          4    1    3    3  501    0 -0.57015325379E+03  0.15179619409E+03 -0.54784046906E+03  0.80513725344E+03  0.00000000000E+00 0.  1.
         -4    1    4    4    0  502  0.27927135826E+03 -0.20448206047E+03 -0.17403554324E+03  0.38741937859E+03  0.00000000000E+00 0. -1.
</event>
<event>
 8    1  0.7008488E-006  0.1253707E+04  0.7818608E-02  0.8571779E-01
         21   -1    0    0  501  502  0.00000000000E+00  0.00000000000E+00  0.84258594580E+03  0.84258594580E+03  0.00000000000E+00 0.  1.
         21   -1    0    0  502  503 -0.00000000000E+00 -0.00000000000E+00 -0.19278541219E+04  0.19278541219E+04  0.00000000000E+00 0. -1.
   -9000010    2    1    2    0  503  0.34486538729E+03  0.65212476209E+03 -0.86361286242E+03  0.15223695216E+04  0.10136976588E+04 0.  0.
    9000010    2    1    2  501    0 -0.34486538729E+03 -0.65212476209E+03 -0.22165531367E+03  0.12480705461E+04  0.98201332434E+03 0.  0.
        -13    1    4    4    0    0  0.16599148379E+03  0.63856245653E+02 -0.31688531101E+03  0.36338286186E+03  0.10566000000E+00 0.  1.
         13    1    3    3    0    0 -0.16650725063E+03 -0.19479772331E+03 -0.25108092881E+03  0.35876518991E+03  0.10566000000E+00 0. -1.
          4    1    4    4  501    0 -0.51085687108E+03 -0.71598100774E+03  0.95229997337E+02  0.88468768420E+03  0.00000000000E+00 0.  1.
         -4    1    3    3    0  503  0.51137263792E+03  0.84692248540E+03 -0.61253193361E+03  0.11636043317E+04  0.00000000000E+00 0. -1.
</event>
<event>
 8    1  0.7008488E-006  0.1112519E+04  0.7818608E-02  0.8676548E-01
         21   -1    0    0  503  502  0.00000000000E+00  0.00000000000E+00  0.13397946657E+04  0.13397946657E+04  0.00000000000E+00 0. -1.
         21   -1    0    0  501  503 -0.00000000000E+00 -0.00000000000E+00 -0.92496138795E+03  0.92496138795E+03  0.00000000000E+00 0. -1.
    9000010    2    1    2  501    0 -0.16288809666E+02  0.48045332354E+03  0.29254957245E+03  0.11455365512E+04  0.99778154746E+03 0.  0.
   -9000010    2    1    2    0  502  0.16288809666E+02 -0.48045332354E+03  0.12228370526E+03  0.11192195024E+04  0.10032937100E+04 0.  0.
        -13    1    3    3    0    0  0.13353069243E+03  0.74661949752E+03  0.58463229347E+02  0.76071616274E+03  0.10566000000E+00 0.  1.
         13    1    4    4    0    0 -0.89903278375E+02 -0.21299803442E+03  0.55404591560E+03  0.60034794069E+03  0.10566000000E+00 0. -1.
          4    1    3    3  501    0 -0.14981950209E+03 -0.26616617398E+03  0.23408634310E+03  0.38482038850E+03  0.00000000000E+00 0.  1.
         -4    1    4    4    0  502  0.10619208804E+03 -0.26745528912E+03 -0.43176221034E+03  0.51887156168E+03  0.00000000000E+00 0. -1.
</event>
<event>
 8    1  0.7008488E-006  0.1034448E+04  0.7818608E-02  0.8752160E-01
         21   -1    0    0  503  502  0.00000000000E+00  0.00000000000E+00  0.11061753693E+04  0.11061753693E+04  0.00000000000E+00 0. -1.
         21   -1    0    0  501  503 -0.00000000000E+00 -0.00000000000E+00 -0.93089298057E+03  0.93089298057E+03  0.00000000000E+00 0. -1.
    9000010    2    1    2  501    0 -0.11912818039E+03 -0.10909764188E+03  0.55303944135E+02  0.99568596773E+03  0.98093740946E+03 0.  0.
   -9000010    2    1    2    0  502  0.11912818039E+03  0.10909764188E+03  0.11997844463E+03  0.10413823822E+04  0.10217576131E+04 0.  0.
        -13    1    3    3    0    0 -0.24675947953E+03  0.41082018523E+02 -0.41566912161E+03  0.48513792143E+03  0.10566000000E+00 0.  1.
         13    1    4    4    0    0 -0.26275096373E+03 -0.24464858407E+03  0.32272659028E+03  0.48274575282E+03  0.10566000000E+00 0. -1.
          4    1    3    3  501    0  0.12763129914E+03 -0.15017966041E+03  0.47097306575E+03  0.51054804630E+03  0.00000000000E+00 0.  1.
         -4    1    4    4    0  502  0.38187914412E+03  0.35374622595E+03 -0.20274814565E+03  0.55863662935E+03  0.00000000000E+00 0. -1.
</event>
<event>
 8    1  0.7008488E-006  0.1305880E+04  0.7818608E-02  0.8532106E-01
         21   -1    0    0  501  502  0.00000000000E+00  0.00000000000E+00  0.83645915525E+03  0.83645915525E+03  0.00000000000E+00 0.  1.
         21   -1    0    0  502  503 -0.00000000000E+00 -0.00000000000E+00 -0.22856299205E+04  0.22856299205E+04  0.00000000000E+00 0.  1.
   -9000010    2    1    2    0  503  0.33134703168E+03 -0.76883723157E+03 -0.12514639845E+04  0.18087247297E+04  0.10022083112E+04 0.  0.
    9000010    2    1    2  501    0 -0.33134703168E+03  0.76883723157E+03 -0.19770678075E+03  0.13133643461E+04  0.99243961550E+03 0.  0.
        -13    1    4    4    0    0 -0.59855176486E+02  0.78618339537E+03  0.21665047201E+03  0.81768234144E+03  0.10566000000E+00 0.  1.
         13    1    3    3    0    0  0.63445746636E+03 -0.24087304447E+03 -0.80999737147E+03  0.10567174897E+04  0.10566000000E+00 0. -1.
          4    1    4    4  501    0 -0.27149185520E+03 -0.17346163807E+02 -0.41435725276E+03  0.49568200467E+03  0.00000000000E+00 0.  1.
         -4    1    3    3    0  503 -0.30311043468E+03 -0.52796418710E+03 -0.44146661307E+03  0.75200723994E+03  0.00000000000E+00 0. -1.
</event>
<event>
 8    1  0.7008488E-006  0.1050048E+04  0.7818608E-02  0.8736971E-01
         21   -1    0    0  501  502  0.00000000000E+00  0.00000000000E+00  0.15266195645E+04  0.15266195645E+04  0.00000000000E+00 0.  1.
         21   -1    0    0  502  503 -0.00000000000E+00 -0.00000000000E+00 -0.70839259289E+03  0.70839259289E+03  0.00000000000E+00 0.  1.
   -9000010    2    1    2    0  503  0.20249901461E+03 -0.19034853489E+03  0.53779595537E+03  0.11481624759E+04  0.97560963801E+03 0.  0.
    9000010    2    1    2  501    0 -0.20249901461E+03  0.19034853489E+03  0.28043101623E+03  0.10868496815E+04  0.10126017281E+04 0.  0.
        -13    1    4    4    0    0  0.17892881647E+03 -0.34171662971E+03  0.33546220118E+02  0.38718359525E+03  0.10566000000E+00 0.  1.
         13    1    3    3    0    0  0.43561637882E+03 -0.42144061182E+03  0.55172488181E+03  0.81961831066E+03  0.10566000000E+00 0. -1.
          4    1    4    4  501    0 -0.38142783108E+03  0.53206516459E+03  0.24688479612E+03  0.69966608625E+03  0.00000000000E+00 0.  1.
         -4    1    3    3    0  503 -0.23311736421E+03  0.23109207693E+03 -0.13928926441E+02  0.32854416523E+03  0.00000000000E+00 0. -1.
</event>
<event>
 8    1  0.7008488E-006  0.1039946E+04  0.7818608E-02  0.8739299E-01
         21   -1    0    0  503  502  0.00000000000E+00  0.00000000000E+00  0.98470378364E+03  0.98470378364E+03  0.00000000000E+00 0. -1.
         21   -1    0    0  501  503 -0.00000000000E+00 -0.00000000000E+00 -0.11273533230E+04  0.11273533230E+04  0.00000000000E+00 0. -1.
    9000010    2    1    2  501    0 -0.10765211876E+03  0.24287618385E+03  0.11573920585E+03  0.10463665460E+04  0.10054399860E+04 0.  0.
   -9000010    2    1    2    0  502  0.10765211876E+03 -0.24287618385E+03 -0.25838874522E+03  0.10656905607E+04  0.99917656502E+03 0.  0.
        -13    1    3    3    0    0  0.43036094522E+03  0.68471540781E+02 -0.89193381738E+02  0.44480823461E+03  0.10566000000E+00 0.  1.
         13    1    4    4    0    0 -0.15839866900E+03 -0.22036831762E+03 -0.58437333893E+03  0.64431711460E+03  0.10566000000E+00 0. -1.
          4    1    3    3  501    0 -0.53801306398E+03  0.17440464307E+03  0.20493258759E+03  0.60155831138E+03  0.00000000000E+00 0.  1.
         -4    1    4    4    0  502  0.26605078775E+03 -0.22507866229E+02  0.32598459371E+03  0.42137344606E+03  0.00000000000E+00 0. -1.
</event>
<event>
 8    1  0.7008488E-006  0.1386284E+04  0.7818608E-02  0.8478519E-01
         21   -1    0    0  503  502  0.00000000000E+00  0.00000000000E+00  0.15547148760E+04  0.15547148760E+04  0.00000000000E+00 0.  1.
         21   -1    0    0  501  503 -0.00000000000E+00 -0.00000000000E+00 -0.16667138055E+04  0.16667138055E+04  0.00000000000E+00 0. -1.
    9000010    2    1    2  501    0  0.94494411012E+03 -0.13814915619E+03 -0.87695668580E+03  0.16403765623E+04  0.10048769462E+04 0.  0.
   -9000010    2    1    2    0  502 -0.94494411012E+03  0.13814915619E+03  0.76495775632E+03  0.15810521192E+04  0.10012796183E+04 0.  0.
        -13    1    3    3    0    0  0.10123342816E+04 -0.37228026924E+03 -0.49369937992E+03  0.11862345407E+04  0.10566000000E+00 0.  1.
         13    1    4    4    0    0 -0.67216227288E+03  0.83577502133E+02  0.10061268285E+04  0.12128802605E+04  0.10566000000E+00 0. -1.
          4    1    3    3  501    0 -0.67390171526E+02  0.23413111305E+03 -0.38325730588E+03  0.45414202165E+03  0.00000000000E+00 0.  1.
         -4    1    4    4    0  502 -0.27278183724E+03  0.54571654056E+02 -0.24116907221E+03  0.36817185870E+03  0.00000000000E+00 0. -1.
</event>
<event>
 8    1  0.7008488E-006  0.1171806E+04  0.7818608E-02  0.8647240E-01
         21   -1    0    0  501  502  0.00000000000E+00  0.00000000000E+00  0.17687339327E+04  0.17687339327E+04  0.00000000000E+00 0.  1.
         21   -1    0    0  502  503 -0.00000000000E+00 -0.00000000000E+00 -0.76697468441E+03  0.76697468441E+03  0.00000000000E+00 0.  1.
   -9000010    2    1    2    0  503  0.44751165932E+03 -0.36277541528E+03  0.19065305437E+03  0.11872142305E+04  0.10204196955E+04 0.  0.
    9000010    2    1    2  501    0 -0.44751165932E+03  0.36277541528E+03  0.81110619394E+03  0.13484943866E+04  0.91031377320E+03 0.  0.
        -13    1    4    4    0    0 -0.63017876659E+03 -0.29028327991E+02  0.37228088102E+03  0.73250323359E+03  0.10566000000E+00 0.  1.
         13    1    3    3    0    0  0.15185359490E+03 -0.15444130273E+03  0.60181840971E+03  0.63960694157E+03  0.10566000000E+00 0. -1.
          4    1    4    4  501    0  0.18266710727E+03  0.39180374327E+03  0.43882531292E+03  0.61599115300E+03  0.00000000000E+00 0.  1.
         -4    1    3    3    0  503  0.29565806442E+03 -0.20833411255E+03 -0.41116535533E+03  0.54760728897E+03  0.00000000000E+00 0. -1.
</event>
<event>
 8    1  0.7008488E-006  0.1173173E+04  0.7818608E-02  0.8627136E-01
         21   -1    0    0  501  502  0.00000000000E+00  0.00000000000E+00  0.58683596661E+03  0.58683596661E+03  0.00000000000E+00 0.  1.
         21   -1    0    0  502  503 -0.00000000000E+00 -0.00000000000E+00 -0.24910802711E+04  0.24910802711E+04  0.00000000000E+00 0.  1.
   -9000010    2    1    2    0  503  0.58904027602E+03  0.47064480117E+02 -0.13253978455E+04  0.17697124533E+04  0.10129260616E+04 0.  0.
    9000010    2    1    2  501    0 -0.58904027602E+03 -0.47064480117E+02 -0.57884645903E+03  0.13082037845E+04  0.10134842903E+04 0.  0.
        -13    1    4    4    0    0 -0.43511140314E+03  0.46544177108E+03 -0.34010912522E+03  0.72224109799E+03  0.10566000000E+00 0.  1.
         13    1    3    3    0    0  0.44080105401E+03  0.47567928683E+03 -0.46798238518E+03  0.79973988092E+03  0.10566000000E+00 0. -1.
          4    1    4    4  501    0 -0.15392887288E+03 -0.51250625120E+03 -0.23873733381E+03  0.58596268651E+03  0.00000000000E+00 0.  1.
         -4    1    3    3    0  503  0.14823922201E+03 -0.42861480671E+03 -0.85741546033E+03  0.96997257233E+03  0.00000000000E+00 0. -1.
</event>
<event>
 8    1  0.7008488E-006  0.1237755E+04  0.7818608E-02  0.8580361E-01
         21   -1    0    0  503  502  0.00000000000E+00  0.00000000000E+00  0.16252450547E+04  0.16252450547E+04  0.00000000000E+00 0.  1.
         21   -1    0    0  501  503 -0.00000000000E+00 -0.00000000000E+00 -0.11246761299E+04  0.11246761299E+04  0.00000000000E+00 0.  1.
    9000010    2    1    2  501    0 -0.35334714726E+03 -0.63209250619E+03 -0.31433264958E+03  0.12679959265E+04  0.99227693323E+03 0.  0.
   -9000010    2    1    2    0  502  0.35334714726E+03  0.63209250619E+03  0.81490157441E+03  0.14819252581E+04  0.10038141021E+04 0.  0.
        -13    1    3    3    0    0 -0.25461867003E+03  0.23168871484E+03 -0.22076083547E+01  0.34426038461E+03  0.10566000000E+00 0.  1.
         13    1    4    4    0    0  0.65608570389E+03  0.22156355983E+03  0.29229063483E+03  0.75164665121E+03  0.10566000000E+00 0. -1.
          4    1    3    3  501    0 -0.98728477228E+02 -0.86378122103E+03 -0.31212504123E+03  0.92373554191E+03  0.00000000000E+00 0.  1.
         -4    1    4    4    0  502 -0.30273855663E+03  0.41052894636E+03  0.52261093958E+03  0.73027860686E+03  0.00000000000E+00 0. -1.
</event>
<event>
 8    1  0.7008488E-006  0.1352905E+04  0.7818608E-02  0.8523858E-01
         21   -1    0    0  501  502  0.00000000000E+00  0.00000000000E+00  0.14431858501E+04  0.14431858501E+04  0.00000000000E+00 0.  1.
         21   -1    0    0  502  503 -0.00000000000E+00 -0.00000000000E+00 -0.11482486773E+04  0.11482486773E+04  0.00000000000E+00 0.  1.
   -9000010    2    1    2    0  503  0.67856788147E+03  0.10548386448E+03  0.26664816562E+02  0.12121874325E+04  0.99855202352E+03 0.  0.
    9000010    2    1    2  501    0 -0.67856788147E+03 -0.10548386448E+03  0.26827235621E+03  0.13792470949E+04  0.11656634489E+04 0.  0.
        -13    1    4    4    0    0  0.72683846345E+02  0.29347312679E+03  0.41766815095E+03  0.51561236715E+03  0.10566000000E+00 0.  1.
         13    1    3    3    0    0 -0.14029861560E+03 -0.19219645062E+03 -0.20116931938E+03  0.31159634688E+03  0.10566000000E+00 0. -1.
          4    1    4    4  501    0 -0.75125172782E+03 -0.39895699127E+03 -0.14939579474E+03  0.86363472772E+03  0.00000000000E+00 0.  1.
         -4    1    3    3    0  503  0.81886649707E+03  0.29768031510E+03  0.22783413594E+03  0.90059108563E+03  0.00000000000E+00 0. -1.
</event>
<event>
 8    1  0.7008488E-006  0.1289847E+04  0.7818608E-02  0.8553985E-01
         21   -1    0    0  503  502  0.00000000000E+00  0.00000000000E+00  0.10791288709E+04  0.10791288709E+04  0.00000000000E+00 0. -1.
         21   -1    0    0  501  503 -0.00000000000E+00 -0.00000000000E+00 -0.16068356244E+04  0.16068356244E+04  0.00000000000E+00 0.  1.
    9000010    2    1    2  501    0 -0.90583653693E+02 -0.75251658126E+03 -0.67508560680E+03  0.14558320874E+04  0.10436569775E+04 0.  0.
   -9000010    2    1    2    0  502  0.90583653693E+02  0.75251658126E+03  0.14737885335E+03  0.12301324080E+04  0.95761088722E+03 0.  0.
        -13    1    3    3    0    0 -0.30107023847E+03  0.15554233229E+03 -0.29461817596E+03  0.44903962675E+03  0.10566000000E+00 0.  1.
         13    1    4    4    0    0 -0.22625298440E+03 -0.14544734939E+03  0.26626210745E+02  0.27028560942E+03  0.10566000000E+00 0. -1.
          4    1    3    3  501    0  0.21048658477E+03 -0.90805891355E+03 -0.38046743084E+03  0.10067924606E+04  0.00000000000E+00 0.  1.
         -4    1    4    4    0  502  0.31683663809E+03  0.89796393065E+03  0.12075264261E+03  0.95984679855E+03  0.00000000000E+00 0. -1.
</event>
<event>
 8    1  0.7008488E-006  0.1012776E+04  0.7818608E-02  0.8763173E-01
         21   -1    0    0  503  502  0.00000000000E+00  0.00000000000E+00  0.14505553503E+04  0.14505553503E+04  0.00000000000E+00 0. -1.
         21   -1    0    0  501  503 -0.00000000000E+00 -0.00000000000E+00 -0.70614184140E+03  0.70614184140E+03  0.00000000000E+00 0. -1.
    9000010    2    1    2  501    0  0.81113928013E+02 -0.89002670869E+02  0.40162922705E+03  0.10895050083E+04  0.10055914590E+04 0.  0.
   -9000010    2    1    2    0  502 -0.81113928013E+02  0.89002670869E+02  0.34278428184E+03  0.10671921833E+04  0.10034426479E+04 0.  0.
        -13    1    3    3    0    0 -0.31428038574E+03 -0.22300624852E+03 -0.13614140623E+03  0.40870336602E+03  0.10566000000E+00 0.  1.
         13    1    4    4    0    0  0.41287401997E+03  0.18601948230E+03 -0.91710240788E+01  0.45293743829E+03  0.10566000000E+00 0. -1.
          4    1    3    3  501    0  0.39539431375E+03  0.13400357765E+03  0.53777063328E+03  0.68080164232E+03  0.00000000000E+00 0.  1.
         -4    1    4    4    0  502 -0.49398794798E+03 -0.97016811427E+02  0.35195530592E+03  0.61425474505E+03  0.00000000000E+00 0. -1.
</event>
<event>
 8    1  0.7008488E-006  0.1047269E+04  0.7818608E-02  0.8731493E-01
         21   -1    0    0  501  502  0.00000000000E+00  0.00000000000E+00  0.61933751519E+03  0.61933751519E+03  0.00000000000E+00 0. -1.
         21   -1    0    0  502  503 -0.00000000000E+00 -0.00000000000E+00 -0.22287766486E+04  0.22287766486E+04  0.00000000000E+00 0. -1.
   -9000010    2    1    2    0  503  0.24121443894E+03 -0.23010241781E+03 -0.14505511549E+04  0.17888604764E+04  0.99236667768E+03 0.  0.
    9000010    2    1    2  501    0 -0.24121443894E+03  0.23010241781E+03 -0.15888797860E+03  0.10592536874E+04  0.99279477051E+03 0.  0.
        -13    1    4    4    0    0 -0.17204164035E+03  0.40149077349E+03  0.32292607662E+03  0.54320753800E+03  0.10566000000E+00 0.  1.
         13    1    3    3    0    0  0.53316499144E+03 -0.19054214632E+03 -0.13715712067E+04  0.14838392109E+04  0.10566000000E+00 0. -1.
          4    1    4    4  501    0 -0.69172798588E+02 -0.17138835568E+03 -0.48181405522E+03  0.51604614943E+03  0.00000000000E+00 0.  1.
         -4    1    3    3    0  503 -0.29195055250E+03 -0.39560271483E+02 -0.78979948125E+02  0.30502126547E+03  0.00000000000E+00 0. -1.
</event>
<event>
 8    1  0.7008488E-006  0.1104804E+04  0.7818608E-02  0.8685319E-01
         21   -1    0    0  503  502  0.00000000000E+00  0.00000000000E+00  0.77113179856E+03  0.77113179856E+03  0.00000000000E+00 0.  1.
         21   -1    0    0  501  503 -0.00000000000E+00 -0.00000000000E+00 -0.15597286327E+04  0.15597286327E+04  0.00000000000E+00 0.  1.
    9000010    2    1    2  501    0  0.20734881378E+01  0.46793476541E+03 -0.40194285504E+03  0.11756487883E+04  0.10008120556E+04 0.  0.
   -9000010    2    1    2    0  502 -0.20734881378E+01 -0.46793476541E+03 -0.38665397914E+03  0.11552116430E+04  0.98287608403E+03 0.  0.
        -13    1    3    3    0    0  0.30122547343E+03 -0.53588407119E+02  0.16642630887E+03  0.34829044011E+03  0.10566000000E+00 0.  1.
         13    1    4    4    0    0 -0.42063029808E+03 -0.19057728969E+02  0.15673589330E+02  0.42135343509E+03  0.10566000000E+00 0. -1.
          4    1    3    3  501    0 -0.29915198529E+03  0.52152317253E+03 -0.56836916391E+03  0.82735834817E+03  0.00000000000E+00 0.  1.
         -4    1    4    4    0  502  0.41855680994E+03 -0.44887703644E+03 -0.40232756847E+03  0.73385820793E+03  0.00000000000E+00 0. -1.
</event>
<event>
 8    1  0.7008488E-006  0.1226667E+04  0.7818608E-02  0.8589510E-01
         21   -1    0    0  501  502  0.00000000000E+00  0.00000000000E+00  0.16293692832E+04  0.16293692832E+04  0.00000000000E+00 0. -1.
         21   -1    0    0  502  503 -0.00000000000E+00 -0.00000000000E+00 -0.11030225607E+04  0.11030225607E+04  0.00000000000E+00 0. -1.
   -9000010    2    1    2    0  503  0.65511929476E+03 -0.19370763335E+03 -0.30631751559E+03  0.12498124468E+04  0.10007481172E+04 0.  0.
    9000010    2    1    2  501    0 -0.65511929476E+03  0.19370763335E+03  0.83266423811E+03  0.14825793971E+04  0.10188267751E+04 0.  0.
        -13    1    4    4    0    0 -0.26457674351E+03 -0.40486799570E+03  0.49519975587E+03  0.69220066204E+03  0.10566000000E+00 0.  1.
         13    1    3    3    0    0  0.63185485861E+03  0.30668568749E+03 -0.10597139773E+03  0.71030037418E+03  0.10566000000E+00 0. -1.
          4    1    4    4  501    0 -0.39054255125E+03  0.59857562905E+03  0.33746448225E+03  0.79037873504E+03  0.00000000000E+00 0.  1.
         -4    1    3    3    0  503  0.23264436148E+02 -0.50039332084E+03 -0.20034611786E+03  0.53951207259E+03  0.00000000000E+00 0. -1.
</event>
<event>
 8    1  0.7008488E-006  0.1426647E+04  0.7818608E-02  0.8459112E-01
         21   -1    0    0  501  502  0.00000000000E+00  0.00000000000E+00  0.28984519340E+04  0.28984519340E+04  0.00000000000E+00 0. -1.
         21   -1    0    0  502  503 -0.00000000000E+00 -0.00000000000E+00 -0.79350577768E+03  0.79350577768E+03  0.00000000000E+00 0. -1.
   -9000010    2    1    2    0  503  0.19260652269E+03 -0.98782364789E+03  0.17287348423E+04  0.22165404792E+04  0.95479563743E+03 0.  0.
    9000010    2    1    2  501    0 -0.19260652269E+03  0.98782364789E+03  0.37621131407E+03  0.14754172325E+04  0.10111519298E+04 0.  0.
        -13    1    4    4    0    0  0.38472091014E+03  0.65498448920E+03  0.17848336666E+03  0.78030198201E+03  0.10566000000E+00 0.  1.
         13    1    3    3    0    0 -0.12265019523E+03 -0.99749421622E+03  0.15682733132E+04  0.18626644835E+04  0.10566000000E+00 0. -1.
          4    1    4    4  501    0 -0.57732743282E+03  0.33283915869E+03  0.19772794741E+03  0.69511525047E+03  0.00000000000E+00 0.  1.
         -4    1    3    3    0  503  0.31525671792E+03  0.96705683296E+01  0.16046152906E+03  0.35387599579E+03  0.00000000000E+00 0. -1.
</event>
<event>
 8    1  0.7008488E-006  0.1218840E+04  0.7818608E-02  0.8594085E-01
         21   -1    0    0  501  502  0.00000000000E+00  0.00000000000E+00  0.59923451072E+03  0.59923451072E+03  0.00000000000E+00 0. -1.
         21   -1    0    0  502  503 -0.00000000000E+00 -0.00000000000E+00 -0.25367412504E+04  0.25367412504E+04  0.00000000000E+00 0. -1.
   -9000010    2    1    2    0  503  0.54875328842E+03  0.41424392682E+03 -0.12414413390E+04  0.17397549739E+04  0.10064007992E+04 0.  0.
    9000010    2    1    2  501    0 -0.54875328842E+03 -0.41424392682E+03 -0.69606540068E+03  0.13962207872E+04  0.99609098089E+03 0.  0.
        -13    1    4    4    0    0 -0.16254978887E+03 -0.58764815302E+03 -0.34365003286E+02  0.61068301943E+03  0.10566000000E+00 0.  1.
         13    1    3    3    0    0  0.72428375149E+03 -0.46450795166E+02 -0.73033260258E+03  0.10296263160E+04  0.10566000000E+00 0. -1.
          4    1    4    4  501    0 -0.38620349955E+03  0.17340422619E+03 -0.66170039739E+03  0.78553776780E+03  0.00000000000E+00 0.  1.
         -4    1    3    3    0  503 -0.17553046307E+03  0.46069472199E+03 -0.51110873646E+03  0.71012865793E+03  0.00000000000E+00 0. -1.
</event>
<event>
 8    1  0.7008488E-006  0.1354927E+04  0.7818608E-02  0.8498785E-01
         21   -1    0    0  503  502  0.00000000000E+00  0.00000000000E+00  0.92184256547E+03  0.92184256547E+03  0.00000000000E+00 0.  1.
         21   -1    0    0  501  503 -0.00000000000E+00 -0.00000000000E+00 -0.20017585850E+04  0.20017585850E+04  0.00000000000E+00 0.  1.
    9000010    2    1    2  501    0 -0.59335591072E+03  0.69738945782E+03 -0.66740827151E+03  0.15072717365E+04  0.99398742154E+03 0.  0.
   -9000010    2    1    2    0  502  0.59335591072E+03 -0.69738945782E+03 -0.41250774806E+03  0.14163294140E+04  0.99870069294E+03 0.  0.
        -13    1    3    3    0    0 -0.10657418469E+03  0.53245533663E+02  0.25497698390E+03  0.28143634659E+03  0.10566000000E+00 0.  1.
         13    1    4    4    0    0 -0.26943865318E+03 -0.28423258711E+03 -0.56900602506E+02  0.39575629007E+03  0.10566000000E+00 0. -1.
          4    1    3    3  501    0 -0.48678172603E+03  0.64414392415E+03 -0.92238525541E+03  0.12258353899E+04  0.00000000000E+00 0.  1.
         -4    1    4    4    0  502  0.86279456390E+03 -0.41315687071E+03 -0.35560714555E+03  0.10205731239E+04  0.00000000000E+00 0. -1.
</event>
<event>
 8    1  0.7008488E-006  0.1249086E+04  0.7818608E-02  0.8573021E-01
         21   -1    0    0  501  502  0.00000000000E+00  0.00000000000E+00  0.14605220661E+04  0.14605220661E+04  0.00000000000E+00 0. -1.
         21   -1    0    0  502  503 -0.00000000000E+00 -0.00000000000E+00 -0.13149666331E+04  0.13149666331E+04  0.00000000000E+00 0. -1.
   -9000010    2    1    2    0  503 -0.60497782536E+03 -0.39962402539E+03 -0.54305156850E+03  0.13491666926E+04  0.99982409830E+03 0.  0.
    9000010    2    1    2  501    0  0.60497782536E+03  0.39962402539E+03  0.68860700153E+03  0.14263220066E+04  0.10171122519E+04 0.  0.
        -13    1    4    4    0    0  0.45211437061E+03  0.11119577104E+03  0.91665654019E+03  0.10281201911E+04  0.10566000000E+00 0.  1.
         13    1    3    3    0    0 -0.36584130107E+03 -0.58830133578E+03 -0.71813599529E+03  0.99782645692E+03  0.10566000000E+00 0. -1.
          4    1    4    4  501    0  0.15286345476E+03  0.28842825435E+03 -0.22804953866E+03  0.39820181541E+03  0.00000000000E+00 0.  1.
         -4    1    3    3    0  503 -0.23913652430E+03  0.18867731039E+03  0.17508442678E+03  0.35134023568E+03  0.00000000000E+00 0. -1.
</event>
<event>
 8    1  0.7008488E-006  0.1022985E+04  0.7818608E-02  0.8755883E-01
         21   -1    0    0  501  502  0.00000000000E+00  0.00000000000E+00  0.11387337264E+04  0.11387337264E+04  0.00000000000E+00 0.  1.
         21   -1    0    0  502  503 -0.00000000000E+00 -0.00000000000E+00 -0.91046769061E+03  0.91046769061E+03  0.00000000000E+00 0.  1.
   -9000010    2    1    2    0  503  0.22050323732E+03  0.12417849801E+03  0.15731302337E+03  0.10350098286E+04  0.99118917510E+03 0.  0.
    9000010    2    1    2  501    0 -0.22050323732E+03 -0.12417849801E+03  0.70953012406E+02  0.10141915884E+04  0.97954493060E+03 0.  0.
        -13    1    4    4    0    0 -0.15219510012E+03  0.42522364154E+03 -0.24887353920E+02  0.45232497761E+03  0.10566000000E+00 0.  1.
         13    1    3    3    0    0  0.21157656548E+03 -0.24224738393E+03  0.45887179669E+03  0.56036753567E+03  0.10566000000E+00 0. -1.
          4    1    4    4  501    0 -0.68308137197E+02 -0.54940213955E+03  0.95840366326E+02  0.56186661083E+03  0.00000000000E+00 0.  1.
         -4    1    3    3    0  503  0.89266718375E+01  0.36642588194E+03 -0.30155877331E+03  0.47464229288E+03  0.00000000000E+00 0. -1.
</event>
<event>
 8    1  0.7008488E-006  0.1096267E+04  0.7818608E-02  0.8696143E-01
         21   -1    0    0  501  502  0.00000000000E+00  0.00000000000E+00  0.21378995860E+04  0.21378995860E+04  0.00000000000E+00 0.  1.
         21   -1    0    0  502  503 -0.00000000000E+00 -0.00000000000E+00 -0.54564037471E+03  0.54564037471E+03  0.00000000000E+00 0.  1.
   -9000010    2    1    2    0  503 -0.40927383453E+03  0.18631053403E+03  0.84392253068E+03  0.13834762689E+04  0.99979230955E+03 0.  0.
    9000010    2    1    2  501    0  0.40927383453E+03 -0.18631053403E+03  0.74833668057E+03  0.13000636917E+04  0.96329700941E+03 0.  0.
        -13    1    4    4    0    0 -0.12280288448E+03  0.14304038677E+03  0.63720770952E+03  0.66451093062E+03  0.10566000000E+00 0.  1.
         13    1    3    3    0    0 -0.28431816865E+03 -0.21023210311E+03  0.89714896296E+03  0.96431873937E+03  0.10566000000E+00 0. -1.
          4    1    4    4  501    0  0.53207671901E+03 -0.32935092080E+03  0.11112897105E+03  0.63555276110E+03  0.00000000000E+00 0.  1.
         -4    1    3    3    0  503 -0.12495566588E+03  0.39654263714E+03 -0.53226432278E+02  0.41915752957E+03  0.00000000000E+00 0. -1.
</event>
<event>
 8    1  0.7008488E-006  0.1441123E+04  0.7818608E-02  0.8447687E-01
         21   -1    0    0  501  502  0.00000000000E+00  0.00000000000E+00  0.78815653025E+03  0.78815653025E+03  0.00000000000E+00 0. -1.
         21   -1    0    0  502  503 -0.00000000000E+00 -0.00000000000E+00 -0.26400316793E+04  0.26400316793E+04  0.00000000000E+00 0. -1.
   -9000010    2    1    2    0  503  0.11343723676E+03  0.10083670050E+04 -0.69102910206E+03  0.15776748079E+04  0.99089078924E+03 0.  0.
    9000010    2    1    2  501    0 -0.11343723676E+03 -0.10083670050E+04 -0.11608460470E+04  0.18505134016E+04  0.10233104520E+04 0.  0.
        -13    1    4    4    0    0  0.15523655868E+03 -0.87519812818E+03 -0.12534970130E+04  0.15366603156E+04  0.10566000000E+00 0.  1.
         13    1    3    3    0    0  0.40398506673E+03  0.73898074506E+03 -0.75402451516E+02  0.84556609237E+03  0.10566000000E+00 0. -1.
          4    1    4    4  501    0 -0.26867379545E+03 -0.13316887686E+03  0.92650965995E+02  0.31385308605E+03  0.00000000000E+00 0.  1.
         -4    1    3    3    0  503 -0.29054782996E+03  0.26938625997E+03 -0.61562665054E+03  0.73210871557E+03  0.00000000000E+00 0. -1.
</event>
<event>
 8    1  0.7008488E-006  0.1270168E+04  0.7818608E-02  0.8556639E-01
         21   -1    0    0  503  502  0.00000000000E+00  0.00000000000E+00  0.14278121836E+04  0.14278121836E+04  0.00000000000E+00 0.  1.
         21   -1    0    0  501  503 -0.00000000000E+00 -0.00000000000E+00 -0.11475371877E+04  0.11475371877E+04  0.00000000000E+00 0. -1.
    9000010    2    1    2  501    0 -0.58117349813E+03  0.52835987011E+03 -0.43535422410E+02  0.12645554243E+04  0.99009004681E+03 0.  0.
   -9000010    2    1    2    0  502  0.58117349813E+03 -0.52835987011E+03  0.32381041835E+03  0.13107939470E+04  0.99819877637E+03 0.  0.
        -13    1    3    3    0    0 -0.59371607100E+03  0.77127102710E+03  0.10592615100E+03  0.97907003367E+03  0.10566000000E+00 0.  1.
         13    1    4    4    0    0  0.42676338442E+03 -0.13454209669E+03 -0.31315489422E+03  0.54616349292E+03  0.10566000000E+00 0. -1.
          4    1    3    3  501    0  0.12542572863E+02 -0.24291115699E+03 -0.14946157341E+03  0.28548539061E+03  0.00000000000E+00 0.  1.
         -4    1    4    4    0  502  0.15441011372E+03 -0.39381777341E+03  0.63696531257E+03  0.76463045407E+03  0.00000000000E+00 0. -1.
</event>
<event>
 8    1  0.7008488E-006  0.1045238E+04  0.7818608E-02  0.8734821E-01
         21   -1    0    0  503  502  0.00000000000E+00  0.00000000000E+00  0.16353727153E+04  0.16353727153E+04  0.00000000000E+00 0. -1.
         21   -1    0    0  501  503 -0.00000000000E+00 -0.00000000000E+00 -0.12902780104E+04  0.12902780104E+04  0.00000000000E+00 0. -1.
    9000010    2    1    2  501    0 -0.21277521846E+03 -0.16851158626E+03 -0.84672443951E+03  0.13451637027E+04  0.10093828126E+04 0.  0.
   -9000010    2    1    2    0  502  0.21277521846E+03  0.16851158626E+03  0.11918191444E+04  0.15804870229E+04  0.10019166175E+04 0.  0.
        -13    1    3    3    0    0 -0.36340052705E+03 -0.25677890264E+03  0.34981630781E+02  0.44633963924E+03  0.10566000000E+00 0.  1.
         13    1    4    4    0    0  0.24472642910E+03  0.44874670401E+03  0.19921874522E+03  0.54859160499E+03  0.10566000000E+00 0. -1.
          4    1    3    3  501    0  0.15062530858E+03  0.88267316375E+02 -0.88170607029E+03  0.89882406349E+03  0.00000000000E+00 0.  1.
         -4    1    4    4    0  502 -0.31951210634E+02 -0.28023511775E+03  0.99260039920E+03  0.10318954179E+04  0.00000000000E+00 0. -1.
</event>
<event>
 8    1  0.7008488E-006  0.1256699E+04  0.7818608E-02  0.8567239E-01
         21   -1    0    0  501  502  0.00000000000E+00  0.00000000000E+00  0.27474072978E+04  0.27474072978E+04  0.00000000000E+00 0.  1.
         21   -1    0    0  502  503 -0.00000000000E+00 -0.00000000000E+00 -0.69164695458E+03  0.69164695458E+03  0.00000000000E+00 0.  1.
   -9000010    2    1    2    0  503 -0.62680308030E+03 -0.38514696786E+03  0.30036407355E+03  0.12801865870E+04  0.10037125248E+04 0.  0.
    9000010    2    1    2  501    0  0.62680308030E+03  0.38514696786E+03  0.17553962697E+04  0.21588676655E+04  0.10188587954E+04 0.  0.
        -13    1    4    4    0    0  0.43726440729E+03  0.49855487948E+03  0.18131096153E+04  0.19305759809E+04  0.10566000000E+00 0.  1.
         13    1    3    3    0    0 -0.23928569616E+03 -0.61395849422E+03  0.45896854410E+03  0.80302852543E+03  0.10566000000E+00 0. -1.
          4    1    4    4  501    0  0.18953867301E+03 -0.11340791163E+03 -0.57713345576E+02  0.22829168457E+03  0.00000000000E+00 0.  1.
         -4    1    3    3    0  503 -0.38751738414E+03  0.22881152636E+03 -0.15860447055E+03  0.47715806154E+03  0.00000000000E+00 0. -1.
</event>
<event>
 8    1  0.7008488E-006  0.1029447E+04  0.7818608E-02  0.8750925E-01
         21   -1    0    0  503  502  0.00000000000E+00  0.00000000000E+00  0.10990580824E+04  0.10990580824E+04  0.00000000000E+00 0. -1.
         21   -1    0    0  501  503 -0.00000000000E+00 -0.00000000000E+00 -0.95790704513E+03  0.95790704513E+03  0.00000000000E+00 0. -1.
    9000010    2    1    2  501    0  0.11623086323E+03  0.12525644817E+03  0.16421768617E+03  0.10272594931E+04  0.99954781090E+03 0.  0.
   -9000010    2    1    2    0  502 -0.11623086323E+03 -0.12525644817E+03 -0.23066648889E+02  0.10297056345E+04  0.10151664061E+04 0.  0.
        -13    1    3    3    0    0  0.50103045902E+03  0.30726490322E+03  0.11310863109E+03  0.59852887584E+03  0.10566000000E+00 0.  1.
         13    1    4    4    0    0 -0.28684072588E+03  0.38905820686E+03  0.35537882728E+02  0.48467189172E+03  0.10566000000E+00 0. -1.
          4    1    3    3  501    0 -0.38479959580E+03 -0.18200845506E+03  0.51109055085E+02  0.42873061723E+03  0.00000000000E+00 0.  1.
         -4    1    4    4    0  502  0.17060986266E+03 -0.51431465503E+03 -0.58604531617E+02  0.54503374275E+03  0.00000000000E+00 0. -1.
</event>
<event>
 8    1  0.7008488E-006  0.1076421E+04  0.7818608E-02  0.8706367E-01
         21   -1    0    0  501  502  0.00000000000E+00  0.00000000000E+00  0.22157103400E+04  0.22157103400E+04  0.00000000000E+00 0.  1.
         21   -1    0    0  502  503 -0.00000000000E+00 -0.00000000000E+00 -0.52340438575E+03  0.52340438575E+03  0.00000000000E+00 0.  1.
   -9000010    2    1    2    0  503 -0.15333572067E+03  0.35940180114E+03  0.91938347932E+03  0.14156090276E+04  0.10029962308E+04 0.  0.
    9000010    2    1    2  501    0  0.15333572067E+03 -0.35940180114E+03  0.77292247489E+03  0.13235056981E+04  0.10007880309E+04 0.  0.
        -13    1    4    4    0    0  0.21149569964E+02  0.11152431730E+03 -0.20259724440E+03  0.23222969720E+03  0.10566000000E+00 0.  1.
         13    1    3    3    0    0  0.17896768837E+03  0.50927821333E+03  0.14381116634E+03  0.55863708683E+03  0.10566000000E+00 0. -1.
          4    1    4    4  501    0  0.13218615070E+03 -0.47092611844E+03  0.97551971929E+03  0.10912760009E+04  0.00000000000E+00 0.  1.
         -4    1    3    3    0  503 -0.33230340903E+03 -0.14987641219E+03  0.77557231298E+03  0.85697194076E+03  0.00000000000E+00 0. -1.
</event>
<event>
 8    1  0.7008488E-006  0.1179448E+04  0.7818608E-02  0.8626603E-01
         21   -1    0    0  503  502  0.00000000000E+00  0.00000000000E+00  0.15667762089E+04  0.15667762089E+04  0.00000000000E+00 0. -1.
         21   -1    0    0  501  503 -0.00000000000E+00 -0.00000000000E+00 -0.88051678854E+03  0.88051678854E+03  0.00000000000E+00 0. -1.
    9000010    2    1    2  501    0 -0.53009135873E+03  0.28999672203E+03  0.47433552503E+03  0.12712562055E+04  0.10129181617E+04 0.  0.
   -9000010    2    1    2    0  502  0.53009135873E+03 -0.28999672203E+03  0.21192389529E+03  0.11760367919E+04  0.98643593366E+03 0.  0.
        -13    1    3    3    0    0 -0.64285097087E+03  0.57741426898E+03  0.40747906389E+03  0.95535533047E+03  0.10566000000E+00 0.  1.
         13    1    4    4    0    0  0.68842874940E+03 -0.34968109150E+03 -0.14074916960E+03  0.78487027505E+03  0.10566000000E+00 0. -1.
          4    1    3    3  501    0  0.11275961214E+03 -0.28741754695E+03  0.66856461134E+02  0.31590087499E+03  0.00000000000E+00 0.  1.
         -4    1    4    4    0  502 -0.15833739067E+03  0.59684369473E+02  0.35267306489E+03  0.39116651689E+03  0.00000000000E+00 0. -1.
</event>
<event>
 8    1  0.7008488E-006  0.1053902E+04  0.7818608E-02  0.8725983E-01
         21   -1    0    0  503  502  0.00000000000E+00  0.00000000000E+00  0.79858694624E+03  0.79858694624E+03  0.00000000000E+00 0. -1.
         21   -1    0    0  501  503 -0.00000000000E+00 -0.00000000000E+00 -0.14042803591E+04  0.14042803591E+04  0.00000000000E+00 0. -1.
    9000010    2    1    2  501    0 -0.45989347655E+02 -0.35026778284E+03 -0.18504807391E+03  0.10700239684E+04  0.99292797502E+03 0.  0.
   -9000010    2    1    2    0  502  0.45989347655E+02  0.35026778284E+03 -0.42064533898E+03  0.11328433369E+04  0.99075172725E+03 0.  0.
        -13    1    3    3    0    0 -0.22670769900E+03 -0.56411152203E+03  0.15709086296E+03  0.62792972574E+03  0.10566000000E+00 0.  1.
         13    1    4    4    0    0  0.10640130451E+03  0.91084261024E+01  0.30801747315E+03  0.32600456432E+03  0.10566000000E+00 0. -1.
          4    1    3    3  501    0  0.18071835135E+03  0.21384373919E+03 -0.34213893687E+03  0.44209424270E+03  0.00000000000E+00 0.  1.
         -4    1    4    4    0  502 -0.60411956851E+02  0.34115935674E+03 -0.72866281213E+03  0.80683877262E+03  0.00000000000E+00 0. -1.
</event>
<event>
 8    1  0.7008488E-006  0.1091114E+04  0.7818608E-02  0.8696635E-01
         21   -1    0    0  503  502  0.00000000000E+00  0.00000000000E+00  0.10670111621E+04  0.10670111621E+04  0.00000000000E+00 0.  1.
         21   -1    0    0  501  503 -0.00000000000E+00 -0.00000000000E+00 -0.11052281475E+04  0.11052281475E+04  0.00000000000E+00 0.  1.
    9000010    2    1    2  501    0  0.14673505943E+03 -0.33087554592E+03  0.53670493768E+02  0.10772632928E+04  0.10132156116E+04 0.  0.
   -9000010    2    1    2    0  502 -0.14673505943E+03  0.33087554592E+03 -0.91887479127E+02  0.10949760168E+04  0.10293295701E+04 0.  0.
        -13    1    3    3    0    0  0.12471534968E+03 -0.68951855485E+03  0.12271625133E+03  0.71137124304E+03  0.10566000000E+00 0.  1.
         13    1    4    4    0    0  0.22984349221E+03  0.55321553014E+03  0.11692090766E+03  0.61036543440E+03  0.10566000000E+00 0. -1.
          4    1    3    3  501    0  0.22019709753E+02  0.35864300892E+03 -0.69045757563E+02  0.36589204980E+03  0.00000000000E+00 0.  1.
         -4    1    4    4    0  502 -0.37657855164E+03 -0.22233998422E+03 -0.20880838679E+03  0.48461058236E+03  0.00000000000E+00 0. -1.
</event>
<event>
 8    1  0.7008488E-006  0.1126030E+04  0.7818608E-02  0.8665705E-01
         21   -1    0    0  501  502  0.00000000000E+00  0.00000000000E+00  0.10542453375E+04  0.10542453375E+04  0.00000000000E+00 0.  1.
         21   -1    0    0  502  503 -0.00000000000E+00 -0.00000000000E+00 -0.12139850501E+04  0.12139850501E+04  0.00000000000E+00 0.  1.
   -9000010    2    1    2    0  503 -0.25138747980E+03  0.45106942072E+03 -0.21720506181E+03  0.11407347121E+04  0.99369932943E+03 0.  0.
    9000010    2    1    2  501    0  0.25138747980E+03 -0.45106942072E+03  0.57465349190E+02  0.11274956754E+04  0.10006422659E+04 0.  0.
        -13    1    4    4    0    0  0.10533479539E+03  0.30712173334E+03  0.13469270622E+03  0.35151289377E+03  0.10566000000E+00 0.  1.
         13    1    3    3    0    0  0.22772047427E+03  0.57977244270E+03 -0.98418059885E+02  0.63061781246E+03  0.10566000000E+00 0. -1.
          4    1    4    4  501    0  0.14605268441E+03 -0.75819115406E+03 -0.77227357031E+02  0.77598278163E+03  0.00000000000E+00 0.  1.
         -4    1    3    3    0  503 -0.47910795407E+03 -0.12870302199E+03 -0.11878700192E+03  0.51011689968E+03  0.00000000000E+00 0. -1.
</event>
<event>
 7    1  0.7008488E-006  0.1151307E+04  0.7818608E-02  0.8744539E-01
         21   -1    0    0  503  502  0.00000000000E+00  0.00000000000E+00  0.22755431200E+04  0.22755431200E+04  0.00000000000E+00 0.  1.
         21   -1    0    0  501  503 -0.00000000000E+00 -0.00000000000E+00 -0.49508915081E+03  0.49508915081E+03  0.00000000000E+00 0.  1.
    9000010    2    1    2  501    0  0.51608828745E+03  0.19413102487E+03  0.43131447079E+03  0.12294472756E+04  0.10106801944E+04 0.  0.
        -13    1    3    3    0    0  0.47330966739E+02  0.18561771022E+03  0.67458516027E+03  0.70125552004E+03  0.10566000000E+00 0.  1.
         13    1    1    2    0    0 -0.10198331813E+03 -0.24287258926E+03  0.85485780200E+03  0.89452197547E+03  0.10566000000E+00 0. -1.
          4    1    3    3  501    0  0.46875732072E+03  0.85133146570E+01 -0.24327068948E+03  0.52819175553E+03  0.00000000000E+00 0.  1.
         -4    1    1    2    0  502 -0.41410496933E+03  0.48741564388E+02  0.49428169637E+03  0.64666301973E+03  0.00000000000E+00 0. -1.
</event>
<event>
 8    1  0.7008488E-006  0.1096423E+04  0.7818608E-02  0.8692453E-01
         21   -1    0    0  501  502  0.00000000000E+00  0.00000000000E+00  0.11843733453E+04  0.11843733453E+04  0.00000000000E+00 0. -1.
         21   -1    0    0  502  503 -0.00000000000E+00 -0.00000000000E+00 -0.10010038527E+04  0.10010038527E+04  0.00000000000E+00 0. -1.
   -9000010    2    1    2    0  503  0.40882735323E+03  0.95182126925E+02  0.13260460253E+03  0.11044126185E+04  0.10128888435E+04 0.  0.
    9000010    2    1    2  501    0 -0.40882735323E+03 -0.95182126925E+02  0.50764890003E+02  0.10809645795E+04  0.99484064354E+03 0.  0.
        -13    1    4    4    0    0 -0.70158762051E+03 -0.24683735830E+03  0.88986695072E+02  0.74904773798E+03  0.10566000000E+00 0.  1.
         13    1    3    3    0    0  0.55501498042E+03 -0.73501513065E+02 -0.28699535620E+03  0.62913468078E+03  0.10566000000E+00 0. -1.
          4    1    4    4  501    0  0.29276026728E+03  0.15165523137E+03 -0.38221805069E+02  0.33191684152E+03  0.00000000000E+00 0.  1.
         -4    1    3    3    0  503 -0.14618762719E+03  0.16868363999E+03  0.41959995873E+03  0.47527793774E+03  0.00000000000E+00 0. -1.
</event>
<event>
 8    1  0.7008488E-006  0.1143137E+04  0.7818608E-02  0.8658633E-01
         21   -1    0    0  501  502  0.00000000000E+00  0.00000000000E+00  0.90482227778E+03  0.90482227778E+03  0.00000000000E+00 0. -1.
         21   -1    0    0  502  503 -0.00000000000E+00 -0.00000000000E+00 -0.15134001153E+04  0.15134001153E+04  0.00000000000E+00 0. -1.
   -9000010    2    1    2    0  503 -0.10336021192E+03 -0.46483049342E+03 -0.64718819019E+03  0.13136262007E+04  0.10392355463E+04 0.  0.
    9000010    2    1    2  501    0  0.10336021192E+03  0.46483049342E+03  0.38610352671E+02  0.11045961924E+04  0.99593738150E+03 0.  0.
        -13    1    4    4    0    0  0.29272696998E+03  0.54124778787E+03 -0.31876013747E+03  0.69299803985E+03  0.10566000000E+00 0.  1.
         13    1    3    3    0    0 -0.46133491369E+03 -0.41334170071E+03 -0.71464895383E+03  0.94572956098E+03  0.10566000000E+00 0. -1.
          4    1    4    4  501    0 -0.18936675806E+03 -0.76417294454E+02  0.35737049014E+03  0.41159815254E+03  0.00000000000E+00 0.  1.
         -4    1    3    3    0  503  0.35797470177E+03 -0.51488792703E+02  0.67460763640E+02  0.36789663971E+03  0.00000000000E+00 0. -1.
</event>
<event>
 8    1  0.7008488E-006  0.1096797E+04  0.7818608E-02  0.8695411E-01
         21   -1    0    0  503  502  0.00000000000E+00  0.00000000000E+00  0.76486760159E+03  0.76486760159E+03  0.00000000000E+00 0. -1.
         21   -1    0    0  501  503 -0.00000000000E+00 -0.00000000000E+00 -0.17362612810E+04  0.17362612810E+04  0.00000000000E+00 0. -1.
    9000010    2    1    2  501    0 -0.24227567919E+03  0.32200915538E+03 -0.92569402356E+03  0.14352260463E+04  0.10200867502E+04 0.  0.
   -9000010    2    1    2    0  502  0.24227567919E+03 -0.32200915538E+03 -0.45699655871E+02  0.10659028363E+04  0.98573474984E+03 0.  0.
        -13    1    3    3    0    0  0.31837604871E+03  0.30853998212E+03 -0.70444356547E+03  0.83234666880E+03  0.10566000000E+00 0.  1.
         13    1    4    4    0    0 -0.25215446381E+03  0.18418440345E+03  0.12771261358E+03  0.33736670097E+03  0.10566000000E+00 0. -1.
          4    1    3    3  501    0 -0.56065172790E+03  0.13469173256E+02 -0.22125045809E+03  0.60287937751E+03  0.00000000000E+00 0.  1.
         -4    1    4    4    0  502  0.49443014300E+03 -0.50619355882E+03 -0.17341226945E+03  0.72853613534E+03  0.00000000000E+00 0. -1.
</event>
<event>
 8    1  0.7008488E-006  0.1266522E+04  0.7818608E-02  0.8577461E-01
         21   -1    0    0  501  502  0.00000000000E+00  0.00000000000E+00  0.66291076707E+03  0.66291076707E+03  0.00000000000E+00 0. -1.
         21   -1    0    0  502  503 -0.00000000000E+00 -0.00000000000E+00 -0.24649903058E+04  0.24649903058E+04  0.00000000000E+00 0. -1.
   -9000010    2    1    2    0  503  0.53246094483E+03  0.40282536252E+03 -0.14255022737E+04  0.19068651296E+04  0.10762411253E+04 0.  0.
    9000010    2    1    2  501    0 -0.53246094483E+03 -0.40282536252E+03 -0.37657726496E+03  0.12210359432E+04  0.95043958653E+03 0.  0.
        -13    1    4    4    0    0 -0.60875793214E+03 -0.16925678292E+03 -0.61278961723E+03  0.88019611716E+03  0.10566000000E+00 0.  1.
         13    1    3    3    0    0 -0.80982307087E+01 -0.20947140791E+03  0.54365917335E+02  0.21656296130E+03  0.10566000000E+00 0. -1.
          4    1    4    4  501    0  0.76296987311E+02 -0.23356857960E+03  0.23621235227E+03  0.34083982604E+03  0.00000000000E+00 0.  1.
         -4    1    3    3    0  503  0.54055917554E+03  0.61229677043E+03 -0.14798681911E+04  0.16903021683E+04  0.00000000000E+00 0. -1.
</event>
<event>
 8    1  0.7008488E-006  0.1037133E+04  0.7818608E-02  0.8742533E-01
         21   -1    0    0  503  502  0.00000000000E+00  0.00000000000E+00  0.18289474056E+04  0.18289474056E+04  0.00000000000E+00 0. -1.
         21   -1    0    0  501  503 -0.00000000000E+00 -0.00000000000E+00 -0.58312277883E+03  0.58312277883E+03  0.00000000000E+00 0. -1.
    9000010    2    1    2  501    0 -0.10493355090E+03 -0.22275536469E+03  0.64722322177E+03  0.12225148235E+04  0.10074788297E+04 0.  0.
   -9000010    2    1    2    0  502  0.10493355090E+03  0.22275536469E+03  0.59860140501E+03  0.11895553609E+04  0.99804173860E+03 0.  0.
        -13    1    3    3    0    0 -0.45743427545E+02 -0.60457089435E+03  0.21626988686E+03  0.64371663221E+03  0.10566000000E+00 0.  1.
         13    1    4    4    0    0  0.43478392365E+01 -0.92167038896E+02 -0.25659644269E+03  0.27268188852E+03  0.10566000000E+00 0. -1.
          4    1    3    3  501    0 -0.59190123351E+02  0.38181552966E+03  0.43095333491E+03  0.57879819131E+03  0.00000000000E+00 0.  1.
         -4    1    4    4    0  502  0.10058571166E+03  0.31492240359E+03  0.85519784769E+03  0.91687347239E+03  0.00000000000E+00 0. -1.
</event>
<event>
 8    1  0.7008488E-006  0.1122592E+04  0.7818608E-02  0.8671153E-01
         21   -1    0    0  501  502  0.00000000000E+00  0.00000000000E+00  0.73550712775E+03  0.73550712775E+03  0.00000000000E+00 0.  1.
         21   -1    0    0  502  503 -0.00000000000E+00 -0.00000000000E+00 -0.16859551413E+04  0.16859551413E+04  0.00000000000E+00 0.  1.
   -9000010    2    1    2    0  503 -0.29031331430E+03  0.36231869774E+03 -0.51376102667E+03  0.12345698365E+04  0.10220839640E+04 0.  0.
    9000010    2    1    2  501    0  0.29031331430E+03 -0.36231869774E+03 -0.43668698691E+03  0.11868924326E+04  0.10012299750E+04 0.  0.
        -13    1    4    4    0    0 -0.30024244036E+03 -0.55188791710E+02 -0.42230846109E+03  0.52109094523E+03  0.10566000000E+00 0.  1.
         13    1    3    3    0    0 -0.10489960906E+03 -0.14303741366E+02  0.30042518390E+03  0.31853387149E+03  0.10566000000E+00 0. -1.
          4    1    4    4  501    0  0.59055575467E+03 -0.30712990603E+03 -0.14378525817E+02  0.66580148735E+03  0.00000000000E+00 0.  1.
         -4    1    3    3    0  503 -0.18541370524E+03  0.37662243911E+03 -0.81418621057E+03  0.91603596503E+03  0.00000000000E+00 0. -1.
</event>
<event>
 8    1  0.7008488E-006  0.1024424E+04  0.7818608E-02  0.8753577E-01
         21   -1    0    0  503  502  0.00000000000E+00  0.00000000000E+00  0.85464641001E+03  0.85464641001E+03  0.00000000000E+00 0.  1.
         21   -1    0    0  501  503 -0.00000000000E+00 -0.00000000000E+00 -0.12196571609E+04  0.12196571609E+04  0.00000000000E+00 0.  1.
    9000010    2    1    2  501    0  0.14962769529E+03 -0.13125524340E+03 -0.19120539767E+03  0.10352402606E+04  0.99777076869E+03 0.  0.
   -9000010    2    1    2    0  502 -0.14962769529E+03  0.13125524340E+03 -0.17380535324E+03  0.10390633104E+04  0.10049019236E+04 0.  0.
        -13    1    3    3    0    0  0.50716647217E+02  0.43067916409E+03 -0.54697033058E+00  0.43365542891E+03  0.10566000000E+00 0.  1.
         13    1    4    4    0    0 -0.31602146384E+02 -0.42301375941E+03  0.55350980012E+02  0.42778859084E+03  0.10566000000E+00 0. -1.
          4    1    3    3  501    0  0.98911048078E+02 -0.56193440749E+03 -0.19065842734E+03  0.60158483164E+03  0.00000000000E+00 0.  1.
         -4    1    4    4    0  502 -0.11802554891E+03  0.55426900281E+03 -0.22915633325E+03  0.61127471953E+03  0.00000000000E+00 0. -1.
</event>
<event>
 8    1  0.7008488E-006  0.1068950E+04  0.7818608E-02  0.8714417E-01
         21   -1    0    0  503  502  0.00000000000E+00  0.00000000000E+00  0.34885940975E+03  0.34885940975E+03  0.00000000000E+00 0.  1.
         21   -1    0    0  501  503 -0.00000000000E+00 -0.00000000000E+00 -0.32604982521E+04  0.32604982521E+04  0.00000000000E+00 0.  1.
    9000010    2    1    2  501    0 -0.31241462588E+03 -0.16176938347E+03 -0.13320332905E+04  0.17020537300E+04  0.99945083969E+03 0.  0.
   -9000010    2    1    2    0  502  0.31241462588E+03  0.16176938347E+03 -0.15796055518E+04  0.19073039318E+04  0.10093970265E+04 0.  0.
        -13    1    3    3    0    0 -0.43749744018E+03 -0.34422486988E+03 -0.13689238900E+04  0.14777846254E+04  0.10566000000E+00 0.  1.
         13    1    4    4    0    0  0.38061670600E+03  0.55200588639E+03 -0.10524000351E+04  0.12478483163E+04  0.10566000000E+00 0. -1.
          4    1    3    3  501    0  0.12508281430E+03  0.18245548641E+03  0.36890599521E+02  0.22426910462E+03  0.00000000000E+00 0.  1.
         -4    1    4    4    0  502 -0.68202080120E+02 -0.39023650292E+03 -0.52720551670E+03  0.65945561548E+03  0.00000000000E+00 0. -1.
</event>
<event>
 8    1  0.7008488E-006  0.1124075E+04  0.7818608E-02  0.8666752E-01
         21   -1    0    0  501  502  0.00000000000E+00  0.00000000000E+00  0.23753887973E+04  0.23753887973E+04  0.00000000000E+00 0. -1.
         21   -1    0    0  502  503 -0.00000000000E+00 -0.00000000000E+00 -0.56556381355E+03  0.56556381355E+03  0.00000000000E+00 0. -1.
   -9000010    2    1    2    0  503 -0.25963015405E+03  0.44483614481E+03  0.53630847006E+03  0.12423091838E+04  0.99519762885E+03 0.  0.
    9000010    2    1    2  501    0  0.25963015405E+03 -0.44483614481E+03  0.12735165137E+04  0.16986434271E+04  0.99912870493E+03 0.  0.
        -13    1    4    4    0    0 -0.25104795544E+03  0.13114153231E+03  0.11065213835E+03  0.30408400864E+03  0.10566000000E+00 0.  1.
         13    1    3    3    0    0 -0.21505509083E+03 -0.27781102740E+03  0.17803047616E+02  0.35177353327E+03  0.10566000000E+00 0. -1.
          4    1    4    4  501    0  0.51067810949E+03 -0.57597767712E+03  0.11628643754E+04  0.13945594184E+04  0.00000000000E+00 0.  1.
         -4    1    3    3    0  503 -0.44575063219E+02  0.72264717221E+03  0.51850542244E+03  0.89053565053E+03  0.00000000000E+00 0. -1.
</event>
<event>
 8    1  0.7008488E-006  0.1090856E+04  0.7818608E-02  0.8693656E-01
         21   -1    0    0  501  502  0.00000000000E+00  0.00000000000E+00  0.14457086692E+04  0.14457086692E+04  0.00000000000E+00 0.  1.
         21   -1    0    0  502  503 -0.00000000000E+00 -0.00000000000E+00 -0.10868816193E+04  0.10868816193E+04  0.00000000000E+00 0.  1.
   -9000010    2    1    2    0  503  0.19033659603E+03  0.39322206401E+03 -0.44455666293E+03  0.11779635496E+04  0.99955784535E+03 0.  0.
    9000010    2    1    2  501    0 -0.19033659603E+03 -0.39322206401E+03  0.80338371287E+03  0.13546267389E+04  0.99936810049E+03 0.  0.
        -13    1    4    4    0    0  0.11267618600E+03  0.28983933597E+02 -0.19615329806E+03  0.22806165571E+03  0.10566000000E+00 0.  1.
         13    1    3    3    0    0  0.35230593898E+03  0.62279752716E+03 -0.83389009106E+02  0.72038182409E+03  0.10566000000E+00 0. -1.
          4    1    4    4  501    0 -0.30301278203E+03 -0.42220599760E+03  0.99953701093E+03  0.11265650832E+04  0.00000000000E+00 0.  1.
         -4    1    3    3    0  503 -0.16196934295E+03 -0.22957546316E+03 -0.36116765382E+03  0.45758172549E+03  0.00000000000E+00 0. -1.
</event>
<event>
 8    1  0.7008488E-006  0.1072689E+04  0.7818608E-02  0.8710665E-01
         21   -1    0    0  501  502  0.00000000000E+00  0.00000000000E+00  0.68342729199E+03  0.68342729199E+03  0.00000000000E+00 0.  1.
         21   -1    0    0  502  503 -0.00000000000E+00 -0.00000000000E+00 -0.17790503157E+04  0.17790503157E+04  0.00000000000E+00 0.  1.
   -9000010    2    1    2    0  503  0.28690527974E+03 -0.12891244708E+03 -0.85065362299E+03  0.13690411299E+04  0.10255383808E+04 0.  0.
    9000010    2    1    2  501    0 -0.28690527974E+03  0.12891244708E+03 -0.24496940067E+03  0.10934364778E+04  0.10181651463E+04 0.  0.
        -13    1    4    4    0    0  0.16889065845E+03 -0.74461330408E+02 -0.49997381290E+03  0.53295625429E+03  0.10566000000E+00 0.  1.
         13    1    3    3    0    0  0.19853531883E+03 -0.57393937846E+03 -0.38592476360E+03  0.71955584723E+03  0.10566000000E+00 0. -1.
          4    1    4    4  501    0 -0.45579593819E+03  0.20337377749E+03  0.25500441223E+03  0.56048022347E+03  0.00000000000E+00 0.  1.
         -4    1    3    3    0  503  0.88369960907E+02  0.44502693137E+03 -0.46472885939E+03  0.64948528266E+03  0.00000000000E+00 0. -1.
</event>
<event>
 8    1  0.7008488E-006  0.1104598E+04  0.7818608E-02  0.8682411E-01
         21   -1    0    0  503  502  0.00000000000E+00  0.00000000000E+00  0.91652361527E+03  0.91652361527E+03  0.00000000000E+00 0. -1.
         21   -1    0    0  501  503 -0.00000000000E+00 -0.00000000000E+00 -0.13340480234E+04  0.13340480234E+04  0.00000000000E+00 0. -1.
    9000010    2    1    2  501    0  0.45039849472E+03  0.18323878564E+03 -0.14245536539E+03  0.11137460168E+04  0.99181722223E+03 0.  0.
   -9000010    2    1    2    0  502 -0.45039849472E+03 -0.18323878564E+03 -0.27506904271E+03  0.11368256218E+04  0.99008800592E+03 0.  0.
        -13    1    3    3    0    0  0.40177061583E+03  0.39782204082E+03  0.28486209982E+03  0.63311012547E+03  0.10566000000E+00 0.  1.
         13    1    4    4    0    0 -0.68201896073E+03 -0.52090419508E+02  0.84772972733E+02  0.68923852378E+03  0.10566000000E+00 0. -1.
          4    1    3    3  501    0  0.48627878890E+02 -0.21458325518E+03 -0.42731746521E+03  0.48063589138E+03  0.00000000000E+00 0.  1.
         -4    1    4    4    0  502  0.23162046601E+03 -0.13114836613E+03 -0.35984201544E+03  0.44758709800E+03  0.00000000000E+00 0. -1.
</event>
<event>
 8    1  0.7008488E-006  0.1083738E+04  0.7818608E-02  0.8718713E-01
         21   -1    0    0  503  502  0.00000000000E+00  0.00000000000E+00  0.19972697095E+04  0.19972697095E+04  0.00000000000E+00 0.  1.
         21   -1    0    0  501  503 -0.00000000000E+00 -0.00000000000E+00 -0.56792039528E+03  0.56792039528E+03  0.00000000000E+00 0.  1.
    9000010    2    1    2  501    0  0.27021446780E+03  0.20493419199E+03  0.41547934359E+03  0.10811345908E+04  0.93873054541E+03 0.  0.
   -9000010    2    1    2    0  502 -0.27021446780E+03 -0.20493419199E+03  0.10138699706E+04  0.14840555139E+04  0.10293078108E+04 0.  0.
        -13    1    3    3    0    0 -0.27578480208E+03 -0.16897991203E+03  0.21978269381E+03  0.39104464117E+03  0.10566000000E+00 0.  1.
         13    1    4    4    0    0  0.11703554233E+03 -0.25186224134E+03  0.10558079881E+04  0.10917245191E+04  0.10566000000E+00 0. -1.
          4    1    3    3  501    0  0.54599926988E+03  0.37391410402E+03  0.19569664979E+03  0.69008994966E+03  0.00000000000E+00 0.  1.
         -4    1    4    4    0  502 -0.38725001013E+03  0.46928049355E+02 -0.41938017503E+02  0.39233099479E+03  0.00000000000E+00 0. -1.
</event>
<event>
 8    1  0.7008488E-006  0.1313670E+04  0.7818608E-02  0.8541006E-01
         21   -1    0    0  503  502  0.00000000000E+00  0.00000000000E+00  0.98908201859E+03  0.98908201859E+03  0.00000000000E+00 0.  1.
         21   -1    0    0  501  503 -0.00000000000E+00 -0.00000000000E+00 -0.16363228280E+04  0.16363228280E+04  0.00000000000E+00 0.  1.
    9000010    2    1    2  501    0 -0.59991437669E+03 -0.48636370494E+03 -0.24993283423E+03  0.13372340838E+04  0.10626766491E+04 0.  0.
   -9000010    2    1    2    0  502  0.59991437669E+03  0.48636370494E+03 -0.39730797520E+03  0.12881707628E+04  0.95135869897E+03 0.  0.
        -13    1    3    3    0    0 -0.23411539973E+03 -0.33633971112E+03  0.40246801757E+03  0.57438222291E+03  0.10566000000E+00 0.  1.
         13    1    4    4    0    0  0.21635220999E+03 -0.20853157821E+02 -0.58586852316E+03  0.62488804642E+03  0.10566000000E+00 0. -1.
          4    1    3    3  501    0 -0.36579897696E+03 -0.15002399382E+03 -0.65240085179E+03  0.76285186090E+03  0.00000000000E+00 0.  1.
         -4    1    4    4    0  502  0.38356216669E+03  0.50721686276E+03  0.18856054796E+03  0.66328271637E+03  0.00000000000E+00 0. -1.
</event>
<event>
 8    1  0.7008488E-006  0.1144266E+04  0.7818608E-02  0.8650088E-01
         21   -1    0    0  501  502  0.00000000000E+00  0.00000000000E+00  0.95625949624E+03  0.95625949624E+03  0.00000000000E+00 0. -1.
         21   -1    0    0  502  503 -0.00000000000E+00 -0.00000000000E+00 -0.14583548056E+04  0.14583548056E+04  0.00000000000E+00 0. -1.
   -9000010    2    1    2    0  503 -0.20079383021E+03 -0.49365412035E+03 -0.55297494624E+03  0.12708758333E+04  0.10125865592E+04 0.  0.
    9000010    2    1    2  501    0  0.20079383021E+03  0.49365412035E+03  0.50879636931E+02  0.11437384684E+04  0.10107108360E+04 0.  0.
        -13    1    4    4    0    0  0.12468169422E+03  0.28208932119E+03  0.53072353013E+03  0.61383009587E+03  0.10566000000E+00 0.  1.
         13    1    3    3    0    0 -0.13254005775E+03 -0.63009779211E+03  0.52930259808E+02  0.64605860268E+03  0.10566000000E+00 0. -1.
          4    1    4    4  501    0  0.76112135984E+02  0.21156479916E+03 -0.47984389320E+03  0.52990837257E+03  0.00000000000E+00 0.  1.
         -4    1    3    3    0  503 -0.68253772454E+02  0.13644367176E+03 -0.60590520605E+03  0.62481723066E+03  0.00000000000E+00 0. -1.
</event>
<event>
 8    1  0.7008488E-006  0.1220773E+04  0.7818608E-02  0.8608711E-01
         21   -1    0    0  503  502  0.00000000000E+00  0.00000000000E+00  0.41604200687E+03  0.41604200687E+03  0.00000000000E+00 0. -1.
         21   -1    0    0  501  503 -0.00000000000E+00 -0.00000000000E+00 -0.34166411584E+04  0.34166411584E+04  0.00000000000E+00 0. -1.
    9000010    2    1    2  501    0  0.31605488385E+03  0.47804535137E+03 -0.18828823073E+04  0.22439991788E+04  0.10779000341E+04 0.  0.
   -9000010    2    1    2    0  502 -0.31605488385E+03 -0.47804535137E+03 -0.11177168442E+04  0.15886839864E+04  0.97273214065E+03 0.  0.
        -13    1    3    3    0    0 -0.28506714827E+03 -0.89264228639E+02 -0.17394744785E+03  0.34567196490E+03  0.10566000000E+00 0.  1.
         13    1    4    4    0    0 -0.45048668174E+03 -0.48783148664E+03 -0.12400609491E+04  0.14066516906E+04  0.10566000000E+00 0. -1.
          4    1    3    3  501    0  0.60112203212E+03  0.56730958001E+03 -0.17089348595E+04  0.18983272139E+04  0.00000000000E+00 0.  1.
         -4    1    4    4    0  502  0.13443179789E+03  0.97861352714E+01  0.12234410496E+03  0.18203229589E+03  0.00000000000E+00 0. -1.
</event>
<event>
 8    1  0.7008488E-006  0.1155839E+04  0.7818608E-02  0.8643588E-01
         21   -1    0    0  503  502  0.00000000000E+00  0.00000000000E+00  0.82729901237E+03  0.82729901237E+03  0.00000000000E+00 0.  1.
         21   -1    0    0  501  503 -0.00000000000E+00 -0.00000000000E+00 -0.15949546907E+04  0.15949546907E+04  0.00000000000E+00 0.  1.
    9000010    2    1    2  501    0  0.49010887115E+03  0.30373487632E+03 -0.41988447324E+03  0.12297429812E+04  0.10017500927E+04 0.  0.
   -9000010    2    1    2    0  502 -0.49010887115E+03 -0.30373487632E+03 -0.34777120504E+03  0.11925107219E+04  0.98421310193E+03 0.  0.
        -13    1    3    3    0    0  0.67391741450E+03 -0.11744567332E+03 -0.33777955233E+03  0.76292411476E+03  0.10566000000E+00 0.  1.
         13    1    4    4    0    0 -0.47812607691E+03  0.28159269589E+03 -0.18372037746E+03  0.58451020526E+03  0.10566000000E+00 0. -1.
          4    1    3    3  501    0 -0.18380854334E+03  0.42118054964E+03 -0.82104920909E+02  0.46681886641E+03  0.00000000000E+00 0.  1.
         -4    1    4    4    0  502 -0.11982794244E+02 -0.58532757221E+03 -0.16405082759E+03  0.60800051660E+03  0.00000000000E+00 0. -1.
</event>
<event>
 8    1  0.7008488E-006  0.1095729E+04  0.7818608E-02  0.8690082E-01
         21   -1    0    0  501  502  0.00000000000E+00  0.00000000000E+00  0.45125971620E+03  0.45125971620E+03  0.00000000000E+00 0.  1.
         21   -1    0    0  502  503 -0.00000000000E+00 -0.00000000000E+00 -0.27214787450E+04  0.27214787450E+04  0.00000000000E+00 0.  1.
   -9000010    2    1    2    0  503 -0.26705980574E+03  0.35729479254E+03 -0.13862597603E+04  0.17670139394E+04  0.10008204786E+04 0.  0.
    9000010    2    1    2  501    0  0.26705980574E+03 -0.35729479254E+03 -0.88395926847E+03  0.14057245217E+04  0.99784614750E+03 0.  0.
        -13    1    4    4    0    0  0.58228779534E+03 -0.47611758061E+03 -0.55391723397E+03  0.93411527148E+03  0.10566000000E+00 0.  1.
         13    1    3    3    0    0 -0.20633907939E+02  0.15686076163E+03  0.13804120155E+03  0.20996771463E+03  0.10566000000E+00 0. -1.
          4    1    4    4  501    0 -0.31522798960E+03  0.11882278806E+03 -0.33004203450E+03  0.47160925026E+03  0.00000000000E+00 0.  1.
         -4    1    3    3    0  503 -0.24642589780E+03  0.20043403091E+03 -0.15243009618E+04  0.15570462248E+04  0.00000000000E+00 0. -1.
</event>
<event>
 8    1  0.7008488E-006  0.1177511E+04  0.7818608E-02  0.8624429E-01
         21   -1    0    0  501  502  0.00000000000E+00  0.00000000000E+00  0.15908559882E+04  0.15908559882E+04  0.00000000000E+00 0. -1.
         21   -1    0    0  502  503 -0.00000000000E+00 -0.00000000000E+00 -0.11368270410E+04  0.11368270410E+04  0.00000000000E+00 0. -1.
   -9000010    2    1    2    0  503  0.61059309091E+03  0.38020032386E+02  0.88959671345E+03  0.14757758888E+04  0.10061126756E+04 0.  0.
    9000010    2    1    2  501    0 -0.61059309091E+03 -0.38020032386E+02 -0.43556776620E+03  0.12519071404E+04  0.10016400369E+04 0.  0.
        -13    1    4    4    0    0  0.15079887439E+03  0.28402151278E+03 -0.24304743804E+03  0.40308880974E+03  0.10566000000E+00 0.  1.
         13    1    3    3    0    0  0.69027135840E+02  0.47381003272E+03  0.30690564834E+03  0.56872821342E+03  0.10566000000E+00 0. -1.
          4    1    4    4  501    0 -0.76139196531E+03 -0.32204154516E+03 -0.19252032816E+03  0.84881833062E+03  0.00000000000E+00 0.  1.
         -4    1    3    3    0  503  0.54156595507E+03 -0.43579000034E+03  0.58269106511E+03  0.90704767540E+03  0.00000000000E+00 0. -1.
</event>
<event>
 8    1  0.7008488E-006  0.1257386E+04  0.7818608E-02  0.8585815E-01
         21   -1    0    0  503  502  0.00000000000E+00  0.00000000000E+00  0.14781062223E+04  0.14781062223E+04  0.00000000000E+00 0. -1.
         21   -1    0    0  501  503 -0.00000000000E+00 -0.00000000000E+00 -0.98796098001E+03  0.98796098001E+03  0.00000000000E+00 0. -1.
    9000010    2    1    2  501    0  0.33293160370E+03 -0.47346600466E+03  0.92993981632E+02  0.11474511284E+04  0.98639885494E+03 0.  0.
   -9000010    2    1    2    0  502 -0.33293160370E+03  0.47346600466E+03  0.39715126070E+03  0.13186160740E+04  0.11162462616E+04 0.  0.
        -13    1    3    3    0    0  0.28278237449E+03 -0.53237038211E+03  0.46887389716E+03  0.76369289487E+03  0.10566000000E+00 0.  1.
         13    1    4    4    0    0  0.34924249277E+03  0.10719418805E+03  0.40349425849E+03  0.54430555803E+03  0.10566000000E+00 0. -1.
          4    1    3    3  501    0  0.50149229202E+02  0.58904377453E+02 -0.37587991552E+03  0.38375823348E+03  0.00000000000E+00 0.  1.
         -4    1    4    4    0  502 -0.68217409646E+03  0.36627181661E+03 -0.63429977807E+01  0.77431051597E+03  0.00000000000E+00 0. -1.
</event>
<event>
 8    1  0.7008488E-006  0.1065835E+04  0.7818608E-02  0.8717152E-01
         21   -1    0    0  501  502  0.00000000000E+00  0.00000000000E+00  0.80002236286E+03  0.80002236286E+03  0.00000000000E+00 0. -1.
         21   -1    0    0  502  503 -0.00000000000E+00 -0.00000000000E+00 -0.14138936684E+04  0.14138936684E+04  0.00000000000E+00 0.  1.
   -9000010    2    1    2    0  503 -0.29800405439E+03  0.25164894654E+03 -0.38087030070E+03  0.11229097936E+04  0.98169782005E+03 0.  0.
    9000010    2    1    2  501    0  0.29800405439E+03 -0.25164894654E+03 -0.23300100488E+03  0.10910062377E+04  0.99190298602E+03 0.  0.
        -13    1    4    4    0    0 -0.27650333947E+02 -0.38710077888E+03  0.27280101889E+03  0.47437533773E+03  0.10566000000E+00 0.  1.
         13    1    3    3    0    0 -0.36729658960E+03 -0.28416415679E+03 -0.35044298586E+03  0.58177860930E+03  0.10566000000E+00 0. -1.
          4    1    4    4  501    0  0.32565438834E+03  0.13545183234E+03 -0.50580202378E+03  0.61663089996E+03  0.00000000000E+00 0.  1.
         -4    1    3    3    0  503  0.69292535210E+02  0.53581310333E+03 -0.30427314833E+02  0.54113118430E+03  0.00000000000E+00 0. -1.
</event>
<event>
 8    1  0.7008488E-006  0.1072080E+04  0.7818608E-02  0.8710217E-01
         21   -1    0    0  503  502  0.00000000000E+00  0.00000000000E+00  0.12070259192E+04  0.12070259192E+04  0.00000000000E+00 0.  1.
         21   -1    0    0  501  503 -0.00000000000E+00 -0.00000000000E+00 -0.95146042517E+03  0.95146042517E+03  0.00000000000E+00 0.  1.
    9000010    2    1    2  501    0  0.32922326925E+03 -0.19831894192E+03  0.17056438033E+03  0.10830421717E+04  0.99808304975E+03 0.  0.
   -9000010    2    1    2    0  502 -0.32922326925E+03  0.19831894192E+03  0.85001113663E+02  0.10754441726E+04  0.10008179731E+04 0.  0.
        -13    1    3    3    0    0  0.17685666873E+02 -0.55724998246E+03  0.23187819860E+03  0.60382765415E+03  0.10566000000E+00 0.  1.
         13    1    4    4    0    0 -0.17105420682E+03 -0.27649917887E+03 -0.30126272269E+03  0.44325001617E+03  0.10566000000E+00 0. -1.
          4    1    3    3  501    0  0.31153760238E+03  0.35893104054E+03 -0.61313818267E+02  0.47921451759E+03  0.00000000000E+00 0.  1.
         -4    1    4    4    0  502 -0.15816906243E+03  0.47481812080E+03  0.38626383635E+03  0.63219415643E+03  0.00000000000E+00 0. -1.
</event>
<event>
 8    1  0.7008488E-006  0.1078069E+04  0.7818608E-02  0.8708754E-01
         21   -1    0    0  503  502  0.00000000000E+00  0.00000000000E+00  0.25826292579E+04  0.25826292579E+04  0.00000000000E+00 0.  1.
         21   -1    0    0  501  503 -0.00000000000E+00 -0.00000000000E+00 -0.44216335568E+03  0.44216335568E+03  0.00000000000E+00 0.  1.
    9000010    2    1    2  501    0 -0.10819464832E+03  0.34590235200E+03  0.10413915148E+04  0.14989094520E+04  0.10153219879E+04 0.  0.
   -9000010    2    1    2    0  502  0.10819464832E+03 -0.34590235200E+03  0.10990743875E+04  0.15258831616E+04  0.99448498968E+03 0.  0.
        -13    1    3    3    0    0 -0.23665271357E+02 -0.24217395720E+03 -0.57197058540E+02  0.24995956730E+03  0.10566000000E+00 0.  1.
         13    1    4    4    0    0  0.16175658930E+03 -0.20609237323E+03 -0.12668596395E+03  0.29101306691E+03  0.10566000000E+00 0. -1.
          4    1    3    3  501    0 -0.84529376958E+02  0.58807630920E+03  0.10985885733E+04  0.12489498847E+04  0.00000000000E+00 0.  1.
         -4    1    4    4    0  502 -0.53561940988E+02 -0.13980997877E+03  0.12257603514E+04  0.12348700947E+04  0.00000000000E+00 0. -1.
</event>
<event>
 8    1  0.7008488E-006  0.1111055E+04  0.7818608E-02  0.8679069E-01
         21   -1    0    0  501  502  0.00000000000E+00  0.00000000000E+00  0.15776090319E+04  0.15776090319E+04  0.00000000000E+00 0.  1.
         21   -1    0    0  502  503 -0.00000000000E+00 -0.00000000000E+00 -0.77507251302E+03  0.77507251302E+03  0.00000000000E+00 0.  1.
   -9000010    2    1    2    0  503 -0.19845661673E+03  0.44026990665E+03  0.37334469521E+03  0.11721042574E+04  0.10006095689E+04 0.  0.
    9000010    2    1    2  501    0  0.19845661673E+03 -0.44026990665E+03  0.42919182369E+03  0.11805772876E+04  0.98809639760E+03 0.  0.
        -13    1    4    4    0    0  0.12577299373E+03 -0.71768597970E+03  0.86528692283E+02  0.73374330468E+03  0.10566000000E+00 0.  1.
         13    1    3    3    0    0  0.40264434698E+03  0.96658529590E+02  0.88588512192E+02  0.42345398470E+03  0.10566000000E+00 0. -1.
          4    1    4    4  501    0  0.72683623005E+02  0.27741607304E+03  0.34266313141E+03  0.44683398289E+03  0.00000000000E+00 0.  1.
         -4    1    3    3    0  503 -0.60110096372E+03  0.34361137706E+03  0.28475618302E+03  0.74865027269E+03  0.00000000000E+00 0. -1.
</event>
<event>
 8    1  0.7008488E-006  0.1103804E+04  0.7818608E-02  0.8683181E-01
         21   -1    0    0  503  502  0.00000000000E+00  0.00000000000E+00  0.11623249095E+04  0.11623249095E+04  0.00000000000E+00 0. -1.
         21   -1    0    0  501  503 -0.00000000000E+00 -0.00000000000E+00 -0.10543881586E+04  0.10543881586E+04  0.00000000000E+00 0. -1.
    9000010    2    1    2  501    0 -0.83502848318E+02 -0.43748742259E+03  0.15129893399E+03  0.11141254327E+04  0.10099584852E+04 0.  0.
   -9000010    2    1    2    0  502  0.83502848318E+02  0.43748742259E+03 -0.43362183051E+02  0.11025876354E+04  0.10076960079E+04 0.  0.
        -13    1    3    3    0    0 -0.90577942541E+02  0.16540622536E+03  0.41515806443E+03  0.45598225040E+03  0.10566000000E+00 0.  1.
         13    1    4    4    0    0  0.47307358327E+03  0.14324047577E+03 -0.27124081832E+03  0.56381560973E+03  0.10566000000E+00 0. -1.
          4    1    3    3  501    0  0.70750942231E+01 -0.60289364795E+03 -0.26385913043E+03  0.65814318230E+03  0.00000000000E+00 0.  1.
         -4    1    4    4    0  502 -0.38957073496E+03  0.29424694682E+03  0.22787863527E+03  0.53877202568E+03  0.00000000000E+00 0. -1.
</event>
<event>
 8    1  0.7008488E-006  0.1480197E+04  0.7818608E-02  0.8422364E-01
         21   -1    0    0  503  502  0.00000000000E+00  0.00000000000E+00  0.10322164649E+04  0.10322164649E+04  0.00000000000E+00 0. -1.
         21   -1    0    0  501  503 -0.00000000000E+00 -0.00000000000E+00 -0.21430617762E+04  0.21430617762E+04  0.00000000000E+00 0. -1.
    9000010    2    1    2  501    0 -0.35141524961E+03  0.10241728946E+04 -0.75680465673E+03  0.16624486302E+04  0.10092370206E+04 0.  0.
   -9000010    2    1    2    0  502  0.35141524961E+03 -0.10241728946E+04 -0.35404065457E+03  0.15128296110E+04  0.99543249451E+03 0.  0.
        -13    1    3    3    0    0 -0.23125559065E+03  0.66511467575E+03 -0.99214563227E+03  0.12166386674E+04  0.10566000000E+00 0.  1.
         13    1    4    4    0    0  0.20111383383E+03 -0.12129348701E+04 -0.29222351495E+03  0.12637453728E+04  0.10566000000E+00 0. -1.
          4    1    3    3  501    0 -0.12015965895E+03  0.35905821886E+03  0.23534097555E+03  0.44580996281E+03  0.00000000000E+00 0.  1.
         -4    1    4    4    0  502  0.15030141578E+03  0.18876197552E+03 -0.61817139623E+02  0.24908423824E+03  0.00000000000E+00 0. -1.
</event>
<event>
 8    1  0.7008488E-006  0.1198272E+04  0.7818608E-02  0.8620274E-01
         21   -1    0    0  501  502  0.00000000000E+00  0.00000000000E+00  0.13588528597E+04  0.13588528597E+04  0.00000000000E+00 0. -1.
         21   -1    0    0  502  503 -0.00000000000E+00 -0.00000000000E+00 -0.10181211914E+04  0.10181211914E+04  0.00000000000E+00 0. -1.
   -9000010    2    1    2    0  503 -0.32795451436E+03 -0.42762913971E+03  0.11875323949E+02  0.11343950754E+04  0.99814343619E+03 0.  0.
    9000010    2    1    2  501    0  0.32795451436E+03  0.42762913971E+03  0.32885634432E+03  0.12425789756E+04  0.10702500506E+04 0.  0.
        -13    1    4    4    0    0  0.47412264475E+03  0.20620746565E+02 -0.23694390504E+03  0.53043371193E+03  0.10566000000E+00 0.  1.
         13    1    3    3    0    0 -0.23224742210E+03  0.21422683291E+03  0.28951591944E+03  0.42854577327E+03  0.10566000000E+00 0. -1.
          4    1    4    4  501    0 -0.14616813038E+03  0.40700839314E+03  0.56580024937E+03  0.71214526370E+03  0.00000000000E+00 0.  1.
         -4    1    3    3    0  503 -0.95707092258E+02 -0.64185597262E+03 -0.27764059549E+03  0.70584930216E+03  0.00000000000E+00 0. -1.
</event>
<event>
 8    1  0.7008488E-006  0.1097116E+04  0.7818608E-02  0.8690598E-01
         21   -1    0    0  503  502  0.00000000000E+00  0.00000000000E+00  0.10286344433E+04  0.10286344433E+04  0.00000000000E+00 0. -1.
         21   -1    0    0  501  503 -0.00000000000E+00 -0.00000000000E+00 -0.11588953137E+04  0.11588953137E+04  0.00000000000E+00 0. -1.
    9000010    2    1    2  501    0 -0.39927134917E+03  0.32134091080E+00 -0.75568600919E+02  0.10997152176E+04  0.10218831796E+04 0.  0.
   -9000010    2    1    2    0  502  0.39927134917E+03 -0.32134091080E+00 -0.54692269502E+02  0.10878145394E+04  0.10104115569E+04 0.  0.
        -13    1    3    3    0    0  0.24183934787E+02 -0.46307554394E+03 -0.87387744358E+02  0.47186910381E+03  0.10566000000E+00 0.  1.
         13    1    4    4    0    0  0.21347677071E+03 -0.29459689173E+03 -0.43846188172E+03  0.56974423484E+03  0.10566000000E+00 0. -1.
          4    1    3    3  501    0 -0.42345528396E+03  0.46339688486E+03  0.11819143439E+02  0.62784611376E+03  0.00000000000E+00 0.  1.
         -4    1    4    4    0  502  0.18579457847E+03  0.29427555082E+03  0.38376961222E+03  0.51807030455E+03  0.00000000000E+00 0. -1.
</event>
<event>
 8    1  0.7008488E-006  0.1150236E+04  0.7818608E-02  0.8646076E-01
         21   -1    0    0  501  502  0.00000000000E+00  0.00000000000E+00  0.12725359425E+04  0.12725359425E+04  0.00000000000E+00 0. -1.
         21   -1    0    0  502  503 -0.00000000000E+00 -0.00000000000E+00 -0.11023438684E+04  0.11023438684E+04  0.00000000000E+00 0. -1.
   -9000010    2    1    2    0  503  0.56256529336E+03 -0.67121249846E+02 -0.20856975906E+03  0.11689932433E+04  0.10010289141E+04 0.  0.
    9000010    2    1    2  501    0 -0.56256529336E+03  0.67121249846E+02  0.37876183317E+03  0.12058865676E+04  0.99484517193E+03 0.  0.
        -13    1    4    4    0    0 -0.28125328351E+03 -0.24480441197E+03  0.61853278516E+03  0.72222948367E+03  0.10566000000E+00 0.  1.
         13    1    3    3    0    0  0.43259149331E+03 -0.48240092251E+03  0.70917272920E+02  0.65182460899E+03  0.10566000000E+00 0. -1.
          4    1    4    4  501    0 -0.28131200986E+03  0.31192566182E+03 -0.23977095199E+03  0.48365708390E+03  0.00000000000E+00 0.  1.
         -4    1    3    3    0  503  0.12997380005E+03  0.41527967267E+03 -0.27948703198E+03  0.51716863427E+03  0.00000000000E+00 0. -1.
</event>
<event>
 8    1  0.7008488E-006  0.1026426E+04  0.7818608E-02  0.8756390E-01
         21   -1    0    0  503  502  0.00000000000E+00  0.00000000000E+00  0.10459037249E+04  0.10459037249E+04  0.00000000000E+00 0.  1.
         21   -1    0    0  501  503 -0.00000000000E+00 -0.00000000000E+00 -0.98169868206E+03  0.98169868206E+03  0.00000000000E+00 0.  1.
    9000010    2    1    2  501    0 -0.20998028528E+03  0.12368822858E+03  0.38956275454E+01  0.99940606860E+03  0.96923001189E+03 0.  0.
   -9000010    2    1    2    0  502  0.20998028528E+03 -0.12368822858E+03  0.60309415268E+02  0.10281963383E+04  0.99707571754E+03 0.  0.
        -13    1    3    3    0    0 -0.37865552692E+03 -0.26297428524E+03  0.23600676924E+03  0.51791378535E+03  0.10566000000E+00 0.  1.
         13    1    4    4    0    0  0.48623885298E+03  0.94833292003E+02  0.32071609238E+03  0.59015286028E+03  0.10566000000E+00 0. -1.
          4    1    3    3  501    0  0.16867524164E+03  0.38666251382E+03 -0.23211114169E+03  0.48149228325E+03  0.00000000000E+00 0.  1.
         -4    1    4    4    0  502 -0.27625856770E+03 -0.21852152058E+03 -0.26040667711E+03  0.43804347806E+03  0.00000000000E+00 0. -1.
</event>
<event>
 8    1  0.7008488E-006  0.1088363E+04  0.7818608E-02  0.8698942E-01
         21   -1    0    0  503  502  0.00000000000E+00  0.00000000000E+00  0.17400668187E+04  0.17400668187E+04  0.00000000000E+00 0.  1.
         21   -1    0    0  501  503 -0.00000000000E+00 -0.00000000000E+00 -0.83820400085E+03  0.83820400085E+03  0.00000000000E+00 0.  1.
    9000010    2    1    2  501    0 -0.40920410960E+02  0.38482229030E+03 -0.12168020097E+03  0.10951442363E+04  0.10172375101E+04 0.  0.
   -9000010    2    1    2    0  502  0.40920410960E+02 -0.38482229030E+03  0.10235430188E+04  0.14831265832E+04  0.10011300991E+04 0.  0.
        -13    1    3    3    0    0  0.20329172466E+03  0.49685716184E+03 -0.42881008017E+03  0.68707544026E+03  0.10566000000E+00 0.  1.
         13    1    4    4    0    0 -0.10634348621E+03 -0.34441024138E+03 -0.79869468345E+02  0.36919709447E+03  0.10566000000E+00 0. -1.
          4    1    3    3  501    0 -0.24421213562E+03 -0.11203487153E+03  0.30712987920E+03  0.40806879606E+03  0.00000000000E+00 0.  1.
         -4    1    4    4    0  502  0.14726389717E+03 -0.40412048924E+02  0.11034124872E+04  0.11139294888E+04  0.00000000000E+00 0. -1.
</event>
<event>
 8    1  0.7008488E-006  0.1105163E+04  0.7818608E-02  0.8682185E-01
         21   -1    0    0  503  502  0.00000000000E+00  0.00000000000E+00  0.54816028543E+03  0.54816028543E+03  0.00000000000E+00 0. -1.
         21   -1    0    0  501  503 -0.00000000000E+00 -0.00000000000E+00 -0.22259956791E+04  0.22259956791E+04  0.00000000000E+00 0. -1.
    9000010    2    1    2  501    0  0.87392125073E+02 -0.46653988042E+03 -0.89362356860E+03  0.14212486475E+04  0.99804197909E+03 0.  0.
   -9000010    2    1    2    0  502 -0.87392125073E+02  0.46653988042E+03 -0.78421182504E+03  0.13529073170E+04  0.99502420995E+03 0.  0.
        -13    1    3    3    0    0  0.30865777036E+03 -0.67686453366E+03 -0.82010347280E+03  0.11072420392E+04  0.10566000000E+00 0.  1.
         13    1    4    4    0    0 -0.41978336647E+03  0.19489295142E+02 -0.65954711608E+03  0.78204879444E+03  0.10566000000E+00 0. -1.
          4    1    3    3  501    0 -0.22126564529E+03  0.21032465324E+03 -0.73520095801E+02  0.31400660826E+03  0.00000000000E+00 0.  1.
         -4    1    4    4    0  502  0.33239124140E+03  0.44705058528E+03 -0.12466470897E+03  0.57085852259E+03  0.00000000000E+00 0. -1.
</event>
<event>
 8    1  0.7008488E-006  0.1263565E+04  0.7818608E-02  0.8564681E-01
         21   -1    0    0  501  502  0.00000000000E+00  0.00000000000E+00  0.18357651013E+04  0.18357651013E+04  0.00000000000E+00 0.  1.
         21   -1    0    0  502  503 -0.00000000000E+00 -0.00000000000E+00 -0.86403817862E+03  0.86403817862E+03  0.00000000000E+00 0.  1.
   -9000010    2    1    2    0  503 -0.24993861668E+03 -0.66980357364E+03  0.33437176438E+03  0.13070581297E+04  0.10418686760E+04 0.  0.
    9000010    2    1    2  501    0  0.24993861668E+03  0.66980357364E+03  0.63735515831E+03  0.13927451503E+04  0.10111435686E+04 0.  0.
        -13    1    4    4    0    0  0.58257629276E+03  0.13020307060E+03  0.23266708411E+03  0.64068866048E+03  0.10566000000E+00 0.  1.
         13    1    3    3    0    0  0.15443408030E+03  0.20283938617E+03  0.22326252893E+03  0.33888031770E+03  0.10566000000E+00 0. -1.
          4    1    4    4  501    0 -0.33263767608E+03  0.53960050303E+03  0.40468807420E+03  0.75205648978E+03  0.00000000000E+00 0.  1.
         -4    1    3    3    0  503 -0.40437269698E+03 -0.87264295980E+03  0.11110923545E+03  0.96817781195E+03  0.00000000000E+00 0. -1.
</event>
<event>
 8    1  0.7008488E-006  0.1342732E+04  0.7818608E-02  0.8517198E-01
         21   -1    0    0  501  502  0.00000000000E+00  0.00000000000E+00  0.24762933876E+04  0.24762933876E+04  0.00000000000E+00 0. -1.
         21   -1    0    0  502  503 -0.00000000000E+00 -0.00000000000E+00 -0.69500305089E+03  0.69500305089E+03  0.00000000000E+00 0.  1.
   -9000010    2    1    2    0  503 -0.30837019599E+03  0.74736185271E+03  0.83062875774E+03  0.15788838020E+04  0.10720485112E+04 0.  0.
    9000010    2    1    2  501    0  0.30837019599E+03 -0.74736185271E+03  0.95066157893E+03  0.15924126365E+04  0.98913024949E+03 0.  0.
        -13    1    4    4    0    0  0.26237764742E+03 -0.36779477697E+03  0.10943653523E+04  0.11839554735E+04  0.10566000000E+00 0.  1.
         13    1    3    3    0    0 -0.30224617066E+03  0.10201255945E+04  0.59899587895E+03  0.12209852786E+04  0.10566000000E+00 0. -1.
          4    1    4    4  501    0  0.45992548566E+02 -0.37956707573E+03 -0.14370377333E+03  0.40845716296E+03  0.00000000000E+00 0.  1.
         -4    1    3    3    0  503 -0.61240253275E+01 -0.27276374182E+03  0.23163287879E+03  0.35789852343E+03  0.00000000000E+00 0. -1.
</event>
<event>
 7    1  0.7008488E-006  0.1440530E+04  0.7818608E-02  0.8494645E-01
         21   -1    0    0  501  502  0.00000000000E+00  0.00000000000E+00  0.14024527248E+04  0.14024527248E+04  0.00000000000E+00 0.  1.
         21   -1    0    0  502  503 -0.00000000000E+00 -0.00000000000E+00 -0.11943762397E+04  0.11943762397E+04  0.00000000000E+00 0.  1.
   -9000010    2    1    2    0  503  0.11060849199E+02 -0.56665592929E+03  0.40922903709E+02  0.11466334655E+04  0.99592787667E+03 0.  0.
        -13    1    1    2    0    0 -0.57478124263E+03  0.64541345377E+03  0.30320866867E+02  0.86478400154E+03  0.10566000000E+00 0.  1.
         13    1    3    3    0    0 -0.55621867787E+02  0.19183360686E+03 -0.26004106625E+03  0.32789524577E+03  0.10566000000E+00 0. -1.
          4    1    1    2  501    0  0.56372039343E+03 -0.78757524480E+02  0.13683271448E+03  0.58541149748E+03  0.00000000000E+00 0.  1.
         -4    1    3    3    0  503  0.66682716985E+02 -0.75848953616E+03  0.30096396996E+03  0.81873821971E+03  0.00000000000E+00 0. -1.
</event>
<event>
 8    1  0.7008488E-006  0.1066375E+04  0.7818608E-02  0.8717527E-01
         21   -1    0    0  503  502  0.00000000000E+00  0.00000000000E+00  0.20418286595E+04  0.20418286595E+04  0.00000000000E+00 0. -1.
         21   -1    0    0  501  503 -0.00000000000E+00 -0.00000000000E+00 -0.55213811800E+03  0.55213811800E+03  0.00000000000E+00 0. -1.
    9000010    2    1    2  501    0 -0.27175686807E+03 -0.20011783798E+03  0.83048266180E+03  0.13516125021E+04  0.10115611498E+04 0.  0.
   -9000010    2    1    2    0  502  0.27175686807E+03  0.20011783798E+03  0.65920787967E+03  0.12423542754E+04  0.99749194105E+03 0.  0.
        -13    1    3    3    0    0 -0.32336041342E+03  0.24339392995E+03 -0.44919149040E+01  0.40475023233E+03  0.10566000000E+00 0.  1.
         13    1    4    4    0    0  0.10814041657E+03  0.16114429573E+03 -0.25069719594E+03  0.31703458637E+03  0.10566000000E+00 0. -1.
          4    1    3    3  501    0  0.51603545356E+02 -0.44351176793E+03  0.83497457671E+03  0.94686226978E+03  0.00000000000E+00 0.  1.
         -4    1    4    4    0  502  0.16361645150E+03  0.38973542255E+02  0.90990507561E+03  0.92531968898E+03  0.00000000000E+00 0. -1.
</event>
<event>
 8    1  0.7008488E-006  0.1215965E+04  0.7818608E-02  0.8609792E-01
         21   -1    0    0  501  502  0.00000000000E+00  0.00000000000E+00  0.17700150874E+04  0.17700150874E+04  0.00000000000E+00 0. -1.
         21   -1    0    0  502  503 -0.00000000000E+00 -0.00000000000E+00 -0.86099596198E+03  0.86099596198E+03  0.00000000000E+00 0. -1.
   -9000010    2    1    2    0  503 -0.47603809288E+03 -0.21180830384E+03  0.70018399276E+02  0.12179796500E+04  0.10986795839E+04 0.  0.
    9000010    2    1    2  501    0  0.47603809288E+03  0.21180830384E+03  0.83900072612E+03  0.14130313994E+04  0.10105743386E+04 0.  0.
        -13    1    4    4    0    0  0.17206823481E+03 -0.35925642506E+03  0.63899212532E+02  0.40343001488E+03  0.10566000000E+00 0.  1.
         13    1    3    3    0    0 -0.49501650917E+03 -0.56058214281E+03  0.29341590476E+03  0.80335956304E+03  0.10566000000E+00 0. -1.
          4    1    4    4  501    0  0.30396985808E+03  0.57106472891E+03  0.77510151359E+03  0.10096013845E+04  0.00000000000E+00 0.  1.
         -4    1    3    3    0  503  0.18978416285E+02  0.34877383897E+03 -0.22339750548E+03  0.41462008693E+03  0.00000000000E+00 0. -1.
</event>
<event>
 8    1  0.7008488E-006  0.1177705E+04  0.7818608E-02  0.8629173E-01
         21   -1    0    0  501  502  0.00000000000E+00  0.00000000000E+00  0.13129557253E+04  0.13129557253E+04  0.00000000000E+00 0.  1.
         21   -1    0    0  502  503 -0.00000000000E+00 -0.00000000000E+00 -0.10783740918E+04  0.10783740918E+04  0.00000000000E+00 0. -1.
   -9000010    2    1    2    0  503  0.55267458260E+03 -0.24212094917E+03 -0.13558596613E+03  0.11568205461E+04  0.97763923482E+03 0.  0.
    9000010    2    1    2  501    0 -0.55267458260E+03  0.24212094917E+03  0.37016759963E+03  0.12345092709E+04  0.10113937611E+04 0.  0.
        -13    1    4    4    0    0 -0.59404616245E+03  0.49952352827E+02 -0.20206336494E+03  0.62945666673E+03  0.10566000000E+00 0.  1.
         13    1    3    3    0    0 -0.15859715528E+03 -0.38681275419E+03 -0.10135377259E+03  0.43017410760E+03  0.10566000000E+00 0. -1.
          4    1    4    4  501    0  0.41371579854E+02  0.19216859634E+03  0.57223096457E+03  0.60505260420E+03  0.00000000000E+00 0.  1.
         -4    1    3    3    0  503  0.71127173788E+03  0.14469180502E+03 -0.34232193544E+02  0.72664643853E+03  0.00000000000E+00 0. -1.
</event>
<event>
 8    1  0.7008488E-006  0.1153059E+04  0.7818608E-02  0.8647547E-01
         21   -1    0    0  501  502  0.00000000000E+00  0.00000000000E+00  0.67624846235E+03  0.67624846235E+03  0.00000000000E+00 0. -1.
         21   -1    0    0  502  503 -0.00000000000E+00 -0.00000000000E+00 -0.19540985350E+04  0.19540985350E+04  0.00000000000E+00 0. -1.
   -9000010    2    1    2    0  503  0.12813815424E+03 -0.55995723424E+03 -0.48651892854E+03  0.12514972301E+04  0.99978655636E+03 0.  0.
    9000010    2    1    2  501    0 -0.12813815424E+03  0.55995723424E+03 -0.79133114406E+03  0.13788497672E+04  0.97213692981E+03 0.  0.
        -13    1    4    4    0    0 -0.20153523425E+03  0.75179008745E+03 -0.86222306585E+03  0.11615650704E+04  0.10566000000E+00 0.  1.
         13    1    3    3    0    0  0.28260707305E+03 -0.75307073480E+03 -0.12576874543E+03  0.81412534529E+03  0.10566000000E+00 0. -1.
          4    1    4    4  501    0  0.73397080010E+02 -0.19183285320E+03  0.70891921793E+02  0.21728469688E+03  0.00000000000E+00 0.  1.
         -4    1    3    3    0  503 -0.15446891881E+03  0.19311350056E+03 -0.36075018311E+03  0.43737188477E+03  0.00000000000E+00 0. -1.
</event>
<event>
 8    1  0.7008488E-006  0.1145214E+04  0.7818608E-02  0.8652117E-01
         21   -1    0    0  503  502  0.00000000000E+00  0.00000000000E+00  0.17935019257E+04  0.17935019257E+04  0.00000000000E+00 0.  1.
         21   -1    0    0  501  503 -0.00000000000E+00 -0.00000000000E+00 -0.72553936407E+03  0.72553936407E+03  0.00000000000E+00 0.  1.
    9000010    2    1    2  501    0 -0.22415213088E+03  0.51228427417E+03  0.43495048753E+03  0.12105229538E+04  0.98158267088E+03 0.  0.
   -9000010    2    1    2    0  502  0.22415213088E+03 -0.51228427417E+03  0.63301207409E+03  0.13085183359E+04  0.99941812781E+03 0.  0.
        -13    1    3    3    0    0 -0.33291843218E+03  0.77593839582E+03  0.33314441320E+03  0.90768953272E+03  0.10566000000E+00 0.  1.
         13    1    4    4    0    0  0.17071568016E+03 -0.15830330007E+02  0.77152171201E+03  0.79034182862E+03  0.10566000000E+00 0. -1.
          4    1    3    3  501    0  0.10876630131E+03 -0.26365412165E+03  0.10180607433E+03  0.30283342110E+03  0.00000000000E+00 0.  1.
         -4    1    4    4    0  502  0.53436450721E+02 -0.49645394417E+03 -0.13850963792E+03  0.51817650732E+03  0.00000000000E+00 0. -1.
</event>
<event>
 8    1  0.7008488E-006  0.1053151E+04  0.7818608E-02  0.8726564E-01
         21   -1    0    0  501  502  0.00000000000E+00  0.00000000000E+00  0.15919046900E+04  0.15919046900E+04  0.00000000000E+00 0.  1.
         21   -1    0    0  502  503 -0.00000000000E+00 -0.00000000000E+00 -0.70337941616E+03  0.70337941616E+03  0.00000000000E+00 0.  1.
   -9000010    2    1    2    0  503  0.27789656908E+03  0.17277698131E+03  0.56447557515E+03  0.11934058738E+04  0.99925297917E+03 0.  0.
    9000010    2    1    2  501    0 -0.27789656908E+03 -0.17277698131E+03  0.32404969870E+03  0.11018782323E+04  0.10010239974E+04 0.  0.
        -13    1    4    4    0    0 -0.49799093406E+03 -0.46870308033E+03  0.22636500185E+03  0.72036009963E+03  0.10566000000E+00 0.  1.
         13    1    3    3    0    0  0.25802463906E+03 -0.37388430959E+03  0.77121470896E+02  0.46077535064E+03  0.10566000000E+00 0. -1.
          4    1    4    4  501    0  0.22009436498E+03  0.29592609902E+03  0.97684696852E+02  0.38151813270E+03  0.00000000000E+00 0.  1.
         -4    1    3    3    0  503  0.19871930020E+02  0.54666129091E+03  0.48735410426E+03  0.73263052319E+03  0.00000000000E+00 0. -1.
</event>
<event>
 8    1  0.7008488E-006  0.1174718E+04  0.7818608E-02  0.8628875E-01
         21   -1    0    0  501  502  0.00000000000E+00  0.00000000000E+00  0.10300785122E+04  0.10300785122E+04  0.00000000000E+00 0.  1.
         21   -1    0    0  502  503 -0.00000000000E+00 -0.00000000000E+00 -0.20535988717E+04  0.20535988717E+04  0.00000000000E+00 0.  1.
   -9000010    2    1    2    0  503  0.82529305368E+02 -0.60419783350E+03 -0.14342340871E+04  0.18539117645E+04  0.10040394940E+04 0.  0.
    9000010    2    1    2  501    0 -0.82529305368E+02  0.60419783350E+03  0.41071372763E+03  0.12297656195E+04  0.98578476582E+03 0.  0.
        -13    1    4    4    0    0 -0.16007271467E+03 -0.60407533917E+02 -0.24110736626E+03  0.29564356473E+03  0.10566000000E+00 0.  1.
         13    1    3    3    0    0 -0.37331810967E+03 -0.37954282120E+03 -0.11602576600E+04  0.12765645354E+04  0.10566000000E+00 0. -1.
          4    1    4    4  501    0  0.77543409305E+02  0.66460536741E+03  0.65182109389E+03  0.93412205474E+03  0.00000000000E+00 0.  1.
         -4    1    3    3    0  503  0.45584741504E+03 -0.22465501230E+03 -0.27397642709E+03  0.57734722910E+03  0.00000000000E+00 0. -1.
</event>
<event>
 8    1  0.7008488E-006  0.1218021E+04  0.7818608E-02  0.8599956E-01
         21   -1    0    0  503  502  0.00000000000E+00  0.00000000000E+00  0.12248299381E+04  0.12248299381E+04  0.00000000000E+00 0. -1.
         21   -1    0    0  501  503 -0.00000000000E+00 -0.00000000000E+00 -0.12392441413E+04  0.12392441413E+04  0.00000000000E+00 0. -1.
    9000010    2    1    2  501    0  0.57314695535E+03  0.27436149376E+03  0.27250961374E+03  0.12481330773E+04  0.10391357118E+04 0.  0.
   -9000010    2    1    2    0  502 -0.57314695535E+03 -0.27436149376E+03 -0.28692381693E+03  0.12159410020E+04  0.99620057318E+03 0.  0.
        -13    1    3    3    0    0  0.37644784301E+03 -0.10923484536E+03 -0.32648964585E+03  0.51013795189E+03  0.10566000000E+00 0.  1.
         13    1    4    4    0    0  0.72420799853E+02  0.30473171700E+03 -0.99883342452E+02  0.32875961561E+03  0.10566000000E+00 0. -1.
          4    1    3    3  501    0  0.19669911234E+03  0.38359633912E+03  0.59899925959E+03  0.73799512544E+03  0.00000000000E+00 0.  1.
         -4    1    4    4    0  502 -0.64556775520E+03 -0.57909321075E+03 -0.18704047448E+03  0.88718138641E+03  0.00000000000E+00 0. -1.
</event>
<event>
 8    1  0.7008488E-006  0.1113510E+04  0.7818608E-02  0.8674938E-01
         21   -1    0    0  503  502  0.00000000000E+00  0.00000000000E+00  0.19707557485E+04  0.19707557485E+04  0.00000000000E+00 0.  1.
         21   -1    0    0  501  503 -0.00000000000E+00 -0.00000000000E+00 -0.63133119419E+03  0.63133119419E+03  0.00000000000E+00 0.  1.
    9000010    2    1    2  501    0 -0.47452170427E+03 -0.70804226552E+02  0.58232168428E+03  0.12555692947E+04  0.10035794057E+04 0.  0.
   -9000010    2    1    2    0  502  0.47452170427E+03  0.70804226552E+02  0.75710287001E+03  0.13465176480E+04  0.10048487121E+04 0.  0.
        -13    1    3    3    0    0 -0.21141051837E+03  0.79311602370E+02  0.83257198289E+03  0.86264758471E+03  0.10566000000E+00 0.  1.
         13    1    4    4    0    0  0.66167675387E+03 -0.21790764037E+03  0.71770992805E+03  0.10002036884E+04  0.10566000000E+00 0. -1.
          4    1    3    3  501    0 -0.26311118591E+03 -0.15011582892E+03 -0.25025029861E+03  0.39292171001E+03  0.00000000000E+00 0.  1.
         -4    1    4    4    0  502 -0.18715504959E+03  0.28871186692E+03  0.39392941961E+02  0.34631395953E+03  0.00000000000E+00 0. -1.
</event>
<event>
 8    1  0.7008488E-006  0.1110648E+04  0.7818608E-02  0.8681118E-01
         21   -1    0    0  501  502  0.00000000000E+00  0.00000000000E+00  0.12890984192E+04  0.12890984192E+04  0.00000000000E+00 0.  1.
         21   -1    0    0  502  503 -0.00000000000E+00 -0.00000000000E+00 -0.94049331886E+03  0.94049331886E+03  0.00000000000E+00 0. -1.
   -9000010    2    1    2    0  503  0.83292536532E+02 -0.41256122860E+03  0.19367705302E+03  0.11274079883E+04  0.10278100784E+04 0.  0.
    9000010    2    1    2  501    0 -0.83292536532E+02  0.41256122860E+03  0.15492804731E+03  0.11021837497E+04  0.10068077792E+04 0.  0.
        -13    1    4    4    0    0  0.27784567013E+03 -0.89273100747E+02 -0.23200310411E+03  0.37281812511E+03  0.10566000000E+00 0.  1.
         13    1    3    3    0    0  0.10927406912E+03  0.50486452795E+02  0.53703572831E+03  0.55036087138E+03  0.10566000000E+00 0. -1.
          4    1    4    4  501    0 -0.36113820666E+03  0.50183432935E+03  0.38693115143E+03  0.72936562462E+03  0.00000000000E+00 0.  1.
         -4    1    3    3    0  503 -0.25981532585E+02 -0.46304768140E+03 -0.34335867529E+03  0.57704711695E+03  0.00000000000E+00 0. -1.
</event>
<event>
 8    1  0.7008488E-006  0.1063293E+04  0.7818608E-02  0.8717651E-01
         21   -1    0    0  501  502  0.00000000000E+00  0.00000000000E+00  0.94546178063E+03  0.94546178063E+03  0.00000000000E+00 0. -1.
         21   -1    0    0  502  503 -0.00000000000E+00 -0.00000000000E+00 -0.13661231554E+04  0.13661231554E+04  0.00000000000E+00 0. -1.
   -9000010    2    1    2    0  503 -0.32118759595E+03 -0.14848113591E+03 -0.62077044516E+03  0.12312387950E+04  0.10026888377E+04 0.  0.
    9000010    2    1    2  501    0  0.32118759595E+03  0.14848113591E+03  0.20010907042E+03  0.10803461410E+04  0.10009475634E+04 0.  0.
        -13    1    4    4    0    0  0.43143732723E+03 -0.19153443192E+03 -0.22667857360E+03  0.52364758458E+03  0.10566000000E+00 0.  1.
         13    1    3    3    0    0  0.28724828009E+03  0.77738860860E+02  0.45489792912E+02  0.30103859773E+03  0.10566000000E+00 0. -1.
          4    1    4    4  501    0 -0.11024973129E+03  0.34001556784E+03  0.42678764402E+03  0.55669855641E+03  0.00000000000E+00 0.  1.
         -4    1    3    3    0  503 -0.60843587603E+03 -0.22621999677E+03 -0.66626023807E+03  0.93020019728E+03  0.00000000000E+00 0. -1.
</event>
<event>
 8    1  0.7008488E-006  0.1070358E+04  0.7818608E-02  0.8714033E-01
         21   -1    0    0  503  502  0.00000000000E+00  0.00000000000E+00  0.16710219049E+04  0.16710219049E+04  0.00000000000E+00 0.  1.
         21   -1    0    0  501  503 -0.00000000000E+00 -0.00000000000E+00 -0.78087344729E+03  0.78087344729E+03  0.00000000000E+00 0.  1.
    9000010    2    1    2  501    0 -0.74481596688E+02 -0.26981670544E+03 -0.40862714386E+01  0.10571476134E+04  0.10194095429E+04 0.  0.
   -9000010    2    1    2    0  502  0.74481596688E+02  0.26981670544E+03  0.89423472909E+03  0.13947477389E+04  0.10331103240E+04 0.  0.
        -13    1    3    3    0    0  0.23611363589E+03  0.10414524315E+03 -0.36830556079E+03  0.44971644177E+03  0.10566000000E+00 0.  1.
         13    1    4    4    0    0  0.43859960838E+03  0.25973306308E+03  0.89558575844E+03  0.10304876236E+04  0.10566000000E+00 0. -1.
          4    1    3    3  501    0 -0.31059523257E+03 -0.37396194859E+03  0.36421928935E+03  0.60743117160E+03  0.00000000000E+00 0.  1.
         -4    1    4    4    0  502 -0.36411801169E+03  0.10083642365E+02 -0.13510293572E+01  0.36426011525E+03  0.00000000000E+00 0. -1.
</event>
<event>
 8    1  0.7008488E-006  0.1172119E+04  0.7818608E-02  0.8634406E-01
         21   -1    0    0  501  502  0.00000000000E+00  0.00000000000E+00  0.64983823722E+03  0.64983823722E+03  0.00000000000E+00 0.  1.
         21   -1    0    0  502  503 -0.00000000000E+00 -0.00000000000E+00 -0.20550308208E+04  0.20550308208E+04  0.00000000000E+00 0.  1.
   -9000010    2    1    2    0  503  0.18423841997E+03 -0.52757655428E+03 -0.67146375803E+03  0.13220381739E+04  0.99229055160E+03 0.  0.
    9000010    2    1    2  501    0 -0.18423841997E+03  0.52757655428E+03 -0.73372882559E+03  0.13828308842E+04  0.10303312325E+04 0.  0.
        -13    1    4    4    0    0  0.22479678726E+03 -0.19199018660E+03 -0.38316871373E+03  0.48395464835E+03  0.10566000000E+00 0.  1.
         13    1    3    3    0    0 -0.14290828226E+03 -0.31902381140E+03  0.17497932608E+03  0.39091782397E+03  0.10566000000E+00 0. -1.
          4    1    4    4  501    0 -0.40903520723E+03  0.71956674088E+03 -0.35056011186E+03  0.89887623584E+03  0.00000000000E+00 0.  1.
         -4    1    3    3    0  503  0.32714670223E+03 -0.20855274288E+03 -0.84644308411E+03  0.93112034989E+03  0.00000000000E+00 0. -1.
</event>
<event>
 8    1  0.7008488E-006  0.1239564E+04  0.7818608E-02  0.8578297E-01
         21   -1    0    0  501  502  0.00000000000E+00  0.00000000000E+00  0.78775869799E+03  0.78775869799E+03  0.00000000000E+00 0. -1.
         21   -1    0    0  502  503 -0.00000000000E+00 -0.00000000000E+00 -0.19859540122E+04  0.19859540122E+04  0.00000000000E+00 0. -1.
   -9000010    2    1    2    0  503 -0.63003023734E+03 -0.36242791016E+03 -0.80350206215E+03  0.14728274072E+04  0.99765370613E+03 0.  0.
    9000010    2    1    2  501    0  0.63003023734E+03  0.36242791016E+03 -0.39469325208E+03  0.13008853031E+04  0.10041054320E+04 0.  0.
        -13    1    4    4    0    0 -0.68323014642E+02 -0.18364792576E+03  0.16186118239E+03  0.25415280540E+03  0.10566000000E+00 0.  1.
         13    1    3    3    0    0  0.95893533145E+02  0.26056399846E+03 -0.17318591367E+03  0.32723468467E+03  0.10566000000E+00 0. -1.
          4    1    4    4  501    0  0.69835325199E+03  0.54607583592E+03 -0.55655443448E+03  0.10467324977E+04  0.00000000000E+00 0.  1.
         -4    1    3    3    0  503 -0.72592377049E+03 -0.62299190862E+03 -0.63031614848E+03  0.11455927225E+04  0.00000000000E+00 0. -1.
</event>
<event>
 8    1  0.7008488E-006  0.1559304E+04  0.7818608E-02  0.8377129E-01
         21   -1    0    0  501  502  0.00000000000E+00  0.00000000000E+00  0.20675529583E+04  0.20675529583E+04  0.00000000000E+00 0. -1.
         21   -1    0    0  502  503 -0.00000000000E+00 -0.00000000000E+00 -0.11708366013E+04  0.11708366013E+04  0.00000000000E+00 0.  1.
   -9000010    2    1    2    0  503 -0.49545385909E+03 -0.10966627000E+04  0.46587277273E+03  0.16274105573E+04  0.99160681599E+03 0.  0.
    9000010    2    1    2  501    0  0.49545385909E+03  0.10966627000E+04  0.43084358426E+03  0.16109790023E+04  0.98055267452E+03 0.  0.
        -13    1    4    4    0    0  0.17635465650E+03  0.16969422335E+03 -0.30074188143E+03  0.38774061525E+03  0.10566000000E+00 0.  1.
         13    1    3    3    0    0 -0.20529949713E+03 -0.11265073905E+04  0.85744457099E+02  0.11482677856E+04  0.10566000000E+00 0. -1.
          4    1    4    4  501    0  0.31909920259E+03  0.92696847669E+03  0.73158546569E+03  0.12232383870E+04  0.00000000000E+00 0.  1.
         -4    1    3    3    0  503 -0.29015436196E+03  0.29844690479E+02  0.38012831563E+03  0.47914277168E+03  0.00000000000E+00 0. -1.
</event>
<event>
 8    1  0.7008488E-006  0.1161585E+04  0.7818608E-02  0.8647254E-01
         21   -1    0    0  503  502  0.00000000000E+00  0.00000000000E+00  0.16375401374E+04  0.16375401374E+04  0.00000000000E+00 0. -1.
         21   -1    0    0  501  503 -0.00000000000E+00 -0.00000000000E+00 -0.78982214658E+03  0.78982214658E+03  0.00000000000E+00 0. -1.
    9000010    2    1    2  501    0  0.50292987153E+03 -0.34365070337E+03  0.31815672856E+03  0.11507590921E+04  0.92303224355E+03 0.  0.
   -9000010    2    1    2    0  502 -0.50292987153E+03  0.34365070337E+03  0.52956126226E+03  0.12766031918E+04  0.98906335354E+03 0.  0.
        -13    1    3    3    0    0  0.26565759956E+02  0.90615127666E+02 -0.26512130207E+03  0.28143588424E+03  0.10566000000E+00 0.  1.
         13    1    4    4    0    0  0.29372085873E+03  0.18640690411E+03  0.19064768904E+03  0.39669387347E+03  0.10566000000E+00 0. -1.
          4    1    3    3  501    0  0.47636411158E+03 -0.43426583103E+03  0.58327803062E+03  0.86932320791E+03  0.00000000000E+00 0.  1.
         -4    1    4    4    0  502 -0.79665073026E+03  0.15724379926E+03  0.33891357321E+03  0.87990931836E+03  0.00000000000E+00 0. -1.
</event>
<event>
 8    1  0.7008488E-006  0.1141793E+04  0.7818608E-02  0.8653194E-01
         21   -1    0    0  501  502  0.00000000000E+00  0.00000000000E+00  0.17934904134E+04  0.17934904134E+04  0.00000000000E+00 0. -1.
         21   -1    0    0  502  503 -0.00000000000E+00 -0.00000000000E+00 -0.80006429471E+03  0.80006429471E+03  0.00000000000E+00 0. -1.
   -9000010    2    1    2    0  503 -0.12268295974E+03 -0.52352135804E+03  0.90907857812E+02  0.11381401884E+04  0.99898605040E+03 0.  0.
    9000010    2    1    2  501    0  0.12268295974E+03  0.52352135804E+03  0.90251826087E+03  0.14554145197E+04  0.10072569146E+04 0.  0.
        -13    1    4    4    0    0 -0.32008561279E+03  0.55723695536E+03  0.74591325830E+03  0.98455798407E+03  0.10566000000E+00 0.  1.
         13    1    3    3    0    0  0.88121341171E+02  0.13767112627E+03  0.35877294544E+03  0.39425467317E+03  0.10566000000E+00 0. -1.
          4    1    4    4  501    0  0.44276857253E+03 -0.33715597325E+02  0.15660500257E+03  0.47085653564E+03  0.00000000000E+00 0.  1.
         -4    1    3    3    0  503 -0.21080430091E+03 -0.66119248430E+03 -0.26786508762E+03  0.74388551522E+03  0.00000000000E+00 0. -1.
</event>
<event>
 8    1  0.7008488E-006  0.1760042E+04  0.7818608E-02  0.8278613E-01
         21   -1    0    0  503  502  0.00000000000E+00  0.00000000000E+00  0.18323120495E+04  0.18323120495E+04  0.00000000000E+00 0. -1.
         21   -1    0    0  501  503 -0.00000000000E+00 -0.00000000000E+00 -0.17906826230E+04  0.17906826230E+04  0.00000000000E+00 0.  1.
    9000010    2    1    2  501    0  0.38866411833E+03 -0.13458545605E+04 -0.48323806463E+03  0.17863582306E+04  0.99758328276E+03 0.  0.
   -9000010    2    1    2    0  502 -0.38866411833E+03  0.13458545605E+04  0.52486749116E+03  0.18366364418E+04  0.10655342515E+04 0.  0.
        -13    1    3    3    0    0 -0.31319902440E+03 -0.66226845760E+03 -0.12504876222E+03  0.74318930490E+03  0.10566000000E+00 0.  1.
         13    1    4    4    0    0 -0.59660329135E+03  0.10248530134E+04  0.74001142672E+03  0.13978111851E+04  0.10566000000E+00 0. -1.
          4    1    3    3  501    0  0.70186314273E+03 -0.68358610293E+03 -0.35818930241E+03  0.10431689257E+04  0.00000000000E+00 0.  1.
         -4    1    4    4    0  502  0.20793917302E+03  0.32100154709E+03 -0.21514393556E+03  0.43882525669E+03  0.00000000000E+00 0. -1.
</event>
<event>
 8    1  0.7008488E-006  0.1059462E+04  0.7818608E-02  0.8726712E-01
         21   -1    0    0  501  502  0.00000000000E+00  0.00000000000E+00  0.12241934947E+04  0.12241934947E+04  0.00000000000E+00 0.  1.
         21   -1    0    0  502  503 -0.00000000000E+00 -0.00000000000E+00 -0.89796489065E+03  0.89796489065E+03  0.00000000000E+00 0.  1.
   -9000010    2    1    2    0  503 -0.21706200681E+02 -0.22049866053E+03  0.85334493045E+02  0.10356544948E+04  0.10080711475E+04 0.  0.
    9000010    2    1    2  501    0  0.21706200681E+02  0.22049866053E+03  0.24089411099E+03  0.10865038906E+04  0.10360356717E+04 0.  0.
        -13    1    4    4    0    0  0.58587832794E+02 -0.35479348508E+03  0.34771571366E+03  0.50021713275E+03  0.10566000000E+00 0.  1.
         13    1    3    3    0    0  0.18643468571E+03 -0.56211345793E+03  0.19036348016E+03  0.62206727721E+03  0.10566000000E+00 0. -1.
          4    1    4    4  501    0 -0.36881632112E+02  0.57529214562E+03 -0.10682160266E+03  0.58628675782E+03  0.00000000000E+00 0.  1.
         -4    1    3    3    0  503 -0.20814088640E+03  0.34161479740E+03 -0.10502898712E+03  0.41358721756E+03  0.00000000000E+00 0. -1.
</event>
<event>
 8    1  0.7008488E-006  0.1126019E+04  0.7818608E-02  0.8670278E-01
         21   -1    0    0  501  502  0.00000000000E+00  0.00000000000E+00  0.11821413954E+04  0.11821413954E+04  0.00000000000E+00 0. -1.
         21   -1    0    0  502  503 -0.00000000000E+00 -0.00000000000E+00 -0.11105606127E+04  0.11105606127E+04  0.00000000000E+00 0. -1.
   -9000010    2    1    2    0  503 -0.47160476125E+03  0.16113614851E+03  0.31296967076E+03  0.11687041089E+04  0.10097244031E+04 0.  0.
    9000010    2    1    2  501    0  0.47160476125E+03 -0.16113614851E+03 -0.24138888809E+03  0.11239978992E+04  0.97812410916E+03 0.  0.
        -13    1    4    4    0    0  0.74005712733E+02 -0.15493377338E+03  0.36240638880E+03  0.40102334278E+03  0.10566000000E+00 0.  1.
         13    1    3    3    0    0 -0.99463137935E+02  0.16863778881E+03  0.64244348239E+03  0.67161392098E+03  0.10566000000E+00 0. -1.
          4    1    4    4  501    0  0.39759904851E+03 -0.62023751357E+01 -0.60379527688E+03  0.72297455641E+03  0.00000000000E+00 0.  1.
         -4    1    3    3    0  503 -0.37214162331E+03 -0.75016402975E+01 -0.32947381163E+03  0.49709018796E+03  0.00000000000E+00 0. -1.
</event>
<event>
 8    1  0.7008488E-006  0.1017811E+04  0.7818608E-02  0.8759336E-01
         21   -1    0    0  501  502  0.00000000000E+00  0.00000000000E+00  0.90996949909E+03  0.90996949909E+03  0.00000000000E+00 0. -1.
         21   -1    0    0  502  503 -0.00000000000E+00 -0.00000000000E+00 -0.11337827113E+04  0.11337827113E+04  0.00000000000E+00 0. -1.
   -9000010    2    1    2    0  503  0.18412228618E+03  0.36861149662E+02 -0.15122192880E+03  0.10289833681E+04  0.10003394121E+04 0.  0.
    9000010    2    1    2  501    0 -0.18412228618E+03 -0.36861149662E+02 -0.72591283358E+02  0.10147688422E+04  0.99459868699E+03 0.  0.
        -13    1    4    4    0    0 -0.25956290418E+03 -0.15042232106E+03  0.41296738177E+03  0.51043299802E+03  0.10566000000E+00 0.  1.
         13    1    3    3    0    0 -0.23207322410E+03  0.15945021708E+03 -0.42947674450E+03  0.51354906124E+03  0.10566000000E+00 0. -1.
          4    1    4    4  501    0  0.75440617995E+02  0.11356117140E+03 -0.48555866513E+03  0.50433584423E+03  0.00000000000E+00 0.  1.
         -4    1    3    3    0  503  0.41619551029E+03 -0.12258906742E+03  0.27825481569E+03  0.51543430686E+03  0.00000000000E+00 0. -1.
</event>
<event>
 8    1  0.7008488E-006  0.1108048E+04  0.7818608E-02  0.8685302E-01
         21   -1    0    0  503  502  0.00000000000E+00  0.00000000000E+00  0.12815618890E+04  0.12815618890E+04  0.00000000000E+00 0.  1.
         21   -1    0    0  501  503 -0.00000000000E+00 -0.00000000000E+00 -0.93350293579E+03  0.93350293579E+03  0.00000000000E+00 0.  1.
    9000010    2    1    2  501    0  0.34337971846E+03 -0.32962670631E+03  0.15601074695E+03  0.11189768624E+04  0.10006030526E+04 0.  0.
   -9000010    2    1    2    0  502 -0.34337971846E+03  0.32962670631E+03  0.19204820626E+03  0.10960879624E+04  0.96848485337E+03 0.  0.
        -13    1    3    3    0    0 -0.14404177360E+03 -0.51963720379E+02  0.45727837558E+03  0.48223623331E+03  0.10566000000E+00 0.  1.
         13    1    4    4    0    0 -0.35835640337E+03 -0.19034681016E+03 -0.19257200655E+03  0.44914942819E+03  0.10566000000E+00 0. -1.
          4    1    3    3  501    0  0.48742149206E+03 -0.27766298593E+03 -0.30126762863E+03  0.63674062909E+03  0.00000000000E+00 0.  1.
         -4    1    4    4    0  502  0.14976684906E+02  0.51997351647E+03  0.38462021281E+03  0.64693853419E+03  0.00000000000E+00 0. -1.
</event>
<event>
 8    1  0.7008488E-006  0.1126257E+04  0.7818608E-02  0.8664538E-01
         21   -1    0    0  503  502  0.00000000000E+00  0.00000000000E+00  0.12012294273E+04  0.12012294273E+04  0.00000000000E+00 0.  1.
         21   -1    0    0  501  503 -0.00000000000E+00 -0.00000000000E+00 -0.14660294125E+04  0.14660294125E+04  0.00000000000E+00 0.  1.
    9000010    2    1    2  501    0 -0.42055525090E+02  0.50030525016E+03 -0.83887427712E+03  0.14043381650E+04  0.10081575365E+04 0.  0.
   -9000010    2    1    2    0  502  0.42055525090E+02 -0.50030525016E+03  0.57407429192E+03  0.12629206748E+04  0.10066445885E+04 0.  0.
        -13    1    3    3    0    0  0.44709837802E+03  0.86605249780E+02 -0.51164137025E+03  0.68496301494E+03  0.10566000000E+00 0.  1.
         13    1    4    4    0    0  0.49457603783E+03 -0.38785839982E+03  0.47090691779E+03  0.78536165675E+03  0.10566000000E+00 0. -1.
          4    1    3    3  501    0 -0.48915390311E+03  0.41370000038E+03 -0.32723290687E+03  0.71937515010E+03  0.00000000000E+00 0.  1.
         -4    1    4    4    0  502 -0.45252051274E+03 -0.11244685034E+03  0.10316737413E+03  0.47755901801E+03  0.00000000000E+00 0. -1.
</event>
<event>
 8    1  0.7008488E-006  0.1181611E+04  0.7818608E-02  0.8635067E-01
         21   -1    0    0  501  502  0.00000000000E+00  0.00000000000E+00  0.13425205597E+04  0.13425205597E+04  0.00000000000E+00 0.  1.
         21   -1    0    0  502  503 -0.00000000000E+00 -0.00000000000E+00 -0.99812298355E+03  0.99812298355E+03  0.00000000000E+00 0.  1.
   -9000010    2    1    2    0  503  0.49482058694E+03  0.39163722686E+03 -0.52606656979E+01  0.11083831078E+04  0.91118511204E+03 0.  0.
    9000010    2    1    2  501    0 -0.49482058694E+03 -0.39163722686E+03  0.34965824182E+03  0.12322604354E+04  0.99898837021E+03 0.  0.
        -13    1    4    4    0    0 -0.75288845716E+03 -0.12386571580E+03  0.39227020672E+03  0.85793919990E+03  0.10566000000E+00 0.  1.
         13    1    3    3    0    0 -0.46136127138E+02 -0.15638799046E+03  0.24883792845E+03  0.29749970014E+03  0.10566000000E+00 0. -1.
          4    1    4    4  501    0  0.25806787023E+03 -0.26777151106E+03 -0.42611964899E+02  0.37432123548E+03  0.00000000000E+00 0.  1.
         -4    1    3    3    0  503  0.54095671407E+03  0.54802521732E+03 -0.25409859414E+03  0.81088340769E+03  0.00000000000E+00 0. -1.
</event>
<event>
 8    1  0.7008488E-006  0.1186096E+04  0.7818608E-02  0.8621870E-01
         21   -1    0    0  501  502  0.00000000000E+00  0.00000000000E+00  0.18248856100E+04  0.18248856100E+04  0.00000000000E+00 0.  1.
         21   -1    0    0  502  503 -0.00000000000E+00 -0.00000000000E+00 -0.75623877807E+03  0.75623877807E+03  0.00000000000E+00 0.  1.
   -9000010    2    1    2    0  503 -0.37971341316E+02 -0.55622458906E+03  0.48683967157E+03  0.12821217957E+04  0.10468981885E+04 0.  0.
    9000010    2    1    2  501    0  0.37971341316E+02  0.55622458906E+03  0.58180716033E+03  0.12990025923E+04  0.10188623787E+04 0.  0.
        -13    1    4    4    0    0 -0.40912947000E+03  0.42683401270E+02  0.44218796852E+03  0.60393626041E+03  0.10566000000E+00 0.  1.
         13    1    3    3    0    0  0.40861385323E+02  0.16020624192E+03  0.53479908682E+03  0.55977296039E+03  0.10566000000E+00 0. -1.
          4    1    4    4  501    0  0.44710081131E+03  0.51354118779E+03  0.13961919181E+03  0.69506633191E+03  0.00000000000E+00 0.  1.
         -4    1    3    3    0  503 -0.78832726638E+02 -0.71643083099E+03 -0.47959415246E+02  0.72234883532E+03  0.00000000000E+00 0. -1.
</event>
<event>
 8    1  0.7008488E-006  0.1142147E+04  0.7818608E-02  0.8652070E-01
         21   -1    0    0  503  502  0.00000000000E+00  0.00000000000E+00  0.22424394265E+04  0.22424394265E+04  0.00000000000E+00 0. -1.
         21   -1    0    0  501  503 -0.00000000000E+00 -0.00000000000E+00 -0.92855603172E+03  0.92855603172E+03  0.00000000000E+00 0. -1.
    9000010    2    1    2  501    0 -0.55384866321E+03  0.79944082526E+02 -0.31368769425E+03  0.11844410462E+04  0.99567124311E+03 0.  0.
   -9000010    2    1    2    0  502  0.55384866321E+03 -0.79944082526E+02  0.16275710891E+04  0.19865544120E+04  0.99210452272E+03 0.  0.
        -13    1    3    3    0    0 -0.43193576236E+03  0.52096943097E+03 -0.25472473196E+03  0.72309221476E+03  0.10566000000E+00 0.  1.
         13    1    4    4    0    0  0.72246584469E+02  0.33147310611E+03  0.11336789505E+04  0.11833520030E+04  0.10566000000E+00 0. -1.
          4    1    3    3  501    0 -0.12191290085E+03 -0.44102534844E+03 -0.58962962288E+02  0.46134883145E+03  0.00000000000E+00 0.  1.
         -4    1    4    4    0  502  0.48160207874E+03 -0.41141718863E+03  0.49389213854E+03  0.80320240902E+03  0.00000000000E+00 0. -1.
</event>
<event>
 8    1  0.7008488E-006  0.1077540E+04  0.7818608E-02  0.8705275E-01
         21   -1    0    0  501  502  0.00000000000E+00  0.00000000000E+00  0.10952090897E+04  0.10952090897E+04  0.00000000000E+00 0.  1.
         21   -1    0    0  502  503 -0.00000000000E+00 -0.00000000000E+00 -0.10614500936E+04  0.10614500936E+04  0.00000000000E+00 0.  1.
   -9000010    2    1    2    0  503 -0.28683191353E+03  0.28550709877E+03 -0.37663450329E+02  0.10781980565E+04  0.99865192304E+03 0.  0.
    9000010    2    1    2  501    0  0.28683191353E+03 -0.28550709877E+03  0.71422446437E+02  0.10784611269E+04  0.99709096187E+03 0.  0.
        -13    1    4    4    0    0 -0.19175643371E+03  0.20307981193E+03  0.24644624992E+03  0.37248853022E+03  0.10566000000E+00 0.  1.
         13    1    3    3    0    0 -0.34727201782E+02 -0.35635615575E+03 -0.13319094572E+03  0.38201508801E+03  0.10566000000E+00 0. -1.
          4    1    4    4  501    0  0.47858834725E+03 -0.48858691070E+03 -0.17502380348E+03  0.70597259664E+03  0.00000000000E+00 0.  1.
         -4    1    3    3    0  503 -0.25210471175E+03  0.64186325451E+03  0.95527495390E+02  0.69618296845E+03  0.00000000000E+00 0. -1.
</event>
<event>
 8    1  0.7008488E-006  0.1060175E+04  0.7818608E-02  0.8722204E-01
         21   -1    0    0  501  502  0.00000000000E+00  0.00000000000E+00  0.88432343448E+03  0.88432343448E+03  0.00000000000E+00 0. -1.
         21   -1    0    0  502  503 -0.00000000000E+00 -0.00000000000E+00 -0.12616733275E+04  0.12616733275E+04  0.00000000000E+00 0. -1.
   -9000010    2    1    2    0  503  0.10861128367E+03 -0.32605268334E+03 -0.13941624255E+03  0.10594506198E+04  0.99241723279E+03 0.  0.
    9000010    2    1    2  501    0 -0.10861128367E+03  0.32605268334E+03 -0.23793365049E+03  0.10865461422E+04  0.10029273821E+04 0.  0.
        -13    1    4    4    0    0  0.15405988631E+02  0.43441115819E+03  0.29724756879E+03  0.52659901933E+03  0.10566000000E+00 0.  1.
         13    1    3    3    0    0 -0.13565974871E+03  0.65342631214E+02 -0.46891899265E+03  0.49250204030E+03  0.10566000000E+00 0. -1.
          4    1    4    4  501    0 -0.12401727230E+03 -0.10835847485E+03 -0.53518121928E+03  0.55994712283E+03  0.00000000000E+00 0.  1.
         -4    1    3    3    0  503  0.24427103238E+03 -0.39139531455E+03  0.32950275010E+03  0.56694857953E+03  0.00000000000E+00 0. -1.
</event>
<event>
 8    1  0.7008488E-006  0.1560500E+04  0.7818608E-02  0.8376056E-01
         21   -1    0    0  503  502  0.00000000000E+00  0.00000000000E+00  0.23698959567E+04  0.23698959567E+04  0.00000000000E+00 0. -1.
         21   -1    0    0  501  503 -0.00000000000E+00 -0.00000000000E+00 -0.10939116990E+04  0.10939116990E+04  0.00000000000E+00 0.  1.
    9000010    2    1    2  501    0 -0.97860122429E+03 -0.68959076264E+03  0.20225743836E+03  0.15695928957E+04  0.99474519889E+03 0.  0.
   -9000010    2    1    2    0  502  0.97860122429E+03  0.68959076264E+03  0.10737268193E+04  0.18942147600E+04  0.10009817673E+04 0.  0.
        -13    1    3    3    0    0 -0.52661427327E+03 -0.69567140366E+03  0.52123656666E+03  0.10163507585E+04  0.10566000000E+00 0.  1.
         13    1    4    4    0    0  0.10326977073E+04  0.83729232644E+03  0.73118878790E+03  0.15172870688E+04  0.10566000000E+00 0. -1.
          4    1    3    3  501    0 -0.45198695102E+03  0.60806410235E+01 -0.31897912830E+03  0.55324213720E+03  0.00000000000E+00 0.  1.
         -4    1    4    4    0  502 -0.54096482966E+02 -0.14770156380E+03  0.34253803140E+03  0.37692769118E+03  0.00000000000E+00 0. -1.
</event>
<event>
 8    1  0.7008488E-006  0.1238654E+04  0.7818608E-02  0.8582991E-01
         21   -1    0    0  501  502  0.00000000000E+00  0.00000000000E+00  0.10498694084E+04  0.10498694084E+04  0.00000000000E+00 0.  1.
         21   -1    0    0  502  503 -0.00000000000E+00 -0.00000000000E+00 -0.17023955748E+04  0.17023955748E+04  0.00000000000E+00 0.  1.
   -9000010    2    1    2    0  503  0.67140394582E+03  0.53274460470E+02  0.22771912864E+03  0.12326943840E+04  0.10070044767E+04 0.  0.
    9000010    2    1    2  501    0 -0.67140394582E+03 -0.53274460470E+02 -0.88024529503E+03  0.15195705993E+04  0.10395391288E+04 0.  0.
        -13    1    4    4    0    0 -0.40212126082E+03  0.33358138479E+03 -0.90780081879E+03  0.10474160522E+04  0.10566000000E+00 0.  1.
         13    1    3    3    0    0  0.34902967679E+03  0.45548511084E+03  0.38822260958E+03  0.69282408102E+03  0.10566000000E+00 0. -1.
          4    1    4    4  501    0 -0.26928268500E+03 -0.38685584526E+03  0.27555523755E+02  0.47215454709E+03  0.00000000000E+00 0.  1.
         -4    1    3    3    0  503  0.32237426903E+03 -0.40221065037E+03 -0.16050348094E+03  0.53987030294E+03  0.00000000000E+00 0. -1.
</event>
<event>
 8    1  0.7008488E-006  0.1188711E+04  0.7818608E-02  0.8618819E-01
         21   -1    0    0  503  502  0.00000000000E+00  0.00000000000E+00  0.93349672401E+03  0.93349672401E+03  0.00000000000E+00 0. -1.
         21   -1    0    0  501  503 -0.00000000000E+00 -0.00000000000E+00 -0.16149741337E+04  0.16149741337E+04  0.00000000000E+00 0. -1.
    9000010    2    1    2  501    0 -0.57793563425E+03  0.10900466401E+03 -0.69372298337E+03  0.13596971216E+04  0.10107586609E+04 0.  0.
   -9000010    2    1    2    0  502  0.57793563425E+03 -0.10900466401E+03  0.12245573682E+02  0.11887737361E+04  0.10330253760E+04 0.  0.
        -13    1    3    3    0    0 -0.33419339775E+03  0.51914720685E+03 -0.14815354744E+03  0.63493978790E+03  0.10566000000E+00 0.  1.
         13    1    4    4    0    0 -0.86634102745E+02  0.31238267709E+03 -0.19071909116E+03  0.37611459371E+03  0.10566000000E+00 0. -1.
          4    1    3    3  501    0 -0.24374223650E+03 -0.41014254283E+03 -0.54556943593E+03  0.72475733368E+03  0.00000000000E+00 0.  1.
         -4    1    4    4    0  502  0.66456973699E+03 -0.42138734111E+03  0.20296466484E+03  0.81265914241E+03  0.00000000000E+00 0. -1.
</event>
<event>
 8    1  0.7008488E-006  0.1128549E+04  0.7818608E-02  0.8663890E-01
         21   -1    0    0  501  502  0.00000000000E+00  0.00000000000E+00  0.13800918916E+04  0.13800918916E+04  0.00000000000E+00 0.  1.
         21   -1    0    0  502  503 -0.00000000000E+00 -0.00000000000E+00 -0.95643994942E+03  0.95643994942E+03  0.00000000000E+00 0.  1.
   -9000010    2    1    2    0  503 -0.35064482862E+03 -0.37894182083E+03 -0.26435221323E+02  0.11215417845E+04  0.99529314982E+03 0.  0.
    9000010    2    1    2  501    0  0.35064482862E+03  0.37894182083E+03  0.45008716345E+03  0.12149900565E+04  0.10035306090E+04 0.  0.
        -13    1    4    4    0    0 -0.21622904618E+03  0.41469010141E+03 -0.33690837663E+02  0.46889014100E+03  0.10566000000E+00 0.  1.
         13    1    3    3    0    0 -0.58058979211E+03  0.77876503903E+02 -0.12925813223E+03  0.59988076522E+03  0.10566000000E+00 0. -1.
          4    1    4    4  501    0  0.56687387479E+03 -0.35748280587E+02  0.48377800112E+03  0.74609991546E+03  0.00000000000E+00 0.  1.
         -4    1    3    3    0  503  0.22994496349E+03 -0.45681832473E+03  0.10282291091E+03  0.52166101930E+03  0.00000000000E+00 0. -1.
</event>
<event>
 8    1  0.7008488E-006  0.1017712E+04  0.7818608E-02  0.8759004E-01
         21   -1    0    0  501  502  0.00000000000E+00  0.00000000000E+00  0.49764361496E+03  0.49764361496E+03  0.00000000000E+00 0. -1.
         21   -1    0    0  502  503 -0.00000000000E+00 -0.00000000000E+00 -0.21238948180E+04  0.21238948180E+04  0.00000000000E+00 0. -1.
   -9000010    2    1    2    0  503  0.18179600754E+03 -0.12105241094E+03 -0.10135548003E+04  0.14336264960E+04  0.99009500679E+03 0.  0.
    9000010    2    1    2  501    0 -0.18179600754E+03  0.12105241094E+03 -0.61269640281E+03  0.11879119369E+04  0.99399920189E+03 0.  0.
        -13    1    4    4    0    0 -0.50771316660E+03  0.94622367465E+02 -0.27048519761E+02  0.51716311310E+03  0.10566000000E+00 0.  1.
         13    1    3    3    0    0 -0.25041940962E+03  0.30468499574E+03 -0.29086283303E+03  0.49004492258E+03  0.10566000000E+00 0. -1.
          4    1    4    4  501    0  0.32591715906E+03  0.26430043479E+02 -0.58564788305E+03  0.67074882384E+03  0.00000000000E+00 0.  1.
         -4    1    3    3    0  503  0.43221541716E+03 -0.42573740669E+03 -0.72269196723E+03  0.94358157346E+03  0.00000000000E+00 0. -1.
</event>
<event>
 8    1  0.7008488E-006  0.1151470E+04  0.7818608E-02  0.8645588E-01
         21   -1    0    0  501  502  0.00000000000E+00  0.00000000000E+00  0.12874885594E+04  0.12874885594E+04  0.00000000000E+00 0.  1.
         21   -1    0    0  502  503 -0.00000000000E+00 -0.00000000000E+00 -0.11473424533E+04  0.11473424533E+04  0.00000000000E+00 0.  1.
   -9000010    2    1    2    0  503 -0.23629506716E+03 -0.52458859136E+03  0.47092354973E+03  0.12367921248E+04  0.98836087612E+03 0.  0.
    9000010    2    1    2  501    0  0.23629506716E+03  0.52458859136E+03 -0.33077744363E+03  0.11980388879E+04  0.99742413778E+03 0.  0.
        -13    1    4    4    0    0  0.14215971951E+03  0.47586213850E+03  0.28540275751E+03  0.57280791359E+03  0.10566000000E+00 0.  1.
         13    1    3    3    0    0 -0.33453309991E+03 -0.78346871793E+03  0.43813268693E+03  0.95796445102E+03  0.10566000000E+00 0. -1.
          4    1    4    4  501    0  0.94135347656E+02  0.48726452858E+02 -0.61618020115E+03  0.62523097426E+03  0.00000000000E+00 0.  1.
         -4    1    3    3    0  503  0.98238032744E+02  0.25888012656E+03  0.32790862804E+02  0.27882767383E+03  0.00000000000E+00 0. -1.
</event>
<event>
 8    1  0.7008488E-006  0.1192569E+04  0.7818608E-02  0.8613225E-01
         21   -1    0    0  503  502  0.00000000000E+00  0.00000000000E+00  0.79477669676E+03  0.79477669676E+03  0.00000000000E+00 0. -1.
         21   -1    0    0  501  503 -0.00000000000E+00 -0.00000000000E+00 -0.18415386937E+04  0.18415386937E+04  0.00000000000E+00 0. -1.
    9000010    2    1    2  501    0 -0.60142959747E+03  0.80605983684E+02 -0.76078548299E+03  0.14099377063E+04  0.10202523703E+04 0.  0.
   -9000010    2    1    2    0  502  0.60142959747E+03 -0.80605983684E+02 -0.28597651393E+03  0.12263776842E+04  0.10266473457E+04 0.  0.
        -13    1    3    3    0    0 -0.37762547142E+03  0.27518964983E+03  0.11844616564E+03  0.48203718254E+03  0.10566000000E+00 0.  1.
         13    1    4    4    0    0  0.52941697074E+03 -0.28536892938E+03 -0.59678967780E+03  0.84727544840E+03  0.10566000000E+00 0. -1.
          4    1    3    3  501    0 -0.22380412605E+03 -0.19458366614E+03 -0.87923164864E+03  0.92790052373E+03  0.00000000000E+00 0.  1.
         -4    1    4    4    0  502  0.72012626727E+02  0.20476294570E+03  0.31081316387E+03  0.37910223578E+03  0.00000000000E+00 0. -1.
</event>
<event>
 8    1  0.7008488E-006  0.1148893E+04  0.7818608E-02  0.8650549E-01
         21   -1    0    0  503  502  0.00000000000E+00  0.00000000000E+00  0.20171297331E+04  0.20171297331E+04  0.00000000000E+00 0.  1.
         21   -1    0    0  501  503 -0.00000000000E+00 -0.00000000000E+00 -0.66995103518E+03  0.66995103518E+03  0.00000000000E+00 0.  1.
    9000010    2    1    2  501    0  0.46374377488E+03 -0.29065024195E+03  0.40415275889E+03  0.12179061848E+04  0.10101584879E+04 0.  0.
   -9000010    2    1    2    0  502 -0.46374377488E+03  0.29065024195E+03  0.94302593900E+03  0.14691745834E+04  0.98470309386E+03 0.  0.
        -13    1    3    3    0    0 -0.41755870000E+02 -0.56591875733E+03  0.26201153283E+03  0.62502611712E+03  0.10566000000E+00 0.  1.
         13    1    4    4    0    0 -0.30248311132E+03 -0.96626845676E+01  0.10649791441E+04  0.11071449718E+04  0.10566000000E+00 0. -1.
          4    1    3    3  501    0  0.50549964488E+03  0.27526851538E+03  0.14214122606E+03  0.59288006770E+03  0.00000000000E+00 0.  1.
         -4    1    4    4    0  502 -0.16126066356E+03  0.30031292652E+03 -0.12195320509E+03  0.36202961160E+03  0.00000000000E+00 0. -1.
</event>
<event>
 8    1  0.7008488E-006  0.1462635E+04  0.7818608E-02  0.8432168E-01
         21   -1    0    0  501  502  0.00000000000E+00  0.00000000000E+00  0.11838405530E+04  0.11838405530E+04  0.00000000000E+00 0. -1.
         21   -1    0    0  502  503 -0.00000000000E+00 -0.00000000000E+00 -0.18012792829E+04  0.18012792829E+04  0.00000000000E+00 0.  1.
   -9000010    2    1    2    0  503 -0.92766922940E+03  0.51798314606E+03 -0.34538154179E+03  0.14973978055E+04  0.99701305903E+03 0.  0.
    9000010    2    1    2  501    0  0.92766922940E+03 -0.51798314606E+03 -0.27205718805E+03  0.14877220303E+04  0.10051989789E+04 0.  0.
        -13    1    4    4    0    0  0.40709943356E+03 -0.67443207550E+03  0.14699800666E+03  0.80137194760E+03  0.10566000000E+00 0.  1.
         13    1    3    3    0    0 -0.75528214180E+03 -0.13886647666E+03 -0.95808174412E+02  0.77389549004E+03  0.10566000000E+00 0. -1.
          4    1    4    4  501    0  0.52056979583E+03  0.15644892943E+03 -0.41905519471E+03  0.68635008273E+03  0.00000000000E+00 0.  1.
         -4    1    3    3    0  503 -0.17238708760E+03  0.65684962272E+03 -0.24957336737E+03  0.72350231551E+03  0.00000000000E+00 0. -1.
</event>
<event>
 8    1  0.7008488E-006  0.1140107E+04  0.7818608E-02  0.8653969E-01
         21   -1    0    0  501  502  0.00000000000E+00  0.00000000000E+00  0.66209987301E+03  0.66209987301E+03  0.00000000000E+00 0. -1.
         21   -1    0    0  502  503 -0.00000000000E+00 -0.00000000000E+00 -0.21609434346E+04  0.21609434346E+04  0.00000000000E+00 0. -1.
   -9000010    2    1    2    0  503 -0.52383667555E+03 -0.12652489897E+03 -0.11858434031E+04  0.16450134305E+04  0.10047045323E+04 0.  0.
    9000010    2    1    2  501    0  0.52383667555E+03  0.12652489897E+03 -0.31300015846E+03  0.11780298771E+04  0.99968589036E+03 0.  0.
        -13    1    4    4    0    0 -0.20035630468E+03 -0.77754661388E+02 -0.36522551824E+03  0.42376659440E+03  0.10566000000E+00 0.  1.
         13    1    3    3    0    0 -0.30588360072E+03 -0.43775864661E+03 -0.11443074798E+04  0.12627893844E+04  0.10566000000E+00 0. -1.
          4    1    4    4  501    0  0.72419298023E+03  0.20427956036E+03  0.52225359784E+02  0.75426328268E+03  0.00000000000E+00 0.  1.
         -4    1    3    3    0  503 -0.21795307483E+03  0.31123374764E+03 -0.41535923308E+02  0.38222404611E+03  0.00000000000E+00 0. -1.
</event>
<event>
 8    1  0.7008488E-006  0.1116147E+04  0.7818608E-02  0.8676787E-01
         21   -1    0    0  501  502  0.00000000000E+00  0.00000000000E+00  0.95759000080E+03  0.95759000080E+03  0.00000000000E+00 0.  1.
         21   -1    0    0  502  503 -0.00000000000E+00 -0.00000000000E+00 -0.20434320432E+04  0.20434320432E+04  0.00000000000E+00 0.  1.
   -9000010    2    1    2    0  503 -0.43522473347E+03  0.18473844414E+03 -0.14648975566E+04  0.18416592944E+04  0.10110564990E+04 0.  0.
    9000010    2    1    2  501    0  0.43522473347E+03 -0.18473844414E+03  0.37905551421E+03  0.11593627495E+04  0.98837747889E+03 0.  0.
        -13    1    4    4    0    0  0.15259400594E+03  0.17436303575E+03 -0.27618333652E+03  0.36050609623E+03  0.10566000000E+00 0.  1.
         13    1    3    3    0    0 -0.75027683461E+03  0.22892016764E+03 -0.11648672127E+04  0.14043629894E+04  0.10566000000E+00 0. -1.
          4    1    4    4  501    0  0.28263072753E+03 -0.35910147989E+03  0.65523885074E+03  0.79885665330E+03  0.00000000000E+00 0.  1.
         -4    1    3    3    0  503  0.31505210114E+03 -0.44181723504E+02 -0.30003034388E+03  0.43729630500E+03  0.00000000000E+00 0. -1.
</event>
<event>
 8    1  0.7008488E-006  0.1056995E+04  0.7818608E-02  0.8730772E-01
         21   -1    0    0  501  502  0.00000000000E+00  0.00000000000E+00  0.11478174981E+04  0.11478174981E+04  0.00000000000E+00 0.  1.
         21   -1    0    0  502  503 -0.00000000000E+00 -0.00000000000E+00 -0.94606571441E+03  0.94606571441E+03  0.00000000000E+00 0.  1.
   -9000010    2    1    2    0  503  0.27488398574E+03  0.12790458426E+03  0.21421137962E+02  0.10216156578E+04  0.97535578063E+03 0.  0.
    9000010    2    1    2  501    0 -0.27488398574E+03 -0.12790458426E+03  0.18033064575E+03  0.10722675547E+04  0.10125797642E+04 0.  0.
        -13    1    4    4    0    0 -0.46753825996E+03  0.31801893880E+03  0.41048461134E+02  0.56693302717E+03  0.10566000000E+00 0.  1.
         13    1    3    3    0    0  0.12240782606E+02 -0.20167457902E+03 -0.38585041745E+03  0.43554911134E+03  0.10566000000E+00 0. -1.
          4    1    4    4  501    0  0.19265427422E+03 -0.44592352306E+03  0.13928218461E+03  0.50533452757E+03  0.00000000000E+00 0.  1.
         -4    1    3    3    0  503  0.26264320314E+03  0.32957916328E+03  0.40727155541E+03  0.58606654645E+03  0.00000000000E+00 0. -1.
</event>
<event>
 8    1  0.7008488E-006  0.1082550E+04  0.7818608E-02  0.8705882E-01
         21   -1    0    0  503  502  0.00000000000E+00  0.00000000000E+00  0.11247324975E+04  0.11247324975E+04  0.00000000000E+00 0. -1.
         21   -1    0    0  501  503 -0.00000000000E+00 -0.00000000000E+00 -0.10195997623E+04  0.10195997623E+04  0.00000000000E+00 0. -1.
    9000010    2    1    2  501    0 -0.92532177086E+02  0.29265503260E+03  0.80601201824E+02  0.10615040325E+04  0.10129585803E+04 0.  0.
   -9000010    2    1    2    0  502  0.92532177086E+02 -0.29265503260E+03  0.24531533378E+02  0.10828282272E+04  0.10381261973E+04 0.  0.
        -13    1    3    3    0    0  0.15086433794E+03  0.62639808957E+03  0.72278553302E+02  0.64835084292E+03  0.10566000000E+00 0.  1.
         13    1    4    4    0    0 -0.44066890300E+03  0.51489253082E+02 -0.37157222573E+02  0.44522005302E+03  0.10566000000E+00 0. -1.
          4    1    3    3  501    0 -0.24339651503E+03 -0.33374305698E+03  0.83226485219E+01  0.41315318961E+03  0.00000000000E+00 0.  1.
         -4    1    4    4    0  502  0.53320108009E+03 -0.34414428568E+03  0.61688755950E+02  0.63760817418E+03  0.00000000000E+00 0. -1.
</event>
<event>
 8    1  0.7008488E-006  0.1187189E+04  0.7818608E-02  0.8617466E-01
         21   -1    0    0  503  502  0.00000000000E+00  0.00000000000E+00  0.98141386204E+03  0.98141386204E+03  0.00000000000E+00 0.  1.
         21   -1    0    0  501  503 -0.00000000000E+00 -0.00000000000E+00 -0.14657716860E+04  0.14657716860E+04  0.00000000000E+00 0.  1.
    9000010    2    1    2  501    0 -0.40149642449E+02 -0.65778160766E+03 -0.43649736203E+03  0.12590326369E+04  0.97997173254E+03 0.  0.
   -9000010    2    1    2    0  502  0.40149642449E+02  0.65778160766E+03 -0.47860461968E+02  0.11881529112E+04  0.98748573627E+03 0.  0.
        -13    1    3    3    0    0  0.22376110600E+03 -0.65979703453E+03 -0.62399470019E+03  0.93529169587E+03  0.10566000000E+00 0.  1.
         13    1    4    4    0    0 -0.53767018866E+02 -0.18424758030E+03  0.22715582816E+03  0.29738501071E+03  0.10566000000E+00 0. -1.
          4    1    3    3  501    0 -0.26391074845E+03  0.20154268642E+01  0.18749733816E+03  0.32374094104E+03  0.00000000000E+00 0.  1.
         -4    1    4    4    0  502  0.93916661315E+02  0.84202918797E+03 -0.27501629012E+03  0.89076790046E+03  0.00000000000E+00 0. -1.
</event>
<event>
 8    1  0.7008488E-006  0.1077585E+04  0.7818608E-02  0.8712002E-01
         21   -1    0    0  503  502  0.00000000000E+00  0.00000000000E+00  0.73829985202E+03  0.73829985202E+03  0.00000000000E+00 0.  1.
         21   -1    0    0  501  503 -0.00000000000E+00 -0.00000000000E+00 -0.15257845488E+04  0.15257845488E+04  0.00000000000E+00 0.  1.
    9000010    2    1    2  501    0  0.28037481789E+03 -0.23234709238E+03 -0.38906961967E+03  0.11152050480E+04  0.97964887597E+03 0.  0.
   -9000010    2    1    2    0  502 -0.28037481789E+03  0.23234709238E+03 -0.39841507708E+03  0.11488793528E+04  0.10141962255E+04 0.  0.
        -13    1    3    3    0    0  0.99274089637E+02  0.16996201904E+03  0.26263403048E+03  0.32820584687E+03  0.10566000000E+00 0.  1.
         13    1    4    4    0    0 -0.97879046947E+02  0.89255758926E+02 -0.73128861653E+03  0.74318904066E+03  0.10566000000E+00 0. -1.
          4    1    3    3  501    0  0.18110072825E+03 -0.40230911142E+03 -0.65170365015E+03  0.78699920109E+03  0.00000000000E+00 0.  1.
         -4    1    4    4    0  502 -0.18249577094E+03  0.14309133346E+03  0.33287353945E+03  0.40569031217E+03  0.00000000000E+00 0. -1.
</event>
<event>
 8    1  0.7008488E-006  0.1089449E+04  0.7818608E-02  0.8698072E-01
         21   -1    0    0  501  502  0.00000000000E+00  0.00000000000E+00  0.10748052673E+04  0.10748052673E+04  0.00000000000E+00 0.  1.
         21   -1    0    0  502  503 -0.00000000000E+00 -0.00000000000E+00 -0.11155296770E+04  0.11155296770E+04  0.00000000000E+00 0.  1.
   -9000010    2    1    2    0  503 -0.36157108163E+03  0.24128550785E+03 -0.18987484727E+03  0.11058711617E+04  0.99897258485E+03 0.  0.
    9000010    2    1    2  501    0  0.36157108163E+03 -0.24128550785E+03  0.14915043757E+03  0.10844637826E+04  0.98227465575E+03 0.  0.
        -13    1    4    4    0    0  0.52069217510E+03 -0.33113901194E+03  0.42807165245E+03  0.75101180899E+03  0.10566000000E+00 0.  1.
         13    1    3    3    0    0 -0.43623987530E+03 -0.29483473075E+03  0.15935153549E+02  0.52677005186E+03  0.10566000000E+00 0. -1.
          4    1    4    4  501    0 -0.15912109347E+03  0.89853504090E+02 -0.27892121488E+03  0.33345197360E+03  0.00000000000E+00 0.  1.
         -4    1    3    3    0  503  0.74668793672E+02  0.53612023860E+03 -0.20581000082E+03  0.57910110984E+03  0.00000000000E+00 0. -1.
</event>
<event>
 8    1  0.7008488E-006  0.1046734E+04  0.7818608E-02  0.8733388E-01
         21   -1    0    0  503  502  0.00000000000E+00  0.00000000000E+00  0.15944025325E+04  0.15944025325E+04  0.00000000000E+00 0. -1.
         21   -1    0    0  501  503 -0.00000000000E+00 -0.00000000000E+00 -0.72145549302E+03  0.72145549302E+03  0.00000000000E+00 0. -1.
    9000010    2    1    2  501    0 -0.29566207190E+03 -0.50560573367E+02  0.16960939628E+03  0.10603865828E+04  0.10028359414E+04 0.  0.
   -9000010    2    1    2    0  502  0.29566207190E+03  0.50560573367E+02  0.70333764321E+03  0.12554714427E+04  0.99576717700E+03 0.  0.
        -13    1    3    3    0    0 -0.45718437653E+03  0.29249783049E+03 -0.15151438395E+03  0.56349725349E+03  0.10566000000E+00 0.  1.
         13    1    4    4    0    0  0.33540411714E+03  0.83975497788E+02 -0.16672875040E+03  0.38385712628E+03  0.10566000000E+00 0. -1.
          4    1    3    3  501    0  0.16152230463E+03 -0.34305840386E+03  0.32112378023E+03  0.49688932931E+03  0.00000000000E+00 0.  1.
         -4    1    4    4    0  502 -0.39742045240E+02 -0.33414924421E+02  0.87006639361E+03  0.87161431644E+03  0.00000000000E+00 0. -1.
</event>
<event>
 8    1  0.7008488E-006  0.1033436E+04  0.7818608E-02  0.8745747E-01
         21   -1    0    0  503  502  0.00000000000E+00  0.00000000000E+00  0.19945276538E+04  0.19945276538E+04  0.00000000000E+00 0.  1.
         21   -1    0    0  501  503 -0.00000000000E+00 -0.00000000000E+00 -0.53548654912E+03  0.53548654912E+03  0.00000000000E+00 0.  1.
    9000010    2    1    2  501    0 -0.14301632219E+03  0.16064751266E+03  0.61081389643E+03  0.11930479886E+04  0.10020022931E+04 0.  0.
   -9000010    2    1    2    0  502  0.14301632219E+03 -0.16064751266E+03  0.84822720822E+03  0.13369662143E+04  0.10108056043E+04 0.  0.
        -13    1    3    3    0    0  0.36206913036E+02  0.41176322580E+03  0.74862045448E+03  0.85515641300E+03  0.10566000000E+00 0.  1.
         13    1    4    4    0    0 -0.12442638674E+03  0.38823710647E+03  0.45398502595E+03  0.61017406657E+03  0.10566000000E+00 0. -1.
          4    1    3    3  501    0 -0.17922323523E+03 -0.25111571314E+03 -0.13780655806E+03  0.33789157562E+03  0.00000000000E+00 0.  1.
         -4    1    4    4    0  502  0.26744270894E+03 -0.54888461913E+03  0.39424218226E+03  0.72679214770E+03  0.00000000000E+00 0. -1.
</event>
<event>
 8    1  0.7008488E-006  0.1082316E+04  0.7818608E-02  0.8705902E-01
         21   -1    0    0  503  502  0.00000000000E+00  0.00000000000E+00  0.88414679500E+03  0.88414679500E+03  0.00000000000E+00 0. -1.
         21   -1    0    0  501  503 -0.00000000000E+00 -0.00000000000E+00 -0.13198326683E+04  0.13198326683E+04  0.00000000000E+00 0. -1.
    9000010    2    1    2  501    0  0.27964723574E+03  0.26047452677E+03 -0.69164805581E+02  0.10612867604E+04  0.98767214296E+03 0.  0.
   -9000010    2    1    2    0  502 -0.27964723574E+03 -0.26047452677E+03 -0.36652106774E+03  0.11426927029E+04  0.10126002985E+04 0.  0.
        -13    1    3    3    0    0  0.38255366327E+02 -0.33541401208E+03  0.16664678478E+03  0.37648000557E+03  0.10566000000E+00 0.  1.
         13    1    4    4    0    0  0.21846573300E+03  0.24062849874E+03  0.40124354873E+02  0.32747416069E+03  0.10566000000E+00 0. -1.
          4    1    3    3  501    0  0.24139186941E+03  0.59588853885E+03 -0.23581159036E+03  0.68480675486E+03  0.00000000000E+00 0.  1.
         -4    1    4    4    0  502 -0.49811296874E+03 -0.50110302551E+03 -0.40664542261E+03  0.81521854219E+03  0.00000000000E+00 0. -1.
</event>
<event>
 8    1  0.7008488E-006  0.1757614E+04  0.7818608E-02  0.8275292E-01
         21   -1    0    0  503  502  0.00000000000E+00  0.00000000000E+00  0.17335439969E+04  0.17335439969E+04  0.00000000000E+00 0. -1.
         21   -1    0    0  501  503 -0.00000000000E+00 -0.00000000000E+00 -0.19453868960E+04  0.19453868960E+04  0.00000000000E+00 0.  1.
    9000010    2    1    2  501    0  0.49211875531E+02  0.14361916047E+04 -0.64392650596E+03  0.18689855984E+04  0.10066765557E+04 0.  0.
   -9000010    2    1    2    0  502 -0.49211875531E+02 -0.14361916047E+04  0.43208360691E+03  0.18099452945E+04  0.10119968338E+04 0.  0.
        -13    1    3    3    0    0  0.34923311031E+03  0.13118645054E+04 -0.71821817737E+03  0.15358351498E+04  0.10566000000E+00 0.  1.
         13    1    4    4    0    0  0.36757464185E+03 -0.51121889775E+03 -0.14028873165E+03  0.64508667490E+03  0.10566000000E+00 0. -1.
          4    1    3    3  501    0 -0.30002123478E+03  0.12432709928E+03  0.74291671411E+02  0.33315044856E+03  0.00000000000E+00 0.  1.
         -4    1    4    4    0  502 -0.41678651738E+03 -0.92497270695E+03  0.57237233856E+03  0.11648586196E+04  0.00000000000E+00 0. -1.
</event>
<event>
 8    1  0.7008488E-006  0.1173240E+04  0.7818608E-02  0.8628247E-01
         21   -1    0    0  503  502  0.00000000000E+00  0.00000000000E+00  0.14927964517E+04  0.14927964517E+04  0.00000000000E+00 0. -1.
         21   -1    0    0  501  503 -0.00000000000E+00 -0.00000000000E+00 -0.92227906150E+03  0.92227906150E+03  0.00000000000E+00 0. -1.
    9000010    2    1    2  501    0 -0.38187341704E+03  0.48338975855E+03  0.19316979999E+03  0.11826459582E+04  0.99088037898E+03 0.  0.
   -9000010    2    1    2    0  502  0.38187341704E+03 -0.48338975855E+03  0.37734759017E+03  0.12324295550E+04  0.99849809157E+03 0.  0.
        -13    1    3    3    0    0 -0.33249824523E+03  0.18679100924E+03 -0.37812768903E+03  0.53705355840E+03  0.10566000000E+00 0.  1.
         13    1    4    4    0    0  0.12662402472E+03 -0.74941000279E+02 -0.33880640924E+03  0.36937730204E+03  0.10566000000E+00 0. -1.
          4    1    3    3  501    0 -0.49375171810E+02  0.29659874931E+03  0.57129748903E+03  0.64559239978E+03  0.00000000000E+00 0.  1.
         -4    1    4    4    0  502  0.25524939233E+03 -0.40844875827E+03  0.71615399941E+03  0.86305225294E+03  0.00000000000E+00 0. -1.
</event>
<event>
 8    1  0.7008488E-006  0.1074619E+04  0.7818608E-02  0.8717498E-01
         21   -1    0    0  503  502  0.00000000000E+00  0.00000000000E+00  0.20063339148E+04  0.20063339148E+04  0.00000000000E+00 0. -1.
         21   -1    0    0  501  503 -0.00000000000E+00 -0.00000000000E+00 -0.55156439386E+03  0.55156439386E+03  0.00000000000E+00 0. -1.
    9000010    2    1    2  501    0  0.13281092159E+03 -0.24849816303E+03  0.72880831014E+03  0.12610461258E+04  0.98979073573E+03 0.  0.
   -9000010    2    1    2    0  502 -0.13281092159E+03  0.24849816303E+03  0.72596121081E+03  0.12968521829E+04  0.10370225777E+04 0.  0.
        -13    1    3    3    0    0  0.50530826945E+03 -0.35624973659E+03  0.57360719988E+03  0.84337153907E+03  0.10566000000E+00 0.  1.
         13    1    4    4    0    0 -0.38033671549E+03  0.25540844039E+03  0.88918780625E+03  0.10002721902E+04  0.10566000000E+00 0. -1.
          4    1    3    3  501    0 -0.37249734786E+03  0.10775157357E+03  0.15520111025E+03  0.41767458672E+03  0.00000000000E+00 0.  1.
         -4    1    4    4    0  502  0.24752579390E+03 -0.69102773639E+01 -0.16322659544E+03  0.29657999265E+03  0.00000000000E+00 0. -1.
</event>
<event>
 8    1  0.7008488E-006  0.1190773E+04  0.7818608E-02  0.8616193E-01
         21   -1    0    0  503  502  0.00000000000E+00  0.00000000000E+00  0.18033799630E+04  0.18033799630E+04  0.00000000000E+00 0. -1.
         21   -1    0    0  501  503 -0.00000000000E+00 -0.00000000000E+00 -0.78653364756E+03  0.78653364756E+03  0.00000000000E+00 0. -1.
    9000010    2    1    2  501    0 -0.53583884003E+02  0.59880913074E+03  0.36988026101E+03  0.12468963954E+04  0.10278597208E+04 0.  0.
   -9000010    2    1    2    0  502  0.53583884003E+02 -0.59880913074E+03  0.64696605438E+03  0.13430172152E+04  0.10117739654E+04 0.  0.
        -13    1    3    3    0    0 -0.46551925243E+03  0.22403312764E+02  0.47334726165E+02  0.46845562252E+03  0.10566000000E+00 0.  1.
         13    1    4    4    0    0  0.18735645796E+03 -0.97223372258E+02  0.77923147304E+03  0.80731439117E+03  0.10566000000E+00 0. -1.
          4    1    3    3  501    0  0.41193536843E+03  0.57640581798E+03  0.32254553484E+03  0.77844077283E+03  0.00000000000E+00 0.  1.
         -4    1    4    4    0  502 -0.13377257396E+03 -0.50158575848E+03 -0.13226541866E+03  0.53570282399E+03  0.00000000000E+00 0. -1.
</event>
<event>
 8    1  0.7008488E-006  0.1208925E+04  0.7818608E-02  0.8605711E-01
         21   -1    0    0  501  502  0.00000000000E+00  0.00000000000E+00  0.12039445477E+04  0.12039445477E+04  0.00000000000E+00 0.  1.
         21   -1    0    0  502  503 -0.00000000000E+00 -0.00000000000E+00 -0.12742321832E+04  0.12742321832E+04  0.00000000000E+00 0.  1.
   -9000010    2    1    2    0  503  0.46194358646E+03 -0.43617742813E+03 -0.36602873734E+03  0.12336039220E+04  0.99204786875E+03 0.  0.
    9000010    2    1    2  501    0 -0.46194358646E+03  0.43617742813E+03  0.29574110189E+03  0.12445728090E+04  0.10285212937E+04 0.  0.
        -13    1    4    4    0    0  0.71365455800E+02  0.53029702092E+03  0.43020988457E+03  0.68657739158E+03  0.10566000000E+00 0.  1.
         13    1    3    3    0    0 -0.18920767485E+03 -0.48941587391E+03 -0.16059452513E+03  0.54874224780E+03  0.10566000000E+00 0. -1.
          4    1    4    4  501    0 -0.53330904226E+03 -0.94119592789E+02 -0.13446878269E+03  0.55799541738E+03  0.00000000000E+00 0.  1.
         -4    1    3    3    0  503  0.65115126131E+03  0.53238445786E+02 -0.20543421221E+03  0.68486167418E+03  0.00000000000E+00 0. -1.
</event>
<event>
 8    1  0.7008488E-006  0.1284112E+04  0.7818608E-02  0.8550894E-01
         21   -1    0    0  503  502  0.00000000000E+00  0.00000000000E+00  0.14679649394E+04  0.14679649394E+04  0.00000000000E+00 0.  1.
         21   -1    0    0  501  503 -0.00000000000E+00 -0.00000000000E+00 -0.12045161004E+04  0.12045161004E+04  0.00000000000E+00 0. -1.
    9000010    2    1    2  501    0 -0.69587187864E+03  0.17921376167E+03 -0.26433888136E+03  0.13110371354E+04  0.10642312166E+04 0.  0.
   -9000010    2    1    2    0  502  0.69587187864E+03 -0.17921376167E+03  0.52778772034E+03  0.13614439044E+04  0.10288898790E+04 0.  0.
        -13    1    3    3    0    0 -0.88158553653E+02  0.26992130395E+03 -0.56096611902E+03  0.62873876830E+03  0.10566000000E+00 0.  1.
         13    1    4    4    0    0  0.17661414982E+03 -0.42115409901E+03  0.63144472178E+03  0.77928542964E+03  0.10566000000E+00 0. -1.
          4    1    3    3  501    0 -0.60771332498E+03 -0.90707542282E+02  0.29662723766E+03  0.68229836707E+03  0.00000000000E+00 0.  1.
         -4    1    4    4    0  502  0.51925772881E+03  0.24194033734E+03 -0.10365700144E+03  0.58215847474E+03  0.00000000000E+00 0. -1.
</event>
<event>
 8    1  0.7008488E-006  0.1338020E+04  0.7818608E-02  0.8516159E-01
         21   -1    0    0  501  502  0.00000000000E+00  0.00000000000E+00  0.85757675695E+03  0.85757675695E+03  0.00000000000E+00 0.  1.
         21   -1    0    0  502  503 -0.00000000000E+00 -0.00000000000E+00 -0.20243744912E+04  0.20243744912E+04  0.00000000000E+00 0.  1.
   -9000010    2    1    2    0  503  0.25734110861E+03  0.84297122381E+03 -0.58246686403E+03  0.14219035928E+04  0.95169178266E+03 0.  0.
    9000010    2    1    2  501    0 -0.25734110861E+03 -0.84297122381E+03 -0.58433087019E+03  0.14600476553E+04  0.10067132956E+04 0.  0.
        -13    1    4    4    0    0  0.35200185040E+03 -0.12766312845E+03 -0.29550994807E+03  0.47700033293E+03  0.10566000000E+00 0.  1.
         13    1    3    3    0    0 -0.21668892828E+03  0.16015014080E+03  0.15485888562E+03  0.31077877157E+03  0.10566000000E+00 0. -1.
          4    1    4    4  501    0 -0.60934295901E+03 -0.71530809536E+03 -0.28882092213E+03  0.98304732238E+03  0.00000000000E+00 0.  1.
         -4    1    3    3    0  503  0.47403003689E+03  0.68282108301E+03 -0.73732574965E+03  0.11111248212E+04  0.00000000000E+00 0. -1.
</event>
<event>
 8    1  0.7008488E-006  0.1104337E+04  0.7818608E-02  0.8683044E-01
         21   -1    0    0  501  502  0.00000000000E+00  0.00000000000E+00  0.23485443380E+04  0.23485443380E+04  0.00000000000E+00 0. -1.
         21   -1    0    0  502  503 -0.00000000000E+00 -0.00000000000E+00 -0.54058555598E+03  0.54058555598E+03  0.00000000000E+00 0. -1.
   -9000010    2    1    2    0  503  0.74617946846E+02 -0.45301986825E+03  0.12031115257E+04  0.16331063930E+04  0.10043725945E+04 0.  0.
    9000010    2    1    2  501    0 -0.74617946846E+02  0.45301986825E+03  0.60484725630E+03  0.12560235009E+04  0.10004798811E+04 0.  0.
        -13    1    4    4    0    0 -0.55218775669E+02  0.75723205036E+03  0.27658336364E+03  0.80805189158E+03  0.10566000000E+00 0.  1.
         13    1    3    3    0    0  0.28870158245E+03 -0.12641982363E+03 -0.51299762123E+02  0.31931528663E+03  0.10566000000E+00 0. -1.
          4    1    4    4  501    0 -0.19399171177E+02 -0.30421218211E+03  0.32826389265E+03  0.44797160937E+03  0.00000000000E+00 0.  1.
         -4    1    3    3    0  503 -0.21408363560E+03 -0.32660004462E+03  0.12544112878E+04  0.13137911064E+04  0.00000000000E+00 0. -1.
</event>
<event>
 8    1  0.7008488E-006  0.1049023E+04  0.7818608E-02  0.8730423E-01
         21   -1    0    0  503  502  0.00000000000E+00  0.00000000000E+00  0.20606902763E+04  0.20606902763E+04  0.00000000000E+00 0. -1.
         21   -1    0    0  501  503 -0.00000000000E+00 -0.00000000000E+00 -0.55420399653E+03  0.55420399653E+03  0.00000000000E+00 0. -1.
    9000010    2    1    2  501    0  0.26588786426E+03  0.16213096273E+03  0.49657015402E+03  0.11606170480E+04  0.10017321043E+04 0.  0.
   -9000010    2    1    2    0  502 -0.26588786426E+03 -0.16213096273E+03  0.10099161258E+04  0.14542772249E+04  0.99900393404E+03 0.  0.
        -13    1    3    3    0    0  0.31885387138E+03 -0.38430881845E+03  0.21595452449E+03  0.54405645575E+03  0.10566000000E+00 0.  1.
         13    1    4    4    0    0  0.31098753438E+03 -0.91599712807E+02  0.75110179872E+03  0.81808170566E+03  0.10566000000E+00 0. -1.
          4    1    3    3  501    0 -0.52966007118E+02  0.54643978118E+03  0.28061562953E+03  0.61656059224E+03  0.00000000000E+00 0.  1.
         -4    1    4    4    0  502 -0.57687539864E+03 -0.70531249924E+02  0.25881432705E+03  0.63619551921E+03  0.00000000000E+00 0. -1.
</event>
<event>
 8    1  0.7008488E-006  0.1316172E+04  0.7818608E-02  0.8524253E-01
         21   -1    0    0  501  502  0.00000000000E+00  0.00000000000E+00  0.10034839286E+04  0.10034839286E+04  0.00000000000E+00 0.  1.
         21   -1    0    0  502  503 -0.00000000000E+00 -0.00000000000E+00 -0.20392070053E+04  0.20392070053E+04  0.00000000000E+00 0.  1.
   -9000010    2    1    2    0  503  0.38398476312E+03 -0.80123617651E+03 -0.11162851537E+04  0.17240554932E+04  0.96791068310E+03 0.  0.
    9000010    2    1    2  501    0 -0.38398476312E+03  0.80123617651E+03  0.80562076917E+02  0.13186354408E+04  0.97102289805E+03 0.  0.
        -13    1    4    4    0    0 -0.54537961746E+03  0.34415621386E+03 -0.29136228147E+03  0.70765416476E+03  0.10566000000E+00 0.  1.
         13    1    3    3    0    0  0.59603017594E+03 -0.62922997802E+03 -0.11594925446E+04  0.14476205677E+04  0.10566000000E+00 0. -1.
          4    1    4    4  501    0  0.16139485434E+03  0.45707996264E+03  0.37192435838E+03  0.61098127600E+03  0.00000000000E+00 0.  1.
         -4    1    3    3    0  503 -0.21204541282E+03 -0.17200619849E+03  0.43207390909E+02  0.27643492551E+03  0.00000000000E+00 0. -1.
</event>
<event>
 8    1  0.7008488E-006  0.1338422E+04  0.7818608E-02  0.8509680E-01
         21   -1    0    0  503  502  0.00000000000E+00  0.00000000000E+00  0.14415774823E+04  0.14415774823E+04  0.00000000000E+00 0. -1.
         21   -1    0    0  501  503 -0.00000000000E+00 -0.00000000000E+00 -0.13969404734E+04  0.13969404734E+04  0.00000000000E+00 0.  1.
    9000010    2    1    2  501    0  0.63324769285E+03 -0.62521917977E+03 -0.45490856115E+03  0.14099109397E+04  0.99448750402E+03 0.  0.
   -9000010    2    1    2    0  502 -0.63324769285E+03  0.62521917977E+03  0.49954557009E+03  0.14286070159E+04  0.99973524802E+03 0.  0.
        -13    1    3    3    0    0  0.79786706024E+03 -0.50169789988E+03 -0.36004635162E+02  0.94318024443E+03  0.10566000000E+00 0.  1.
         13    1    4    4    0    0 -0.40512331472E+03  0.67638311571E+03  0.74846239376E+03  0.10871131429E+04  0.10566000000E+00 0. -1.
          4    1    3    3  501    0 -0.16461936739E+03 -0.12352127989E+03 -0.41890392599E+03  0.46673069528E+03  0.00000000000E+00 0.  1.
         -4    1    4    4    0  502 -0.22812437813E+03 -0.51163935947E+02 -0.24891682367E+03  0.34149387307E+03  0.00000000000E+00 0. -1.
</event>
<event>
 8    1  0.7008488E-006  0.1067867E+04  0.7818608E-02  0.8721194E-01
         21   -1    0    0  503  502  0.00000000000E+00  0.00000000000E+00  0.13462864541E+04  0.13462864541E+04  0.00000000000E+00 0.  1.
         21   -1    0    0  501  503 -0.00000000000E+00 -0.00000000000E+00 -0.82470724881E+03  0.82470724881E+03  0.00000000000E+00 0.  1.
    9000010    2    1    2  501    0  0.16360397605E+02 -0.25816131362E+03  0.16579336073E+03  0.10454162761E+04  0.99924612852E+03 0.  0.
   -9000010    2    1    2    0  502 -0.16360397605E+02  0.25816131362E+03  0.35578584455E+03  0.11255774268E+04  0.10360627636E+04 0.  0.
        -13    1    3    3    0    0 -0.80578921884E+02 -0.17861470874E+03  0.58022986078E+03  0.61242377431E+03  0.10566000000E+00 0.  1.
         13    1    4    4    0    0 -0.36306916774E+03 -0.25494528589E+03  0.95299970024E+02  0.45376030546E+03  0.10566000000E+00 0. -1.
          4    1    3    3  501    0  0.96939319489E+02 -0.79546604876E+02 -0.41443650005E+03  0.43299250177E+03  0.00000000000E+00 0.  1.
         -4    1    4    4    0  502  0.34670877013E+03  0.51310659951E+03  0.26048587453E+03  0.67181712138E+03  0.00000000000E+00 0. -1.
</event>
<event>
 8    1  0.7008488E-006  0.1662484E+04  0.7818608E-02  0.8325198E-01
         21   -1    0    0  503  502  0.00000000000E+00  0.00000000000E+00  0.22157490231E+04  0.22157490231E+04  0.00000000000E+00 0. -1.
         21   -1    0    0  501  503 -0.00000000000E+00 -0.00000000000E+00 -0.23349756686E+04  0.23349756686E+04  0.00000000000E+00 0.  1.
    9000010    2    1    2  501    0  0.23417193419E+03 -0.12848296803E+04 -0.16273617433E+04  0.23264045397E+04  0.10287021127E+04 0.  0.
   -9000010    2    1    2    0  502 -0.23417193419E+03  0.12848296803E+04  0.15081350978E+04  0.22243201519E+04  0.98361825051E+03 0.  0.
        -13    1    3    3    0    0 -0.15157691133E+02 -0.13845715034E+04 -0.14479027517E+04  0.20034196748E+04  0.10566000000E+00 0.  1.
         13    1    4    4    0    0 -0.89721047676E+02  0.12552150022E+04  0.77810694354E+03  0.14795489160E+04  0.10566000000E+00 0. -1.
          4    1    3    3  501    0  0.24932962533E+03  0.99741823065E+02 -0.17945899157E+03  0.32298486495E+03  0.00000000000E+00 0.  1.
         -4    1    4    4    0  502 -0.14445088652E+03  0.29614678123E+02  0.73002815429E+03  0.74477123590E+03  0.00000000000E+00 0. -1.
</event>
<event>
 8    1  0.7008488E-006  0.1288807E+04  0.7818608E-02  0.8563277E-01
         21   -1    0    0  501  502  0.00000000000E+00  0.00000000000E+00  0.20217070730E+04  0.20217070730E+04  0.00000000000E+00 0.  1.
         21   -1    0    0  502  503 -0.00000000000E+00 -0.00000000000E+00 -0.75047993217E+03  0.75047993217E+03  0.00000000000E+00 0.  1.
   -9000010    2    1    2    0  503  0.62491469837E+03 -0.60150557988E+02  0.58201201897E+03  0.13106668515E+04  0.99245812787E+03 0.  0.
    9000010    2    1    2  501    0 -0.62491469837E+03  0.60150557988E+02  0.68921512189E+03  0.14615201537E+04  0.11255608404E+04 0.  0.
        -13    1    4    4    0    0 -0.20659835442E+03 -0.46866754364E+03  0.21577381354E+02  0.51263802147E+03  0.10566000000E+00 0.  1.
         13    1    3    3    0    0  0.54594610687E+03 -0.21370259891E+03 -0.11080223120E+03  0.59665995173E+03  0.10566000000E+00 0. -1.
          4    1    4    4  501    0 -0.41831634396E+03  0.52881810163E+03  0.66763774054E+03  0.94888213221E+03  0.00000000000E+00 0.  1.
         -4    1    3    3    0  503  0.78968591499E+02  0.15355204092E+03  0.69281425017E+03  0.71400689979E+03  0.00000000000E+00 0. -1.
</event>
<event>
 8    1  0.7008488E-006  0.1482730E+04  0.7818608E-02  0.8421120E-01
         21   -1    0    0  503  502  0.00000000000E+00  0.00000000000E+00  0.21024261591E+04  0.21024261591E+04  0.00000000000E+00 0. -1.
         21   -1    0    0  501  503 -0.00000000000E+00 -0.00000000000E+00 -0.13957751500E+04  0.13957751500E+04  0.00000000000E+00 0. -1.
    9000010    2    1    2  501    0 -0.10055567621E+04 -0.43705249918E+03 -0.53326373503E+03  0.15653593907E+04  0.98174361323E+03 0.  0.
   -9000010    2    1    2    0  502  0.10055567621E+04  0.43705249918E+03  0.12399147441E+04  0.19328419185E+04  0.99816332343E+03 0.  0.
        -13    1    3    3    0    0 -0.11581035496E+04 -0.26576812723E+03 -0.59354156452E+03  0.13282048521E+04  0.10566000000E+00 0.  1.
         13    1    4    4    0    0  0.75344859682E+03  0.47835316166E+03  0.13785154101E+04  0.16421970900E+04  0.10566000000E+00 0. -1.
          4    1    3    3  501    0  0.15254678753E+03 -0.17128437195E+03  0.60277829489E+02  0.23715453862E+03  0.00000000000E+00 0.  1.
         -4    1    4    4    0  502  0.25210816528E+03 -0.41300662481E+02 -0.13860066597E+03  0.29064482849E+03  0.00000000000E+00 0. -1.
</event>
<event>
 8    1  0.7008488E-006  0.1061434E+04  0.7818608E-02  0.8721147E-01
         21   -1    0    0  501  502  0.00000000000E+00  0.00000000000E+00  0.11050035869E+04  0.11050035869E+04  0.00000000000E+00 0. -1.
         21   -1    0    0  502  503 -0.00000000000E+00 -0.00000000000E+00 -0.11516281589E+04  0.11516281589E+04  0.00000000000E+00 0.  1.
   -9000010    2    1    2    0  503  0.75479173770E+02 -0.33200586498E+03 -0.41910358040E+03  0.11317393415E+04  0.99461606957E+03 0.  0.
    9000010    2    1    2  501    0 -0.75479173770E+02  0.33200586498E+03  0.37247900840E+03  0.11248924044E+04  0.10053443737E+04 0.  0.
        -13    1    4    4    0    0 -0.27157757731E+03 -0.35022379995E+02  0.59356173404E+03  0.65367919569E+03  0.10566000000E+00 0.  1.
         13    1    3    3    0    0 -0.15259372647E+03  0.31894526490E+03 -0.20890096616E+03  0.41067085626E+03  0.10566000000E+00 0. -1.
          4    1    4    4  501    0  0.19609840354E+03  0.36702824498E+03 -0.22108272564E+03  0.47121320871E+03  0.00000000000E+00 0.  1.
         -4    1    3    3    0  503  0.22807290024E+03 -0.65095112988E+03 -0.21020261424E+03  0.72106848520E+03  0.00000000000E+00 0. -1.
</event>
<event>
 8    1  0.7008488E-006  0.1279647E+04  0.7818608E-02  0.8567349E-01
         21   -1    0    0  501  502  0.00000000000E+00  0.00000000000E+00  0.75211874304E+03  0.75211874304E+03  0.00000000000E+00 0.  1.
         21   -1    0    0  502  503 -0.00000000000E+00 -0.00000000000E+00 -0.20595699350E+04  0.20595699350E+04  0.00000000000E+00 0.  1.
   -9000010    2    1    2    0  503  0.59927759025E+03 -0.12581057746E+03 -0.84997802650E+03  0.14527262401E+04  0.10064735225E+04 0.  0.
    9000010    2    1    2  501    0 -0.59927759025E+03  0.12581057746E+03 -0.45747316542E+03  0.13589624379E+04  0.11236259516E+04 0.  0.
        -13    1    4    4    0    0 -0.84730662544E+03  0.35230082247E+03 -0.45229296925E+03  0.10230412153E+04  0.10566000000E+00 0.  1.
         13    1    3    3    0    0 -0.21438255649E+02  0.24186332328E+03  0.97666006679E+02  0.26171764552E+03  0.10566000000E+00 0. -1.
          4    1    4    4  501    0  0.24802903519E+03 -0.22649024501E+03 -0.51801961707E+01  0.33592122263E+03  0.00000000000E+00 0.  1.
         -4    1    3    3    0  503  0.62071584590E+03 -0.36767390074E+03 -0.94764403318E+03  0.11910085945E+04  0.00000000000E+00 0. -1.
</event>
<event>
 8    1  0.7008488E-006  0.1158548E+04  0.7818608E-02  0.8639738E-01
         21   -1    0    0  501  502  0.00000000000E+00  0.00000000000E+00  0.25310376676E+04  0.25310376676E+04  0.00000000000E+00 0.  1.
         21   -1    0    0  502  503 -0.00000000000E+00 -0.00000000000E+00 -0.55548333885E+03  0.55548333885E+03  0.00000000000E+00 0.  1.
   -9000010    2    1    2    0  503 -0.12614273946E+03 -0.56108556927E+03  0.64292314891E+03  0.13249846618E+04  0.10057361344E+04 0.  0.
    9000010    2    1    2  501    0  0.12614273946E+03  0.56108556927E+03  0.13326311798E+04  0.17615363446E+04  0.99818606738E+03 0.  0.
        -13    1    4    4    0    0 -0.40036183950E+02 -0.25488812598E+03  0.59719529392E+03  0.65054829416E+03  0.10566000000E+00 0.  1.
         13    1    3    3    0    0 -0.37229788742E+03 -0.73584696433E+03  0.60049743758E+03  0.10201341361E+04  0.10566000000E+00 0. -1.
          4    1    4    4  501    0  0.16617892341E+03  0.81597369524E+03  0.73543588588E+03  0.11109880504E+04  0.00000000000E+00 0.  1.
         -4    1    3    3    0  503  0.24615514796E+03  0.17476139507E+03  0.42425711326E+02  0.30485052576E+03  0.00000000000E+00 0. -1.
</event>
<event>
 8    1  0.7008488E-006  0.1335789E+04  0.7818608E-02  0.8512433E-01
         21   -1    0    0  501  502  0.00000000000E+00  0.00000000000E+00  0.15351180203E+04  0.15351180203E+04  0.00000000000E+00 0.  1.
         21   -1    0    0  502  503 -0.00000000000E+00 -0.00000000000E+00 -0.12417940606E+04  0.12417940606E+04  0.00000000000E+00 0.  1.
   -9000010    2    1    2    0  503  0.75763196692E+03  0.46034226573E+03 -0.22272399527E+03  0.13542301935E+04  0.99920580468E+03 0.  0.
    9000010    2    1    2  501    0 -0.75763196692E+03 -0.46034226573E+03  0.51604795497E+03  0.14226818875E+04  0.98579767812E+03 0.  0.
        -13    1    4    4    0    0 -0.21659440902E+03  0.16746562442E+03  0.52695806925E+03  0.59383725994E+03  0.10566000000E+00 0.  1.
         13    1    3    3    0    0  0.59690689332E+03 -0.21287872065E+03 -0.24250738589E+02  0.63419500037E+03  0.10566000000E+00 0. -1.
          4    1    4    4  501    0 -0.54103755790E+03 -0.62780789014E+03 -0.10910114284E+02  0.82884462753E+03  0.00000000000E+00 0.  1.
         -4    1    3    3    0  503  0.16072507359E+03  0.67322098638E+03 -0.19847325668E+03  0.72003519317E+03  0.00000000000E+00 0. -1.
</event>
<event>
 8    1  0.7008488E-006  0.1288921E+04  0.7818608E-02  0.8548779E-01
         21   -1    0    0  501  502  0.00000000000E+00  0.00000000000E+00  0.65959216967E+03  0.65959216967E+03  0.00000000000E+00 0.  1.
         21   -1    0    0  502  503 -0.00000000000E+00 -0.00000000000E+00 -0.31069914660E+04  0.31069914660E+04  0.00000000000E+00 0. -1.
   -9000010    2    1    2    0  503  0.76907993917E+03  0.29033008234E+02 -0.21042417082E+04  0.24676202777E+04  0.10339196293E+04 0.  0.
    9000010    2    1    2  501    0 -0.76907993917E+03 -0.29033008234E+02 -0.34315758815E+03  0.12989633580E+04  0.98854529829E+03 0.  0.
        -13    1    4    4    0    0 -0.99077055271E+02 -0.33512072036E+03  0.18229212882E+03  0.39414793098E+03  0.10566000000E+00 0.  1.
         13    1    3    3    0    0  0.80143650539E+03  0.41020113566E+03 -0.15822857280E+04  0.18204926751E+04  0.10566000000E+00 0. -1.
          4    1    4    4  501    0 -0.67000288390E+03  0.30608771213E+03 -0.52544971697E+03  0.90481542705E+03  0.00000000000E+00 0.  1.
         -4    1    3    3    0  503 -0.32356566217E+02 -0.38116812743E+03 -0.52195598021E+03  0.64712760258E+03  0.00000000000E+00 0. -1.
</event>
<event>
 8    1  0.7008488E-006  0.1080478E+04  0.7818608E-02  0.8722513E-01
         21   -1    0    0  503  502  0.00000000000E+00  0.00000000000E+00  0.63401455863E+03  0.63401455863E+03  0.00000000000E+00 0. -1.
         21   -1    0    0  501  503 -0.00000000000E+00 -0.00000000000E+00 -0.16924094686E+04  0.16924094686E+04  0.00000000000E+00 0. -1.
    9000010    2    1    2  501    0  0.23282028971E+03 -0.20691068713E+03 -0.52990916763E+03  0.11236232875E+04  0.94058930805E+03 0.  0.
   -9000010    2    1    2    0  502 -0.23282028971E+03  0.20691068713E+03 -0.52848574229E+03  0.12028007397E+04  0.10346086796E+04 0.  0.
        -13    1    3    3    0    0 -0.75883193366E+02  0.29763152611E+03  0.30687615672E+02  0.30868191604E+03  0.10566000000E+00 0.  1.
         13    1    4    4    0    0 -0.45808187996E+03 -0.80214793637E+02 -0.66643439501E+03  0.81265505344E+03  0.10566000000E+00 0. -1.
          4    1    3    3  501    0  0.30870348307E+03 -0.50454221323E+03 -0.56059678330E+03  0.81494137141E+03  0.00000000000E+00 0.  1.
         -4    1    4    4    0  502  0.22526159025E+03  0.28712548076E+03  0.13794865272E+03  0.39014568629E+03  0.00000000000E+00 0. -1.
</event>
<event>
 8    1  0.7008488E-006  0.1087708E+04  0.7818608E-02  0.8700901E-01
         21   -1    0    0  501  502  0.00000000000E+00  0.00000000000E+00  0.91720310800E+03  0.91720310800E+03  0.00000000000E+00 0.  1.
         21   -1    0    0  502  503 -0.00000000000E+00 -0.00000000000E+00 -0.30420373418E+04  0.30420373418E+04  0.00000000000E+00 0.  1.
   -9000010    2    1    2    0  503 -0.42391415073E+03  0.31701944540E+02 -0.25712123137E+04  0.27835015167E+04  0.97777283187E+03 0.  0.
    9000010    2    1    2  501    0  0.42391415073E+03 -0.31701944540E+02  0.44637807994E+03  0.11757389331E+04  0.10011994946E+04 0.  0.
        -13    1    4    4    0    0 -0.13525204744E+03 -0.35102604732E+03 -0.26077956799E+02  0.37708417260E+03  0.10566000000E+00 0.  1.
         13    1    3    3    0    0 -0.60483253889E+03  0.13241761434E+03 -0.24819577726E+04  0.25580209578E+04  0.10566000000E+00 0. -1.
          4    1    4    4  501    0  0.55916619818E+03  0.31932410277E+03  0.47245603674E+03  0.79865476049E+03  0.00000000000E+00 0.  1.
         -4    1    3    3    0  503  0.18091838815E+03 -0.10071566980E+03 -0.89254541154E+02  0.22548055888E+03  0.00000000000E+00 0. -1.
</event>
<event>
 8    1  0.7008488E-006  0.1289707E+04  0.7818608E-02  0.8543004E-01
         21   -1    0    0  501  502  0.00000000000E+00  0.00000000000E+00  0.16101609517E+04  0.16101609517E+04  0.00000000000E+00 0.  1.
         21   -1    0    0  502  503 -0.00000000000E+00 -0.00000000000E+00 -0.10432041046E+04  0.10432041046E+04  0.00000000000E+00 0.  1.
   -9000010    2    1    2    0  503  0.70647614339E+03  0.38516923583E+03  0.12381056625E+03  0.12956359080E+04  0.10079084623E+04 0.  0.
    9000010    2    1    2  501    0 -0.70647614339E+03 -0.38516923583E+03  0.44314628090E+03  0.13577291484E+04  0.99979294487E+03 0.  0.
        -13    1    4    4    0    0 -0.20746542534E+03 -0.50574981747E+02 -0.32108517527E+03  0.38561046722E+03  0.10566000000E+00 0.  1.
         13    1    3    3    0    0  0.44194328893E+03  0.71418459461E+03  0.20780108985E+03  0.86519062057E+03  0.10566000000E+00 0. -1.
          4    1    4    4  501    0 -0.49901071805E+03 -0.33459425408E+03  0.76423145617E+03  0.97211868113E+03  0.00000000000E+00 0.  1.
         -4    1    3    3    0  503  0.26453285446E+03 -0.32901535878E+03 -0.83990523605E+02  0.43044528742E+03  0.00000000000E+00 0. -1.
</event>
<event>
 8    1  0.7008488E-006  0.1209720E+04  0.7818608E-02  0.8614042E-01
         21   -1    0    0  503  502  0.00000000000E+00  0.00000000000E+00  0.12706878665E+04  0.12706878665E+04  0.00000000000E+00 0. -1.
         21   -1    0    0  501  503 -0.00000000000E+00 -0.00000000000E+00 -0.10831627052E+04  0.10831627052E+04  0.00000000000E+00 0.  1.
    9000010    2    1    2  501    0 -0.81754888544E+01 -0.68462078066E+03  0.16064746785E+03  0.12203404577E+04  0.99732179956E+03 0.  0.
   -9000010    2    1    2    0  502  0.81754888544E+01  0.68462078066E+03  0.26877693443E+02  0.11335101141E+04  0.90296750569E+03 0.  0.
        -13    1    3    3    0    0  0.36751177520E+03 -0.67169857433E+03  0.29587952529E+03  0.82084626107E+03  0.10566000000E+00 0.  1.
         13    1    4    4    0    0  0.13410551705E+03  0.88570844206E+03  0.14448759070E+02  0.89591992491E+03  0.10566000000E+00 0. -1.
          4    1    3    3  501    0 -0.37568726405E+03 -0.12922206326E+02 -0.13523205744E+03  0.39949419664E+03  0.00000000000E+00 0.  1.
         -4    1    4    4    0  502 -0.12593002820E+03 -0.20108766140E+03  0.12428934373E+02  0.23759018915E+03  0.00000000000E+00 0. -1.
</event>
<event>
 8    1  0.7008488E-006  0.1347080E+04  0.7818608E-02  0.8503400E-01
         21   -1    0    0  503  502  0.00000000000E+00  0.00000000000E+00  0.17190855558E+04  0.17190855558E+04  0.00000000000E+00 0. -1.
         21   -1    0    0  501  503 -0.00000000000E+00 -0.00000000000E+00 -0.10616115708E+04  0.10616115708E+04  0.00000000000E+00 0.  1.
    9000010    2    1    2  501    0  0.19421362616E+03 -0.87869297415E+03  0.22152578761E+03  0.13651729089E+04  0.10023986838E+04 0.  0.
   -9000010    2    1    2    0  502 -0.19421362616E+03  0.87869297415E+03  0.43594819737E+03  0.14155242176E+04  0.10019170148E+04 0.  0.
        -13    1    3    3    0    0 -0.15278136720E+02 -0.54907008556E+03  0.60546685757E+03  0.81749709914E+03  0.10566000000E+00 0.  1.
         13    1    4    4    0    0 -0.49586916878E+02  0.66046957702E+03  0.75399495962E+03  0.10035872333E+04  0.10566000000E+00 0. -1.
          4    1    3    3  501    0  0.20949176288E+03 -0.32962288859E+03 -0.38394106996E+03  0.54767580976E+03  0.00000000000E+00 0.  1.
         -4    1    4    4    0  502 -0.14462670928E+03  0.21822339713E+03 -0.31804676225E+03  0.41193698435E+03  0.00000000000E+00 0. -1.
</event>
<event>
 8    1  0.7008488E-006  0.1422148E+04  0.7818608E-02  0.8456158E-01
         21   -1    0    0  501  502  0.00000000000E+00  0.00000000000E+00  0.15894758159E+04  0.15894758159E+04  0.00000000000E+00 0.  1.
         21   -1    0    0  502  503 -0.00000000000E+00 -0.00000000000E+00 -0.13062675610E+04  0.13062675610E+04  0.00000000000E+00 0.  1.
   -9000010    2    1    2    0  503 -0.99610285559E+03  0.17283790686E+03 -0.99103249551E+02  0.14255964581E+04  0.10002049622E+04 0.  0.
    9000010    2    1    2  501    0  0.99610285559E+03 -0.17283790686E+03  0.38231150441E+03  0.14701469188E+04  0.99653200421E+03 0.  0.
        -13    1    4    4    0    0  0.11670261955E+04  0.11907441727E+02  0.33314419587E+03  0.12137038331E+04  0.10566000000E+00 0.  1.
         13    1    3    3    0    0 -0.30659569504E+03 -0.37080857137E+03 -0.23772994598E+03  0.53667071393E+03  0.10566000000E+00 0. -1.
          4    1    4    4  501    0 -0.17092333990E+03 -0.18474534859E+03  0.49167308539E+02  0.25644308565E+03  0.00000000000E+00 0.  1.
         -4    1    3    3    0  503 -0.68950716055E+03  0.54364647823E+03  0.13862669643E+03  0.88892574420E+03  0.00000000000E+00 0. -1.
</event>
<event>
 8    1  0.7008488E-006  0.1113118E+04  0.7818608E-02  0.8677131E-01
         21   -1    0    0  503  502  0.00000000000E+00  0.00000000000E+00  0.93421705399E+03  0.93421705399E+03  0.00000000000E+00 0.  1.
         21   -1    0    0  501  503 -0.00000000000E+00 -0.00000000000E+00 -0.13423212643E+04  0.13423212643E+04  0.00000000000E+00 0.  1.
    9000010    2    1    2  501    0 -0.38275983525E+03  0.31614941064E+03 -0.40220175447E+02  0.11138440624E+04  0.99628077946E+03 0.  0.
   -9000010    2    1    2    0  502  0.38275983525E+03 -0.31614941064E+03 -0.36788403490E+03  0.11626942559E+04  0.98491813279E+03 0.  0.
        -13    1    3    3    0    0 -0.16568347444E+03  0.29106587291E+03  0.45940164776E+03  0.56852461794E+03  0.10566000000E+00 0.  1.
         13    1    4    4    0    0  0.61471314945E+03 -0.51044976792E+03 -0.29240257693E+03  0.85084105439E+03  0.10566000000E+00 0. -1.
          4    1    3    3  501    0 -0.21707636081E+03  0.25083537734E+02 -0.49962182321E+03  0.54531944447E+03  0.00000000000E+00 0.  1.
         -4    1    4    4    0  502 -0.23195331420E+03  0.19430035728E+03 -0.75481457973E+02  0.31185320153E+03  0.00000000000E+00 0. -1.
</event>
<event>
 8    1  0.7008488E-006  0.1305226E+04  0.7818608E-02  0.8537376E-01
         21   -1    0    0  503  502  0.00000000000E+00  0.00000000000E+00  0.11156903111E+04  0.11156903111E+04  0.00000000000E+00 0. -1.
         21   -1    0    0  501  503 -0.00000000000E+00 -0.00000000000E+00 -0.15866148326E+04  0.15866148326E+04  0.00000000000E+00 0. -1.
    9000010    2    1    2  501    0 -0.46116741455E+03 -0.65571257299E+03 -0.57892009215E+03  0.14278525364E+04  0.10300388488E+04 0.  0.
   -9000010    2    1    2    0  502  0.46116741455E+03  0.65571257299E+03  0.10799557064E+03  0.12744526073E+04  0.98485127929E+03 0.  0.
        -13    1    3    3    0    0 -0.17475996188E+03 -0.88171288097E+03 -0.24111412910E+03  0.93064208112E+03  0.10566000000E+00 0.  1.
         13    1    4    4    0    0  0.38747159792E+03  0.16512214097E+02  0.40939499381E+03  0.56392478623E+03  0.10566000000E+00 0. -1.
          4    1    3    3  501    0 -0.28640745267E+03  0.22600030797E+03 -0.33780596305E+03  0.49721045526E+03  0.00000000000E+00 0.  1.
         -4    1    4    4    0  502  0.73695816635E+02  0.63920035890E+03 -0.30139942317E+03  0.71052782105E+03  0.00000000000E+00 0. -1.
</event>
<event>
 8    1  0.7008488E-006  0.1206410E+04  0.7818608E-02  0.8603123E-01
         21   -1    0    0  501  502  0.00000000000E+00  0.00000000000E+00  0.12415485986E+04  0.12415485986E+04  0.00000000000E+00 0.  1.
         21   -1    0    0  502  503 -0.00000000000E+00 -0.00000000000E+00 -0.12521605278E+04  0.12521605278E+04  0.00000000000E+00 0.  1.
   -9000010    2    1    2    0  503 -0.40589267980E+03 -0.51431627778E+03  0.32334162770E+03  0.12419307525E+04  0.10042768964E+04 0.  0.
    9000010    2    1    2  501    0  0.40589267980E+03  0.51431627778E+03 -0.33395355693E+03  0.12517783739E+04  0.10129926051E+04 0.  0.
        -13    1    4    4    0    0  0.57860294634E+03  0.23833539125E+03 -0.57252473399E+03  0.84815665441E+03  0.10566000000E+00 0.  1.
         13    1    3    3    0    0  0.13612405377E+03  0.21503071722E+03 -0.50293497703E+02  0.25941745207E+03  0.10566000000E+00 0. -1.
          4    1    4    4  501    0 -0.17271026654E+03  0.27598088653E+03  0.23857117706E+03  0.40362171946E+03  0.00000000000E+00 0.  1.
         -4    1    3    3    0  503 -0.54201673356E+03 -0.72934699499E+03  0.37363512540E+03  0.98251330042E+03  0.00000000000E+00 0. -1.
</event>
<event>
 8    1  0.7008488E-006  0.1413271E+04  0.7818608E-02  0.8466435E-01
         21   -1    0    0  501  502  0.00000000000E+00  0.00000000000E+00  0.23064006796E+04  0.23064006796E+04  0.00000000000E+00 0. -1.
         21   -1    0    0  502  503 -0.00000000000E+00 -0.00000000000E+00 -0.84955653715E+03  0.84955653715E+03  0.00000000000E+00 0.  1.
   -9000010    2    1    2    0  503 -0.73748371775E+03 -0.64230493215E+03  0.61391246415E+03  0.15103969862E+04  0.97363888706E+03 0.  0.
    9000010    2    1    2  501    0  0.73748371775E+03  0.64230493215E+03  0.84293167827E+03  0.16455602305E+04  0.10202434995E+04 0.  0.
        -13    1    4    4    0    0 -0.22780139597E+03  0.10605675738E+03 -0.81344222756E+01  0.25141139946E+03  0.10566000000E+00 0.  1.
         13    1    3    3    0    0 -0.60562722958E+03  0.18236158421E+02  0.10381071203E+02  0.60599065709E+03  0.10566000000E+00 0. -1.
          4    1    4    4  501    0  0.96528511372E+03  0.53624817478E+03  0.85106610055E+03  0.13941488311E+04  0.00000000000E+00 0.  1.
         -4    1    3    3    0  503 -0.13185648817E+03 -0.66054109057E+03  0.60353139295E+03  0.90440632908E+03  0.00000000000E+00 0. -1.
</event>
<event>
 8    1  0.7008488E-006  0.1265096E+04  0.7818608E-02  0.8564015E-01
         21   -1    0    0  503  502  0.00000000000E+00  0.00000000000E+00  0.11787188198E+04  0.11787188198E+04  0.00000000000E+00 0. -1.
         21   -1    0    0  501  503 -0.00000000000E+00 -0.00000000000E+00 -0.13480542243E+04  0.13480542243E+04  0.00000000000E+00 0. -1.
    9000010    2    1    2  501    0  0.40498922935E+03 -0.65781896414E+03  0.66998238596E+02  0.12668686567E+04  0.10018609503E+04 0.  0.
   -9000010    2    1    2    0  502 -0.40498922935E+03  0.65781896414E+03 -0.23633364315E+03  0.12599043874E+04  0.96683163426E+03 0.  0.
        -13    1    3    3    0    0  0.35610193785E+03  0.18975604597E+03  0.10531122010E+03  0.41702087642E+03  0.10566000000E+00 0.  1.
         13    1    4    4    0    0 -0.36970968773E+03  0.76466504770E+02  0.28908819591E+03  0.47550433829E+03  0.10566000000E+00 0. -1.
          4    1    3    3  501    0  0.48887291497E+02 -0.84757501011E+03 -0.38312981506E+02  0.84984778024E+03  0.00000000000E+00 0.  1.
         -4    1    4    4    0  502 -0.35279541623E+02  0.58135245937E+03 -0.52542183906E+03  0.78440004910E+03  0.00000000000E+00 0. -1.
</event>
<event>
 8    1  0.7008488E-006  0.1053023E+04  0.7818608E-02  0.8731068E-01
         21   -1    0    0  501  502  0.00000000000E+00  0.00000000000E+00  0.14082433480E+04  0.14082433480E+04  0.00000000000E+00 0.  1.
         21   -1    0    0  502  503 -0.00000000000E+00 -0.00000000000E+00 -0.88131002802E+03  0.88131002802E+03  0.00000000000E+00 0.  1.
   -9000010    2    1    2    0  503 -0.10884123706E+03  0.24516583260E+03 -0.13819409255E+03  0.10620518591E+04  0.10182847558E+04 0.  0.
    9000010    2    1    2  501    0  0.10884123706E+03 -0.24516583260E+03  0.66512741250E+03  0.12275015169E+04  0.99619917627E+03 0.  0.
        -13    1    4    4    0    0  0.28476120755E+03 -0.33657733325E+03 -0.87262297942E+02  0.44943071367E+03  0.10566000000E+00 0.  1.
         13    1    3    3    0    0  0.37394137516E+03 -0.15246534125E+03 -0.16449788941E+03  0.43604747347E+03  0.10566000000E+00 0. -1.
          4    1    4    4  501    0 -0.17591997049E+03  0.91411500651E+02  0.75238971044E+03  0.77807080323E+03  0.00000000000E+00 0.  1.
         -4    1    3    3    0  503 -0.48278261222E+03  0.39763117385E+03  0.26303796866E+02  0.62600438561E+03  0.00000000000E+00 0. -1.
</event>
<event>
 8    1  0.7008488E-006  0.1038739E+04  0.7818608E-02  0.8740185E-01
         21   -1    0    0  503  502  0.00000000000E+00  0.00000000000E+00  0.12658244191E+04  0.12658244191E+04  0.00000000000E+00 0. -1.
         21   -1    0    0  501  503 -0.00000000000E+00 -0.00000000000E+00 -0.86405534771E+03  0.86405534771E+03  0.00000000000E+00 0. -1.
    9000010    2    1    2  501    0 -0.88418480957E+02  0.23871800640E+03  0.55910556863E+02  0.10350749573E+04  0.10017235459E+04 0.  0.
   -9000010    2    1    2    0  502  0.88418480957E+02 -0.23871800640E+03  0.34585851457E+03  0.10948048096E+04  0.10070627312E+04 0.  0.
        -13    1    3    3    0    0 -0.47754183189E+03  0.17910081663E+03 -0.21886391262E+03  0.55499975417E+03  0.10566000000E+00 0.  1.
         13    1    4    4    0    0  0.37366047306E+03  0.26364811015E+03  0.19900443564E+03  0.49873364804E+03  0.10566000000E+00 0. -1.
          4    1    3    3  501    0  0.38912335093E+03  0.59617189779E+02  0.27477446949E+03  0.48007520311E+03  0.00000000000E+00 0.  1.
         -4    1    4    4    0  502 -0.28524199210E+03 -0.50236611656E+03  0.14685407893E+03  0.59607116154E+03  0.00000000000E+00 0. -1.
</event>
<event>
 8    1  0.7008488E-006  0.1200590E+04  0.7818608E-02  0.8608281E-01
         21   -1    0    0  503  502  0.00000000000E+00  0.00000000000E+00  0.79488747030E+03  0.79488747030E+03  0.00000000000E+00 0.  1.
         21   -1    0    0  501  503 -0.00000000000E+00 -0.00000000000E+00 -0.21774937072E+04  0.21774937072E+04  0.00000000000E+00 0.  1.
    9000010    2    1    2  501    0 -0.67376181220E+03 -0.27928717824E+02 -0.13105378683E+04  0.17696300560E+04  0.97946211665E+03 0.  0.
   -9000010    2    1    2    0  502  0.67376181220E+03  0.27928717824E+02 -0.72068368619E+02  0.12027511215E+04  0.99331838689E+03 0.  0.
        -13    1    3    3    0    0 -0.75966389305E+03  0.31486643376E+03 -0.78892015420E+03  0.11395723419E+04  0.10566000000E+00 0.  1.
         13    1    4    4    0    0  0.88979401209E+03 -0.17197150420E+03 -0.54270574080E+02  0.90788374177E+03  0.10566000000E+00 0. -1.
          4    1    3    3  501    0  0.85902080845E+02 -0.34279515158E+03 -0.52161771412E+03  0.63005771413E+03  0.00000000000E+00 0.  1.
         -4    1    4    4    0  502 -0.21603219989E+03  0.19990022203E+03 -0.17797794539E+02  0.29486737976E+03  0.00000000000E+00 0. -1.
</event>
<event>
 8    1  0.7008488E-006  0.1088125E+04  0.7818608E-02  0.8697434E-01
         21   -1    0    0  503  502  0.00000000000E+00  0.00000000000E+00  0.15076029432E+04  0.15076029432E+04  0.00000000000E+00 0. -1.
         21   -1    0    0  501  503 -0.00000000000E+00 -0.00000000000E+00 -0.83546983845E+03  0.83546983845E+03  0.00000000000E+00 0. -1.
    9000010    2    1    2  501    0  0.39766870302E+03 -0.13317296903E+03  0.33930876617E+02  0.10815983358E+04  0.99640765682E+03 0.  0.
   -9000010    2    1    2    0  502 -0.39766870302E+03  0.13317296903E+03  0.63820222818E+03  0.12614744459E+04  0.10040618789E+04 0.  0.
        -13    1    3    3    0    0  0.18403990603E+03  0.24888280217E+03 -0.37246931795E+03  0.48430025832E+03  0.10566000000E+00 0.  1.
         13    1    4    4    0    0 -0.63569477113E+03 -0.18344862289E+03  0.25127495010E+03  0.70774313914E+03  0.10566000000E+00 0. -1.
          4    1    3    3  501    0  0.21362879699E+03 -0.38205577121E+03  0.40640019457E+03  0.59729807748E+03  0.00000000000E+00 0.  1.
         -4    1    4    4    0  502  0.23802606811E+03  0.31662159192E+03  0.38692727808E+03  0.55373130677E+03  0.00000000000E+00 0. -1.
</event>
<event>
 8    1  0.7008488E-006  0.1034763E+04  0.7818608E-02  0.8751879E-01
         21   -1    0    0  501  502  0.00000000000E+00  0.00000000000E+00  0.24799401665E+04  0.24799401665E+04  0.00000000000E+00 0. -1.
         21   -1    0    0  502  503 -0.00000000000E+00 -0.00000000000E+00 -0.41568939147E+03  0.41568939147E+03  0.00000000000E+00 0. -1.
   -9000010    2    1    2    0  503  0.25538137759E+03  0.32886009708E+02  0.99785040750E+03  0.14375120584E+04  0.10022147198E+04 0.  0.
    9000010    2    1    2  501    0 -0.25538137759E+03 -0.32886009708E+02  0.10664003675E+04  0.14581174996E+04  0.96051848554E+03 0.  0.
        -13    1    4    4    0    0  0.33614947228E+02  0.27410876976E+03 -0.35381222693E+02  0.27841951156E+03  0.10566000000E+00 0.  1.
         13    1    3    3    0    0  0.64003886392E+03  0.27262623820E+02  0.52731018431E+03  0.82972829265E+03  0.10566000000E+00 0. -1.
          4    1    4    4  501    0 -0.28899632481E+03 -0.30699477947E+03  0.11017815902E+04  0.11796979880E+04  0.00000000000E+00 0.  1.
         -4    1    3    3    0  503 -0.38465748633E+03  0.56233858883E+01  0.47054022319E+03  0.60778376575E+03  0.00000000000E+00 0. -1.
</event>
<event>
 8    1  0.7008488E-006  0.1058121E+04  0.7818608E-02  0.8723148E-01
         21   -1    0    0  503  502  0.00000000000E+00  0.00000000000E+00  0.95063388312E+03  0.95063388312E+03  0.00000000000E+00 0. -1.
         21   -1    0    0  501  503 -0.00000000000E+00 -0.00000000000E+00 -0.12297687058E+04  0.12297687058E+04  0.00000000000E+00 0. -1.
    9000010    2    1    2  501    0  0.17099221068E+03  0.28437643597E+03 -0.37818107505E+03  0.11236730111E+04  0.10047446526E+04 0.  0.
   -9000010    2    1    2    0  502 -0.17099221068E+03 -0.28437643597E+03  0.99046252348E+02  0.10567295778E+04  0.99837815837E+03 0.  0.
        -13    1    3    3    0    0  0.75673874946E+02  0.45779168242E+03 -0.64309281184E+03  0.79301206525E+03  0.10566000000E+00 0.  1.
         13    1    4    4    0    0  0.17035846252E+03 -0.34499774219E+02 -0.37985959133E+03  0.41773862697E+03  0.10566000000E+00 0. -1.
          4    1    3    3  501    0  0.95318335731E+02 -0.17341524645E+03  0.26491173678E+03  0.33066094585E+03  0.00000000000E+00 0.  1.
         -4    1    4    4    0  502 -0.34135067319E+03 -0.24987666175E+03  0.47890584368E+03  0.63899095086E+03  0.00000000000E+00 0. -1.
</event>
<event>
 8    1  0.7008488E-006  0.1058943E+04  0.7818608E-02  0.8722100E-01
         21   -1    0    0  503  502  0.00000000000E+00  0.00000000000E+00  0.17381627727E+04  0.17381627727E+04  0.00000000000E+00 0.  1.
         21   -1    0    0  501  503 -0.00000000000E+00 -0.00000000000E+00 -0.74778073708E+03  0.74778073708E+03  0.00000000000E+00 0.  1.
    9000010    2    1    2  501    0  0.29844011373E+03 -0.18721217998E+03  0.27581450825E+02  0.10547396163E+04  0.99378066995E+03 0.  0.
   -9000010    2    1    2    0  502 -0.29844011373E+03  0.18721217998E+03  0.96280058476E+03  0.14312038934E+04  0.99862140812E+03 0.  0.
        -13    1    3    3    0    0  0.24525687784E+03 -0.24779509555E+03  0.48108052439E+03  0.59413115355E+03  0.10566000000E+00 0.  1.
         13    1    4    4    0    0  0.44831679313E+02  0.36703812741E+03  0.97575326486E+03  0.10434660088E+04  0.10566000000E+00 0. -1.
          4    1    3    3  501    0  0.53183235891E+02  0.60582915575E+02 -0.45349907357E+03  0.46060846276E+03  0.00000000000E+00 0.  1.
         -4    1    4    4    0  502 -0.34327179305E+03 -0.17982594743E+03 -0.12952680103E+02  0.38773788465E+03  0.00000000000E+00 0. -1.
</event>
<event>
 8    1  0.7008488E-006  0.1037035E+04  0.7818608E-02  0.8741031E-01
         21   -1    0    0  503  502  0.00000000000E+00  0.00000000000E+00  0.90688096677E+03  0.90688096677E+03  0.00000000000E+00 0. -1.
         21   -1    0    0  501  503 -0.00000000000E+00 -0.00000000000E+00 -0.18407431974E+04  0.18407431974E+04  0.00000000000E+00 0. -1.
    9000010    2    1    2  501    0 -0.17157324704E+03  0.28705814293E+03 -0.12881869818E+04  0.16537435893E+04  0.98163251918E+03 0.  0.
   -9000010    2    1    2    0  502  0.17157324704E+03 -0.28705814293E+03  0.35432475113E+03  0.10938805748E+04  0.97938191030E+03 0.  0.
        -13    1    3    3    0    0 -0.57159719598E+03  0.78842736828E+02 -0.61345530493E+03  0.84217988216E+03  0.10566000000E+00 0.  1.
         13    1    4    4    0    0 -0.23447520967E+03  0.11946039142E+03  0.44026636250E+03  0.51291704025E+03  0.10566000000E+00 0. -1.
          4    1    3    3  501    0  0.40002394894E+03  0.20821540610E+03 -0.67473167685E+03  0.81156370717E+03  0.00000000000E+00 0.  1.
         -4    1    4    4    0  502  0.40604845671E+03 -0.40651853434E+03 -0.85941611364E+02  0.58096353459E+03  0.00000000000E+00 0. -1.
</event>
<event>
 8    1  0.7008488E-006  0.1112739E+04  0.7818608E-02  0.8677038E-01
         21   -1    0    0  503  502  0.00000000000E+00  0.00000000000E+00  0.17250743648E+04  0.17250743648E+04  0.00000000000E+00 0.  1.
         21   -1    0    0  501  503 -0.00000000000E+00 -0.00000000000E+00 -0.71881592311E+03  0.71881592311E+03  0.00000000000E+00 0.  1.
    9000010    2    1    2  501    0  0.47240093551E+03  0.16230656637E+03  0.38651476222E+03  0.11702065450E+04  0.98513127612E+03 0.  0.
   -9000010    2    1    2    0  502 -0.47240093551E+03 -0.16230656637E+03  0.61974367950E+03  0.12736837429E+04  0.99432488824E+03 0.  0.
        -13    1    3    3    0    0  0.60813505429E+03  0.56689261305E+02  0.62650276286E+03  0.87495579296E+03  0.10566000000E+00 0.  1.
         13    1    4    4    0    0 -0.56302188934E+03  0.48859762726E+02 -0.48324754982E+02  0.56720033268E+03  0.10566000000E+00 0. -1.
          4    1    3    3  501    0 -0.13573411878E+03  0.10561730507E+03 -0.23998800064E+03  0.29525075204E+03  0.00000000000E+00 0.  1.
         -4    1    4    4    0  502  0.90620953824E+02 -0.21116632910E+03  0.66806843448E+03  0.70648341025E+03  0.00000000000E+00 0. -1.
</event>
<event>
 8    1  0.7008488E-006  0.1043049E+04  0.7818608E-02  0.8735564E-01
         21   -1    0    0  503  502  0.00000000000E+00  0.00000000000E+00  0.12400537878E+04  0.12400537878E+04  0.00000000000E+00 0.  1.
         21   -1    0    0  501  503 -0.00000000000E+00 -0.00000000000E+00 -0.89229489843E+03  0.89229489843E+03  0.00000000000E+00 0.  1.
    9000010    2    1    2  501    0 -0.68810428654E+02 -0.31941417470E+03  0.31885292177E+03  0.10906966828E+04  0.99055124958E+03 0.  0.
   -9000010    2    1    2    0  502  0.68810428654E+02  0.31941417470E+03  0.28905967651E+02  0.10416520035E+04  0.98865719605E+03 0.  0.
        -13    1    3    3    0    0 -0.18837949099E+03  0.18370171825E+03  0.48140621839E+03  0.54862110075E+03  0.10566000000E+00 0.  1.
         13    1    4    4    0    0 -0.43442338149E+03  0.84060700303E+02  0.16056711763E+03  0.47071401737E+03  0.10566000000E+00 0. -1.
          4    1    3    3  501    0  0.11956906234E+03 -0.50311589295E+03 -0.16255329663E+03  0.54207558205E+03  0.00000000000E+00 0.  1.
         -4    1    4    4    0  502  0.50323381014E+03  0.23535347440E+03 -0.13166114998E+03  0.57093798612E+03  0.00000000000E+00 0. -1.
</event>
<event>
 8    1  0.7008488E-006  0.1179585E+04  0.7818608E-02  0.8630816E-01
         21   -1    0    0  501  502  0.00000000000E+00  0.00000000000E+00  0.30671208729E+04  0.30671208729E+04  0.00000000000E+00 0.  1.
         21   -1    0    0  502  503 -0.00000000000E+00 -0.00000000000E+00 -0.44501847061E+03  0.44501847061E+03  0.00000000000E+00 0.  1.
   -9000010    2    1    2    0  503 -0.21124499415E+03  0.58262474625E+03  0.10465617365E+04  0.15439549961E+04  0.95101499424E+03 0.  0.
    9000010    2    1    2  501    0  0.21124499415E+03 -0.58262474625E+03  0.15755406658E+04  0.19681843474E+04  0.10036658773E+04 0.  0.
        -13    1    4    4    0    0 -0.32051850935E+03 -0.56227914849E+03  0.88332197658E+03  0.10950560174E+04  0.10566000000E+00 0.  1.
         13    1    3    3    0    0 -0.84440967530E+02 -0.25302038751E+03  0.12852792846E+03  0.29608956931E+03  0.10566000000E+00 0. -1.
          4    1    4    4  501    0  0.53176350350E+03 -0.20345597758E+02  0.69221868921E+03  0.87312833003E+03  0.00000000000E+00 0.  1.
         -4    1    3    3    0  503 -0.12680402663E+03  0.83564513376E+03  0.91803380806E+03  0.12478654268E+04  0.00000000000E+00 0. -1.
</event>
<event>
 8    1  0.7008488E-006  0.1048201E+04  0.7818608E-02  0.8741797E-01
         21   -1    0    0  503  502  0.00000000000E+00  0.00000000000E+00  0.65679841328E+03  0.65679841328E+03  0.00000000000E+00 0.  1.
         21   -1    0    0  501  503 -0.00000000000E+00 -0.00000000000E+00 -0.15956131558E+04  0.15956131558E+04  0.00000000000E+00 0.  1.
    9000010    2    1    2  501    0 -0.93240573784E+02 -0.27685904068E+03 -0.47860001227E+03  0.11076307684E+04  0.95521893526E+03 0.  0.
   -9000010    2    1    2    0  502  0.93240573784E+02  0.27685904068E+03 -0.46021473023E+03  0.11447808007E+04  0.10066681433E+04 0.  0.
        -13    1    3    3    0    0  0.39663916737E+03  0.64171466698E+02 -0.18166551865E+03  0.44095688912E+03  0.10566000000E+00 0.  1.
         13    1    4    4    0    0  0.44180161063E+03 -0.16585402160E+03 -0.29920212320E+03  0.55876483544E+03  0.10566000000E+00 0. -1.
          4    1    3    3  501    0 -0.48987974116E+03 -0.34103050738E+03 -0.29693449362E+03  0.66667387924E+03  0.00000000000E+00 0.  1.
         -4    1    4    4    0  502 -0.34856103684E+03  0.44271306229E+03 -0.16101260703E+03  0.58601596527E+03  0.00000000000E+00 0. -1.
</event>
<event>
 8    1  0.7008488E-006  0.1320976E+04  0.7818608E-02  0.8536013E-01
         21   -1    0    0  501  502  0.00000000000E+00  0.00000000000E+00  0.17244191455E+04  0.17244191455E+04  0.00000000000E+00 0. -1.
         21   -1    0    0  502  503 -0.00000000000E+00 -0.00000000000E+00 -0.96314376089E+03  0.96314376089E+03  0.00000000000E+00 0.  1.
   -9000010    2    1    2    0  503  0.44841301767E+03 -0.75156760838E+03  0.21075094219E+03  0.13376820155E+04  0.98946910545E+03 0.  0.
    9000010    2    1    2  501    0 -0.44841301767E+03  0.75156760838E+03  0.55052444245E+03  0.13498808909E+04  0.86785549114E+03 0.  0.
        -13    1    4    4    0    0 -0.36022274696E+03  0.85619716175E+03  0.68798399666E+03  0.11559221419E+04  0.10566000000E+00 0.  1.
         13    1    3    3    0    0  0.62155370125E+03 -0.57789885273E+03 -0.18826357664E+03  0.86933265956E+03  0.10566000000E+00 0. -1.
          4    1    4    4  501    0 -0.88190270702E+02 -0.10462955337E+03 -0.13745955421E+03  0.19395874904E+03  0.00000000000E+00 0.  1.
         -4    1    3    3    0  503 -0.17314068358E+03 -0.17366875565E+03  0.39901451883E+03  0.46834935597E+03  0.00000000000E+00 0. -1.
</event>
<event>
 8    1  0.7008488E-006  0.1115161E+04  0.7818608E-02  0.8674347E-01
         21   -1    0    0  501  502  0.00000000000E+00  0.00000000000E+00  0.13620214393E+04  0.13620214393E+04  0.00000000000E+00 0.  1.
         21   -1    0    0  502  503 -0.00000000000E+00 -0.00000000000E+00 -0.91179215801E+03  0.91179215801E+03  0.00000000000E+00 0.  1.
   -9000010    2    1    2    0  503  0.44438614001E+03  0.21837052912E+03  0.16333474512E+03  0.11270588700E+04  0.99920905118E+03 0.  0.
    9000010    2    1    2  501    0 -0.44438614001E+03 -0.21837052912E+03  0.28689453615E+03  0.11467547273E+04  0.99376717613E+03 0.  0.
        -13    1    4    4    0    0 -0.43010429827E+03  0.91315480256E+02  0.57478967486E+03  0.72367907653E+03  0.10566000000E+00 0.  1.
         13    1    3    3    0    0  0.96047419717E+02 -0.29219106538E+03  0.36463520188E+03  0.47703203995E+03  0.10566000000E+00 0. -1.
          4    1    4    4  501    0 -0.14281841739E+02 -0.30968600937E+03 -0.28789513871E+03  0.42307565080E+03  0.00000000000E+00 0.  1.
         -4    1    3    3    0  503  0.34833872029E+03  0.51056159450E+03 -0.20130045676E+03  0.65002683000E+03  0.00000000000E+00 0. -1.
</event>
<event>
 8    1  0.7008488E-006  0.1168154E+04  0.7818608E-02  0.8634570E-01
         21   -1    0    0  501  502  0.00000000000E+00  0.00000000000E+00  0.15952890168E+04  0.15952890168E+04  0.00000000000E+00 0. -1.
         21   -1    0    0  502  503 -0.00000000000E+00 -0.00000000000E+00 -0.84449207376E+03  0.84449207376E+03  0.00000000000E+00 0. -1.
   -9000010    2    1    2    0  503  0.48240733478E+03  0.32231620593E+03  0.44632075049E+03  0.12505142480E+04  0.10138930412E+04 0.  0.
    9000010    2    1    2  501    0 -0.48240733478E+03 -0.32231620593E+03  0.30447619252E+03  0.11892668425E+04  0.99249448240E+03 0.  0.
        -13    1    4    4    0    0  0.12835666903E+03 -0.95741966634E+02  0.48707609820E+03  0.51272321506E+03  0.10566000000E+00 0.  1.
         13    1    3    3    0    0  0.44690368860E+03 -0.20378000146E+03  0.52322305746E+03  0.71764306929E+03  0.10566000000E+00 0. -1.
          4    1    4    4  501    0 -0.61076400381E+03 -0.22657423929E+03 -0.18259990568E+03  0.67654362743E+03  0.00000000000E+00 0.  1.
         -4    1    3    3    0  503  0.35503646175E+02  0.52609620738E+03 -0.76902306969E+02  0.53287117874E+03  0.00000000000E+00 0. -1.
</event>
<event>
 8    1  0.7008488E-006  0.1145982E+04  0.7818608E-02  0.8650169E-01
         21   -1    0    0  503  502  0.00000000000E+00  0.00000000000E+00  0.12569794830E+04  0.12569794830E+04  0.00000000000E+00 0.  1.
         21   -1    0    0  501  503 -0.00000000000E+00 -0.00000000000E+00 -0.11578072717E+04  0.11578072717E+04  0.00000000000E+00 0.  1.
    9000010    2    1    2  501    0  0.10867052202E+03 -0.51758155317E+03 -0.34076238999E+03  0.11955727894E+04  0.10166490751E+04 0.  0.
   -9000010    2    1    2    0  502 -0.10867052202E+03  0.51758155317E+03  0.43993460130E+03  0.12192139653E+04  0.10065983773E+04 0.  0.
        -13    1    3    3    0    0 -0.43119638167E+02 -0.79360377895E+03 -0.10408333075E+03  0.80156073511E+03  0.10566000000E+00 0.  1.
         13    1    4    4    0    0 -0.10828930736E+03  0.66385439773E+03  0.66819298195E+03  0.94810922776E+03  0.10566000000E+00 0. -1.
          4    1    3    3  501    0  0.15179016019E+03  0.27602222578E+03 -0.23667905924E+03  0.39401205430E+03  0.00000000000E+00 0.  1.
         -4    1    4    4    0  502 -0.38121466842E+00 -0.14627284456E+03 -0.22825838065E+03  0.27110473754E+03  0.00000000000E+00 0. -1.
</event>
<event>
 8    1  0.7008488E-006  0.1347395E+04  0.7818608E-02  0.8504464E-01
         21   -1    0    0  503  502  0.00000000000E+00  0.00000000000E+00  0.11354126100E+04  0.11354126100E+04  0.00000000000E+00 0. -1.
         21   -1    0    0  501  503 -0.00000000000E+00 -0.00000000000E+00 -0.16411472975E+04  0.16411472975E+04  0.00000000000E+00 0. -1.
    9000010    2    1    2  501    0 -0.56739287570E+03 -0.69473592895E+03 -0.55201409078E+01  0.13393098020E+04  0.99454893671E+03 0.  0.
   -9000010    2    1    2    0  502  0.56739287570E+03  0.69473592895E+03 -0.50021454658E+03  0.14372501055E+04  0.10054255750E+04 0.  0.
        -13    1    3    3    0    0 -0.51975255694E+03 -0.72440910591E+03  0.36585129009E+03  0.96372114784E+03  0.10566000000E+00 0.  1.
         13    1    4    4    0    0  0.36478298656E+03  0.89037390971E+03 -0.12828889840E+03  0.97071642563E+03  0.10566000000E+00 0. -1.
          4    1    3    3  501    0 -0.47640318754E+02  0.29673176959E+02 -0.37137143100E+03  0.37558865420E+03  0.00000000000E+00 0.  1.
         -4    1    4    4    0  502  0.20260988914E+03 -0.19563798077E+03 -0.37192564818E+03  0.46653367989E+03  0.00000000000E+00 0. -1.
</event>
<event>
 8    1  0.7008488E-006  0.1289224E+04  0.7818608E-02  0.8542417E-01
         21   -1    0    0  503  502  0.00000000000E+00  0.00000000000E+00  0.82292773280E+03  0.82292773280E+03  0.00000000000E+00 0.  1.
         21   -1    0    0  501  503 -0.00000000000E+00 -0.00000000000E+00 -0.27474158750E+04  0.27474158750E+04  0.00000000000E+00 0.  1.
    9000010    2    1    2  501    0  0.15229370963E+03  0.80105024583E+03 -0.18822551968E+04  0.22814430752E+04  0.99861053928E+03 0.  0.
   -9000010    2    1    2    0  502 -0.15229370963E+03 -0.80105024583E+03 -0.42232945389E+02  0.12889005326E+04  0.99729939881E+03 0.  0.
        -13    1    3    3    0    0 -0.13057581160E+03  0.54045347988E+03 -0.18055998092E+04  0.18892672359E+04  0.10566000000E+00 0.  1.
         13    1    4    4    0    0  0.26716873116E+03 -0.63704327272E+03  0.26912241679E+03  0.74137045302E+03  0.10566000000E+00 0. -1.
          4    1    3    3  501    0  0.28286952123E+03  0.26059676595E+03 -0.76655387560E+02  0.39217583927E+03  0.00000000000E+00 0.  1.
         -4    1    4    4    0  502 -0.41946244079E+03 -0.16400697311E+03 -0.31135536218E+03  0.54753007956E+03  0.00000000000E+00 0. -1.
</event>
<event>
 8    1  0.7008488E-006  0.1080038E+04  0.7818608E-02  0.8705102E-01
         21   -1    0    0  503  502  0.00000000000E+00  0.00000000000E+00  0.58230718830E+03  0.58230718830E+03  0.00000000000E+00 0. -1.
         21   -1    0    0  501  503 -0.00000000000E+00 -0.00000000000E+00 -0.20021718500E+04  0.20021718500E+04  0.00000000000E+00 0. -1.
    9000010    2    1    2  501    0 -0.42979822068E+02 -0.40926144860E+03 -0.83090409447E+03  0.13542931471E+04  0.98709985090E+03 0.  0.
   -9000010    2    1    2    0  502  0.42979822068E+02  0.40926144860E+03 -0.58896056721E+03  0.12301858912E+04  0.99856926586E+03 0.  0.
        -13    1    3    3    0    0  0.16862109462E+03  0.24917870225E+03 -0.50938600245E+03  0.59160562020E+03  0.10566000000E+00 0.  1.
         13    1    4    4    0    0  0.16210521259E+03  0.15434183683E+03  0.25573750941E+03  0.33985465633E+03  0.10566000000E+00 0. -1.
          4    1    3    3  501    0 -0.21160091669E+03 -0.65844015084E+03 -0.32151809203E+03  0.76268752690E+03  0.00000000000E+00 0.  1.
         -4    1    4    4    0  502 -0.11912539052E+03  0.25491961176E+03 -0.84469807661E+03  0.89033123486E+03  0.00000000000E+00 0. -1.
</event>
<event>
 8    1  0.7008488E-006  0.1284719E+04  0.7818608E-02  0.8548474E-01
         21   -1    0    0  503  502  0.00000000000E+00  0.00000000000E+00  0.84848406337E+03  0.84848406337E+03  0.00000000000E+00 0.  1.
         21   -1    0    0  501  503 -0.00000000000E+00 -0.00000000000E+00 -0.19190032453E+04  0.19190032453E+04  0.00000000000E+00 0.  1.
    9000010    2    1    2  501    0 -0.74793034802E+03 -0.25411235422E+03 -0.55766595432E+03  0.13841864075E+04  0.99045837872E+03 0.  0.
   -9000010    2    1    2    0  502  0.74793034802E+03  0.25411235422E+03 -0.51285322760E+03  0.13833009012E+04  0.10131781956E+04 0.  0.
        -13    1    3    3    0    0 -0.87928004271E+03 -0.42139931953E+03 -0.24383164738E+03  0.10050694819E+04  0.10566000000E+00 0.  1.
         13    1    4    4    0    0  0.14805008065E+03  0.58040278529E+03 -0.28569631590E+03  0.66363289222E+03  0.10566000000E+00 0. -1.
          4    1    3    3  501    0  0.13134969469E+03  0.16728696530E+03 -0.31383430694E+03  0.37911692558E+03  0.00000000000E+00 0.  1.
         -4    1    4    4    0  502  0.59988026737E+03 -0.32629043106E+03 -0.22715691169E+03  0.71966800896E+03  0.00000000000E+00 0. -1.
</event>
<event>
 8    1  0.7008488E-006  0.1050893E+04  0.7818608E-02  0.8731265E-01
         21   -1    0    0  501  502  0.00000000000E+00  0.00000000000E+00  0.10220174817E+04  0.10220174817E+04  0.00000000000E+00 0.  1.
         21   -1    0    0  502  503 -0.00000000000E+00 -0.00000000000E+00 -0.10967511111E+04  0.10967511111E+04  0.00000000000E+00 0.  1.
   -9000010    2    1    2    0  503  0.68085910201E+02 -0.27212866102E+03 -0.21325453777E+03  0.10587856427E+04  0.99842868548E+03 0.  0.
    9000010    2    1    2  501    0 -0.68085910201E+02  0.27212866102E+03  0.13852090844E+03  0.10599829501E+04  0.10127616270E+04 0.  0.
        -13    1    4    4    0    0  0.40596257676E+03 -0.12994361979E+03  0.96021632536E+02  0.43693377431E+03  0.10566000000E+00 0.  1.
         13    1    3    3    0    0 -0.26112147832E+03  0.27081285710E+03 -0.19462824485E+03  0.42356132362E+03  0.10566000000E+00 0. -1.
          4    1    4    4  501    0 -0.47404848696E+03  0.40207228081E+03  0.42499275907E+02  0.62304917578E+03  0.00000000000E+00 0.  1.
         -4    1    3    3    0  503  0.32920738852E+03 -0.54294151812E+03 -0.18626292917E+02  0.63522431908E+03  0.00000000000E+00 0. -1.
</event>
<event>
 8    1  0.7008488E-006  0.1142167E+04  0.7818608E-02  0.8654169E-01
         21   -1    0    0  503  502  0.00000000000E+00  0.00000000000E+00  0.13605774901E+04  0.13605774901E+04  0.00000000000E+00 0.  1.
         21   -1    0    0  501  503 -0.00000000000E+00 -0.00000000000E+00 -0.97048871690E+03  0.97048871690E+03  0.00000000000E+00 0.  1.
    9000010    2    1    2  501    0 -0.31356434948E+03  0.43803778293E+03  0.37582854604E+03  0.12024113369E+04  0.10071475694E+04 0.  0.
   -9000010    2    1    2    0  502  0.31356434948E+03 -0.43803778293E+03  0.14260227106E+02  0.11286548701E+04  0.99169489316E+03 0.  0.
        -13    1    3    3    0    0 -0.18440217676E+03  0.63377765594E+03 -0.10413045453E+03  0.66822259965E+03  0.10566000000E+00 0.  1.
         13    1    4    4    0    0  0.55379238968E+03  0.76300197617E+02 -0.25374698072E+02  0.55959951527E+03  0.10566000000E+00 0. -1.
          4    1    3    3  501    0 -0.12916217272E+03 -0.19573987301E+03  0.47995900057E+03  0.53418873723E+03  0.00000000000E+00 0.  1.
         -4    1    4    4    0  502 -0.24022804020E+03 -0.51433798055E+03  0.39634925178E+02  0.56905535480E+03  0.00000000000E+00 0. -1.
</event>
<event>
 8    1  0.7008488E-006  0.1081058E+04  0.7818608E-02  0.8724214E-01
         21   -1    0    0  503  502  0.00000000000E+00  0.00000000000E+00  0.11824809502E+04  0.11824809502E+04  0.00000000000E+00 0. -1.
         21   -1    0    0  501  503 -0.00000000000E+00 -0.00000000000E+00 -0.96481370310E+03  0.96481370310E+03  0.00000000000E+00 0. -1.
    9000010    2    1    2  501    0 -0.31601964676E+03  0.26522939968E+03 -0.17432767604E+03  0.99736115682E+03  0.89113640196E+03 0.  0.
   -9000010    2    1    2    0  502  0.31601964676E+03 -0.26522939968E+03  0.39199492318E+03  0.11499334965E+04  0.99923569542E+03 0.  0.
        -13    1    3    3    0    0 -0.49230197013E+02  0.28796294247E+03 -0.49795598664E+03  0.57732698216E+03  0.10566000000E+00 0.  1.
         13    1    4    4    0    0  0.45772428035E+02 -0.58729472814E+03  0.42773584103E+03  0.72798913023E+03  0.10566000000E+00 0. -1.
          4    1    3    3  501    0 -0.26678944975E+03 -0.22733542791E+02  0.32362831059E+03  0.42003417466E+03  0.00000000000E+00 0.  1.
         -4    1    4    4    0  502  0.27024721873E+03  0.32206532846E+03 -0.35740917846E+02  0.42194436628E+03  0.00000000000E+00 0. -1.
</event>
<event>
 8    1  0.7008488E-006  0.1127070E+04  0.7818608E-02  0.8665752E-01
         21   -1    0    0  503  502  0.00000000000E+00  0.00000000000E+00  0.15877111519E+04  0.15877111519E+04  0.00000000000E+00 0.  1.
         21   -1    0    0  501  503 -0.00000000000E+00 -0.00000000000E+00 -0.79266424307E+03  0.79266424307E+03  0.00000000000E+00 0.  1.
    9000010    2    1    2  501    0  0.49022866103E+03  0.18731167470E+03  0.39014704786E+03  0.11926864771E+04  0.99743496537E+03 0.  0.
   -9000010    2    1    2    0  502 -0.49022866103E+03 -0.18731167470E+03  0.40489986101E+03  0.11876889179E+04  0.98552080885E+03 0.  0.
        -13    1    3    3    0    0  0.75453506616E+03  0.30216060456E+03  0.39670087740E+03  0.90443119933E+03  0.10566000000E+00 0.  1.
         13    1    4    4    0    0 -0.28621151135E+03 -0.36218393960E+03  0.66776324271E+03  0.81178937835E+03  0.10566000000E+00 0. -1.
          4    1    3    3  501    0 -0.26430640514E+03 -0.11484892986E+03 -0.65538295356E+01  0.28825527778E+03  0.00000000000E+00 0.  1.
         -4    1    4    4    0  502 -0.20401714968E+03  0.17487226490E+03 -0.26286338169E+03  0.37589953955E+03  0.00000000000E+00 0. -1.
</event>
<event>
 8    1  0.1280077E-005  0.1057904E+04  0.7818608E-02  0.8764840E-01
         21   -1    0    0  501  502  0.00000000000E+00  0.00000000000E+00  0.61195123986E+03  0.61195123986E+03  0.00000000000E+00 0. -1.
         21   -1    0    0  502  503 -0.00000000000E+00 -0.00000000000E+00 -0.15365888494E+04  0.15365888494E+04  0.00000000000E+00 0. -1.
   -9000010    2    1    2    0  503  0.20194101499E+03 -0.21882929799E+03 -0.53952671363E+03  0.11875395260E+04  0.10151328071E+04 0.  0.
    9000010    2    1    2  501    0 -0.20194101499E+03  0.21882929799E+03 -0.38511089589E+03  0.96100056322E+03  0.82858025874E+03 0.  0.
        -13    1    4    4    0    0 -0.23142078030E+03 -0.23703163615E+03 -0.38004879762E+03  0.50415937344E+03  0.10566000000E+00 0.  1.
         13    1    3    3    0    0 -0.22185727501E+02 -0.10410794688E+03  0.29618050751E+03  0.31472777968E+03  0.10566000000E+00 0. -1.
          4    1    4    4  501    0  0.29479765310E+02  0.45586093414E+03 -0.50620982722E+01  0.45684118978E+03  0.00000000000E+00 0.  1.
         -4    1    3    3    0  503  0.22412674249E+03 -0.11472135111E+03 -0.83570722115E+03  0.87281174636E+03  0.00000000000E+00 0. -1.
</event>
<event>
 8    1  0.7008488E-006  0.1265349E+04  0.7818608E-02  0.8560890E-01
         21   -1    0    0  501  502  0.00000000000E+00  0.00000000000E+00  0.19236259136E+04  0.19236259136E+04  0.00000000000E+00 0. -1.
         21   -1    0    0  502  503 -0.00000000000E+00 -0.00000000000E+00 -0.15884981657E+04  0.15884981657E+04  0.00000000000E+00 0. -1.
   -9000010    2    1    2    0  503 -0.49536427147E+02  0.76962219659E+03 -0.10494751205E+04  0.16439300127E+04  0.10031628358E+04 0.  0.
    9000010    2    1    2  501    0  0.49536427147E+02 -0.76962219659E+03  0.13846028684E+04  0.18681940666E+04  0.98906611715E+03 0.  0.
        -13    1    4    4    0    0 -0.10727226155E+03 -0.96897789858E+03  0.12360916323E+04  0.15742769898E+04  0.10566000000E+00 0.  1.
         13    1    3    3    0    0 -0.51182440324E+03  0.49498122747E+03 -0.46862370250E+03  0.85239592972E+03  0.10566000000E+00 0. -1.
          4    1    4    4  501    0  0.15680868870E+03  0.19935570199E+03  0.14851123614E+03  0.29391707679E+03  0.00000000000E+00 0.  1.
         -4    1    3    3    0  503  0.46228797610E+03  0.27464096912E+03 -0.58085141802E+03  0.79153408302E+03  0.00000000000E+00 0. -1.
</event>
<event>
 8    1  0.7008488E-006  0.1142461E+04  0.7818608E-02  0.8654720E-01
         21   -1    0    0  501  502  0.00000000000E+00  0.00000000000E+00  0.22391767055E+04  0.22391767055E+04  0.00000000000E+00 0.  1.
         21   -1    0    0  502  503 -0.00000000000E+00 -0.00000000000E+00 -0.89291702250E+03  0.89291702250E+03  0.00000000000E+00 0.  1.
   -9000010    2    1    2    0  503 -0.24410413231E+03 -0.48161268112E+03 -0.26608850036E+03  0.11560159094E+04  0.98693064126E+03 0.  0.
    9000010    2    1    2  501    0  0.24410413231E+03  0.48161268112E+03  0.16123481834E+04  0.19760778187E+04  0.10068164078E+04 0.  0.
        -13    1    4    4    0    0  0.50440519287E+03  0.13307557331E+03  0.13959020931E+04  0.14901934007E+04  0.10566000000E+00 0.  1.
         13    1    3    3    0    0  0.61959709623E+01 -0.52705214359E+03 -0.55882804151E+03  0.76818691948E+03  0.10566000000E+00 0. -1.
          4    1    4    4  501    0 -0.26030106056E+03  0.34853710781E+03  0.21644609034E+03  0.48588441802E+03  0.00000000000E+00 0.  1.
         -4    1    3    3    0  503 -0.25030010328E+03  0.45439462471E+02  0.29273954115E+03  0.38782898989E+03  0.00000000000E+00 0. -1.
</event>
<event>
 8    1  0.7008488E-006  0.1254709E+04  0.7818608E-02  0.8569936E-01
         21   -1    0    0  503  502  0.00000000000E+00  0.00000000000E+00  0.12120296698E+04  0.12120296698E+04  0.00000000000E+00 0. -1.
         21   -1    0    0  501  503 -0.00000000000E+00 -0.00000000000E+00 -0.13866984587E+04  0.13866984587E+04  0.00000000000E+00 0. -1.
    9000010    2    1    2  501    0 -0.64512368101E+02 -0.75014293503E+03 -0.44883220383E+03  0.13144147611E+04  0.97946901354E+03 0.  0.
   -9000010    2    1    2    0  502  0.64512368101E+02  0.75014293503E+03  0.27416341497E+03  0.12843133673E+04  0.10037026347E+04 0.  0.
        -13    1    3    3    0    0 -0.37086862207E+03 -0.74393585681E+03 -0.80283084599E+02  0.83512243337E+03  0.10566000000E+00 0.  1.
         13    1    4    4    0    0 -0.10983675719E+03  0.92359829728E+03  0.39474632464E+03  0.10104071456E+04  0.10566000000E+00 0. -1.
          4    1    3    3  501    0  0.30635625397E+03 -0.62070782147E+01 -0.36854911923E+03  0.47929232776E+03  0.00000000000E+00 0.  1.
         -4    1    4    4    0  502  0.17434912530E+03 -0.17345536225E+03 -0.12058290967E+03  0.27390622171E+03  0.00000000000E+00 0. -1.
</event>
<event>
 8    1  0.7008488E-006  0.1071954E+04  0.7818608E-02  0.8712825E-01
         21   -1    0    0  503  502  0.00000000000E+00  0.00000000000E+00  0.13998224594E+04  0.13998224594E+04  0.00000000000E+00 0. -1.
         21   -1    0    0  501  503 -0.00000000000E+00 -0.00000000000E+00 -0.81283928594E+03  0.81283928594E+03  0.00000000000E+00 0. -1.
    9000010    2    1    2  501    0 -0.26122542717E+03  0.25133303212E+03  0.35879442375E+03  0.11304067445E+04  0.10088007498E+04 0.  0.
   -9000010    2    1    2    0  502  0.26122542717E+03 -0.25133303212E+03  0.22818874969E+03  0.10822550008E+04  0.99388065905E+03 0.  0.
        -13    1    3    3    0    0 -0.63805057662E+03  0.50567473301E+02  0.16181689384E+03  0.66018961366E+03  0.10566000000E+00 0.  1.
         13    1    4    4    0    0 -0.25062705430E+03  0.12712256239E+03 -0.17281552111E+03  0.32990798977E+03  0.10566000000E+00 0. -1.
          4    1    3    3  501    0  0.37682514945E+03  0.20076555882E+03  0.19697752992E+03  0.47021713087E+03  0.00000000000E+00 0.  1.
         -4    1    4    4    0  502  0.51185248147E+03 -0.37845559451E+03  0.40100427080E+03  0.75234701103E+03  0.00000000000E+00 0. -1.
</event>
<event>
 8    1  0.7008488E-006  0.1474038E+04  0.7818608E-02  0.8425926E-01
         21   -1    0    0  503  502  0.00000000000E+00  0.00000000000E+00  0.30043479215E+04  0.30043479215E+04  0.00000000000E+00 0.  1.
         21   -1    0    0  501  503 -0.00000000000E+00 -0.00000000000E+00 -0.74161518123E+03  0.74161518123E+03  0.00000000000E+00 0.  1.
    9000010    2    1    2  501    0  0.38719075752E+03  0.98874610441E+03  0.14564760421E+04  0.20658331859E+04  0.10093605644E+04 0.  0.
   -9000010    2    1    2    0  502 -0.38719075752E+03 -0.98874610441E+03  0.80625669817E+03  0.16801299168E+04  0.10223752405E+04 0.  0.
        -13    1    3    3    0    0  0.34439942588E+03  0.98624381609E+03  0.59285983154E+03  0.12011538704E+04  0.10566000000E+00 0.  1.
         13    1    4    4    0    0 -0.37435134486E+03 -0.11527912187E+04  0.88199071288E+03  0.14989910447E+04  0.10566000000E+00 0. -1.
          4    1    3    3  501    0  0.42791331642E+02  0.25022883188E+01  0.86361621056E+03  0.86467931550E+03  0.00000000000E+00 0.  1.
         -4    1    4    4    0  502 -0.12839412660E+02  0.16404511426E+03 -0.75734014705E+02  0.18113887218E+03  0.00000000000E+00 0. -1.
</event>
<event>
 8    1  0.7008488E-006  0.1160106E+04  0.7818608E-02  0.8651170E-01
         21   -1    0    0  501  502  0.00000000000E+00  0.00000000000E+00  0.25526613143E+04  0.25526613143E+04  0.00000000000E+00 0. -1.
         21   -1    0    0  502  503 -0.00000000000E+00 -0.00000000000E+00 -0.49642003939E+03  0.49642003939E+03  0.00000000000E+00 0. -1.
   -9000010    2    1    2    0  503 -0.96570778390E+02  0.41895820679E+03  0.10681675446E+04  0.15769677263E+04  0.10774940428E+04 0.  0.
    9000010    2    1    2  501    0  0.96570778390E+02 -0.41895820679E+03  0.98807373034E+03  0.14721136274E+04  0.10029840183E+04 0.  0.
        -13    1    4    4    0    0  0.47187315270E+03 -0.51958471886E+03  0.66302046589E+03  0.96551991262E+03  0.10566000000E+00 0.  1.
         13    1    3    3    0    0 -0.84433156383E+02 -0.18918981251E+03 -0.12195921143E+03  0.24040757781E+03  0.10566000000E+00 0. -1.
          4    1    4    4  501    0 -0.37530237431E+03  0.10062651207E+03  0.32505326445E+03  0.50659371475E+03  0.00000000000E+00 0.  1.
         -4    1    3    3    0  503 -0.12137622006E+02  0.60814801930E+03  0.11901267560E+04  0.13365601485E+04  0.00000000000E+00 0. -1.
</event>
<event>
 8    1  0.7008488E-006  0.1076247E+04  0.7818608E-02  0.8717788E-01
         21   -1    0    0  501  502  0.00000000000E+00  0.00000000000E+00  0.91984680369E+03  0.91984680369E+03  0.00000000000E+00 0.  1.
         21   -1    0    0  502  503 -0.00000000000E+00 -0.00000000000E+00 -0.12719554638E+04  0.12719554638E+04  0.00000000000E+00 0.  1.
   -9000010    2    1    2    0  503 -0.21085086349E+03 -0.30683514208E+03 -0.43620260234E+03  0.11122752271E+04  0.95303598011E+03 0.  0.
    9000010    2    1    2  501    0  0.21085086349E+03  0.30683514208E+03  0.84093942220E+02  0.10795270404E+04  0.10098024306E+04 0.  0.
        -13    1    4    4    0    0  0.18598352936E+03  0.34829876271E+03  0.51330657917E+03  0.64759984302E+03  0.10566000000E+00 0.  1.
         13    1    3    3    0    0  0.23619693394E+03  0.14842207362E+03  0.81492906688E+02  0.29061866517E+03  0.10566000000E+00 0. -1.
          4    1    4    4  501    0  0.24867334131E+02 -0.41463620633E+02 -0.42921263695E+03  0.43192719741E+03  0.00000000000E+00 0.  1.
         -4    1    3    3    0  503 -0.44704779743E+03 -0.45525721570E+03 -0.51769550903E+03  0.82165656189E+03  0.00000000000E+00 0. -1.
</event>
<event>
 8    1  0.7008488E-006  0.1134731E+04  0.7818608E-02  0.8658605E-01
         21   -1    0    0  503  502  0.00000000000E+00  0.00000000000E+00  0.17740279190E+04  0.17740279190E+04  0.00000000000E+00 0.  1.
         21   -1    0    0  501  503 -0.00000000000E+00 -0.00000000000E+00 -0.82938939506E+03  0.82938939506E+03  0.00000000000E+00 0.  1.
    9000010    2    1    2  501    0 -0.32637247075E+03  0.41452347728E+03  0.28603162882E+01  0.11287781275E+04  0.99788936106E+03 0.  0.
   -9000010    2    1    2    0  502  0.32637247075E+03 -0.41452347728E+03  0.94177820761E+03  0.14746391865E+04  0.10046222350E+04 0.  0.
        -13    1    3    3    0    0 -0.47639367245E+03 -0.17840555640E+03 -0.67370521910E+02  0.51314546874E+03  0.10566000000E+00 0.  1.
         13    1    4    4    0    0  0.53918995112E+03 -0.70928007537E+02  0.11717546934E+03  0.55631527700E+03  0.10566000000E+00 0. -1.
          4    1    3    3  501    0  0.15002120170E+03  0.59292903368E+03  0.70230838199E+02  0.61563265879E+03  0.00000000000E+00 0.  1.
         -4    1    4    4    0  502 -0.21281748038E+03 -0.34359546974E+03  0.82460273827E+03  0.91832390949E+03  0.00000000000E+00 0. -1.
</event>
<event>
 8    1  0.7008488E-006  0.1128085E+04  0.7818608E-02  0.8671921E-01
         21   -1    0    0  503  502  0.00000000000E+00  0.00000000000E+00  0.14531617427E+04  0.14531617427E+04  0.00000000000E+00 0.  1.
         21   -1    0    0  501  503 -0.00000000000E+00 -0.00000000000E+00 -0.85343300833E+03  0.85343300833E+03  0.00000000000E+00 0.  1.
    9000010    2    1    2  501    0  0.37477728237E+03  0.34165729152E+03  0.15941792490E+03  0.10956246838E+04  0.95801443448E+03 0.  0.
   -9000010    2    1    2    0  502 -0.37477728237E+03 -0.34165729152E+03  0.44031080943E+03  0.12109700672E+04  0.10076642192E+04 0.  0.
        -13    1    3    3    0    0  0.16459031077E+03  0.62236143628E+03  0.30936693993E+03  0.71423500506E+03  0.10566000000E+00 0.  1.
         13    1    4    4    0    0 -0.58348860157E+03  0.14268724855E+03  0.23596220749E+03  0.64536561234E+03  0.10566000000E+00 0. -1.
          4    1    3    3  501    0  0.21018697161E+03 -0.28070414475E+03 -0.14994901503E+03  0.38138967871E+03  0.00000000000E+00 0.  1.
         -4    1    4    4    0  502  0.20871131920E+03 -0.48434454007E+03  0.20434860194E+03  0.56560445488E+03  0.00000000000E+00 0. -1.
</event>
<event>
 8    1  0.7008488E-006  0.1067143E+04  0.7818608E-02  0.8741506E-01
         21   -1    0    0  503  502  0.00000000000E+00  0.00000000000E+00  0.14087070646E+04  0.14087070646E+04  0.00000000000E+00 0. -1.
         21   -1    0    0  501  503 -0.00000000000E+00 -0.00000000000E+00 -0.77649469521E+03  0.77649469521E+03  0.00000000000E+00 0. -1.
    9000010    2    1    2  501    0  0.40707692606E+03 -0.25433331051E+03  0.59157296379E+03  0.11172853913E+04  0.81729493910E+03 0.  0.
   -9000010    2    1    2    0  502 -0.40707692606E+03  0.25433331051E+03  0.40639405609E+02  0.10679163686E+04  0.95309850088E+03 0.  0.
        -13    1    3    3    0    0 -0.45010511834E+02  0.21070394071E+03  0.37685152391E+03  0.43409581781E+03  0.10566000000E+00 0.  1.
         13    1    4    4    0    0 -0.23085361574E+03 -0.35790962475E+03  0.62377556837E+02  0.43044588760E+03  0.10566000000E+00 0. -1.
          4    1    3    3  501    0  0.45208743790E+03 -0.46503725122E+03  0.21472143988E+03  0.68318957345E+03  0.00000000000E+00 0.  1.
         -4    1    4    4    0  502 -0.17622331032E+03  0.61224293526E+03 -0.21738151229E+02  0.63747048096E+03  0.00000000000E+00 0. -1.
</event>
<event>
 8    1  0.7008488E-006  0.1034869E+04  0.7818608E-02  0.8746410E-01
         21   -1    0    0  503  502  0.00000000000E+00  0.00000000000E+00  0.91787269240E+03  0.91787269240E+03  0.00000000000E+00 0.  1.
         21   -1    0    0  501  503 -0.00000000000E+00 -0.00000000000E+00 -0.11737402576E+04  0.11737402576E+04  0.00000000000E+00 0.  1.
    9000010    2    1    2  501    0  0.20170446241E+03 -0.18484157000E+03 -0.28331202251E+03  0.10563798283E+04  0.98021504958E+03 0.  0.
   -9000010    2    1    2    0  502 -0.20170446241E+03  0.18484157000E+03  0.27444457331E+02  0.10352331217E+04  0.99804975918E+03 0.  0.
        -13    1    3    3    0    0 -0.20878837151E+03 -0.25102567569E+03 -0.49252278880E+03  0.59091893063E+03  0.10566000000E+00 0.  1.
         13    1    4    4    0    0 -0.47707623680E+03 -0.96831990687E+02  0.28547049980E+03  0.56433286947E+03  0.10566000000E+00 0. -1.
          4    1    3    3  501    0  0.41049283392E+03  0.66184105683E+02  0.20921076629E+03  0.46546089768E+03  0.00000000000E+00 0.  1.
         -4    1    4    4    0  502  0.27537177439E+03  0.28167356069E+03 -0.25802604247E+03  0.47090025220E+03  0.00000000000E+00 0. -1.
</event>
<event>
 8    1  0.7008488E-006  0.1299024E+04  0.7818608E-02  0.8570414E-01
         21   -1    0    0  501  502  0.00000000000E+00  0.00000000000E+00  0.38794117476E+03  0.38794117476E+03  0.00000000000E+00 0. -1.
         21   -1    0    0  502  503 -0.00000000000E+00 -0.00000000000E+00 -0.39529606679E+04  0.39529606679E+04  0.00000000000E+00 0. -1.
   -9000010    2    1    2    0  503  0.45960620532E+03 -0.68197195417E+03 -0.24135670371E+04  0.27409430132E+04  0.10055541500E+04 0.  0.
    9000010    2    1    2  501    0 -0.45960620532E+03  0.68197195417E+03 -0.11514524561E+04  0.15999588295E+04  0.74679440766E+03 0.  0.
        -13    1    4    4    0    0  0.71663393735E+02  0.50126742878E+03 -0.32742590847E+03  0.60300283072E+03  0.10566000000E+00 0.  1.
         13    1    3    3    0    0 -0.10245945292E+03 -0.58693818912E+03 -0.62395578301E+03  0.86273704433E+03  0.10566000000E+00 0. -1.
          4    1    4    4  501    0 -0.53126959906E+03  0.18070452539E+03 -0.82402654762E+03  0.99695599881E+03  0.00000000000E+00 0.  1.
         -4    1    3    3    0  503  0.56206565824E+03 -0.95033765052E+02 -0.17896112541E+04  0.18782059688E+04  0.00000000000E+00 0. -1.
</event>
<event>
 8    1  0.7008488E-006  0.1052120E+04  0.7818608E-02  0.8731079E-01
         21   -1    0    0  501  502  0.00000000000E+00  0.00000000000E+00  0.99712164216E+03  0.99712164216E+03  0.00000000000E+00 0. -1.
         21   -1    0    0  502  503 -0.00000000000E+00 -0.00000000000E+00 -0.11587156307E+04  0.11587156307E+04  0.00000000000E+00 0.  1.
   -9000010    2    1    2    0  503  0.29494283311E+03  0.39083690129E+00  0.17962818666E+03  0.10497677897E+04  0.99133985054E+03 0.  0.
    9000010    2    1    2  501    0 -0.29494283311E+03 -0.39083690129E+00 -0.34122217519E+03  0.11060694832E+04  0.10099335132E+04 0.  0.
        -13    1    4    4    0    0 -0.39587025024E+03  0.43611718302E+03 -0.10061120492E+03  0.59752328663E+03  0.10566000000E+00 0.  1.
         13    1    3    3    0    0  0.42911002146E+03  0.38839692073E+03  0.25481672599E+03  0.63239161408E+03  0.10566000000E+00 0. -1.
          4    1    4    4  501    0  0.10092741713E+03 -0.43650801992E+03 -0.24061097027E+03  0.50854619652E+03  0.00000000000E+00 0.  1.
         -4    1    3    3    0  503 -0.13416718835E+03 -0.38800608383E+03 -0.75188539327E+02  0.41737617561E+03  0.00000000000E+00 0. -1.
</event>
<event>
 8    1  0.7008488E-006  0.1237076E+04  0.7818608E-02  0.8579234E-01
         21   -1    0    0  503  502  0.00000000000E+00  0.00000000000E+00  0.13464644511E+04  0.13464644511E+04  0.00000000000E+00 0.  1.
         21   -1    0    0  501  503 -0.00000000000E+00 -0.00000000000E+00 -0.11887291850E+04  0.11887291850E+04  0.00000000000E+00 0.  1.
    9000010    2    1    2  501    0  0.72267779212E+03 -0.62367060061E+02  0.34539747150E+03  0.12839648897E+04  0.10015555817E+04 0.  0.
   -9000010    2    1    2    0  502 -0.72267779212E+03  0.62367060061E+02 -0.18766220543E+03  0.12512287465E+04  0.10020995116E+04 0.  0.
        -13    1    3    3    0    0  0.87135627316E+03  0.56424435216E+02  0.52784731712E+03  0.10203275322E+04  0.10566000000E+00 0.  1.
         13    1    4    4    0    0 -0.58547975770E+03  0.24758805701E+03 -0.53737838203E+03  0.83238328268E+03  0.10566000000E+00 0. -1.
          4    1    3    3  501    0 -0.14867848103E+03 -0.11879149528E+03 -0.18244984562E+03  0.26363735744E+03  0.00000000000E+00 0.  1.
         -4    1    4    4    0  502 -0.13719803442E+03 -0.18522099695E+03  0.34971617659E+03  0.41884546378E+03  0.00000000000E+00 0. -1.
</event>
<event>
 8    1  0.7008488E-006  0.1237625E+04  0.7818608E-02  0.8584324E-01
         21   -1    0    0  501  502  0.00000000000E+00  0.00000000000E+00  0.23508404282E+04  0.23508404282E+04  0.00000000000E+00 0.  1.
         21   -1    0    0  502  503 -0.00000000000E+00 -0.00000000000E+00 -0.63599174301E+03  0.63599174301E+03  0.00000000000E+00 0.  1.
   -9000010    2    1    2    0  503  0.27941512248E+02  0.71820953729E+03  0.87862777836E+03  0.14931852122E+04  0.97005651254E+03 0.  0.
    9000010    2    1    2  501    0 -0.27941512248E+02 -0.71820953729E+03  0.83622090686E+03  0.14936469590E+04  0.10075267567E+04 0.  0.
        -13    1    4    4    0    0  0.20075144703E+03 -0.39830921069E+03  0.97857488201E+03  0.10754348803E+04  0.10566000000E+00 0.  1.
         13    1    3    3    0    0 -0.10594840874E+03  0.69605089413E+03  0.10564048912E+04  0.12695287385E+04  0.10566000000E+00 0. -1.
          4    1    4    4  501    0 -0.22869295927E+03 -0.31990032661E+03 -0.14235397515E+03  0.41821207877E+03  0.00000000000E+00 0.  1.
         -4    1    3    3    0  503  0.13388992099E+03  0.22158643163E+02 -0.17777711281E+03  0.22365647375E+03  0.00000000000E+00 0. -1.
</event>
<event>
 8    1  0.7008488E-006  0.1135496E+04  0.7818608E-02  0.8668472E-01
         21   -1    0    0  503  502  0.00000000000E+00  0.00000000000E+00  0.91900464246E+03  0.91900464246E+03  0.00000000000E+00 0. -1.
         21   -1    0    0  501  503 -0.00000000000E+00 -0.00000000000E+00 -0.13407822976E+04  0.13407822976E+04  0.00000000000E+00 0. -1.
    9000010    2    1    2  501    0  0.43377769525E+03  0.19726096608E+03 -0.12535250029E+03  0.10862370727E+04  0.96805100647E+03 0.  0.
   -9000010    2    1    2    0  502 -0.43377769525E+03 -0.19726096608E+03 -0.29642515484E+03  0.11735498674E+04  0.10306679587E+04 0.  0.
        -13    1    3    3    0    0  0.29943924527E+02 -0.37257097991E+03 -0.10194329298E+03  0.38742511513E+03  0.10566000000E+00 0.  1.
         13    1    4    4    0    0  0.16150243029E+03 -0.31208854588E+03  0.18708359181E+03  0.39809870253E+03  0.10566000000E+00 0. -1.
          4    1    3    3  501    0  0.40383377072E+03  0.56983194598E+03 -0.23409207311E+02  0.69881195756E+03  0.00000000000E+00 0.  1.
         -4    1    4    4    0  502 -0.59528012554E+03  0.11482757981E+03 -0.48350874665E+03  0.77545116483E+03  0.00000000000E+00 0. -1.
</event>
<event>
 8    1  0.7008488E-006  0.1036076E+04  0.7818608E-02  0.8742558E-01
         21   -1    0    0  501  502  0.00000000000E+00  0.00000000000E+00  0.26639811099E+03  0.26639811099E+03  0.00000000000E+00 0. -1.
         21   -1    0    0  502  503 -0.00000000000E+00 -0.00000000000E+00 -0.44721857416E+04  0.44721857416E+04  0.00000000000E+00 0. -1.
   -9000010    2    1    2    0  503  0.51400311124E+02  0.26473727107E+03 -0.28693324341E+04  0.30506593299E+04  0.10003628917E+04 0.  0.
    9000010    2    1    2  501    0 -0.51400311124E+02 -0.26473727107E+03 -0.13364551965E+04  0.16879245226E+04  0.99511249982E+03 0.  0.
        -13    1    4    4    0    0  0.46431564495E+03 -0.32837367479E+02 -0.61364560493E+03  0.77021312015E+03  0.10566000000E+00 0.  1.
         13    1    3    3    0    0  0.32041047705E+03 -0.15484893550E+03 -0.21267463065E+04  0.21563142002E+04  0.10566000000E+00 0. -1.
          4    1    4    4  501    0 -0.51571595607E+03 -0.23189990359E+03 -0.72280959155E+03  0.91771140250E+03  0.00000000000E+00 0.  1.
         -4    1    3    3    0  503 -0.26901016592E+03  0.41958620657E+03 -0.74258612761E+03  0.89434512971E+03  0.00000000000E+00 0. -1.
</event>
<event>
 8    1  0.7008488E-006  0.1158901E+04  0.7818608E-02  0.8646106E-01
         21   -1    0    0  501  502  0.00000000000E+00  0.00000000000E+00  0.19797982649E+04  0.19797982649E+04  0.00000000000E+00 0. -1.
         21   -1    0    0  502  503 -0.00000000000E+00 -0.00000000000E+00 -0.95162187554E+03  0.95162187554E+03  0.00000000000E+00 0. -1.
   -9000010    2    1    2    0  503 -0.57356987621E+03 -0.18510980511E+03 -0.29748264036E+03  0.11964725890E+04  0.98984983311E+03 0.  0.
    9000010    2    1    2  501    0  0.57356987621E+03  0.18510980511E+03  0.13256590297E+04  0.17349475514E+04  0.94309230741E+03 0.  0.
        -13    1    4    4    0    0  0.14836470465E+03 -0.22205682441E+03 -0.18315285022E+02  0.26768783999E+03  0.10566000000E+00 0.  1.
         13    1    3    3    0    0  0.18935541031E+03  0.22337440325E+03 -0.57632459168E+02  0.29845118019E+03  0.10566000000E+00 0. -1.
          4    1    4    4  501    0  0.42520517156E+03  0.40716662952E+03  0.13439743147E+04  0.14672597114E+04  0.00000000000E+00 0.  1.
         -4    1    3    3    0  503 -0.76292528652E+03 -0.40848420836E+03 -0.23985018119E+03  0.89802140883E+03  0.00000000000E+00 0. -1.
</event>
<event>
 8    1  0.7008488E-006  0.1157640E+04  0.7818608E-02  0.8641022E-01
         21   -1    0    0  503  502  0.00000000000E+00  0.00000000000E+00  0.88057024228E+03  0.88057024228E+03  0.00000000000E+00 0. -1.
         21   -1    0    0  501  503 -0.00000000000E+00 -0.00000000000E+00 -0.15482655953E+04  0.15482655953E+04  0.00000000000E+00 0. -1.
    9000010    2    1    2  501    0  0.45300359848E+03 -0.35735073405E+03 -0.14043216826E+03  0.11567761105E+04  0.99272250333E+03 0.  0.
   -9000010    2    1    2    0  502 -0.45300359848E+03  0.35735073405E+03 -0.52726318478E+03  0.12720597271E+04  0.10036023495E+04 0.  0.
        -13    1    3    3    0    0 -0.12748749497E+03 -0.71295370132E+00  0.31328265878E+03  0.33823010678E+03  0.10566000000E+00 0.  1.
         13    1    4    4    0    0 -0.33958871579E+03  0.54958038051E+03 -0.72698283042E+03  0.97255495342E+03  0.10566000000E+00 0. -1.
          4    1    3    3  501    0  0.58049109345E+03 -0.35663778034E+03 -0.45371482704E+03  0.81854600373E+03  0.00000000000E+00 0.  1.
         -4    1    4    4    0  502 -0.11341488269E+03 -0.19222964647E+03  0.19971964563E+03  0.29950477366E+03  0.00000000000E+00 0. -1.
</event>
<event>
 8    1  0.7008488E-006  0.1157787E+04  0.7818608E-02  0.8641032E-01
         21   -1    0    0  503  502  0.00000000000E+00  0.00000000000E+00  0.26661298777E+04  0.26661298777E+04  0.00000000000E+00 0. -1.
         21   -1    0    0  501  503 -0.00000000000E+00 -0.00000000000E+00 -0.51659626440E+03  0.51659626440E+03  0.00000000000E+00 0. -1.
    9000010    2    1    2  501    0  0.16315364358E+03  0.55707966461E+03  0.77176299363E+03  0.13830809186E+04  0.99012011648E+03 0.  0.
   -9000010    2    1    2    0  502 -0.16315364358E+03 -0.55707966461E+03  0.13777706196E+04  0.17996452234E+04  0.10017555519E+04 0.  0.
        -13    1    3    3    0    0 -0.22901641184E+02  0.40813269937E+03 -0.14662193446E+03  0.43427501459E+03  0.10566000000E+00 0.  1.
         13    1    4    4    0    0 -0.49008248087E+03 -0.12747415574E+03  0.28570103192E+03  0.58142548039E+03  0.10566000000E+00 0. -1.
          4    1    3    3  501    0  0.18605528476E+03  0.14894696524E+03  0.91838492809E+03  0.94880590406E+03  0.00000000000E+00 0.  1.
         -4    1    4    4    0  502  0.32692883729E+03 -0.42960550887E+03  0.10920695877E+04  0.12182197430E+04  0.00000000000E+00 0. -1.
</event>
<event>
 8    1  0.7008488E-006  0.1049042E+04  0.7818608E-02  0.8734616E-01
         21   -1    0    0  503  502  0.00000000000E+00  0.00000000000E+00  0.62465649786E+03  0.62465649786E+03  0.00000000000E+00 0. -1.
         21   -1    0    0  501  503 -0.00000000000E+00 -0.00000000000E+00 -0.17714447929E+04  0.17714447929E+04  0.00000000000E+00 0. -1.
    9000010    2    1    2  501    0 -0.24087415566E+03  0.11467388416E+03 -0.37590329378E+03  0.10942746317E+04  0.99245313473E+03 0.  0.
   -9000010    2    1    2    0  502  0.24087415566E+03 -0.11467388416E+03 -0.77088500125E+03  0.13018266591E+04  0.10145533532E+04 0.  0.
        -13    1    3    3    0    0 -0.20777155482E+03  0.43075430134E+03  0.13110818166E+03  0.49589076779E+03  0.10566000000E+00 0.  1.
         13    1    4    4    0    0  0.45566295551E+03  0.13844167941E+03 -0.83732219699E+03  0.96327737457E+03  0.10566000000E+00 0. -1.
          4    1    3    3  501    0 -0.33102600842E+02 -0.31608041718E+03 -0.50701147545E+03  0.59838386387E+03  0.00000000000E+00 0.  1.
         -4    1    4    4    0  502 -0.21478879985E+03 -0.25311556357E+03  0.66437195745E+02  0.33854928451E+03  0.00000000000E+00 0. -1.
</event>
<event>
 8    1  0.7008488E-006  0.1223965E+04  0.7818608E-02  0.8589376E-01
         21   -1    0    0  503  502  0.00000000000E+00  0.00000000000E+00  0.12274788752E+04  0.12274788752E+04  0.00000000000E+00 0. -1.
         21   -1    0    0  501  503 -0.00000000000E+00 -0.00000000000E+00 -0.12558446676E+04  0.12558446676E+04  0.00000000000E+00 0. -1.
    9000010    2    1    2  501    0  0.22831892458E+03  0.66079539098E+03 -0.23261183094E+03  0.12424337518E+04  0.10003765709E+04 0.  0.
   -9000010    2    1    2    0  502 -0.22831892458E+03 -0.66079539098E+03  0.20424603852E+03  0.12408897910E+04  0.10046446880E+04 0.  0.
        -13    1    3    3    0    0  0.40446622552E+03  0.73928222528E+03  0.10943704301E+03  0.84976915321E+03  0.10566000000E+00 0.  1.
         13    1    4    4    0    0  0.39435436019E+03 -0.25914647637E+03  0.16123634216E+03  0.49866765166E+03  0.10566000000E+00 0. -1.
          4    1    3    3  501    0 -0.17614730093E+03 -0.78486834301E+02 -0.34204887396E+03  0.39266459856E+03  0.00000000000E+00 0.  1.
         -4    1    4    4    0  502 -0.62267328478E+03 -0.40164891461E+03  0.43009696358E+02  0.74222213936E+03  0.00000000000E+00 0. -1.
</event>
<event>
 8    1  0.7008488E-006  0.1140811E+04  0.7818608E-02  0.8653599E-01
         21   -1    0    0  501  502  0.00000000000E+00  0.00000000000E+00  0.14481070501E+04  0.14481070501E+04  0.00000000000E+00 0.  1.
         21   -1    0    0  502  503 -0.00000000000E+00 -0.00000000000E+00 -0.10286447262E+04  0.10286447262E+04  0.00000000000E+00 0.  1.
   -9000010    2    1    2    0  503  0.12273573161E+03 -0.52813325965E+03 -0.23792942162E+03  0.11600837490E+04  0.99759465480E+03 0.  0.
    9000010    2    1    2  501    0 -0.12273573161E+03  0.52813325965E+03  0.65739174559E+03  0.13166680273E+04  0.10037240592E+04 0.  0.
        -13    1    4    4    0    0 -0.46158539850E+03  0.34299103700E+03  0.72424907504E+03  0.92479222825E+03  0.10566000000E+00 0.  1.
         13    1    3    3    0    0 -0.21773625416E+03 -0.40539094653E+03  0.27217377422E+03  0.53463021841E+03  0.10566000000E+00 0. -1.
          4    1    4    4  501    0  0.33884966689E+03  0.18514222265E+03 -0.66857329448E+02  0.39187579902E+03  0.00000000000E+00 0.  1.
         -4    1    3    3    0  503  0.34047198577E+03 -0.12274231311E+03 -0.51010319584E+03  0.62545353059E+03  0.00000000000E+00 0. -1.
</event>
<event>
 8    1  0.7008488E-006  0.1182261E+04  0.7818608E-02  0.8628824E-01
         21   -1    0    0  503  502  0.00000000000E+00  0.00000000000E+00  0.20127149061E+04  0.20127149061E+04  0.00000000000E+00 0.  1.
         21   -1    0    0  501  503 -0.00000000000E+00 -0.00000000000E+00 -0.67940889659E+03  0.67940889659E+03  0.00000000000E+00 0.  1.
    9000010    2    1    2  501    0 -0.47151883702E+03 -0.24719165514E+03  0.85116341768E+03  0.14567841911E+04  0.10556075443E+04 0.  0.
   -9000010    2    1    2    0  502  0.47151883702E+03  0.24719165514E+03  0.48214259187E+03  0.12353396117E+04  0.10050715145E+04 0.  0.
        -13    1    3    3    0    0 -0.72512736492E+02  0.39296600163E+03  0.14974063217E+03  0.42673486321E+03  0.10566000000E+00 0.  1.
         13    1    4    4    0    0  0.51781409925E+02 -0.33269888632E+03 -0.53947710788E+02  0.34099887102E+03  0.10566000000E+00 0. -1.
          4    1    3    3  501    0 -0.39900610053E+03 -0.64015765676E+03  0.70142278551E+03  0.10300493279E+04  0.00000000000E+00 0.  1.
         -4    1    4    4    0  502  0.41973742710E+03  0.57989054146E+03  0.53609030266E+03  0.89434074065E+03  0.00000000000E+00 0. -1.
</event>
<event>
 8    1  0.7008488E-006  0.1022740E+04  0.7818608E-02  0.8758969E-01
         21   -1    0    0  503  502  0.00000000000E+00  0.00000000000E+00  0.21006619496E+04  0.21006619496E+04  0.00000000000E+00 0. -1.
         21   -1    0    0  501  503 -0.00000000000E+00 -0.00000000000E+00 -0.48656193808E+03  0.48656193808E+03  0.00000000000E+00 0. -1.
    9000010    2    1    2  501    0 -0.21389559108E+03  0.10793818278E+03  0.78683897061E+03  0.12717932258E+04  0.97002085976E+03 0.  0.
   -9000010    2    1    2    0  502  0.21389559108E+03 -0.10793818278E+03  0.82726104088E+03  0.13154306618E+04  0.99428115801E+03 0.  0.
        -13    1    3    3    0    0 -0.55903466530E+03  0.21199889332E+03  0.65779202648E+03  0.88890587186E+03  0.10566000000E+00 0.  1.
         13    1    4    4    0    0 -0.96988884381E+02 -0.36429453816E+03  0.83094824790E+03  0.91246498896E+03  0.10566000000E+00 0. -1.
          4    1    3    3  501    0  0.34513907421E+03 -0.10406071054E+03  0.12904694414E+03  0.38288735395E+03  0.00000000000E+00 0.  1.
         -4    1    4    4    0  502  0.31088447546E+03  0.25635635538E+03 -0.36872070195E+01  0.40296567288E+03  0.00000000000E+00 0. -1.
</event>
<event>
 8    1  0.7008488E-006  0.1170657E+04  0.7818608E-02  0.8649190E-01
         21   -1    0    0  501  502  0.00000000000E+00  0.00000000000E+00  0.99486876083E+03  0.99486876083E+03  0.00000000000E+00 0. -1.
         21   -1    0    0  502  503 -0.00000000000E+00 -0.00000000000E+00 -0.12634619520E+04  0.12634619520E+04  0.00000000000E+00 0. -1.
   -9000010    2    1    2    0  503 -0.19456719148E+02 -0.59495207693E+03 -0.11942281099E+03  0.11767330912E+04  0.10080140983E+04 0.  0.
    9000010    2    1    2  501    0  0.19456719148E+02  0.59495207693E+03 -0.14917038016E+03  0.10815976216E+04  0.89064868217E+03 0.  0.
        -13    1    4    4    0    0 -0.24798796470E+03 -0.11758009640E+03  0.81573456333E+02  0.28631686931E+03  0.10566000000E+00 0.  1.
         13    1    3    3    0    0 -0.31154874805E+03  0.74891533334E+02  0.20160215822E+03  0.37856941971E+03  0.10566000000E+00 0. -1.
          4    1    4    4  501    0  0.26744468385E+03  0.71253217333E+03 -0.23074383649E+03  0.79528075233E+03  0.00000000000E+00 0.  1.
         -4    1    3    3    0  503  0.29209202891E+03 -0.66984361027E+03 -0.32102496921E+03  0.79816367145E+03  0.00000000000E+00 0. -1.
</event>
<event>
 8    1  0.7008488E-006  0.1216021E+04  0.7818608E-02  0.8607393E-01
         21   -1    0    0  501  502  0.00000000000E+00  0.00000000000E+00  0.92267968689E+03  0.92267968689E+03  0.00000000000E+00 0.  1.
         21   -1    0    0  502  503 -0.00000000000E+00 -0.00000000000E+00 -0.15162872927E+04  0.15162872927E+04  0.00000000000E+00 0.  1.
   -9000010    2    1    2    0  503 -0.40758450687E+03  0.59701853061E+03 -0.31687947656E+03  0.11918563268E+04  0.89305802998E+03 0.  0.
    9000010    2    1    2  501    0  0.40758450687E+03 -0.59701853061E+03 -0.27672812929E+03  0.12471106529E+04  0.97782936486E+03 0.  0.
        -13    1    4    4    0    0  0.51074274094E+02  0.22822227334E+03  0.12190634994E+03  0.26373311670E+03  0.10566000000E+00 0.  1.
         13    1    3    3    0    0 -0.49250384984E+01 -0.79184604585E+02  0.22351469032E+03  0.23717775098E+03  0.10566000000E+00 0. -1.
          4    1    4    4  501    0  0.35651023278E+03 -0.82524080395E+03 -0.39863447923E+03  0.98337753615E+03  0.00000000000E+00 0.  1.
         -4    1    3    3    0  503 -0.40265946838E+03  0.67620313519E+03 -0.54039416688E+03  0.95467857581E+03  0.00000000000E+00 0. -1.
</event>
<event>
 8    1  0.7008488E-006  0.1087810E+04  0.7818608E-02  0.8708065E-01
         21   -1    0    0  503  502  0.00000000000E+00  0.00000000000E+00  0.20208227263E+04  0.20208227263E+04  0.00000000000E+00 0.  1.
         21   -1    0    0  501  503 -0.00000000000E+00 -0.00000000000E+00 -0.64153885877E+03  0.64153885877E+03  0.00000000000E+00 0.  1.
    9000010    2    1    2  501    0 -0.34441219718E+03 -0.24202184102E+03  0.11584419876E+04  0.15523611845E+04  0.94373888088E+03 0.  0.
   -9000010    2    1    2    0  502  0.34441219718E+03  0.24202184102E+03  0.22084187995E+03  0.11100004006E+04  0.10030630191E+04 0.  0.
        -13    1    3    3    0    0 -0.23055797840E+03  0.32714322114E+03  0.24240678409E+03  0.46791102646E+03  0.10566000000E+00 0.  1.
         13    1    4    4    0    0  0.29324884520E+03  0.10048615996E+03  0.61466081640E+03  0.68840415740E+03  0.10566000000E+00 0. -1.
          4    1    3    3  501    0 -0.11385421877E+03 -0.56916506216E+03  0.91603520353E+03  0.10844501580E+04  0.00000000000E+00 0.  1.
         -4    1    4    4    0  502  0.51163351979E+02  0.14153568106E+03 -0.39381893645E+03  0.42159624323E+03  0.00000000000E+00 0. -1.
</event>
<event>
 8    1  0.7008488E-006  0.1065925E+04  0.7818608E-02  0.8722073E-01
         21   -1    0    0  501  502  0.00000000000E+00  0.00000000000E+00  0.20511424640E+04  0.20511424640E+04  0.00000000000E+00 0.  1.
         21   -1    0    0  502  503 -0.00000000000E+00 -0.00000000000E+00 -0.56711694042E+03  0.56711694042E+03  0.00000000000E+00 0.  1.
   -9000010    2    1    2    0  503 -0.38185105495E+03 -0.73901550135E+02  0.45320990732E+03  0.11582723700E+04  0.99243337097E+03 0.  0.
    9000010    2    1    2  501    0  0.38185105495E+03  0.73901550135E+02  0.10308156162E+04  0.14599870344E+04  0.95797162721E+03 0.  0.
        -13    1    4    4    0    0  0.40516033346E+03 -0.15859413740E+03  0.34300495359E+02  0.43644419045E+03  0.10566000000E+00 0.  1.
         13    1    3    3    0    0  0.56786296384E+02  0.24055133085E+03 -0.19497626253E+03  0.31481007027E+03  0.10566000000E+00 0. -1.
          4    1    4    4  501    0 -0.23309278517E+02  0.23249568754E+03  0.99651512087E+03  0.10235428439E+04  0.00000000000E+00 0.  1.
         -4    1    3    3    0  503 -0.43863735133E+03 -0.31445288098E+03  0.64818616985E+03  0.84346229977E+03  0.00000000000E+00 0. -1.
</event>
<event>
 8    1  0.7008488E-006  0.1171412E+04  0.7818608E-02  0.8637402E-01
         21   -1    0    0  503  502  0.00000000000E+00  0.00000000000E+00  0.18605151766E+04  0.18605151766E+04  0.00000000000E+00 0. -1.
         21   -1    0    0  501  503 -0.00000000000E+00 -0.00000000000E+00 -0.10314759302E+04  0.10314759302E+04  0.00000000000E+00 0. -1.
    9000010    2    1    2  501    0 -0.58302985183E+03 -0.11914603864E+03 -0.39927018466E+03  0.11946547161E+04  0.95585753310E+03 0.  0.
   -9000010    2    1    2    0  502  0.58302985183E+03  0.11914603864E+03  0.12283094311E+04  0.16973363907E+04  0.10090030614E+04 0.  0.
        -13    1    3    3    0    0 -0.30114579871E+03  0.41925717998E+03 -0.21912777232E+03  0.56078727412E+03  0.10566000000E+00 0.  1.
         13    1    4    4    0    0  0.73509234722E+03 -0.35535182508E+02  0.39297189619E+03  0.83429636850E+03  0.10566000000E+00 0. -1.
          4    1    3    3  501    0 -0.28188405312E+03 -0.53840321862E+03 -0.18014241234E+03  0.63386744194E+03  0.00000000000E+00 0.  1.
         -4    1    4    4    0  502 -0.15206249538E+03  0.15468122115E+03  0.83533753491E+03  0.86304002219E+03  0.00000000000E+00 0. -1.
</event>
<event>
 8    1  0.7008488E-006  0.1112932E+04  0.7818608E-02  0.8675233E-01
         21   -1    0    0  503  502  0.00000000000E+00  0.00000000000E+00  0.95439571641E+03  0.95439571641E+03  0.00000000000E+00 0.  1.
         21   -1    0    0  501  503 -0.00000000000E+00 -0.00000000000E+00 -0.12975107978E+04  0.12975107978E+04  0.00000000000E+00 0.  1.
    9000010    2    1    2  501    0 -0.18316942156E+03 -0.45772357878E+03 -0.16774974457E+03  0.11252432261E+04  0.99748204467E+03 0.  0.
   -9000010    2    1    2    0  502  0.18316942156E+03  0.45772357878E+03 -0.17536533677E+03  0.11266632881E+04  0.99777515095E+03 0.  0.
        -13    1    3    3    0    0  0.41068278987E+03 -0.23660930678E+03 -0.19052629686E+02  0.47434937737E+03  0.10566000000E+00 0.  1.
         13    1    4    4    0    0  0.57739871254E+03  0.35357472246E+03  0.13732777792E+02  0.67719491873E+03  0.10566000000E+00 0. -1.
          4    1    3    3  501    0 -0.59385221142E+03 -0.22111427199E+03 -0.14869711489E+03  0.65089384870E+03  0.00000000000E+00 0.  1.
         -4    1    4    4    0  502 -0.39422929098E+03  0.10414885632E+03 -0.18909811456E+03  0.44946836937E+03  0.00000000000E+00 0. -1.
</event>
<event>
 8    1  0.7008488E-006  0.1305438E+04  0.7818608E-02  0.8531602E-01
         21   -1    0    0  501  502  0.00000000000E+00  0.00000000000E+00  0.22437275351E+04  0.22437275351E+04  0.00000000000E+00 0. -1.
         21   -1    0    0  502  503 -0.00000000000E+00 -0.00000000000E+00 -0.76644128044E+03  0.76644128044E+03  0.00000000000E+00 0. -1.
   -9000010    2    1    2    0  503  0.83473417994E+03 -0.10135526665E+03  0.57913022873E+03  0.14256019569E+04  0.99493470958E+03 0.  0.
    9000010    2    1    2  501    0 -0.83473417994E+03  0.10135526665E+03  0.89815602598E+03  0.15845668587E+04  0.99855587801E+03 0.  0.
        -13    1    4    4    0    0 -0.64654862683E+03  0.72755638352E+02 -0.15978099526E+02  0.65082549166E+03  0.10566000000E+00 0.  1.
         13    1    3    3    0    0  0.50041252050E+02 -0.25001838952E+03  0.57273187521E+03  0.62692514230E+03  0.10566000000E+00 0. -1.
          4    1    4    4  501    0 -0.18818555311E+03  0.28599628293E+02  0.91413412551E+03  0.93374136706E+03  0.00000000000E+00 0.  1.
         -4    1    3    3    0  503  0.78469292789E+03  0.14866312287E+03  0.63983535188E+01  0.79867681456E+03  0.00000000000E+00 0. -1.
</event>
<event>
 8    1  0.7008488E-006  0.1094654E+04  0.7818608E-02  0.8691334E-01
         21   -1    0    0  501  502  0.00000000000E+00  0.00000000000E+00  0.10678212458E+04  0.10678212458E+04  0.00000000000E+00 0.  1.
         21   -1    0    0  502  503 -0.00000000000E+00 -0.00000000000E+00 -0.11249522881E+04  0.11249522881E+04  0.00000000000E+00 0.  1.
   -9000010    2    1    2    0  503  0.25914215481E+03 -0.33575537748E+03 -0.11654516908E+03  0.10965086707E+04  0.10044213053E+04 0.  0.
    9000010    2    1    2  501    0 -0.25914215481E+03  0.33575537748E+03  0.59414126783E+02  0.10962648632E+04  0.10091482953E+04 0.  0.
        -13    1    4    4    0    0 -0.52569455584E+01 -0.29780441661E+03 -0.20791786348E+03  0.36324228160E+03  0.10566000000E+00 0.  1.
         13    1    3    3    0    0  0.61140556946E+03 -0.20314883070E+03 -0.25855153175E+03  0.69421547341E+03  0.10566000000E+00 0. -1.
          4    1    4    4  501    0 -0.25388520925E+03  0.63355979409E+03  0.26733199026E+03  0.73302258163E+03  0.00000000000E+00 0.  1.
         -4    1    3    3    0  503 -0.35226341466E+03 -0.13260654678E+03  0.14200636266E+03  0.40229319730E+03  0.00000000000E+00 0. -1.
</event>
<event>
 8    1  0.7008488E-006  0.1069809E+04  0.7818608E-02  0.8714697E-01
         21   -1    0    0  503  502  0.00000000000E+00  0.00000000000E+00  0.17439843155E+04  0.17439843155E+04  0.00000000000E+00 0.  1.
         21   -1    0    0  501  503 -0.00000000000E+00 -0.00000000000E+00 -0.65936385320E+03  0.65936385320E+03  0.00000000000E+00 0.  1.
    9000010    2    1    2  501    0 -0.23634911526E+03  0.31435321447E+03  0.38564896265E+03  0.11371964504E+04  0.99489285683E+03 0.  0.
   -9000010    2    1    2    0  502  0.23634911526E+03 -0.31435321447E+03  0.69897149970E+03  0.12661517184E+04  0.97974495092E+03 0.  0.
        -13    1    3    3    0    0  0.41492538467E+02  0.55882858562E+03  0.49878986588E+03  0.75020154647E+03  0.10566000000E+00 0.  1.
         13    1    4    4    0    0  0.52155646696E+03 -0.48996709063E+03  0.53338294782E+03  0.89251682243E+03  0.10566000000E+00 0. -1.
          4    1    3    3  501    0 -0.27784165373E+03 -0.24447537115E+03 -0.11314090324E+03  0.38699490388E+03  0.00000000000E+00 0.  1.
         -4    1    4    4    0  502 -0.28520735170E+03  0.17561387617E+03  0.16558855187E+03  0.37363489596E+03  0.00000000000E+00 0. -1.
</event>
<event>
 8    1  0.7008488E-006  0.1146797E+04  0.7818608E-02  0.8648886E-01
         21   -1    0    0  503  502  0.00000000000E+00  0.00000000000E+00  0.13818463776E+04  0.13818463776E+04  0.00000000000E+00 0. -1.
         21   -1    0    0  501  503 -0.00000000000E+00 -0.00000000000E+00 -0.12421148928E+04  0.12421148928E+04  0.00000000000E+00 0. -1.
    9000010    2    1    2  501    0 -0.39410180127E+03  0.37933230443E+03 -0.56980748349E+03  0.12754106854E+04  0.10013903441E+04 0.  0.
   -9000010    2    1    2    0  502  0.39410180127E+03 -0.37933230443E+03  0.70953896834E+03  0.13485505850E+04  0.10079354670E+04 0.  0.
        -13    1    3    3    0    0  0.33827981554E+03  0.83036430352E+02 -0.21514251625E+03  0.40940761574E+03  0.10566000000E+00 0.  1.
         13    1    4    4    0    0 -0.34017725577E+03 -0.13701935300E+03  0.29849523289E+03  0.47285757228E+03  0.10566000000E+00 0. -1.
          4    1    3    3  501    0 -0.73238161681E+03  0.29629587407E+03 -0.35466496724E+03  0.86600306964E+03  0.00000000000E+00 0.  1.
         -4    1    4    4    0  502  0.73427905704E+03 -0.24231295142E+03  0.41104373545E+03  0.87569301270E+03  0.00000000000E+00 0. -1.
</event>
<event>
 8    1  0.7008488E-006  0.1061478E+04  0.7818608E-02  0.8726095E-01
         21   -1    0    0  503  502  0.00000000000E+00  0.00000000000E+00  0.63654517324E+03  0.63654517324E+03  0.00000000000E+00 0.  1.
         21   -1    0    0  501  503 -0.00000000000E+00 -0.00000000000E+00 -0.17198730703E+04  0.17198730703E+04  0.00000000000E+00 0.  1.
    9000010    2    1    2  501    0  0.24085350808E+03 -0.32964380840E+02 -0.49656154187E+03  0.11718822371E+04  0.10332654790E+04 0.  0.
   -9000010    2    1    2    0  502 -0.24085350808E+03  0.32964380840E+02 -0.58676635522E+03  0.11845360065E+04  0.99986685725E+03 0.  0.
        -13    1    3    3    0    0  0.15626915481E+03 -0.53239255733E+03 -0.26695624384E+03  0.61573332794E+03  0.10566000000E+00 0.  1.
         13    1    4    4    0    0 -0.62254784615E+02  0.16538846703E+03 -0.83371906241E+03  0.85224203688E+03  0.10566000000E+00 0. -1.
          4    1    3    3  501    0  0.84584353270E+02  0.49942817649E+03 -0.22960529803E+03  0.55614890917E+03  0.00000000000E+00 0.  1.
         -4    1    4    4    0  502 -0.17859872347E+03 -0.13242408619E+03  0.24695270719E+03  0.33229396958E+03  0.00000000000E+00 0. -1.
</event>
<event>
 8    1  0.7008488E-006  0.1140460E+04  0.7818608E-02  0.8653248E-01
         21   -1    0    0  503  502  0.00000000000E+00  0.00000000000E+00  0.13986985509E+04  0.13986985509E+04  0.00000000000E+00 0. -1.
         21   -1    0    0  501  503 -0.00000000000E+00 -0.00000000000E+00 -0.94507553029E+03  0.94507553029E+03  0.00000000000E+00 0. -1.
    9000010    2    1    2  501    0 -0.47466252479E+03 -0.29549217194E+03  0.69413457565E+02  0.11403347425E+04  0.99142572126E+03 0.  0.
   -9000010    2    1    2    0  502  0.47466252479E+03  0.29549217194E+03  0.38420956305E+03  0.12034393387E+04  0.99399653793E+03 0.  0.
        -13    1    3    3    0    0 -0.57965703091E+03 -0.22234806444E+03  0.43165754442E+03  0.75615420522E+03  0.10566000000E+00 0.  1.
         13    1    4    4    0    0  0.41169670487E+02  0.59818086419E+03  0.11648095682E+03  0.61080529837E+03  0.10566000000E+00 0. -1.
          4    1    3    3  501    0  0.10499450612E+03 -0.73144107497E+02 -0.36224408685E+03  0.38418053730E+03  0.00000000000E+00 0.  1.
         -4    1    4    4    0  502  0.43349285430E+03 -0.30268869225E+03  0.26772860623E+03  0.59263404031E+03  0.00000000000E+00 0. -1.
</event>
<event>
 8    1  0.7008488E-006  0.1504196E+04  0.7818608E-02  0.8409775E-01
         21   -1    0    0  501  502  0.00000000000E+00  0.00000000000E+00  0.19395456377E+04  0.19395456377E+04  0.00000000000E+00 0.  1.
         21   -1    0    0  502  503 -0.00000000000E+00 -0.00000000000E+00 -0.13484557774E+04  0.13484557774E+04  0.00000000000E+00 0. -1.
   -9000010    2    1    2    0  503  0.49528922230E+03 -0.98707965142E+03 -0.33009899476E+03  0.15399908688E+04  0.10212584774E+04 0.  0.
    9000010    2    1    2  501    0 -0.49528922230E+03  0.98707965142E+03  0.92118885504E+03  0.17480105463E+04  0.99363691118E+03 0.  0.
        -13    1    4    4    0    0 -0.59279138120E+03  0.51614908082E+03  0.98795024506E+03  0.12624805714E+04  0.10566000000E+00 0.  1.
         13    1    3    3    0    0  0.15261828162E+03  0.20869662785E+03 -0.29061668159E+02  0.26017535257E+03  0.10566000000E+00 0. -1.
          4    1    4    4  501    0  0.97502158898E+02  0.47093057061E+03 -0.66761390015E+02  0.48552997489E+03  0.00000000000E+00 0.  1.
         -4    1    3    3    0  503  0.34267094068E+03 -0.11957762793E+04 -0.30103732660E+03  0.12798155163E+04  0.00000000000E+00 0. -1.
</event>
<event>
 8    1  0.7008488E-006  0.1092320E+04  0.7818608E-02  0.8692671E-01
         21   -1    0    0  501  502  0.00000000000E+00  0.00000000000E+00  0.14653497254E+04  0.14653497254E+04  0.00000000000E+00 0. -1.
         21   -1    0    0  502  503 -0.00000000000E+00 -0.00000000000E+00 -0.82215945217E+03  0.82215945217E+03  0.00000000000E+00 0. -1.
   -9000010    2    1    2    0  503 -0.33691216660E+03  0.27918798610E+03  0.44096988825E+03  0.11779720924E+04  0.10008536699E+04 0.  0.
    9000010    2    1    2  501    0  0.33691216660E+03 -0.27918798610E+03  0.20222038498E+03  0.11095370851E+04  0.99936165606E+03 0.  0.
        -13    1    4    4    0    0  0.19456520429E+03 -0.28263360146E+03  0.59770863658E+03  0.68919735693E+03  0.10566000000E+00 0.  1.
         13    1    3    3    0    0 -0.56812779279E+03  0.21723851636E+03 -0.71422911412E+02  0.61242387720E+03  0.10566000000E+00 0. -1.
          4    1    4    4  501    0  0.14234696231E+03  0.34456153623E+01 -0.39548825160E+03  0.42033972820E+03  0.00000000000E+00 0.  1.
         -4    1    3    3    0  503  0.23121562619E+03  0.61949469740E+02  0.51239279966E+03  0.56554821522E+03  0.00000000000E+00 0. -1.
</event>
<event>
 8    1  0.7008488E-006  0.1157694E+04  0.7818608E-02  0.8639640E-01
         21   -1    0    0  501  502  0.00000000000E+00  0.00000000000E+00  0.84511589650E+03  0.84511589650E+03  0.00000000000E+00 0. -1.
         21   -1    0    0  502  503 -0.00000000000E+00 -0.00000000000E+00 -0.16087755922E+04  0.16087755922E+04  0.00000000000E+00 0. -1.
   -9000010    2    1    2    0  503 -0.56351990999E+03  0.90200185462E+02 -0.53976297171E+03  0.12773403574E+04  0.10072554595E+04 0.  0.
    9000010    2    1    2  501    0  0.56351990999E+03 -0.90200185462E+02 -0.22389672395E+03  0.11765511313E+04  0.10042171374E+04 0.  0.
        -13    1    4    4    0    0 -0.50070399745E+02  0.21582438160E+03 -0.41003499512E+03  0.46606428420E+03  0.10566000000E+00 0.  1.
         13    1    3    3    0    0 -0.31140745553E+02 -0.23499051060E+03  0.19964779833E+03  0.30991860326E+03  0.10566000000E+00 0. -1.
          4    1    4    4  501    0  0.61359030974E+03 -0.30602456706E+03  0.18613827117E+03  0.71048684706E+03  0.00000000000E+00 0.  1.
         -4    1    3    3    0  503 -0.53237916444E+03  0.32519069607E+03 -0.73941077003E+03  0.96742175414E+03  0.00000000000E+00 0. -1.
</event>
<event>
 8    1  0.7008488E-006  0.1092966E+04  0.7818608E-02  0.8695112E-01
         21   -1    0    0  501  502  0.00000000000E+00  0.00000000000E+00  0.12873856283E+04  0.12873856283E+04  0.00000000000E+00 0.  1.
         21   -1    0    0  502  503 -0.00000000000E+00 -0.00000000000E+00 -0.91546263074E+03  0.91546263074E+03  0.00000000000E+00 0.  1.
   -9000010    2    1    2    0  503 -0.17611772991E+03 -0.40365356986E+03  0.21267678711E+03  0.10983415983E+04  0.98344760491E+03 0.  0.
    9000010    2    1    2  501    0  0.17611772991E+03  0.40365356986E+03  0.15924621048E+03  0.11045066607E+04  0.10003109261E+04 0.  0.
        -13    1    4    4    0    0  0.61155103743E+02  0.38499448562E+03 -0.38502742538E+03  0.54791133419E+03  0.10566000000E+00 0.  1.
         13    1    3    3    0    0  0.18302464271E+03 -0.62680508073E+03  0.15958370922E+03  0.67219759036E+03  0.10566000000E+00 0. -1.
          4    1    4    4  501    0  0.11496262617E+03  0.18659084239E+02  0.54427363586E+03  0.55659532654E+03  0.00000000000E+00 0.  1.
         -4    1    3    3    0  503 -0.35914237262E+03  0.22315151087E+03  0.53093077890E+02  0.42614400797E+03  0.00000000000E+00 0. -1.
</event>
<event>
 8    1  0.7008488E-006  0.1234531E+04  0.7818608E-02  0.8597580E-01
         21   -1    0    0  503  502  0.00000000000E+00  0.00000000000E+00  0.11452177457E+04  0.11452177457E+04  0.00000000000E+00 0.  1.
         21   -1    0    0  501  503 -0.00000000000E+00 -0.00000000000E+00 -0.13510018527E+04  0.13510018527E+04  0.00000000000E+00 0.  1.
    9000010    2    1    2  501    0 -0.15961861578E+03 -0.65960499715E+03 -0.46022092330E+03  0.12357414446E+04  0.92449811509E+03 0.  0.
   -9000010    2    1    2    0  502  0.15961861578E+03  0.65960499715E+03  0.25443681629E+03  0.12604781538E+04  0.10312663226E+04 0.  0.
        -13    1    3    3    0    0 -0.37282034358E+03  0.58651880796E+02 -0.26605948027E+03  0.46176044646E+03  0.10566000000E+00 0.  1.
         13    1    4    4    0    0  0.19530843756E+03 -0.25301344206E+03  0.38095321802E+02  0.32188888200E+03  0.10566000000E+00 0. -1.
          4    1    3    3  501    0  0.21320172781E+03 -0.71825687795E+03 -0.19416144303E+03  0.77398099810E+03  0.00000000000E+00 0.  1.
         -4    1    4    4    0  502 -0.35689821784E+02  0.91261843922E+03  0.21634149448E+03  0.93858927184E+03  0.00000000000E+00 0. -1.
</event>
<event>
 8    1  0.7008488E-006  0.1026665E+04  0.7818608E-02  0.8754891E-01
         21   -1    0    0  501  502  0.00000000000E+00  0.00000000000E+00  0.10515463889E+04  0.10515463889E+04  0.00000000000E+00 0. -1.
         21   -1    0    0  502  503 -0.00000000000E+00 -0.00000000000E+00 -0.10788155386E+04  0.10788155386E+04  0.00000000000E+00 0. -1.
   -9000010    2    1    2    0  503 -0.83891336484E+02 -0.20628654326E+03  0.30648568398E+03  0.10508091881E+04  0.98014008239E+03 0.  0.
    9000010    2    1    2  501    0  0.83891336484E+02  0.20628654326E+03 -0.33375483366E+03  0.10795527393E+04  0.10022224971E+04 0.  0.
        -13    1    4    4    0    0  0.80373649812E+02 -0.32307005015E+03 -0.42761215462E+03  0.54192835950E+03  0.10566000000E+00 0.  1.
         13    1    3    3    0    0  0.13224625354E+03 -0.55392130410E+03  0.29486188813E+03  0.64129667623E+03  0.10566000000E+00 0. -1.
          4    1    4    4  501    0  0.35176866725E+01  0.52935659341E+03  0.93857320968E+02  0.53762437984E+03  0.00000000000E+00 0.  1.
         -4    1    3    3    0  503 -0.21613759003E+03  0.34763476084E+03  0.11623795855E+02  0.40951251190E+03  0.00000000000E+00 0. -1.
</event>
<event>
 8    1  0.7008488E-006  0.1142982E+04  0.7818608E-02  0.8651794E-01
         21   -1    0    0  503  502  0.00000000000E+00  0.00000000000E+00  0.58178056989E+03  0.58178056989E+03  0.00000000000E+00 0. -1.
         21   -1    0    0  501  503 -0.00000000000E+00 -0.00000000000E+00 -0.22364227919E+04  0.22364227919E+04  0.00000000000E+00 0. -1.
    9000010    2    1    2  501    0 -0.21505843522E+03  0.48425736906E+03 -0.79852364066E+03  0.13901461910E+04  0.10070308325E+04 0.  0.
   -9000010    2    1    2    0  502  0.21505843522E+03 -0.48425736906E+03 -0.85611858131E+03  0.14280571708E+04  0.10127452432E+04 0.  0.
        -13    1    3    3    0    0 -0.32841655212E+03  0.69999266696E+03 -0.84138057971E+03  0.11427022607E+04  0.10566000000E+00 0.  1.
         13    1    4    4    0    0 -0.28869670769E+03 -0.54645317961E+03 -0.34534556838E+03  0.70796923613E+03  0.10566000000E+00 0. -1.
          4    1    3    3  501    0  0.11335811689E+03 -0.21573529790E+03  0.42856939046E+02  0.24744393031E+03  0.00000000000E+00 0.  1.
         -4    1    4    4    0  502  0.50375514291E+03  0.62195810550E+02 -0.51077301293E+03  0.72008793463E+03  0.00000000000E+00 0. -1.
</event>
<event>
 8    1  0.7008488E-006  0.1366455E+04  0.7818608E-02  0.8496528E-01
         21   -1    0    0  503  502  0.00000000000E+00  0.00000000000E+00  0.12017755645E+04  0.12017755645E+04  0.00000000000E+00 0.  1.
         21   -1    0    0  501  503 -0.00000000000E+00 -0.00000000000E+00 -0.16961690813E+04  0.16961690813E+04  0.00000000000E+00 0. -1.
    9000010    2    1    2  501    0  0.59812697801E+03 -0.68302335521E+03 -0.72520483942E+03  0.15469719685E+04  0.10212362247E+04 0.  0.
   -9000010    2    1    2    0  502 -0.59812697801E+03  0.68302335521E+03  0.23081132259E+03  0.13509726773E+04  0.97343542293E+03 0.  0.
        -13    1    3    3    0    0  0.51091545484E+03 -0.38956870996E+02  0.73055590900E+02  0.51758030326E+03  0.10566000000E+00 0.  1.
         13    1    4    4    0    0 -0.84359041910E+03  0.53075152007E+03  0.32310174850E+03  0.10477293173E+04  0.10566000000E+00 0. -1.
          4    1    3    3  501    0  0.87211523170E+02 -0.64406648421E+03 -0.79826043032E+03  0.10293916652E+04  0.00000000000E+00 0.  1.
         -4    1    4    4    0  502  0.24546344109E+03  0.15227183514E+03 -0.92290425911E+02  0.30324336003E+03  0.00000000000E+00 0. -1.
</event>
<event>
 8    1  0.7008488E-006  0.1112514E+04  0.7818608E-02  0.8688964E-01
         21   -1    0    0  503  502  0.00000000000E+00  0.00000000000E+00  0.18992479417E+04  0.18992479417E+04  0.00000000000E+00 0.  1.
         21   -1    0    0  501  503 -0.00000000000E+00 -0.00000000000E+00 -0.61535826778E+03  0.61535826778E+03  0.00000000000E+00 0.  1.
    9000010    2    1    2  501    0  0.32751318229E+03 -0.20038130179E+03  0.68039909128E+03  0.13040818161E+04  0.10441594270E+04 0.  0.
   -9000010    2    1    2    0  502 -0.32751318229E+03  0.20038130179E+03  0.60349058262E+03  0.12105243933E+04  0.97660169611E+03 0.  0.
        -13    1    3    3    0    0  0.70161492770E+03 -0.60872929154E+02  0.51228618558E+03  0.87086518324E+03  0.10566000000E+00 0.  1.
         13    1    4    4    0    0 -0.25669831843E+03  0.56084615422E+03  0.16499737977E+03  0.63848773041E+03  0.10566000000E+00 0. -1.
          4    1    3    3  501    0 -0.37410174542E+03 -0.13950837263E+03  0.16811290571E+03  0.43321663290E+03  0.00000000000E+00 0.  1.
         -4    1    4    4    0  502 -0.70814863855E+02 -0.36046485243E+03  0.43849320285E+03  0.57203666292E+03  0.00000000000E+00 0. -1.
</event>
<event>
 8    1  0.7008488E-006  0.1071525E+04  0.7818608E-02  0.8714239E-01
         21   -1    0    0  503  502  0.00000000000E+00  0.00000000000E+00  0.96417896046E+03  0.96417896046E+03  0.00000000000E+00 0. -1.
         21   -1    0    0  501  503 -0.00000000000E+00 -0.00000000000E+00 -0.12104698486E+04  0.12104698486E+04  0.00000000000E+00 0. -1.
    9000010    2    1    2  501    0  0.16903738279E+03 -0.29345420441E+03 -0.32288376417E+03  0.11191159484E+04  0.10166009906E+04 0.  0.
   -9000010    2    1    2    0  502 -0.16903738279E+03  0.29345420441E+03  0.76592876026E+02  0.10555328606E+04  0.99679192629E+03 0.  0.
        -13    1    3    3    0    0  0.41360284750E+03  0.13677951733E+03 -0.43072262921E+03  0.61261565953E+03  0.10566000000E+00 0.  1.
         13    1    4    4    0    0  0.14114734892E+03 -0.20787810637E+03 -0.27228311488E+03  0.37050504319E+03  0.10566000000E+00 0. -1.
          4    1    3    3  501    0 -0.24456546471E+03 -0.43023372174E+03  0.10783886504E+03  0.50650028891E+03  0.00000000000E+00 0.  1.
         -4    1    4    4    0  502 -0.31018473171E+03  0.50133231077E+03  0.34887599091E+03  0.68502781743E+03  0.00000000000E+00 0. -1.
</event>
<event>
 8    1  0.7008488E-006  0.1162143E+04  0.7818608E-02  0.8636544E-01
         21   -1    0    0  503  502  0.00000000000E+00  0.00000000000E+00  0.10233547409E+04  0.10233547409E+04  0.00000000000E+00 0.  1.
         21   -1    0    0  501  503 -0.00000000000E+00 -0.00000000000E+00 -0.13437898010E+04  0.13437898010E+04  0.00000000000E+00 0.  1.
    9000010    2    1    2  501    0  0.40749908007E+03  0.39623005680E+03  0.14961786616E+02  0.11575712888E+04  0.10083122906E+04 0.  0.
   -9000010    2    1    2    0  502 -0.40749908007E+03 -0.39623005680E+03 -0.33539684668E+03  0.12095732531E+04  0.10136679199E+04 0.  0.
        -13    1    3    3    0    0  0.65180785492E+03  0.18417744754E+03  0.28629041167E+03  0.73534823240E+03  0.10566000000E+00 0.  1.
         13    1    4    4    0    0 -0.40916379204E+03 -0.60079386146E+03 -0.55118023013E+03  0.91223238812E+03  0.10566000000E+00 0. -1.
          4    1    3    3  501    0 -0.24430877485E+03  0.21205260926E+03 -0.27132862505E+03  0.42222305638E+03  0.00000000000E+00 0.  1.
         -4    1    4    4    0  502  0.16647119776E+01  0.20456380466E+03  0.21578338345E+03  0.29734086503E+03  0.00000000000E+00 0. -1.
</event>
<event>
 8    1  0.7008488E-006  0.1032488E+04  0.7818608E-02  0.8751861E-01
         21   -1    0    0  501  502  0.00000000000E+00  0.00000000000E+00  0.10850587213E+04  0.10850587213E+04  0.00000000000E+00 0. -1.
         21   -1    0    0  502  503 -0.00000000000E+00 -0.00000000000E+00 -0.95848749968E+03  0.95848749968E+03  0.00000000000E+00 0. -1.
   -9000010    2    1    2    0  503 -0.43000122470E+02 -0.28979255520E+03 -0.16207351335E+02  0.10012331351E+04  0.95727549693E+03 0.  0.
    9000010    2    1    2  501    0  0.43000122470E+02  0.28979255520E+03  0.14277857292E+03  0.10423130858E+04  0.99005157058E+03 0.  0.
        -13    1    4    4    0    0 -0.29401077518E+03 -0.17921293681E+03  0.28563254262E+03  0.44737632169E+03  0.10566000000E+00 0.  1.
         13    1    3    3    0    0  0.30827795400E+03 -0.34635973194E+03 -0.29469254197E+03  0.54940337303E+03  0.10566000000E+00 0. -1.
          4    1    4    4  501    0  0.33701089765E+03  0.46900549200E+03 -0.14285396970E+03  0.59493676414E+03  0.00000000000E+00 0.  1.
         -4    1    3    3    0  503 -0.35127807648E+03  0.56567176744E+02  0.27848519064E+03  0.45182976208E+03  0.00000000000E+00 0. -1.
</event>
<event>
 8    1  0.7008488E-006  0.1192558E+04  0.7818608E-02  0.8614713E-01
         21   -1    0    0  501  502  0.00000000000E+00  0.00000000000E+00  0.54265064947E+03  0.54265064947E+03  0.00000000000E+00 0. -1.
         21   -1    0    0  502  503 -0.00000000000E+00 -0.00000000000E+00 -0.26439141072E+04  0.26439141072E+04  0.00000000000E+00 0. -1.
   -9000010    2    1    2    0  503 -0.22931108379E+03  0.59393948233E+03 -0.83274891990E+03  0.14545323468E+04  0.10083877738E+04 0.  0.
    9000010    2    1    2  501    0  0.22931108379E+03 -0.59393948233E+03 -0.12685145378E+04  0.17320324099E+04  0.99270310492E+03 0.  0.
        -13    1    4    4    0    0  0.60988279458E+03 -0.49643002956E+03 -0.83662523639E+03  0.11481905742E+04  0.10566000000E+00 0.  1.
         13    1    3    3    0    0  0.27323693774E+03  0.10130605211E+03  0.79807100850E+02  0.30214321910E+03  0.10566000000E+00 0. -1.
          4    1    4    4  501    0 -0.38057171079E+03 -0.97509452763E+02 -0.43188930143E+03  0.58384183571E+03  0.00000000000E+00 0.  1.
         -4    1    3    3    0  503 -0.50254802153E+03  0.49263343021E+03 -0.91255602075E+03  0.11523891276E+04  0.00000000000E+00 0. -1.
</event>
<event>
 8    1  0.7008488E-006  0.1186458E+04  0.7818608E-02  0.8620800E-01
         21   -1    0    0  503  502  0.00000000000E+00  0.00000000000E+00  0.78442246881E+03  0.78442246881E+03  0.00000000000E+00 0.  1.
         21   -1    0    0  501  503 -0.00000000000E+00 -0.00000000000E+00 -0.17649787576E+04  0.17649787576E+04  0.00000000000E+00 0.  1.
    9000010    2    1    2  501    0  0.14733629861E+03  0.64738193162E+03 -0.53134540529E+03  0.13000041977E+04  0.98329630530E+03 0.  0.
   -9000010    2    1    2    0  502 -0.14733629861E+03 -0.64738193162E+03 -0.44921088353E+03  0.12493970287E+04  0.95832727565E+03 0.  0.
        -13    1    3    3    0    0  0.23238698473E+03  0.89008505787E+03 -0.34530587666E+03  0.98259415861E+03  0.10566000000E+00 0.  1.
         13    1    4    4    0    0 -0.55313446204E+03 -0.36312202875E+03 -0.33185951669E+03  0.74023380823E+03  0.10566000000E+00 0. -1.
          4    1    3    3  501    0 -0.85050686114E+02 -0.24270312625E+03 -0.18603952863E+03  0.31741003908E+03  0.00000000000E+00 0.  1.
         -4    1    4    4    0  502  0.40579816343E+03 -0.28425990287E+03 -0.11735136684E+03  0.50916322051E+03  0.00000000000E+00 0. -1.
</event>
<event>
 8    1  0.7008488E-006  0.1073819E+04  0.7818608E-02  0.8710643E-01
         21   -1    0    0  501  502  0.00000000000E+00  0.00000000000E+00  0.11864393258E+04  0.11864393258E+04  0.00000000000E+00 0.  1.
         21   -1    0    0  502  503 -0.00000000000E+00 -0.00000000000E+00 -0.99490454834E+03  0.99490454834E+03  0.00000000000E+00 0.  1.
   -9000010    2    1    2    0  503  0.30744625803E+03  0.20410185968E+03  0.29591159600E+03  0.11138451668E+04  0.10084178759E+04 0.  0.
    9000010    2    1    2  501    0 -0.30744625803E+03 -0.20410185968E+03 -0.10437681856E+03  0.10674987073E+04  0.99623200063E+03 0.  0.
        -13    1    4    4    0    0  0.27351223608E+03  0.18675846305E+03 -0.15459706951E+03  0.36549682881E+03  0.10566000000E+00 0.  1.
         13    1    3    3    0    0 -0.17116951784E+03 -0.17772030533E+03 -0.20656402858E+03  0.32179530735E+03  0.10566000000E+00 0. -1.
          4    1    4    4  501    0 -0.58095849411E+03 -0.39086032273E+03  0.50220250946E+02  0.70200187846E+03  0.00000000000E+00 0.  1.
         -4    1    3    3    0  503  0.47861577587E+03  0.38182216501E+03  0.50247562459E+03  0.79204985949E+03  0.00000000000E+00 0. -1.
</event>
<event>
 8    1  0.7008488E-006  0.1150400E+04  0.7818608E-02  0.8651916E-01
         21   -1    0    0  501  502  0.00000000000E+00  0.00000000000E+00  0.82390793332E+03  0.82390793332E+03  0.00000000000E+00 0.  1.
         21   -1    0    0  502  503 -0.00000000000E+00 -0.00000000000E+00 -0.18864815532E+04  0.18864815532E+04  0.00000000000E+00 0.  1.
   -9000010    2    1    2    0  503  0.46901458018E+03  0.13959743598E+03 -0.11036267849E+04  0.15941810657E+04  0.10411335502E+04 0.  0.
    9000010    2    1    2  501    0 -0.46901458018E+03 -0.13959743598E+03  0.41053164977E+02  0.11162084208E+04  0.10023840361E+04 0.  0.
        -13    1    4    4    0    0  0.18893636964E+03  0.12033953638E+03 -0.26363230216E+03  0.34594877900E+03  0.10566000000E+00 0.  1.
         13    1    3    3    0    0  0.21737150354E+03  0.71335052650E+02  0.17575897692E+03  0.28849660210E+03  0.10566000000E+00 0. -1.
          4    1    4    4  501    0 -0.65795094982E+03 -0.25993697236E+03  0.30468546714E+03  0.77025964184E+03  0.00000000000E+00 0.  1.
         -4    1    3    3    0  503  0.25164307664E+03  0.68262383331E+02 -0.12793857618E+04  0.13056844636E+04  0.00000000000E+00 0. -1.
</event>
<event>
 8    1  0.7008488E-006  0.1159287E+04  0.7818608E-02  0.8643857E-01
         21   -1    0    0  503  502  0.00000000000E+00  0.00000000000E+00  0.46625670865E+03  0.46625670865E+03  0.00000000000E+00 0.  1.
         21   -1    0    0  501  503 -0.00000000000E+00 -0.00000000000E+00 -0.28213468642E+04  0.28213468642E+04  0.00000000000E+00 0.  1.
    9000010    2    1    2  501    0 -0.45557787187E+03 -0.35442741014E+03 -0.10494286731E+04  0.15415516468E+04  0.97052097015E+03 0.  0.
   -9000010    2    1    2    0  502  0.45557787187E+03  0.35442741014E+03 -0.13056614824E+04  0.17460519260E+04  0.10053732816E+04 0.  0.
        -13    1    3    3    0    0  0.17862624735E+03 -0.80653129884E+02 -0.77310502960E+03  0.79756107074E+03  0.10566000000E+00 0.  1.
         13    1    4    4    0    0  0.69902873314E+03  0.30898784304E+03 -0.52544534163E+03  0.92747370588E+03  0.10566000000E+00 0. -1.
          4    1    3    3  501    0 -0.63420411922E+03 -0.27377428025E+03 -0.27632364354E+03  0.74399057611E+03  0.00000000000E+00 0.  1.
         -4    1    4    4    0  502 -0.24345086127E+03  0.45439567098E+02 -0.78021614081E+03  0.81857822014E+03  0.00000000000E+00 0. -1.
</event>
<event>
 8    1  0.7008488E-006  0.1145553E+04  0.7818608E-02  0.8649344E-01
         21   -1    0    0  501  502  0.00000000000E+00  0.00000000000E+00  0.29746904556E+04  0.29746904556E+04  0.00000000000E+00 0.  1.
         21   -1    0    0  502  503 -0.00000000000E+00 -0.00000000000E+00 -0.60504396209E+03  0.60504396209E+03  0.00000000000E+00 0.  1.
   -9000010    2    1    2    0  503 -0.18168132548E+03 -0.50969794162E+03  0.25107157850E+03  0.11727444087E+04  0.10096991705E+04 0.  0.
    9000010    2    1    2  501    0  0.18168132548E+03  0.50969794162E+03  0.21185749150E+04  0.24069900090E+04  0.10062013402E+04 0.  0.
        -13    1    4    4    0    0 -0.12836340626E+03  0.62787494068E+03  0.19110269022E+04  0.20156209805E+04  0.10566000000E+00 0.  1.
         13    1    3    3    0    0 -0.59392897778E+03 -0.35622374947E+03  0.23915094272E+03  0.73269377976E+03  0.10566000000E+00 0. -1.
          4    1    4    4  501    0  0.31004473174E+03 -0.11817699905E+03  0.20754801283E+03  0.39136902843E+03  0.00000000000E+00 0.  1.
         -4    1    3    3    0  503  0.41224765229E+03 -0.15347419215E+03  0.11920635777E+02  0.44005062894E+03  0.00000000000E+00 0. -1.
</event>
<event>
 8    1  0.7008488E-006  0.1075612E+04  0.7818608E-02  0.8707907E-01
         21   -1    0    0  501  502  0.00000000000E+00  0.00000000000E+00  0.11720291119E+04  0.11720291119E+04  0.00000000000E+00 0. -1.
         21   -1    0    0  502  503 -0.00000000000E+00 -0.00000000000E+00 -0.12564337030E+04  0.12564337030E+04  0.00000000000E+00 0. -1.
   -9000010    2    1    2    0  503  0.39852250382E+03 -0.39964960678E+02 -0.60993757593E+03  0.12313301246E+04  0.99183297232E+03 0.  0.
    9000010    2    1    2  501    0 -0.39852250382E+03  0.39964960678E+02  0.52553298483E+03  0.11971326904E+04  0.99826067541E+03 0.  0.
        -13    1    4    4    0    0 -0.51712535704E+03  0.37146026527E+03  0.99484682896E+02  0.64443663526E+03  0.10566000000E+00 0.  1.
         13    1    3    3    0    0  0.42164884378E+02  0.20180256413E+03 -0.75053058731E+03  0.77833047353E+03  0.10566000000E+00 0. -1.
          4    1    4    4  501    0  0.11860285322E+03 -0.33149530459E+03  0.42604830193E+03  0.55269605511E+03  0.00000000000E+00 0.  1.
         -4    1    3    3    0  503  0.35635761944E+03 -0.24176752481E+03  0.14059301138E+03  0.45299965103E+03  0.00000000000E+00 0. -1.
</event>
<event>
 8    1  0.7008488E-006  0.1017476E+04  0.7818608E-02  0.8758911E-01
         21   -1    0    0  501  502  0.00000000000E+00  0.00000000000E+00  0.10869984297E+04  0.10869984297E+04  0.00000000000E+00 0. -1.
         21   -1    0    0  502  503 -0.00000000000E+00 -0.00000000000E+00 -0.10160815408E+04  0.10160815408E+04  0.00000000000E+00 0. -1.
   -9000010    2    1    2    0  503  0.22793410510E+03  0.12233712543E+03 -0.23247679726E+03  0.10436967749E+04  0.98404124312E+03 0.  0.
    9000010    2    1    2  501    0 -0.22793410510E+03 -0.12233712543E+03  0.30339368610E+03  0.10593831956E+04  0.98149105842E+03 0.  0.
        -13    1    4    4    0    0  0.20999306917E+03  0.32063978007E+03  0.48480879321E+02  0.38633840670E+03  0.10566000000E+00 0.  1.
         13    1    3    3    0    0  0.26640996288E+03  0.13730450279E+03 -0.60167887453E+03  0.67219362838E+03  0.10566000000E+00 0. -1.
          4    1    4    4  501    0 -0.43792717427E+03 -0.44297690550E+03  0.25491280678E+03  0.67304478888E+03  0.00000000000E+00 0.  1.
         -4    1    3    3    0  503 -0.38475857779E+02 -0.14967377360E+02  0.36920207727E+03  0.37150314653E+03  0.00000000000E+00 0. -1.
</event>
<event>
 8    1  0.7008488E-006  0.1243631E+04  0.7818608E-02  0.8576687E-01
         21   -1    0    0  503  502  0.00000000000E+00  0.00000000000E+00  0.25079018241E+04  0.25079018241E+04  0.00000000000E+00 0.  1.
         21   -1    0    0  501  503 -0.00000000000E+00 -0.00000000000E+00 -0.61197939925E+03  0.61197939925E+03  0.00000000000E+00 0.  1.
    9000010    2    1    2  501    0 -0.32690495904E+03 -0.62124784923E+03  0.87581493292E+03  0.15210753422E+04  0.10265489065E+04 0.  0.
   -9000010    2    1    2    0  502  0.32690495904E+03  0.62124784923E+03  0.10201074919E+04  0.15988058812E+04  0.10113086612E+04 0.  0.
        -13    1    3    3    0    0  0.61854651642E+02 -0.76702735578E+03  0.33502668160E+03  0.83928532157E+03  0.10566000000E+00 0.  1.
         13    1    4    4    0    0 -0.45174626618E+02 -0.12739316062E+03 -0.12290542244E+03  0.18268967758E+03  0.10566000000E+00 0. -1.
          4    1    3    3  501    0 -0.38875961068E+03  0.14577950655E+03  0.54078825132E+03  0.68179002060E+03  0.00000000000E+00 0.  1.
         -4    1    4    4    0  502  0.37207958566E+03  0.74864100985E+03  0.11430129144E+04  0.14161162036E+04  0.00000000000E+00 0. -1.
</event>
<event>
 8    1  0.7008488E-006  0.1066980E+04  0.7818608E-02  0.8723277E-01
         21   -1    0    0  501  502  0.00000000000E+00  0.00000000000E+00  0.69525671215E+03  0.69525671215E+03  0.00000000000E+00 0.  1.
         21   -1    0    0  502  503 -0.00000000000E+00 -0.00000000000E+00 -0.16803699548E+04  0.16803699548E+04  0.00000000000E+00 0.  1.
   -9000010    2    1    2    0  503  0.11260308030E+03 -0.25156389276E+03 -0.18523454936E+03  0.10421154538E+04  0.98778992446E+03 0.  0.
    9000010    2    1    2  501    0 -0.11260308030E+03  0.25156389276E+03 -0.79987869325E+03  0.13335112131E+04  0.10307678622E+04 0.  0.
        -13    1    4    4    0    0  0.20764204155E+03  0.42065074704E+03 -0.84708442040E+03  0.96830485636E+03  0.10566000000E+00 0.  1.
         13    1    3    3    0    0  0.27516522993E+03 -0.58861544796E+03 -0.14511772136E+03  0.66576513393E+03  0.10566000000E+00 0. -1.
          4    1    4    4  501    0 -0.32024512186E+03 -0.16908685428E+03  0.47205727145E+02  0.36520635679E+03  0.00000000000E+00 0.  1.
         -4    1    3    3    0  503 -0.16256214963E+03  0.33705155520E+03 -0.40116828005E+02  0.37635031983E+03  0.00000000000E+00 0. -1.
</event>
<event>
 8    1  0.7008488E-006  0.1100800E+04  0.7818608E-02  0.8689735E-01
         21   -1    0    0  501  502  0.00000000000E+00  0.00000000000E+00  0.98373992146E+03  0.98373992146E+03  0.00000000000E+00 0. -1.
         21   -1    0    0  502  503 -0.00000000000E+00 -0.00000000000E+00 -0.12462848640E+04  0.12462848640E+04  0.00000000000E+00 0. -1.
   -9000010    2    1    2    0  503 -0.26148684237E+03  0.37314445316E+03 -0.32745668491E+03  0.11484717784E+04  0.10020715512E+04 0.  0.
    9000010    2    1    2  501    0  0.26148684237E+03 -0.37314445316E+03  0.64911742363E+02  0.10815530070E+04  0.97873960840E+03 0.  0.
        -13    1    4    4    0    0  0.91695040863E+02 -0.65431478694E+03 -0.16453674687E+03  0.68088778309E+03  0.10566000000E+00 0.  1.
         13    1    3    3    0    0 -0.45046055188E+03  0.43502123545E+03 -0.56168727030E+03  0.84121981960E+03  0.10566000000E+00 0. -1.
          4    1    4    4  501    0  0.16979180150E+03  0.28117033378E+03  0.22944848924E+03  0.40066522393E+03  0.00000000000E+00 0.  1.
         -4    1    3    3    0  503  0.18897370952E+03 -0.61876782289E+02  0.23423058539E+03  0.30725195884E+03  0.00000000000E+00 0. -1.
</event>
<event>
 8    1  0.7008488E-006  0.1083121E+04  0.7818608E-02  0.8703836E-01
         21   -1    0    0  503  502  0.00000000000E+00  0.00000000000E+00  0.10762816919E+04  0.10762816919E+04  0.00000000000E+00 0. -1.
         21   -1    0    0  501  503 -0.00000000000E+00 -0.00000000000E+00 -0.11840045083E+04  0.11840045083E+04  0.00000000000E+00 0. -1.
    9000010    2    1    2  501    0 -0.40513267104E+02  0.42773892518E+03 -0.39950468081E+03  0.11385517808E+04  0.97575317304E+03 0.  0.
   -9000010    2    1    2    0  502  0.40513267104E+02 -0.42773892518E+03  0.29178186447E+03  0.11217344193E+04  0.99425828545E+03 0.  0.
        -13    1    3    3    0    0 -0.37557237922E+03  0.40653776199E+02  0.13239940222E+03  0.40029608344E+03  0.10566000000E+00 0.  1.
         13    1    4    4    0    0 -0.15476155609E+03  0.27418553561E+03 -0.46831044297E+02  0.31831117645E+03  0.10566000000E+00 0. -1.
          4    1    3    3  501    0  0.33505911211E+03  0.38708514898E+03 -0.53190408303E+03  0.73825569738E+03  0.00000000000E+00 0.  1.
         -4    1    4    4    0  502  0.19527482320E+03 -0.70192446079E+03  0.33861290877E+03  0.80342324289E+03  0.00000000000E+00 0. -1.
</event>
<event>
 8    1  0.7008488E-006  0.1136331E+04  0.7818608E-02  0.8659556E-01
         21   -1    0    0  503  502  0.00000000000E+00  0.00000000000E+00  0.52142994680E+03  0.52142994680E+03  0.00000000000E+00 0. -1.
         21   -1    0    0  501  503 -0.00000000000E+00 -0.00000000000E+00 -0.26006714283E+04  0.26006714283E+04  0.00000000000E+00 0. -1.
    9000010    2    1    2  501    0 -0.20449882475E+03  0.48086485890E+03 -0.14208921661E+04  0.18088337061E+04  0.98989597788E+03 0.  0.
   -9000010    2    1    2    0  502  0.20449882475E+03 -0.48086485890E+03 -0.65834931540E+03  0.13132676689E+04  0.10090576630E+04 0.  0.
        -13    1    3    3    0    0 -0.23077986825E+03  0.78230901774E+03 -0.10717588002E+04  0.13468235534E+04  0.10566000000E+00 0.  1.
         13    1    4    4    0    0  0.92520650694E+02 -0.23497826853E+03 -0.90978784191E+03  0.94418683847E+03  0.10566000000E+00 0. -1.
          4    1    3    3  501    0  0.26281043506E+02 -0.30144415883E+03 -0.34913336583E+03  0.46201015279E+03  0.00000000000E+00 0.  1.
         -4    1    4    4    0  502  0.11197817405E+03 -0.24588659037E+03  0.25143852651E+03  0.36908083045E+03  0.00000000000E+00 0. -1.
</event>
<event>
 8    1  0.7008488E-006  0.1172013E+04  0.7818608E-02  0.8635349E-01
         21   -1    0    0  501  502  0.00000000000E+00  0.00000000000E+00  0.21555713644E+04  0.21555713644E+04  0.00000000000E+00 0.  1.
         21   -1    0    0  502  503 -0.00000000000E+00 -0.00000000000E+00 -0.61813555773E+03  0.61813555773E+03  0.00000000000E+00 0.  1.
   -9000010    2    1    2    0  503  0.53169513335E+03 -0.27606237189E+03  0.72086049544E+03  0.13759557056E+04  0.10073252215E+04 0.  0.
    9000010    2    1    2  501    0 -0.53169513335E+03  0.27606237189E+03  0.81657531127E+03  0.13977512166E+04  0.96332916307E+03 0.  0.
        -13    1    4    4    0    0 -0.18891877955E+03  0.15316087736E+03  0.97189802847E+03  0.10018654343E+04  0.10566000000E+00 0.  1.
         13    1    3    3    0    0  0.42397487282E+03 -0.64871408607E+03  0.55943683300E+03  0.95580031363E+03  0.10566000000E+00 0. -1.
          4    1    4    4  501    0 -0.34277635381E+03  0.12290149452E+03 -0.15532271720E+03  0.39588578222E+03  0.00000000000E+00 0.  1.
         -4    1    3    3    0  503  0.10772026054E+03  0.37265171419E+03  0.16142366244E+03  0.42015539199E+03  0.00000000000E+00 0. -1.
</event>
<event>
 8    1  0.7008488E-006  0.1063671E+04  0.7818608E-02  0.8717365E-01
         21   -1    0    0  503  502  0.00000000000E+00  0.00000000000E+00  0.17880965173E+04  0.17880965173E+04  0.00000000000E+00 0. -1.
         21   -1    0    0  501  503 -0.00000000000E+00 -0.00000000000E+00 -0.65930884330E+03  0.65930884330E+03  0.00000000000E+00 0.  1.
    9000010    2    1    2  501    0 -0.13795222876E+03 -0.31712383037E+03  0.81459547384E+03  0.13383005728E+04  0.10039344082E+04 0.  0.
   -9000010    2    1    2    0  502  0.13795222876E+03  0.31712383037E+03  0.31419220018E+03  0.11091047878E+04  0.10058818770E+04 0.  0.
        -13    1    3    3    0    0  0.32383555391E+03 -0.13269519481E+03  0.76168752052E+03  0.83823944716E+03  0.10566000000E+00 0.  1.
         13    1    4    4    0    0  0.35366056926E+02  0.23376001088E+03  0.68011641275E+03  0.72003669818E+03  0.10566000000E+00 0. -1.
          4    1    3    3  501    0 -0.46178778267E+03 -0.18442863556E+03  0.52907953326E+02  0.50006112562E+03  0.00000000000E+00 0.  1.
         -4    1    4    4    0  502  0.10258617183E+03  0.83363819487E+02 -0.36592421257E+03  0.38906808967E+03  0.00000000000E+00 0. -1.
</event>
<event>
 8    1  0.7008488E-006  0.1044902E+04  0.7818608E-02  0.8734810E-01
         21   -1    0    0  501  502  0.00000000000E+00  0.00000000000E+00  0.46659213553E+03  0.46659213553E+03  0.00000000000E+00 0.  1.
         21   -1    0    0  502  503 -0.00000000000E+00 -0.00000000000E+00 -0.23746927995E+04  0.23746927995E+04  0.00000000000E+00 0.  1.
   -9000010    2    1    2    0  503  0.16121610978E+03 -0.13462571661E+03 -0.75002925067E+03  0.12814932126E+04  0.10176277608E+04 0.  0.
    9000010    2    1    2  501    0 -0.16121610978E+03  0.13462571661E+03 -0.11580714133E+04  0.15597917224E+04  0.10235751567E+04 0.  0.
        -13    1    4    4    0    0 -0.19532257133E+03  0.31576412863E+03  0.15711783162E+02  0.37162449205E+03  0.10566000000E+00 0.  1.
         13    1    3    3    0    0 -0.20485916125E+03 -0.47254782127E+03 -0.52291705519E+03  0.73396932982E+03  0.10566000000E+00 0. -1.
          4    1    4    4  501    0  0.34106461546E+02 -0.18113841202E+03 -0.11737831964E+04  0.11881672303E+04  0.00000000000E+00 0.  1.
         -4    1    3    3    0  503  0.36607527103E+03  0.33792210466E+03 -0.22711219548E+03  0.54752388278E+03  0.00000000000E+00 0. -1.
</event>
<event>
 8    1  0.7008488E-006  0.1043347E+04  0.7818608E-02  0.8738740E-01
         21   -1    0    0  503  502  0.00000000000E+00  0.00000000000E+00  0.91118758739E+03  0.91118758739E+03  0.00000000000E+00 0.  1.
         21   -1    0    0  501  503 -0.00000000000E+00 -0.00000000000E+00 -0.11755652959E+04  0.11755652959E+04  0.00000000000E+00 0.  1.
    9000010    2    1    2  501    0  0.19981831801E+03 -0.18352384043E+03 -0.14938496789E+03  0.10370882264E+04  0.98976146643E+03 0.  0.
   -9000010    2    1    2    0  502 -0.19981831801E+03  0.18352384043E+03 -0.11499274067E+03  0.10496646570E+04  0.10074543173E+04 0.  0.
        -13    1    3    3    0    0  0.29685194453E+03  0.12726515820E+03 -0.47644231987E+03  0.57559950729E+03  0.10566000000E+00 0.  1.
         13    1    4    4    0    0 -0.43093113090E+03  0.33486310981E+03 -0.38145761680E+03  0.66584147248E+03  0.10566000000E+00 0. -1.
          4    1    3    3  501    0 -0.97033626528E+02 -0.31078899863E+03  0.32705735198E+03  0.46148871907E+03  0.00000000000E+00 0.  1.
         -4    1    4    4    0  502  0.23111281289E+03 -0.15133926938E+03  0.26646487613E+03  0.38382318449E+03  0.00000000000E+00 0. -1.
</event>
<event>
 8    1  0.7008488E-006  0.1125672E+04  0.7818608E-02  0.8665246E-01
         21   -1    0    0  503  502  0.00000000000E+00  0.00000000000E+00  0.17860686181E+04  0.17860686181E+04  0.00000000000E+00 0.  1.
         21   -1    0    0  501  503 -0.00000000000E+00 -0.00000000000E+00 -0.70793579366E+03  0.70793579366E+03  0.00000000000E+00 0.  1.
    9000010    2    1    2  501    0  0.47104837596E+03  0.21752654702E+03  0.52929594202E+03  0.12439021598E+04  0.99896647474E+03 0.  0.
   -9000010    2    1    2    0  502 -0.47104837596E+03 -0.21752654702E+03  0.54883688247E+03  0.12501022521E+04  0.99615728973E+03 0.  0.
        -13    1    3    3    0    0  0.36655183294E+03  0.29005384274E+03 -0.19649295677E+03  0.50705125100E+03  0.10566000000E+00 0.  1.
         13    1    4    4    0    0 -0.71761190729E+03 -0.30855004050E+03  0.18755953365E+03  0.80333589912E+03  0.10566000000E+00 0. -1.
          4    1    3    3  501    0  0.10449654302E+03 -0.72527295718E+02  0.72578889879E+03  0.73685090876E+03  0.00000000000E+00 0.  1.
         -4    1    4    4    0  502  0.24656353133E+03  0.91023493485E+02  0.36127734882E+03  0.44676635294E+03  0.00000000000E+00 0. -1.
</event>
<event>
 8    1  0.7008488E-006  0.1218137E+04  0.7818608E-02  0.8619868E-01
         21   -1    0    0  503  502  0.00000000000E+00  0.00000000000E+00  0.12059372126E+04  0.12059372126E+04  0.00000000000E+00 0.  1.
         21   -1    0    0  501  503 -0.00000000000E+00 -0.00000000000E+00 -0.11415421061E+04  0.11415421061E+04  0.00000000000E+00 0.  1.
    9000010    2    1    2  501    0  0.16996391901E+03  0.39382600492E+03  0.26684654117E+03  0.12470221661E+04  0.11401186563E+04 0.  0.
   -9000010    2    1    2    0  502 -0.16996391901E+03 -0.39382600492E+03 -0.20245143460E+03  0.11004571525E+04  0.99299179518E+03 0.  0.
        -13    1    3    3    0    0 -0.31054614666E+03 -0.21336882204E+03  0.28509050267E+03  0.47248467626E+03  0.10566000000E+00 0.  1.
         13    1    4    4    0    0  0.11458681740E+03 -0.42226350435E+03 -0.51570465277E+03  0.67630459549E+03  0.10566000000E+00 0. -1.
          4    1    3    3  501    0  0.48051006567E+03  0.60719482697E+03 -0.18243961495E+02  0.77453748988E+03  0.00000000000E+00 0.  1.
         -4    1    4    4    0  502 -0.28455073640E+03  0.28437499426E+02  0.31325321817E+03  0.42415255705E+03  0.00000000000E+00 0. -1.
</event>
<event>
 8    1  0.7008488E-006  0.1086353E+04  0.7818608E-02  0.8699088E-01
         21   -1    0    0  503  502  0.00000000000E+00  0.00000000000E+00  0.72108286825E+03  0.72108286825E+03  0.00000000000E+00 0. -1.
         21   -1    0    0  501  503 -0.00000000000E+00 -0.00000000000E+00 -0.16649398749E+04  0.16649398749E+04  0.00000000000E+00 0. -1.
    9000010    2    1    2  501    0 -0.32347957994E+03 -0.27439655815E+03 -0.65504136374E+03  0.12619327279E+04  0.99169678423E+03 0.  0.
   -9000010    2    1    2    0  502  0.32347957994E+03  0.27439655815E+03 -0.28881564294E+03  0.11240900152E+04  0.10001156818E+04 0.  0.
        -13    1    3    3    0    0 -0.24997975052E+03 -0.60735366521E+03 -0.18705448431E+03  0.68290390362E+03  0.10566000000E+00 0.  1.
         13    1    4    4    0    0  0.40154393308E+03  0.42422336997E+03 -0.55700140317E+03  0.80712673857E+03  0.10566000000E+00 0. -1.
          4    1    3    3  501    0 -0.73499829420E+02  0.33295710706E+03 -0.46798687942E+03  0.57902882431E+03  0.00000000000E+00 0.  1.
         -4    1    4    4    0  502 -0.78064353142E+02 -0.14982681182E+03  0.26818576022E+03  0.31696327667E+03  0.00000000000E+00 0. -1.
</event>
<event>
 8    1  0.7008488E-006  0.1064051E+04  0.7818608E-02  0.8718115E-01
         21   -1    0    0  501  502  0.00000000000E+00  0.00000000000E+00  0.81335695781E+03  0.81335695781E+03  0.00000000000E+00 0. -1.
         21   -1    0    0  502  503 -0.00000000000E+00 -0.00000000000E+00 -0.14081885486E+04  0.14081885486E+04  0.00000000000E+00 0. -1.
   -9000010    2    1    2    0  503 -0.13234588070E+03  0.30493479619E+03 -0.44458025195E+03  0.11469383203E+04  0.10036509593E+04 0.  0.
    9000010    2    1    2  501    0  0.13234588070E+03 -0.30493479619E+03 -0.15025133885E+03  0.10746071861E+04  0.10107939837E+04 0.  0.
        -13    1    4    4    0    0 -0.35349677386E+03 -0.34710220870E+03  0.12994047027E+03  0.51217618979E+03  0.10566000000E+00 0.  1.
         13    1    3    3    0    0 -0.45260892612E+03  0.15388555427E+03  0.10850524209E+03  0.49021322150E+03  0.10566000000E+00 0. -1.
          4    1    4    4  501    0  0.48584265456E+03  0.42167412509E+02 -0.28019180911E+03  0.56243099627E+03  0.00000000000E+00 0.  1.
         -4    1    3    3    0  503  0.32026304541E+03  0.15104924192E+03 -0.55308549403E+03  0.65672509884E+03  0.00000000000E+00 0. -1.
</event>
<event>
 8    1  0.7008488E-006  0.1372304E+04  0.7818608E-02  0.8490665E-01
         21   -1    0    0  503  502  0.00000000000E+00  0.00000000000E+00  0.15151044843E+04  0.15151044843E+04  0.00000000000E+00 0. -1.
         21   -1    0    0  501  503 -0.00000000000E+00 -0.00000000000E+00 -0.13903258829E+04  0.13903258829E+04  0.00000000000E+00 0.  1.
    9000010    2    1    2  501    0  0.33123683666E+03  0.86866650463E+03 -0.44181763040E+03  0.14416728443E+04  0.10094148965E+04 0.  0.
   -9000010    2    1    2    0  502 -0.33123683666E+03 -0.86866650463E+03  0.56659623179E+03  0.14637575228E+04  0.97839432621E+03 0.  0.
        -13    1    3    3    0    0  0.33745749913E+03  0.10745682180E+04 -0.23658415749E+03  0.11508894359E+04  0.10566000000E+00 0.  1.
         13    1    4    4    0    0 -0.49645833647E+03 -0.47865249843E+03  0.73506344220E+03  0.10079173425E+04  0.10566000000E+00 0. -1.
          4    1    3    3  501    0 -0.62206624648E+01 -0.20590171337E+03 -0.20523347291E+03  0.29078340842E+03  0.00000000000E+00 0.  1.
         -4    1    4    4    0  502  0.16522149980E+03 -0.39001400620E+03 -0.16846721041E+03  0.45584018034E+03  0.00000000000E+00 0. -1.
</event>
<event>
 8    1  0.7008488E-006  0.1030196E+04  0.7818608E-02  0.8753881E-01
         21   -1    0    0  501  502  0.00000000000E+00  0.00000000000E+00  0.83447925543E+03  0.83447925543E+03  0.00000000000E+00 0. -1.
         21   -1    0    0  502  503 -0.00000000000E+00 -0.00000000000E+00 -0.13298098954E+04  0.13298098954E+04  0.00000000000E+00 0. -1.
   -9000010    2    1    2    0  503  0.28973057961E+03  0.41046642927E+02 -0.54200365497E+03  0.11640756612E+04  0.98776290032E+03 0.  0.
    9000010    2    1    2  501    0 -0.28973057961E+03 -0.41046642927E+02  0.46673014979E+02  0.10002134897E+04  0.95531147747E+03 0.  0.
        -13    1    4    4    0    0 -0.24453502848E+03  0.74746818809E+02  0.48300872295E+03  0.54651798203E+03  0.10566000000E+00 0.  1.
         13    1    3    3    0    0  0.28577757254E+03  0.31138443537E+03  0.12797946393E+03  0.44159692245E+03  0.10566000000E+00 0. -1.
          4    1    4    4  501    0 -0.45195551130E+02 -0.11579346174E+03 -0.43633570797E+03  0.45369550766E+03  0.00000000000E+00 0.  1.
         -4    1    3    3    0  503  0.39530070630E+01 -0.27033779245E+03 -0.66998311890E+03  0.72247873872E+03  0.00000000000E+00 0. -1.
</event>
<event>
 8    1  0.7008488E-006  0.1250166E+04  0.7818608E-02  0.8570446E-01
         21   -1    0    0  503  502  0.00000000000E+00  0.00000000000E+00  0.14088291564E+04  0.14088291564E+04  0.00000000000E+00 0.  1.
         21   -1    0    0  501  503 -0.00000000000E+00 -0.00000000000E+00 -0.11063928523E+04  0.11063928523E+04  0.00000000000E+00 0.  1.
    9000010    2    1    2  501    0  0.44067389875E+03  0.60297944591E+03  0.18117934756E+03  0.12591893237E+04  0.99747385918E+03 0.  0.
   -9000010    2    1    2    0  502 -0.44067389875E+03 -0.60297944591E+03  0.12125695659E+03  0.12560326850E+04  0.10025652891E+04 0.  0.
        -13    1    3    3    0    0 -0.27401699894E+03 -0.46406817928E+02  0.73544349355E+01  0.27801619977E+03  0.10566000000E+00 0.  1.
         13    1    4    4    0    0 -0.47159720773E+03 -0.98854696896E+02  0.44517440558E+03  0.65601557907E+03  0.10566000000E+00 0. -1.
          4    1    3    3  501    0  0.71469089769E+03  0.64938626384E+03  0.17382491263E+03  0.98117312394E+03  0.00000000000E+00 0.  1.
         -4    1    4    4    0  502  0.30923308978E+02 -0.50412474901E+03 -0.32391744899E+03  0.60001710589E+03  0.00000000000E+00 0. -1.
</event>
<event>
 8    1  0.7008488E-006  0.1187872E+04  0.7818608E-02  0.8631040E-01
         21   -1    0    0  503  502  0.00000000000E+00  0.00000000000E+00  0.14097898964E+04  0.14097898964E+04  0.00000000000E+00 0. -1.
         21   -1    0    0  501  503 -0.00000000000E+00 -0.00000000000E+00 -0.13599741235E+04  0.13599741235E+04  0.00000000000E+00 0. -1.
    9000010    2    1    2  501    0 -0.48121572805E+03 -0.17682316242E+03 -0.74797155404E+03  0.13388537530E+04  0.98500401953E+03 0.  0.
   -9000010    2    1    2    0  502  0.48121572805E+03  0.17682316242E+03  0.79778732697E+03  0.14309102670E+04  0.10715430768E+04 0.  0.
        -13    1    3    3    0    0  0.15997174493E+03 -0.18195824471E+03  0.11137073028E+03  0.26665185677E+03  0.10566000000E+00 0.  1.
         13    1    4    4    0    0  0.33864764251E+02  0.29946971009E+03 -0.17832801318E+03  0.35018540942E+03  0.10566000000E+00 0. -1.
          4    1    3    3  501    0 -0.64118747298E+03  0.51350822847E+01 -0.85934228432E+03  0.10722018962E+04  0.00000000000E+00 0.  1.
         -4    1    4    4    0  502  0.44735096380E+03 -0.12264654767E+03  0.97611534016E+03  0.10807248576E+04  0.00000000000E+00 0. -1.
</event>
<event>
 8    1  0.7008488E-006  0.1057332E+04  0.7818608E-02  0.8723661E-01
         21   -1    0    0  501  502  0.00000000000E+00  0.00000000000E+00  0.19192406868E+04  0.19192406868E+04  0.00000000000E+00 0. -1.
         21   -1    0    0  502  503 -0.00000000000E+00 -0.00000000000E+00 -0.58386128395E+03  0.58386128395E+03  0.00000000000E+00 0. -1.
   -9000010    2    1    2    0  503 -0.27539985220E+03 -0.18823307205E+03  0.55940809248E+03  0.11915825423E+04  0.99782502134E+03 0.  0.
    9000010    2    1    2  501    0  0.27539985220E+03  0.18823307205E+03  0.77597131038E+03  0.13115194284E+04  0.10033319334E+04 0.  0.
        -13    1    4    4    0    0  0.33933576870E+03 -0.35083704159E+03  0.51379561322E+03  0.70867576296E+03  0.10566000000E+00 0.  1.
         13    1    3    3    0    0 -0.10073246712E+03  0.30266893937E+02 -0.28407587088E+03  0.30292280598E+03  0.10566000000E+00 0. -1.
          4    1    4    4  501    0 -0.63935916506E+02  0.53907011364E+03  0.26217569716E+03  0.60284366549E+03  0.00000000000E+00 0.  1.
         -4    1    3    3    0  503 -0.17466738507E+03 -0.21849996599E+03  0.84348396335E+03  0.88865973633E+03  0.00000000000E+00 0. -1.
</event>
<event>
 8    1  0.7008488E-006  0.1127764E+04  0.7818608E-02  0.8675803E-01
         21   -1    0    0  503  502  0.00000000000E+00  0.00000000000E+00  0.21649587135E+04  0.21649587135E+04  0.00000000000E+00 0.  1.
         21   -1    0    0  501  503 -0.00000000000E+00 -0.00000000000E+00 -0.55686096256E+03  0.55686096256E+03  0.00000000000E+00 0.  1.
    9000010    2    1    2  501    0  0.34394110422E+03 -0.12620209318E+03  0.87707800558E+03  0.14286771703E+04  0.10665974769E+04 0.  0.
   -9000010    2    1    2    0  502 -0.34394110422E+03  0.12620209318E+03  0.73101974541E+03  0.12931425058E+04  0.10018009885E+04 0.  0.
        -13    1    3    3    0    0  0.57302584927E+03  0.25264470783E+03  0.28158735865E+03  0.68664359317E+03  0.10566000000E+00 0.  1.
         13    1    4    4    0    0 -0.21515228199E+02  0.23179064987E+03 -0.19705821945E+03  0.30499469410E+03  0.10566000000E+00 0. -1.
          4    1    3    3  501    0 -0.22908474505E+03 -0.37884680101E+03  0.59549064694E+03  0.74203357716E+03  0.00000000000E+00 0.  1.
         -4    1    4    4    0  502 -0.32242587603E+03 -0.10558855670E+03  0.92807796486E+03  0.98814781167E+03  0.00000000000E+00 0. -1.
</event>
<event>
 8    1  0.7008488E-006  0.1063287E+04  0.7818608E-02  0.8717666E-01
         21   -1    0    0  501  502  0.00000000000E+00  0.00000000000E+00  0.17919851581E+04  0.17919851581E+04  0.00000000000E+00 0.  1.
         21   -1    0    0  502  503 -0.00000000000E+00 -0.00000000000E+00 -0.65537326431E+03  0.65537326431E+03  0.00000000000E+00 0.  1.
   -9000010    2    1    2    0  503 -0.23761753302E+03  0.21375379014E+03  0.32752864607E+03  0.11125892364E+04  0.10141139089E+04 0.  0.
    9000010    2    1    2  501    0  0.23761753302E+03 -0.21375379014E+03  0.80908324769E+03  0.13347691860E+04  0.10123439649E+04 0.  0.
        -13    1    4    4    0    0 -0.25023026766E+03  0.14546140549E+03 -0.39495668795E+02  0.29212005470E+03  0.10566000000E+00 0.  1.
         13    1    3    3    0    0 -0.59314431732E+03  0.39670159213E+02  0.39120338008E+03  0.71164176272E+03  0.10566000000E+00 0. -1.
          4    1    4    4  501    0  0.48784780068E+03 -0.35921519563E+03  0.84857891648E+03  0.10426491313E+04  0.00000000000E+00 0.  1.
         -4    1    3    3    0  503  0.35552678431E+03  0.17408363093E+03 -0.63674734012E+02  0.40094747370E+03  0.00000000000E+00 0. -1.
</event>
<event>
 8    1  0.7008488E-006  0.1082280E+04  0.7818608E-02  0.8701244E-01
         21   -1    0    0  501  502  0.00000000000E+00  0.00000000000E+00  0.82000392949E+03  0.82000392949E+03  0.00000000000E+00 0.  1.
         21   -1    0    0  502  503 -0.00000000000E+00 -0.00000000000E+00 -0.14346324757E+04  0.14346324757E+04  0.00000000000E+00 0.  1.
   -9000010    2    1    2    0  503  0.35170592093E+03 -0.22827491654E+03 -0.22191448772E+03  0.11047972537E+04  0.99775971033E+03 0.  0.
    9000010    2    1    2  501    0 -0.35170592093E+03  0.22827491654E+03 -0.39271405851E+03  0.11498391515E+04  0.99604179144E+03 0.  0.
        -13    1    4    4    0    0 -0.37457375024E+03  0.42318249162E+03 -0.62707571985E+03  0.84416401556E+03  0.10566000000E+00 0.  1.
         13    1    3    3    0    0  0.19392934493E+03  0.36483383058E+03  0.79958262211E+02  0.42083922062E+03  0.10566000000E+00 0. -1.
          4    1    4    4  501    0  0.22867829317E+02 -0.19490757508E+03  0.23436166134E+03  0.30567513597E+03  0.00000000000E+00 0.  1.
         -4    1    3    3    0  503  0.15777657600E+03 -0.59310874711E+03 -0.30187274993E+03  0.68395803306E+03  0.00000000000E+00 0. -1.
</event>
<event>
 8    1  0.7008488E-006  0.1088995E+04  0.7818608E-02  0.8695417E-01
         21   -1    0    0  501  502  0.00000000000E+00  0.00000000000E+00  0.79756210047E+03  0.79756210047E+03  0.00000000000E+00 0.  1.
         21   -1    0    0  502  503 -0.00000000000E+00 -0.00000000000E+00 -0.15293219497E+04  0.15293219497E+04  0.00000000000E+00 0.  1.
   -9000010    2    1    2    0  503  0.31495145137E+03  0.30555569540E+03 -0.16874416701E+03  0.11009574247E+04  0.99552697473E+03 0.  0.
    9000010    2    1    2  501    0 -0.31495145137E+03 -0.30555569540E+03 -0.56301568224E+03  0.12259266255E+04  0.99666982140E+03 0.  0.
        -13    1    4    4    0    0 -0.48121106567E+03 -0.11363810218E+03  0.11006002706E+03  0.50654805173E+03  0.10566000000E+00 0.  1.
         13    1    3    3    0    0  0.57115646233E+03  0.17391180896E+03  0.20305550425E+03  0.63063188211E+03  0.10566000000E+00 0. -1.
          4    1    4    4  501    0  0.16625961429E+03 -0.19191759321E+03 -0.67307570930E+03  0.71937857375E+03  0.00000000000E+00 0.  1.
         -4    1    3    3    0  503 -0.25620501096E+03  0.13164388644E+03 -0.37179967125E+03  0.47032554260E+03  0.00000000000E+00 0. -1.
</event>
<event>
 8    1  0.7008488E-006  0.1332005E+04  0.7818608E-02  0.8516603E-01
         21   -1    0    0  503  502  0.00000000000E+00  0.00000000000E+00  0.79021465105E+03  0.79021465105E+03  0.00000000000E+00 0.  1.
         21   -1    0    0  501  503 -0.00000000000E+00 -0.00000000000E+00 -0.23756795696E+04  0.23756795696E+04  0.00000000000E+00 0. -1.
    9000010    2    1    2  501    0  0.41952174922E+03  0.77520844578E+03 -0.12028002269E+04  0.17800120527E+04  0.97199171256E+03 0.  0.
   -9000010    2    1    2    0  502 -0.41952174922E+03 -0.77520844578E+03 -0.38266469157E+03  0.13858821679E+04  0.99864432344E+03 0.  0.
        -13    1    3    3    0    0 -0.28019249477E+03  0.54496290379E+02 -0.14105400059E+03  0.31839271668E+03  0.10566000000E+00 0.  1.
         13    1    4    4    0    0 -0.40736963909E+03 -0.30515886139E+02 -0.48497153198E+03  0.63409671199E+03  0.10566000000E+00 0. -1.
          4    1    3    3  501    0  0.69971424399E+03  0.72071215540E+03 -0.10617462264E+04  0.14616193360E+04  0.00000000000E+00 0.  1.
         -4    1    4    4    0  502 -0.12152110125E+02 -0.74469255964E+03  0.10230684041E+03  0.75178545593E+03  0.00000000000E+00 0. -1.
</event>
<event>
 8    1  0.7008488E-006  0.1130165E+04  0.7818608E-02  0.8661583E-01
         21   -1    0    0  501  502  0.00000000000E+00  0.00000000000E+00  0.17750598085E+04  0.17750598085E+04  0.00000000000E+00 0.  1.
         21   -1    0    0  502  503 -0.00000000000E+00 -0.00000000000E+00 -0.72145783919E+03  0.72145783919E+03  0.00000000000E+00 0.  1.
   -9000010    2    1    2    0  503  0.27593307001E+03 -0.41945459356E+03  0.44119580039E+03  0.12132300197E+04  0.10125177189E+04 0.  0.
    9000010    2    1    2  501    0 -0.27593307001E+03  0.41945459356E+03  0.61240616892E+03  0.12832876280E+04  0.10098042411E+04 0.  0.
        -13    1    4    4    0    0 -0.38144838098E+03  0.55063847092E+02 -0.16424250988E+03  0.41893974248E+03  0.10566000000E+00 0.  1.
         13    1    3    3    0    0 -0.59536476179E+02  0.71319089328E+02 -0.27044614890E+03  0.28595827514E+03  0.10566000000E+00 0. -1.
          4    1    4    4  501    0  0.10551531097E+03  0.36439074647E+03  0.77664867880E+03  0.86434788554E+03  0.00000000000E+00 0.  1.
         -4    1    3    3    0  503  0.33546954619E+03 -0.49077368289E+03  0.71164194929E+03  0.92727174454E+03  0.00000000000E+00 0. -1.
</event>
<event>
 8    1  0.7008488E-006  0.1066948E+04  0.7818608E-02  0.8715090E-01
         21   -1    0    0  503  502  0.00000000000E+00  0.00000000000E+00  0.96135691396E+03  0.96135691396E+03  0.00000000000E+00 0. -1.
         21   -1    0    0  501  503 -0.00000000000E+00 -0.00000000000E+00 -0.13780079123E+04  0.13780079123E+04  0.00000000000E+00 0. -1.
    9000010    2    1    2  501    0 -0.15138420737E+03 -0.34180828125E+03 -0.65303971246E+03  0.12509353018E+04  0.99931385648E+03 0.  0.
   -9000010    2    1    2    0  502  0.15138420737E+03  0.34180828125E+03  0.23638871414E+03  0.10884295245E+04  0.99450949027E+03 0.  0.
        -13    1    3    3    0    0  0.17620860956E+03 -0.59737610358E+03 -0.24707523553E+03  0.67004019759E+03  0.10566000000E+00 0.  1.
         13    1    4    4    0    0 -0.33144988897E+03  0.45756933198E+03  0.10309980967E+03  0.57433292120E+03  0.10566000000E+00 0. -1.
          4    1    3    3  501    0 -0.32759281693E+03  0.25556782233E+03 -0.40596447692E+03  0.58089510416E+03  0.00000000000E+00 0.  1.
         -4    1    4    4    0  502  0.48283409634E+03 -0.11576105073E+03  0.13328890447E+03  0.51409660328E+03  0.00000000000E+00 0. -1.
</event>
<event>
 8    1  0.7008488E-006  0.1068219E+04  0.7818608E-02  0.8718635E-01
         21   -1    0    0  501  502  0.00000000000E+00  0.00000000000E+00  0.46120512047E+03  0.46120512047E+03  0.00000000000E+00 0. -1.
         21   -1    0    0  502  503 -0.00000000000E+00 -0.00000000000E+00 -0.24865995788E+04  0.24865995788E+04  0.00000000000E+00 0. -1.
   -9000010    2    1    2    0  503  0.31816679582E+03 -0.19785622343E+03 -0.75096984006E+03  0.12849006150E+04  0.97295256548E+03 0.  0.
    9000010    2    1    2  501    0 -0.31816679582E+03  0.19785622343E+03 -0.12744246183E+04  0.16629040843E+04  0.10003572815E+04 0.  0.
        -13    1    4    4    0    0 -0.61540826520E+03 -0.48616605319E+02 -0.10450936159E+04  0.12138004714E+04  0.10566000000E+00 0.  1.
         13    1    3    3    0    0 -0.25370900055E+03 -0.15976481137E+03 -0.63204037872E+03  0.69954849969E+03  0.10566000000E+00 0. -1.
          4    1    4    4  501    0  0.29724146938E+03  0.24647282875E+03 -0.22933100234E+03  0.44910361284E+03  0.00000000000E+00 0.  1.
         -4    1    3    3    0  503  0.57187579637E+03 -0.38091412063E+02 -0.11892946133E+03  0.58535211533E+03  0.00000000000E+00 0. -1.
</event>
<event>
 8    1  0.7008488E-006  0.1103443E+04  0.7818608E-02  0.8685259E-01
         21   -1    0    0  503  502  0.00000000000E+00  0.00000000000E+00  0.71333573992E+03  0.71333573992E+03  0.00000000000E+00 0. -1.
         21   -1    0    0  501  503 -0.00000000000E+00 -0.00000000000E+00 -0.17156323780E+04  0.17156323780E+04  0.00000000000E+00 0. -1.
    9000010    2    1    2  501    0  0.48837172794E+02 -0.45419355637E+03 -0.35688141938E+03  0.11597199886E+04  0.10044447463E+04 0.  0.
   -9000010    2    1    2    0  502 -0.48837172794E+02  0.45419355637E+03 -0.64541521875E+03  0.12692481294E+04  0.99285102267E+03 0.  0.
        -13    1    3    3    0    0 -0.18788643254E+03  0.27440555774E+03 -0.15825326794E+03  0.36829856045E+03  0.10566000000E+00 0.  1.
         13    1    4    4    0    0  0.86053184789E+02  0.63442409071E+03 -0.61190036508E+02  0.64315107807E+03  0.10566000000E+00 0. -1.
          4    1    3    3  501    0  0.23672360533E+03 -0.72859911410E+03 -0.19862815144E+03  0.79142142815E+03  0.00000000000E+00 0.  1.
         -4    1    4    4    0  502 -0.13489035758E+03 -0.18023053435E+03 -0.58422518224E+03  0.62609705130E+03  0.00000000000E+00 0. -1.
</event>
<event>
 8    1  0.7008488E-006  0.1010999E+04  0.7818608E-02  0.8764524E-01
         21   -1    0    0  503  502  0.00000000000E+00  0.00000000000E+00  0.17686408127E+04  0.17686408127E+04  0.00000000000E+00 0. -1.
         21   -1    0    0  501  503 -0.00000000000E+00 -0.00000000000E+00 -0.57920042272E+03  0.57920042272E+03  0.00000000000E+00 0. -1.
    9000010    2    1    2  501    0 -0.59382025073E+02 -0.10626716024E+03  0.66000249909E+03  0.12073616484E+04  0.10036433216E+04 0.  0.
   -9000010    2    1    2    0  502  0.59382025073E+02  0.10626716024E+03  0.52943789092E+03  0.11404795871E+04  0.10027812692E+04 0.  0.
        -13    1    3    3    0    0 -0.19705167315E+03 -0.49888439071E+03  0.56802824114E+03  0.78126249819E+03  0.10566000000E+00 0.  1.
         13    1    4    4    0    0 -0.20681645222E+03  0.37017701785E+03  0.62348558721E+03  0.75401482616E+03  0.10566000000E+00 0. -1.
          4    1    3    3  501    0  0.13766964808E+03  0.39261723046E+03  0.91974257957E+02  0.42609915018E+03  0.00000000000E+00 0.  1.
         -4    1    4    4    0  502  0.26619847730E+03 -0.26390985760E+03 -0.94047696284E+02  0.38646476092E+03  0.00000000000E+00 0. -1.
</event>
<event>
 8    1  0.7008488E-006  0.1071444E+04  0.7818608E-02  0.8723918E-01
         21   -1    0    0  501  502  0.00000000000E+00  0.00000000000E+00  0.76189303350E+03  0.76189303350E+03  0.00000000000E+00 0. -1.
         21   -1    0    0  502  503 -0.00000000000E+00 -0.00000000000E+00 -0.14224260421E+04  0.14224260421E+04  0.00000000000E+00 0. -1.
   -9000010    2    1    2    0  503 -0.18867665593E+02 -0.21642350598E+03 -0.31286814621E+03  0.11161892104E+04  0.10491886169E+04 0.  0.
    9000010    2    1    2  501    0  0.18867665593E+02  0.21642350598E+03 -0.34766486238E+03  0.10681298652E+04  0.98632420108E+03 0.  0.
        -13    1    4    4    0    0  0.39526016950E+03 -0.66073455647E+02  0.10592714125E+03  0.41450798973E+03  0.10566000000E+00 0.  1.
         13    1    3    3    0    0  0.26356893378E+03  0.14557795439E+03  0.24889918017E+03  0.39065628974E+03  0.10566000000E+00 0. -1.
          4    1    4    4  501    0 -0.37639250390E+03  0.28249696163E+03 -0.45359200363E+03  0.65362187546E+03  0.00000000000E+00 0.  1.
         -4    1    3    3    0  503 -0.28243659937E+03 -0.36200146037E+03 -0.56176732638E+03  0.72553292067E+03  0.00000000000E+00 0. -1.
</event>
<event>
 8    1  0.7008488E-006  0.1060538E+04  0.7818608E-02  0.8722496E-01
         21   -1    0    0  503  502  0.00000000000E+00  0.00000000000E+00  0.63445552870E+03  0.63445552870E+03  0.00000000000E+00 0. -1.
         21   -1    0    0  501  503 -0.00000000000E+00 -0.00000000000E+00 -0.18191345316E+04  0.18191345316E+04  0.00000000000E+00 0. -1.
    9000010    2    1    2  501    0  0.35151099858E+03  0.69433054685E+02 -0.35940967930E+03  0.11197842903E+04  0.99817864534E+03 0.  0.
   -9000010    2    1    2    0  502 -0.35151099858E+03 -0.69433054685E+02 -0.82526932360E+03  0.13338057700E+04  0.98467631453E+03 0.  0.
        -13    1    3    3    0    0 -0.31227722047E+03  0.20938970379E+03 -0.18659206670E+03  0.41973529872E+03  0.10566000000E+00 0.  1.
         13    1    4    4    0    0 -0.46117153921E+03 -0.45446782572E+03 -0.50581400682E+03  0.82162522713E+03  0.10566000000E+00 0. -1.
          4    1    3    3  501    0  0.66378821905E+03 -0.13995664910E+03 -0.17281761261E+03  0.70004899158E+03  0.00000000000E+00 0.  1.
         -4    1    4    4    0  502  0.10966054062E+03  0.38503477104E+03 -0.31945531678E+03  0.51218054287E+03  0.00000000000E+00 0. -1.
</event>
<event>
 8    1  0.7008488E-006  0.1328414E+04  0.7818608E-02  0.8518883E-01
         21   -1    0    0  503  502  0.00000000000E+00  0.00000000000E+00  0.10534481224E+04  0.10534481224E+04  0.00000000000E+00 0.  1.
         21   -1    0    0  501  503 -0.00000000000E+00 -0.00000000000E+00 -0.16535822479E+04  0.16535822479E+04  0.00000000000E+00 0. -1.
    9000010    2    1    2  501    0 -0.75007841165E+03  0.41919951895E+03 -0.24515134783E+03  0.13320045914E+04  0.98782143526E+03 0.  0.
   -9000010    2    1    2    0  502  0.75007841165E+03 -0.41919951895E+03 -0.35498277764E+03  0.13750257789E+04  0.10130830469E+04 0.  0.
        -13    1    3    3    0    0 -0.43500721504E+03  0.24538467704E+03 -0.63077957106E+03  0.80456683705E+03  0.10566000000E+00 0.  1.
         13    1    4    4    0    0  0.41198782494E+03  0.11653055293E+03 -0.56385565357E+03  0.70798767425E+03  0.10566000000E+00 0. -1.
          4    1    3    3  501    0 -0.31507119661E+03  0.17381484191E+03  0.38562822323E+03  0.52743775439E+03  0.00000000000E+00 0.  1.
         -4    1    4    4    0  502  0.33809058670E+03 -0.53573007188E+03  0.20887287593E+03  0.66703810463E+03  0.00000000000E+00 0. -1.
</event>
<event>
 8    1  0.7008488E-006  0.1295956E+04  0.7818608E-02  0.8542738E-01
         21   -1    0    0  501  502  0.00000000000E+00  0.00000000000E+00  0.10345434146E+04  0.10345434146E+04  0.00000000000E+00 0. -1.
         21   -1    0    0  502  503 -0.00000000000E+00 -0.00000000000E+00 -0.16039797559E+04  0.16039797559E+04  0.00000000000E+00 0. -1.
   -9000010    2    1    2    0  503  0.57849017697E+03 -0.55012970516E+03 -0.41869680239E+03  0.13338300647E+04  0.98310836217E+03 0.  0.
    9000010    2    1    2  501    0 -0.57849017697E+03  0.55012970516E+03 -0.15073953892E+03  0.13046931059E+04  0.10208859459E+04 0.  0.
        -13    1    4    4    0    0 -0.19669567161E+03 -0.14841697479E+03  0.30130085611E+03  0.38922872799E+03  0.10566000000E+00 0.  1.
         13    1    3    3    0    0 -0.28046506002E+03 -0.11450279290E+03 -0.11391975394E+03  0.32364990495E+03  0.10566000000E+00 0. -1.
          4    1    4    4  501    0 -0.38179450536E+03  0.69854667995E+03 -0.45204039504E+03  0.91546437786E+03  0.00000000000E+00 0.  1.
         -4    1    3    3    0  503  0.85895523699E+03 -0.43562691226E+03 -0.30477704845E+03  0.10101801597E+04  0.00000000000E+00 0. -1.
</event>
<event>
 8    1  0.7008488E-006  0.1120090E+04  0.7818608E-02  0.8686534E-01
         21   -1    0    0  501  502  0.00000000000E+00  0.00000000000E+00  0.13153906628E+04  0.13153906628E+04  0.00000000000E+00 0.  1.
         21   -1    0    0  502  503 -0.00000000000E+00 -0.00000000000E+00 -0.99855219695E+03  0.99855219695E+03  0.00000000000E+00 0.  1.
   -9000010    2    1    2    0  503  0.48627947115E+03 -0.16603453571E+03 -0.22435101298E+03  0.11423374817E+04  0.99527200001E+03 0.  0.
    9000010    2    1    2  501    0 -0.48627947115E+03  0.16603453571E+03  0.54118947886E+03  0.11716053781E+04  0.90318210721E+03 0.  0.
        -13    1    4    4    0    0 -0.63501677332E+03  0.40814456600E+03  0.40053817579E+03  0.85455200578E+03  0.10566000000E+00 0.  1.
         13    1    3    3    0    0  0.57886132902E+03  0.12998287273E+03 -0.46171951942E+03  0.75177184785E+03  0.10566000000E+00 0. -1.
          4    1    4    4  501    0  0.14873730217E+03 -0.24211003029E+03  0.14065130307E+03  0.31705337229E+03  0.00000000000E+00 0.  1.
         -4    1    3    3    0  503 -0.92581857875E+02 -0.29601740844E+03  0.23736850644E+03  0.39056563387E+03  0.00000000000E+00 0. -1.
</event>
<event>
 8    1  0.7008488E-006  0.1608861E+04  0.7818608E-02  0.8351114E-01
         21   -1    0    0  503  502  0.00000000000E+00  0.00000000000E+00  0.19803985725E+04  0.19803985725E+04  0.00000000000E+00 0.  1.
         21   -1    0    0  501  503 -0.00000000000E+00 -0.00000000000E+00 -0.14495930941E+04  0.14495930941E+04  0.00000000000E+00 0.  1.
    9000010    2    1    2  501    0 -0.10174847288E+04  0.70934194013E+03 -0.29019402621E+03  0.16348233486E+04  0.10246919765E+04 0.  0.
   -9000010    2    1    2    0  502  0.10174847288E+04 -0.70934194013E+03  0.82099950465E+03  0.17951683180E+04  0.10050611633E+04 0.  0.
        -13    1    3    3    0    0 -0.10104427835E+04  0.58823996059E+03 -0.59129125628E+03  0.13102084685E+04  0.10566000000E+00 0.  1.
         13    1    4    4    0    0  0.76823445556E+01 -0.49720928223E+03  0.35825273461E+02  0.49855746924E+03  0.10566000000E+00 0. -1.
          4    1    3    3  501    0 -0.70419453648E+01  0.12110197954E+03  0.30109723007E+03  0.32461488013E+03  0.00000000000E+00 0.  1.
         -4    1    4    4    0  502  0.10098023843E+04 -0.21213265790E+03  0.78517423118E+03  0.12966108488E+04  0.00000000000E+00 0. -1.
</event>
<event>
 8    1  0.7008488E-006  0.1066733E+04  0.7818608E-02  0.8718296E-01
         21   -1    0    0  503  502  0.00000000000E+00  0.00000000000E+00  0.17676500600E+04  0.17676500600E+04  0.00000000000E+00 0.  1.
         21   -1    0    0  501  503 -0.00000000000E+00 -0.00000000000E+00 -0.65964734727E+03  0.65964734727E+03  0.00000000000E+00 0.  1.
    9000010    2    1    2  501    0 -0.23568490885E+03 -0.31201694868E+03  0.79431180408E+03  0.13153977909E+04  0.97285052996E+03 0.  0.
   -9000010    2    1    2    0  502  0.23568490885E+03  0.31201694868E+03  0.31369090864E+03  0.11118996164E+04  0.99248013492E+03 0.  0.
        -13    1    3    3    0    0 -0.64474310766E+02 -0.65529638198E+03  0.57079820334E+03  0.87142462961E+03  0.10566000000E+00 0.  1.
         13    1    4    4    0    0  0.28982249748E+03  0.68937975317E+01 -0.30447028077E+03  0.42041261580E+03  0.10566000000E+00 0. -1.
          4    1    3    3  501    0 -0.17121059809E+03  0.34327943330E+03  0.22351360074E+03  0.44397316128E+03  0.00000000000E+00 0.  1.
         -4    1    4    4    0  502 -0.54137588627E+02  0.30512315115E+03  0.61816118941E+03  0.69148700057E+03  0.00000000000E+00 0. -1.
</event>
<event>
 8    1  0.7008488E-006  0.1047462E+04  0.7818608E-02  0.8731685E-01
         21   -1    0    0  501  502  0.00000000000E+00  0.00000000000E+00  0.69626334067E+03  0.69626334067E+03  0.00000000000E+00 0.  1.
         21   -1    0    0  502  503 -0.00000000000E+00 -0.00000000000E+00 -0.15759751446E+04  0.15759751446E+04  0.00000000000E+00 0.  1.
   -9000010    2    1    2    0  503 -0.14238411052E+03  0.28803946428E+03 -0.49091106655E+03  0.11549456901E+04  0.99481953339E+03 0.  0.
    9000010    2    1    2  501    0  0.14238411052E+03 -0.28803946428E+03 -0.38880073739E+03  0.11172927951E+04  0.99696399571E+03 0.  0.
        -13    1    4    4    0    0 -0.38644133363E+03 -0.16043149727E+03  0.45916048259E+02  0.42093166228E+03  0.10566000000E+00 0.  1.
         13    1    3    3    0    0 -0.24191357730E+03  0.59157541704E+03 -0.94862706229E+02  0.64612893228E+03  0.10566000000E+00 0. -1.
          4    1    4    4  501    0  0.52882544415E+03 -0.12760796701E+03 -0.43471678565E+03  0.69636113286E+03  0.00000000000E+00 0.  1.
         -4    1    3    3    0  503  0.99529466780E+02 -0.30353595276E+03 -0.39604836032E+03  0.50881675787E+03  0.00000000000E+00 0. -1.
</event>
<event>
 8    1  0.7008488E-006  0.1391862E+04  0.7818608E-02  0.8474728E-01
         21   -1    0    0  503  502  0.00000000000E+00  0.00000000000E+00  0.56742038152E+03  0.56742038152E+03  0.00000000000E+00 0.  1.
         21   -1    0    0  501  503 -0.00000000000E+00 -0.00000000000E+00 -0.34168590651E+04  0.34168590651E+04  0.00000000000E+00 0.  1.
    9000010    2    1    2  501    0  0.27287098099E+02 -0.95348516024E+03 -0.14996328340E+04  0.20453991144E+04  0.10123637508E+04 0.  0.
   -9000010    2    1    2    0  502 -0.27287098099E+02  0.95348516024E+03 -0.13498058495E+04  0.19388803322E+04  0.10136086891E+04 0.  0.
        -13    1    3    3    0    0  0.27669931598E+03  0.60472518883E+02 -0.61414931069E+03  0.67631266733E+03  0.10566000000E+00 0.  1.
         13    1    4    4    0    0 -0.24283219530E+03 -0.12403105519E+03 -0.14729919041E+03  0.30991650550E+03  0.10566000000E+00 0. -1.
          4    1    3    3  501    0 -0.24941221788E+03 -0.10139576791E+04 -0.88548352333E+03  0.13690864471E+04  0.00000000000E+00 0.  1.
         -4    1    4    4    0  502  0.21554509720E+03  0.10775162154E+04 -0.12025066591E+04  0.16289638267E+04  0.00000000000E+00 0. -1.
</event>
<event>
 8    1  0.7008488E-006  0.1325570E+04  0.7818608E-02  0.8519124E-01
         21   -1    0    0  501  502  0.00000000000E+00  0.00000000000E+00  0.78245767729E+03  0.78245767729E+03  0.00000000000E+00 0.  1.
         21   -1    0    0  502  503 -0.00000000000E+00 -0.00000000000E+00 -0.22300362355E+04  0.22300362355E+04  0.00000000000E+00 0.  1.
   -9000010    2    1    2    0  503 -0.78918557503E+03 -0.29607191340E+03 -0.73218093593E+03  0.15061976036E+04  0.10109747022E+04 0.  0.
    9000010    2    1    2  501    0  0.78918557503E+03  0.29607191340E+03 -0.71539762226E+03  0.15062963091E+04  0.10230651803E+04 0.  0.
        -13    1    4    4    0    0  0.15345712768E+03  0.80550287481E+02 -0.81005468922E+03  0.82838762034E+03  0.10566000000E+00 0.  1.
         13    1    3    3    0    0 -0.10713826184E+03  0.99918104887E+02  0.22342616741E+03  0.26717316161E+03  0.10566000000E+00 0. -1.
          4    1    4    4  501    0  0.63572844735E+03  0.21552162591E+03  0.94657066958E+02  0.67790868879E+03  0.00000000000E+00 0.  1.
         -4    1    3    3    0  503 -0.68204731319E+03 -0.39599001828E+03 -0.95560710334E+03  0.12390244420E+04  0.00000000000E+00 0. -1.
</event>
<event>
 8    1  0.7008488E-006  0.1168009E+04  0.7818608E-02  0.8636052E-01
         21   -1    0    0  501  502  0.00000000000E+00  0.00000000000E+00  0.10544469393E+04  0.10544469393E+04  0.00000000000E+00 0. -1.
         21   -1    0    0  502  503 -0.00000000000E+00 -0.00000000000E+00 -0.12665727427E+04  0.12665727427E+04  0.00000000000E+00 0. -1.
   -9000010    2    1    2    0  503  0.51837954069E+03  0.29436723023E+03 -0.13593469811E+03  0.11758929007E+04  0.10044284232E+04 0.  0.
    9000010    2    1    2  501    0 -0.51837954069E+03 -0.29436723023E+03 -0.76191105235E+02  0.11451267813E+04  0.97475168441E+03 0.  0.
        -13    1    4    4    0    0 -0.42742184130E+03  0.11953065285E+03  0.33391393722E+03  0.55540574000E+03  0.10566000000E+00 0.  1.
         13    1    3    3    0    0  0.53040652230E+03  0.61996410534E+03  0.16760296690E+02  0.81606831180E+03  0.10566000000E+00 0. -1.
          4    1    4    4  501    0 -0.90957699391E+02 -0.41389788307E+03 -0.41010504246E+03  0.58972104129E+03  0.00000000000E+00 0.  1.
         -4    1    3    3    0  503 -0.12026981616E+02 -0.32559687511E+03 -0.15269499480E+03  0.35982458894E+03  0.00000000000E+00 0. -1.
</event>
<event>
 8    1  0.7008488E-006  0.1352210E+04  0.7818608E-02  0.8518477E-01
         21   -1    0    0  501  502  0.00000000000E+00  0.00000000000E+00  0.23451447387E+04  0.23451447387E+04  0.00000000000E+00 0. -1.
         21   -1    0    0  502  503 -0.00000000000E+00 -0.00000000000E+00 -0.11350834787E+04  0.11350834787E+04  0.00000000000E+00 0. -1.
   -9000010    2    1    2    0  503 -0.61038318511E+03 -0.42518046189E+03  0.16428279920E+04  0.20604535210E+04  0.99661368809E+03 0.  0.
    9000010    2    1    2  501    0  0.61038318511E+03  0.42518046189E+03 -0.43276673195E+03  0.14197746964E+04  0.11292152525E+04 0.  0.
        -13    1    4    4    0    0 -0.96611548474E+02  0.18522663575E+03  0.30530144337E+03  0.36993469745E+03  0.10566000000E+00 0.  1.
         13    1    3    3    0    0 -0.32780243398E+02 -0.61422105595E+03  0.63868089573E+03  0.88671040801E+03  0.10566000000E+00 0. -1.
          4    1    4    4  501    0  0.70699473359E+03  0.23995382614E+03 -0.73806817532E+03  0.10498399990E+04  0.00000000000E+00 0.  1.
         -4    1    3    3    0  503 -0.57760294172E+03  0.18904059407E+03  0.10041470962E+04  0.11737431130E+04  0.00000000000E+00 0. -1.
</event>
<event>
 8    1  0.7008488E-006  0.1044539E+04  0.7818608E-02  0.8740695E-01
         21   -1    0    0  501  502  0.00000000000E+00  0.00000000000E+00  0.90497116312E+03  0.90497116312E+03  0.00000000000E+00 0.  1.
         21   -1    0    0  502  503 -0.00000000000E+00 -0.00000000000E+00 -0.11829878497E+04  0.11829878497E+04  0.00000000000E+00 0.  1.
   -9000010    2    1    2    0  503 -0.26249799957E+03  0.24933343777E+03 -0.24252926329E+03  0.10428175243E+04  0.94740465611E+03 0.  0.
    9000010    2    1    2  501    0  0.26249799957E+03 -0.24933343777E+03 -0.35487423253E+02  0.10451414885E+04  0.97979028920E+03 0.  0.
        -13    1    4    4    0    0  0.14435010268E+03  0.16380194222E+02  0.45351055595E+03  0.47621119099E+03  0.10566000000E+00 0.  1.
         13    1    3    3    0    0  0.16929147533E+03 -0.27681254344E+03 -0.13789605525E+02  0.32476907521E+03  0.10566000000E+00 0. -1.
          4    1    4    4  501    0  0.11814789689E+03 -0.26571363199E+03 -0.48899797920E+03  0.56893029751E+03  0.00000000000E+00 0.  1.
         -4    1    3    3    0  503 -0.43178947490E+03  0.52614598121E+03 -0.22873965776E+03  0.71804844907E+03  0.00000000000E+00 0. -1.
</event>
<event>
 8    1  0.7008488E-006  0.1150931E+04  0.7818608E-02  0.8648755E-01
         21   -1    0    0  501  502  0.00000000000E+00  0.00000000000E+00  0.19777476477E+04  0.19777476477E+04  0.00000000000E+00 0.  1.
         21   -1    0    0  502  503 -0.00000000000E+00 -0.00000000000E+00 -0.68298023705E+03  0.68298023705E+03  0.00000000000E+00 0.  1.
   -9000010    2    1    2    0  503  0.53342396267E+03  0.14921024122E+03  0.38370624536E+03  0.11928472677E+04  0.98430142803E+03 0.  0.
    9000010    2    1    2  501    0 -0.53342396267E+03 -0.14921024122E+03  0.91106116525E+03  0.14678806171E+04  0.10088787038E+04 0.  0.
        -13    1    4    4    0    0  0.10055274666E+03  0.27168206917E+03  0.11910041324E+02  0.28993768610E+03  0.10566000000E+00 0.  1.
         13    1    3    3    0    0  0.45615606146E+03  0.55337260493E+03  0.26560680483E+03  0.76475262551E+03  0.10566000000E+00 0. -1.
          4    1    4    4  501    0 -0.63397670933E+03 -0.42089231040E+03  0.89915112393E+03  0.11779429310E+04  0.00000000000E+00 0.  1.
         -4    1    3    3    0  503  0.77267901210E+02 -0.40416236370E+03  0.11809944054E+03  0.42809464216E+03  0.00000000000E+00 0. -1.
</event>
<event>
 8    1  0.7008488E-006  0.1079727E+04  0.7818608E-02  0.8704292E-01
         21   -1    0    0  501  502  0.00000000000E+00  0.00000000000E+00  0.16837254281E+04  0.16837254281E+04  0.00000000000E+00 0. -1.
         21   -1    0    0  502  503 -0.00000000000E+00 -0.00000000000E+00 -0.76039329590E+03  0.76039329590E+03  0.00000000000E+00 0. -1.
   -9000010    2    1    2    0  503 -0.38824715677E+03  0.12810734449E+03  0.87804270006E+02  0.10832914465E+04  0.99933148748E+03 0.  0.
    9000010    2    1    2  501    0  0.38824715677E+03 -0.12810734449E+03  0.83552786214E+03  0.13608272774E+04  0.99327575431E+03 0.  0.
        -13    1    4    4    0    0 -0.11815335747E+03  0.12327851033E+03  0.77343907794E+03  0.79206428113E+03  0.10566000000E+00 0.  1.
         13    1    3    3    0    0  0.84945702372E+02 -0.36481437462E+03 -0.72320985852E+02  0.38149133206E+03  0.10566000000E+00 0. -1.
          4    1    4    4  501    0  0.50640051424E+03 -0.25138585482E+03  0.62088784205E+02  0.56876299629E+03  0.00000000000E+00 0.  1.
         -4    1    3    3    0  503 -0.47319285914E+03  0.49292171911E+03  0.16012525586E+03  0.70180011447E+03  0.00000000000E+00 0. -1.
</event>
<event>
 8    1  0.7008488E-006  0.1163975E+04  0.7818608E-02  0.8635068E-01
         21   -1    0    0  503  502  0.00000000000E+00  0.00000000000E+00  0.21228904939E+04  0.21228904939E+04  0.00000000000E+00 0.  1.
         21   -1    0    0  501  503 -0.00000000000E+00 -0.00000000000E+00 -0.63632194345E+03  0.63632194345E+03  0.00000000000E+00 0.  1.
    9000010    2    1    2  501    0  0.34058249813E+03 -0.47750678110E+03  0.70375910229E+03  0.13601892004E+04  0.10053997328E+04 0.  0.
   -9000010    2    1    2    0  502 -0.34058249813E+03  0.47750678110E+03  0.78280944817E+03  0.13990232370E+04  0.10002330836E+04 0.  0.
        -13    1    3    3    0    0  0.44391857904E+03 -0.40339700651E+03 -0.44241182882E+02  0.60145668431E+03  0.10566000000E+00 0.  1.
         13    1    4    4    0    0 -0.63485038134E+03  0.18332372860E+03  0.21462408945E+03  0.69477054276E+03  0.10566000000E+00 0. -1.
          4    1    3    3  501    0 -0.10333608090E+03 -0.74109774589E+02  0.74800028517E+03  0.75873251605E+03  0.00000000000E+00 0.  1.
         -4    1    4    4    0  502  0.29426788321E+03  0.29418305250E+03  0.56818535872E+03  0.70425269423E+03  0.00000000000E+00 0. -1.
</event>
<event>
 8    1  0.7008488E-006  0.1621064E+04  0.7818608E-02  0.8343738E-01
         21   -1    0    0  503  502  0.00000000000E+00  0.00000000000E+00  0.21565962284E+04  0.21565962284E+04  0.00000000000E+00 0.  1.
         21   -1    0    0  501  503 -0.00000000000E+00 -0.00000000000E+00 -0.14043880314E+04  0.14043880314E+04  0.00000000000E+00 0. -1.
    9000010    2    1    2  501    0 -0.93594681366E+03 -0.87194716141E+03 -0.27907542187E+03  0.16396837404E+04  0.98711265166E+03 0.  0.
   -9000010    2    1    2    0  502  0.93594681366E+03  0.87194716141E+03  0.10312836188E+04  0.19213005194E+04  0.99577180778E+03 0.  0.
        -13    1    3    3    0    0 -0.10043692758E+04 -0.54954823111E+03 -0.49325975282E+03  0.12466218735E+04  0.10566000000E+00 0.  1.
         13    1    4    4    0    0 -0.12298911081E+03  0.46428736898E+03  0.23228645487E+03  0.53352234316E+03  0.10566000000E+00 0. -1.
          4    1    3    3  501    0  0.68422462158E+02 -0.32239893030E+03  0.21418433094E+03  0.39306186690E+03  0.00000000000E+00 0.  1.
         -4    1    4    4    0  502  0.10589359245E+04  0.40765979243E+03  0.79899716392E+03  0.13877781762E+04  0.00000000000E+00 0. -1.
</event>
<event>
 8    1  0.7008488E-006  0.1138361E+04  0.7818608E-02  0.8658579E-01
         21   -1    0    0  503  502  0.00000000000E+00  0.00000000000E+00  0.17802694050E+04  0.17802694050E+04  0.00000000000E+00 0. -1.
         21   -1    0    0  501  503 -0.00000000000E+00 -0.00000000000E+00 -0.71803805127E+03  0.71803805127E+03  0.00000000000E+00 0. -1.
    9000010    2    1    2  501    0  0.48050414705E+03  0.21701727943E+03  0.45502924153E+03  0.12259352436E+04  0.10089028080E+04 0.  0.
   -9000010    2    1    2    0  502 -0.48050414705E+03 -0.21701727943E+03  0.60720211216E+03  0.12723722126E+04  0.98603037861E+03 0.  0.
        -13    1    3    3    0    0 -0.28640631670E+02 -0.22843607003E+03 -0.18447013840E+03  0.29501282514E+03  0.10566000000E+00 0.  1.
         13    1    4    4    0    0  0.14325703929E+03  0.44553729584E+01  0.59324446334E+03  0.61031257083E+03  0.10566000000E+00 0. -1.
          4    1    3    3  501    0  0.50914477872E+03  0.44545334945E+03  0.63949937994E+03  0.93092241845E+03  0.00000000000E+00 0.  1.
         -4    1    4    4    0  502 -0.62376118634E+03 -0.22147265238E+03  0.13957648817E+02  0.66205964180E+03  0.00000000000E+00 0. -1.
</event>
<event>
 8    1  0.7008488E-006  0.1094560E+04  0.7818608E-02  0.8691499E-01
         21   -1    0    0  503  502  0.00000000000E+00  0.00000000000E+00  0.85206498090E+03  0.85206498090E+03  0.00000000000E+00 0.  1.
         21   -1    0    0  501  503 -0.00000000000E+00 -0.00000000000E+00 -0.15018860612E+04  0.15018860612E+04  0.00000000000E+00 0.  1.
    9000010    2    1    2  501    0  0.39716003719E+03  0.17846814152E+03 -0.63218706127E+03  0.12640099891E+04  0.10042279619E+04 0.  0.
   -9000010    2    1    2    0  502 -0.39716003719E+03 -0.17846814152E+03 -0.17634018991E+02  0.10899410529E+04  0.99903631943E+03 0.  0.
        -13    1    3    3    0    0 -0.32848321088E+03  0.12773028082E+03 -0.11227192914E+03  0.36989355456E+03  0.10566000000E+00 0.  1.
         13    1    4    4    0    0  0.18641207530E+03  0.12189731933E+03 -0.30150175443E+03  0.37484895273E+03  0.10566000000E+00 0. -1.
          4    1    3    3  501    0  0.72564324807E+03  0.50737860697E+02 -0.51991513214E+03  0.89411643459E+03  0.00000000000E+00 0.  1.
         -4    1    4    4    0  502 -0.58357211249E+03 -0.30036546085E+03  0.28386773544E+03  0.71509210020E+03  0.00000000000E+00 0. -1.
</event>
<event>
 8    1  0.7008488E-006  0.1240347E+04  0.7818608E-02  0.8584492E-01
         21   -1    0    0  501  502  0.00000000000E+00  0.00000000000E+00  0.12112672856E+04  0.12112672856E+04  0.00000000000E+00 0.  1.
         21   -1    0    0  502  503 -0.00000000000E+00 -0.00000000000E+00 -0.12454643175E+04  0.12454643175E+04  0.00000000000E+00 0.  1.
   -9000010    2    1    2    0  503  0.64569540036E+03 -0.92016834694E+02 -0.16437452493E+03  0.12511909798E+04  0.10550214384E+04 0.  0.
    9000010    2    1    2  501    0 -0.64569540036E+03  0.92016834694E+02  0.13017749294E+03  0.12055406233E+04  0.10054811619E+04 0.  0.
        -13    1    4    4    0    0 -0.50746456024E+03  0.82690085811E+01 -0.40321095483E+03  0.64820347242E+03  0.10566000000E+00 0.  1.
         13    1    3    3    0    0  0.28311261657E+03  0.20743862522E+03 -0.54361377255E+03  0.64706992030E+03  0.10566000000E+00 0. -1.
          4    1    4    4  501    0 -0.13823084013E+03  0.83747826113E+02  0.53338844777E+03  0.55733715089E+03  0.00000000000E+00 0.  1.
         -4    1    3    3    0  503  0.36258278380E+03 -0.29945545991E+03  0.37923924762E+03  0.60412105949E+03  0.00000000000E+00 0. -1.
</event>
<event>
 8    1  0.7008488E-006  0.1060084E+04  0.7818608E-02  0.8724350E-01
         21   -1    0    0  503  502  0.00000000000E+00  0.00000000000E+00  0.56584586188E+03  0.56584586188E+03  0.00000000000E+00 0.  1.
         21   -1    0    0  501  503 -0.00000000000E+00 -0.00000000000E+00 -0.19537823650E+04  0.19537823650E+04  0.00000000000E+00 0.  1.
    9000010    2    1    2  501    0  0.87407792622E+02  0.36043944717E+03 -0.74204185362E+03  0.12782750297E+04  0.97252466379E+03 0.  0.
   -9000010    2    1    2    0  502 -0.87407792622E+02 -0.36043944717E+03 -0.64589464953E+03  0.12413531972E+04  0.99308667533E+03 0.  0.
        -13    1    3    3    0    0  0.43572124895E+03 -0.10642695274E+03 -0.23680806481E+03  0.50720584951E+03  0.10566000000E+00 0.  1.
         13    1    4    4    0    0  0.37687494302E+03 -0.40611462713E+03 -0.51592863875E+03  0.75706418783E+03  0.10566000000E+00 0. -1.
          4    1    3    3  501    0 -0.34831345633E+03  0.46686639991E+03 -0.50523378882E+03  0.77106918016E+03  0.00000000000E+00 0.  1.
         -4    1    4    4    0  502 -0.46428273564E+03  0.45675179965E+02 -0.12996601078E+03  0.48428900941E+03  0.00000000000E+00 0. -1.
</event>
<event>
 8    1  0.7008488E-006  0.1041721E+04  0.7818608E-02  0.8745523E-01
         21   -1    0    0  501  502  0.00000000000E+00  0.00000000000E+00  0.17346387449E+04  0.17346387449E+04  0.00000000000E+00 0. -1.
         21   -1    0    0  502  503 -0.00000000000E+00 -0.00000000000E+00 -0.74903391456E+03  0.74903391456E+03  0.00000000000E+00 0. -1.
   -9000010    2    1    2    0  503  0.37145687924E+01  0.27557825332E+03 -0.65677972085E+02  0.10036800555E+04  0.96286182089E+03 0.  0.
    9000010    2    1    2  501    0 -0.37145687924E+01 -0.27557825332E+03  0.10512828025E+04  0.14799926040E+04  0.10046021130E+04 0.  0.
        -13    1    4    4    0    0 -0.28725358314E+03 -0.54195108624E+03  0.43792004528E+03  0.75365746737E+03  0.10566000000E+00 0.  1.
         13    1    3    3    0    0  0.31532056777E+03 -0.16849762507E+03 -0.24375254741E+03  0.43270524107E+03  0.10566000000E+00 0. -1.
          4    1    4    4  501    0  0.28353901434E+03  0.26637283292E+03  0.61336275719E+03  0.72633513662E+03  0.00000000000E+00 0.  1.
         -4    1    3    3    0  503 -0.31160599898E+03  0.44407587839E+03  0.17807457533E+03  0.57097481446E+03  0.00000000000E+00 0. -1.
</event>
<event>
 8    1  0.7008488E-006  0.1191131E+04  0.7818608E-02  0.8616062E-01
         21   -1    0    0  503  502  0.00000000000E+00  0.00000000000E+00  0.11266517409E+04  0.11266517409E+04  0.00000000000E+00 0.  1.
         21   -1    0    0  501  503 -0.00000000000E+00 -0.00000000000E+00 -0.12585304841E+04  0.12585304841E+04  0.00000000000E+00 0.  1.
    9000010    2    1    2  501    0  0.58476225550E+03  0.21251734012E+03 -0.19406710300E+03  0.11924284408E+04  0.99855547199E+03 0.  0.
   -9000010    2    1    2    0  502 -0.58476225550E+03 -0.21251734012E+03  0.62188359766E+02  0.11927537842E+04  0.10157183086E+04 0.  0.
        -13    1    3    3    0    0  0.20276799265E+03 -0.32454728178E+03  0.19249384056E+03  0.42836863421E+03  0.10566000000E+00 0.  1.
         13    1    4    4    0    0  0.97791748060E+02 -0.19288679594E+03 -0.33801898560E+03  0.40127968778E+03  0.10566000000E+00 0. -1.
          4    1    3    3  501    0  0.38199426284E+03  0.53706462190E+03 -0.38656094357E+03  0.76405980658E+03  0.00000000000E+00 0.  1.
         -4    1    4    4    0  502 -0.68255400356E+03 -0.19630544177E+02  0.40020734536E+03  0.79147409643E+03  0.00000000000E+00 0. -1.
</event>
<event>
 8    1  0.7008488E-006  0.1129360E+04  0.7818608E-02  0.8668198E-01
         21   -1    0    0  501  502  0.00000000000E+00  0.00000000000E+00  0.82985670349E+03  0.82985670349E+03  0.00000000000E+00 0.  1.
         21   -1    0    0  502  503 -0.00000000000E+00 -0.00000000000E+00 -0.15585037733E+04  0.15585037733E+04  0.00000000000E+00 0.  1.
   -9000010    2    1    2    0  503 -0.29208228768E+03 -0.41490779005E+03 -0.60129654678E+03  0.12518428654E+04  0.97370040842E+03 0.  0.
    9000010    2    1    2  501    0  0.29208228768E+03  0.41490779005E+03 -0.12735052303E+03  0.11365176114E+04  0.10089566831E+04 0.  0.
        -13    1    4    4    0    0  0.56422426198E+03  0.55136556022E+03 -0.21874283497E+03  0.81865831567E+03  0.10566000000E+00 0.  1.
         13    1    3    3    0    0  0.29496736363E+03 -0.56385070013E+01 -0.42059658432E+03  0.51374997447E+03  0.10566000000E+00 0. -1.
          4    1    4    4  501    0 -0.27214197429E+03 -0.13645777017E+03  0.91392311941E+02  0.31785929575E+03  0.00000000000E+00 0.  1.
         -4    1    3    3    0  503 -0.58704965131E+03 -0.40926928304E+03 -0.18069996246E+03  0.73809289089E+03  0.00000000000E+00 0. -1.
</event>
<event>
 8    1  0.7008488E-006  0.1133774E+04  0.7818608E-02  0.8659845E-01
         21   -1    0    0  503  502  0.00000000000E+00  0.00000000000E+00  0.83122776321E+03  0.83122776321E+03  0.00000000000E+00 0.  1.
         21   -1    0    0  501  503 -0.00000000000E+00 -0.00000000000E+00 -0.15996032293E+04  0.15996032293E+04  0.00000000000E+00 0.  1.
    9000010    2    1    2  501    0 -0.25880830768E+03 -0.45082896200E+03 -0.62941580804E+03  0.12967682765E+04  0.10075788855E+04 0.  0.
   -9000010    2    1    2    0  502  0.25880830768E+03  0.45082896200E+03 -0.13895965807E+03  0.11340627160E+04  0.99827850029E+03 0.  0.
        -13    1    3    3    0    0 -0.56112143973E+03  0.25574719862E+02 -0.39013863131E+03  0.68390021145E+03  0.10566000000E+00 0.  1.
         13    1    4    4    0    0 -0.16493139710E+03  0.56003895789E+03  0.15849148082E+03  0.60495087466E+03  0.10566000000E+00 0. -1.
          4    1    3    3  501    0  0.30231313205E+03 -0.47640368186E+03 -0.23927717673E+03  0.61286806509E+03  0.00000000000E+00 0.  1.
         -4    1    4    4    0  502  0.42373970478E+03 -0.10920999589E+03 -0.29745113889E+03  0.52911184133E+03  0.00000000000E+00 0. -1.
</event>
<event>
 8    1  0.7008488E-006  0.1015489E+04  0.7818608E-02  0.8760775E-01
         21   -1    0    0  501  502  0.00000000000E+00  0.00000000000E+00  0.89663302416E+03  0.89663302416E+03  0.00000000000E+00 0. -1.
         21   -1    0    0  502  503 -0.00000000000E+00 -0.00000000000E+00 -0.11490174108E+04  0.11490174108E+04  0.00000000000E+00 0. -1.
   -9000010    2    1    2    0  503  0.12491854597E+03 -0.12409306525E+03 -0.16723348676E+03  0.10265980572E+04  0.99746318230E+03 0.  0.
    9000010    2    1    2  501    0 -0.12491854597E+03  0.12409306525E+03 -0.85150899867E+02  0.10190523777E+04  0.10001066647E+04 0.  0.
        -13    1    4    4    0    0 -0.27096793138E+03 -0.12136822584E+03 -0.46017518843E+03  0.54764503220E+03  0.10566000000E+00 0.  1.
         13    1    3    3    0    0  0.54193328060E+03 -0.44795349983E+02  0.56586981275E+02  0.54671784461E+03  0.10566000000E+00 0. -1.
          4    1    4    4  501    0  0.14604938541E+03  0.24546129109E+03  0.37502428856E+03  0.47140734552E+03  0.00000000000E+00 0.  1.
         -4    1    3    3    0  503 -0.41701473463E+03 -0.79297715265E+02 -0.22382046803E+03  0.47988021261E+03  0.00000000000E+00 0. -1.
</event>
<event>
 8    1  0.7008488E-006  0.1150749E+04  0.7818608E-02  0.8671084E-01
         21   -1    0    0  503  502  0.00000000000E+00  0.00000000000E+00  0.18392333540E+04  0.18392333540E+04  0.00000000000E+00 0.  1.
         21   -1    0    0  501  503 -0.00000000000E+00 -0.00000000000E+00 -0.78748825935E+03  0.78748825935E+03  0.00000000000E+00 0.  1.
    9000010    2    1    2  501    0 -0.48722398882E+03  0.13517751450E+03 -0.10298414859E+02  0.11507946590E+04  0.10337127812E+04 0.  0.
   -9000010    2    1    2    0  502  0.48722398882E+03 -0.13517751450E+03  0.10620435096E+04  0.14759269544E+04  0.89149525122E+03 0.  0.
        -13    1    3    3    0    0 -0.57683201242E+03  0.22868812466E+03  0.38809236020E+03  0.73188053678E+03  0.10566000000E+00 0.  1.
         13    1    4    4    0    0  0.69878253174E+03 -0.23565322683E+03  0.57369330111E+03  0.93431979797E+03  0.10566000000E+00 0. -1.
          4    1    3    3  501    0  0.89608023599E+02 -0.93510610164E+02 -0.39839077506E+03  0.41891412217E+03  0.00000000000E+00 0.  1.
         -4    1    4    4    0  502 -0.21155854292E+03  0.10047571233E+03  0.48835020844E+03  0.54160715647E+03  0.00000000000E+00 0. -1.
</event>
<event>
 8    1  0.7008488E-006  0.1078461E+04  0.7818608E-02  0.8719884E-01
         21   -1    0    0  503  502  0.00000000000E+00  0.00000000000E+00  0.47610152592E+03  0.47610152592E+03  0.00000000000E+00 0. -1.
         21   -1    0    0  501  503 -0.00000000000E+00 -0.00000000000E+00 -0.25133786271E+04  0.25133786271E+04  0.00000000000E+00 0. -1.
    9000010    2    1    2  501    0 -0.38518938284E+03  0.43871661387E+02 -0.14372386564E+04  0.17553306350E+04  0.93018014362E+03 0.  0.
   -9000010    2    1    2    0  502  0.38518938284E+03 -0.43871661387E+02 -0.60003844485E+03  0.12341495180E+04  0.10063713600E+04 0.  0.
        -13    1    3    3    0    0 -0.17672004340E+03 -0.33894243844E+03 -0.11992552752E+04  0.12586997960E+04  0.10566000000E+00 0.  1.
         13    1    4    4    0    0  0.52453552750E+03  0.11970026689E+03 -0.78428958278E+03  0.95109191686E+03  0.10566000000E+00 0. -1.
          4    1    3    3  501    0 -0.20846933944E+03  0.38281409983E+03 -0.23798338118E+03  0.49663083898E+03  0.00000000000E+00 0.  1.
         -4    1    4    4    0  502 -0.13934614466E+03 -0.16357192828E+03  0.18425113793E+03  0.28305760117E+03  0.00000000000E+00 0. -1.
</event>
<event>
 8    1  0.7008488E-006  0.1397573E+04  0.7818608E-02  0.8471326E-01
         21   -1    0    0  503  502  0.00000000000E+00  0.00000000000E+00  0.13208641067E+04  0.13208641067E+04  0.00000000000E+00 0.  1.
         21   -1    0    0  501  503 -0.00000000000E+00 -0.00000000000E+00 -0.19900625482E+04  0.19900625482E+04  0.00000000000E+00 0.  1.
    9000010    2    1    2  501    0  0.87604182619E+03 -0.43138362526E+03 -0.11753644049E+04  0.18245165252E+04  0.99691421541E+03 0.  0.
   -9000010    2    1    2    0  502 -0.87604182619E+03  0.43138362526E+03  0.50616596341E+03  0.14864101297E+04  0.99983497533E+03 0.  0.
        -13    1    3    3    0    0 -0.89958581859E+02  0.60633790402E+02 -0.57529781559E+03  0.58543709378E+03  0.10566000000E+00 0.  1.
         13    1    4    4    0    0 -0.71468241763E+03 -0.15140261561E+03  0.56289300830E+02  0.73270881436E+03  0.10566000000E+00 0. -1.
          4    1    3    3  501    0  0.96600040804E+03 -0.49201741566E+03 -0.60006658932E+03  0.12390794314E+04  0.00000000000E+00 0.  1.
         -4    1    4    4    0  502 -0.16135940855E+03  0.58278624086E+03  0.44987666258E+03  0.75370131538E+03  0.00000000000E+00 0. -1.
</event>
<event>
 8    1  0.7008488E-006  0.1210104E+04  0.7818608E-02  0.8605391E-01
         21   -1    0    0  503  502  0.00000000000E+00  0.00000000000E+00  0.67056641185E+03  0.67056641185E+03  0.00000000000E+00 0.  1.
         21   -1    0    0  501  503 -0.00000000000E+00 -0.00000000000E+00 -0.21232721411E+04  0.21232721411E+04  0.00000000000E+00 0. -1.
    9000010    2    1    2  501    0 -0.52852958129E+03 -0.42588151904E+03 -0.72729187704E+03  0.13829605356E+04  0.96068089501E+03 0.  0.
   -9000010    2    1    2    0  502  0.52852958129E+03  0.42588151904E+03 -0.72541385220E+03  0.14108780173E+04  0.10018148214E+04 0.  0.
        -13    1    3    3    0    0 -0.57249459026E+03 -0.56689724527E+03 -0.19279328664E+03  0.82842730828E+03  0.10566000000E+00 0.  1.
         13    1    4    4    0    0 -0.97223643717E+02  0.50692995891E+03 -0.10652636067E+03  0.52704676910E+03  0.10566000000E+00 0. -1.
          4    1    3    3  501    0  0.43965008962E+02  0.14101572623E+03 -0.53449859040E+03  0.55453322731E+03  0.00000000000E+00 0.  1.
         -4    1    4    4    0  502  0.62575322501E+03 -0.81048439866E+02 -0.61888749153E+03  0.88383124825E+03  0.00000000000E+00 0. -1.
</event>
<event>
 8    1  0.7008488E-006  0.1252415E+04  0.7818608E-02  0.8571314E-01
         21   -1    0    0  501  502  0.00000000000E+00  0.00000000000E+00  0.70554854927E+03  0.70554854927E+03  0.00000000000E+00 0. -1.
         21   -1    0    0  502  503 -0.00000000000E+00 -0.00000000000E+00 -0.21957846607E+04  0.21957846607E+04  0.00000000000E+00 0.  1.
   -9000010    2    1    2    0  503 -0.10996909612E+03 -0.72950751704E+03 -0.67671262694E+03  0.14078930500E+04  0.98992345229E+03 0.  0.
    9000010    2    1    2  501    0  0.10996909612E+03  0.72950751704E+03 -0.81352348449E+03  0.14934401599E+04  0.10120615752E+04 0.  0.
        -13    1    4    4    0    0 -0.11477414673E+03  0.19309410092E+03 -0.87985630050E+03  0.90807794669E+03  0.10566000000E+00 0.  1.
         13    1    3    3    0    0 -0.49627576624E+03 -0.22876536599E+03 -0.10731907056E+03  0.55690270506E+03  0.10566000000E+00 0. -1.
          4    1    4    4  501    0  0.22474324285E+03  0.53641341611E+03  0.66332816015E+02  0.58536221322E+03  0.00000000000E+00 0.  1.
         -4    1    3    3    0  503  0.38630667012E+03 -0.50074215105E+03 -0.56939355638E+03  0.85099034499E+03  0.00000000000E+00 0. -1.
</event>
<event>
 8    1  0.7008488E-006  0.1090664E+04  0.7818608E-02  0.8695210E-01
         21   -1    0    0  503  502  0.00000000000E+00  0.00000000000E+00  0.13325684475E+04  0.13325684475E+04  0.00000000000E+00 0.  1.
         21   -1    0    0  501  503 -0.00000000000E+00 -0.00000000000E+00 -0.88728926528E+03  0.88728926528E+03  0.00000000000E+00 0.  1.
    9000010    2    1    2  501    0 -0.31628318926E+03  0.27166043170E+03  0.20906715489E+03  0.11039076311E+04  0.10005341258E+04 0.  0.
   -9000010    2    1    2    0  502  0.31628318926E+03 -0.27166043170E+03  0.23621202732E+03  0.11159500816E+04  0.10078263823E+04 0.  0.
        -13    1    3    3    0    0 -0.68167518766E+03  0.18221251086E+03  0.16927044361E+03  0.72562728369E+03  0.10566000000E+00 0.  1.
         13    1    4    4    0    0 -0.42580464411E+02  0.15113358940E+03  0.48379098874E+03  0.50863364984E+03  0.10566000000E+00 0. -1.
          4    1    3    3  501    0  0.36539199840E+03  0.89447920834E+02  0.39796711277E+02  0.37828034745E+03  0.00000000000E+00 0.  1.
         -4    1    4    4    0  502  0.35886365367E+03 -0.42279402110E+03 -0.24757896142E+03  0.60731643180E+03  0.00000000000E+00 0. -1.
</event>
<event>
 8    1  0.7008488E-006  0.1166503E+04  0.7818608E-02  0.8647340E-01
         21   -1    0    0  503  502  0.00000000000E+00  0.00000000000E+00  0.59102235957E+03  0.59102235957E+03  0.00000000000E+00 0.  1.
         21   -1    0    0  501  503 -0.00000000000E+00 -0.00000000000E+00 -0.22284056641E+04  0.22284056641E+04  0.00000000000E+00 0.  1.
    9000010    2    1    2  501    0  0.48622994709E+03 -0.42852559956E+03 -0.10449620686E+04  0.15111118158E+04  0.87832764049E+03 0.  0.
   -9000010    2    1    2    0  502 -0.48622994709E+03  0.42852559956E+03 -0.59242123590E+03  0.13083162079E+04  0.96988382196E+03 0.  0.
        -13    1    3    3    0    0  0.61129130705E+03 -0.16756557486E+03 -0.27941349150E+03  0.69269560006E+03  0.10566000000E+00 0.  1.
         13    1    4    4    0    0  0.73386759279E+02  0.55341730791E+03 -0.13377884537E+03  0.57406717705E+03  0.10566000000E+00 0. -1.
          4    1    3    3  501    0 -0.12506135997E+03 -0.26096002470E+03 -0.76554857708E+03  0.81841621569E+03  0.00000000000E+00 0.  1.
         -4    1    4    4    0  502 -0.55961670636E+03 -0.12489170836E+03 -0.45864239053E+03  0.73424903081E+03  0.00000000000E+00 0. -1.
</event>
<event>
 8    1  0.7008488E-006  0.1134694E+04  0.7818608E-02  0.8659583E-01
         21   -1    0    0  501  502  0.00000000000E+00  0.00000000000E+00  0.66578944636E+03  0.66578944636E+03  0.00000000000E+00 0. -1.
         21   -1    0    0  502  503 -0.00000000000E+00 -0.00000000000E+00 -0.20045750685E+04  0.20045750685E+04  0.00000000000E+00 0. -1.
   -9000010    2    1    2    0  503 -0.19164859275E+03  0.49931015110E+03 -0.94740244148E+03  0.14700683622E+04  0.98868083490E+03 0.  0.
    9000010    2    1    2  501    0  0.19164859275E+03 -0.49931015110E+03 -0.39138318068E+03  0.12002961527E+04  0.10007448476E+04 0.  0.
        -13    1    4    4    0    0 -0.11855806098E+03 -0.22036049840E+03  0.30131658658E+03  0.39167136683E+03  0.10566000000E+00 0.  1.
         13    1    3    3    0    0  0.88789417650E+02  0.59460490763E+03 -0.10023560145E+04  0.11688268254E+04  0.10566000000E+00 0. -1.
          4    1    4    4  501    0  0.31020665373E+03 -0.27894965270E+03 -0.69269976726E+03  0.80862478587E+03  0.00000000000E+00 0.  1.
         -4    1    3    3    0  503 -0.28043801040E+03 -0.95294756528E+02  0.54953572996E+02  0.30124153678E+03  0.00000000000E+00 0. -1.
</event>
<event>
 8    1  0.7008488E-006  0.1203302E+04  0.7818608E-02  0.8621203E-01
         21   -1    0    0  503  502  0.00000000000E+00  0.00000000000E+00  0.95530656357E+03  0.95530656357E+03  0.00000000000E+00 0. -1.
         21   -1    0    0  501  503 -0.00000000000E+00 -0.00000000000E+00 -0.14080137900E+04  0.14080137900E+04  0.00000000000E+00 0. -1.
    9000010    2    1    2  501    0 -0.53105937961E+03 -0.27496744641E+03 -0.26322351079E+03  0.12317561273E+04  0.10441768908E+04 0.  0.
   -9000010    2    1    2    0  502  0.53105937961E+03  0.27496744641E+03 -0.18948371566E+03  0.11315642263E+04  0.94175493549E+03 0.  0.
        -13    1    3    3    0    0 -0.17670173468E+03 -0.22448027004E+03 -0.64681944331E+03  0.70709992086E+03  0.10566000000E+00 0.  1.
         13    1    4    4    0    0  0.53563520216E+03  0.36087456104E+03 -0.49527642158E+03  0.81390064721E+03  0.10566000000E+00 0. -1.
          4    1    3    3  501    0 -0.35435764493E+03 -0.50487176368E+02  0.38359593252E+03  0.52465620643E+03  0.00000000000E+00 0.  1.
         -4    1    4    4    0  502 -0.45758225529E+01 -0.85907114632E+02  0.30579270591E+03  0.31766357910E+03  0.00000000000E+00 0. -1.
</event>
<event>
 8    1  0.7008488E-006  0.1394855E+04  0.7818608E-02  0.8474229E-01
         21   -1    0    0  503  502  0.00000000000E+00  0.00000000000E+00  0.14325342450E+04  0.14325342450E+04  0.00000000000E+00 0. -1.
         21   -1    0    0  501  503 -0.00000000000E+00 -0.00000000000E+00 -0.13528583095E+04  0.13528583095E+04  0.00000000000E+00 0. -1.
    9000010    2    1    2  501    0  0.13248129307E+03 -0.95050866045E+03  0.11635258994E+03  0.13900558529E+04  0.99884900885E+03 0.  0.
   -9000010    2    1    2    0  502 -0.13248129307E+03  0.95050866045E+03 -0.36676654399E+02  0.13953367016E+04  0.10122259269E+04 0.  0.
        -13    1    3    3    0    0  0.13811793209E+03 -0.85930825868E+03  0.49451165267E+03  0.10010140021E+04  0.10566000000E+00 0.  1.
         13    1    4    4    0    0  0.25756515511E+03  0.61839404310E+02 -0.28955149480E+03  0.39243343431E+03  0.10566000000E+00 0. -1.
          4    1    3    3  501    0 -0.56366390208E+01 -0.91200401770E+02 -0.37815906273E+03  0.38904185084E+03  0.00000000000E+00 0.  1.
         -4    1    4    4    0  502 -0.39004644818E+03  0.88866925614E+03  0.25287484040E+03  0.10029032672E+04  0.00000000000E+00 0. -1.
</event>
<event>
 8    1  0.7008488E-006  0.1169992E+04  0.7818608E-02  0.8630447E-01
         21   -1    0    0  501  502  0.00000000000E+00  0.00000000000E+00  0.54398124741E+03  0.54398124741E+03  0.00000000000E+00 0. -1.
         21   -1    0    0  502  503 -0.00000000000E+00 -0.00000000000E+00 -0.25239151245E+04  0.25239151245E+04  0.00000000000E+00 0. -1.
   -9000010    2    1    2    0  503 -0.48731006923E+03 -0.35808949057E+03 -0.86290215436E+03  0.14537821516E+04  0.10015903501E+04 0.  0.
    9000010    2    1    2  501    0  0.48731006923E+03  0.35808949057E+03 -0.11170317227E+04  0.16141142203E+04  0.99594460680E+03 0.  0.
        -13    1    4    4    0    0  0.39769494486E+03  0.73102681119E+00  0.40132272985E+02  0.39971541635E+03  0.10566000000E+00 0.  1.
         13    1    3    3    0    0  0.12053497547E+03 -0.22613548625E+03  0.12597957776E+03  0.28554649994E+03  0.10566000000E+00 0. -1.
          4    1    4    4  501    0  0.89615124377E+02  0.35735846376E+03 -0.11571639957E+04  0.12143988039E+04  0.00000000000E+00 0.  1.
         -4    1    3    3    0  503 -0.60784504470E+03 -0.13195400432E+03 -0.98888173213E+03  0.11682356516E+04  0.00000000000E+00 0. -1.
</event>
<event>
 8    1  0.7008488E-006  0.1085183E+04  0.7818608E-02  0.8698607E-01
         21   -1    0    0  501  502  0.00000000000E+00  0.00000000000E+00  0.19755916579E+04  0.19755916579E+04  0.00000000000E+00 0.  1.
         21   -1    0    0  502  503 -0.00000000000E+00 -0.00000000000E+00 -0.69154795361E+03  0.69154795361E+03  0.00000000000E+00 0.  1.
   -9000010    2    1    2    0  503  0.40863830656E+03 -0.13791152573E+03  0.14516707794E+03  0.10940340244E+04  0.99490306643E+03 0.  0.
    9000010    2    1    2  501    0 -0.40863830656E+03  0.13791152573E+03  0.11388766263E+04  0.15731055870E+04  0.99579935904E+03 0.  0.
        -13    1    4    4    0    0 -0.15173873492E+03  0.29267570186E+03 -0.61906808587E+02  0.33543430690E+03  0.10566000000E+00 0.  1.
         13    1    3    3    0    0  0.69922225079E+03  0.65836993321E+02 -0.19966569108E+02  0.70259870533E+03  0.10566000000E+00 0. -1.
          4    1    4    4  501    0 -0.25689957164E+03 -0.15476417612E+03  0.12007834349E+04  0.12376712802E+04  0.00000000000E+00 0.  1.
         -4    1    3    3    0  503 -0.29058394423E+03 -0.20374851906E+03  0.16513364704E+03  0.39143531911E+03  0.00000000000E+00 0. -1.
</event>
<event>
 8    1  0.7008488E-006  0.1082619E+04  0.7818608E-02  0.8702104E-01
         21   -1    0    0  503  502  0.00000000000E+00  0.00000000000E+00  0.71792008837E+03  0.71792008837E+03  0.00000000000E+00 0.  1.
         21   -1    0    0  501  503 -0.00000000000E+00 -0.00000000000E+00 -0.17371247182E+04  0.17371247182E+04  0.00000000000E+00 0.  1.
    9000010    2    1    2  501    0  0.68505892027E+02 -0.38064215247E+03 -0.19222996801E+03  0.10927116660E+04  0.10037354826E+04 0.  0.
   -9000010    2    1    2    0  502 -0.68505892027E+02  0.38064215247E+03 -0.82697466185E+03  0.13623331406E+04  0.10111790094E+04 0.  0.
        -13    1    3    3    0    0  0.49113288513E+03 -0.20720778964E+03  0.11088829430E+03  0.54446561316E+03  0.10566000000E+00 0.  1.
         13    1    4    4    0    0  0.29695408327E+03  0.24977296839E+03  0.61391697313E+02  0.39285775412E+03  0.10566000000E+00 0. -1.
          4    1    3    3  501    0 -0.42262699310E+03 -0.17343436283E+03 -0.30311826231E+03  0.54824605284E+03  0.00000000000E+00 0.  1.
         -4    1    4    4    0  502 -0.36545997530E+03  0.13086918409E+03 -0.88836635916E+03  0.96947538648E+03  0.00000000000E+00 0. -1.
</event>
<event>
 8    1  0.7008488E-006  0.1797723E+04  0.7818608E-02  0.8258303E-01
         21   -1    0    0  503  502  0.00000000000E+00  0.00000000000E+00  0.14050242435E+04  0.14050242435E+04  0.00000000000E+00 0. -1.
         21   -1    0    0  501  503 -0.00000000000E+00 -0.00000000000E+00 -0.22813104289E+04  0.22813104289E+04  0.00000000000E+00 0.  1.
    9000010    2    1    2  501    0 -0.41389578369E+03 -0.14174039486E+04 -0.34912831136E+03  0.18129142732E+04  0.99218139022E+03 0.  0.
   -9000010    2    1    2    0  502  0.41389578369E+03  0.14174039486E+04 -0.52715787405E+03  0.18734203992E+04  0.10254096228E+04 0.  0.
        -13    1    3    3    0    0 -0.16968720523E+03  0.83407360222E+02 -0.21522045075E+03  0.28647929933E+03  0.10566000000E+00 0.  1.
         13    1    4    4    0    0 -0.92351504893E+02  0.70676121349E+03  0.19704303729E+03  0.73950401152E+03  0.10566000000E+00 0. -1.
          4    1    3    3  501    0 -0.24420857846E+03 -0.15008113088E+04 -0.13390786062E+03  0.15264349739E+04  0.00000000000E+00 0.  1.
         -4    1    4    4    0  502  0.50624728858E+03  0.71064273511E+03 -0.72420091134E+03  0.11339163876E+04  0.00000000000E+00 0. -1.
</event>
<event>
 8    1  0.7008488E-006  0.1122377E+04  0.7818608E-02  0.8704265E-01
         21   -1    0    0  501  502  0.00000000000E+00  0.00000000000E+00  0.10229134351E+04  0.10229134351E+04  0.00000000000E+00 0.  1.
         21   -1    0    0  502  503 -0.00000000000E+00 -0.00000000000E+00 -0.11665978388E+04  0.11665978388E+04  0.00000000000E+00 0.  1.
   -9000010    2    1    2    0  503  0.34741424775E+03  0.36406186960E+03 -0.40258555947E+03  0.10376608799E+04  0.81328178672E+03 0.  0.
    9000010    2    1    2  501    0 -0.34741424775E+03 -0.36406186960E+03  0.25890115577E+03  0.11518503941E+04  0.10032406578E+04 0.  0.
        -13    1    4    4    0    0 -0.61396942828E+03 -0.21266590323E+03 -0.12386662784E+03  0.66145914304E+03  0.10566000000E+00 0.  1.
         13    1    3    3    0    0  0.61344571837E+03  0.29921431991E+03 -0.29114166578E+03  0.74202987766E+03  0.10566000000E+00 0. -1.
          4    1    4    4  501    0  0.26655518053E+03 -0.15139596637E+03  0.38276778361E+03  0.49039125101E+03  0.00000000000E+00 0.  1.
         -4    1    3    3    0  503 -0.26603147062E+03  0.64847549691E+02 -0.11144389369E+03  0.29563100227E+03  0.00000000000E+00 0. -1.
</event>
<event>
 8    1  0.7008488E-006  0.1064463E+04  0.7818608E-02  0.8745334E-01
         21   -1    0    0  503  502  0.00000000000E+00  0.00000000000E+00  0.99755088590E+03  0.99755088590E+03  0.00000000000E+00 0.  1.
         21   -1    0    0  501  503 -0.00000000000E+00 -0.00000000000E+00 -0.10065186386E+04  0.10065186386E+04  0.00000000000E+00 0.  1.
    9000010    2    1    2  501    0 -0.32996498390E+03 -0.10136926696E+03  0.70155578333E+01  0.93948695265E+03  0.87374704421E+03 0.  0.
   -9000010    2    1    2    0  502  0.32996498390E+03  0.10136926696E+03 -0.15983310570E+02  0.10645825719E+04  0.10069399025E+04 0.  0.
        -13    1    3    3    0    0  0.32536164279E+02  0.32879938334E+03  0.14413559053E+03  0.36047568031E+03  0.10566000000E+00 0.  1.
         13    1    4    4    0    0  0.38196910793E+03  0.45118110235E+03  0.22943143189E+03  0.63411637704E+03  0.10566000000E+00 0. -1.
          4    1    3    3  501    0 -0.36250114818E+03 -0.43016865030E+03 -0.13712003269E+03  0.57901127235E+03  0.00000000000E+00 0.  1.
         -4    1    4    4    0  502 -0.52004124026E+02 -0.34981183538E+03 -0.24541474246E+03  0.43046619484E+03  0.00000000000E+00 0. -1.
</event>
<event>
 8    1  0.7008488E-006  0.1116782E+04  0.7818608E-02  0.8674068E-01
         21   -1    0    0  503  502  0.00000000000E+00  0.00000000000E+00  0.18614379944E+04  0.18614379944E+04  0.00000000000E+00 0.  1.
         21   -1    0    0  501  503 -0.00000000000E+00 -0.00000000000E+00 -0.76490890590E+03  0.76490890590E+03  0.00000000000E+00 0.  1.
    9000010    2    1    2  501    0  0.25870043553E+02  0.47729260897E+03  0.10229712285E+04  0.15071449347E+04  0.99826761249E+03 0.  0.
   -9000010    2    1    2    0  502 -0.25870043553E+02 -0.47729260897E+03  0.73557859995E+02  0.11192019656E+04  0.10093189720E+04 0.  0.
        -13    1    3    3    0    0 -0.28011878001E+03  0.44036886317E+03  0.96506038495E+02  0.53075860162E+03  0.10566000000E+00 0.  1.
         13    1    4    4    0    0  0.15596807418E+03 -0.12841182379E+03 -0.43299855766E+03  0.47781104922E+03  0.10566000000E+00 0. -1.
          4    1    3    3  501    0  0.30598882356E+03  0.36923745799E+02  0.92646519000E+03  0.97638633309E+03  0.00000000000E+00 0.  1.
         -4    1    4    4    0  502 -0.18183811774E+03 -0.34888078518E+03  0.50655641766E+03  0.64139091637E+03  0.00000000000E+00 0. -1.
</event>
<event>
 8    1  0.7008488E-006  0.1196704E+04  0.7818608E-02  0.8612233E-01
         21   -1    0    0  501  502  0.00000000000E+00  0.00000000000E+00  0.15569332845E+04  0.15569332845E+04  0.00000000000E+00 0. -1.
         21   -1    0    0  502  503 -0.00000000000E+00 -0.00000000000E+00 -0.94032443844E+03  0.94032443844E+03  0.00000000000E+00 0. -1.
   -9000010    2    1    2    0  503 -0.63261845698E+03 -0.11557009318E+03  0.71170060986E+02  0.11821139683E+04  0.98932588058E+03 0.  0.
    9000010    2    1    2  501    0  0.63261845698E+03  0.11557009318E+03  0.54543878508E+03  0.13151437546E+04  0.10092259749E+04 0.  0.
        -13    1    4    4    0    0  0.35353976909E+03 -0.36484355238E+03  0.56421310589E+03  0.75923489518E+03  0.10566000000E+00 0.  1.
         13    1    3    3    0    0  0.21569118651E+03 -0.22129186793E+03  0.10555773668E+03  0.32655049485E+03  0.10566000000E+00 0. -1.
          4    1    4    4  501    0  0.27907868789E+03  0.48041364556E+03 -0.18774320811E+02  0.55590885944E+03  0.00000000000E+00 0.  1.
         -4    1    3    3    0  503 -0.84830964350E+03  0.10572177474E+03 -0.34387675694E+02  0.85556347347E+03  0.00000000000E+00 0. -1.
</event>
<event>
 8    1  0.7008488E-006  0.1078215E+04  0.7818608E-02  0.8704847E-01
         21   -1    0    0  501  502  0.00000000000E+00  0.00000000000E+00  0.15610777213E+04  0.15610777213E+04  0.00000000000E+00 0. -1.
         21   -1    0    0  502  503 -0.00000000000E+00 -0.00000000000E+00 -0.89372218849E+03  0.89372218849E+03  0.00000000000E+00 0. -1.
   -9000010    2    1    2    0  503 -0.24282856074E+03 -0.30056036816E+03 -0.17027663355E+03  0.10894515306E+04  0.10042949073E+04 0.  0.
    9000010    2    1    2  501    0  0.24282856074E+03  0.30056036816E+03  0.83763216639E+03  0.13653483792E+04  0.10066013638E+04 0.  0.
        -13    1    4    4    0    0  0.41121280606E+03 -0.15467210435E+03  0.52729174591E+02  0.44249272169E+03  0.10566000000E+00 0.  1.
         13    1    3    3    0    0 -0.10211866473E+03  0.37169387239E+03 -0.10513312950E+03  0.39954667129E+03  0.10566000000E+00 0. -1.
          4    1    4    4  501    0 -0.16838424532E+03  0.45523247252E+03  0.78490299179E+03  0.92285565753E+03  0.00000000000E+00 0.  1.
         -4    1    3    3    0  503 -0.14070989601E+03 -0.67225424055E+03 -0.65143504052E+02  0.68990485931E+03  0.00000000000E+00 0. -1.
</event>
<event>
 8    1  0.7008488E-006  0.1219145E+04  0.7818608E-02  0.8593447E-01
         21   -1    0    0  501  502  0.00000000000E+00  0.00000000000E+00  0.10830046463E+04  0.10830046463E+04  0.00000000000E+00 0.  1.
         21   -1    0    0  502  503 -0.00000000000E+00 -0.00000000000E+00 -0.14746234987E+04  0.14746234987E+04  0.00000000000E+00 0.  1.
   -9000010    2    1    2    0  503  0.69884350918E+03 -0.46493169524E+01 -0.54441513961E+03  0.13351789338E+04  0.99895499130E+03 0.  0.
    9000010    2    1    2  501    0 -0.69884350918E+03  0.46493169524E+01  0.15279628725E+03  0.12224492111E+04  0.99127771180E+03 0.  0.
        -13    1    4    4    0    0 -0.38431378514E+03 -0.11538785744E+03  0.56326662618E+03  0.69157844561E+03  0.10566000000E+00 0.  1.
         13    1    3    3    0    0  0.56831322599E+03 -0.32869031416E+03  0.36258229751E+02  0.65751951747E+03  0.10566000000E+00 0. -1.
          4    1    4    4  501    0 -0.31452972404E+03  0.12003717439E+03 -0.41047033893E+03  0.53087076552E+03  0.00000000000E+00 0.  1.
         -4    1    3    3    0  503  0.13053028319E+03  0.32404099721E+03 -0.58067336937E+03  0.67765941637E+03  0.00000000000E+00 0. -1.
</event>
<event>
 8    1  0.7008488E-006  0.1090151E+04  0.7818608E-02  0.8694959E-01
         21   -1    0    0  503  502  0.00000000000E+00  0.00000000000E+00  0.18089795371E+04  0.18089795371E+04  0.00000000000E+00 0.  1.
         21   -1    0    0  501  503 -0.00000000000E+00 -0.00000000000E+00 -0.68380398436E+03  0.68380398436E+03  0.00000000000E+00 0. -1.
    9000010    2    1    2  501    0 -0.39843760565E+03 -0.19532448217E+03  0.30698041099E+03  0.11325482143E+04  0.99575313505E+03 0.  0.
   -9000010    2    1    2    0  502  0.39843760565E+03  0.19532448217E+03  0.81819514178E+03  0.13602353072E+04  0.99191361624E+03 0.  0.
        -13    1    3    3    0    0 -0.54125422389E+03  0.15267159616E+03  0.45991142795E+03  0.72648694680E+03  0.10566000000E+00 0.  1.
         13    1    4    4    0    0 -0.11592602090E+03  0.44525298747E+03  0.15723949962E+03  0.48622354589E+03  0.10566000000E+00 0. -1.
          4    1    3    3  501    0  0.14281661824E+03 -0.34799607833E+03 -0.15293101696E+03  0.40606126746E+03  0.00000000000E+00 0.  1.
         -4    1    4    4    0  502  0.51436362654E+03 -0.24992850530E+03  0.66095564215E+03  0.87401176134E+03  0.00000000000E+00 0. -1.
</event>
<event>
 8    1  0.7008488E-006  0.1491628E+04  0.7818608E-02  0.8415123E-01
         21   -1    0    0  501  502  0.00000000000E+00  0.00000000000E+00  0.14434013344E+04  0.14434013344E+04  0.00000000000E+00 0.  1.
         21   -1    0    0  502  503 -0.00000000000E+00 -0.00000000000E+00 -0.15466825277E+04  0.15466825277E+04  0.00000000000E+00 0. -1.
   -9000010    2    1    2    0  503 -0.65856334166E+03  0.88158065765E+03 -0.17668720362E+03  0.14966507309E+04  0.99892688000E+03 0.  0.
    9000010    2    1    2  501    0  0.65856334166E+03 -0.88158065765E+03  0.73406010334E+02  0.14934331311E+04  0.10070074199E+04 0.  0.
        -13    1    4    4    0    0  0.69451642500E+03 -0.50340671015E+03  0.44127974030E+03  0.96462386493E+03  0.10566000000E+00 0.  1.
         13    1    3    3    0    0 -0.35684659534E+03  0.24879046790E+03  0.39842143748E+03  0.58989477242E+03  0.10566000000E+00 0. -1.
          4    1    4    4  501    0 -0.35953083338E+02 -0.37817394750E+03 -0.36787372997E+03  0.52880926615E+03  0.00000000000E+00 0.  1.
         -4    1    3    3    0  503 -0.30171674632E+03  0.63279018975E+03 -0.57510864110E+03  0.90675595852E+03  0.00000000000E+00 0. -1.
</event>
<event>
 8    1  0.7008488E-006  0.1149799E+04  0.7818608E-02  0.8646542E-01
         21   -1    0    0  501  502  0.00000000000E+00  0.00000000000E+00  0.14726196310E+04  0.14726196310E+04  0.00000000000E+00 0. -1.
         21   -1    0    0  502  503 -0.00000000000E+00 -0.00000000000E+00 -0.92512290876E+03  0.92512290876E+03  0.00000000000E+00 0.  1.
   -9000010    2    1    2    0  503  0.37448753000E+03  0.38183819401E+03  0.49982698077E+02  0.11449228448E+04  0.10110928414E+04 0.  0.
    9000010    2    1    2  501    0 -0.37448753000E+03 -0.38183819401E+03  0.49751402416E+03  0.12528196950E+04  0.10178387236E+04 0.  0.
        -13    1    4    4    0    0  0.13619418263E+03 -0.66337656725E+01  0.59610134827E+03  0.61149790744E+03  0.10566000000E+00 0.  1.
         13    1    3    3    0    0  0.29916635158E+03 -0.13122726586E+02  0.47394309054E+03  0.56061999261E+03  0.10566000000E+00 0. -1.
          4    1    4    4  501    0 -0.51068171263E+03 -0.37520442834E+03 -0.98587324104E+02  0.64132178751E+03  0.00000000000E+00 0.  1.
         -4    1    3    3    0  503  0.75321178420E+02  0.39496092060E+03 -0.42396039247E+03  0.58430285221E+03  0.00000000000E+00 0. -1.
</event>
<event>
 8    1  0.7008488E-006  0.1244764E+04  0.7818608E-02  0.8574095E-01
         21   -1    0    0  503  502  0.00000000000E+00  0.00000000000E+00  0.90241536722E+03  0.90241536722E+03  0.00000000000E+00 0.  1.
         21   -1    0    0  501  503 -0.00000000000E+00 -0.00000000000E+00 -0.19287615104E+04  0.19287615104E+04  0.00000000000E+00 0.  1.
    9000010    2    1    2  501    0  0.41820152781E+03 -0.60811223737E+03 -0.39390690475E+02  0.12426180986E+04  0.99892697496E+03 0.  0.
   -9000010    2    1    2    0  502 -0.41820152781E+03  0.60811223737E+03 -0.98695545270E+03  0.15885587791E+04  0.10023696513E+04 0.  0.
        -13    1    3    3    0    0  0.63389005328E+03 -0.12728594728E+03 -0.22397540226E+03  0.68423921548E+03  0.10566000000E+00 0.  1.
         13    1    4    4    0    0 -0.60056212987E+03  0.44883351872E+03 -0.21565881636E+03  0.78015071339E+03  0.10566000000E+00 0. -1.
          4    1    3    3  501    0 -0.21568852547E+03 -0.48082629009E+03  0.18458471178E+03  0.55837888309E+03  0.00000000000E+00 0.  1.
         -4    1    4    4    0  502  0.18236060206E+03  0.15927871865E+03 -0.77129663634E+03  0.80840806566E+03  0.00000000000E+00 0. -1.
</event>
<event>
 8    1  0.7008488E-006  0.1131109E+04  0.7818608E-02  0.8660888E-01
         21   -1    0    0  503  502  0.00000000000E+00  0.00000000000E+00  0.88905991890E+03  0.88905991890E+03  0.00000000000E+00 0.  1.
         21   -1    0    0  501  503 -0.00000000000E+00 -0.00000000000E+00 -0.18071891813E+04  0.18071891813E+04  0.00000000000E+00 0.  1.
    9000010    2    1    2  501    0  0.44504674941E+03 -0.27717587982E+03 -0.10708722894E+04  0.15576183289E+04  0.10022546188E+04 0.  0.
   -9000010    2    1    2    0  502 -0.44504674941E+03  0.27717587982E+03  0.15274302692E+03  0.11386307713E+04  0.99912788154E+03 0.  0.
        -13    1    3    3    0    0 -0.13254345476E+03 -0.75822836003E+02 -0.91328710824E+03  0.92596448263E+03  0.10566000000E+00 0.  1.
         13    1    4    4    0    0 -0.21447632949E+03  0.33564624504E+03 -0.38292057949E+03  0.55252753694E+03  0.10566000000E+00 0. -1.
          4    1    3    3  501    0  0.57759020416E+03 -0.20135304381E+03 -0.15758518113E+03  0.63165384627E+03  0.00000000000E+00 0.  1.
         -4    1    4    4    0  502 -0.23057041992E+03 -0.58470365220E+02  0.53566360641E+03  0.58610323440E+03  0.00000000000E+00 0. -1.
</event>
<event>
 8    1  0.7008488E-006  0.1156811E+04  0.7818608E-02  0.8650480E-01
         21   -1    0    0  501  502  0.00000000000E+00  0.00000000000E+00  0.14712529084E+04  0.14712529084E+04  0.00000000000E+00 0. -1.
         21   -1    0    0  502  503 -0.00000000000E+00 -0.00000000000E+00 -0.88105512892E+03  0.88105512892E+03  0.00000000000E+00 0. -1.
   -9000010    2    1    2    0  503 -0.29059601754E+03  0.56126914140E+03  0.42880817579E+03  0.11842934077E+04  0.90509962405E+03 0.  0.
    9000010    2    1    2  501    0  0.29059601754E+03 -0.56126914140E+03  0.16138960367E+03  0.11680146296E+04  0.96888723607E+03 0.  0.
        -13    1    4    4    0    0 -0.22785020506E+03  0.51963347282E+02 -0.18045387788E+03  0.29526177980E+03  0.10566000000E+00 0.  1.
         13    1    3    3    0    0  0.64001441807E+02  0.62346458217E+03  0.30751089625E+01  0.62674854386E+03  0.10566000000E+00 0. -1.
          4    1    4    4  501    0  0.51844622260E+03 -0.61323248868E+03  0.34184348155E+03  0.87275284977E+03  0.00000000000E+00 0.  1.
         -4    1    3    3    0  503 -0.35459745935E+03 -0.62195440772E+02  0.42573306683E+03  0.55754486386E+03  0.00000000000E+00 0. -1.
</event>
<event>
 8    1  0.7008488E-006  0.1107192E+04  0.7818608E-02  0.8682640E-01
         21   -1    0    0  503  502  0.00000000000E+00  0.00000000000E+00  0.25217151272E+04  0.25217151272E+04  0.00000000000E+00 0. -1.
         21   -1    0    0  501  503 -0.00000000000E+00 -0.00000000000E+00 -0.53465947451E+03  0.53465947451E+03  0.00000000000E+00 0. -1.
    9000010    2    1    2  501    0  0.42761696258E+03 -0.31602088374E+03  0.51219015870E+03  0.12199235396E+04  0.97115869874E+03 0.  0.
   -9000010    2    1    2    0  502 -0.42761696258E+03  0.31602088374E+03  0.14748654940E+04  0.18364510621E+04  0.95634659644E+03 0.  0.
        -13    1    3    3    0    0  0.14998382181E+03 -0.41355535480E+03 -0.17417370187E+03  0.47313810656E+03  0.10566000000E+00 0.  1.
         13    1    4    4    0    0  0.42792705202E+02  0.42321504365E+03  0.12174165390E+04  0.12895911094E+04  0.10566000000E+00 0. -1.
          4    1    3    3  501    0  0.27763314077E+03  0.97534471066E+02  0.68636386057E+03  0.74678543304E+03  0.00000000000E+00 0.  1.
         -4    1    4    4    0  502 -0.47040966778E+03 -0.10719415991E+03  0.25744895494E+03  0.54685995270E+03  0.00000000000E+00 0. -1.
</event>
<event>
 8    1  0.7008488E-006  0.1417219E+04  0.7818608E-02  0.8459981E-01
         21   -1    0    0  501  502  0.00000000000E+00  0.00000000000E+00  0.80076516065E+03  0.80076516065E+03  0.00000000000E+00 0. -1.
         21   -1    0    0  502  503 -0.00000000000E+00 -0.00000000000E+00 -0.27783166864E+04  0.27783166864E+04  0.00000000000E+00 0.  1.
   -9000010    2    1    2    0  503  0.66723225907E+03 -0.75047460916E+03 -0.41936788377E+03  0.14779646390E+04  0.10000495116E+04 0.  0.
    9000010    2    1    2  501    0 -0.66723225907E+03  0.75047460916E+03 -0.15581836420E+04  0.21011172081E+04  0.98911386264E+03 0.  0.
        -13    1    4    4    0    0 -0.44558795914E+03 -0.12060817922E+03 -0.28462612408E+03  0.54231633195E+03  0.10566000000E+00 0.  1.
         13    1    3    3    0    0  0.64016782062E+03 -0.91360882776E+01 -0.35817483133E+03  0.73361265503E+03  0.10566000000E+00 0. -1.
          4    1    4    4  501    0 -0.22164429993E+03  0.87108278839E+03 -0.12735575179E+04  0.15588008761E+04  0.00000000000E+00 0.  1.
         -4    1    3    3    0  503  0.27064438451E+02 -0.74133852089E+03 -0.61193052439E+02  0.74435198397E+03  0.00000000000E+00 0. -1.
</event>
<event>
 8    1  0.7008488E-006  0.1315885E+04  0.7818608E-02  0.8528045E-01
         21   -1    0    0  501  502  0.00000000000E+00  0.00000000000E+00  0.18380881959E+04  0.18380881959E+04  0.00000000000E+00 0.  1.
         21   -1    0    0  502  503 -0.00000000000E+00 -0.00000000000E+00 -0.94021427107E+03  0.94021427107E+03  0.00000000000E+00 0.  1.
   -9000010    2    1    2    0  503 -0.71213271083E+03  0.43193738034E+03  0.61972174650E+03  0.14333411020E+04  0.98828577515E+03 0.  0.
    9000010    2    1    2  501    0  0.71213271083E+03 -0.43193738034E+03  0.27815217836E+03  0.13449613650E+04  0.10187490076E+04 0.  0.
        -13    1    4    4    0    0  0.61766362363E+03 -0.51909281234E+03  0.59535758169E+03  0.10027045233E+04  0.10566000000E+00 0.  1.
         13    1    3    3    0    0  0.15641769606E+03  0.16711117097E+02 -0.13718110393E+03  0.20872092256E+03  0.10566000000E+00 0. -1.
          4    1    4    4  501    0  0.94469087199E+02  0.87155432001E+02 -0.31720540333E+03  0.34225684166E+03  0.00000000000E+00 0.  1.
         -4    1    3    3    0  503 -0.86855040689E+03  0.41522626325E+03  0.75690285044E+03  0.12246201795E+04  0.00000000000E+00 0. -1.
</event>
<event>
 8    1  0.7008488E-006  0.1495658E+04  0.7818608E-02  0.8446831E-01
         21   -1    0    0  501  502  0.00000000000E+00  0.00000000000E+00  0.67450097427E+03  0.67450097427E+03  0.00000000000E+00 0. -1.
         21   -1    0    0  502  503 -0.00000000000E+00 -0.00000000000E+00 -0.28521263481E+04  0.28521263481E+04  0.00000000000E+00 0. -1.
   -9000010    2    1    2    0  503 -0.73220364229E+03 -0.22931010392E+03 -0.12770241183E+04  0.19666683413E+04  0.12838568723E+04 0.  0.
    9000010    2    1    2  501    0  0.73220364229E+03  0.22931010392E+03 -0.90060125555E+03  0.15599589810E+04  0.10167025639E+04 0.  0.
        -13    1    4    4    0    0  0.28836549729E+03  0.61603887123E+03 -0.41467172112E+03  0.79662487932E+03  0.10566000000E+00 0.  1.
         13    1    3    3    0    0 -0.14741610891E+03 -0.71780167608E+03 -0.59188204981E+03  0.94196344271E+03  0.10566000000E+00 0. -1.
          4    1    4    4  501    0  0.44383814500E+03 -0.38672876731E+03 -0.48592953443E+03  0.76333410172E+03  0.00000000000E+00 0.  1.
         -4    1    3    3    0  503 -0.58478753338E+03  0.48849157216E+03 -0.68514206845E+03  0.10247048986E+04  0.00000000000E+00 0. -1.
</event>
<event>
 8    1  0.7008488E-006  0.1316894E+04  0.7818608E-02  0.8525271E-01
         21   -1    0    0  503  502  0.00000000000E+00  0.00000000000E+00  0.12380710469E+04  0.12380710469E+04  0.00000000000E+00 0. -1.
         21   -1    0    0  501  503 -0.00000000000E+00 -0.00000000000E+00 -0.14478756903E+04  0.14478756903E+04  0.00000000000E+00 0. -1.
    9000010    2    1    2  501    0 -0.64090596370E+03 -0.50561722306E+03  0.16665865103E+03  0.13162995920E+04  0.10190487130E+04 0.  0.
   -9000010    2    1    2    0  502  0.64090596370E+03  0.50561722306E+03 -0.37646329441E+03  0.13696471452E+04  0.10333438245E+04 0.  0.
        -13    1    3    3    0    0 -0.81110298330E+02 -0.70610098909E+03  0.75584530599E+02  0.71475206871E+03  0.10566000000E+00 0.  1.
         13    1    4    4    0    0 -0.26069798041E+03  0.99876715961E+02 -0.24654216788E+03  0.37245381873E+03  0.10566000000E+00 0. -1.
          4    1    3    3  501    0 -0.55979566537E+03  0.20048376603E+03  0.91074120429E+02  0.60154752332E+03  0.00000000000E+00 0.  1.
         -4    1    4    4    0  502  0.90160394411E+03  0.40574050710E+03 -0.12992112654E+03  0.99719332642E+03  0.00000000000E+00 0. -1.
</event>
<event>
 8    1  0.7008488E-006  0.1046827E+04  0.7818608E-02  0.8736679E-01
         21   -1    0    0  501  502  0.00000000000E+00  0.00000000000E+00  0.17855984709E+04  0.17855984709E+04  0.00000000000E+00 0.  1.
         21   -1    0    0  502  503 -0.00000000000E+00 -0.00000000000E+00 -0.60248129713E+03  0.60248129713E+03  0.00000000000E+00 0.  1.
   -9000010    2    1    2    0  503  0.61059684242E+02 -0.20005381485E+03  0.65609300823E+03  0.12354371143E+04  0.10257178043E+04 0.  0.
    9000010    2    1    2  501    0 -0.61059684242E+02  0.20005381485E+03  0.52702416559E+03  0.11526426537E+04  0.10035341560E+04 0.  0.
        -13    1    4    4    0    0 -0.42207619938E+03  0.36867002151E+03  0.50369445430E+03  0.75350780839E+03  0.10566000000E+00 0.  1.
         13    1    3    3    0    0 -0.72485042496E+02  0.32790840419E+03 -0.54439455025E+02  0.34020827202E+03  0.10566000000E+00 0. -1.
          4    1    4    4  501    0  0.36101651514E+03 -0.16861620666E+03  0.23329711287E+02  0.39913484536E+03  0.00000000000E+00 0.  1.
         -4    1    3    3    0  503  0.13354472674E+03 -0.52796221903E+03  0.71053246325E+03  0.89522884231E+03  0.00000000000E+00 0. -1.
</event>
<event>
 8    1  0.7008488E-006  0.1082932E+04  0.7818608E-02  0.8702602E-01
         21   -1    0    0  501  502  0.00000000000E+00  0.00000000000E+00  0.12115361140E+04  0.12115361140E+04  0.00000000000E+00 0.  1.
         21   -1    0    0  502  503 -0.00000000000E+00 -0.00000000000E+00 -0.96181656395E+03  0.96181656395E+03  0.00000000000E+00 0.  1.
   -9000010    2    1    2    0  503  0.35050524015E+03  0.18941399332E+03  0.18695830557E+03  0.10886039121E+04  0.99567740014E+03 0.  0.
    9000010    2    1    2  501    0 -0.35050524015E+03 -0.18941399332E+03  0.62761244494E+02  0.10847487659E+04  0.10069803012E+04 0.  0.
        -13    1    4    4    0    0 -0.22921350847E+03 -0.59012298361E+03 -0.89264977704E+02  0.63933732541E+03  0.10566000000E+00 0.  1.
         13    1    3    3    0    0  0.28965435846E+03 -0.37626762498E+03  0.20996490760E+03  0.51919384296E+03  0.10566000000E+00 0. -1.
          4    1    4    4  501    0 -0.12129173168E+03  0.40070899029E+03  0.15202622220E+03  0.44541144048E+03  0.00000000000E+00 0.  1.
         -4    1    3    3    0  503  0.60850881689E+02  0.56568161830E+03 -0.23006602030E+02  0.56941006913E+03  0.00000000000E+00 0. -1.
</event>
<event>
 8    1  0.7008488E-006  0.1183492E+04  0.7818608E-02  0.8624978E-01
         21   -1    0    0  501  502  0.00000000000E+00  0.00000000000E+00  0.57211108057E+03  0.57211108057E+03  0.00000000000E+00 0.  1.
         21   -1    0    0  502  503 -0.00000000000E+00 -0.00000000000E+00 -0.30341950720E+04  0.30341950720E+04  0.00000000000E+00 0.  1.
   -9000010    2    1    2    0  503  0.58837041759E+03 -0.58051470690E+02 -0.41019478274E+03  0.12525624335E+04  0.10252332264E+04 0.  0.
    9000010    2    1    2  501    0 -0.58837041759E+03  0.58051470690E+02 -0.20518892087E+04  0.23537437191E+04  0.99010628152E+03 0.  0.
        -13    1    4    4    0    0 -0.10160645663E+03 -0.39328780689E+03 -0.12410683049E+04  0.13058521048E+04  0.10566000000E+00 0.  1.
         13    1    3    3    0    0  0.34118339421E+03 -0.34570245897E+03 -0.64429338668E+03  0.80686447307E+03  0.10566000000E+00 0. -1.
          4    1    4    4  501    0 -0.48676396096E+03  0.45133927758E+03 -0.81082090383E+03  0.10478916143E+04  0.00000000000E+00 0.  1.
         -4    1    3    3    0  503  0.24718702338E+03  0.28765098828E+03  0.23409860394E+03  0.44569796045E+03  0.00000000000E+00 0. -1.
</event>
<event>
 8    1  0.7008488E-006  0.1150842E+04  0.7818608E-02  0.8663053E-01
         21   -1    0    0  501  502  0.00000000000E+00  0.00000000000E+00  0.51610603899E+03  0.51610603899E+03  0.00000000000E+00 0. -1.
         21   -1    0    0  502  503 -0.00000000000E+00 -0.00000000000E+00 -0.23708281575E+04  0.23708281575E+04  0.00000000000E+00 0. -1.
   -9000010    2    1    2    0  503  0.47481887244E+03  0.22826947914E+03 -0.98818239054E+03  0.15168856111E+04  0.10231703688E+04 0.  0.
    9000010    2    1    2  501    0 -0.47481887244E+03 -0.22826947914E+03 -0.86653972792E+03  0.13700485853E+04  0.92118516561E+03 0.  0.
        -13    1    4    4    0    0  0.18937763551E+03  0.19635794238E+03 -0.21608891468E+03  0.34801546026E+03  0.10566000000E+00 0.  1.
         13    1    3    3    0    0 -0.27338757205E+03  0.21118802659E+03 -0.10888127681E+03  0.36221028524E+03  0.10566000000E+00 0. -1.
          4    1    4    4  501    0 -0.66419650795E+03 -0.42462742152E+03 -0.65045081324E+03  0.10220331251E+04  0.00000000000E+00 0.  1.
         -4    1    3    3    0  503  0.74820644449E+03  0.17081452544E+02 -0.87930111373E+03  0.11546753259E+04  0.00000000000E+00 0. -1.
</event>
<event>
 8    1  0.7008488E-006  0.1082687E+04  0.7818608E-02  0.8702376E-01
         21   -1    0    0  503  502  0.00000000000E+00  0.00000000000E+00  0.76178876898E+03  0.76178876898E+03  0.00000000000E+00 0. -1.
         21   -1    0    0  501  503 -0.00000000000E+00 -0.00000000000E+00 -0.16544404583E+04  0.16544404583E+04  0.00000000000E+00 0. -1.
    9000010    2    1    2  501    0 -0.20942017333E+03  0.31492693628E+03 -0.78036159499E+03  0.13277345583E+04  0.10054248127E+04 0.  0.
   -9000010    2    1    2    0  502  0.20942017333E+03 -0.31492693628E+03 -0.11229009433E+03  0.10884946690E+04  0.10144830186E+04 0.  0.
        -13    1    3    3    0    0  0.28014035892E+03  0.42076561090E+03 -0.62393573375E+03  0.80300568555E+03  0.10566000000E+00 0.  1.
         13    1    4    4    0    0  0.29275895177E+03  0.84509046900E+02  0.35519038597E+03  0.46798483340E+03  0.10566000000E+00 0. -1.
          4    1    3    3  501    0 -0.48956053225E+03 -0.10583867462E+03 -0.15642586124E+03  0.52472887270E+03  0.00000000000E+00 0.  1.
         -4    1    4    4    0  502 -0.83338778435E+02 -0.39943598318E+03 -0.46748048030E+03  0.62050983563E+03  0.00000000000E+00 0. -1.
</event>
<event>
 8    1  0.7008488E-006  0.1176537E+04  0.7818608E-02  0.8629193E-01
         21   -1    0    0  501  502  0.00000000000E+00  0.00000000000E+00  0.86774841218E+03  0.86774841218E+03  0.00000000000E+00 0. -1.
         21   -1    0    0  502  503 -0.00000000000E+00 -0.00000000000E+00 -0.15782093871E+04  0.15782093871E+04  0.00000000000E+00 0. -1.
   -9000010    2    1    2    0  503 -0.55629631652E+03 -0.25545588829E+03 -0.22894960037E+03  0.11747013550E+04  0.97610555332E+03 0.  0.
    9000010    2    1    2  501    0  0.55629631652E+03  0.25545588829E+03 -0.48151137459E+03  0.12712564443E+04  0.10047469536E+04 0.  0.
        -13    1    4    4    0    0 -0.16151282636E+03  0.32647939692E+02  0.19830025154E+03  0.25782800850E+03  0.10566000000E+00 0.  1.
         13    1    3    3    0    0 -0.52320637183E+03 -0.45267579754E+03  0.18397969264E+03  0.71589721586E+03  0.10566000000E+00 0. -1.
          4    1    4    4  501    0  0.71780914288E+03  0.22280794860E+03 -0.67981162613E+03  0.10134284358E+04  0.00000000000E+00 0.  1.
         -4    1    3    3    0  503 -0.33089944692E+02  0.19721990925E+03 -0.41292929301E+03  0.45880413911E+03  0.00000000000E+00 0. -1.
</event>
<event>
 8    1  0.7008488E-006  0.1260185E+04  0.7818608E-02  0.8562903E-01
         21   -1    0    0  501  502  0.00000000000E+00  0.00000000000E+00  0.15748738610E+04  0.15748738610E+04  0.00000000000E+00 0. -1.
         21   -1    0    0  502  503 -0.00000000000E+00 -0.00000000000E+00 -0.13275610795E+04  0.13275610795E+04  0.00000000000E+00 0.  1.
   -9000010    2    1    2    0  503 -0.54455353261E+03 -0.55252324445E+03 -0.58953185598E+03  0.13912638438E+04  0.99309958628E+03 0.  0.
    9000010    2    1    2  501    0  0.54455353261E+03  0.55252324445E+03  0.83684463753E+03  0.15111710968E+04  0.99071118433E+03 0.  0.
        -13    1    4    4    0    0  0.27880979972E+03  0.65430964670E+03  0.96166337318E+02  0.71770745696E+03  0.10566000000E+00 0.  1.
         13    1    3    3    0    0 -0.12950254110E+03 -0.97759916986E+02 -0.73989417890E+03  0.75747694134E+03  0.10566000000E+00 0. -1.
          4    1    4    4  501    0  0.26574373290E+03 -0.10178640225E+03  0.74067830022E+03  0.79346363979E+03  0.00000000000E+00 0.  1.
         -4    1    3    3    0  503 -0.41505099151E+03 -0.45476332746E+03  0.15036232292E+03  0.63378690245E+03  0.00000000000E+00 0. -1.
</event>
<event>
 8    1  0.7008488E-006  0.1054162E+04  0.7818608E-02  0.8725839E-01
         21   -1    0    0  503  502  0.00000000000E+00  0.00000000000E+00  0.11675570071E+04  0.11675570071E+04  0.00000000000E+00 0. -1.
         21   -1    0    0  501  503 -0.00000000000E+00 -0.00000000000E+00 -0.95108129669E+03  0.95108129669E+03  0.00000000000E+00 0. -1.
    9000010    2    1    2  501    0  0.26978563730E+03 -0.15082187713E+03  0.15044411759E+03  0.10648427644E+04  0.10078319064E+04 0.  0.
   -9000010    2    1    2    0  502 -0.26978563730E+03  0.15082187713E+03  0.66031592837E+02  0.10537955395E+04  0.10052827160E+04 0.  0.
        -13    1    3    3    0    0  0.17846476840E+02  0.38915158171E+03  0.24692496255E+03  0.46122597345E+03  0.10566000000E+00 0.  1.
         13    1    4    4    0    0 -0.51097898356E+02  0.13953285520E+03  0.52480729466E+03  0.54543846636E+03  0.10566000000E+00 0. -1.
          4    1    3    3  501    0  0.25193916046E+03 -0.53997345884E+03 -0.96480844963E+02  0.60361679091E+03  0.00000000000E+00 0.  1.
         -4    1    4    4    0  502 -0.21868773894E+03  0.11289021934E+02 -0.45877570182E+03  0.50835707309E+03  0.00000000000E+00 0. -1.
</event>
<event>
 8    1  0.7008488E-006  0.1310914E+04  0.7818608E-02  0.8530041E-01
         21   -1    0    0  503  502  0.00000000000E+00  0.00000000000E+00  0.90118744026E+03  0.90118744026E+03  0.00000000000E+00 0. -1.
         21   -1    0    0  501  503 -0.00000000000E+00 -0.00000000000E+00 -0.19155836358E+04  0.19155836358E+04  0.00000000000E+00 0. -1.
    9000010    2    1    2  501    0  0.49821181805E+03  0.68545639877E+03 -0.68937821227E+03  0.14811273971E+04  0.10002152551E+04 0.  0.
   -9000010    2    1    2    0  502 -0.49821181805E+03 -0.68545639877E+03 -0.32501798322E+03  0.13356436789E+04  0.97991931166E+03 0.  0.
        -13    1    3    3    0    0 -0.30283685833E+03  0.18621618694E+03 -0.10380194249E+03  0.37035319017E+03  0.10566000000E+00 0.  1.
         13    1    4    4    0    0 -0.10062398882E+03 -0.11964544518E+03 -0.57839736414E+03  0.59915251955E+03  0.10566000000E+00 0. -1.
          4    1    3    3  501    0  0.80104867638E+03  0.49924021183E+03 -0.58557626978E+03  0.11107742069E+04  0.00000000000E+00 0.  1.
         -4    1    4    4    0  502 -0.39758782923E+03 -0.56581095358E+03  0.25337938092E+03  0.73649115937E+03  0.00000000000E+00 0. -1.
</event>
<event>
 8    1  0.7008488E-006  0.1067059E+04  0.7818608E-02  0.8726700E-01
         21   -1    0    0  501  502  0.00000000000E+00  0.00000000000E+00  0.65477130458E+03  0.65477130458E+03  0.00000000000E+00 0. -1.
         21   -1    0    0  502  503 -0.00000000000E+00 -0.00000000000E+00 -0.16790400215E+04  0.16790400215E+04  0.00000000000E+00 0. -1.
   -9000010    2    1    2    0  503  0.14992975822E+03 -0.32629712691E+03 -0.33898079077E+03  0.10656492840E+04  0.94432604147E+03 0.  0.
    9000010    2    1    2  501    0 -0.14992975822E+03  0.32629712691E+03 -0.68528792610E+03  0.12681620420E+04  0.10048217134E+04 0.  0.
        -13    1    4    4    0    0 -0.56607052065E+03  0.63218212013E+02 -0.30530723847E+03  0.64625451465E+03  0.10566000000E+00 0.  1.
         13    1    3    3    0    0  0.35677385400E+03  0.19359005198E+03  0.10322435071E+02  0.40604341511E+03  0.10566000000E+00 0. -1.
          4    1    4    4  501    0  0.41614076243E+03  0.26307891490E+03 -0.37998068763E+03  0.62190752736E+03  0.00000000000E+00 0.  1.
         -4    1    3    3    0  503 -0.20684409577E+03 -0.51988717889E+03 -0.34930322584E+03  0.65960586892E+03  0.00000000000E+00 0. -1.
</event>
<event>
 8    1  0.7008488E-006  0.1062734E+04  0.7818608E-02  0.8723830E-01
         21   -1    0    0  503  502  0.00000000000E+00  0.00000000000E+00  0.13435170963E+04  0.13435170963E+04  0.00000000000E+00 0. -1.
         21   -1    0    0  501  503 -0.00000000000E+00 -0.00000000000E+00 -0.85095844792E+03  0.85095844792E+03  0.00000000000E+00 0. -1.
    9000010    2    1    2  501    0 -0.31054688441E+03 -0.61901573278E+02  0.45532197266E+03  0.11310897548E+04  0.98578636752E+03 0.  0.
   -9000010    2    1    2    0  502  0.31054688441E+03  0.61901573278E+02  0.37236675724E+02  0.10633857894E+04  0.10144612338E+04 0.  0.
        -13    1    3    3    0    0 -0.44495166051E+03 -0.44252678222E+03  0.22704308498E+03  0.66735335975E+03  0.10566000000E+00 0.  1.
         13    1    4    4    0    0  0.35253100720E+03 -0.31110047109E+03  0.34075472365E+03  0.58066806956E+03  0.10566000000E+00 0. -1.
          4    1    3    3  501    0  0.13440477610E+03  0.38062520894E+03  0.22827888768E+03  0.46373639503E+03  0.00000000000E+00 0.  1.
         -4    1    4    4    0  502 -0.41984122790E+02  0.37300204437E+03 -0.30351804792E+03  0.48271771988E+03  0.00000000000E+00 0. -1.
</event>
<event>
 8    1  0.7008488E-006  0.1046534E+04  0.7818608E-02  0.8734318E-01
         21   -1    0    0  503  502  0.00000000000E+00  0.00000000000E+00  0.37365150181E+04  0.37365150181E+04  0.00000000000E+00 0.  1.
         21   -1    0    0  501  503 -0.00000000000E+00 -0.00000000000E+00 -0.41906392810E+03  0.41906392810E+03  0.00000000000E+00 0.  1.
    9000010    2    1    2  501    0  0.98743367257E+02 -0.25758684421E+03  0.51251628428E+03  0.11652926545E+04  0.10095210717E+04 0.  0.
   -9000010    2    1    2    0  502 -0.98743367257E+02  0.25758684421E+03  0.28049348058E+04  0.29902862917E+04  0.99902532847E+03 0.  0.
        -13    1    3    3    0    0  0.61895525412E+02  0.38683729636E+03  0.26987343759E+03  0.47571612691E+03  0.10566000000E+00 0.  1.
         13    1    4    4    0    0  0.16947681394E+03 -0.29532502920E+03  0.16208451862E+04  0.16562241371E+04  0.10566000000E+00 0. -1.
          4    1    3    3  501    0  0.36847841845E+02 -0.64442414056E+03  0.24264284669E+03  0.68957652762E+03  0.00000000000E+00 0.  1.
         -4    1    4    4    0  502 -0.26822018120E+03  0.55291187340E+03  0.11840896195E+04  0.13340621546E+04  0.00000000000E+00 0. -1.
</event>
<event>
 8    1  0.7008488E-006  0.1156543E+04  0.7818608E-02  0.8640208E-01
         21   -1    0    0  503  502  0.00000000000E+00  0.00000000000E+00  0.15662672440E+04  0.15662672440E+04  0.00000000000E+00 0.  1.
         21   -1    0    0  501  503 -0.00000000000E+00 -0.00000000000E+00 -0.93587625633E+03  0.93587625633E+03  0.00000000000E+00 0.  1.
    9000010    2    1    2  501    0 -0.55224548586E+03  0.20770476637E+03 -0.56277594265E+02  0.11579112903E+04  0.99472360078E+03 0.  0.
   -9000010    2    1    2    0  502  0.55224548586E+03 -0.20770476637E+03  0.68666858192E+03  0.13442322100E+04  0.99364487943E+03 0.  0.
        -13    1    3    3    0    0 -0.27332607517E+03  0.82864755064E+02  0.46963470109E+03  0.54966396519E+03  0.10566000000E+00 0.  1.
         13    1    4    4    0    0  0.50845519976E+03 -0.41322224148E+02  0.92140526989E+03  0.10531960401E+04  0.10566000000E+00 0. -1.
          4    1    3    3  501    0 -0.27891941069E+03  0.12484001130E+03 -0.52591229536E+03  0.60824732510E+03  0.00000000000E+00 0.  1.
         -4    1    4    4    0  502  0.43790286105E+02 -0.16638254222E+03 -0.23473668797E+03  0.29103616990E+03  0.00000000000E+00 0. -1.
</event>
<event>
 8    1  0.7008488E-006  0.1262284E+04  0.7818608E-02  0.8563216E-01
         21   -1    0    0  501  502  0.00000000000E+00  0.00000000000E+00  0.14821853555E+04  0.14821853555E+04  0.00000000000E+00 0. -1.
         21   -1    0    0  502  503 -0.00000000000E+00 -0.00000000000E+00 -0.11081324350E+04  0.11081324350E+04  0.00000000000E+00 0.  1.
   -9000010    2    1    2    0  503 -0.25015577884E+02 -0.76652299856E+03 -0.69896573403E+02  0.12522403466E+04  0.98743965295E+03 0.  0.
    9000010    2    1    2  501    0  0.25015577884E+02  0.76652299856E+03  0.44394949385E+03  0.13380774439E+04  0.10025850619E+04 0.  0.
        -13    1    4    4    0    0  0.43620838357E+03  0.68542442657E+03  0.15007623645E+03  0.82620051219E+03  0.10566000000E+00 0.  1.
         13    1    3    3    0    0 -0.37835062527E+03 -0.14514871242E+03 -0.29677780408E+03  0.50228918018E+03  0.10566000000E+00 0. -1.
          4    1    4    4  501    0 -0.41119280569E+03  0.81098571991E+02  0.29387325740E+03  0.51187693174E+03  0.00000000000E+00 0.  1.
         -4    1    3    3    0  503  0.35333504739E+03 -0.62137428613E+03  0.22688123068E+03  0.74995116642E+03  0.00000000000E+00 0. -1.
</event>
<event>
 8    1  0.7008488E-006  0.1234492E+04  0.7818608E-02  0.8581393E-01
         21   -1    0    0  503  502  0.00000000000E+00  0.00000000000E+00  0.25873682753E+04  0.25873682753E+04  0.00000000000E+00 0.  1.
         21   -1    0    0  501  503 -0.00000000000E+00 -0.00000000000E+00 -0.58863040215E+03  0.58863040215E+03  0.00000000000E+00 0.  1.
    9000010    2    1    2  501    0 -0.65458540749E+03  0.29967684099E+03  0.95072927586E+03  0.15581579293E+04  0.10028368321E+04 0.  0.
   -9000010    2    1    2    0  502  0.65458540749E+03 -0.29967684099E+03  0.10480085972E+04  0.16178407482E+04  0.10003991212E+04 0.  0.
        -13    1    3    3    0    0 -0.78337677327E+03  0.54782261398E+02  0.28190254713E+03  0.83435563299E+03  0.10566000000E+00 0.  1.
         13    1    4    4    0    0 -0.10099900669E+03 -0.33106884476E+03  0.70923547642E+03  0.78919094743E+03  0.10566000000E+00 0. -1.
          4    1    3    3  501    0  0.12879136577E+03  0.24489457959E+03  0.66882672873E+03  0.72380229626E+03  0.00000000000E+00 0.  1.
         -4    1    4    4    0  502  0.75558441418E+03  0.31392003771E+02  0.33877312083E+03  0.82864980073E+03  0.00000000000E+00 0. -1.
</event>
<event>
 8    1  0.7008488E-006  0.1513287E+04  0.7818608E-02  0.8411803E-01
         21   -1    0    0  501  502  0.00000000000E+00  0.00000000000E+00  0.16273642540E+04  0.16273642540E+04  0.00000000000E+00 0. -1.
         21   -1    0    0  502  503 -0.00000000000E+00 -0.00000000000E+00 -0.13680009206E+04  0.13680009206E+04  0.00000000000E+00 0.  1.
   -9000010    2    1    2    0  503  0.32989196364E+02 -0.11298666308E+04 -0.68571864932E+02  0.14469533962E+04  0.90071368349E+03 0.  0.
    9000010    2    1    2  501    0 -0.32989196364E+02  0.11298666308E+04  0.32793519834E+03  0.15484117784E+04  0.10061563750E+04 0.  0.
        -13    1    4    4    0    0 -0.10464392250E+03  0.65147861743E+03  0.68200490079E+03  0.94894964848E+03  0.10566000000E+00 0.  1.
         13    1    3    3    0    0  0.46000704179E+03 -0.46087015134E+03 -0.49957953152E+02  0.65307241799E+03  0.10566000000E+00 0. -1.
          4    1    4    4  501    0  0.71654726133E+02  0.47838801333E+03 -0.35406970245E+03  0.59946212997E+03  0.00000000000E+00 0.  1.
         -4    1    3    3    0  503 -0.42701784543E+03 -0.66899647942E+03 -0.18613911780E+02  0.79388097817E+03  0.00000000000E+00 0. -1.
</event>
<event>
 8    1  0.7008488E-006  0.1192472E+04  0.7818608E-02  0.8618247E-01
         21   -1    0    0  503  502  0.00000000000E+00  0.00000000000E+00  0.21618230122E+04  0.21618230122E+04  0.00000000000E+00 0.  1.
         21   -1    0    0  501  503 -0.00000000000E+00 -0.00000000000E+00 -0.64447928776E+03  0.64447928776E+03  0.00000000000E+00 0.  1.
    9000010    2    1    2  501    0  0.18764599527E+03 -0.62211753152E+03  0.64120708215E+03  0.13265707828E+04  0.96249793616E+03 0.  0.
   -9000010    2    1    2    0  502 -0.18764599527E+03  0.62211753152E+03  0.87613664228E+03  0.14797315171E+04  0.99987434423E+03 0.  0.
        -13    1    3    3    0    0 -0.31742615162E+03 -0.44817818759E+03  0.56332509823E+03  0.78673898278E+03  0.10566000000E+00 0.  1.
         13    1    4    4    0    0  0.23711685713E+03  0.63990690012E+03  0.25812378952E+03  0.72961164097E+03  0.10566000000E+00 0. -1.
          4    1    3    3  501    0  0.50507214689E+03 -0.17393934393E+03  0.77881983922E+02  0.53983180006E+03  0.00000000000E+00 0.  1.
         -4    1    4    4    0  502 -0.42476285241E+03 -0.17789368603E+02  0.61801285276E+03  0.75011987615E+03  0.00000000000E+00 0. -1.
</event>
<event>
 8    1  0.7008488E-006  0.1267587E+04  0.7818608E-02  0.8564087E-01
         21   -1    0    0  503  502  0.00000000000E+00  0.00000000000E+00  0.84431388570E+03  0.84431388570E+03  0.00000000000E+00 0. -1.
         21   -1    0    0  501  503 -0.00000000000E+00 -0.00000000000E+00 -0.21570354729E+04  0.21570354729E+04  0.00000000000E+00 0. -1.
    9000010    2    1    2  501    0 -0.59768003971E+03 -0.37556837458E+03 -0.12338747801E+04  0.17689614144E+04  0.10528553932E+04 0.  0.
   -9000010    2    1    2    0  502  0.59768003971E+03  0.37556837458E+03 -0.78846807186E+02  0.12323879442E+04  0.10071197506E+04 0.  0.
        -13    1    3    3    0    0 -0.57605005066E+03 -0.29644468355E+02 -0.12944119302E+04  0.14171149254E+04  0.10566000000E+00 0.  1.
         13    1    4    4    0    0  0.64585424865E+03  0.81142447314E+02 -0.42347890511E+03  0.77656049442E+03  0.10566000000E+00 0. -1.
          4    1    3    3  501    0 -0.21629989048E+02 -0.34592390622E+03  0.60537150181E+02  0.35184648908E+03  0.00000000000E+00 0.  1.
         -4    1    4    4    0  502 -0.48174208943E+02  0.29442592727E+03  0.34463209792E+03  0.45582744978E+03  0.00000000000E+00 0. -1.
</event>
<event>
 8    1  0.7008488E-006  0.1069769E+04  0.7818608E-02  0.8714962E-01
         21   -1    0    0  501  502  0.00000000000E+00  0.00000000000E+00  0.10924295455E+04  0.10924295455E+04  0.00000000000E+00 0. -1.
         21   -1    0    0  502  503 -0.00000000000E+00 -0.00000000000E+00 -0.10328419778E+04  0.10328419778E+04  0.00000000000E+00 0. -1.
   -9000010    2    1    2    0  503 -0.71343372583E+02  0.31324692043E+03  0.34153920219E+02  0.10552004688E+04  0.10045237823E+04 0.  0.
    9000010    2    1    2  501    0  0.71343372583E+02 -0.31324692043E+03  0.25433647487E+02  0.10700710544E+04  0.10203880052E+04 0.  0.
        -13    1    4    4    0    0  0.21864084646E+03  0.12648877372E+03 -0.37851706857E+03  0.45505869070E+03  0.10566000000E+00 0.  1.
         13    1    3    3    0    0  0.59363877717E+02  0.55405291693E+03  0.33349374992E+03  0.64939725680E+03  0.10566000000E+00 0. -1.
          4    1    4    4  501    0 -0.14729747387E+03 -0.43973569415E+03  0.40395071606E+03  0.61501236371E+03  0.00000000000E+00 0.  1.
         -4    1    3    3    0  503 -0.13070725030E+03 -0.24080599650E+03 -0.29933982970E+03  0.40580321201E+03  0.00000000000E+00 0. -1.
</event>
<event>
 8    1  0.7008488E-006  0.1014784E+04  0.7818608E-02  0.8765104E-01
         21   -1    0    0  501  502  0.00000000000E+00  0.00000000000E+00  0.62395273709E+03  0.62395273709E+03  0.00000000000E+00 0.  1.
         21   -1    0    0  502  503 -0.00000000000E+00 -0.00000000000E+00 -0.16378232456E+04  0.16378232456E+04  0.00000000000E+00 0.  1.
   -9000010    2    1    2    0  503  0.13981329111E+03  0.73660804032E+02 -0.61804726320E+03  0.11725277268E+04  0.98380139258E+03 0.  0.
    9000010    2    1    2  501    0 -0.13981329111E+03 -0.73660804032E+02 -0.39582324535E+03  0.10892482560E+04  0.10024031380E+04 0.  0.
        -13    1    4    4    0    0  0.35075304327E+03 -0.27952726762E+03 -0.42332125707E+02  0.45050550578E+03  0.10566000000E+00 0.  1.
         13    1    3    3    0    0  0.49951122260E+03  0.96169293579E+02 -0.63269715140E+03  0.81182860943E+03  0.10566000000E+00 0. -1.
          4    1    4    4  501    0 -0.49056633438E+03  0.20586646359E+03 -0.35349111964E+03  0.63874275020E+03  0.00000000000E+00 0.  1.
         -4    1    3    3    0  503 -0.35969793149E+03 -0.22508489547E+02  0.14649888206E+02  0.36069911733E+03  0.00000000000E+00 0. -1.
</event>
<event>
 8    1  0.7008488E-006  0.1172323E+04  0.7818608E-02  0.8628573E-01
         21   -1    0    0  501  502  0.00000000000E+00  0.00000000000E+00  0.15032897960E+04  0.15032897960E+04  0.00000000000E+00 0. -1.
         21   -1    0    0  502  503 -0.00000000000E+00 -0.00000000000E+00 -0.97498832201E+03  0.97498832201E+03  0.00000000000E+00 0. -1.
   -9000010    2    1    2    0  503 -0.24742743740E+03  0.56941323498E+03 -0.53523014469E+02  0.11735443352E+04  0.99442939656E+03 0.  0.
    9000010    2    1    2  501    0  0.24742743740E+03 -0.56941323498E+03  0.58182448843E+03  0.13047337827E+04  0.98912018458E+03 0.  0.
        -13    1    4    4    0    0 -0.21009810843E+03 -0.15377816611E+03  0.63303627452E+03  0.68448803902E+03  0.10566000000E+00 0.  1.
         13    1    3    3    0    0 -0.83890049867E+02  0.69763208413E+03  0.29955868794E+03  0.76384781466E+03  0.10566000000E+00 0. -1.
          4    1    4    4  501    0  0.45752554583E+03 -0.41563506887E+03 -0.51211786090E+02  0.62024574372E+03  0.00000000000E+00 0.  1.
         -4    1    3    3    0  503 -0.16353738753E+03 -0.12821884915E+03 -0.35308170241E+03  0.40969652058E+03  0.00000000000E+00 0. -1.
</event>
<event>
 8    1  0.7008488E-006  0.1247574E+04  0.7818608E-02  0.8573694E-01
         21   -1    0    0  503  502  0.00000000000E+00  0.00000000000E+00  0.52050620955E+03  0.52050620955E+03  0.00000000000E+00 0.  1.
         21   -1    0    0  501  503 -0.00000000000E+00 -0.00000000000E+00 -0.30506024780E+04  0.30506024780E+04  0.00000000000E+00 0.  1.
    9000010    2    1    2  501    0  0.54191934086E+03  0.48232407236E+03 -0.15749010479E+04  0.20091678067E+04  0.10149526501E+04 0.  0.
   -9000010    2    1    2    0  502 -0.54191934086E+03 -0.48232407236E+03 -0.95519522054E+03  0.15619408809E+04  0.10004740492E+04 0.  0.
        -13    1    3    3    0    0  0.65425123412E+03  0.46560255540E+03 -0.16751542825E+04  0.18576792776E+04  0.10566000000E+00 0.  1.
         13    1    4    4    0    0 -0.78325878802E+03 -0.53490125507E+03 -0.90278712535E+03  0.13094419752E+04  0.10566000000E+00 0. -1.
          4    1    3    3  501    0 -0.11233189326E+03  0.16721516957E+02  0.10025323467E+03  0.15148852905E+03  0.00000000000E+00 0.  1.
         -4    1    4    4    0  502  0.24133944715E+03  0.52577182707E+02 -0.52408095193E+02  0.25249890561E+03  0.00000000000E+00 0. -1.
</event>
<event>
 8    1  0.7008488E-006  0.1287516E+04  0.7818608E-02  0.8547356E-01
         21   -1    0    0  503  502  0.00000000000E+00  0.00000000000E+00  0.10760207289E+04  0.10760207289E+04  0.00000000000E+00 0. -1.
         21   -1    0    0  501  503 -0.00000000000E+00 -0.00000000000E+00 -0.32780006307E+04  0.32780006307E+04  0.00000000000E+00 0. -1.
    9000010    2    1    2  501    0  0.82289812203E+03 -0.65030437160E+02 -0.27025758239E+04  0.29935952404E+04  0.98808203233E+03 0.  0.
   -9000010    2    1    2    0  502 -0.82289812203E+03  0.65030437160E+02  0.50059592197E+03  0.13604261192E+04  0.95852630207E+03 0.  0.
        -13    1    3    3    0    0  0.83977135459E+03  0.27389629735E+03 -0.23185961452E+04  0.24811536037E+04  0.10566000000E+00 0.  1.
         13    1    4    4    0    0 -0.21374593489E+03 -0.45207246613E+02  0.68135827004E+03  0.71552786329E+03  0.10566000000E+00 0. -1.
          4    1    3    3  501    0 -0.16873232560E+02 -0.33892673452E+03 -0.38397967866E+03  0.51244163665E+03  0.00000000000E+00 0.  1.
         -4    1    4    4    0  502 -0.60915218714E+03  0.11023768377E+03 -0.18076234807E+03  0.64489825593E+03  0.00000000000E+00 0. -1.
</event>
<event>
 8    1  0.7008488E-006  0.1226340E+04  0.7818608E-02  0.8589762E-01
         21   -1    0    0  503  502  0.00000000000E+00  0.00000000000E+00  0.94366040371E+03  0.94366040371E+03  0.00000000000E+00 0.  1.
         21   -1    0    0  501  503 -0.00000000000E+00 -0.00000000000E+00 -0.15847825593E+04  0.15847825593E+04  0.00000000000E+00 0.  1.
    9000010    2    1    2  501    0 -0.30215027348E+03  0.65194273215E+03 -0.42573928611E+03  0.12981389676E+04  0.99377398113E+03 0.  0.
   -9000010    2    1    2    0  502  0.30215027348E+03 -0.65194273215E+03 -0.21538286946E+03  0.12303039954E+04  0.97515846249E+03 0.  0.
        -13    1    3    3    0    0 -0.27069720590E+03  0.77707578179E+03 -0.64377829242E+03  0.10447843074E+04  0.10566000000E+00 0.  1.
         13    1    4    4    0    0  0.19249543114E+03 -0.27865005694E+03  0.38633117556E+03  0.51376272113E+03  0.10566000000E+00 0. -1.
          4    1    3    3  501    0 -0.31453067582E+02 -0.12513304964E+03  0.21803900631E+03  0.25335466020E+03  0.00000000000E+00 0.  1.
         -4    1    4    4    0  502  0.10965484234E+03 -0.37329267521E+03 -0.60171404503E+03  0.71654127431E+03  0.00000000000E+00 0. -1.
</event>
<event>
 8    1  0.7008488E-006  0.1111429E+04  0.7818608E-02  0.8684497E-01
         21   -1    0    0  503  502  0.00000000000E+00  0.00000000000E+00  0.18385648585E+04  0.18385648585E+04  0.00000000000E+00 0. -1.
         21   -1    0    0  501  503 -0.00000000000E+00 -0.00000000000E+00 -0.68048220718E+03  0.68048220718E+03  0.00000000000E+00 0. -1.
    9000010    2    1    2  501    0  0.39128223959E+03 -0.89162509879E+02  0.29792621700E+03  0.11136488957E+04  0.99518947336E+03 0.  0.
   -9000010    2    1    2    0  502 -0.39128223959E+03  0.89162509879E+02  0.86015643430E+03  0.14053981700E+04  0.10364473844E+04 0.  0.
        -13    1    3    3    0    0  0.17681695458E+03 -0.16101616645E+03  0.65145211874E+03  0.69395988029E+03  0.10566000000E+00 0.  1.
         13    1    4    4    0    0  0.35574228135E+03  0.21878211602E+02  0.21638449371E+03  0.41695741649E+03  0.10566000000E+00 0. -1.
          4    1    3    3  501    0  0.21446528501E+03  0.71853656568E+02 -0.35352590174E+03  0.41968901539E+03  0.00000000000E+00 0.  1.
         -4    1    4    4    0  502 -0.74702452094E+03  0.67284298277E+02  0.64377194059E+03  0.98844075350E+03  0.00000000000E+00 0. -1.
</event>
<event>
 8    1  0.7008488E-006  0.1429835E+04  0.7818608E-02  0.8457230E-01
         21   -1    0    0  501  502  0.00000000000E+00  0.00000000000E+00  0.11164443207E+04  0.11164443207E+04  0.00000000000E+00 0. -1.
         21   -1    0    0  502  503 -0.00000000000E+00 -0.00000000000E+00 -0.19743404248E+04  0.19743404248E+04  0.00000000000E+00 0. -1.
   -9000010    2    1    2    0  503 -0.24262629952E+03  0.93825915594E+03 -0.90770003627E+03  0.16600830633E+04  0.99637274973E+03 0.  0.
    9000010    2    1    2  501    0  0.24262629952E+03 -0.93825915594E+03  0.49803932136E+02  0.14307016822E+04  0.10512987715E+04 0.  0.
        -13    1    4    4    0    0  0.62317827850E+03 -0.31700985501E+03  0.63314554463E+02  0.70203643704E+03  0.10566000000E+00 0.  1.
         13    1    3    3    0    0 -0.21210456142E+03  0.33965859749E+03 -0.97779805452E+03  0.10566197776E+04  0.10566000000E+00 0. -1.
          4    1    4    4  501    0 -0.38055197898E+03 -0.62124930093E+03 -0.13510622327E+02  0.72866524518E+03  0.00000000000E+00 0.  1.
         -4    1    3    3    0  503 -0.30521738103E+02  0.59860055845E+03  0.70098018245E+02  0.60346328574E+03  0.00000000000E+00 0. -1.
</event>
<event>
 8    1  0.7008488E-006  0.1224041E+04  0.7818608E-02  0.8599493E-01
         21   -1    0    0  503  502  0.00000000000E+00  0.00000000000E+00  0.74740700643E+03  0.74740700643E+03  0.00000000000E+00 0. -1.
         21   -1    0    0  501  503 -0.00000000000E+00 -0.00000000000E+00 -0.22816891520E+04  0.22816891520E+04  0.00000000000E+00 0. -1.
    9000010    2    1    2  501    0  0.50797008161E+02 -0.70296099290E+03 -0.13614172956E+04  0.17929085365E+04  0.92969321494E+03 0.  0.
   -9000010    2    1    2    0  502 -0.50797008161E+02  0.70296099290E+03 -0.17286484995E+03  0.12361876219E+04  0.10007712459E+04 0.  0.
        -13    1    3    3    0    0 -0.13327946976E+03  0.18089920463E+03 -0.48563697207E+03  0.53509926098E+03  0.10566000000E+00 0.  1.
         13    1    4    4    0    0 -0.17883161508E+02  0.88402643711E+03  0.11794483137E+03  0.89203898087E+03  0.10566000000E+00 0. -1.
          4    1    3    3  501    0  0.18407647792E+03 -0.88386019753E+03 -0.87578032355E+03  0.12578092755E+04  0.00000000000E+00 0.  1.
         -4    1    4    4    0  502 -0.32913846653E+02 -0.18106544421E+03 -0.29080968132E+03  0.34414864105E+03  0.00000000000E+00 0. -1.
</event>
<event>
 8    1  0.7008488E-006  0.1050630E+04  0.7818608E-02  0.8730597E-01
         21   -1    0    0  503  502  0.00000000000E+00  0.00000000000E+00  0.17764407098E+04  0.17764407098E+04  0.00000000000E+00 0. -1.
         21   -1    0    0  501  503 -0.00000000000E+00 -0.00000000000E+00 -0.65732665351E+03  0.65732665351E+03  0.00000000000E+00 0. -1.
    9000010    2    1    2  501    0  0.31920050591E+03  0.29068447232E+02  0.25540381515E+03  0.10812282118E+04  0.10005445515E+04 0.  0.
   -9000010    2    1    2    0  502 -0.31920050591E+03 -0.29068447232E+02  0.86371024112E+03  0.13525391515E+04  0.99026907362E+03 0.  0.
        -13    1    3    3    0    0 -0.16115139551E+03 -0.37916357114E+03  0.35219897494E+02  0.41349152143E+03  0.10566000000E+00 0.  1.
         13    1    4    4    0    0  0.15123056623E+03  0.38524635867E+03  0.35335789836E+03  0.54419413496E+03  0.10566000000E+00 0. -1.
          4    1    3    3  501    0  0.48035190142E+03  0.40823201837E+03  0.22018391766E+03  0.66773669033E+03  0.00000000000E+00 0.  1.
         -4    1    4    4    0  502 -0.47043107214E+03 -0.41431480590E+03  0.51035234276E+03  0.80834501656E+03  0.00000000000E+00 0. -1.
</event>
<event>
 8    1  0.7008488E-006  0.1062472E+04  0.7818608E-02  0.8725078E-01
         21   -1    0    0  503  502  0.00000000000E+00  0.00000000000E+00  0.97919510952E+03  0.97919510952E+03  0.00000000000E+00 0. -1.
         21   -1    0    0  501  503 -0.00000000000E+00 -0.00000000000E+00 -0.11663478726E+04  0.11663478726E+04  0.00000000000E+00 0. -1.
    9000010    2    1    2  501    0  0.66600885320E+02  0.35941609879E+03 -0.31216579120E+03  0.11073820344E+04  0.99761309082E+03 0.  0.
   -9000010    2    1    2    0  502 -0.66600885320E+02 -0.35941609879E+03  0.12501302816E+03  0.10381609477E+04  0.96360483915E+03 0.  0.
        -13    1    3    3    0    0 -0.59423311058E+02  0.58474241117E+03  0.12385220128E+03  0.60066146559E+03  0.10566000000E+00 0.  1.
         13    1    4    4    0    0 -0.26110262658E+03 -0.51947432332E+03  0.36807601942E+03  0.68811926397E+03  0.10566000000E+00 0. -1.
          4    1    3    3  501    0  0.12602419638E+03 -0.22532631238E+03 -0.43601799248E+03  0.50672056884E+03  0.00000000000E+00 0.  1.
         -4    1    4    4    0  502  0.19450174127E+03  0.16005822453E+03 -0.24306299127E+03  0.35004168369E+03  0.00000000000E+00 0. -1.
</event>
<event>
 8    1  0.7008488E-006  0.1147332E+04  0.7818608E-02  0.8649170E-01
         21   -1    0    0  501  502  0.00000000000E+00  0.00000000000E+00  0.11369610028E+04  0.11369610028E+04  0.00000000000E+00 0. -1.
         21   -1    0    0  502  503 -0.00000000000E+00 -0.00000000000E+00 -0.14263282460E+04  0.14263282460E+04  0.00000000000E+00 0. -1.
   -9000010    2    1    2    0  503  0.24652826975E+03  0.46464541431E+03  0.42055353495E+03  0.12219808230E+04  0.10196569557E+04 0.  0.
    9000010    2    1    2  501    0 -0.24652826975E+03 -0.46464541431E+03 -0.70992077811E+03  0.13413084257E+04  0.10091824577E+04 0.  0.
        -13    1    4    4    0    0 -0.56297762623E+03  0.11740498167E+02 -0.30338366514E+03  0.63962747469E+03  0.10566000000E+00 0.  1.
         13    1    3    3    0    0  0.36625221604E+03 -0.16362528915E+03  0.42223036878E+03  0.58240228063E+03  0.10566000000E+00 0. -1.
          4    1    4    4  501    0  0.31644935648E+03 -0.47638591248E+03 -0.40653711297E+03  0.70168095104E+03  0.00000000000E+00 0.  1.
         -4    1    3    3    0  503 -0.11972394628E+03  0.62827070346E+03 -0.16768338385E+01  0.63957854241E+03  0.00000000000E+00 0. -1.
</event>
<event>
 8    1  0.7008488E-006  0.1203656E+04  0.7818608E-02  0.8604257E-01
         21   -1    0    0  501  502  0.00000000000E+00  0.00000000000E+00  0.28986566230E+04  0.28986566230E+04  0.00000000000E+00 0. -1.
         21   -1    0    0  502  503 -0.00000000000E+00 -0.00000000000E+00 -0.65804282721E+03  0.65804282721E+03  0.00000000000E+00 0. -1.
   -9000010    2    1    2    0  503 -0.20594487135E+02  0.67388523684E+03  0.19941996148E+04  0.23280795111E+04  0.99427192502E+03 0.  0.
    9000010    2    1    2  501    0  0.20594487135E+02 -0.67388523684E+03  0.24641418094E+03  0.12286199391E+04  0.99711662348E+03 0.  0.
        -13    1    4    4    0    0  0.74800350910E+02  0.25660672097E+03  0.98649675467E+02  0.28491028654E+03  0.10566000000E+00 0.  1.
         13    1    3    3    0    0  0.15243333260E+03  0.77149212215E+03  0.19781938643E+04  0.21287759373E+04  0.10566000000E+00 0. -1.
          4    1    4    4  501    0 -0.54205863775E+02 -0.93049195781E+03  0.14776450548E+03  0.94370965254E+03  0.00000000000E+00 0.  1.
         -4    1    3    3    0  503 -0.17302781973E+03 -0.97606885314E+02  0.16005750515E+02  0.19930357376E+03  0.00000000000E+00 0. -1.
</event>
<event>
 8    1  0.7008488E-006  0.1102613E+04  0.7818608E-02  0.8687243E-01
         21   -1    0    0  501  502  0.00000000000E+00  0.00000000000E+00  0.42823956398E+03  0.42823956398E+03  0.00000000000E+00 0.  1.
         21   -1    0    0  502  503 -0.00000000000E+00 -0.00000000000E+00 -0.27998292058E+04  0.27998292058E+04  0.00000000000E+00 0.  1.
   -9000010    2    1    2    0  503 -0.45197123982E+03 -0.95462620237E+02 -0.12523156338E+04  0.16685474782E+04  0.10011818650E+04 0.  0.
    9000010    2    1    2  501    0  0.45197123982E+03  0.95462620237E+02 -0.11192740081E+04  0.15595212916E+04  0.98282309718E+03 0.  0.
        -13    1    4    4    0    0 -0.24734238082E+03 -0.19718503652E+03 -0.23070842956E+03  0.39151830431E+03  0.10566000000E+00 0.  1.
         13    1    3    3    0    0 -0.45733379793E+03  0.35354287904E+03 -0.39304536280E+03  0.69902177250E+03  0.10566000000E+00 0. -1.
          4    1    4    4  501    0  0.69931362064E+03  0.29264765675E+03 -0.88856557852E+03  0.11680029873E+04  0.00000000000E+00 0.  1.
         -4    1    3    3    0  503  0.53625581110E+01 -0.44900549928E+03 -0.85927027098E+03  0.96952570569E+03  0.00000000000E+00 0. -1.
</event>
<event>
 8    1  0.7008488E-006  0.1051978E+04  0.7818608E-02  0.8728366E-01
         21   -1    0    0  503  502  0.00000000000E+00  0.00000000000E+00  0.87968917734E+03  0.87968917734E+03  0.00000000000E+00 0.  1.
         21   -1    0    0  501  503 -0.00000000000E+00 -0.00000000000E+00 -0.19303014712E+04  0.19303014712E+04  0.00000000000E+00 0.  1.
    9000010    2    1    2  501    0  0.32322494640E+03 -0.76751017336E+02 -0.13574087830E+04  0.17141888830E+04  0.99273351803E+03 0.  0.
   -9000010    2    1    2    0  502 -0.32322494640E+03  0.76751017336E+02  0.30679648915E+03  0.10958017655E+04  0.99814444793E+03 0.  0.
        -13    1    3    3    0    0  0.97860859708E+02 -0.52409767427E+03 -0.56589126572E+03  0.77748829948E+03  0.10566000000E+00 0.  1.
         13    1    4    4    0    0 -0.64906655472E+03  0.13797961809E+03  0.30583238816E+02  0.66427487769E+03  0.10566000000E+00 0. -1.
          4    1    3    3  501    0  0.22536408669E+03  0.44734665693E+03 -0.79151751729E+03  0.93670058354E+03  0.00000000000E+00 0.  1.
         -4    1    4    4    0  502  0.32584160832E+03 -0.61228600753E+02  0.27621325034E+03  0.43152688784E+03  0.00000000000E+00 0. -1.
</event>
<event>
 8    1  0.7008488E-006  0.1261849E+04  0.7818608E-02  0.8564089E-01
         21   -1    0    0  501  502  0.00000000000E+00  0.00000000000E+00  0.79335293250E+03  0.79335293250E+03  0.00000000000E+00 0. -1.
         21   -1    0    0  502  503 -0.00000000000E+00 -0.00000000000E+00 -0.31580242586E+04  0.31580242586E+04  0.00000000000E+00 0. -1.
   -9000010    2    1    2    0  503  0.59427387917E+03 -0.48194891137E+03 -0.23919410779E+04  0.27043753321E+04  0.10034080029E+04 0.  0.
    9000010    2    1    2  501    0 -0.59427387917E+03  0.48194891137E+03  0.27269751733E+02  0.12470018590E+04  0.98429355398E+03 0.  0.
        -13    1    4    4    0    0 -0.51242215571E+03 -0.20605776150E+03 -0.18726627397E+02  0.55261828098E+03  0.10566000000E+00 0.  1.
         13    1    3    3    0    0 -0.24441495753E+03 -0.18104131666E+03 -0.28522089715E+03  0.41697194287E+03  0.10566000000E+00 0. -1.
          4    1    4    4  501    0 -0.81851723451E+02  0.68800667287E+03  0.45996379130E+02  0.69438357803E+03  0.00000000000E+00 0.  1.
         -4    1    3    3    0  503  0.83868883669E+03 -0.30090759471E+03 -0.21067201807E+04  0.22874033893E+04  0.00000000000E+00 0. -1.
</event>
<event>
 8    1  0.7008488E-006  0.1527862E+04  0.7818608E-02  0.8395792E-01
         21   -1    0    0  501  502  0.00000000000E+00  0.00000000000E+00  0.25224875921E+04  0.25224875921E+04  0.00000000000E+00 0.  1.
         21   -1    0    0  502  503 -0.00000000000E+00 -0.00000000000E+00 -0.12149791285E+04  0.12149791285E+04  0.00000000000E+00 0. -1.
   -9000010    2    1    2    0  503 -0.59660843697E+03  0.98413507747E+03 -0.27533777071E+03  0.15375201856E+04  0.98167915099E+03 0.  0.
    9000010    2    1    2  501    0  0.59660843697E+03 -0.98413507747E+03  0.15828462342E+04  0.21999465350E+04  0.10049373502E+04 0.  0.
        -13    1    4    4    0    0  0.69678497122E+03 -0.62428771495E+03  0.15682832889E+04  0.18261316855E+04  0.10566000000E+00 0.  1.
         13    1    3    3    0    0  0.39741156350E+02 -0.18078739032E+03 -0.26300847727E+02  0.18696305989E+03  0.10566000000E+00 0. -1.
          4    1    4    4  501    0 -0.10017653425E+03 -0.35984736252E+03  0.14562945291E+02  0.37381484950E+03  0.00000000000E+00 0.  1.
         -4    1    3    3    0  503 -0.63634959332E+03  0.11649224678E+04 -0.24903692298E+03  0.13505571257E+04  0.00000000000E+00 0. -1.
</event>
<event>
 8    1  0.7008488E-006  0.1083975E+04  0.7818608E-02  0.8700945E-01
         21   -1    0    0  501  502  0.00000000000E+00  0.00000000000E+00  0.13040698212E+04  0.13040698212E+04  0.00000000000E+00 0. -1.
         21   -1    0    0  502  503 -0.00000000000E+00 -0.00000000000E+00 -0.95897039243E+03  0.95897039243E+03  0.00000000000E+00 0. -1.
   -9000010    2    1    2    0  503 -0.39777578796E+03  0.18775677049E+03 -0.11960828699E+03  0.10836526057E+04  0.98311680143E+03 0.  0.
    9000010    2    1    2  501    0  0.39777578796E+03 -0.18775677049E+03  0.46470771573E+03  0.11793876079E+04  0.99071877251E+03 0.  0.
        -13    1    4    4    0    0  0.32412031693E+03 -0.51780038871E+03  0.77681679577E+01  0.61092681885E+03  0.10566000000E+00 0.  1.
         13    1    3    3    0    0 -0.12311524706E+03 -0.29827378447E+03 -0.35326687135E+03  0.47845805262E+03  0.10566000000E+00 0. -1.
          4    1    4    4  501    0  0.73655471033E+02  0.33004361822E+03  0.45693954777E+03  0.56846078903E+03  0.00000000000E+00 0.  1.
         -4    1    3    3    0  503 -0.27466054090E+03  0.48603055496E+03  0.23365858436E+03  0.60519455312E+03  0.00000000000E+00 0. -1.
</event>
<event>
 8    1  0.7008488E-006  0.1107708E+04  0.7818608E-02  0.8683725E-01
         21   -1    0    0  503  502  0.00000000000E+00  0.00000000000E+00  0.92961700820E+03  0.92961700820E+03  0.00000000000E+00 0.  1.
         21   -1    0    0  501  503 -0.00000000000E+00 -0.00000000000E+00 -0.14225025082E+04  0.14225025082E+04  0.00000000000E+00 0.  1.
    9000010    2    1    2  501    0 -0.15280615959E+03 -0.42536680956E+03  0.10630416713E+03  0.10927367707E+04  0.98918472944E+03 0.  0.
   -9000010    2    1    2    0  502  0.15280615959E+03  0.42536680956E+03 -0.59918966716E+03  0.12593827458E+04  0.10113011411E+04 0.  0.
        -13    1    3    3    0    0  0.31271776562E+03 -0.51246516649E+03 -0.26304488453E+02  0.60092003218E+03  0.10566000000E+00 0.  1.
         13    1    4    4    0    0 -0.31490766111E+03  0.54060698060E+03 -0.32241316578E+03  0.70382739584E+03  0.10566000000E+00 0. -1.
          4    1    3    3  501    0 -0.46552392521E+03  0.87098356936E+02  0.13260865558E+03  0.49181673849E+03  0.00000000000E+00 0.  1.
         -4    1    4    4    0  502  0.46771382071E+03 -0.11524017104E+03 -0.27677650138E+03  0.55555534992E+03  0.00000000000E+00 0. -1.
</event>
<event>
 8    1  0.7008488E-006  0.1123138E+04  0.7818608E-02  0.8666901E-01
         21   -1    0    0  501  502  0.00000000000E+00  0.00000000000E+00  0.96290580484E+03  0.96290580484E+03  0.00000000000E+00 0.  1.
         21   -1    0    0  502  503 -0.00000000000E+00 -0.00000000000E+00 -0.15261498749E+04  0.15261498749E+04  0.00000000000E+00 0.  1.
   -9000010    2    1    2    0  503  0.26734184369E+03 -0.42484828304E+03 -0.75049936496E+03  0.13504143881E+04  0.10041922115E+04 0.  0.
    9000010    2    1    2  501    0 -0.26734184369E+03  0.42484828304E+03  0.18725529487E+03  0.11386412917E+04  0.10047246990E+04 0.  0.
        -13    1    4    4    0    0 -0.80860409890E+02 -0.30344437287E+03 -0.10635210396E+03  0.33155342630E+03  0.10566000000E+00 0.  1.
         13    1    3    3    0    0 -0.19587506562E+02 -0.70856330175E+03 -0.56424278510E+03  0.90598871666E+03  0.10566000000E+00 0. -1.
          4    1    4    4  501    0 -0.18648143380E+03  0.72829265591E+03  0.29360739884E+03  0.80708786538E+03  0.00000000000E+00 0.  1.
         -4    1    3    3    0  503  0.28692935025E+03  0.28371501871E+03 -0.18625657986E+03  0.44442567142E+03  0.00000000000E+00 0. -1.
</event>
<event>
 8    1  0.7008488E-006  0.1145878E+04  0.7818608E-02  0.8648554E-01
         21   -1    0    0  503  502  0.00000000000E+00  0.00000000000E+00  0.12992130741E+04  0.12992130741E+04  0.00000000000E+00 0.  1.
         21   -1    0    0  501  503 -0.00000000000E+00 -0.00000000000E+00 -0.11356633436E+04  0.11356633436E+04  0.00000000000E+00 0.  1.
    9000010    2    1    2  501    0 -0.52119628180E+02 -0.56999803985E+03 -0.32274468465E+03  0.11904624552E+04  0.99268449407E+03 0.  0.
   -9000010    2    1    2    0  502  0.52119628180E+02  0.56999803985E+03  0.48629441522E+03  0.12444139625E+04  0.99220442984E+03 0.  0.
        -13    1    3    3    0    0 -0.42431340617E+03 -0.61001806529E+03 -0.33683890175E+03  0.81585805354E+03  0.10566000000E+00 0.  1.
         13    1    4    4    0    0 -0.21228442877E+03 -0.15123418709E+02 -0.20879660701E+03  0.29814330573E+03  0.10566000000E+00 0. -1.
          4    1    3    3  501    0  0.37219377799E+03  0.40020025435E+02  0.14094217099E+02  0.37460440169E+03  0.00000000000E+00 0.  1.
         -4    1    4    4    0  502  0.26440405695E+03  0.58512145856E+03  0.69509102222E+03  0.94627065672E+03  0.00000000000E+00 0. -1.
</event>
<event>
 8    1  0.7008488E-006  0.1075099E+04  0.7818608E-02  0.8711750E-01
         21   -1    0    0  501  502  0.00000000000E+00  0.00000000000E+00  0.70071651944E+03  0.70071651944E+03  0.00000000000E+00 0. -1.
         21   -1    0    0  502  503 -0.00000000000E+00 -0.00000000000E+00 -0.16666356574E+04  0.16666356574E+04  0.00000000000E+00 0. -1.
   -9000010    2    1    2    0  503  0.21692536818E+03  0.33058511027E+03 -0.69277929877E+03  0.12789764840E+04  0.99974724767E+03 0.  0.
    9000010    2    1    2  501    0 -0.21692536818E+03 -0.33058511027E+03 -0.27313983921E+03  0.10883756929E+04  0.97653118057E+03 0.  0.
        -13    1    4    4    0    0 -0.11766721421E+03 -0.67984224714E+03 -0.16287570634E+03  0.70891435391E+03  0.10566000000E+00 0.  1.
         13    1    3    3    0    0  0.16567690595E+03 -0.39556438947E+02  0.22838350756E+03  0.28490803204E+03  0.10566000000E+00 0. -1.
          4    1    4    4  501    0 -0.99258153975E+02  0.34925713687E+03 -0.11026413288E+03  0.37946133899E+03  0.00000000000E+00 0.  1.
         -4    1    3    3    0  503  0.51248462230E+02  0.37014154922E+03 -0.92116280633E+03  0.99406845192E+03  0.00000000000E+00 0. -1.
</event>
<event>
 8    1  0.7008488E-006  0.1130195E+04  0.7818608E-02  0.8661702E-01
         21   -1    0    0  501  502  0.00000000000E+00  0.00000000000E+00  0.74911085955E+03  0.74911085955E+03  0.00000000000E+00 0.  1.
         21   -1    0    0  502  503 -0.00000000000E+00 -0.00000000000E+00 -0.17214226646E+04  0.17214226646E+04  0.00000000000E+00 0.  1.
   -9000010    2    1    2    0  503  0.23165634905E+03 -0.44760117375E+03 -0.62328216614E+03  0.12906666304E+04  0.10115968650E+04 0.  0.
    9000010    2    1    2  501    0 -0.23165634905E+03  0.44760117375E+03 -0.34902963888E+03  0.11798668938E+04  0.10080936084E+04 0.  0.
        -13    1    4    4    0    0 -0.54167387629E+03  0.47304659219E+03 -0.92616029917E+01  0.71921447086E+03  0.10566000000E+00 0.  1.
         13    1    3    3    0    0  0.46580290499E+03 -0.16948759143E+03  0.77012286487E+02  0.50162664740E+03  0.10566000000E+00 0. -1.
          4    1    4    4  501    0  0.31001752724E+03 -0.25445418439E+02 -0.33976803589E+03  0.46065242290E+03  0.00000000000E+00 0.  1.
         -4    1    3    3    0  503 -0.23414655594E+03 -0.27811358232E+03 -0.70029445263E+03  0.78903998296E+03  0.00000000000E+00 0. -1.
</event>
<event>
 8    1  0.7008488E-006  0.1075174E+04  0.7818608E-02  0.8711470E-01
         21   -1    0    0  503  502  0.00000000000E+00  0.00000000000E+00  0.19720836568E+04  0.19720836568E+04  0.00000000000E+00 0.  1.
         21   -1    0    0  501  503 -0.00000000000E+00 -0.00000000000E+00 -0.58088980756E+03  0.58088980756E+03  0.00000000000E+00 0.  1.
    9000010    2    1    2  501    0 -0.58819582973E+02  0.35353182635E+03  0.81728118371E+03  0.13342142834E+04  0.99183402096E+03 0.  0.
   -9000010    2    1    2    0  502  0.58819582973E+02 -0.35353182635E+03  0.57391266555E+03  0.12187591810E+04  0.10136832336E+04 0.  0.
        -13    1    3    3    0    0 -0.35450492153E+03  0.16527872665E+03 -0.54202296646E+02  0.39487807865E+03  0.10566000000E+00 0.  1.
         13    1    4    4    0    0 -0.22463020469E+03 -0.15854579685E+03 -0.22089259768E+03  0.35268831769E+03  0.10566000000E+00 0. -1.
          4    1    3    3  501    0  0.29568533855E+03  0.18825309969E+03  0.87148348035E+03  0.93933620472E+03  0.00000000000E+00 0.  1.
         -4    1    4    4    0  502  0.28344978766E+03 -0.19498602950E+03  0.79480526323E+03  0.86607086332E+03  0.00000000000E+00 0. -1.
</event>
<event>
 8    1  0.7008488E-006  0.1090649E+04  0.7818608E-02  0.8694913E-01
         21   -1    0    0  501  502  0.00000000000E+00  0.00000000000E+00  0.81982565388E+03  0.81982565388E+03  0.00000000000E+00 0. -1.
         21   -1    0    0  502  503 -0.00000000000E+00 -0.00000000000E+00 -0.14668111572E+04  0.14668111572E+04  0.00000000000E+00 0. -1.
   -9000010    2    1    2    0  503 -0.30376054460E+01 -0.43854485165E+03 -0.46553382047E+03  0.11809968997E+04  0.99282482096E+03 0.  0.
    9000010    2    1    2  501    0  0.30376054460E+01  0.43854485165E+03 -0.18145168282E+03  0.11056399114E+04  0.99859105066E+03 0.  0.
        -13    1    4    4    0    0  0.40256324117E+03  0.53006917327E+02  0.17893766797E+03  0.44371792460E+03  0.10566000000E+00 0.  1.
         13    1    3    3    0    0  0.12603321247E+03 -0.32298871026E+03  0.26108089314E+03  0.43401534711E+03  0.10566000000E+00 0. -1.
          4    1    4    4  501    0 -0.39952563572E+03  0.38553793432E+03 -0.36038935079E+03  0.66192198677E+03  0.00000000000E+00 0.  1.
         -4    1    3    3    0  503 -0.12907081792E+03 -0.11555614139E+03 -0.72661471361E+03  0.74698155257E+03  0.00000000000E+00 0. -1.
</event>
<event>
 8    1  0.7008488E-006  0.1103847E+04  0.7818608E-02  0.8686478E-01
         21   -1    0    0  503  502  0.00000000000E+00  0.00000000000E+00  0.96724311121E+03  0.96724311121E+03  0.00000000000E+00 0. -1.
         21   -1    0    0  501  503 -0.00000000000E+00 -0.00000000000E+00 -0.12430226028E+04  0.12430226028E+04  0.00000000000E+00 0. -1.
    9000010    2    1    2  501    0  0.40872353897E+03 -0.19964929412E+02 -0.19881120560E+03  0.11216080732E+04  0.10251952227E+04 0.  0.
   -9000010    2    1    2    0  502 -0.40872353897E+03  0.19964929412E+02 -0.76968285953E+02  0.10886576408E+04  0.10058816094E+04 0.  0.
        -13    1    3    3    0    0  0.28650614284E+03  0.44465254115E+03 -0.33017100335E+03  0.62354996179E+03  0.10566000000E+00 0.  1.
         13    1    4    4    0    0  0.26228125765E+03  0.10964716126E+03  0.20994199860E+03  0.35339724395E+03  0.10566000000E+00 0. -1.
          4    1    3    3  501    0  0.12221739612E+03 -0.46461747056E+03  0.13135979774E+03  0.49805811140E+03  0.00000000000E+00 0.  1.
         -4    1    4    4    0  502 -0.67100479662E+03 -0.89682231844E+02 -0.28691028456E+03  0.73526039685E+03  0.00000000000E+00 0. -1.
</event>
<event>
 8    1  0.7008488E-006  0.1123722E+04  0.7818608E-02  0.8670131E-01
         21   -1    0    0  503  502  0.00000000000E+00  0.00000000000E+00  0.21241344038E+04  0.21241344038E+04  0.00000000000E+00 0. -1.
         21   -1    0    0  501  503 -0.00000000000E+00 -0.00000000000E+00 -0.58489885362E+03  0.58489885362E+03  0.00000000000E+00 0. -1.
    9000010    2    1    2  501    0 -0.27058792869E+03 -0.37437445395E+03  0.79877421188E+03  0.13786920546E+04  0.10243912734E+04 0.  0.
   -9000010    2    1    2    0  502  0.27058792869E+03  0.37437445395E+03  0.74046133828E+03  0.13303412027E+04  0.10040670612E+04 0.  0.
        -13    1    3    3    0    0 -0.62974921377E+03 -0.40208031625E+03  0.64484617747E+03  0.98695453630E+03  0.10566000000E+00 0.  1.
         13    1    4    4    0    0  0.12642922647E+03  0.36156079155E+03 -0.16234167647E+03  0.41601128155E+03  0.10566000000E+00 0. -1.
          4    1    3    3  501    0  0.35916128508E+03  0.27705862306E+02  0.15392803441E+03  0.39173751835E+03  0.00000000000E+00 0.  1.
         -4    1    4    4    0  502  0.14415870222E+03  0.12813662399E+02  0.90280301475E+03  0.91432992120E+03  0.00000000000E+00 0. -1.
</event>
<event>
 8    1  0.7008488E-006  0.1158085E+04  0.7818608E-02  0.8641302E-01
         21   -1    0    0  503  502  0.00000000000E+00  0.00000000000E+00  0.17260571705E+04  0.17260571705E+04  0.00000000000E+00 0. -1.
         21   -1    0    0  501  503 -0.00000000000E+00 -0.00000000000E+00 -0.88324493461E+03  0.88324493461E+03  0.00000000000E+00 0. -1.
    9000010    2    1    2  501    0  0.36198333209E+03  0.41407837585E+03 -0.50666548487E+02  0.11466110357E+04  0.10048168659E+04 0.  0.
   -9000010    2    1    2    0  502 -0.36198333209E+03 -0.41407837585E+03  0.89347878437E+03  0.14626910694E+04  0.10191506230E+04 0.  0.
        -13    1    3    3    0    0  0.50888836560E+03  0.40593892153E+03  0.33623990404E+03  0.73267391171E+03  0.10566000000E+00 0.  1.
         13    1    4    4    0    0 -0.82109519806E+02 -0.72723142240E+03  0.49337673568E+03  0.88262570178E+03  0.10566000000E+00 0. -1.
          4    1    3    3  501    0 -0.14690503352E+03  0.81394543139E+01 -0.38690645253E+03  0.41393712397E+03  0.00000000000E+00 0.  1.
         -4    1    4    4    0  502 -0.27987381228E+03  0.31315304656E+03  0.40010204870E+03  0.58006536764E+03  0.00000000000E+00 0. -1.
</event>
<event>
 8    1  0.7008488E-006  0.1276031E+04  0.7818608E-02  0.8551858E-01
         21   -1    0    0  503  502  0.00000000000E+00  0.00000000000E+00  0.19364764160E+04  0.19364764160E+04  0.00000000000E+00 0. -1.
         21   -1    0    0  501  503 -0.00000000000E+00 -0.00000000000E+00 -0.83928691008E+03  0.83928691008E+03  0.00000000000E+00 0.  1.
    9000010    2    1    2  501    0 -0.28424033089E+03  0.75478409210E+03  0.52969336935E+03  0.13792293072E+04  0.98549826225E+03 0.  0.
   -9000010    2    1    2    0  502  0.28424033089E+03 -0.75478409210E+03  0.56749613653E+03  0.13965340188E+04  0.98881940182E+03 0.  0.
        -13    1    3    3    0    0  0.27688651352E+03 -0.19004733783E+02 -0.17074734437E+02  0.27806272493E+03  0.10566000000E+00 0.  1.
         13    1    4    4    0    0  0.14771589412E+03 -0.29766713038E+03 -0.27301253022E+03  0.43007157394E+03  0.10566000000E+00 0. -1.
          4    1    3    3  501    0 -0.56112684441E+03  0.77378882588E+03  0.54676810379E+03  0.11011665823E+04  0.00000000000E+00 0.  1.
         -4    1    4    4    0  502  0.13652443677E+03 -0.45711696172E+03  0.84050866675E+03  0.96646244491E+03  0.00000000000E+00 0. -1.
</event>
<event>
 8    1  0.7008488E-006  0.1080347E+04  0.7818608E-02  0.8706616E-01
         21   -1    0    0  503  502  0.00000000000E+00  0.00000000000E+00  0.15796674894E+04  0.15796674894E+04  0.00000000000E+00 0.  1.
         21   -1    0    0  501  503 -0.00000000000E+00 -0.00000000000E+00 -0.10716341856E+04  0.10716341856E+04  0.00000000000E+00 0.  1.
    9000010    2    1    2  501    0  0.35352734219E+03 -0.14936988845E+03 -0.49724708033E+03  0.11892876308E+04  0.10098799259E+04 0.  0.
   -9000010    2    1    2    0  502 -0.35352734219E+03  0.14936988845E+03  0.10052803841E+04  0.14620140443E+04  0.98974919531E+03 0.  0.
        -13    1    3    3    0    0 -0.15982333638E+03 -0.34899215633E+03 -0.51004004465E+03  0.63834150918E+03  0.10566000000E+00 0.  1.
         13    1    4    4    0    0 -0.42553861103E+03  0.51337985692E+03  0.78699687537E+03  0.10315067038E+04  0.10566000000E+00 0. -1.
          4    1    3    3  501    0  0.51335067857E+03  0.19962226788E+03  0.12792964320E+02  0.55094612165E+03  0.00000000000E+00 0.  1.
         -4    1    4    4    0  502  0.72011268841E+02 -0.36400996847E+03  0.21828350877E+03  0.43050734046E+03  0.00000000000E+00 0. -1.
</event>
<event>
 8    1  0.7008488E-006  0.1140119E+04  0.7818608E-02  0.8657832E-01
         21   -1    0    0  503  502  0.00000000000E+00  0.00000000000E+00  0.20104450682E+04  0.20104450682E+04  0.00000000000E+00 0. -1.
         21   -1    0    0  501  503 -0.00000000000E+00 -0.00000000000E+00 -0.71297758981E+03  0.71297758981E+03  0.00000000000E+00 0. -1.
    9000010    2    1    2  501    0  0.36809784588E+03  0.43412278290E+03  0.19954105320E+03  0.11574492208E+04  0.98788331910E+03 0.  0.
   -9000010    2    1    2    0  502 -0.36809784588E+03 -0.43412278290E+03  0.10979264252E+04  0.15659734372E+04  0.96066214458E+03 0.  0.
        -13    1    3    3    0    0 -0.18740050331E+03  0.47723183155E+03 -0.10372332608E+03  0.52309435977E+03  0.10566000000E+00 0.  1.
         13    1    4    4    0    0 -0.46199086302E+03 -0.10367161974E+03  0.65617972850E+02  0.47800532610E+03  0.10566000000E+00 0. -1.
          4    1    3    3  501    0  0.55549834919E+03 -0.43109048652E+02  0.30326437928E+03  0.63435486107E+03  0.00000000000E+00 0.  1.
         -4    1    4    4    0  502  0.93893017147E+02 -0.33045116317E+03  0.10323084524E+04  0.10879681111E+04  0.00000000000E+00 0. -1.
</event>
<event>
 8    1  0.7008488E-006  0.1436689E+04  0.7818608E-02  0.8453913E-01
         21   -1    0    0  503  502  0.00000000000E+00  0.00000000000E+00  0.12471029535E+04  0.12471029535E+04  0.00000000000E+00 0. -1.
         21   -1    0    0  501  503 -0.00000000000E+00 -0.00000000000E+00 -0.16463745429E+04  0.16463745429E+04  0.00000000000E+00 0.  1.
    9000010    2    1    2  501    0 -0.15055493652E+03  0.95754255890E+03 -0.43118408954E+03  0.14564343932E+04  0.99786115345E+03 0.  0.
   -9000010    2    1    2    0  502  0.15055493652E+03 -0.95754255890E+03  0.31912500089E+02  0.14370431032E+04  0.10604338414E+04 0.  0.
        -13    1    3    3    0    0 -0.52053372697E+03  0.60322530379E+03 -0.15816508227E+02  0.79692302084E+03  0.10566000000E+00 0.  1.
         13    1    4    4    0    0 -0.10776758040E+03 -0.83500476973E+03  0.43121384194E+03  0.94593456724E+03  0.10566000000E+00 0. -1.
          4    1    3    3  501    0  0.36997879045E+03  0.35431725511E+03 -0.41536758131E+03  0.65951137235E+03  0.00000000000E+00 0.  1.
         -4    1    4    4    0  502  0.25832251692E+03 -0.12253778918E+03 -0.39930134185E+03  0.49110853600E+03  0.00000000000E+00 0. -1.
</event>
<event>
 8    1  0.7008488E-006  0.1130556E+04  0.7818608E-02  0.8679818E-01
         21   -1    0    0  501  502  0.00000000000E+00  0.00000000000E+00  0.16255994708E+04  0.16255994708E+04  0.00000000000E+00 0.  1.
         21   -1    0    0  502  503 -0.00000000000E+00 -0.00000000000E+00 -0.74098348609E+03  0.74098348609E+03  0.00000000000E+00 0.  1.
   -9000010    2    1    2    0  503  0.42445152408E+03 -0.17756658857E+03  0.59873854333E+03  0.12004430619E+04  0.93321311170E+03 0.  0.
    9000010    2    1    2  501    0 -0.42445152408E+03  0.17756658857E+03  0.28587744141E+03  0.11661398951E+04  0.10326990625E+04 0.  0.
        -13    1    4    4    0    0 -0.99747638740E+02 -0.37208911623E+03  0.35519515233E+03  0.52398808121E+03  0.10566000000E+00 0.  1.
         13    1    3    3    0    0  0.38404756029E+03 -0.52586456091E+03  0.22743787687E+03  0.68974927618E+03  0.10566000000E+00 0. -1.
          4    1    4    4  501    0 -0.32470388534E+03  0.54965570480E+03 -0.69317710922E+02  0.64215181384E+03  0.00000000000E+00 0.  1.
         -4    1    3    3    0  503  0.40403963783E+02  0.34829797234E+03  0.37130066646E+03  0.51069378569E+03  0.00000000000E+00 0. -1.
</event>
<event>
 8    1  0.7008488E-006  0.1211011E+04  0.7818608E-02  0.8600304E-01
         21   -1    0    0  501  502  0.00000000000E+00  0.00000000000E+00  0.15480919234E+04  0.15480919234E+04  0.00000000000E+00 0.  1.
         21   -1    0    0  502  503 -0.00000000000E+00 -0.00000000000E+00 -0.99252447631E+03  0.99252447631E+03  0.00000000000E+00 0.  1.
   -9000010    2    1    2    0  503 -0.50518777012E+03  0.44626547494E+03 -0.15961606373E+02  0.12111160631E+04  0.10060714628E+04 0.  0.
    9000010    2    1    2  501    0  0.50518777012E+03 -0.44626547494E+03  0.57152905345E+03  0.13295003366E+04  0.99325632581E+03 0.  0.
        -13    1    4    4    0    0  0.29666660765E+03  0.27156014886E+03  0.23962268480E+02  0.40290221149E+03  0.10566000000E+00 0.  1.
         13    1    3    3    0    0 -0.72548329288E+03  0.41363981136E+02  0.10587914874E+03  0.73433465973E+03  0.10566000000E+00 0. -1.
          4    1    4    4  501    0  0.20852116247E+03 -0.71782562380E+03  0.54756678496E+03  0.92659812507E+03  0.00000000000E+00 0.  1.
         -4    1    3    3    0  503  0.22029552275E+03  0.40490149380E+03 -0.12184075511E+03  0.47678140341E+03  0.00000000000E+00 0. -1.
</event>
<event>
 8    1  0.7008488E-006  0.1050412E+04  0.7818608E-02  0.8730124E-01
         21   -1    0    0  501  502  0.00000000000E+00  0.00000000000E+00  0.83022381244E+03  0.83022381244E+03  0.00000000000E+00 0.  1.
         21   -1    0    0  502  503 -0.00000000000E+00 -0.00000000000E+00 -0.13216506115E+04  0.13216506115E+04  0.00000000000E+00 0.  1.
   -9000010    2    1    2    0  503 -0.14820718964E+03  0.29006628759E+03 -0.27787737740E+03  0.10799744523E+04  0.99147625212E+03 0.  0.
    9000010    2    1    2  501    0  0.14820718964E+03 -0.29006628759E+03 -0.21354942170E+03  0.10718999717E+04  0.99863024764E+03 0.  0.
        -13    1    4    4    0    0 -0.15111505670E+03 -0.50288810876E+03 -0.39991780163E+03  0.66005035377E+03  0.10566000000E+00 0.  1.
         13    1    3    3    0    0  0.14974717031E+03 -0.32266286655E+03 -0.15330566721E+03  0.38734762066E+03  0.10566000000E+00 0. -1.
          4    1    4    4  501    0  0.29932224635E+03  0.21282182117E+03  0.18636837993E+03  0.41184961790E+03  0.00000000000E+00 0.  1.
         -4    1    3    3    0  503 -0.29795435995E+03  0.61272915414E+03 -0.12457171019E+03  0.69262683165E+03  0.00000000000E+00 0. -1.
</event>
<event>
 8    1  0.7008488E-006  0.1030216E+04  0.7818608E-02  0.8750169E-01
         21   -1    0    0  503  502  0.00000000000E+00  0.00000000000E+00  0.68093591170E+03  0.68093591170E+03  0.00000000000E+00 0.  1.
         21   -1    0    0  501  503 -0.00000000000E+00 -0.00000000000E+00 -0.15493686269E+04  0.15493686269E+04  0.00000000000E+00 0.  1.
    9000010    2    1    2  501    0 -0.26943828163E+03 -0.16392563129E+02 -0.32672098725E+03  0.10663470417E+04  0.97851096372E+03 0.  0.
   -9000010    2    1    2    0  502  0.26943828163E+03  0.16392563129E+02 -0.54171172799E+03  0.11639574969E+04  0.99422319159E+03 0.  0.
        -13    1    3    3    0    0  0.90034899071E+02  0.39538535374E+03  0.40977739780E+02  0.40757213757E+03  0.10566000000E+00 0.  1.
         13    1    4    4    0    0 -0.16098387743E+03  0.12078253880E+03  0.21038125016E+03  0.29114345614E+03  0.10566000000E+00 0. -1.
          4    1    3    3  501    0 -0.35947318070E+03 -0.41177791687E+03 -0.36769872703E+03  0.65877490414E+03  0.00000000000E+00 0.  1.
         -4    1    4    4    0  502  0.43042215906E+03 -0.10438997567E+03 -0.75209297815E+03  0.87281404080E+03  0.00000000000E+00 0. -1.
</event>
<event>
 8    1  0.7008488E-006  0.1194022E+04  0.7818608E-02  0.8647560E-01
         21   -1    0    0  501  502  0.00000000000E+00  0.00000000000E+00  0.83479115180E+03  0.83479115180E+03  0.00000000000E+00 0. -1.
         21   -1    0    0  502  503 -0.00000000000E+00 -0.00000000000E+00 -0.14685846416E+04  0.14685846416E+04  0.00000000000E+00 0. -1.
   -9000010    2    1    2    0  503  0.19692414963E+03 -0.61885447773E+03 -0.27673014337E+03  0.12256707176E+04  0.10019626493E+04 0.  0.
    9000010    2    1    2  501    0 -0.19692414963E+03  0.61885447773E+03 -0.35706334646E+03  0.10777050758E+04  0.78242827894E+03 0.  0.
        -13    1    4    4    0    0 -0.22669435461E+03  0.79462160959E+03 -0.35517724105E+03  0.89942465864E+03  0.10566000000E+00 0.  1.
         13    1    3    3    0    0 -0.33216336927E+02 -0.14631865099E+03 -0.59338075608E+03  0.61205653784E+03  0.10566000000E+00 0. -1.
          4    1    4    4  501    0  0.29770204981E+02 -0.17576713186E+03 -0.18861054116E+01  0.17828041715E+03  0.00000000000E+00 0.  1.
         -4    1    3    3    0  503  0.23014048656E+03 -0.47253582674E+03  0.31665061271E+03  0.61361417979E+03  0.00000000000E+00 0. -1.
</event>
<event>
 8    1  0.7008488E-006  0.1362120E+04  0.7818608E-02  0.8494926E-01
         21   -1    0    0  501  502  0.00000000000E+00  0.00000000000E+00  0.93088749490E+03  0.93088749490E+03  0.00000000000E+00 0. -1.
         21   -1    0    0  502  503 -0.00000000000E+00 -0.00000000000E+00 -0.19916639809E+04  0.19916639809E+04  0.00000000000E+00 0.  1.
   -9000010    2    1    2    0  503  0.40843409673E+03  0.81855511342E+03 -0.42403401440E+03  0.14265957086E+04  0.10092173132E+04 0.  0.
    9000010    2    1    2  501    0 -0.40843409673E+03 -0.81855511342E+03 -0.63674247157E+03  0.14959557672E+04  0.99779346421E+03 0.  0.
        -13    1    4    4    0    0 -0.36162519124E+03 -0.55134954840E+03  0.13925589533E+03  0.67390750034E+03  0.10566000000E+00 0.  1.
         13    1    3    3    0    0  0.48138332407E+03  0.88722508875E+03 -0.19240171219E+02  0.10095882617E+04  0.10566000000E+00 0. -1.
          4    1    4    4  501    0 -0.46808905493E+02 -0.26720556502E+03 -0.77599836690E+03  0.82204826685E+03  0.00000000000E+00 0.  1.
         -4    1    3    3    0  503 -0.72949227335E+02 -0.68669975325E+02 -0.40479384318E+03  0.41700744688E+03  0.00000000000E+00 0. -1.
</event>
<event>
 8    1  0.7008488E-006  0.1348427E+04  0.7818608E-02  0.8505991E-01
         21   -1    0    0  503  502  0.00000000000E+00  0.00000000000E+00  0.11415720736E+04  0.11415720736E+04  0.00000000000E+00 0. -1.
         21   -1    0    0  501  503 -0.00000000000E+00 -0.00000000000E+00 -0.16526707622E+04  0.16526707622E+04  0.00000000000E+00 0. -1.
    9000010    2    1    2  501    0 -0.86066036226E+03  0.80595769531E+02 -0.57064414519E+03  0.14445013879E+04  0.10068354294E+04 0.  0.
   -9000010    2    1    2    0  502  0.86066036226E+03 -0.80595769531E+02  0.59545456537E+02  0.13497414479E+04  0.10349030764E+04 0.  0.
        -13    1    3    3    0    0 -0.94295481362E+02 -0.40737468920E+03 -0.16494035482E+03  0.44950095331E+03  0.10566000000E+00 0.  1.
         13    1    4    4    0    0  0.65281095486E+03  0.75871250841E+02 -0.43695651493E+03  0.78920820865E+03  0.10566000000E+00 0. -1.
          4    1    3    3  501    0 -0.76636488090E+03  0.48797045874E+03 -0.40570379036E+03  0.99500043457E+03  0.00000000000E+00 0.  1.
         -4    1    4    4    0  502  0.20784940740E+03 -0.15646702037E+03  0.49650197147E+03  0.56053323924E+03  0.00000000000E+00 0. -1.
</event>
<event>
 8    1  0.7008488E-006  0.1122290E+04  0.7818608E-02  0.8668456E-01
         21   -1    0    0  501  502  0.00000000000E+00  0.00000000000E+00  0.21484661186E+04  0.21484661186E+04  0.00000000000E+00 0.  1.
         21   -1    0    0  502  503 -0.00000000000E+00 -0.00000000000E+00 -0.75509996285E+03  0.75509996285E+03  0.00000000000E+00 0.  1.
   -9000010    2    1    2    0  503  0.50646609157E+03  0.13654176891E+03  0.63345515122E+01  0.11223078927E+04  0.99216093598E+03 0.  0.
    9000010    2    1    2  501    0 -0.50646609157E+03 -0.13654176891E+03  0.13870316042E+04  0.17812581887E+04  0.98684978963E+03 0.  0.
        -13    1    4    4    0    0 -0.79280514312E+03 -0.21229689792E+03  0.10460384372E+04  0.13295888052E+04  0.10566000000E+00 0.  1.
         13    1    3    3    0    0 -0.51239867050E+02 -0.32370653609E+03  0.18652909047E+03  0.37710019655E+03  0.10566000000E+00 0. -1.
          4    1    4    4  501    0  0.28633905155E+03  0.75755129011E+02  0.34099316704E+03  0.45166938349E+03  0.00000000000E+00 0.  1.
         -4    1    3    3    0  503  0.55770595862E+03  0.46024830499E+03 -0.18019453895E+03  0.74520769614E+03  0.00000000000E+00 0. -1.
</event>
<event>
 8    1  0.7008488E-006  0.1130427E+04  0.7818608E-02  0.8670873E-01
         21   -1    0    0  501  502  0.00000000000E+00  0.00000000000E+00  0.18868071175E+04  0.18868071175E+04  0.00000000000E+00 0.  1.
         21   -1    0    0  502  503 -0.00000000000E+00 -0.00000000000E+00 -0.72477515256E+03  0.72477515256E+03  0.00000000000E+00 0.  1.
   -9000010    2    1    2    0  503  0.13280286735E+03  0.38026609031E+03  0.14660540412E+03  0.10920569727E+04  0.10044184318E+04 0.  0.
    9000010    2    1    2  501    0 -0.13280286735E+03 -0.38026609031E+03  0.10154265608E+04  0.15195252974E+04  0.10562325160E+04 0.  0.
        -13    1    4    4    0    0  0.35632247036E+03 -0.49194948591E+03  0.70037268508E+03  0.92709325784E+03  0.10566000000E+00 0.  1.
         13    1    3    3    0    0 -0.24214231237E+03  0.19842285490E+03  0.46990372865E+03  0.56463621399E+03  0.10566000000E+00 0. -1.
          4    1    4    4  501    0 -0.48912533771E+03  0.11168339560E+03  0.31505387577E+03  0.59243203955E+03  0.00000000000E+00 0.  1.
         -4    1    3    3    0  503  0.37494517973E+03  0.18184323541E+03 -0.32329832453E+03  0.52742075870E+03  0.00000000000E+00 0. -1.
</event>
<event>
 8    1  0.7008488E-006  0.1120846E+04  0.7818608E-02  0.8674186E-01
         21   -1    0    0  501  502  0.00000000000E+00  0.00000000000E+00  0.12239963264E+04  0.12239963264E+04  0.00000000000E+00 0. -1.
         21   -1    0    0  502  503 -0.00000000000E+00 -0.00000000000E+00 -0.10901327321E+04  0.10901327321E+04  0.00000000000E+00 0. -1.
   -9000010    2    1    2    0  503  0.41082777923E+03  0.22641781440E+03 -0.26097290805E+03  0.11508268374E+04  0.10179641742E+04 0.  0.
    9000010    2    1    2  501    0 -0.41082777923E+03 -0.22641781440E+03  0.39483650230E+03  0.11633022211E+04  0.98860088166E+03 0.  0.
        -13    1    4    4    0    0  0.37443418925E+02  0.35642913620E+03  0.14695476434E+03  0.38734926446E+03  0.10566000000E+00 0.  1.
         13    1    3    3    0    0  0.17789069037E+03  0.11514975507E+03  0.39369425628E+03  0.44710149005E+03  0.10566000000E+00 0. -1.
          4    1    4    4  501    0 -0.44827119815E+03 -0.58284695060E+03  0.24788173796E+03  0.77595295665E+03  0.00000000000E+00 0.  1.
         -4    1    3    3    0  503  0.23293708886E+03  0.11126805933E+03 -0.65466716433E+03  0.70372534731E+03  0.00000000000E+00 0. -1.
</event>
<event>
 8    1  0.7008488E-006  0.1055579E+04  0.7818608E-02  0.8724552E-01
         21   -1    0    0  501  502  0.00000000000E+00  0.00000000000E+00  0.19575241481E+04  0.19575241481E+04  0.00000000000E+00 0. -1.
         21   -1    0    0  502  503 -0.00000000000E+00 -0.00000000000E+00 -0.56800808266E+03  0.56800808266E+03  0.00000000000E+00 0. -1.
   -9000010    2    1    2    0  503  0.27880316674E+02  0.34218560421E+03  0.70219320728E+03  0.12678019466E+04  0.99818744520E+03 0.  0.
    9000010    2    1    2  501    0 -0.27880316674E+02 -0.34218560421E+03  0.68732285812E+03  0.12577302841E+04  0.99579338040E+03 0.  0.
        -13    1    4    4    0    0  0.47671564476E+03 -0.11449033619E+03  0.40710103630E+03  0.63725748953E+03  0.10566000000E+00 0.  1.
         13    1    3    3    0    0 -0.28859835838E+03  0.25523976611E+03  0.83041688873E+03  0.91543900447E+03  0.10566000000E+00 0. -1.
          4    1    4    4  501    0 -0.50459596143E+03 -0.22769526802E+03  0.28022182182E+03  0.62047279457E+03  0.00000000000E+00 0.  1.
         -4    1    3    3    0  503  0.31647867505E+03  0.86945838098E+02 -0.12822368144E+03  0.35236294216E+03  0.00000000000E+00 0. -1.
</event>
<event>
 8    1  0.7008488E-006  0.1140502E+04  0.7818608E-02  0.8656669E-01
         21   -1    0    0  501  502  0.00000000000E+00  0.00000000000E+00  0.69065583550E+03  0.69065583550E+03  0.00000000000E+00 0.  1.
         21   -1    0    0  502  503 -0.00000000000E+00 -0.00000000000E+00 -0.18516614761E+04  0.18516614761E+04  0.00000000000E+00 0.  1.
   -9000010    2    1    2    0  503  0.51433195481E+03 -0.46129170253E+02 -0.59389300320E+03  0.12858668077E+04  0.10168968915E+04 0.  0.
    9000010    2    1    2  501    0 -0.51433195481E+03  0.46129170253E+02 -0.56711263739E+03  0.12564505039E+04  0.99518132272E+03 0.  0.
        -13    1    4    4    0    0  0.30999371817E+02  0.17751188123E+03 -0.66328867596E+03  0.68733056665E+03  0.10566000000E+00 0.  1.
         13    1    3    3    0    0  0.40941754227E+03  0.13721268264E+03  0.19164916762E+03  0.47241873249E+03  0.10566000000E+00 0. -1.
          4    1    4    4  501    0 -0.54533132663E+03 -0.13138271098E+03  0.96176038566E+02  0.56911993722E+03  0.00000000000E+00 0.  1.
         -4    1    3    3    0  503  0.10491441255E+03 -0.18334185289E+03 -0.78554217082E+03  0.81344807524E+03  0.00000000000E+00 0. -1.
</event>
<event>
 8    1  0.7008488E-006  0.1104079E+04  0.7818608E-02  0.8685111E-01
         21   -1    0    0  503  502  0.00000000000E+00  0.00000000000E+00  0.15975356835E+04  0.15975356835E+04  0.00000000000E+00 0.  1.
         21   -1    0    0  501  503 -0.00000000000E+00 -0.00000000000E+00 -0.82015166715E+03  0.82015166715E+03  0.00000000000E+00 0.  1.
    9000010    2    1    2  501    0 -0.47227241396E+03  0.54929908869E+02  0.44729481595E+02  0.10926310869E+04  0.98274281357E+03 0.  0.
   -9000010    2    1    2    0  502  0.47227241396E+03 -0.54929908869E+02  0.73265453477E+03  0.13250562638E+04  0.99646018835E+03 0.  0.
        -13    1    3    3    0    0 -0.14689429716E+03 -0.34645065343E+02  0.50206323649E+03  0.52425730295E+03  0.10566000000E+00 0.  1.
         13    1    4    4    0    0 -0.25166951163E+03 -0.90177173244E+02  0.49449030509E+03  0.56213000156E+03  0.10566000000E+00 0. -1.
          4    1    3    3  501    0 -0.32537811680E+03  0.89574974212E+02 -0.45733375490E+03  0.56837378394E+03  0.00000000000E+00 0.  1.
         -4    1    4    4    0  502  0.72394192559E+03  0.35247264376E+02  0.23816422968E+03  0.76292626221E+03  0.00000000000E+00 0. -1.
</event>
<event>
 8    1  0.7008488E-006  0.1373828E+04  0.7818608E-02  0.8488993E-01
         21   -1    0    0  501  502  0.00000000000E+00  0.00000000000E+00  0.16753107337E+04  0.16753107337E+04  0.00000000000E+00 0.  1.
         21   -1    0    0  502  503 -0.00000000000E+00 -0.00000000000E+00 -0.11317901420E+04  0.11317901420E+04  0.00000000000E+00 0. -1.
   -9000010    2    1    2    0  503  0.56598340547E+03 -0.72272538057E+03  0.46119298877E+03  0.14491728790E+04  0.10221222380E+04 0.  0.
    9000010    2    1    2  501    0 -0.56598340547E+03  0.72272538057E+03  0.82327602983E+02  0.13579279967E+04  0.99725694732E+03 0.  0.
        -13    1    4    4    0    0 -0.53959976176E+03  0.27770109928E+03  0.46964815105E+03  0.76736901187E+03  0.10566000000E+00 0.  1.
         13    1    3    3    0    0 -0.22844731356E+03 -0.40826055803E+03 -0.20611078216E+02  0.46828376656E+03  0.10566000000E+00 0. -1.
          4    1    4    4  501    0 -0.26383643710E+02  0.44502428129E+03 -0.38732054806E+03  0.59055898482E+03  0.00000000000E+00 0.  1.
         -4    1    3    3    0  503  0.79443071904E+03 -0.31446482255E+03  0.48180406699E+03  0.98088911245E+03  0.00000000000E+00 0. -1.
</event>
<event>
 8    1  0.7008488E-006  0.1222405E+04  0.7818608E-02  0.8610735E-01
         21   -1    0    0  501  502  0.00000000000E+00  0.00000000000E+00  0.51437950743E+03  0.51437950743E+03  0.00000000000E+00 0.  1.
         21   -1    0    0  502  503 -0.00000000000E+00 -0.00000000000E+00 -0.27099747243E+04  0.27099747243E+04  0.00000000000E+00 0.  1.
   -9000010    2    1    2    0  503 -0.36211028537E+03 -0.48607754947E+03 -0.81693556034E+03  0.13818079829E+04  0.93520818479E+03 0.  0.
    9000010    2    1    2  501    0  0.36211028537E+03  0.48607754947E+03 -0.13786596565E+04  0.18425462489E+04  0.10615455656E+04 0.  0.
        -13    1    4    4    0    0  0.18778246431E+03 -0.15200542227E+02  0.13941628914E+03  0.23437197620E+03  0.10566000000E+00 0.  1.
         13    1    3    3    0    0 -0.26258362163E+03  0.15916834569E+03  0.34369984606E+02  0.30897577190E+03  0.10566000000E+00 0. -1.
          4    1    4    4  501    0  0.17432782105E+03  0.50127809170E+03 -0.15180759457E+04  0.16081742727E+04  0.00000000000E+00 0.  1.
         -4    1    3    3    0  503 -0.99526663739E+02 -0.64524589516E+03 -0.85130554495E+03  0.10728322110E+04  0.00000000000E+00 0. -1.
</event>
<event>
 8    1  0.7008488E-006  0.1078431E+04  0.7818608E-02  0.8709935E-01
         21   -1    0    0  503  502  0.00000000000E+00  0.00000000000E+00  0.14611816072E+04  0.14611816072E+04  0.00000000000E+00 0.  1.
         21   -1    0    0  501  503 -0.00000000000E+00 -0.00000000000E+00 -0.87256447045E+03  0.87256447045E+03  0.00000000000E+00 0.  1.
    9000010    2    1    2  501    0 -0.68045987319E+02  0.35206487822E+03 -0.95946180923E+02  0.10563890227E+04  0.98902586558E+03 0.  0.
   -9000010    2    1    2    0  502  0.68045987319E+02 -0.35206487822E+03  0.68456331767E+03  0.12773570549E+04  0.10170713716E+04 0.  0.
        -13    1    3    3    0    0 -0.41625111140E+02  0.67691775809E+03  0.85166141505E+02  0.68352292128E+03  0.10566000000E+00 0.  1.
         13    1    4    4    0    0  0.29908406349E+03  0.26847813751E+03  0.36160483844E+03  0.54063837978E+03  0.10566000000E+00 0. -1.
          4    1    3    3  501    0 -0.26420876178E+02 -0.32485287987E+03 -0.18111232243E+03  0.37286610142E+03  0.00000000000E+00 0.  1.
         -4    1    4    4    0  502 -0.23103807617E+03 -0.62054301573E+03  0.32295847923E+03  0.73671867515E+03  0.00000000000E+00 0. -1.
</event>
<event>
 8    1  0.7008488E-006  0.1068793E+04  0.7818608E-02  0.8718867E-01
         21   -1    0    0  503  502  0.00000000000E+00  0.00000000000E+00  0.10644723462E+04  0.10644723462E+04  0.00000000000E+00 0. -1.
         21   -1    0    0  501  503 -0.00000000000E+00 -0.00000000000E+00 -0.10576287206E+04  0.10576287206E+04  0.00000000000E+00 0. -1.
    9000010    2    1    2  501    0 -0.19175432794E+03  0.22439585660E+03  0.12257528664E+03  0.10757988482E+04  0.10272269652E+04 0.  0.
   -9000010    2    1    2    0  502  0.19175432794E+03 -0.22439585660E+03 -0.11573166108E+03  0.10463022186E+04  0.99711147450E+03 0.  0.
        -13    1    3    3    0    0  0.30498848138E+03  0.95906732409E+01 -0.26981398124E+03  0.40731996074E+03  0.10566000000E+00 0.  1.
         13    1    4    4    0    0  0.11527273337E+03  0.35380082352E+03 -0.24939141155E+03  0.44794967697E+03  0.10566000000E+00 0. -1.
          4    1    3    3  501    0 -0.49674280931E+03  0.21480518336E+03  0.39238926788E+03  0.66847888744E+03  0.00000000000E+00 0.  1.
         -4    1    4    4    0  502  0.76481594566E+02 -0.57819668012E+03  0.13365975047E+03  0.59835254165E+03  0.00000000000E+00 0. -1.
</event>
<event>
 8    1  0.7008488E-006  0.1277778E+04  0.7818608E-02  0.8559494E-01
         21   -1    0    0  503  502  0.00000000000E+00  0.00000000000E+00  0.95249683343E+03  0.95249683343E+03  0.00000000000E+00 0.  1.
         21   -1    0    0  501  503 -0.00000000000E+00 -0.00000000000E+00 -0.17013924439E+04  0.17013924439E+04  0.00000000000E+00 0.  1.
    9000010    2    1    2  501    0 -0.29898136432E+03 -0.71538053907E+03 -0.12506045138E+03  0.12319590079E+04  0.94917001045E+03 0.  0.
   -9000010    2    1    2    0  502  0.29898136432E+03  0.71538053907E+03 -0.62383515905E+03  0.14219302694E+04  0.10156555585E+04 0.  0.
        -13    1    3    3    0    0 -0.24139252023E+03 -0.49139279886E+02 -0.43110860084E+03  0.49652759695E+03  0.10566000000E+00 0.  1.
         13    1    4    4    0    0 -0.13242592031E+03 -0.19786280554E+03 -0.64641100105E+01  0.23817663628E+03  0.10566000000E+00 0. -1.
          4    1    3    3  501    0 -0.57588844093E+02 -0.66624125919E+03  0.30604814947E+03  0.73543141094E+03  0.00000000000E+00 0.  1.
         -4    1    4    4    0  502  0.43140728463E+03  0.91324334462E+03 -0.61737104904E+03  0.11837536331E+04  0.00000000000E+00 0. -1.
</event>
<event>
 8    1  0.7008488E-006  0.1181833E+04  0.7818608E-02  0.8622471E-01
         21   -1    0    0  503  502  0.00000000000E+00  0.00000000000E+00  0.18974654034E+04  0.18974654034E+04  0.00000000000E+00 0. -1.
         21   -1    0    0  501  503 -0.00000000000E+00 -0.00000000000E+00 -0.76505127567E+03  0.76505127567E+03  0.00000000000E+00 0.  1.
    9000010    2    1    2  501    0  0.10557222987E+03  0.62024607110E+03  0.27602481776E+03  0.12030192266E+04  0.98752968320E+03 0.  0.
   -9000010    2    1    2    0  502 -0.10557222987E+03 -0.62024607110E+03  0.85638930996E+03  0.14594974524E+04  0.10004396428E+04 0.  0.
        -13    1    3    3    0    0 -0.29983036195E+03  0.39508548984E+03  0.48561003571E+03  0.69412384211E+03  0.10566000000E+00 0.  1.
         13    1    4    4    0    0 -0.80824530909E+02 -0.71641571004E+03  0.10313271346E+04  0.12583400749E+04  0.10566000000E+00 0. -1.
          4    1    3    3  501    0  0.40540259183E+03  0.22516058125E+03 -0.20958521795E+03  0.50889538453E+03  0.00000000000E+00 0.  1.
         -4    1    4    4    0  502 -0.24747698965E+02  0.96169638943E+02 -0.17493782461E+03  0.20115737754E+03  0.00000000000E+00 0. -1.
</event>
<event>
 8    1  0.7008488E-006  0.1023480E+04  0.7818608E-02  0.8766515E-01
         21   -1    0    0  503  502  0.00000000000E+00  0.00000000000E+00  0.66803944164E+03  0.66803944164E+03  0.00000000000E+00 0. -1.
         21   -1    0    0  501  503 -0.00000000000E+00 -0.00000000000E+00 -0.14984064661E+04  0.14984064661E+04  0.00000000000E+00 0. -1.
    9000010    2    1    2  501    0  0.23585139853E+03  0.65943980120E+01 -0.52215765644E+03  0.10975662162E+04  0.93612692111E+03 0.  0.
   -9000010    2    1    2    0  502 -0.23585139853E+03 -0.65943980120E+01 -0.30820936797E+03  0.10688796915E+04  0.99591235165E+03 0.  0.
        -13    1    3    3    0    0  0.32928697397E+03 -0.39794611891E+03 -0.14459909360E+03  0.53637667158E+03  0.10566000000E+00 0.  1.
         13    1    4    4    0    0 -0.51335959654E+03  0.22871658999E+01  0.14848612264E+03  0.53440756570E+03  0.10566000000E+00 0. -1.
          4    1    3    3  501    0 -0.93435575437E+02  0.40454051692E+03 -0.37755856284E+03  0.56118954459E+03  0.00000000000E+00 0.  1.
         -4    1    4    4    0  502  0.27750819801E+03 -0.88815639118E+01 -0.45669549061E+03  0.53447212583E+03  0.00000000000E+00 0. -1.
</event>
<event>
 8    1  0.7008488E-006  0.1020146E+04  0.7818608E-02  0.8756511E-01
         21   -1    0    0  503  502  0.00000000000E+00  0.00000000000E+00  0.20552943923E+04  0.20552943923E+04  0.00000000000E+00 0. -1.
         21   -1    0    0  501  503 -0.00000000000E+00 -0.00000000000E+00 -0.50848752173E+03  0.50848752173E+03  0.00000000000E+00 0. -1.
    9000010    2    1    2  501    0  0.28850197193E+03  0.73606622294E+01  0.87840992296E+03  0.13441705295E+04  0.97565508885E+03 0.  0.
   -9000010    2    1    2    0  502 -0.28850197193E+03 -0.73606622294E+01  0.66839694764E+03  0.12196113846E+04  0.97847324063E+03 0.  0.
        -13    1    3    3    0    0  0.63791378549E+03  0.90481046022E+02  0.66718820580E+03  0.92750252319E+03  0.10566000000E+00 0.  1.
         13    1    4    4    0    0 -0.30172435760E+03  0.12460768521E+03  0.89742441207E+03  0.95495300917E+03  0.10566000000E+00 0. -1.
          4    1    3    3  501    0 -0.34941181356E+03 -0.83120383792E+02  0.21122171716E+03  0.41666800628E+03  0.00000000000E+00 0.  1.
         -4    1    4    4    0  502  0.13222385674E+02 -0.13196834744E+03 -0.22902746443E+03  0.26465837541E+03  0.00000000000E+00 0. -1.
</event>
<event>
 8    1  0.7008488E-006  0.1056491E+04  0.7818608E-02  0.8727132E-01
         21   -1    0    0  503  502  0.00000000000E+00  0.00000000000E+00  0.13221294968E+04  0.13221294968E+04  0.00000000000E+00 0.  1.
         21   -1    0    0  501  503 -0.00000000000E+00 -0.00000000000E+00 -0.83029647036E+03  0.83029647036E+03  0.00000000000E+00 0.  1.
    9000010    2    1    2  501    0 -0.26540285017E+03  0.13552261193E+03  0.24909165990E+03  0.10854585895E+04  0.10135919511E+04 0.  0.
   -9000010    2    1    2    0  502  0.26540285017E+03 -0.13552261193E+03  0.24274136656E+03  0.10669673777E+04  0.99533459839E+03 0.  0.
        -13    1    3    3    0    0 -0.47689847666E+02  0.56265544082E+03  0.51838535534E+02  0.56704736273E+03  0.10566000000E+00 0.  1.
         13    1    4    4    0    0  0.32604329769E+03 -0.86113877336E+01  0.60005447124E+03  0.68296688616E+03  0.10566000000E+00 0. -1.
          4    1    3    3  501    0 -0.21771300250E+03 -0.42713282888E+03  0.19725312437E+03  0.51841122677E+03  0.00000000000E+00 0.  1.
         -4    1    4    4    0  502 -0.60640447529E+02 -0.12691122420E+03 -0.35731310468E+03  0.38400049151E+03  0.00000000000E+00 0. -1.
</event>
<event>
 8    1  0.7008488E-006  0.1125857E+04  0.7818608E-02  0.8674616E-01
         21   -1    0    0  501  502  0.00000000000E+00  0.00000000000E+00  0.23153981819E+04  0.23153981819E+04  0.00000000000E+00 0. -1.
         21   -1    0    0  502  503 -0.00000000000E+00 -0.00000000000E+00 -0.53288752746E+03  0.53288752746E+03  0.00000000000E+00 0. -1.
   -9000010    2    1    2    0  503 -0.42758421822E+03 -0.11142901962E+02  0.72935213367E+03  0.13414579541E+04  0.10414424995E+04 0.  0.
    9000010    2    1    2  501    0  0.42758421822E+03  0.11142901962E+02  0.10531585208E+04  0.15068277553E+04  0.98915852431E+03 0.  0.
        -13    1    4    4    0    0  0.20519909007E+03 -0.35987650946E+03  0.98546646156E+03  0.10690004334E+04  0.10566000000E+00 0.  1.
         13    1    3    3    0    0 -0.72717847469E+03 -0.21901525155E+03  0.45719113805E+03  0.88644230626E+03  0.10566000000E+00 0. -1.
          4    1    4    4  501    0  0.22238512815E+03  0.37101941142E+03  0.67692059216E+02  0.43782732185E+03  0.00000000000E+00 0.  1.
         -4    1    3    3    0  503  0.29959425647E+03  0.20787234958E+03  0.27216099562E+03  0.45501564783E+03  0.00000000000E+00 0. -1.
</event>
<event>
 8    1  0.7008488E-006  0.1166531E+04  0.7818608E-02  0.8633129E-01
         21   -1    0    0  503  502  0.00000000000E+00  0.00000000000E+00  0.14254406439E+04  0.14254406439E+04  0.00000000000E+00 0.  1.
         21   -1    0    0  501  503 -0.00000000000E+00 -0.00000000000E+00 -0.95076814432E+03  0.95076814432E+03  0.00000000000E+00 0. -1.
    9000010    2    1    2  501    0  0.56972143973E+03 -0.20183165012E+03  0.23419462657E+03  0.11898074798E+04  0.99773552703E+03 0.  0.
   -9000010    2    1    2    0  502 -0.56972143973E+03  0.20183165012E+03  0.24047787300E+03  0.11864013084E+04  0.99216930177E+03 0.  0.
        -13    1    3    3    0    0 -0.12103040996E+03 -0.19011818378E+03  0.41803204265E+03  0.47491481740E+03  0.10566000000E+00 0.  1.
         13    1    4    4    0    0 -0.66369031717E+03  0.32391680216E+03 -0.16145018278E+03  0.75595840131E+03  0.10566000000E+00 0. -1.
          4    1    3    3  501    0  0.69075184969E+03 -0.11713466344E+02 -0.18383741608E+03  0.71489266236E+03  0.00000000000E+00 0.  1.
         -4    1    4    4    0  502  0.93968877437E+02 -0.12208515204E+03  0.40192805578E+03  0.43044290713E+03  0.00000000000E+00 0. -1.
</event>
<event>
 8    1  0.7008488E-006  0.1262477E+04  0.7818608E-02  0.8566973E-01
         21   -1    0    0  503  502  0.00000000000E+00  0.00000000000E+00  0.10404687009E+04  0.10404687009E+04  0.00000000000E+00 0. -1.
         21   -1    0    0  501  503 -0.00000000000E+00 -0.00000000000E+00 -0.15877182178E+04  0.15877182178E+04  0.00000000000E+00 0. -1.
    9000010    2    1    2  501    0 -0.26252904612E+03 -0.53829261988E+03 -0.60074408509E+03  0.13981211906E+04  0.11113815561E+04 0.  0.
   -9000010    2    1    2    0  502  0.26252904612E+03  0.53829261988E+03  0.53494568183E+02  0.12300657282E+04  0.10730888044E+04 0.  0.
        -13    1    3    3    0    0  0.14124768562E+03 -0.38716681385E+03 -0.81754437846E+03  0.91554785367E+03  0.10566000000E+00 0.  1.
         13    1    4    4    0    0  0.22424140017E+03 -0.10502181166E+03  0.42082998115E+03  0.48827417572E+03  0.10566000000E+00 0. -1.
          4    1    3    3  501    0 -0.40377673174E+03 -0.15112580603E+03  0.21680029337E+03  0.48257333696E+03  0.00000000000E+00 0.  1.
         -4    1    4    4    0  502  0.38287645945E+02  0.64331443154E+03 -0.36733541296E+03  0.74179155244E+03  0.00000000000E+00 0. -1.
</event>
<event>
 8    1  0.7008488E-006  0.1129774E+04  0.7818608E-02  0.8672061E-01
         21   -1    0    0  501  502  0.00000000000E+00  0.00000000000E+00  0.15135464770E+04  0.15135464770E+04  0.00000000000E+00 0.  1.
         21   -1    0    0  502  503 -0.00000000000E+00 -0.00000000000E+00 -0.83555042771E+03  0.83555042771E+03  0.00000000000E+00 0.  1.
   -9000010    2    1    2    0  503 -0.64345373336E+02 -0.41073668326E+03  0.12366590595E+03  0.11365220892E+04  0.10504971456E+04 0.  0.
    9000010    2    1    2  501    0  0.64345373336E+02  0.41073668326E+03  0.55433014338E+03  0.12125748156E+04  0.99509337524E+03 0.  0.
        -13    1    4    4    0    0 -0.15411484596E+03  0.27634758680E+03  0.79821772029E+03  0.85864481284E+03  0.10566000000E+00 0.  1.
         13    1    3    3    0    0 -0.12547389061E+03 -0.27563570335E+03  0.58130132227E+03  0.65546165153E+03  0.10566000000E+00 0. -1.
          4    1    4    4  501    0  0.21846021929E+03  0.13438909646E+03 -0.24388757691E+03  0.35393000273E+03  0.00000000000E+00 0.  1.
         -4    1    3    3    0  503  0.61128517271E+02 -0.13510097991E+03 -0.45763541632E+03  0.48106043765E+03  0.00000000000E+00 0. -1.
</event>
<event>
 8    1  0.7008488E-006  0.1129970E+04  0.7818608E-02  0.8670447E-01
         21   -1    0    0  501  502  0.00000000000E+00  0.00000000000E+00  0.12432945002E+04  0.12432945002E+04  0.00000000000E+00 0. -1.
         21   -1    0    0  502  503 -0.00000000000E+00 -0.00000000000E+00 -0.10740015465E+04  0.10740015465E+04  0.00000000000E+00 0. -1.
   -9000010    2    1    2    0  503  0.39409209832E+03  0.22401734014E+03 -0.24358725080E+03  0.11559273007E+04  0.10350559526E+04 0.  0.
    9000010    2    1    2  501    0 -0.39409209832E+03 -0.22401734014E+03  0.41288020446E+03  0.11613687461E+04  0.98631381945E+03 0.  0.
        -13    1    4    4    0    0 -0.71186727143E+03 -0.29984709304E+02  0.29046525721E+03  0.76943107017E+03  0.10566000000E+00 0.  1.
         13    1    3    3    0    0  0.35088444448E+03  0.11836838320E+03 -0.64218710534E+03  0.74130645279E+03  0.10566000000E+00 0. -1.
          4    1    4    4  501    0  0.31777517311E+03 -0.19403263083E+03  0.12241494725E+03  0.39193767589E+03  0.00000000000E+00 0.  1.
         -4    1    3    3    0  503  0.43207653838E+02  0.10564895694E+03  0.39859985454E+03  0.41462084788E+03  0.00000000000E+00 0. -1.
</event>
<event>
 8    1  0.7008488E-006  0.1238533E+04  0.7818608E-02  0.8579852E-01
         21   -1    0    0  501  502  0.00000000000E+00  0.00000000000E+00  0.11424301357E+04  0.11424301357E+04  0.00000000000E+00 0.  1.
         21   -1    0    0  502  503 -0.00000000000E+00 -0.00000000000E+00 -0.13325835523E+04  0.13325835523E+04  0.00000000000E+00 0.  1.
   -9000010    2    1    2    0  503 -0.71858880408E+03  0.78654423811E+02 -0.76206249231E+02  0.12312500490E+04  0.99378715171E+03 0.  0.
    9000010    2    1    2  501    0  0.71858880408E+03 -0.78654423811E+02 -0.11394716738E+03  0.12437636391E+04  0.10056876480E+04 0.  0.
        -13    1    4    4    0    0 -0.13465836921E+03  0.27496810732E+03  0.35158286493E+02  0.30818249904E+03  0.10566000000E+00 0.  1.
         13    1    3    3    0    0 -0.42538141797E+03  0.22606254609E+03 -0.50062510457E+03  0.69475112953E+03  0.10566000000E+00 0. -1.
          4    1    4    4  501    0  0.85324717330E+03 -0.35362253113E+03 -0.14910545388E+03  0.93558114006E+03  0.00000000000E+00 0.  1.
         -4    1    3    3    0  503 -0.29320738612E+03 -0.14740812228E+03  0.42441885534E+03  0.53649891943E+03  0.00000000000E+00 0. -1.
</event>
<event>
 8    1  0.7008488E-006  0.1299555E+04  0.7818608E-02  0.8537917E-01
         21   -1    0    0  503  502  0.00000000000E+00  0.00000000000E+00  0.11169904787E+04  0.11169904787E+04  0.00000000000E+00 0. -1.
         21   -1    0    0  501  503 -0.00000000000E+00 -0.00000000000E+00 -0.14957471895E+04  0.14957471895E+04  0.00000000000E+00 0. -1.
    9000010    2    1    2  501    0 -0.15540772849E+03  0.82660229552E+03 -0.24377720777E+03  0.13222219415E+04  0.99066675458E+03 0.  0.
   -9000010    2    1    2    0  502  0.15540772849E+03 -0.82660229552E+03 -0.13497950300E+03  0.12905157267E+04  0.96942687068E+03 0.  0.
        -13    1    3    3    0    0 -0.42064628169E+02  0.94427327837E+03 -0.46001115656E+03  0.10512048956E+04  0.10566000000E+00 0.  1.
         13    1    4    4    0    0 -0.11622739067E+03 -0.91663632003E+03 -0.28562866994E+03  0.96711669296E+03  0.10566000000E+00 0. -1.
          4    1    3    3  501    0 -0.11334310032E+03 -0.11767098284E+03  0.21623394879E+03  0.27101704596E+03  0.00000000000E+00 0.  1.
         -4    1    4    4    0  502  0.27163511916E+03  0.90034024509E+02  0.15064916694E+03  0.32339903375E+03  0.00000000000E+00 0. -1.
</event>
<event>
 8    1  0.7008488E-006  0.1552604E+04  0.7818608E-02  0.8380054E-01
         21   -1    0    0  503  502  0.00000000000E+00  0.00000000000E+00  0.18207998691E+04  0.18207998691E+04  0.00000000000E+00 0.  1.
         21   -1    0    0  501  503 -0.00000000000E+00 -0.00000000000E+00 -0.14037033247E+04  0.14037033247E+04  0.00000000000E+00 0.  1.
    9000010    2    1    2  501    0 -0.69862634653E+02 -0.11923919083E+04 -0.17873536488E+03  0.15628585278E+04  0.99191793835E+03 0.  0.
   -9000010    2    1    2    0  502  0.69862634653E+02  0.11923919083E+04  0.59583190921E+03  0.16616446661E+04  0.98963027514E+03 0.  0.
        -13    1    3    3    0    0  0.45799934005E+03 -0.51758660730E+03 -0.19216410556E+02  0.69139610437E+03  0.10566000000E+00 0.  1.
         13    1    4    4    0    0 -0.18020840655E+03  0.11963475088E+04  0.69191046779E+03  0.13937225471E+04  0.10566000000E+00 0. -1.
          4    1    3    3  501    0 -0.52786197470E+03 -0.67480530102E+03 -0.15951895432E+03  0.87146242340E+03  0.00000000000E+00 0.  1.
         -4    1    4    4    0  502  0.25007104120E+03 -0.39556004870E+01 -0.96078558585E+02  0.26792211899E+03  0.00000000000E+00 0. -1.
</event>
<event>
 8    1  0.7008488E-006  0.1274378E+04  0.7818608E-02  0.8558607E-01
         21   -1    0    0  501  502  0.00000000000E+00  0.00000000000E+00  0.21272731790E+04  0.21272731790E+04  0.00000000000E+00 0.  1.
         21   -1    0    0  502  503 -0.00000000000E+00 -0.00000000000E+00 -0.92597028376E+03  0.92597028376E+03  0.00000000000E+00 0.  1.
   -9000010    2    1    2    0  503 -0.30084785808E+03  0.67212213446E+03 -0.84098213344E+02  0.12431892045E+04  0.99809282698E+03 0.  0.
    9000010    2    1    2  501    0  0.30084785808E+03 -0.67212213446E+03  0.12854011086E+04  0.18100542583E+04  0.10400878861E+04 0.  0.
        -13    1    4    4    0    0 -0.32427429923E+03  0.11203822616E+02  0.19151728933E+03  0.37677344660E+03  0.10566000000E+00 0.  1.
         13    1    3    3    0    0 -0.56243800920E+03  0.33117746912E+03  0.24991917037E+03  0.69890960297E+03  0.10566000000E+00 0. -1.
          4    1    4    4  501    0  0.62512215731E+03 -0.68332595707E+03  0.10938838193E+04  0.14332808117E+04  0.00000000000E+00 0.  1.
         -4    1    3    3    0  503  0.26159015112E+03  0.34094466534E+03 -0.33401738371E+03  0.54427960150E+03  0.00000000000E+00 0. -1.
</event>
<event>
 8    1  0.7008488E-006  0.1029604E+04  0.7818608E-02  0.8758774E-01
         21   -1    0    0  501  502  0.00000000000E+00  0.00000000000E+00  0.10943709647E+04  0.10943709647E+04  0.00000000000E+00 0. -1.
         21   -1    0    0  502  503 -0.00000000000E+00 -0.00000000000E+00 -0.10171975546E+04  0.10171975546E+04  0.00000000000E+00 0. -1.
   -9000010    2    1    2    0  503  0.25149686441E+03 -0.12027178566E+03 -0.28228332575E+03  0.10675988689E+04  0.99114453723E+03 0.  0.
    9000010    2    1    2  501    0 -0.25149686441E+03  0.12027178566E+03  0.35945673580E+03  0.10439696504E+04  0.93965286723E+03 0.  0.
        -13    1    4    4    0    0 -0.46044138594E+03  0.16693843243E+03 -0.13255942345E+03  0.50739207919E+03  0.10566000000E+00 0.  1.
         13    1    3    3    0    0 -0.28430336324E+03 -0.13017080152E+03  0.17919307785E+03  0.36039285541E+03  0.10566000000E+00 0. -1.
          4    1    4    4  501    0  0.20894452154E+03 -0.46666646772E+02  0.49201615926E+03  0.53657757125E+03  0.00000000000E+00 0.  1.
         -4    1    3    3    0  503  0.53580022765E+03  0.98990158602E+01 -0.46147640360E+03  0.70720601351E+03  0.00000000000E+00 0. -1.
</event>
<event>
 8    1  0.7008488E-006  0.1358723E+04  0.7818608E-02  0.8498915E-01
         21   -1    0    0  501  502  0.00000000000E+00  0.00000000000E+00  0.10127384424E+04  0.10127384424E+04  0.00000000000E+00 0. -1.
         21   -1    0    0  502  503 -0.00000000000E+00 -0.00000000000E+00 -0.20062146933E+04  0.20062146933E+04  0.00000000000E+00 0. -1.
   -9000010    2    1    2    0  503 -0.54283868841E+03 -0.70288165196E+03 -0.98733138467E+03  0.16795685244E+04  0.10283047733E+04 0.  0.
    9000010    2    1    2  501    0  0.54283868841E+03  0.70288165196E+03 -0.61448661847E+01  0.13393846112E+04  0.10025950923E+04 0.  0.
        -13    1    4    4    0    0 -0.11488026880E+03  0.24528478537E+03  0.36650127495E+03  0.45572502433E+03  0.10566000000E+00 0.  1.
         13    1    3    3    0    0 -0.56401419173E+03 -0.75265660833E+02 -0.77797986612E+02  0.57430781473E+03  0.10566000000E+00 0. -1.
          4    1    4    4  501    0  0.65771895722E+03  0.45759686660E+03 -0.37264614114E+03  0.88365958689E+03  0.00000000000E+00 0.  1.
         -4    1    3    3    0  503  0.21175503314E+02 -0.62761599113E+03 -0.90953339806E+03  0.11052607097E+04  0.00000000000E+00 0. -1.
</event>
<event>
 8    1  0.7008488E-006  0.1048082E+04  0.7818608E-02  0.8731364E-01
         21   -1    0    0  501  502  0.00000000000E+00  0.00000000000E+00  0.42205545642E+03  0.42205545642E+03  0.00000000000E+00 0.  1.
         21   -1    0    0  502  503 -0.00000000000E+00 -0.00000000000E+00 -0.28970563676E+04  0.28970563676E+04  0.00000000000E+00 0.  1.
   -9000010    2    1    2    0  503  0.13075533562E+03  0.28256178747E+03 -0.17716969907E+04  0.20569259918E+04  0.99754508025E+03 0.  0.
    9000010    2    1    2  501    0 -0.13075533562E+03 -0.28256178747E+03 -0.70330392047E+03  0.12621858323E+04  0.10007689789E+04 0.  0.
        -13    1    4    4    0    0 -0.25523580874E+03 -0.37686075505E+03  0.81152129144E+02  0.46233648568E+03  0.10566000000E+00 0.  1.
         13    1    3    3    0    0  0.13605199886E+03  0.49558175263E+03 -0.17707703902E+04  0.18438381723E+04  0.10566000000E+00 0. -1.
          4    1    4    4  501    0  0.12448047311E+03  0.94298967581E+02 -0.78445604962E+03  0.79984934660E+03  0.00000000000E+00 0.  1.
         -4    1    3    3    0  503 -0.52966632417E+01 -0.21301996516E+03 -0.92660055331E+00  0.21308781942E+03  0.00000000000E+00 0. -1.
</event>
<event>
 8    1  0.7008488E-006  0.1280657E+04  0.7818608E-02  0.8548204E-01
         21   -1    0    0  503  502  0.00000000000E+00  0.00000000000E+00  0.22404284268E+04  0.22404284268E+04  0.00000000000E+00 0.  1.
         21   -1    0    0  501  503 -0.00000000000E+00 -0.00000000000E+00 -0.86648092976E+03  0.86648092976E+03  0.00000000000E+00 0.  1.
    9000010    2    1    2  501    0  0.80720151179E+03  0.22718795231E+00  0.12990835474E+04  0.18241983431E+04  0.99423699363E+03 0.  0.
   -9000010    2    1    2    0  502 -0.80720151179E+03 -0.22718795231E+00  0.74863949608E+02  0.12827110135E+04  0.99406669839E+03 0.  0.
        -13    1    3    3    0    0  0.10272144753E+04 -0.57190943804E+02  0.90984578463E+03  0.13734117173E+04  0.10566000000E+00 0.  1.
         13    1    4    4    0    0 -0.48671519139E+03  0.47607237503E+03  0.16766042726E+03  0.70117516630E+03  0.10566000000E+00 0. -1.
          4    1    3    3  501    0 -0.22001296353E+03  0.57418131757E+02  0.38923776275E+03  0.45078662572E+03  0.00000000000E+00 0.  1.
         -4    1    4    4    0  502 -0.32048632040E+03 -0.47629956299E+03 -0.92796477654E+02  0.58153584716E+03  0.00000000000E+00 0. -1.
</event>
<event>
 8    1  0.7008488E-006  0.1024684E+04  0.7818608E-02  0.8753534E-01
         21   -1    0    0  501  502  0.00000000000E+00  0.00000000000E+00  0.89882815050E+03  0.89882815050E+03  0.00000000000E+00 0. -1.
         21   -1    0    0  502  503 -0.00000000000E+00 -0.00000000000E+00 -0.11631200168E+04  0.11631200168E+04  0.00000000000E+00 0. -1.
   -9000010    2    1    2    0  503  0.10878403146E+03 -0.20193772793E+03 -0.19217576821E+03  0.10425494419E+04  0.99868163167E+03 0.  0.
    9000010    2    1    2  501    0 -0.10878403146E+03  0.20193772793E+03 -0.72116098139E+02  0.10193987255E+04  0.99063626947E+03 0.  0.
        -13    1    4    4    0    0 -0.13937486575E+03 -0.29835964654E+03  0.25875738903E+03  0.41880691187E+03  0.10566000000E+00 0.  1.
         13    1    3    3    0    0  0.50277253320E+03  0.10673914364E+03 -0.17069260731E+03  0.54158050397E+03  0.10566000000E+00 0. -1.
          4    1    4    4  501    0  0.30590834299E+02  0.50029737446E+03 -0.33087348717E+03  0.60059181359E+03  0.00000000000E+00 0.  1.
         -4    1    3    3    0  503 -0.39398850175E+03 -0.30867687157E+03 -0.21483160896E+02  0.50096893791E+03  0.00000000000E+00 0. -1.
</event>
<event>
 8    1  0.7008488E-006  0.1167013E+04  0.7818608E-02  0.8632653E-01
         21   -1    0    0  501  502  0.00000000000E+00  0.00000000000E+00  0.19177626141E+04  0.19177626141E+04  0.00000000000E+00 0.  1.
         21   -1    0    0  502  503 -0.00000000000E+00 -0.00000000000E+00 -0.72246536135E+03  0.72246536135E+03  0.00000000000E+00 0.  1.
   -9000010    2    1    2    0  503  0.52809355615E+03  0.26557224450E+03  0.40709434821E+03  0.12319723513E+04  0.10013084665E+04 0.  0.
    9000010    2    1    2  501    0 -0.52809355615E+03 -0.26557224450E+03  0.78820290457E+03  0.14082556241E+04  0.10062348946E+04 0.  0.
        -13    1    4    4    0    0 -0.75813257542E+03  0.53985438655E+02  0.61673152444E+03  0.97879375453E+03  0.10566000000E+00 0.  1.
         13    1    3    3    0    0  0.73155067469E+03  0.64550146350E+02  0.54492267839E+03  0.91448009690E+03  0.10566000000E+00 0. -1.
          4    1    4    4  501    0  0.23003901927E+03 -0.31955768315E+03  0.17147138013E+03  0.42946186961E+03  0.00000000000E+00 0.  1.
         -4    1    3    3    0  503 -0.20345711854E+03  0.20102209815E+03 -0.13782833018E+03  0.31749225444E+03  0.00000000000E+00 0. -1.
</event>
<event>
 8    1  0.7008488E-006  0.1317713E+04  0.7818608E-02  0.8523421E-01
         21   -1    0    0  501  502  0.00000000000E+00  0.00000000000E+00  0.16257113632E+04  0.16257113632E+04  0.00000000000E+00 0. -1.
         21   -1    0    0  502  503 -0.00000000000E+00 -0.00000000000E+00 -0.14486033287E+04  0.14486033287E+04  0.00000000000E+00 0.  1.
   -9000010    2    1    2    0  503  0.61698731361E+03  0.58587525695E+03 -0.70231930233E+03  0.14900923734E+04  0.10015985807E+04 0.  0.
    9000010    2    1    2  501    0 -0.61698731361E+03 -0.58587525695E+03  0.87942733686E+03  0.15842223186E+04  0.10062031366E+04 0.  0.
        -13    1    4    4    0    0 -0.84113049892E+03 -0.51396928543E+03  0.42704063876E+03  0.10742572601E+04  0.10566000000E+00 0.  1.
         13    1    3    3    0    0  0.54019892839E+03  0.83143463824E+03 -0.34507945552E+03  0.10498467896E+04  0.10566000000E+00 0. -1.
          4    1    4    4  501    0  0.22414318531E+03 -0.71905971520E+02  0.45238669810E+03  0.50996505849E+03  0.00000000000E+00 0.  1.
         -4    1    3    3    0  503  0.76788385213E+02 -0.24555938129E+03 -0.35723984681E+03  0.44024558373E+03  0.00000000000E+00 0. -1.
</event>
<event>
 8    1  0.7008488E-006  0.1206947E+04  0.7818608E-02  0.8606573E-01
         21   -1    0    0  501  502  0.00000000000E+00  0.00000000000E+00  0.19260657438E+04  0.19260657438E+04  0.00000000000E+00 0.  1.
         21   -1    0    0  502  503 -0.00000000000E+00 -0.00000000000E+00 -0.73993774658E+03  0.73993774658E+03  0.00000000000E+00 0.  1.
   -9000010    2    1    2    0  503  0.29525219299E+03 -0.54874947663E+03  0.64424165767E+03  0.13681261215E+04  0.10336449707E+04 0.  0.
    9000010    2    1    2  501    0 -0.29525219299E+03  0.54874947663E+03  0.54188633956E+03  0.12978773689E+04  0.10012716984E+04 0.  0.
        -13    1    4    4    0    0  0.16891433609E+03 -0.62162324543E+02  0.49783091561E+03  0.52936928437E+03  0.10566000000E+00 0.  1.
         13    1    3    3    0    0  0.46051995235E+03 -0.15272967818E+03  0.77952505845E+03  0.91818533479E+03  0.10566000000E+00 0. -1.
          4    1    4    4  501    0 -0.46416652908E+03  0.61091180118E+03  0.44055423952E+02  0.76850808449E+03  0.00000000000E+00 0.  1.
         -4    1    3    3    0  503 -0.16526775936E+03 -0.39601979845E+03 -0.13528340078E+03  0.44994078675E+03  0.00000000000E+00 0. -1.
</event>
<event>
 8    1  0.7008488E-006  0.1112382E+04  0.7818608E-02  0.8678702E-01
         21   -1    0    0  501  502  0.00000000000E+00  0.00000000000E+00  0.17610158310E+04  0.17610158310E+04  0.00000000000E+00 0. -1.
         21   -1    0    0  502  503 -0.00000000000E+00 -0.00000000000E+00 -0.75176280133E+03  0.75176280133E+03  0.00000000000E+00 0. -1.
   -9000010    2    1    2    0  503  0.47265551437E+03 -0.13369094580E+03  0.15756676579E+03  0.11234860230E+04  0.99805663861E+03 0.  0.
    9000010    2    1    2  501    0 -0.47265551437E+03  0.13369094580E+03  0.85168626393E+03  0.13892926094E+04  0.98157422446E+03 0.  0.
        -13    1    4    4    0    0 -0.18300393502E+03 -0.30565294639E+03  0.78089582682E+03  0.85831956018E+03  0.10566000000E+00 0.  1.
         13    1    3    3    0    0  0.71667392773E+03  0.14032037646E+03  0.16742057291E+02  0.73047356858E+03  0.10566000000E+00 0. -1.
          4    1    4    4  501    0 -0.28965157935E+03  0.43934389218E+03  0.70790437109E+02  0.53097304922E+03  0.00000000000E+00 0.  1.
         -4    1    3    3    0  503 -0.24401841336E+03 -0.27401132226E+03  0.14082470850E+03  0.39301245440E+03  0.00000000000E+00 0. -1.
</event>
<event>
 8    1  0.7008488E-006  0.1044741E+04  0.7818608E-02  0.8734451E-01
         21   -1    0    0  501  502  0.00000000000E+00  0.00000000000E+00  0.20496510793E+04  0.20496510793E+04  0.00000000000E+00 0. -1.
         21   -1    0    0  502  503 -0.00000000000E+00 -0.00000000000E+00 -0.57559663168E+03  0.57559663168E+03  0.00000000000E+00 0. -1.
   -9000010    2    1    2    0  503  0.31740503555E+01 -0.29746867625E+03  0.11047898894E+04  0.15205405736E+04  0.10014915118E+04 0.  0.
    9000010    2    1    2  501    0 -0.31740503555E+01  0.29746867625E+03  0.36926455824E+03  0.11047071374E+04  0.99775941870E+03 0.  0.
        -13    1    4    4    0    0 -0.49049483509E+03  0.14520496732E+03  0.29004285293E+03  0.58804296907E+03  0.10566000000E+00 0.  1.
         13    1    3    3    0    0  0.33360342116E+03 -0.44843089247E+03  0.29273881315E+03  0.63093385693E+03  0.10566000000E+00 0. -1.
          4    1    4    4  501    0  0.48732078473E+03  0.15226370893E+03  0.79221705310E+02  0.51666416837E+03  0.00000000000E+00 0.  1.
         -4    1    3    3    0  503 -0.33042937080E+03  0.15096221622E+03  0.81205107628E+03  0.88960671665E+03  0.00000000000E+00 0. -1.
</event>
<event>
 8    1  0.7008488E-006  0.1220376E+04  0.7818608E-02  0.8594852E-01
         21   -1    0    0  501  502  0.00000000000E+00  0.00000000000E+00  0.10853507496E+04  0.10853507496E+04  0.00000000000E+00 0.  1.
         21   -1    0    0  502  503 -0.00000000000E+00 -0.00000000000E+00 -0.14270344611E+04  0.14270344611E+04  0.00000000000E+00 0.  1.
   -9000010    2    1    2    0  503  0.14662856955E+03  0.66694005229E+03 -0.45905806100E+03  0.12863781590E+04  0.98880002720E+03 0.  0.
    9000010    2    1    2  501    0 -0.14662856955E+03 -0.66694005229E+03  0.11737434953E+03  0.12260070517E+04  0.10114383729E+04 0.  0.
        -13    1    4    4    0    0 -0.29628623661E+03 -0.15232345461E+03  0.47610752552E+03  0.58109066062E+03  0.10566000000E+00 0.  1.
         13    1    3    3    0    0  0.56491803108E+02 -0.19177396693E+03  0.13240583157E+03  0.23979135432E+03  0.10566000000E+00 0. -1.
          4    1    4    4  501    0  0.14965766707E+03 -0.51461659768E+03 -0.35873317600E+03  0.64491639108E+03  0.00000000000E+00 0.  1.
         -4    1    3    3    0  503  0.90136766440E+02  0.85871401922E+03 -0.59146389257E+03  0.10465868047E+04  0.00000000000E+00 0. -1.
</event>
<event>
 8    1  0.7008488E-006  0.1121875E+04  0.7818608E-02  0.8677820E-01
         21   -1    0    0  503  502  0.00000000000E+00  0.00000000000E+00  0.77251588626E+03  0.77251588626E+03  0.00000000000E+00 0. -1.
         21   -1    0    0  501  503 -0.00000000000E+00 -0.00000000000E+00 -0.16862631619E+04  0.16862631619E+04  0.00000000000E+00 0. -1.
    9000010    2    1    2  501    0  0.32823548611E+03  0.52552274491E+02 -0.11213253896E+03  0.10799428391E+04  0.10213728768E+04 0.  0.
   -9000010    2    1    2    0  502 -0.32823548611E+03 -0.52552274491E+02 -0.80161473671E+03  0.13788362091E+04  0.10714956041E+04 0.  0.
        -13    1    3    3    0    0 -0.11579038524E+03  0.58799590935E+02  0.38915458896E+03  0.41025127725E+03  0.10566000000E+00 0.  1.
         13    1    4    4    0    0 -0.54270674452E+03  0.33473175882E+03 -0.28483608954E+03  0.69836063032E+03  0.10566000000E+00 0. -1.
          4    1    3    3  501    0  0.44402587135E+03 -0.62473164442E+01 -0.50128712792E+03  0.66969156184E+03  0.00000000000E+00 0.  1.
         -4    1    4    4    0  502  0.21447125841E+03 -0.38728403331E+03 -0.51677864717E+03  0.68047557878E+03  0.00000000000E+00 0. -1.
</event>
<event>
 8    1  0.7008488E-006  0.1137524E+04  0.7818608E-02  0.8661629E-01
         21   -1    0    0  503  502  0.00000000000E+00  0.00000000000E+00  0.21067754524E+04  0.21067754524E+04  0.00000000000E+00 0. -1.
         21   -1    0    0  501  503 -0.00000000000E+00 -0.00000000000E+00 -0.64832007150E+03  0.64832007150E+03  0.00000000000E+00 0. -1.
    9000010    2    1    2  501    0  0.21701599010E+03  0.50075977627E+03  0.35181548771E+03  0.11906868370E+04  0.99805045613E+03 0.  0.
   -9000010    2    1    2    0  502 -0.21701599010E+03 -0.50075977627E+03  0.11066398932E+04  0.15644086869E+04  0.96169974155E+03 0.  0.
        -13    1    3    3    0    0 -0.37190448347E+03  0.38137608309E+03  0.11602163256E+03  0.54518042148E+03  0.10566000000E+00 0.  1.
         13    1    4    4    0    0  0.37963450497E+03 -0.25358045593E+03  0.51934281918E+03  0.69147840168E+03  0.10566000000E+00 0. -1.
          4    1    3    3  501    0  0.58892047357E+03  0.11938369318E+03  0.23579385515E+03  0.64550641554E+03  0.00000000000E+00 0.  1.
         -4    1    4    4    0  502 -0.59665049507E+03 -0.24717932034E+03  0.58729707402E+03  0.87293028520E+03  0.00000000000E+00 0. -1.
</event>
<event>
 8    1  0.7008488E-006  0.1225398E+04  0.7818608E-02  0.8591659E-01
         21   -1    0    0  501  502  0.00000000000E+00  0.00000000000E+00  0.10230317805E+04  0.10230317805E+04  0.00000000000E+00 0.  1.
         21   -1    0    0  502  503 -0.00000000000E+00 -0.00000000000E+00 -0.16238927651E+04  0.16238927651E+04  0.00000000000E+00 0.  1.
   -9000010    2    1    2    0  503  0.47516908376E+03 -0.48496737670E+03 -0.74550014018E+03  0.14343534969E+04  0.10201080729E+04 0.  0.
    9000010    2    1    2  501    0 -0.47516908376E+03  0.48496737670E+03  0.14463915554E+03  0.12125710487E+04  0.99419769066E+03 0.  0.
        -13    1    4    4    0    0 -0.96875993529E+02 -0.28590933731E+02  0.48098560877E+03  0.49147692379E+03  0.10566000000E+00 0.  1.
         13    1    3    3    0    0  0.76133520048E+03 -0.31521850328E+03 -0.29697914845E+03  0.87589418201E+03  0.10566000000E+00 0. -1.
          4    1    4    4  501    0 -0.37829309023E+03  0.51355831043E+03 -0.33634645323E+03  0.72109412487E+03  0.00000000000E+00 0.  1.
         -4    1    3    3    0  503 -0.28616611672E+03 -0.16974887342E+03 -0.44852099172E+03  0.55845931490E+03  0.00000000000E+00 0. -1.
</event>
<event>
 8    1  0.7008488E-006  0.1265510E+04  0.7818608E-02  0.8558952E-01
         21   -1    0    0  501  502  0.00000000000E+00  0.00000000000E+00  0.12962561319E+04  0.12962561319E+04  0.00000000000E+00 0. -1.
         21   -1    0    0  502  503 -0.00000000000E+00 -0.00000000000E+00 -0.18894831675E+04  0.18894831675E+04  0.00000000000E+00 0. -1.
   -9000010    2    1    2    0  503 -0.13298761541E+03  0.75686244791E+03 -0.12342687715E+04  0.17671308033E+04  0.10043930528E+04 0.  0.
    9000010    2    1    2  501    0  0.13298761541E+03 -0.75686244791E+03  0.64104173600E+03  0.14186084962E+04  0.10054795310E+04 0.  0.
        -13    1    4    4    0    0 -0.13933582628E+03 -0.92952605395E+03  0.52018092083E+03  0.10742538615E+04  0.10566000000E+00 0.  1.
         13    1    3    3    0    0 -0.32237773735E+03 -0.13311905016E+03 -0.26783835112E+03  0.43975616033E+03  0.10566000000E+00 0. -1.
          4    1    4    4  501    0  0.27232344169E+03  0.17266360604E+03  0.12086081517E+03  0.34435463462E+03  0.00000000000E+00 0.  1.
         -4    1    3    3    0  503  0.18939012194E+03  0.88998149807E+03 -0.96643042042E+03  0.13273746429E+04  0.00000000000E+00 0. -1.
</event>
<event>
 8    1  0.7008488E-006  0.1588270E+04  0.7818608E-02  0.8361346E-01
         21   -1    0    0  501  502  0.00000000000E+00  0.00000000000E+00  0.23961106159E+04  0.23961106159E+04  0.00000000000E+00 0. -1.
         21   -1    0    0  502  503 -0.00000000000E+00 -0.00000000000E+00 -0.12828630750E+04  0.12828630750E+04  0.00000000000E+00 0.  1.
   -9000010    2    1    2    0  503 -0.92468319987E+03 -0.80783229974E+03 -0.23089973040E+03  0.15982683010E+04  0.99675214157E+03 0.  0.
    9000010    2    1    2  501    0  0.92468319987E+03  0.80783229974E+03  0.13441472713E+04  0.20807053900E+04  0.10074576855E+04 0.  0.
        -13    1    4    4    0    0  0.88512022232E+03  0.10279128850E+04  0.12228883607E+04  0.18263347615E+04  0.10566000000E+00 0.  1.
         13    1    3    3    0    0  0.18846912086E+03 -0.30841642872E+03 -0.50754438005E+02  0.36498948911E+03  0.10566000000E+00 0. -1.
          4    1    4    4  501    0  0.39562977552E+02 -0.22008058530E+03  0.12125891066E+03  0.25437062848E+03  0.00000000000E+00 0.  1.
         -4    1    3    3    0  503 -0.11131523207E+04 -0.49941587102E+03 -0.18014529240E+03  0.12332788118E+04  0.00000000000E+00 0. -1.
</event>
<event>
 8    1  0.7008488E-006  0.1293660E+04  0.7818608E-02  0.8547551E-01
         21   -1    0    0  503  502  0.00000000000E+00  0.00000000000E+00  0.22235960909E+04  0.22235960909E+04  0.00000000000E+00 0.  1.
         21   -1    0    0  501  503 -0.00000000000E+00 -0.00000000000E+00 -0.73958491194E+03  0.73958491194E+03  0.00000000000E+00 0. -1.
    9000010    2    1    2  501    0  0.79762538678E+03 -0.20979916324E+03  0.93542612511E+03  0.15580110285E+04  0.93389206164E+03 0.  0.
   -9000010    2    1    2    0  502 -0.79762538678E+03  0.20979916324E+03  0.54858505382E+03  0.14051699743E+04  0.99666200338E+03 0.  0.
        -13    1    3    3    0    0  0.33586684634E+03  0.97738799102E+02 -0.11654813767E+03  0.36870434074E+03  0.10566000000E+00 0.  1.
         13    1    4    4    0    0 -0.27892664452E+03 -0.35815578517E+03  0.43303202023E+03  0.62736941365E+03  0.10566000000E+00 0. -1.
          4    1    3    3  501    0  0.46175854044E+03 -0.30753796234E+03  0.10519742628E+04  0.11893066877E+04  0.00000000000E+00 0.  1.
         -4    1    4    4    0  502 -0.51869874225E+03  0.56795494841E+03  0.11555303359E+03  0.77780056069E+03  0.00000000000E+00 0. -1.
</event>
<event>
 8    1  0.7008488E-006  0.1070982E+04  0.7818608E-02  0.8711863E-01
         21   -1    0    0  503  502  0.00000000000E+00  0.00000000000E+00  0.20098147453E+04  0.20098147453E+04  0.00000000000E+00 0. -1.
         21   -1    0    0  501  503 -0.00000000000E+00 -0.00000000000E+00 -0.60302649064E+03  0.60302649064E+03  0.00000000000E+00 0. -1.
    9000010    2    1    2  501    0 -0.33000714434E+03 -0.44179239083E+02  0.38511249657E+03  0.11326977529E+04  0.10118478363E+04 0.  0.
   -9000010    2    1    2    0  502  0.33000714434E+03  0.44179239083E+02  0.10216757581E+04  0.14801434831E+04  0.10179129901E+04 0.  0.
        -13    1    3    3    0    0 -0.37352914481E+03  0.42354499697E+03  0.74671922525E+02  0.56964049510E+03  0.10566000000E+00 0.  1.
         13    1    4    4    0    0  0.27919016833E+03 -0.11135978948E+03  0.12006148436E+04  0.12376688437E+04  0.10566000000E+00 0. -1.
          4    1    3    3  501    0  0.43522000470E+02 -0.46772423605E+03  0.31044057404E+03  0.56305725777E+03  0.00000000000E+00 0.  1.
         -4    1    4    4    0  502  0.50816976007E+02  0.15553902856E+03 -0.17893908547E+03  0.24247463942E+03  0.00000000000E+00 0. -1.
</event>
<event>
 8    1  0.7008488E-006  0.1099194E+04  0.7818608E-02  0.8689243E-01
         21   -1    0    0  501  502  0.00000000000E+00  0.00000000000E+00  0.16348253854E+04  0.16348253854E+04  0.00000000000E+00 0. -1.
         21   -1    0    0  502  503 -0.00000000000E+00 -0.00000000000E+00 -0.74080258492E+03  0.74080258492E+03  0.00000000000E+00 0.  1.
   -9000010    2    1    2    0  503 -0.98358752695E+02 -0.44127289011E+03  0.30544434246E+03  0.11287710640E+04  0.98814556662E+03 0.  0.
    9000010    2    1    2  501    0  0.98358752695E+02  0.44127289011E+03  0.58857845806E+03  0.12468569063E+04  0.10019138365E+04 0.  0.
        -13    1    4    4    0    0  0.57670928840E+02 -0.29855406015E+03  0.36047364730E+03  0.47159487320E+03  0.10566000000E+00 0.  1.
         13    1    3    3    0    0 -0.44407234904E+03  0.45704993438E+02  0.28808855539E+03  0.53130426736E+03  0.10566000000E+00 0. -1.
          4    1    4    4  501    0  0.40687823855E+02  0.73982695026E+03  0.22810481075E+03  0.77526203314E+03  0.00000000000E+00 0.  1.
         -4    1    3    3    0  503  0.34571359634E+03 -0.48697788355E+03  0.17355787071E+02  0.59746679666E+03  0.00000000000E+00 0. -1.
</event>
<event>
 8    1  0.7008488E-006  0.1163113E+04  0.7818608E-02  0.8639510E-01
         21   -1    0    0  501  502  0.00000000000E+00  0.00000000000E+00  0.20592891226E+04  0.20592891226E+04  0.00000000000E+00 0.  1.
         21   -1    0    0  502  503 -0.00000000000E+00 -0.00000000000E+00 -0.68091044909E+03  0.68091044909E+03  0.00000000000E+00 0.  1.
   -9000010    2    1    2    0  503  0.12379779967E+03  0.53151529233E+03  0.10159083410E+04  0.15443123945E+04  0.10271302806E+04 0.  0.
    9000010    2    1    2  501    0 -0.12379779967E+03 -0.53151529233E+03  0.36247033244E+03  0.11958871771E+04  0.10004633913E+04 0.  0.
        -13    1    4    4    0    0  0.81619380350E+02 -0.71679278524E+03  0.50893604933E+03  0.88287571814E+03  0.10566000000E+00 0.  1.
         13    1    3    3    0    0 -0.22225003037E+03 -0.22310756543E+03  0.16505200285E+03  0.35554779785E+03  0.10566000000E+00 0. -1.
          4    1    4    4  501    0 -0.20541718002E+03  0.18527749291E+03 -0.14646571689E+03  0.31301145897E+03  0.00000000000E+00 0.  1.
         -4    1    3    3    0  503  0.34604783004E+03  0.75462285776E+03  0.85085633818E+03  0.11887645967E+04  0.00000000000E+00 0. -1.
</event>
<event>
 8    1  0.7008488E-006  0.1096431E+04  0.7818608E-02  0.8697814E-01
         21   -1    0    0  501  502  0.00000000000E+00  0.00000000000E+00  0.14050317732E+04  0.14050317732E+04  0.00000000000E+00 0.  1.
         21   -1    0    0  502  503 -0.00000000000E+00 -0.00000000000E+00 -0.93832004610E+03  0.93832004610E+03  0.00000000000E+00 0.  1.
   -9000010    2    1    2    0  503 -0.34191062034E+03  0.51365322582E+02 -0.17241317454E+03  0.11099042374E+04  0.10404901944E+04 0.  0.
    9000010    2    1    2  501    0  0.34191062034E+03 -0.51365322582E+02  0.63912490168E+03  0.12334475820E+04  0.99668000325E+03 0.  0.
        -13    1    4    4    0    0  0.42302308765E+03  0.22921675572E+03 -0.51228149188E+02  0.48385244468E+03  0.10566000000E+00 0.  1.
         13    1    3    3    0    0 -0.29300782884E+03  0.43371125417E+03  0.21274434956E+03  0.56499487537E+03  0.10566000000E+00 0. -1.
          4    1    4    4  501    0 -0.81112467314E+02 -0.28058207831E+03  0.69035305087E+03  0.74959513730E+03  0.00000000000E+00 0.  1.
         -4    1    3    3    0  503 -0.48902791501E+02 -0.38234593159E+03 -0.38515752410E+03  0.54490936200E+03  0.00000000000E+00 0. -1.
</event>
<event>
 8    1  0.7008488E-006  0.1172586E+04  0.7818608E-02  0.8630029E-01
         21   -1    0    0  501  502  0.00000000000E+00  0.00000000000E+00  0.77461644476E+03  0.77461644476E+03  0.00000000000E+00 0.  1.
         21   -1    0    0  502  503 -0.00000000000E+00 -0.00000000000E+00 -0.17576262756E+04  0.17576262756E+04  0.00000000000E+00 0.  1.
   -9000010    2    1    2    0  503 -0.57702705312E+03  0.21346203609E+02 -0.53392939097E+03  0.12766026082E+04  0.10055932301E+04 0.  0.
    9000010    2    1    2  501    0  0.57702705312E+03 -0.21346203609E+02 -0.44908043990E+03  0.12556401122E+04  0.10205601253E+04 0.  0.
        -13    1    4    4    0    0 -0.19339598339E+03 -0.38726144653E+02  0.17525581175E+03  0.26384906933E+03  0.10566000000E+00 0.  1.
         13    1    3    3    0    0  0.12864101873E+03 -0.28527127055E+03  0.41700736257E+02  0.31570108025E+03  0.10566000000E+00 0. -1.
          4    1    4    4  501    0  0.77042303652E+03  0.17379941044E+02 -0.62433625165E+03  0.99179104285E+03  0.00000000000E+00 0.  1.
         -4    1    3    3    0  503 -0.70566807185E+03  0.30661747416E+03 -0.57563012723E+03  0.96090152798E+03  0.00000000000E+00 0. -1.
</event>
<event>
 8    1  0.7008488E-006  0.1454405E+04  0.7818608E-02  0.8436713E-01
         21   -1    0    0  503  502  0.00000000000E+00  0.00000000000E+00  0.33290038965E+04  0.33290038965E+04  0.00000000000E+00 0. -1.
         21   -1    0    0  501  503 -0.00000000000E+00 -0.00000000000E+00 -0.65424602123E+03  0.65424602123E+03  0.00000000000E+00 0.  1.
    9000010    2    1    2  501    0  0.10504110870E+04  0.66314973757E+02  0.98856236227E+03  0.17585647204E+04  0.10037595351E+04 0.  0.
   -9000010    2    1    2    0  502 -0.10504110870E+04 -0.66314973757E+02  0.16861955130E+04  0.22246851974E+04  0.99910349404E+03 0.  0.
        -13    1    3    3    0    0  0.80034241754E+03 -0.39668297237E+03  0.80138596314E+03  0.12000520151E+04  0.10566000000E+00 0.  1.
         13    1    4    4    0    0  0.16373308384E+03 -0.13592140084E+03  0.40934928800E+03  0.46135669574E+03  0.10566000000E+00 0. -1.
          4    1    3    3  501    0  0.25006866947E+03  0.46299794612E+03  0.18717639913E+03  0.55851270528E+03  0.00000000000E+00 0.  1.
         -4    1    4    4    0  502 -0.12141441709E+04  0.69606427081E+02  0.12768462250E+04  0.17633285016E+04  0.00000000000E+00 0. -1.
</event>
<event>
 8    1  0.7008488E-006  0.1176844E+04  0.7818608E-02  0.8624243E-01
         21   -1    0    0  501  502  0.00000000000E+00  0.00000000000E+00  0.15351394039E+04  0.15351394039E+04  0.00000000000E+00 0. -1.
         21   -1    0    0  502  503 -0.00000000000E+00 -0.00000000000E+00 -0.90204307029E+03  0.90204307029E+03  0.00000000000E+00 0. -1.
   -9000010    2    1    2    0  503 -0.42302641570E+03 -0.42681889184E+03  0.31132860965E+03  0.12173280949E+04  0.10118480482E+04 0.  0.
    9000010    2    1    2  501    0  0.42302641570E+03  0.42681889184E+03  0.32176772396E+03  0.12198543793E+04  0.10116246951E+04 0.  0.
        -13    1    4    4    0    0  0.59501571326E+03  0.58580636797E+03  0.16588462933E+02  0.83515746302E+03  0.10566000000E+00 0.  1.
         13    1    3    3    0    0 -0.30459526061E+03 -0.61130582560E+03 -0.15649209453E+03  0.70068742819E+03  0.10566000000E+00 0. -1.
          4    1    4    4  501    0 -0.17198929756E+03 -0.15898747613E+03  0.30517926102E+03  0.38469691629E+03  0.00000000000E+00 0.  1.
         -4    1    3    3    0  503 -0.11843115508E+03  0.18448693376E+03  0.46782070418E+03  0.51664066670E+03  0.00000000000E+00 0. -1.
</event>
<event>
 8    1  0.7008488E-006  0.1239904E+04  0.7818608E-02  0.8582052E-01
         21   -1    0    0  501  502  0.00000000000E+00  0.00000000000E+00  0.12078494353E+04  0.12078494353E+04  0.00000000000E+00 0. -1.
         21   -1    0    0  502  503 -0.00000000000E+00 -0.00000000000E+00 -0.13095187230E+04  0.13095187230E+04  0.00000000000E+00 0.  1.
   -9000010    2    1    2    0  503 -0.62300268452E+03 -0.29539140972E+03 -0.33026851752E+03  0.12831369372E+04  0.10305215554E+04 0.  0.
    9000010    2    1    2  501    0  0.62300268452E+03  0.29539140972E+03  0.22859922986E+03  0.12342312211E+04  0.99783799758E+03 0.  0.
        -13    1    4    4    0    0  0.17718232896E+03 -0.39005697029E+02  0.55807724629E+03  0.58682641904E+03  0.10566000000E+00 0.  1.
         13    1    3    3    0    0 -0.36249923778E+03  0.34846604301E+03  0.24090673701E+02  0.50340307136E+03  0.10566000000E+00 0. -1.
          4    1    4    4  501    0  0.44582035556E+03  0.33439710675E+03 -0.32947801643E+03  0.64740480207E+03  0.00000000000E+00 0.  1.
         -4    1    3    3    0  503 -0.26050344674E+03 -0.64385745274E+03 -0.35435919123E+03  0.77973386589E+03  0.00000000000E+00 0. -1.
</event>
<event>
 8    1  0.7008488E-006  0.1085687E+04  0.7818608E-02  0.8706435E-01
         21   -1    0    0  503  502  0.00000000000E+00  0.00000000000E+00  0.13972768981E+04  0.13972768981E+04  0.00000000000E+00 0.  1.
         21   -1    0    0  501  503 -0.00000000000E+00 -0.00000000000E+00 -0.14483735694E+04  0.14483735694E+04  0.00000000000E+00 0.  1.
    9000010    2    1    2  501    0  0.23232121194E+03  0.20678284214E+03 -0.96711413558E+03  0.14251564396E+04  0.99951430039E+03 0.  0.
   -9000010    2    1    2    0  502 -0.23232121194E+03 -0.20678284214E+03  0.91601746427E+03  0.14204940280E+04  0.10401841180E+04 0.  0.
        -13    1    3    3    0    0 -0.38991786822E+03  0.15179766905E+03 -0.44729686421E+03  0.61249732422E+03  0.10566000000E+00 0.  1.
         13    1    4    4    0    0 -0.57821499636E+03 -0.15524377777E+03  0.88624640957E+03  0.10695166769E+04  0.10566000000E+00 0. -1.
          4    1    3    3  501    0  0.62223908016E+03  0.54985173089E+02 -0.51981727137E+03  0.81265911534E+03  0.00000000000E+00 0.  1.
         -4    1    4    4    0  502  0.34589378442E+03 -0.51539064367E+02  0.29771054698E+02  0.35097735106E+03  0.00000000000E+00 0. -1.
</event>
<event>
 8    1  0.7008488E-006  0.1106473E+04  0.7818608E-02  0.8681520E-01
         21   -1    0    0  501  502  0.00000000000E+00  0.00000000000E+00  0.11923118410E+04  0.11923118410E+04  0.00000000000E+00 0. -1.
         21   -1    0    0  502  503 -0.00000000000E+00 -0.00000000000E+00 -0.10227153047E+04  0.10227153047E+04  0.00000000000E+00 0. -1.
   -9000010    2    1    2    0  503 -0.44473159682E+03 -0.18387800548E+03  0.10445821978E+03  0.11113926472E+04  0.99633567763E+03 0.  0.
    9000010    2    1    2  501    0  0.44473159682E+03  0.18387800548E+03  0.65138316555E+02  0.11036344985E+04  0.99104429360E+03 0.  0.
        -13    1    4    4    0    0  0.68151341459E+03  0.38051481091E+03  0.12381810202E+03  0.79030563021E+03  0.10566000000E+00 0.  1.
         13    1    3    3    0    0 -0.21421478600E+03 -0.58638751165E+03  0.15936338757E+03  0.64430969947E+03  0.10566000000E+00 0. -1.
          4    1    4    4  501    0 -0.23678181777E+03 -0.19663680544E+03 -0.58679785464E+02  0.31332886829E+03  0.00000000000E+00 0.  1.
         -4    1    3    3    0  503 -0.23051681082E+03  0.40250950618E+03 -0.54905167792E+02  0.46708294776E+03  0.00000000000E+00 0. -1.
</event>
<event>
 8    1  0.7008488E-006  0.1261657E+04  0.7818608E-02  0.8562003E-01
         21   -1    0    0  501  502  0.00000000000E+00  0.00000000000E+00  0.15788944586E+04  0.15788944586E+04  0.00000000000E+00 0.  1.
         21   -1    0    0  502  503 -0.00000000000E+00 -0.00000000000E+00 -0.14422908927E+04  0.14422908927E+04  0.00000000000E+00 0.  1.
   -9000010    2    1    2    0  503  0.23670730556E+03 -0.72480805890E+03 -0.76256480473E+03  0.14719011097E+04  0.10018037355E+04 0.  0.
    9000010    2    1    2  501    0 -0.23670730556E+03  0.72480805890E+03  0.89916837061E+03  0.15492842416E+04  0.10051869636E+04 0.  0.
        -13    1    4    4    0    0  0.19858135864E+02 -0.20491189924E+03  0.43002225851E+03  0.47676239993E+03  0.10566000000E+00 0.  1.
         13    1    3    3    0    0  0.22226750137E+03  0.19691778505E+03 -0.37961954784E+02  0.29936696112E+03  0.10566000000E+00 0. -1.
          4    1    4    4  501    0 -0.25656544143E+03  0.92971995814E+03  0.46914611210E+03  0.10725218416E+04  0.00000000000E+00 0.  1.
         -4    1    3    3    0  503  0.14439804191E+02 -0.92172584394E+03 -0.72460284995E+03  0.11725341485E+04  0.00000000000E+00 0. -1.
</event>
<event>
 8    1  0.7008488E-006  0.1161738E+04  0.7818608E-02  0.8636886E-01
         21   -1    0    0  503  502  0.00000000000E+00  0.00000000000E+00  0.12223626557E+04  0.12223626557E+04  0.00000000000E+00 0.  1.
         21   -1    0    0  501  503 -0.00000000000E+00 -0.00000000000E+00 -0.11768746901E+04  0.11768746901E+04  0.00000000000E+00 0.  1.
    9000010    2    1    2  501    0  0.10805523402E+03 -0.57543558004E+03 -0.28476055405E+03  0.11914708527E+04  0.99785378655E+03 0.  0.
   -9000010    2    1    2    0  502 -0.10805523402E+03  0.57543558004E+03  0.33024851965E+03  0.12077664931E+04  0.10034110707E+04 0.  0.
        -13    1    3    3    0    0  0.45590027741E+02  0.16922512471E+03  0.22624197985E+03  0.28618357408E+03  0.10566000000E+00 0.  1.
         13    1    4    4    0    0 -0.47442571979E+03  0.20568132155E+03 -0.10690158339E+03  0.52802701572E+03  0.10566000000E+00 0. -1.
          4    1    3    3  501    0  0.62465206275E+02 -0.74466070475E+03 -0.51100253390E+03  0.90528727863E+03  0.00000000000E+00 0.  1.
         -4    1    4    4    0  502  0.36637048577E+03  0.36975425850E+03  0.43715010304E+03  0.67973947738E+03  0.00000000000E+00 0. -1.
</event>
<event>
 8    1  0.7008488E-006  0.1219906E+04  0.7818608E-02  0.8593780E-01
         21   -1    0    0  503  502  0.00000000000E+00  0.00000000000E+00  0.12206357890E+04  0.12206357890E+04  0.00000000000E+00 0. -1.
         21   -1    0    0  501  503 -0.00000000000E+00 -0.00000000000E+00 -0.12363871430E+04  0.12363871430E+04  0.00000000000E+00 0. -1.
    9000010    2    1    2  501    0 -0.31779089193E+03  0.62097817308E+03 -0.19371432014E+03  0.12351907432E+04  0.10007826896E+04 0.  0.
   -9000010    2    1    2    0  502  0.31779089193E+03 -0.62097817308E+03  0.17796296614E+03  0.12218321888E+04  0.98721737107E+03 0.  0.
        -13    1    3    3    0    0 -0.21639871472E+03  0.82174582081E+03 -0.39156369961E+03  0.93563707696E+03  0.10566000000E+00 0.  1.
         13    1    4    4    0    0  0.51227148050E+03 -0.50439020359E+03  0.46488727469E+03  0.85612600506E+03  0.10566000000E+00 0. -1.
          4    1    3    3  501    0 -0.10139217720E+03 -0.20076764773E+03  0.19784937947E+03  0.29955366620E+03  0.00000000000E+00 0.  1.
         -4    1    4    4    0  502 -0.19448058857E+03 -0.11658796949E+03 -0.28692430855E+03  0.36570618370E+03  0.00000000000E+00 0. -1.
</event>
<event>
 8    1  0.7008488E-006  0.1138281E+04  0.7818608E-02  0.8658758E-01
         21   -1    0    0  503  502  0.00000000000E+00  0.00000000000E+00  0.97521839349E+03  0.97521839349E+03  0.00000000000E+00 0.  1.
         21   -1    0    0  501  503 -0.00000000000E+00 -0.00000000000E+00 -0.13065913794E+04  0.13065913794E+04  0.00000000000E+00 0.  1.
    9000010    2    1    2  501    0 -0.21858504869E+03  0.45406000139E+03 -0.11812613625E+03  0.11237257523E+04  0.99742462067E+03 0.  0.
   -9000010    2    1    2    0  502  0.21858504869E+03 -0.45406000139E+03 -0.21324684962E+03  0.11580840206E+04  0.10206539430E+04 0.  0.
        -13    1    3    3    0    0 -0.27322304792E+03  0.15240291010E+03  0.40839698281E+03  0.51445659453E+03  0.10566000000E+00 0.  1.
         13    1    4    4    0    0 -0.31203085727E+03  0.77219795087E+02  0.11116949693E+03  0.34012471367E+03  0.10566000000E+00 0. -1.
          4    1    3    3  501    0  0.54637999229E+02  0.30165709129E+03 -0.52652311906E+03  0.60926915776E+03  0.00000000000E+00 0.  1.
         -4    1    4    4    0  502  0.53061590596E+03 -0.53127979648E+03 -0.32441634656E+03  0.81795930688E+03  0.00000000000E+00 0. -1.
</event>
<event>
 8    1  0.7008488E-006  0.1156508E+04  0.7818608E-02  0.8654420E-01
         21   -1    0    0  503  502  0.00000000000E+00  0.00000000000E+00  0.83707088118E+03  0.83707088118E+03  0.00000000000E+00 0. -1.
         21   -1    0    0  501  503 -0.00000000000E+00 -0.00000000000E+00 -0.15378270446E+04  0.15378270446E+04  0.00000000000E+00 0. -1.
    9000010    2    1    2  501    0 -0.32269223349E+03 -0.46896651565E+03 -0.52129216218E+03  0.12045485037E+04  0.92473331788E+03 0.  0.
   -9000010    2    1    2    0  502  0.32269223349E+03  0.46896651565E+03 -0.17946400120E+03  0.11703494220E+04  0.10067028218E+04 0.  0.
        -13    1    3    3    0    0 -0.31215865086E+03 -0.74285616540E+03 -0.33226436548E+03  0.87159504675E+03  0.10566000000E+00 0.  1.
         13    1    4    4    0    0  0.47082781455E+02 -0.72914534392E+02 -0.48307401815E+03  0.49080936809E+03  0.10566000000E+00 0. -1.
          4    1    3    3  501    0 -0.10533582623E+02  0.27388964975E+03 -0.18902779670E+03  0.33295345700E+03  0.00000000000E+00 0.  1.
         -4    1    4    4    0  502  0.27560945203E+03  0.54188105004E+03  0.30361001695E+03  0.67954005388E+03  0.00000000000E+00 0. -1.
</event>
<event>
 8    1  0.7008488E-006  0.1017900E+04  0.7818608E-02  0.8759814E-01
         21   -1    0    0  503  502  0.00000000000E+00  0.00000000000E+00  0.54054590110E+03  0.54054590110E+03  0.00000000000E+00 0. -1.
         21   -1    0    0  501  503 -0.00000000000E+00 -0.00000000000E+00 -0.19017230395E+04  0.19017230395E+04  0.00000000000E+00 0. -1.
    9000010    2    1    2  501    0  0.18529259269E+03 -0.40808587005E+02 -0.67048282749E+03  0.12121551601E+04  0.99185393308E+03 0.  0.
   -9000010    2    1    2    0  502 -0.18529259269E+03  0.40808587005E+02 -0.69069431095E+03  0.12301137805E+04  0.10000612962E+04 0.  0.
        -13    1    3    3    0    0  0.73273711133E+02  0.56785765154E+02  0.25681340741E+03  0.27303259376E+03  0.10566000000E+00 0.  1.
         13    1    4    4    0    0  0.37498313999E+03 -0.94542746751E+02 -0.48004097951E+03  0.61643332114E+03  0.10566000000E+00 0. -1.
          4    1    3    3  501    0  0.11201888156E+03 -0.97594352159E+02 -0.92729623489E+03  0.93912256636E+03  0.00000000000E+00 0.  1.
         -4    1    4    4    0  502 -0.56027573268E+03  0.13535133376E+03 -0.21065333143E+03  0.61368045938E+03  0.00000000000E+00 0. -1.
</event>
<event>
 8    1  0.7008488E-006  0.1149052E+04  0.7818608E-02  0.8647288E-01
         21   -1    0    0  501  502  0.00000000000E+00  0.00000000000E+00  0.16179945323E+04  0.16179945323E+04  0.00000000000E+00 0.  1.
         21   -1    0    0  502  503 -0.00000000000E+00 -0.00000000000E+00 -0.82560258040E+03  0.82560258040E+03  0.00000000000E+00 0.  1.
   -9000010    2    1    2    0  503 -0.53084190216E+03 -0.17450501550E+03  0.55615794046E+03  0.12705129039E+04  0.99631634465E+03 0.  0.
    9000010    2    1    2  501    0  0.53084190216E+03  0.17450501550E+03  0.23623401148E+03  0.11730842089E+04  0.10040293459E+04 0.  0.
        -13    1    4    4    0    0  0.39001596444E+02 -0.30512222503E+03 -0.19289572325E+03  0.36308327962E+03  0.10566000000E+00 0.  1.
         13    1    3    3    0    0  0.29057088075E+03  0.32335194479E+02  0.18293093820E+03  0.34487786368E+03  0.10566000000E+00 0. -1.
          4    1    4    4  501    0  0.49184030571E+03  0.47962724053E+03  0.42912973473E+03  0.81000092927E+03  0.00000000000E+00 0.  1.
         -4    1    3    3    0  503 -0.82141278291E+03 -0.20684020998E+03  0.37322700226E+03  0.92563504018E+03  0.00000000000E+00 0. -1.
</event>
<event>
 8    1  0.7008488E-006  0.1156095E+04  0.7818608E-02  0.8644500E-01
         21   -1    0    0  501  502  0.00000000000E+00  0.00000000000E+00  0.15371942708E+04  0.15371942708E+04  0.00000000000E+00 0. -1.
         21   -1    0    0  502  503 -0.00000000000E+00 -0.00000000000E+00 -0.99765342060E+03  0.99765342060E+03  0.00000000000E+00 0. -1.
   -9000010    2    1    2    0  503 -0.52945869688E+03  0.12721954268E+03 -0.20913192417E+03  0.11748578723E+04  0.10198252471E+04 0.  0.
    9000010    2    1    2  501    0  0.52945869688E+03 -0.12721954268E+03  0.74867277434E+03  0.13599898191E+04  0.99626806700E+03 0.  0.
        -13    1    4    4    0    0  0.75606710348E+03  0.62625522230E+02  0.28566796445E+03  0.81065752206E+03  0.10566000000E+00 0.  1.
         13    1    3    3    0    0 -0.31231651479E+03 -0.17686615669E+03 -0.55812437723E+03  0.66357070039E+03  0.10566000000E+00 0. -1.
          4    1    4    4  501    0 -0.22660840659E+03 -0.18984506491E+03  0.46300480989E+03  0.54933229706E+03  0.00000000000E+00 0.  1.
         -4    1    3    3    0  503 -0.21714218209E+03  0.30408569938E+03  0.34899245307E+03  0.51128717186E+03  0.00000000000E+00 0. -1.
</event>
<event>
 8    1  0.7008488E-006  0.1055646E+04  0.7818608E-02  0.8726278E-01
         21   -1    0    0  501  502  0.00000000000E+00  0.00000000000E+00  0.11903697498E+04  0.11903697498E+04  0.00000000000E+00 0.  1.
         21   -1    0    0  502  503 -0.00000000000E+00 -0.00000000000E+00 -0.92706371192E+03  0.92706371192E+03  0.00000000000E+00 0.  1.
   -9000010    2    1    2    0  503  0.29741969117E+03  0.13487217764E+03  0.13718343455E+03  0.10542795685E+04  0.99299402660E+03 0.  0.
    9000010    2    1    2  501    0 -0.29741969117E+03 -0.13487217764E+03  0.12612260333E+03  0.10631538932E+04  0.10038626961E+04 0.  0.
        -13    1    4    4    0    0  0.11412447381E+03  0.37918124740E+03  0.71580301158E+02  0.40240099973E+03  0.10566000000E+00 0.  1.
         13    1    3    3    0    0  0.81373927262E+02  0.14047929895E+03 -0.42341165201E+03  0.45346839768E+03  0.10566000000E+00 0. -1.
          4    1    4    4  501    0 -0.41154416498E+03 -0.51405342504E+03  0.54542302173E+02  0.66075289349E+03  0.00000000000E+00 0.  1.
         -4    1    3    3    0  503  0.21604576391E+03 -0.56071213099E+01  0.56059508656E+03  0.60081117083E+03  0.00000000000E+00 0. -1.
</event>
<event>
 8    1  0.7008488E-006  0.1057583E+04  0.7818608E-02  0.8722479E-01
         21   -1    0    0  503  502  0.00000000000E+00  0.00000000000E+00  0.94109634620E+03  0.94109634620E+03  0.00000000000E+00 0. -1.
         21   -1    0    0  501  503 -0.00000000000E+00 -0.00000000000E+00 -0.14427566967E+04  0.14427566967E+04  0.00000000000E+00 0. -1.
    9000010    2    1    2  501    0  0.10021479903E+03  0.31424290802E+03 -0.75223849890E+03  0.12978228486E+04  0.10048332081E+04 0.  0.
   -9000010    2    1    2    0  502 -0.10021479903E+03 -0.31424290802E+03  0.25057814840E+03  0.10860301943E+04  0.10039325491E+04 0.  0.
        -13    1    3    3    0    0  0.28541487803E+03  0.33877335662E+03 -0.93615178526E+03  0.10356684875E+04  0.10566000000E+00 0.  1.
         13    1    4    4    0    0 -0.23772062341E+03  0.22338987945E+03 -0.18995875773E+03  0.37748970031E+03  0.10566000000E+00 0. -1.
          4    1    3    3  501    0 -0.18520007900E+03 -0.24530448602E+02  0.18391328637E+03  0.26215436115E+03  0.00000000000E+00 0.  1.
         -4    1    4    4    0  502  0.13750582438E+03 -0.53763278746E+03  0.44053690613E+03  0.70854049395E+03  0.00000000000E+00 0. -1.
</event>
<event>
 8    1  0.7008488E-006  0.1108014E+04  0.7818608E-02  0.8680985E-01
         21   -1    0    0  503  502  0.00000000000E+00  0.00000000000E+00  0.11505929201E+04  0.11505929201E+04  0.00000000000E+00 0.  1.
         21   -1    0    0  501  503 -0.00000000000E+00 -0.00000000000E+00 -0.11081852972E+04  0.11081852972E+04  0.00000000000E+00 0.  1.
    9000010    2    1    2  501    0 -0.25816864804E+02  0.47614200824E+03  0.25922035238E+03  0.11379324504E+04  0.10001586615E+04 0.  0.
   -9000010    2    1    2    0  502  0.25816864804E+02 -0.47614200824E+03 -0.21681272950E+03  0.11208457668E+04  0.99091359402E+03 0.  0.
        -13    1    3    3    0    0 -0.40850402394E+03  0.49312868760E+03  0.36949828863E+03  0.73931078483E+03  0.10566000000E+00 0.  1.
         13    1    4    4    0    0  0.23711886422E+03 -0.10151862025E+03 -0.52957134633E+03  0.58904771287E+03  0.10566000000E+00 0. -1.
          4    1    3    3  501    0  0.38268715913E+03 -0.16986679359E+02 -0.11027793625E+03  0.39862166557E+03  0.00000000000E+00 0.  1.
         -4    1    4    4    0  502 -0.21130199941E+03 -0.37462338799E+03  0.31275861683E+03  0.53179805395E+03  0.00000000000E+00 0. -1.
</event>
<event>
 8    1  0.7008488E-006  0.1160125E+04  0.7818608E-02  0.8643072E-01
         21   -1    0    0  501  502  0.00000000000E+00  0.00000000000E+00  0.19661337463E+04  0.19661337463E+04  0.00000000000E+00 0.  1.
         21   -1    0    0  502  503 -0.00000000000E+00 -0.00000000000E+00 -0.67867621199E+03  0.67867621199E+03  0.00000000000E+00 0.  1.
   -9000010    2    1    2    0  503 -0.36881192957E+03  0.45767638956E+03  0.48027875936E+03  0.12556103394E+04  0.10001998405E+04 0.  0.
    9000010    2    1    2  501    0  0.36881192957E+03 -0.45767638956E+03  0.80717877494E+03  0.13891996188E+04  0.96584061279E+03 0.  0.
        -13    1    4    4    0    0 -0.12895573366E+03  0.21651222366E+03  0.35965583321E+03  0.43915766391E+03  0.10566000000E+00 0.  1.
         13    1    3    3    0    0 -0.49661375129E+03  0.63602604935E+03  0.95371354178E+02  0.81255772705E+03  0.10566000000E+00 0. -1.
          4    1    4    4  501    0  0.49776766323E+03 -0.67418861323E+03  0.44752294172E+03  0.95004195493E+03  0.00000000000E+00 0.  1.
         -4    1    3    3    0  503  0.12780182172E+03 -0.17834965979E+03  0.38490740518E+03  0.44305261239E+03  0.00000000000E+00 0. -1.
</event>
<event>
 8    1  0.7008488E-006  0.1113335E+04  0.7818608E-02  0.8687577E-01
         21   -1    0    0  501  502  0.00000000000E+00  0.00000000000E+00  0.15965799677E+04  0.15965799677E+04  0.00000000000E+00 0. -1.
         21   -1    0    0  502  503 -0.00000000000E+00 -0.00000000000E+00 -0.74803686243E+03  0.74803686243E+03  0.00000000000E+00 0. -1.
   -9000010    2    1    2    0  503 -0.14042751960E+03  0.43029338351E+03  0.25862497771E+03  0.10846489517E+04  0.95115939000E+03 0.  0.
    9000010    2    1    2  501    0  0.14042751960E+03 -0.43029338351E+03  0.58991812761E+03  0.12599678785E+04  0.10171742099E+04 0.  0.
        -13    1    4    4    0    0 -0.67941113036E+02  0.14062438416E+03  0.63175767865E+03  0.65077568175E+03  0.10566000000E+00 0.  1.
         13    1    3    3    0    0 -0.54571060196E+03  0.25683983292E+03  0.22045759232E+03  0.64215910960E+03  0.10566000000E+00 0. -1.
          4    1    4    4  501    0  0.20836863264E+03 -0.57091776768E+03 -0.41839551039E+02  0.60919219672E+03  0.00000000000E+00 0.  1.
         -4    1    3    3    0  503  0.40528308236E+03  0.17345355059E+03  0.38167385387E+02  0.44248984210E+03  0.00000000000E+00 0. -1.
</event>
<event>
 8    1  0.7008488E-006  0.1106212E+04  0.7818608E-02  0.8684065E-01
         21   -1    0    0  503  502  0.00000000000E+00  0.00000000000E+00  0.14882631958E+04  0.14882631958E+04  0.00000000000E+00 0.  1.
         21   -1    0    0  501  503 -0.00000000000E+00 -0.00000000000E+00 -0.11023970870E+04  0.11023970870E+04  0.00000000000E+00 0.  1.
    9000010    2    1    2  501    0  0.11984381518E+01 -0.42203537127E+03 -0.47462448674E+03  0.11891789229E+04  0.10053670058E+04 0.  0.
   -9000010    2    1    2    0  502 -0.11984381518E+01  0.42203537127E+03  0.86049059559E+03  0.14014813599E+04  0.10225412687E+04 0.  0.
        -13    1    3    3    0    0  0.72128020952E+02 -0.52963057859E+03  0.14697759256E+03  0.55435857084E+03  0.10566000000E+00 0.  1.
         13    1    4    4    0    0  0.81459308899E+01 -0.11271091977E+03 -0.19092200375E+03  0.22185880714E+03  0.10566000000E+00 0. -1.
          4    1    3    3  501    0 -0.70929582800E+02  0.10759520731E+03 -0.62160207930E+03  0.63482035202E+03  0.00000000000E+00 0.  1.
         -4    1    4    4    0  502 -0.93443690416E+01  0.53474629104E+03  0.10514125993E+04  0.11796225528E+04  0.00000000000E+00 0. -1.
</event>
<event>
 8    1  0.7008488E-006  0.1037625E+04  0.7818608E-02  0.8746359E-01
         21   -1    0    0  503  502  0.00000000000E+00  0.00000000000E+00  0.96652725717E+03  0.96652725717E+03  0.00000000000E+00 0. -1.
         21   -1    0    0  501  503 -0.00000000000E+00 -0.00000000000E+00 -0.14476008686E+04  0.14476008686E+04  0.00000000000E+00 0. -1.
    9000010    2    1    2  501    0 -0.94725457257E+02  0.26274168868E+03 -0.84275172475E+03  0.13152759882E+04  0.97041967635E+03 0.  0.
   -9000010    2    1    2    0  502  0.94725457257E+02 -0.26274168868E+03  0.36167811332E+03  0.10988521376E+04  0.99932920273E+03 0.  0.
        -13    1    3    3    0    0 -0.34002664439E+03  0.20776756249E+03 -0.95886641776E+03  0.10383690563E+04  0.10566000000E+00 0.  1.
         13    1    4    4    0    0  0.86693471093E+02  0.33451229138E+03  0.36349624311E+03  0.50154138506E+03  0.10566000000E+00 0. -1.
          4    1    3    3  501    0  0.24530118713E+03  0.54974126188E+02  0.11611469300E+03  0.27690693182E+03  0.00000000000E+00 0.  1.
         -4    1    4    4    0  502  0.80319861646E+01 -0.59725398006E+03 -0.18181297855E+01  0.59731075253E+03  0.00000000000E+00 0. -1.
</event>
<event>
 8    1  0.7008488E-006  0.1271934E+04  0.7818608E-02  0.8555062E-01
         21   -1    0    0  503  502  0.00000000000E+00  0.00000000000E+00  0.16266336494E+04  0.16266336494E+04  0.00000000000E+00 0.  1.
         21   -1    0    0  501  503 -0.00000000000E+00 -0.00000000000E+00 -0.15597053472E+04  0.15597053472E+04  0.00000000000E+00 0.  1.
    9000010    2    1    2  501    0  0.26803716264E+03  0.74052674920E+03 -0.92844082159E+03  0.15747437459E+04  0.99879513376E+03 0.  0.
   -9000010    2    1    2    0  502 -0.26803716264E+03 -0.74052674920E+03  0.99536912374E+03  0.16115952507E+04  0.99310410972E+03 0.  0.
        -13    1    3    3    0    0  0.36311586821E+03  0.95178938595E+03 -0.85999623728E+03  0.13331727976E+04  0.10566000000E+00 0.  1.
         13    1    4    4    0    0 -0.41262320402E+03 -0.55336020379E+03  0.11471066414E+03  0.69973135650E+03  0.10566000000E+00 0. -1.
          4    1    3    3  501    0 -0.95078705572E+02 -0.21126263675E+03 -0.68444584310E+02  0.24157094830E+03  0.00000000000E+00 0.  1.
         -4    1    4    4    0  502  0.14458604138E+03 -0.18716654541E+03  0.88065845960E+03  0.91186389420E+03  0.00000000000E+00 0. -1.
</event>
<event>
 8    1  0.7008488E-006  0.1240199E+04  0.7818608E-02  0.8576989E-01
         21   -1    0    0  503  502  0.00000000000E+00  0.00000000000E+00  0.10661624911E+04  0.10661624911E+04  0.00000000000E+00 0.  1.
         21   -1    0    0  501  503 -0.00000000000E+00 -0.00000000000E+00 -0.16054718687E+04  0.16054718687E+04  0.00000000000E+00 0.  1.
    9000010    2    1    2  501    0 -0.71736685577E+03  0.17091932768E+03 -0.69593755464E+03  0.14221187315E+04  0.99712786754E+03 0.  0.
   -9000010    2    1    2    0  502  0.71736685577E+03 -0.17091932768E+03  0.15662817705E+03  0.12495156283E+04  0.99645787526E+03 0.  0.
        -13    1    3    3    0    0 -0.36456598619E+03 -0.86699879360E+02 -0.87355809383E+03  0.95054141510E+03  0.10566000000E+00 0.  1.
         13    1    4    4    0    0  0.30771056183E+03 -0.16450889257E+01  0.56722256956E+03  0.64531383896E+03  0.10566000000E+00 0. -1.
          4    1    3    3  501    0 -0.35280086958E+03  0.25761920704E+03  0.17762053919E+03  0.47157731641E+03  0.00000000000E+00 0.  1.
         -4    1    4    4    0  502  0.40965629394E+03 -0.16927423875E+03 -0.41059439250E+03  0.60420178933E+03  0.00000000000E+00 0. -1.
</event>
<event>
 8    1  0.7008488E-006  0.1153116E+04  0.7818608E-02  0.8649182E-01
         21   -1    0    0  501  502  0.00000000000E+00  0.00000000000E+00  0.13302081087E+04  0.13302081087E+04  0.00000000000E+00 0.  1.
         21   -1    0    0  502  503 -0.00000000000E+00 -0.00000000000E+00 -0.98778551770E+03  0.98778551770E+03  0.00000000000E+00 0.  1.
   -9000010    2    1    2    0  503 -0.39782033637E+03 -0.39515963858E+03  0.32056098135E+03  0.11968444233E+04  0.10076036279E+04 0.  0.
    9000010    2    1    2  501    0  0.39782033637E+03  0.39515963858E+03  0.21861609645E+02  0.11211492030E+04  0.97061086204E+03 0.  0.
        -13    1    4    4    0    0 -0.26189861231E+03 -0.11319601293E+03  0.39924556032E+02  0.28809408500E+03  0.10566000000E+00 0.  1.
         13    1    3    3    0    0  0.10204844899E+02  0.92268276499E+02  0.52187160849E+03  0.53006373260E+03  0.10566000000E+00 0. -1.
          4    1    4    4  501    0  0.65971894868E+03  0.50835565151E+03 -0.18062946387E+02  0.83305511805E+03  0.00000000000E+00 0.  1.
         -4    1    3    3    0  503 -0.40802518127E+03 -0.48742791508E+03 -0.20131062713E+03  0.66678069075E+03  0.00000000000E+00 0. -1.
</event>
<event>
 8    1  0.7008488E-006  0.1148238E+04  0.7818608E-02  0.8647379E-01
         21   -1    0    0  501  502  0.00000000000E+00  0.00000000000E+00  0.75346681746E+03  0.75346681746E+03  0.00000000000E+00 0.  1.
         21   -1    0    0  502  503 -0.00000000000E+00 -0.00000000000E+00 -0.17870090631E+04  0.17870090631E+04  0.00000000000E+00 0. -1.
   -9000010    2    1    2    0  503  0.87402191166E+02  0.53456656798E+03 -0.31846942552E+03  0.11877823277E+04  0.10079700017E+04 0.  0.
    9000010    2    1    2  501    0 -0.87402191166E+02 -0.53456656798E+03 -0.71507282017E+03  0.13526935529E+04  0.10124476043E+04 0.  0.
        -13    1    4    4    0    0  0.37583153652E+03  0.74108023602E+02 -0.22481586963E+03  0.44416610565E+03  0.10566000000E+00 0.  1.
         13    1    3    3    0    0  0.16248715837E+03  0.79356975999E+03 -0.40357877642E+03  0.90500324892E+03  0.10566000000E+00 0. -1.
          4    1    4    4  501    0 -0.46323372769E+03 -0.60867459158E+03 -0.49025695054E+03  0.90852744728E+03  0.00000000000E+00 0.  1.
         -4    1    3    3    0  503 -0.75084967209E+02 -0.25900319201E+03  0.85109350902E+02  0.28277907876E+03  0.00000000000E+00 0. -1.
</event>
<event>
 8    1  0.7008488E-006  0.1037800E+04  0.7818608E-02  0.8743016E-01
         21   -1    0    0  501  502  0.00000000000E+00  0.00000000000E+00  0.65676337541E+03  0.65676337541E+03  0.00000000000E+00 0.  1.
         21   -1    0    0  502  503 -0.00000000000E+00 -0.00000000000E+00 -0.16182804082E+04  0.16182804082E+04  0.00000000000E+00 0.  1.
   -9000010    2    1    2    0  503  0.43096251118E+02  0.29608443830E+03 -0.50009535810E+03  0.11520088210E+04  0.99373320108E+03 0.  0.
    9000010    2    1    2  501    0 -0.43096251118E+02 -0.29608443830E+03 -0.46142167468E+03  0.11230349626E+04  0.97917020175E+03 0.  0.
        -13    1    4    4    0    0 -0.17561020823E+03 -0.39410209438E+03  0.17501410668E+03  0.46560214210E+03  0.10566000000E+00 0.  1.
         13    1    3    3    0    0 -0.16486265326E+03  0.62617175745E+03 -0.30241233423E+03  0.71464956120E+03  0.10566000000E+00 0. -1.
          4    1    4    4  501    0  0.13251395712E+03  0.98017656082E+02 -0.63643578135E+03  0.65743282054E+03  0.00000000000E+00 0.  1.
         -4    1    3    3    0  503  0.20795890437E+03 -0.33008731915E+03 -0.19768302388E+03  0.43735925977E+03  0.00000000000E+00 0. -1.
</event>
<event>
 8    1  0.7008488E-006  0.1044064E+04  0.7818608E-02  0.8735609E-01
         21   -1    0    0  503  502  0.00000000000E+00  0.00000000000E+00  0.14780959254E+04  0.14780959254E+04  0.00000000000E+00 0. -1.
         21   -1    0    0  501  503 -0.00000000000E+00 -0.00000000000E+00 -0.73927847011E+03  0.73927847011E+03  0.00000000000E+00 0. -1.
    9000010    2    1    2  501    0  0.29651712017E+03  0.82580547227E+02  0.27007728400E+03  0.10784303417E+04  0.99766142212E+03 0.  0.
   -9000010    2    1    2    0  502 -0.29651712017E+03 -0.82580547227E+02  0.46874017125E+03  0.11389440538E+04  0.99132954167E+03 0.  0.
        -13    1    3    3    0    0 -0.24353996530E+03 -0.28925073399E+03  0.26806681386E+02  0.37907296282E+03  0.10566000000E+00 0.  1.
         13    1    4    4    0    0 -0.32266951028E+02 -0.38235507109E+03 -0.14194705460E+03  0.40912777221E+03  0.10566000000E+00 0. -1.
          4    1    3    3  501    0  0.54005708547E+03  0.37183128122E+03  0.24327060262E+03  0.69935737886E+03  0.00000000000E+00 0.  1.
         -4    1    4    4    0  502 -0.26425016915E+03  0.29977452386E+03  0.61068722585E+03  0.72981628158E+03  0.00000000000E+00 0. -1.
</event>
<event>
 8    1  0.7008488E-006  0.1043168E+04  0.7818608E-02  0.8742572E-01
         21   -1    0    0  503  502  0.00000000000E+00  0.00000000000E+00  0.10419829389E+04  0.10419829389E+04  0.00000000000E+00 0. -1.
         21   -1    0    0  501  503 -0.00000000000E+00 -0.00000000000E+00 -0.11975732212E+04  0.11975732212E+04  0.00000000000E+00 0. -1.
    9000010    2    1    2  501    0 -0.19611405837E+03  0.80449890332E+02 -0.51810921184E+03  0.11351921652E+04  0.98756832055E+03 0.  0.
   -9000010    2    1    2    0  502  0.19611405837E+03 -0.80449890332E+02  0.36251892952E+03  0.11043639949E+04  0.10214044009E+04 0.  0.
        -13    1    3    3    0    0  0.17577705010E+03  0.24979687136E+03  0.15898691991E+03  0.34434415945E+03  0.10566000000E+00 0.  1.
         13    1    4    4    0    0 -0.38496068361E+03  0.11326803331E+03  0.18168993448E+02  0.40168955523E+03  0.10566000000E+00 0. -1.
          4    1    3    3  501    0 -0.37189110848E+03 -0.16934698103E+03 -0.67709613175E+03  0.79084800574E+03  0.00000000000E+00 0.  1.
         -4    1    4    4    0  502  0.58107474198E+03 -0.19371792364E+03  0.34434993608E+03  0.70267443968E+03  0.00000000000E+00 0. -1.
</event>
<event>
 8    1  0.7008488E-006  0.1021681E+04  0.7818608E-02  0.8766213E-01
         21   -1    0    0  503  502  0.00000000000E+00  0.00000000000E+00  0.84274273458E+03  0.84274273458E+03  0.00000000000E+00 0.  1.
         21   -1    0    0  501  503 -0.00000000000E+00 -0.00000000000E+00 -0.11788506275E+04  0.11788506275E+04  0.00000000000E+00 0.  1.
    9000010    2    1    2  501    0 -0.60175563505E+02  0.27136969295E+03 -0.16835473275E+03  0.10354591849E+04  0.98314281710E+03 0.  0.
   -9000010    2    1    2    0  502  0.60175563505E+02 -0.27136969295E+03 -0.16775316018E+03  0.98613417721E+03  0.93115889300E+03 0.  0.
        -13    1    3    3    0    0  0.16970175476E+03 -0.31090767384E+03  0.78042251983E+02  0.36270218014E+03  0.10566000000E+00 0.  1.
         13    1    4    4    0    0  0.12722998268E+03 -0.48512902473E+02  0.37318881591E+03  0.39725416761E+03  0.10566000000E+00 0. -1.
          4    1    3    3  501    0 -0.22987731826E+03  0.58227736680E+03 -0.24639698473E+03  0.67275700473E+03  0.00000000000E+00 0.  1.
         -4    1    4    4    0  502 -0.67054419175E+02 -0.22285679048E+03 -0.54094197610E+03  0.58888000959E+03  0.00000000000E+00 0. -1.
</event>
<event>
 8    1  0.7008488E-006  0.1165001E+04  0.7818608E-02  0.8634383E-01
         21   -1    0    0  501  502  0.00000000000E+00  0.00000000000E+00  0.14354975591E+04  0.14354975591E+04  0.00000000000E+00 0. -1.
         21   -1    0    0  502  503 -0.00000000000E+00 -0.00000000000E+00 -0.13338098218E+04  0.13338098218E+04  0.00000000000E+00 0. -1.
   -9000010    2    1    2    0  503 -0.79147102062E+02  0.62028827527E+03 -0.70029841804E+03  0.13549491222E+04  0.97695825973E+03 0.  0.
    9000010    2    1    2  501    0  0.79147102062E+02 -0.62028827527E+03  0.80198615538E+03  0.14143582586E+04  0.98295761973E+03 0.  0.
        -13    1    4    4    0    0  0.16367334628E+03 -0.85521194987E+03  0.44261543236E+03  0.97677268369E+03  0.10566000000E+00 0.  1.
         13    1    3    3    0    0  0.28151251007E+03 -0.13251497277E+03 -0.10015969014E+03  0.32686615920E+03  0.10566000000E+00 0. -1.
          4    1    4    4  501    0 -0.84526244214E+02  0.23492367460E+03  0.35937072302E+03  0.43758557495E+03  0.00000000000E+00 0.  1.
         -4    1    3    3    0  503 -0.36065961213E+03  0.75280324805E+03 -0.60013872790E+03  0.10280829630E+04  0.00000000000E+00 0. -1.
</event>
<event>
 8    1  0.7008488E-006  0.1233108E+04  0.7818608E-02  0.8584021E-01
         21   -1    0    0  503  502  0.00000000000E+00  0.00000000000E+00  0.31911172477E+04  0.31911172477E+04  0.00000000000E+00 0.  1.
         21   -1    0    0  501  503 -0.00000000000E+00 -0.00000000000E+00 -0.48569977482E+03  0.48569977482E+03  0.00000000000E+00 0.  1.
    9000010    2    1    2  501    0  0.37984873273E+03 -0.60488381198E+03  0.16520203922E+04  0.20550279875E+04  0.99186650688E+03 0.  0.
   -9000010    2    1    2    0  502 -0.37984873273E+03  0.60488381198E+03  0.10533970807E+04  0.16217890350E+04  0.10051789785E+04 0.  0.
        -13    1    3    3    0    0  0.99040808058E+02 -0.27570083063E+03  0.15913764012E+04  0.16181158460E+04  0.10566000000E+00 0.  1.
         13    1    4    4    0    0 -0.64097337655E+03  0.10496757071E+03  0.41901758754E+03  0.77294295403E+03  0.10566000000E+00 0. -1.
          4    1    3    3  501    0  0.28080792467E+03 -0.32918298135E+03  0.60643991030E+02  0.43691214153E+03  0.00000000000E+00 0.  1.
         -4    1    4    4    0  502  0.26112464382E+03  0.49991624127E+03  0.63437949318E+03  0.84884608102E+03  0.00000000000E+00 0. -1.
</event>
<event>
 8    1  0.7008488E-006  0.1228873E+04  0.7818608E-02  0.8586887E-01
         21   -1    0    0  501  502  0.00000000000E+00  0.00000000000E+00  0.21238437328E+04  0.21238437328E+04  0.00000000000E+00 0. -1.
         21   -1    0    0  502  503 -0.00000000000E+00 -0.00000000000E+00 -0.70665431266E+03  0.70665431266E+03  0.00000000000E+00 0. -1.
   -9000010    2    1    2    0  503 -0.54559330423E+03 -0.45366342377E+03  0.76815678635E+03  0.14492045721E+04  0.10033177401E+04 0.  0.
    9000010    2    1    2  501    0  0.54559330423E+03  0.45366342377E+03  0.64903263377E+03  0.13812934734E+04  0.99158748691E+03 0.  0.
        -13    1    4    4    0    0  0.21472870735E+03  0.70055024091E+03  0.17621002440E+03  0.75361066981E+03  0.10566000000E+00 0.  1.
         13    1    3    3    0    0  0.76840987570E+02  0.11590862374E+03 -0.14844792340E+03  0.20341126703E+03  0.10566000000E+00 0. -1.
          4    1    4    4  501    0  0.33086459688E+03 -0.24688681714E+03  0.47282260937E+03  0.62768280356E+03  0.00000000000E+00 0.  1.
         -4    1    3    3    0  503 -0.62243429180E+03 -0.56957204751E+03  0.91660470975E+03  0.12457933050E+04  0.00000000000E+00 0. -1.
</event>
<event>
 8    1  0.7008488E-006  0.1097097E+04  0.7818608E-02  0.8693169E-01
         21   -1    0    0  503  502  0.00000000000E+00  0.00000000000E+00  0.20063025455E+04  0.20063025455E+04  0.00000000000E+00 0.  1.
         21   -1    0    0  501  503 -0.00000000000E+00 -0.00000000000E+00 -0.59783794596E+03  0.59783794596E+03  0.00000000000E+00 0.  1.
    9000010    2    1    2  501    0 -0.14446939226E+03 -0.39736204721E+03  0.86741857977E+03  0.13808852830E+04  0.98775562279E+03 0.  0.
   -9000010    2    1    2    0  502  0.14446939226E+03  0.39736204721E+03  0.54104601977E+03  0.12232552085E+04  0.10123509805E+04 0.  0.
        -13    1    3    3    0    0 -0.16979175618E+03 -0.45237556068E+03 -0.27450304899E+02  0.48396943992E+03  0.10566000000E+00 0.  1.
         13    1    4    4    0    0 -0.15252084483E+03  0.18679373962E+03 -0.25312746836E+03  0.34961126365E+03  0.10566000000E+00 0. -1.
          4    1    3    3  501    0  0.25322363919E+02  0.55013513474E+02  0.89486888467E+03  0.89691584306E+03  0.00000000000E+00 0.  1.
         -4    1    4    4    0  502  0.29699023709E+03  0.21056830759E+03  0.79417348813E+03  0.87364394483E+03  0.00000000000E+00 0. -1.
</event>
<event>
 8    1  0.7008488E-006  0.1133327E+04  0.7818608E-02  0.8663917E-01
         21   -1    0    0  501  502  0.00000000000E+00  0.00000000000E+00  0.96802172374E+03  0.96802172374E+03  0.00000000000E+00 0. -1.
         21   -1    0    0  502  503 -0.00000000000E+00 -0.00000000000E+00 -0.13002257386E+04  0.13002257386E+04  0.00000000000E+00 0. -1.
   -9000010    2    1    2    0  503  0.37018546969E+03 -0.30528335859E+03 -0.22731815182E+03  0.11300773615E+04  0.99758011701E+03 0.  0.
    9000010    2    1    2  501    0 -0.37018546969E+03  0.30528335859E+03 -0.10488586299E+03  0.11381701008E+04  0.10267399491E+04 0.  0.
        -13    1    4    4    0    0  0.25726614000E+03  0.22765808188E+03 -0.32085445116E+03  0.47006559014E+03  0.10566000000E+00 0.  1.
         13    1    3    3    0    0 -0.19327693630E+03  0.23918831630E+03 -0.15168517517E+03  0.34289273584E+03  0.10566000000E+00 0. -1.
          4    1    4    4  501    0 -0.62745160969E+03  0.77625276708E+02  0.21596858816E+03  0.66810451066E+03  0.00000000000E+00 0.  1.
         -4    1    3    3    0  503  0.56346240599E+03 -0.54447167490E+03 -0.75632976658E+02  0.78718462567E+03  0.00000000000E+00 0. -1.
</event>
<event>
 8    1  0.7008488E-006  0.1651160E+04  0.7818608E-02  0.8330756E-01
         21   -1    0    0  501  502  0.00000000000E+00  0.00000000000E+00  0.19798063246E+04  0.19798063246E+04  0.00000000000E+00 0.  1.
         21   -1    0    0  502  503 -0.00000000000E+00 -0.00000000000E+00 -0.13571168268E+04  0.13571168268E+04  0.00000000000E+00 0. -1.
   -9000010    2    1    2    0  503 -0.11523020504E+04  0.55343554248E+03  0.25699169344E+03  0.16457503359E+04  0.10041705644E+04 0.  0.
    9000010    2    1    2  501    0  0.11523020504E+04 -0.55343554248E+03  0.36569780438E+03  0.16911728155E+04  0.10451027187E+04 0.  0.
        -13    1    4    4    0    0  0.23865064237E+02 -0.47818514286E+03 -0.60500775404E+02  0.48258774035E+03  0.10566000000E+00 0.  1.
         13    1    3    3    0    0 -0.88740785316E+03 -0.43631849195E+02  0.40431882856E+03  0.97615068632E+03  0.10566000000E+00 0. -1.
          4    1    4    4  501    0  0.11284369862E+04 -0.75250399622E+02  0.42619857979E+03  0.12085850751E+04  0.00000000000E+00 0.  1.
         -4    1    3    3    0  503 -0.26489419725E+03  0.59706739168E+03 -0.14732713511E+03  0.66959964955E+03  0.00000000000E+00 0. -1.
</event>
<event>
 8    1  0.7008488E-006  0.1051618E+04  0.7818608E-02  0.8730502E-01
         21   -1    0    0  501  502  0.00000000000E+00  0.00000000000E+00  0.10726571361E+04  0.10726571361E+04  0.00000000000E+00 0. -1.
         21   -1    0    0  502  503 -0.00000000000E+00 -0.00000000000E+00 -0.11251895341E+04  0.11251895341E+04  0.00000000000E+00 0. -1.
   -9000010    2    1    2    0  503  0.29007936300E+03  0.18261648799E+03  0.31303498431E+03  0.10845005829E+04  0.98013049861E+03 0.  0.
    9000010    2    1    2  501    0 -0.29007936300E+03 -0.18261648799E+03 -0.36556738240E+03  0.11133460873E+04  0.99418568719E+03 0.  0.
        -13    1    4    4    0    0 -0.11093420214E+03  0.38304164728E+03 -0.33226520681E+03  0.51906404189E+03  0.10566000000E+00 0.  1.
         13    1    3    3    0    0  0.52785980106E+03  0.24993094805E+03 -0.11025277081E+03  0.59435438335E+03  0.10566000000E+00 0. -1.
          4    1    4    4  501    0 -0.17914516086E+03 -0.56565813527E+03 -0.33302175583E+02  0.59428204546E+03  0.00000000000E+00 0.  1.
         -4    1    3    3    0  503 -0.23778043807E+03 -0.67314460062E+02  0.42328775512E+03  0.49014619951E+03  0.00000000000E+00 0. -1.
</event>
<event>
 8    1  0.7008488E-006  0.1050386E+04  0.7818608E-02  0.8731193E-01
         21   -1    0    0  503  502  0.00000000000E+00  0.00000000000E+00  0.11685262239E+04  0.11685262239E+04  0.00000000000E+00 0. -1.
         21   -1    0    0  501  503 -0.00000000000E+00 -0.00000000000E+00 -0.93446474174E+03  0.93446474174E+03  0.00000000000E+00 0. -1.
    9000010    2    1    2  501    0 -0.29488665103E+03  0.62932212114E+02  0.14348526885E+03  0.10601405773E+04  0.10061766351E+04 0.  0.
   -9000010    2    1    2    0  502  0.29488665103E+03 -0.62932212114E+02  0.90576213302E+02  0.10428503883E+04  0.99419026435E+03 0.  0.
        -13    1    3    3    0    0 -0.54335660809E+03  0.12402674779E+03  0.40907556433E+03  0.69134786195E+03  0.10566000000E+00 0.  1.
         13    1    4    4    0    0  0.16251747203E+03  0.24208037042E+02 -0.45024413339E+03  0.47928879456E+03  0.10566000000E+00 0. -1.
          4    1    3    3  501    0  0.24846995707E+03 -0.61094535672E+02 -0.26559029548E+03  0.36879271536E+03  0.00000000000E+00 0.  1.
         -4    1    4    4    0  502  0.13236917900E+03 -0.87140249156E+02  0.54082034669E+03  0.56356159377E+03  0.00000000000E+00 0. -1.
</event>
<event>
 8    1  0.7008488E-006  0.1234381E+04  0.7818608E-02  0.8583766E-01
         21   -1    0    0  503  502  0.00000000000E+00  0.00000000000E+00  0.12988946144E+04  0.12988946144E+04  0.00000000000E+00 0.  1.
         21   -1    0    0  501  503 -0.00000000000E+00 -0.00000000000E+00 -0.11593776146E+04  0.11593776146E+04  0.00000000000E+00 0.  1.
    9000010    2    1    2  501    0 -0.93595669939E+02 -0.71439163468E+03  0.63017854030E+02  0.12359886469E+04  0.10022879468E+04 0.  0.
   -9000010    2    1    2    0  502  0.93595669939E+02  0.71439163468E+03  0.76499145769E+02  0.12222835820E+04  0.98438279063E+03 0.  0.
        -13    1    3    3    0    0  0.13269594813E+03 -0.90162194730E+03 -0.69069560781E+02  0.91394801050E+03  0.10566000000E+00 0.  1.
         13    1    4    4    0    0  0.20789104610E+03  0.20971785991E+03  0.48173267145E+03  0.56503685341E+03  0.10566000000E+00 0. -1.
          4    1    3    3  501    0 -0.22629161807E+03  0.18723031262E+03  0.13208741481E+03  0.32204063645E+03  0.00000000000E+00 0.  1.
         -4    1    4    4    0  502 -0.11429537616E+03  0.50467377477E+03 -0.40523352568E+03  0.65724672862E+03  0.00000000000E+00 0. -1.
</event>
<event>
 8    1  0.7008488E-006  0.1068510E+04  0.7818608E-02  0.8712892E-01
         21   -1    0    0  503  502  0.00000000000E+00  0.00000000000E+00  0.10527695142E+04  0.10527695142E+04  0.00000000000E+00 0.  1.
         21   -1    0    0  501  503 -0.00000000000E+00 -0.00000000000E+00 -0.10838513232E+04  0.10838513232E+04  0.00000000000E+00 0.  1.
    9000010    2    1    2  501    0  0.36510685270E+03  0.82548941926E+02 -0.12458396504E+02  0.10685828624E+04  0.10007980717E+04 0.  0.
   -9000010    2    1    2    0  502 -0.36510685270E+03 -0.82548941926E+02 -0.18623412466E+02  0.10680379751E+04  0.10001204643E+04 0.  0.
        -13    1    3    3    0    0  0.95739730168E+02  0.52086220190E+03  0.10732667337E+03  0.54035410175E+03  0.10566000000E+00 0.  1.
         13    1    4    4    0    0 -0.19070694787E+03 -0.52414487278E+03 -0.14582259738E+03  0.57650778720E+03  0.10566000000E+00 0. -1.
          4    1    3    3  501    0  0.26936712253E+03 -0.43831325997E+03 -0.11978506988E+03  0.52822876061E+03  0.00000000000E+00 0.  1.
         -4    1    4    4    0  502 -0.17439990483E+03  0.44159593086E+03  0.12719918491E+03  0.49153018788E+03  0.00000000000E+00 0. -1.
</event>
<event>
 8    1  0.7008488E-006  0.1131428E+04  0.7818608E-02  0.8678865E-01
         21   -1    0    0  501  502  0.00000000000E+00  0.00000000000E+00  0.10066043515E+04  0.10066043515E+04  0.00000000000E+00 0.  1.
         21   -1    0    0  502  503 -0.00000000000E+00 -0.00000000000E+00 -0.11783401992E+04  0.11783401992E+04  0.00000000000E+00 0.  1.
   -9000010    2    1    2    0  503  0.50103339486E+03  0.18022089797E+03 -0.20174312932E+02  0.11316080075E+04  0.99830638824E+03 0.  0.
    9000010    2    1    2  501    0 -0.50103339486E+03 -0.18022089797E+03 -0.15156153476E+03  0.10533365433E+04  0.89612105199E+03 0.  0.
        -13    1    4    4    0    0 -0.32000008042E+03 -0.21774197973E+03  0.34810333858E+03  0.52056466140E+03  0.10566000000E+00 0.  1.
         13    1    3    3    0    0 -0.16428600898E+03 -0.15397208857E+03 -0.26510470505E+03  0.34781864903E+03  0.10566000000E+00 0. -1.
          4    1    4    4  501    0 -0.18103331445E+03  0.37521081758E+02 -0.49966487334E+03  0.53277188192E+03  0.00000000000E+00 0.  1.
         -4    1    3    3    0  503  0.66531940385E+03  0.33419298655E+03  0.24493039212E+03  0.78378935842E+03  0.00000000000E+00 0. -1.
</event>
<event>
 8    1  0.7008488E-006  0.1037562E+04  0.7818608E-02  0.8740431E-01
         21   -1    0    0  503  502  0.00000000000E+00  0.00000000000E+00  0.11999742661E+04  0.11999742661E+04  0.00000000000E+00 0.  1.
         21   -1    0    0  501  503 -0.00000000000E+00 -0.00000000000E+00 -0.89640313996E+03  0.89640313996E+03  0.00000000000E+00 0.  1.
    9000010    2    1    2  501    0 -0.28252786935E+03  0.85100398742E+02  0.17967457870E+03  0.10530041429E+04  0.99472141618E+03 0.  0.
   -9000010    2    1    2    0  502  0.28252786935E+03 -0.85100398742E+02  0.12389654745E+03  0.10433732632E+04  0.99308274434E+03 0.  0.
        -13    1    3    3    0    0  0.30560874572E+03  0.20352276593E+03  0.25688432687E+03  0.44811582238E+03  0.10566000000E+00 0.  1.
         13    1    4    4    0    0  0.53856150788E+02 -0.53104926637E+03  0.40336689507E+02  0.53529512232E+03  0.10566000000E+00 0. -1.
          4    1    3    3  501    0 -0.58813661507E+03 -0.11842236719E+03 -0.77209748168E+02  0.60488832047E+03  0.00000000000E+00 0.  1.
         -4    1    4    4    0  502  0.22867171856E+03  0.44594886763E+03  0.83559857940E+02  0.50807814091E+03  0.00000000000E+00 0. -1.
</event>
<event>
 8    1  0.7008488E-006  0.1127883E+04  0.7818608E-02  0.8663834E-01
         21   -1    0    0  501  502  0.00000000000E+00  0.00000000000E+00  0.23943633058E+04  0.23943633058E+04  0.00000000000E+00 0.  1.
         21   -1    0    0  502  503 -0.00000000000E+00 -0.00000000000E+00 -0.52946262829E+03  0.52946262829E+03  0.00000000000E+00 0.  1.
   -9000010    2    1    2    0  503 -0.33106693423E+03  0.44015439105E+03  0.96114634837E+03  0.14785257795E+04  0.97923182891E+03 0.  0.
    9000010    2    1    2  501    0  0.33106693423E+03 -0.44015439105E+03  0.90375432919E+03  0.14453001546E+04  0.98426594301E+03 0.  0.
        -13    1    4    4    0    0 -0.26603218247E+03 -0.16662063433E+02 -0.19248782001E+02  0.26724758791E+03  0.10566000000E+00 0.  1.
         13    1    3    3    0    0 -0.62654165182E+03  0.48746648620E+03  0.83981676093E+03  0.11556254669E+04  0.10566000000E+00 0. -1.
          4    1    4    4  501    0  0.59709911670E+03 -0.42349232762E+03  0.92300311119E+03  0.11780525667E+04  0.00000000000E+00 0.  1.
         -4    1    3    3    0  503  0.29547471760E+03 -0.47312095153E+02  0.12132958745E+03  0.32290031260E+03  0.00000000000E+00 0. -1.
</event>
<event>
 8    1  0.7008488E-006  0.1101579E+04  0.7818608E-02  0.8686260E-01
         21   -1    0    0  501  502  0.00000000000E+00  0.00000000000E+00  0.17019210607E+04  0.17019210607E+04  0.00000000000E+00 0. -1.
         21   -1    0    0  502  503 -0.00000000000E+00 -0.00000000000E+00 -0.70860294260E+03  0.70860294260E+03  0.00000000000E+00 0. -1.
   -9000010    2    1    2    0  503  0.34358058111E+03  0.29229051041E+03  0.53261890882E+03  0.12164891584E+04  0.99633408664E+03 0.  0.
    9000010    2    1    2  501    0 -0.34358058111E+03 -0.29229051041E+03  0.46069920927E+03  0.11940348449E+04  0.10049846224E+04 0.  0.
        -13    1    4    4    0    0  0.28287355092E+03  0.34832123003E+01 -0.10283660827E+03  0.30100657425E+03  0.10566000000E+00 0.  1.
         13    1    3    3    0    0  0.23505886765E+03  0.65372786612E+03  0.45719224729E+03  0.83164749525E+03  0.10566000000E+00 0. -1.
          4    1    4    4  501    0 -0.62645413203E+03 -0.29577372271E+03  0.56353581754E+03  0.89302827068E+03  0.00000000000E+00 0.  1.
         -4    1    3    3    0  503  0.10852171346E+03 -0.36143735572E+03  0.75426661523E+02  0.38484166311E+03  0.00000000000E+00 0. -1.
</event>
<event>
 8    1  0.7008488E-006  0.1122077E+04  0.7818608E-02  0.8718833E-01
         21   -1    0    0  501  502  0.00000000000E+00  0.00000000000E+00  0.12044492188E+04  0.12044492188E+04  0.00000000000E+00 0. -1.
         21   -1    0    0  502  503 -0.00000000000E+00 -0.00000000000E+00 -0.94345811324E+03  0.94345811324E+03  0.00000000000E+00 0. -1.
   -9000010    2    1    2    0  503  0.21235027066E+03  0.46321593647E+03  0.48376126219E+03  0.12219175566E+04  0.99969791185E+03 0.  0.
    9000010    2    1    2  501    0 -0.21235027066E+03 -0.46321593647E+03 -0.22277015661E+03  0.92598977551E+03  0.74038427888E+03 0.  0.
        -13    1    4    4    0    0 -0.26257500851E+03  0.11778704495E+03  0.32079121304E+02  0.28956606196E+03  0.10566000000E+00 0.  1.
         13    1    3    3    0    0 -0.46103242691E+02  0.19985241449E+03 -0.29550203088E+03  0.35970537664E+03  0.10566000000E+00 0. -1.
          4    1    4    4  501    0  0.50224737847E+02 -0.58100298142E+03 -0.25484927792E+03  0.63642371355E+03  0.00000000000E+00 0.  1.
         -4    1    3    3    0  503  0.25845351336E+03  0.26336352198E+03  0.77926329307E+03  0.86221217992E+03  0.00000000000E+00 0. -1.
</event>
<event>
 8    1  0.7008488E-006  0.1267660E+04  0.7818608E-02  0.8559744E-01
         21   -1    0    0  503  502  0.00000000000E+00  0.00000000000E+00  0.95957877563E+03  0.95957877563E+03  0.00000000000E+00 0.  1.
         21   -1    0    0  501  503 -0.00000000000E+00 -0.00000000000E+00 -0.17319788565E+04  0.17319788565E+04  0.00000000000E+00 0.  1.
    9000010    2    1    2  501    0  0.11120927323E+03 -0.74472387176E+03 -0.66537620234E+03  0.14193874088E+04  0.10024739288E+04 0.  0.
   -9000010    2    1    2    0  502 -0.11120927323E+03  0.74472387176E+03 -0.10702387857E+03  0.12721702234E+04  0.10197949887E+04 0.  0.
        -13    1    3    3    0    0  0.18405892680E+02 -0.51632151778E+03 -0.92615891375E+03  0.10605173413E+04  0.10566000000E+00 0.  1.
         13    1    4    4    0    0  0.76174279636E+02 -0.12725523626E+03 -0.32219904080E+03  0.35469514952E+03  0.10566000000E+00 0. -1.
          4    1    3    3  501    0  0.92803380552E+02 -0.22840235398E+03  0.26078271141E+03  0.35887006746E+03  0.00000000000E+00 0.  1.
         -4    1    4    4    0  502 -0.18738355287E+03  0.87197910802E+03  0.21517516223E+03  0.91747507386E+03  0.00000000000E+00 0. -1.
</event>
<event>
 8    1  0.7008488E-006  0.1134625E+04  0.7818608E-02  0.8675602E-01
         21   -1    0    0  503  502  0.00000000000E+00  0.00000000000E+00  0.89293509257E+03  0.89293509257E+03  0.00000000000E+00 0.  1.
         21   -1    0    0  501  503 -0.00000000000E+00 -0.00000000000E+00 -0.14396266089E+04  0.14396266089E+04  0.00000000000E+00 0.  1.
    9000010    2    1    2  501    0  0.18473506595E+02 -0.32625044359E+03 -0.57869009351E+03  0.11974853635E+04  0.99614675072E+03 0.  0.
   -9000010    2    1    2    0  502 -0.18473506595E+02  0.32625044359E+03  0.31998577228E+02  0.11350763380E+04  0.10865513157E+04 0.  0.
        -13    1    3    3    0    0 -0.18051147152E+03 -0.61976052171E+03 -0.53845399485E+03  0.84060704931E+03  0.10566000000E+00 0.  1.
         13    1    4    4    0    0 -0.27985455565E+03 -0.24643415674E+03 -0.24619390370E+03  0.44683309558E+03  0.10566000000E+00 0. -1.
          4    1    3    3  501    0  0.19898497811E+03  0.29351007812E+03 -0.40236098656E+02  0.35687831414E+03  0.00000000000E+00 0.  1.
         -4    1    4    4    0  502  0.26138104905E+03  0.57268460033E+03  0.27819248093E+03  0.68824324239E+03  0.00000000000E+00 0. -1.
</event>
<event>
 8    1  0.7008488E-006  0.1218645E+04  0.7818608E-02  0.8596552E-01
         21   -1    0    0  501  502  0.00000000000E+00  0.00000000000E+00  0.88083047383E+03  0.88083047383E+03  0.00000000000E+00 0. -1.
         21   -1    0    0  502  503 -0.00000000000E+00 -0.00000000000E+00 -0.17534656339E+04  0.17534656339E+04  0.00000000000E+00 0.  1.
   -9000010    2    1    2    0  503  0.29784865728E+03 -0.61252358488E+03 -0.74133950318E+03  0.14085987424E+04  0.98522443809E+03 0.  0.
    9000010    2    1    2  501    0 -0.29784865728E+03  0.61252358488E+03 -0.13129565687E+03  0.12256973653E+04  0.10105426845E+04 0.  0.
        -13    1    4    4    0    0 -0.34790026521E+03  0.87920289634E+03 -0.74357959900E+02  0.94845213101E+03  0.10566000000E+00 0.  1.
         13    1    3    3    0    0  0.29176642056E+02 -0.14219111975E+03  0.24416155580E+03  0.28405011437E+03  0.10566000000E+00 0. -1.
          4    1    4    4  501    0  0.50051607925E+02 -0.26667931145E+03 -0.56937696973E+02  0.27724523431E+03  0.00000000000E+00 0.  1.
         -4    1    3    3    0  503  0.26867201523E+03 -0.47033246513E+03 -0.98550105898E+03  0.11245486280E+04  0.00000000000E+00 0. -1.
</event>
<event>
 8    1  0.7008488E-006  0.1102856E+04  0.7818608E-02  0.8688891E-01
         21   -1    0    0  503  502  0.00000000000E+00  0.00000000000E+00  0.11228438226E+04  0.11228438226E+04  0.00000000000E+00 0.  1.
         21   -1    0    0  501  503 -0.00000000000E+00 -0.00000000000E+00 -0.10596684757E+04  0.10596684757E+04  0.00000000000E+00 0.  1.
    9000010    2    1    2  501    0  0.33944008414E+03  0.21418580625E+03  0.68533128150E+02  0.11049835797E+04  0.10272277213E+04 0.  0.
   -9000010    2    1    2    0  502 -0.33944008414E+03 -0.21418580625E+03 -0.53577812212E+01  0.10775287186E+04  0.99997215123E+03 0.  0.
        -13    1    3    3    0    0 -0.31855485635E+03 -0.73663533824E+01 -0.18190075902E+03  0.36690510621E+03  0.10566000000E+00 0.  1.
         13    1    4    4    0    0 -0.59373957346E+03 -0.35371278118E+03  0.20308943136E+03  0.72033654701E+03  0.10566000000E+00 0. -1.
          4    1    3    3  501    0  0.65799494049E+03  0.22155215963E+03  0.25043388717E+03  0.73807847347E+03  0.00000000000E+00 0.  1.
         -4    1    4    4    0  502  0.25429948932E+03  0.13952697493E+03 -0.20844721258E+03  0.35719217157E+03  0.00000000000E+00 0. -1.
</event>
<event>
 8    1  0.7008488E-006  0.1100009E+04  0.7818608E-02  0.8686418E-01
         21   -1    0    0  501  502  0.00000000000E+00  0.00000000000E+00  0.10283105501E+04  0.10283105501E+04  0.00000000000E+00 0. -1.
         21   -1    0    0  502  503 -0.00000000000E+00 -0.00000000000E+00 -0.11888828864E+04  0.11888828864E+04  0.00000000000E+00 0. -1.
   -9000010    2    1    2    0  503 -0.40766195586E+03  0.20169378445E+03 -0.20355685930E+03  0.11163448255E+04  0.99896032024E+03 0.  0.
    9000010    2    1    2  501    0  0.40766195586E+03 -0.20169378445E+03  0.42984522928E+02  0.11008486111E+04  0.10015744317E+04 0.  0.
        -13    1    4    4    0    0  0.65090880346E+03 -0.23638316082E+03  0.29151921953E+03  0.75136058964E+03  0.10566000000E+00 0.  1.
         13    1    3    3    0    0 -0.26837491207E+02  0.56360901167E+03 -0.17264732638E+03  0.59006989369E+03  0.10566000000E+00 0. -1.
          4    1    4    4  501    0 -0.24324684760E+03  0.34689376372E+02 -0.24853469660E+03  0.34948802142E+03  0.00000000000E+00 0.  1.
         -4    1    3    3    0  503 -0.38082446465E+03 -0.36191522722E+03 -0.30909532922E+02  0.52627493176E+03  0.00000000000E+00 0. -1.
</event>
<event>
 8    1  0.7008488E-006  0.1065181E+04  0.7818608E-02  0.8730900E-01
         21   -1    0    0  501  502  0.00000000000E+00  0.00000000000E+00  0.67477693231E+03  0.67477693231E+03  0.00000000000E+00 0.  1.
         21   -1    0    0  502  503 -0.00000000000E+00 -0.00000000000E+00 -0.15852023619E+04  0.15852023619E+04  0.00000000000E+00 0.  1.
   -9000010    2    1    2    0  503 -0.30511108928E+03 -0.61993311822E+01 -0.52511431160E+03  0.11272498613E+04  0.94963993234E+03 0.  0.
    9000010    2    1    2  501    0  0.30511108928E+03  0.61993311822E+01 -0.38531111797E+03  0.11327294329E+04  0.10205293244E+04 0.  0.
        -13    1    4    4    0    0 -0.76979573770E+02  0.99080218681E+02 -0.64787206704E+03  0.65990982030E+03  0.10566000000E+00 0.  1.
         13    1    3    3    0    0  0.17056238040E+03  0.83038559844E+02  0.18691230348E+03  0.26631400336E+03  0.10566000000E+00 0. -1.
          4    1    4    4  501    0  0.38209066305E+03 -0.92880887499E+02  0.26256094907E+03  0.47281961257E+03  0.00000000000E+00 0.  1.
         -4    1    3    3    0  503 -0.47567346968E+03 -0.89237891026E+02 -0.71202661508E+03  0.86093585796E+03  0.00000000000E+00 0. -1.
</event>
<event>
 8    1  0.7008488E-006  0.1162375E+04  0.7818608E-02  0.8639137E-01
         21   -1    0    0  503  502  0.00000000000E+00  0.00000000000E+00  0.13647345976E+04  0.13647345976E+04  0.00000000000E+00 0. -1.
         21   -1    0    0  501  503 -0.00000000000E+00 -0.00000000000E+00 -0.10470025672E+04  0.10470025672E+04  0.00000000000E+00 0. -1.
    9000010    2    1    2  501    0  0.50762835804E+03  0.27273018939E+03 -0.15800122338E+03  0.11730643271E+04  0.10094786886E+04 0.  0.
   -9000010    2    1    2    0  502 -0.50762835804E+03 -0.27273018939E+03  0.47573325376E+03  0.12386728377E+04  0.98788661494E+03 0.  0.
        -13    1    3    3    0    0  0.62419985626E+03  0.11268592556E+03 -0.47974025636E+03  0.79528253037E+03  0.10566000000E+00 0.  1.
         13    1    4    4    0    0 -0.57001742781E+03  0.21460748767E+03  0.42930204117E+03  0.74516876980E+03  0.10566000000E+00 0. -1.
          4    1    3    3  501    0 -0.11657149821E+03  0.16004426382E+03  0.32173903298E+03  0.37778179670E+03  0.00000000000E+00 0.  1.
         -4    1    4    4    0  502  0.62389069769E+02 -0.48733767706E+03  0.46431212590E+02  0.49350406788E+03  0.00000000000E+00 0. -1.
</event>
<event>
 8    1  0.7008488E-006  0.1607695E+04  0.7818608E-02  0.8350897E-01
         21   -1    0    0  503  502  0.00000000000E+00  0.00000000000E+00  0.17545150410E+04  0.17545150410E+04  0.00000000000E+00 0. -1.
         21   -1    0    0  501  503 -0.00000000000E+00 -0.00000000000E+00 -0.14873736378E+04  0.14873736378E+04  0.00000000000E+00 0.  1.
    9000010    2    1    2  501    0 -0.42850517680E+03  0.11796966556E+04 -0.53432088227E+02  0.16085831241E+04  0.10046809411E+04 0.  0.
   -9000010    2    1    2    0  502  0.42850517680E+03 -0.11796966556E+04  0.32057349141E+03  0.16333055547E+04  0.99479585136E+03 0.  0.
        -13    1    3    3    0    0 -0.18802096202E+03  0.12420948126E+04 -0.26308555907E+03  0.12834973425E+04  0.10566000000E+00 0.  1.
         13    1    4    4    0    0  0.56129755749E+03 -0.78169112757E+03  0.59549446514E+03  0.11316844243E+04  0.10566000000E+00 0. -1.
          4    1    3    3  501    0 -0.24048421478E+03 -0.62398157061E+02  0.20965347084E+03  0.32508578160E+03  0.00000000000E+00 0.  1.
         -4    1    4    4    0  502 -0.13279238069E+03 -0.39800552798E+03 -0.27492097373E+03  0.50162113041E+03  0.00000000000E+00 0. -1.
</event>
<event>
 8    1  0.7008488E-006  0.1137749E+04  0.7818608E-02  0.8656361E-01
         21   -1    0    0  501  502  0.00000000000E+00  0.00000000000E+00  0.13392263717E+04  0.13392263717E+04  0.00000000000E+00 0.  1.
         21   -1    0    0  502  503 -0.00000000000E+00 -0.00000000000E+00 -0.96764842278E+03  0.96764842278E+03  0.00000000000E+00 0.  1.
   -9000010    2    1    2    0  503  0.53629486864E+03  0.61231132788E+01  0.88896668962E+02  0.11412162205E+04  0.10034052848E+04 0.  0.
    9000010    2    1    2  501    0 -0.53629486864E+03 -0.61231132788E+01  0.28268127996E+03  0.11656585740E+04  0.99559104380E+03 0.  0.
        -13    1    4    4    0    0 -0.80336969453E+03  0.43863516344E+02  0.46940213735E+02  0.80593440737E+03  0.10566000000E+00 0.  1.
         13    1    3    3    0    0  0.12653630105E+03  0.31199729204E+02  0.52579577830E+03  0.54170662745E+03  0.10566000000E+00 0. -1.
          4    1    4    4  501    0  0.26707482589E+03 -0.49986629622E+02  0.23574106623E+03  0.35972416665E+03  0.00000000000E+00 0.  1.
         -4    1    3    3    0  503  0.40975856759E+03 -0.25076615926E+02 -0.43689910934E+03  0.59950959302E+03  0.00000000000E+00 0. -1.
</event>
<event>
 8    1  0.7008488E-006  0.1149735E+04  0.7818608E-02  0.8653039E-01
         21   -1    0    0  503  502  0.00000000000E+00  0.00000000000E+00  0.64503835890E+03  0.64503835890E+03  0.00000000000E+00 0.  1.
         21   -1    0    0  501  503 -0.00000000000E+00 -0.00000000000E+00 -0.19844911887E+04  0.19844911887E+04  0.00000000000E+00 0.  1.
    9000010    2    1    2  501    0  0.30200852376E+03  0.38401272082E+03 -0.61643016464E+03  0.12713499936E+04  0.99883419054E+03 0.  0.
   -9000010    2    1    2    0  502 -0.30200852376E+03 -0.38401272082E+03 -0.72302266518E+03  0.13581795540E+04  0.10407761567E+04 0.  0.
        -13    1    3    3    0    0 -0.10215143376E+03  0.28827943096E+03  0.19295026214E+03  0.36162101786E+03  0.10566000000E+00 0.  1.
         13    1    4    4    0    0 -0.65512159968E+03 -0.18403274676E+03 -0.22708217545E+03  0.71736928274E+03  0.10566000000E+00 0. -1.
          4    1    3    3  501    0  0.40415995752E+03  0.95733289856E+02 -0.80938042678E+03  0.90972897575E+03  0.00000000000E+00 0.  1.
         -4    1    4    4    0  502  0.35311307593E+03 -0.19997997406E+03 -0.49594048973E+03  0.64081027127E+03  0.00000000000E+00 0. -1.
</event>
<event>
 8    1  0.7008488E-006  0.1028315E+04  0.7818608E-02  0.8753691E-01
         21   -1    0    0  501  502  0.00000000000E+00  0.00000000000E+00  0.90112814216E+03  0.90112814216E+03  0.00000000000E+00 0.  1.
         21   -1    0    0  502  503 -0.00000000000E+00 -0.00000000000E+00 -0.11482649107E+04  0.11482649107E+04  0.00000000000E+00 0.  1.
   -9000010    2    1    2    0  503 -0.20833443617E+03  0.47809160944E+02 -0.14886077513E+03  0.10163923579E+04  0.98244844221E+03 0.  0.
    9000010    2    1    2  501    0  0.20833443617E+03 -0.47809160944E+02 -0.98275993444E+02  0.10330006950E+04  0.10058545182E+04 0.  0.
        -13    1    4    4    0    0  0.47067933791E+03 -0.18819343082E+03  0.25802489909E+03  0.56879931985E+03  0.10566000000E+00 0.  1.
         13    1    3    3    0    0 -0.49878219260E+03 -0.41593577775E+02  0.21291299033E+03  0.54391695504E+03  0.10566000000E+00 0. -1.
          4    1    4    4  501    0 -0.26234490174E+03  0.14038426988E+03 -0.35630089253E+03  0.46420137518E+03  0.00000000000E+00 0.  1.
         -4    1    3    3    0  503  0.29044775642E+03  0.89402738719E+02 -0.36177376546E+03  0.47247540283E+03  0.00000000000E+00 0. -1.
</event>
<event>
 8    1  0.7008488E-006  0.1395316E+04  0.7818608E-02  0.8473688E-01
         21   -1    0    0  501  502  0.00000000000E+00  0.00000000000E+00  0.15389567048E+04  0.15389567048E+04  0.00000000000E+00 0. -1.
         21   -1    0    0  502  503 -0.00000000000E+00 -0.00000000000E+00 -0.13970952933E+04  0.13970952933E+04  0.00000000000E+00 0. -1.
   -9000010    2    1    2    0  503  0.94365857950E+03 -0.19571842451E+03  0.53472409952E+03  0.14942680958E+04  0.10090144019E+04 0.  0.
    9000010    2    1    2  501    0 -0.94365857950E+03  0.19571842451E+03 -0.39286268801E+03  0.14417839023E+04  0.99779883394E+03 0.  0.
        -13    1    4    4    0    0 -0.20814267820E+03 -0.35633967893E+03 -0.31439949120E+03  0.51879513538E+03  0.10566000000E+00 0.  1.
         13    1    3    3    0    0  0.88385901162E+03 -0.32959301730E+03  0.76957228130E+03  0.12174070054E+04  0.10566000000E+00 0. -1.
          4    1    4    4  501    0 -0.73551590131E+03  0.55205810344E+03 -0.78463196811E+02  0.92298876694E+03  0.00000000000E+00 0.  1.
         -4    1    3    3    0  503  0.59799567885E+02  0.13387459278E+03 -0.23484818178E+03  0.27686109044E+03  0.00000000000E+00 0. -1.
</event>
<event>
 8    1  0.7008488E-006  0.1473398E+04  0.7818608E-02  0.8427664E-01
         21   -1    0    0  503  502  0.00000000000E+00  0.00000000000E+00  0.23188520431E+04  0.23188520431E+04  0.00000000000E+00 0. -1.
         21   -1    0    0  501  503 -0.00000000000E+00 -0.00000000000E+00 -0.93210290450E+03  0.93210290450E+03  0.00000000000E+00 0.  1.
    9000010    2    1    2  501    0  0.61916199435E+03 -0.89251190172E+03  0.55266746778E+03  0.15736397988E+04  0.99547065077E+03 0.  0.
   -9000010    2    1    2    0  502 -0.61916199435E+03  0.89251190172E+03  0.83408167085E+03  0.16773151488E+04  0.96837740827E+03 0.  0.
        -13    1    3    3    0    0  0.31340520393E+03 -0.45141701116E+03 -0.25346912162E+03  0.60518323390E+03  0.10566000000E+00 0.  1.
         13    1    4    4    0    0 -0.13025349751E+03  0.94070494115E+03  0.65832457283E+03  0.11555444666E+04  0.10566000000E+00 0. -1.
          4    1    3    3  501    0  0.30575679042E+03 -0.44109489056E+03  0.80613658941E+03  0.96845656492E+03  0.00000000000E+00 0.  1.
         -4    1    4    4    0  502 -0.48890849684E+03 -0.48193039428E+02  0.17575709803E+03  0.52177068223E+03  0.00000000000E+00 0. -1.
</event>
<event>
 8    1  0.7008488E-006  0.1203416E+04  0.7818608E-02  0.8608802E-01
         21   -1    0    0  503  502  0.00000000000E+00  0.00000000000E+00  0.10221164868E+04  0.10221164868E+04  0.00000000000E+00 0. -1.
         21   -1    0    0  501  503 -0.00000000000E+00 -0.00000000000E+00 -0.15541002052E+04  0.15541002052E+04  0.00000000000E+00 0. -1.
    9000010    2    1    2  501    0  0.68412163058E+03 -0.41132738943E+02 -0.68557545739E+03  0.13630391554E+04  0.95820025247E+03 0.  0.
   -9000010    2    1    2    0  502 -0.68412163058E+03  0.41132738943E+02  0.15359173899E+03  0.12131775365E+04  0.98918906446E+03 0.  0.
        -13    1    3    3    0    0  0.46890581244E+03 -0.48444628985E+03 -0.48718263327E+03  0.83180995306E+03  0.10566000000E+00 0.  1.
         13    1    4    4    0    0  0.15994407951E+03 -0.93656245109E+02  0.29341826953E+03  0.34705603709E+03  0.10566000000E+00 0. -1.
          4    1    3    3  501    0  0.21521581814E+03  0.44331355091E+03 -0.19839282412E+03  0.53122920237E+03  0.00000000000E+00 0.  1.
         -4    1    4    4    0  502 -0.84406571010E+03  0.13478898405E+03 -0.13982653054E+03  0.86612149946E+03  0.00000000000E+00 0. -1.
</event>
<event>
 8    1  0.7008488E-006  0.1750324E+04  0.7818608E-02  0.8278890E-01
         21   -1    0    0  501  502  0.00000000000E+00  0.00000000000E+00  0.89217027049E+03  0.89217027049E+03  0.00000000000E+00 0. -1.
         21   -1    0    0  502  503 -0.00000000000E+00 -0.00000000000E+00 -0.34367398958E+04  0.34367398958E+04  0.00000000000E+00 0.  1.
   -9000010    2    1    2    0  503  0.13371449157E+04 -0.51612172024E+03 -0.11522200273E+04  0.20955295005E+04  0.10046366210E+04 0.  0.
    9000010    2    1    2  501    0 -0.13371449157E+04  0.51612172024E+03 -0.13923495980E+04  0.22333806659E+04  0.99750370410E+03 0.  0.
        -13    1    4    4    0    0 -0.84866245095E+02  0.32299031503E+03 -0.73192810472E+03  0.80451462684E+03  0.10566000000E+00 0.  1.
         13    1    3    3    0    0  0.74311044531E+03  0.15542964031E+03 -0.19467098706E+03  0.78375271061E+03  0.10566000000E+00 0. -1.
          4    1    4    4  501    0 -0.12522786706E+04  0.19313140521E+03 -0.66042149333E+03  0.14288660390E+04  0.00000000000E+00 0.  1.
         -4    1    3    3    0  503  0.59403447043E+03 -0.67155136055E+03 -0.95754904026E+03  0.13117767899E+04  0.00000000000E+00 0. -1.
</event>
<event>
 8    1  0.7008488E-006  0.1007202E+04  0.7818608E-02  0.8790788E-01
         21   -1    0    0  503  502  0.00000000000E+00  0.00000000000E+00  0.13080900955E+04  0.13080900955E+04  0.00000000000E+00 0. -1.
         21   -1    0    0  501  503 -0.00000000000E+00 -0.00000000000E+00 -0.70532896030E+03  0.70532896030E+03  0.00000000000E+00 0. -1.
    9000010    2    1    2  501    0  0.13465274911E+03 -0.18514605496E+03  0.26978153356E+03  0.95260228561E+03  0.88445385080E+03 0.  0.
   -9000010    2    1    2    0  502 -0.13465274911E+03  0.18514605496E+03  0.33297960163E+03  0.10608167702E+04  0.98083963026E+03 0.  0.
        -13    1    3    3    0    0 -0.31037120104E+03 -0.31416868224E+03  0.19699876800E+03  0.48357085220E+03  0.10566000000E+00 0.  1.
         13    1    4    4    0    0  0.20544564253E+03  0.37943761007E+03  0.47726821115E+03  0.64340171628E+03  0.10566000000E+00 0. -1.
          4    1    3    3  501    0  0.44502395016E+03  0.12902262728E+03  0.72782765552E+02  0.46903143341E+03  0.00000000000E+00 0.  1.
         -4    1    4    4    0  502 -0.34009839164E+03 -0.19429155512E+03 -0.14428860952E+03  0.41741505390E+03  0.00000000000E+00 0. -1.
</event>
<event>
 8    1  0.7008488E-006  0.1236474E+04  0.7818608E-02  0.8590566E-01
         21   -1    0    0  503  502  0.00000000000E+00  0.00000000000E+00  0.11400559935E+04  0.11400559935E+04  0.00000000000E+00 0.  1.
         21   -1    0    0  501  503 -0.00000000000E+00 -0.00000000000E+00 -0.13456761312E+04  0.13456761312E+04  0.00000000000E+00 0. -1.
    9000010    2    1    2  501    0  0.32607789345E+03 -0.51484481888E+03 -0.37926827512E+03  0.12371240850E+04  0.10075909870E+04 0.  0.
   -9000010    2    1    2    0  502 -0.32607789345E+03  0.51484481888E+03  0.17364813749E+03  0.12486080397E+04  0.10758607628E+04 0.  0.
        -13    1    3    3    0    0 -0.53834130219E+02 -0.15153021698E+03 -0.63322305945E+03  0.65332302456E+03  0.10566000000E+00 0.  1.
         13    1    4    4    0    0 -0.18430371716E+03  0.40009409689E+03  0.62337142411E+03  0.76330537145E+03  0.10566000000E+00 0. -1.
          4    1    3    3  501    0  0.37991202367E+03 -0.36331460190E+03  0.25395478433E+03  0.58380106044E+03  0.00000000000E+00 0.  1.
         -4    1    4    4    0  502 -0.14177417630E+03  0.11475072200E+03 -0.44972328662E+03  0.48530266823E+03  0.00000000000E+00 0. -1.
</event>
<event>
 8    1  0.7008488E-006  0.1059140E+04  0.7818608E-02  0.8726229E-01
         21   -1    0    0  501  502  0.00000000000E+00  0.00000000000E+00  0.11072089316E+04  0.11072089316E+04  0.00000000000E+00 0. -1.
         21   -1    0    0  502  503 -0.00000000000E+00 -0.00000000000E+00 -0.99041432036E+03  0.99041432036E+03  0.00000000000E+00 0. -1.
   -9000010    2    1    2    0  503 -0.11505033035E+03 -0.34970808273E+03  0.57777975988E+02  0.10607147744E+04  0.99309879493E+03 0.  0.
    9000010    2    1    2  501    0  0.11505033035E+03  0.34970808273E+03  0.59016635297E+02  0.10369084776E+04  0.96755563459E+03 0.  0.
        -13    1    4    4    0    0  0.40187265199E+03 -0.66468853179E+02 -0.21645649042E+03  0.46127341163E+03  0.10566000000E+00 0.  1.
         13    1    3    3    0    0 -0.50556975348E+03 -0.42599156948E+03  0.28100538287E+02  0.66170933522E+03  0.10566000000E+00 0. -1.
          4    1    4    4  501    0 -0.28682232165E+03  0.41617693591E+03  0.27547312572E+03  0.57563506597E+03  0.00000000000E+00 0.  1.
         -4    1    3    3    0  503  0.39051942313E+03  0.76283486750E+02  0.29677437701E+02  0.39900543919E+03  0.00000000000E+00 0. -1.
</event>
<event>
 8    1  0.7008488E-006  0.1081807E+04  0.7818608E-02  0.8701793E-01
         21   -1    0    0  503  502  0.00000000000E+00  0.00000000000E+00  0.13204924226E+04  0.13204924226E+04  0.00000000000E+00 0. -1.
         21   -1    0    0  501  503 -0.00000000000E+00 -0.00000000000E+00 -0.88708764415E+03  0.88708764415E+03  0.00000000000E+00 0. -1.
    9000010    2    1    2  501    0  0.20868197604E+03 -0.32594311424E+03  0.27706596202E+03  0.11145348285E+04  0.10077873068E+04 0.  0.
   -9000010    2    1    2    0  502 -0.20868197604E+03  0.32594311424E+03  0.15633881646E+03  0.10930452383E+04  0.10102073978E+04 0.  0.
        -13    1    3    3    0    0 -0.26063612841E+02 -0.37113297604E+03  0.60408064663E+03  0.70945925649E+03  0.10566000000E+00 0.  1.
         13    1    4    4    0    0  0.24745159722E+03  0.10483587885E+03  0.43745793617E+03  0.51341241858E+03  0.10566000000E+00 0. -1.
          4    1    3    3  501    0  0.23474558888E+03  0.45189861808E+02 -0.32701468461E+03  0.40507557203E+03  0.00000000000E+00 0.  1.
         -4    1    4    4    0  502 -0.45613357326E+03  0.22110723538E+03 -0.28111911972E+03  0.57963281969E+03  0.00000000000E+00 0. -1.
</event>
<event>
 8    1  0.7008488E-006  0.1103477E+04  0.7818608E-02  0.8685154E-01
         21   -1    0    0  501  502  0.00000000000E+00  0.00000000000E+00  0.14331742502E+04  0.14331742502E+04  0.00000000000E+00 0.  1.
         21   -1    0    0  502  503 -0.00000000000E+00 -0.00000000000E+00 -0.10596943318E+04  0.10596943318E+04  0.00000000000E+00 0.  1.
   -9000010    2    1    2    0  503 -0.45887034094E+03  0.40665470270E+02  0.75261486528E+03  0.13356982431E+04  0.10027187995E+04 0.  0.
    9000010    2    1    2  501    0  0.45887034094E+03 -0.40665470270E+02 -0.37913494693E+03  0.11571703390E+04  0.99150603383E+03 0.  0.
        -13    1    4    4    0    0  0.65469590524E+03 -0.21049940225E+03 -0.51998611544E+03  0.86216141070E+03  0.10566000000E+00 0.  1.
         13    1    3    3    0    0  0.17688948788E+02 -0.22274332389E+03  0.75894042749E+03  0.79114984099E+03  0.10566000000E+00 0. -1.
          4    1    4    4  501    0 -0.19582556430E+03  0.16983393198E+03  0.14085116851E+03  0.29500892826E+03  0.00000000000E+00 0.  1.
         -4    1    3    3    0  503 -0.47655928973E+03  0.26340879416E+03 -0.63255622161E+01  0.54454840208E+03  0.00000000000E+00 0. -1.
</event>
<event>
 8    1  0.7008488E-006  0.1248660E+04  0.7818608E-02  0.8572860E-01
         21   -1    0    0  501  502  0.00000000000E+00  0.00000000000E+00  0.12472042229E+04  0.12472042229E+04  0.00000000000E+00 0. -1.
         21   -1    0    0  502  503 -0.00000000000E+00 -0.00000000000E+00 -0.13563583666E+04  0.13563583666E+04  0.00000000000E+00 0.  1.
   -9000010    2    1    2    0  503 -0.36789670612E+03 -0.63655311104E+03  0.32910312124E+03  0.12802255889E+04  0.99504816186E+03 0.  0.
    9000010    2    1    2  501    0  0.36789670612E+03  0.63655311104E+03 -0.43825726490E+03  0.13233370007E+04  0.10092589052E+04 0.  0.
        -13    1    4    4    0    0 -0.25346729082E+03  0.43408908889E+02 -0.38458923496E+03  0.46264337421E+03  0.10566000000E+00 0.  1.
         13    1    3    3    0    0  0.28804195010E+03 -0.16809754200E+02 -0.64599757463E+02  0.29567528250E+03  0.10566000000E+00 0. -1.
          4    1    4    4  501    0  0.62136399694E+03  0.59314420215E+03 -0.53668029939E+02  0.86069362649E+03  0.00000000000E+00 0.  1.
         -4    1    3    3    0  503 -0.65593865621E+03 -0.61974335684E+03  0.39370287870E+03  0.98455030636E+03  0.00000000000E+00 0. -1.
</event>
<event>
 8    1  0.7008488E-006  0.1153539E+04  0.7818608E-02  0.8642437E-01
         21   -1    0    0  501  502  0.00000000000E+00  0.00000000000E+00  0.14430814396E+04  0.14430814396E+04  0.00000000000E+00 0.  1.
         21   -1    0    0  502  503 -0.00000000000E+00 -0.00000000000E+00 -0.10026912763E+04  0.10026912763E+04  0.00000000000E+00 0.  1.
   -9000010    2    1    2    0  503 -0.29974270994E+03 -0.51057385198E+03 -0.12690278082E+03  0.11602869829E+04  0.98976270709E+03 0.  0.
    9000010    2    1    2  501    0  0.29974270994E+03  0.51057385198E+03  0.56729294410E+03  0.12854857330E+04  0.99001057308E+03 0.  0.
        -13    1    4    4    0    0  0.34696190489E+03  0.65716902826E+03  0.74366905130E+03  0.10513312343E+04  0.10566000000E+00 0.  1.
         13    1    3    3    0    0  0.75966551696E+02 -0.18515767427E+03 -0.50014795253E+03  0.53870424808E+03  0.10566000000E+00 0. -1.
          4    1    4    4  501    0 -0.47219194949E+02 -0.14659517627E+03 -0.17637610720E+03  0.23415449872E+03  0.00000000000E+00 0.  1.
         -4    1    3    3    0  503 -0.37570926164E+03 -0.32541617771E+03  0.37324517170E+03  0.62158273479E+03  0.00000000000E+00 0. -1.
</event>
<event>
 8    1  0.7008488E-006  0.1086082E+04  0.7818608E-02  0.8702155E-01
         21   -1    0    0  501  502  0.00000000000E+00  0.00000000000E+00  0.20515754429E+04  0.20515754429E+04  0.00000000000E+00 0. -1.
         21   -1    0    0  502  503 -0.00000000000E+00 -0.00000000000E+00 -0.56437895404E+03  0.56437895404E+03  0.00000000000E+00 0. -1.
   -9000010    2    1    2    0  503  0.22984362261E+03 -0.34021789525E+03  0.77251166729E+03  0.13158199474E+04  0.98286904050E+03 0.  0.
    9000010    2    1    2  501    0 -0.22984362261E+03  0.34021789525E+03  0.71468482154E+03  0.13001344495E+04  0.10054844034E+04 0.  0.
        -13    1    4    4    0    0  0.35297140465E+03  0.34510986991E+03  0.41419722399E+03  0.64439815824E+03  0.10566000000E+00 0.  1.
         13    1    3    3    0    0 -0.51693665774E+02  0.19199110836E+03  0.67775960494E+03  0.70632210359E+03  0.10566000000E+00 0. -1.
          4    1    4    4  501    0 -0.58281502726E+03 -0.48919746597E+01  0.30048759754E+03  0.65573629127E+03  0.00000000000E+00 0.  1.
         -4    1    3    3    0  503  0.28153728839E+03 -0.53220900362E+03  0.94752062343E+02  0.60949784380E+03  0.00000000000E+00 0. -1.
</event>
<event>
 8    1  0.7008488E-006  0.1380161E+04  0.7818608E-02  0.8490150E-01
         21   -1    0    0  503  502  0.00000000000E+00  0.00000000000E+00  0.80029849208E+03  0.80029849208E+03  0.00000000000E+00 0.  1.
         21   -1    0    0  501  503 -0.00000000000E+00 -0.00000000000E+00 -0.23511736241E+04  0.23511736241E+04  0.00000000000E+00 0. -1.
    9000010    2    1    2  501    0  0.38049737748E+03  0.78810942007E+03 -0.10347941744E+04  0.17250051910E+04  0.10672156359E+04 0.  0.
   -9000010    2    1    2    0  502 -0.38049737748E+03 -0.78810942007E+03 -0.51608095760E+03  0.14264669251E+04  0.10012859839E+04 0.  0.
        -13    1    3    3    0    0 -0.24164568842E+03  0.15801221336E+03 -0.73577320724E+03  0.79039402955E+03  0.10566000000E+00 0.  1.
         13    1    4    4    0    0 -0.24766216383E+03 -0.96160678285E+02  0.26452162654E+03  0.37490682244E+03  0.10566000000E+00 0. -1.
          4    1    3    3  501    0  0.62214306590E+03  0.63009720671E+03 -0.29902096718E+03  0.93461116148E+03  0.00000000000E+00 0.  1.
         -4    1    4    4    0  502 -0.13283521365E+03 -0.69194874178E+03 -0.78060258414E+03  0.10515601027E+04  0.00000000000E+00 0. -1.
</event>
<event>
 8    1  0.7008488E-006  0.1242563E+04  0.7818608E-02  0.8579767E-01
         21   -1    0    0  503  502  0.00000000000E+00  0.00000000000E+00  0.14275062833E+04  0.14275062833E+04  0.00000000000E+00 0. -1.
         21   -1    0    0  501  503 -0.00000000000E+00 -0.00000000000E+00 -0.17849143854E+04  0.17849143854E+04  0.00000000000E+00 0. -1.
    9000010    2    1    2  501    0  0.72303674034E+03 -0.90878847892E+02 -0.12013358273E+04  0.17103627467E+04  0.97523938721E+03 0.  0.
   -9000010    2    1    2    0  502 -0.72303674034E+03  0.90878847892E+02  0.84392772522E+03  0.15020579220E+04  0.10064407100E+04 0.  0.
        -13    1    3    3    0    0  0.54576016920E+03  0.26890491910E+03 -0.11565046480E+04  0.13067773452E+04  0.10566000000E+00 0.  1.
         13    1    4    4    0    0 -0.21242349328E+03 -0.23296379515E+03 -0.14177346174E+03  0.34568135033E+03  0.10566000000E+00 0. -1.
          4    1    3    3  501    0  0.17727657114E+03 -0.35978376699E+03 -0.44831179270E+02  0.40358540149E+03  0.00000000000E+00 0.  1.
         -4    1    4    4    0  502 -0.51061324706E+03  0.32384264304E+03  0.98570118696E+03  0.11563765717E+04  0.00000000000E+00 0. -1.
</event>
<event>
 8    1  0.7008488E-006  0.1175644E+04  0.7818608E-02  0.8626250E-01
         21   -1    0    0  501  502  0.00000000000E+00  0.00000000000E+00  0.11961216081E+04  0.11961216081E+04  0.00000000000E+00 0.  1.
         21   -1    0    0  502  503 -0.00000000000E+00 -0.00000000000E+00 -0.11880140242E+04  0.11880140242E+04  0.00000000000E+00 0.  1.
   -9000010    2    1    2    0  503 -0.58753296625E+03 -0.19103958170E+03 -0.20961712071E+03  0.11885010987E+04  0.99343062972E+03 0.  0.
    9000010    2    1    2  501    0  0.58753296625E+03  0.19103958170E+03  0.21772470465E+03  0.11956345336E+04  0.10002233664E+04 0.  0.
        -13    1    4    4    0    0 -0.18409390661E+03 -0.15100349296E+03 -0.14299972639E+03  0.27774368444E+03  0.10566000000E+00 0.  1.
         13    1    3    3    0    0 -0.66387389666E+03 -0.50124607890E+03 -0.55211545243E+02  0.83368129892E+03  0.10566000000E+00 0. -1.
          4    1    4    4  501    0  0.77162687286E+03  0.34204307466E+03  0.36072443104E+03  0.91789084917E+03  0.00000000000E+00 0.  1.
         -4    1    3    3    0  503  0.76340930408E+02  0.31020649721E+03 -0.15440557547E+03  0.35481979976E+03  0.00000000000E+00 0. -1.
</event>
<event>
 8    1  0.7008488E-006  0.1094607E+04  0.7818608E-02  0.8692531E-01
         21   -1    0    0  503  502  0.00000000000E+00  0.00000000000E+00  0.10692281145E+04  0.10692281145E+04  0.00000000000E+00 0.  1.
         21   -1    0    0  501  503 -0.00000000000E+00 -0.00000000000E+00 -0.13797739340E+04  0.13797739340E+04  0.00000000000E+00 0.  1.
    9000010    2    1    2  501    0  0.49768804792E+02 -0.43201167694E+03 -0.69559229847E+03  0.12886460172E+04  0.99380525706E+03 0.  0.
   -9000010    2    1    2    0  502 -0.49768804792E+02  0.43201167694E+03  0.38504647900E+03  0.11603560313E+04  0.10045169513E+04 0.  0.
        -13    1    3    3    0    0  0.36539668509E+03 -0.52841475408E+03 -0.71100864081E+03  0.95826415370E+03  0.10566000000E+00 0.  1.
         13    1    4    4    0    0  0.38515571835E+02  0.43608601440E+03  0.70420234342E+03  0.82918961213E+03  0.10566000000E+00 0. -1.
          4    1    3    3  501    0 -0.31562788029E+03  0.96403077138E+02  0.15416342341E+02  0.33038186347E+03  0.00000000000E+00 0.  1.
         -4    1    4    4    0  502 -0.88284376628E+02 -0.40743374576E+01 -0.31915586441E+03  0.33116641915E+03  0.00000000000E+00 0. -1.
</event>
<event>
 8    1  0.7008488E-006  0.1078403E+04  0.7818608E-02  0.8709837E-01
         21   -1    0    0  503  502  0.00000000000E+00  0.00000000000E+00  0.13493282288E+04  0.13493282288E+04  0.00000000000E+00 0. -1.
         21   -1    0    0  501  503 -0.00000000000E+00 -0.00000000000E+00 -0.84166440133E+03  0.84166440133E+03  0.00000000000E+00 0. -1.
    9000010    2    1    2  501    0 -0.33694636372E+03  0.96910396519E+02  0.27225446959E+03  0.10871945069E+04  0.99244391407E+03 0.  0.
   -9000010    2    1    2    0  502  0.33694636372E+03 -0.96910396519E+02  0.23540935792E+03  0.11037981233E+04  0.10198177554E+04 0.  0.
        -13    1    3    3    0    0 -0.19773450988E+03  0.25898477698E+03  0.60766641741E+03  0.68951471132E+03  0.10566000000E+00 0.  1.
         13    1    4    4    0    0  0.21025840790E+03 -0.45949435974E+03  0.43875037304E+03  0.66921264613E+03  0.10566000000E+00 0. -1.
          4    1    3    3  501    0 -0.13921185384E+03 -0.16207438046E+03 -0.33541194783E+03  0.39767979556E+03  0.00000000000E+00 0.  1.
         -4    1    4    4    0  502  0.12668795582E+03  0.36258396322E+03 -0.20334101512E+03  0.43458547717E+03  0.00000000000E+00 0. -1.
</event>
<event>
 8    1  0.7008488E-006  0.1278578E+04  0.7818608E-02  0.8555397E-01
         21   -1    0    0  503  502  0.00000000000E+00  0.00000000000E+00  0.14159185178E+04  0.14159185178E+04  0.00000000000E+00 0.  1.
         21   -1    0    0  501  503 -0.00000000000E+00 -0.00000000000E+00 -0.11504592881E+04  0.11504592881E+04  0.00000000000E+00 0.  1.
    9000010    2    1    2  501    0 -0.11229231255E+03  0.73295258557E+03 -0.55423048284E+02  0.12797787403E+04  0.10416011010E+04 0.  0.
   -9000010    2    1    2    0  502  0.11229231255E+03 -0.73295258557E+03  0.32088227805E+03  0.12865990657E+04  0.10012705245E+04 0.  0.
        -13    1    3    3    0    0 -0.56280393268E+03  0.38177661561E+03  0.10100138174E+03  0.68753395635E+03  0.10566000000E+00 0.  1.
         13    1    4    4    0    0  0.40143274892E+03  0.35774255980E+02 -0.48638034071E+01  0.40305299533E+03  0.10566000000E+00 0. -1.
          4    1    3    3  501    0  0.45051162013E+03  0.35117596996E+03 -0.15642443003E+03  0.59224478390E+03  0.00000000000E+00 0.  1.
         -4    1    4    4    0  502 -0.28914043637E+03 -0.76872684155E+03  0.32574608145E+03  0.88354607035E+03  0.00000000000E+00 0. -1.
</event>
<event>
 8    1  0.7008488E-006  0.1061994E+04  0.7818608E-02  0.8718599E-01
         21   -1    0    0  503  502  0.00000000000E+00  0.00000000000E+00  0.12082794615E+04  0.12082794615E+04  0.00000000000E+00 0.  1.
         21   -1    0    0  501  503 -0.00000000000E+00 -0.00000000000E+00 -0.94686529448E+03  0.94686529448E+03  0.00000000000E+00 0.  1.
    9000010    2    1    2  501    0 -0.18062052044E+03 -0.27301437644E+03  0.26242276657E+03  0.10939365550E+04  0.10102825623E+04 0.  0.
   -9000010    2    1    2    0  502  0.18062052044E+03  0.27301437644E+03 -0.10085995444E+01  0.10612082010E+04  0.10094558963E+04 0.  0.
        -13    1    3    3    0    0 -0.40497466773E+03 -0.56394675951E+03  0.18419009882E+03  0.71830803471E+03  0.10566000000E+00 0.  1.
         13    1    4    4    0    0  0.29071457538E+03 -0.32899097116E+03 -0.72779600310E+02  0.44502461148E+03  0.10566000000E+00 0. -1.
          4    1    3    3  501    0  0.22435414729E+03  0.29093238307E+03  0.78232667756E+02  0.37562852025E+03  0.00000000000E+00 0.  1.
         -4    1    4    4    0  502 -0.11009405494E+03  0.60200534760E+03  0.71771000766E+02  0.61618358955E+03  0.00000000000E+00 0. -1.
</event>
<event>
 8    1  0.7008488E-006  0.1035079E+04  0.7818608E-02  0.8747125E-01
         21   -1    0    0  501  502  0.00000000000E+00  0.00000000000E+00  0.16487314341E+04  0.16487314341E+04  0.00000000000E+00 0.  1.
         21   -1    0    0  502  503 -0.00000000000E+00 -0.00000000000E+00 -0.64296786610E+03  0.64296786610E+03  0.00000000000E+00 0.  1.
   -9000010    2    1    2    0  503  0.10169695621E+03 -0.26478680263E+03  0.38396886161E+03  0.10842152217E+04  0.97346609516E+03 0.  0.
    9000010    2    1    2  501    0 -0.10169695621E+03  0.26478680263E+03  0.62179470644E+03  0.12074840786E+04  0.99545709166E+03 0.  0.
        -13    1    4    4    0    0  0.44086479848E+03  0.24293282495E+02  0.27233233585E+03  0.51876473129E+03  0.10566000000E+00 0.  1.
         13    1    3    3    0    0  0.32860856505E+03 -0.34277129163E+03 -0.15069478659E+03  0.49818136985E+03  0.10566000000E+00 0. -1.
          4    1    4    4  501    0 -0.54256175469E+03  0.24049352013E+03  0.34946237058E+03  0.68871934729E+03  0.00000000000E+00 0.  1.
         -4    1    3    3    0  503 -0.22691160885E+03  0.77984489008E+02  0.53466364820E+03  0.58603385180E+03  0.00000000000E+00 0. -1.
</event>
<event>
 8    1  0.7008488E-006  0.1329458E+04  0.7818608E-02  0.8520014E-01
         21   -1    0    0  503  502  0.00000000000E+00  0.00000000000E+00  0.16737851215E+04  0.16737851215E+04  0.00000000000E+00 0.  1.
         21   -1    0    0  501  503 -0.00000000000E+00 -0.00000000000E+00 -0.12887815828E+04  0.12887815828E+04  0.00000000000E+00 0.  1.
    9000010    2    1    2  501    0 -0.64207358674E+03  0.53839960160E+03  0.85501541599E+03  0.15806672631E+04  0.10321458294E+04 0.  0.
   -9000010    2    1    2    0  502  0.64207358674E+03 -0.53839960160E+03 -0.47001187725E+03  0.13818994412E+04  0.99327855052E+03 0.  0.
        -13    1    3    3    0    0 -0.16334098650E+03  0.76282740276E+03  0.37096727934E+03  0.86383022509E+03  0.10566000000E+00 0.  1.
         13    1    4    4    0    0 -0.13881208713E+01 -0.16714493470E+03 -0.60428856296E+03  0.62698009104E+03  0.10566000000E+00 0. -1.
          4    1    3    3  501    0 -0.47873260024E+03 -0.22442780116E+03  0.48404813665E+03  0.71683703801E+03  0.00000000000E+00 0.  1.
         -4    1    4    4    0  502  0.64346170761E+03 -0.37125466690E+03  0.13427668571E+03  0.75491935012E+03  0.00000000000E+00 0. -1.
</event>
<event>
 8    1  0.7008488E-006  0.1088204E+04  0.7818608E-02  0.8695965E-01
         21   -1    0    0  501  502  0.00000000000E+00  0.00000000000E+00  0.88466894769E+03  0.88466894769E+03  0.00000000000E+00 0.  1.
         21   -1    0    0  502  503 -0.00000000000E+00 -0.00000000000E+00 -0.13381103403E+04  0.13381103403E+04  0.00000000000E+00 0.  1.
   -9000010    2    1    2    0  503  0.19327465877E+03  0.38378750952E+03 -0.23735345814E+03  0.11137885671E+04  0.99977015456E+03 0.  0.
    9000010    2    1    2  501    0 -0.19327465877E+03 -0.38378750952E+03 -0.21608793445E+03  0.11089907209E+04  0.99925896412E+03 0.  0.
        -13    1    4    4    0    0 -0.17209660914E+03  0.32324703817E+03  0.10134125565E+02  0.36634492249E+03  0.10566000000E+00 0.  1.
         13    1    3    3    0    0  0.22880297111E+03 -0.31390852540E+03 -0.60254917737E+02  0.39309035626E+03  0.10566000000E+00 0. -1.
          4    1    4    4  501    0 -0.21178049626E+02 -0.70703454769E+03 -0.22622206002E+03  0.74264579838E+03  0.00000000000E+00 0.  1.
         -4    1    3    3    0  503 -0.35528312343E+02  0.69769603491E+03 -0.17709854040E+03  0.72069821085E+03  0.00000000000E+00 0. -1.
</event>
<event>
 8    1  0.7008488E-006  0.1101967E+04  0.7818608E-02  0.8684965E-01
         21   -1    0    0  501  502  0.00000000000E+00  0.00000000000E+00  0.10689569637E+04  0.10689569637E+04  0.00000000000E+00 0.  1.
         21   -1    0    0  502  503 -0.00000000000E+00 -0.00000000000E+00 -0.12167766845E+04  0.12167766845E+04  0.00000000000E+00 0.  1.
   -9000010    2    1    2    0  503  0.43770162900E+03  0.12352023259E+03 -0.37434468582E+03  0.11607246681E+04  0.10001539118E+04 0.  0.
    9000010    2    1    2  501    0 -0.43770162900E+03 -0.12352023259E+03  0.22652496495E+03  0.11250089801E+04  0.10037388513E+04 0.  0.
        -13    1    4    4    0    0 -0.12767073829E+03 -0.16756220500E+02 -0.39872168086E+03  0.41899830345E+03  0.10566000000E+00 0.  1.
         13    1    3    3    0    0  0.10533786919E+03  0.33441440372E+03  0.24439796963E+03  0.42738675555E+03  0.10566000000E+00 0. -1.
          4    1    4    4  501    0 -0.31003089071E+03 -0.10676401209E+03  0.62524664581E+03  0.70601067667E+03  0.00000000000E+00 0.  1.
         -4    1    3    3    0  503  0.33236375981E+03 -0.21089417113E+03 -0.61874265544E+03  0.73333791250E+03  0.00000000000E+00 0. -1.
</event>
<event>
 8    1  0.7008488E-006  0.1043934E+04  0.7818608E-02  0.8741623E-01
         21   -1    0    0  503  502  0.00000000000E+00  0.00000000000E+00  0.17259376283E+04  0.17259376283E+04  0.00000000000E+00 0. -1.
         21   -1    0    0  501  503 -0.00000000000E+00 -0.00000000000E+00 -0.61337805256E+03  0.61337805256E+03  0.00000000000E+00 0. -1.
    9000010    2    1    2  501    0 -0.28439766171E+03 -0.10586903729E+03  0.51425838527E+03  0.11637264166E+04  0.99885294358E+03 0.  0.
   -9000010    2    1    2    0  502  0.28439766171E+03  0.10586903729E+03  0.59830119045E+03  0.11755892642E+04  0.96537843387E+03 0.  0.
        -13    1    3    3    0    0 -0.61444677536E+03  0.87484389515E+02  0.15670434650E+03  0.64012078667E+03  0.10566000000E+00 0.  1.
         13    1    4    4    0    0  0.59381556407E+03  0.15455246641E+03  0.60581704758E+03  0.86227472148E+03  0.10566000000E+00 0. -1.
          4    1    3    3  501    0  0.33004911365E+03 -0.19335342680E+03  0.35755403877E+03  0.52360562995E+03  0.00000000000E+00 0.  1.
         -4    1    4    4    0  502 -0.30941790236E+03 -0.48683429118E+02 -0.75158571316E+01  0.31331454272E+03  0.00000000000E+00 0. -1.
</event>
<event>
 8    1  0.7008488E-006  0.1244723E+04  0.7818608E-02  0.8576282E-01
         21   -1    0    0  503  502  0.00000000000E+00  0.00000000000E+00  0.16236216831E+04  0.16236216831E+04  0.00000000000E+00 0. -1.
         21   -1    0    0  501  503 -0.00000000000E+00 -0.00000000000E+00 -0.10879777175E+04  0.10879777175E+04  0.00000000000E+00 0. -1.
    9000010    2    1    2  501    0 -0.16201096676E+03 -0.74874325754E+03  0.76404038032E+03  0.14605110658E+04  0.98105598803E+03 0.  0.
   -9000010    2    1    2    0  502  0.16201096676E+03  0.74874325754E+03 -0.22839641469E+03  0.12510883347E+04  0.96238925595E+03 0.  0.
        -13    1    3    3    0    0  0.35908374934E+03 -0.83670366891E+02  0.38944031411E+03  0.53628876433E+03  0.10566000000E+00 0.  1.
         13    1    4    4    0    0  0.11345686785E+03  0.86088529314E+03 -0.46484743673E+03  0.98492593600E+03  0.10566000000E+00 0. -1.
          4    1    3    3  501    0 -0.52109471609E+03 -0.66507289065E+03  0.37460006621E+03  0.92422230152E+03  0.00000000000E+00 0.  1.
         -4    1    4    4    0  502  0.48554098910E+02 -0.11214203561E+03  0.23645102203E+03  0.26616239872E+03  0.00000000000E+00 0. -1.
</event>
<event>
 8    1  0.7008488E-006  0.1130870E+04  0.7818608E-02  0.8672626E-01
         21   -1    0    0  501  502  0.00000000000E+00  0.00000000000E+00  0.60382256129E+03  0.60382256129E+03  0.00000000000E+00 0.  1.
         21   -1    0    0  502  503 -0.00000000000E+00 -0.00000000000E+00 -0.21187494379E+04  0.21187494379E+04  0.00000000000E+00 0.  1.
   -9000010    2    1    2    0  503 -0.11557994321E+03  0.52037777162E+03 -0.46865278356E+03  0.12241335681E+04  0.99735440672E+03 0.  0.
    9000010    2    1    2  501    0  0.11557994321E+03 -0.52037777162E+03 -0.10462740930E+04  0.14984384310E+04  0.93084719767E+03 0.  0.
        -13    1    4    4    0    0  0.47543319250E+03 -0.48943277302E+03 -0.50996687202E+03  0.85184938902E+03  0.10566000000E+00 0.  1.
         13    1    3    3    0    0  0.21080868969E+03  0.60054752392E+03 -0.58895654097E+03  0.86716056786E+03  0.10566000000E+00 0. -1.
          4    1    4    4  501    0 -0.35985324929E+03 -0.30944998602E+02 -0.53630722100E+03  0.64658904202E+03  0.00000000000E+00 0.  1.
         -4    1    3    3    0  503 -0.32638863290E+03 -0.80169752300E+02  0.12030375741E+03  0.35697300026E+03  0.00000000000E+00 0. -1.
</event>
<event>
 8    1  0.7008488E-006  0.1082346E+04  0.7818608E-02  0.8724892E-01
         21   -1    0    0  503  502  0.00000000000E+00  0.00000000000E+00  0.17892532022E+04  0.17892532022E+04  0.00000000000E+00 0. -1.
         21   -1    0    0  501  503 -0.00000000000E+00 -0.00000000000E+00 -0.60239663266E+03  0.60239663266E+03  0.00000000000E+00 0. -1.
    9000010    2    1    2  501    0  0.36843729184E+03  0.16279006961E+03  0.72176097025E+03  0.12136065248E+04  0.88862548586E+03 0.  0.
   -9000010    2    1    2    0  502 -0.36843729184E+03 -0.16279006961E+03  0.46509559932E+03  0.11780433101E+04  0.10046021497E+04 0.  0.
        -13    1    3    3    0    0  0.50881713968E+03 -0.98332001296E+01  0.56398226078E+02  0.51202767945E+03  0.10566000000E+00 0.  1.
         13    1    4    4    0    0 -0.46438330021E+03 -0.47840343152E+03  0.80828708810E+02  0.67160627166E+03  0.10566000000E+00 0. -1.
          4    1    3    3  501    0 -0.14037984784E+03  0.17262326974E+03  0.66536274417E+03  0.70157884537E+03  0.00000000000E+00 0.  1.
         -4    1    4    4    0  502  0.95946008378E+02  0.31561336191E+03  0.38426689051E+03  0.50643703842E+03  0.00000000000E+00 0. -1.
</event>
<event>
 8    1  0.7008488E-006  0.1551330E+04  0.7818608E-02  0.8381320E-01
         21   -1    0    0  501  502  0.00000000000E+00  0.00000000000E+00  0.16456721653E+04  0.16456721653E+04  0.00000000000E+00 0. -1.
         21   -1    0    0  502  503 -0.00000000000E+00 -0.00000000000E+00 -0.16531233765E+04  0.16531233765E+04  0.00000000000E+00 0.  1.
   -9000010    2    1    2    0  503  0.11833523401E+04 -0.15082468209E+03 -0.57154581657E+03  0.16480899621E+04  0.98308954699E+03 0.  0.
    9000010    2    1    2  501    0 -0.11833523401E+04  0.15082468209E+03  0.56409460535E+03  0.16507055796E+04  0.99174358639E+03 0.  0.
        -13    1    4    4    0    0  0.10917898250E+02 -0.24815115810E+03  0.25117792774E+03  0.35325424317E+03  0.10566000000E+00 0.  1.
         13    1    3    3    0    0  0.21827054102E+03  0.37859913848E+03 -0.23951218795E+03  0.49834268940E+03  0.10566000000E+00 0. -1.
          4    1    4    4  501    0 -0.11942702383E+04  0.39897584019E+03  0.31291667761E+03  0.12974513364E+04  0.00000000000E+00 0.  1.
         -4    1    3    3    0  503  0.96508179906E+03 -0.52942382057E+03 -0.33203362862E+03  0.11497472727E+04  0.00000000000E+00 0. -1.
</event>
<event>
 8    1  0.7008488E-006  0.1257600E+04  0.7818608E-02  0.8565733E-01
         21   -1    0    0  501  502  0.00000000000E+00  0.00000000000E+00  0.11704477687E+04  0.11704477687E+04  0.00000000000E+00 0. -1.
         21   -1    0    0  502  503 -0.00000000000E+00 -0.00000000000E+00 -0.14678343923E+04  0.14678343923E+04  0.00000000000E+00 0. -1.
   -9000010    2    1    2    0  503 -0.12431614948E+03 -0.76519318545E+03 -0.53258120755E+03  0.13588787443E+04  0.98078212826E+03 0.  0.
    9000010    2    1    2  501    0  0.12431614948E+03  0.76519318545E+03  0.23519458391E+03  0.12794034167E+04  0.99024314905E+03 0.  0.
        -13    1    4    4    0    0  0.53028020061E+02  0.72093894834E+03  0.57857967386E+03  0.92591543259E+03  0.10566000000E+00 0.  1.
         13    1    3    3    0    0  0.23848538377E+03  0.60177374703E+02 -0.36763547237E+03  0.44232617649E+03  0.10566000000E+00 0. -1.
          4    1    4    4  501    0  0.71288129414E+02  0.44254237107E+02 -0.34338508995E+03  0.35348798409E+03  0.00000000000E+00 0.  1.
         -4    1    3    3    0  503 -0.36280153325E+03 -0.82537056015E+03 -0.16494573518E+03  0.91655256786E+03  0.00000000000E+00 0. -1.
</event>
<event>
 8    1  0.7008488E-006  0.1196939E+04  0.7818608E-02  0.8613851E-01
         21   -1    0    0  501  502  0.00000000000E+00  0.00000000000E+00  0.19328741806E+04  0.19328741806E+04  0.00000000000E+00 0. -1.
         21   -1    0    0  502  503 -0.00000000000E+00 -0.00000000000E+00 -0.72525081347E+03  0.72525081347E+03  0.00000000000E+00 0. -1.
   -9000010    2    1    2    0  503 -0.52279786099E+03 -0.33394844324E+03  0.62591059648E+03  0.13507137153E+04  0.10236328931E+04 0.  0.
    9000010    2    1    2  501    0  0.52279786099E+03  0.33394844324E+03  0.58171277063E+03  0.13074112787E+04  0.99302333203E+03 0.  0.
        -13    1    4    4    0    0  0.16918311661E+03  0.26314119065E+03  0.81832608176E+03  0.87608435690E+03  0.10566000000E+00 0.  1.
         13    1    3    3    0    0  0.53157035733E+02 -0.43216944495E+03  0.63072143678E+03  0.76642393071E+03  0.10566000000E+00 0. -1.
          4    1    4    4  501    0  0.35361474438E+03  0.70807252597E+02 -0.23661331113E+03  0.43132692180E+03  0.00000000000E+00 0.  1.
         -4    1    3    3    0  503 -0.57595489672E+03  0.98221001703E+02 -0.48108403005E+01  0.58428978463E+03  0.00000000000E+00 0. -1.
</event>
<event>
 8    1  0.7008488E-006  0.1071263E+04  0.7818608E-02  0.8712366E-01
         21   -1    0    0  503  502  0.00000000000E+00  0.00000000000E+00  0.14511984224E+04  0.14511984224E+04  0.00000000000E+00 0.  1.
         21   -1    0    0  501  503 -0.00000000000E+00 -0.00000000000E+00 -0.90686548307E+03  0.90686548307E+03  0.00000000000E+00 0.  1.
    9000010    2    1    2  501    0 -0.38404328587E+01  0.35565407217E+03 -0.16074163275E+03  0.10832553883E+04  0.10104948272E+04 0.  0.
   -9000010    2    1    2    0  502  0.38404328587E+01 -0.35565407217E+03  0.70507457204E+03  0.12748085172E+04  0.10007507359E+04 0.  0.
        -13    1    3    3    0    0  0.17503785355E+03 -0.25726887965E+03 -0.29725533512E+03  0.43033274571E+03  0.10566000000E+00 0.  1.
         13    1    4    4    0    0 -0.26505746437E+03 -0.41828956696E+03  0.83412227271E+03  0.97004206004E+03  0.10566000000E+00 0. -1.
          4    1    3    3  501    0 -0.17887828641E+03  0.61292295182E+03  0.13651370237E+03  0.65292264254E+03  0.00000000000E+00 0.  1.
         -4    1    4    4    0  502  0.26889789723E+03  0.62635494791E+02 -0.12904770067E+03  0.30476645713E+03  0.00000000000E+00 0. -1.
</event>
<event>
 8    1  0.7008488E-006  0.1101643E+04  0.7818608E-02  0.8686472E-01
         21   -1    0    0  503  502  0.00000000000E+00  0.00000000000E+00  0.93538986828E+03  0.93538986828E+03  0.00000000000E+00 0. -1.
         21   -1    0    0  501  503 -0.00000000000E+00 -0.00000000000E+00 -0.13385698867E+04  0.13385698867E+04  0.00000000000E+00 0. -1.
    9000010    2    1    2  501    0  0.70648161803E+02 -0.43389715014E+03  0.23047334530E+02  0.10927370823E+04  0.10001426156E+04 0.  0.
   -9000010    2    1    2    0  502 -0.70648161803E+02  0.43389715014E+03 -0.42622735291E+03  0.11812226727E+04  0.10101283812E+04 0.  0.
        -13    1    3    3    0    0  0.46681010208E+03 -0.25038807977E+03 -0.24157151787E+03  0.58220500797E+03  0.10566000000E+00 0.  1.
         13    1    4    4    0    0 -0.21511143741E+03  0.13704614333E+02  0.27601908716E+03  0.35021035765E+03  0.10566000000E+00 0. -1.
          4    1    3    3  501    0 -0.39616194028E+03 -0.18350907037E+03  0.26461885239E+03  0.51053207428E+03  0.00000000000E+00 0.  1.
         -4    1    4    4    0  502  0.14446327561E+03  0.42019253581E+03 -0.70224644007E+03  0.83101231503E+03  0.00000000000E+00 0. -1.
</event>
<event>
 8    1  0.7008488E-006  0.1169712E+04  0.7818608E-02  0.8634746E-01
         21   -1    0    0  503  502  0.00000000000E+00  0.00000000000E+00  0.67165593885E+03  0.67165593885E+03  0.00000000000E+00 0.  1.
         21   -1    0    0  501  503 -0.00000000000E+00 -0.00000000000E+00 -0.20021212668E+04  0.20021212668E+04  0.00000000000E+00 0.  1.
    9000010    2    1    2  501    0  0.12463194173E+02  0.55451619226E+03 -0.76359000471E+03  0.13968881326E+04  0.10298462124E+04 0.  0.
   -9000010    2    1    2    0  502 -0.12463194173E+02 -0.55451619226E+03 -0.56687532324E+03  0.12768890730E+04  0.10007270027E+04 0.  0.
        -13    1    3    3    0    0  0.33588211050E+03  0.31136880042E+03 -0.86586787389E+03  0.97953790546E+03  0.10566000000E+00 0.  1.
         13    1    4    4    0    0 -0.18900570776E+03 -0.14003794921E+03  0.25046791664E+03  0.34361020535E+03  0.10566000000E+00 0. -1.
          4    1    3    3  501    0 -0.32341891633E+03  0.24314739185E+03  0.10227786917E+03  0.41735022718E+03  0.00000000000E+00 0.  1.
         -4    1    4    4    0  502  0.17654251359E+03 -0.41447824305E+03 -0.81734323988E+03  0.93327886767E+03  0.00000000000E+00 0. -1.
</event>
<event>
 8    1  0.7008488E-006  0.1053379E+04  0.7818608E-02  0.8726645E-01
         21   -1    0    0  501  502  0.00000000000E+00  0.00000000000E+00  0.16322582560E+04  0.16322582560E+04  0.00000000000E+00 0. -1.
         21   -1    0    0  502  503 -0.00000000000E+00 -0.00000000000E+00 -0.68826611311E+03  0.68826611311E+03  0.00000000000E+00 0. -1.
   -9000010    2    1    2    0  503  0.14586638612E+03 -0.25755489578E+03  0.61379587475E+03  0.12166056445E+04  0.10078553425E+04 0.  0.
    9000010    2    1    2  501    0 -0.14586638612E+03  0.25755489578E+03  0.33019626818E+03  0.11039187246E+04  0.10109379052E+04 0.  0.
        -13    1    4    4    0    0 -0.21056824655E+03 -0.31157437237E+03 -0.98174911846E+02  0.38865910571E+03  0.10566000000E+00 0.  1.
         13    1    3    3    0    0 -0.21127456364E+03 -0.11401837239E+03 -0.20252481554E+03  0.31409145572E+03  0.10566000000E+00 0. -1.
          4    1    4    4  501    0  0.64701860422E+02  0.56912926815E+03  0.42837118002E+03  0.71525961894E+03  0.00000000000E+00 0.  1.
         -4    1    3    3    0  503  0.35714094977E+03 -0.14353652339E+03  0.81632069029E+03  0.90251418878E+03  0.00000000000E+00 0. -1.
</event>
<event>
 8    1  0.7008488E-006  0.1108110E+04  0.7818608E-02  0.8690130E-01
         21   -1    0    0  503  502  0.00000000000E+00  0.00000000000E+00  0.12997693946E+04  0.12997693946E+04  0.00000000000E+00 0.  1.
         21   -1    0    0  501  503 -0.00000000000E+00 -0.00000000000E+00 -0.95211933528E+03  0.95211933528E+03  0.00000000000E+00 0.  1.
    9000010    2    1    2  501    0  0.50073529455E+02 -0.32324418416E+03 -0.82375091642E+02  0.11111674350E+04  0.10587319075E+04 0.  0.
   -9000010    2    1    2    0  502 -0.50073529455E+02  0.32324418416E+03  0.43002515094E+03  0.11407212949E+04  0.10046538116E+04 0.  0.
        -13    1    3    3    0    0 -0.29757383258E+03  0.21007871961E+03 -0.26315661819E+03  0.44937141779E+03  0.10566000000E+00 0.  1.
         13    1    4    4    0    0  0.40704691359E+03  0.61676702312E+02 -0.66349752591E+02  0.41700540321E+03  0.10566000000E+00 0. -1.
          4    1    3    3  501    0  0.34764736204E+03 -0.53332290377E+03  0.18078152655E+03  0.66179601718E+03  0.00000000000E+00 0.  1.
         -4    1    4    4    0  502 -0.45712044305E+03  0.26156748185E+03  0.49637490353E+03  0.72371589167E+03  0.00000000000E+00 0. -1.
</event>
<event>
 8    1  0.7008488E-006  0.1273115E+04  0.7818608E-02  0.8555820E-01
         21   -1    0    0  503  502  0.00000000000E+00  0.00000000000E+00  0.13702282825E+04  0.13702282825E+04  0.00000000000E+00 0.  1.
         21   -1    0    0  501  503 -0.00000000000E+00 -0.00000000000E+00 -0.15034452163E+04  0.15034452163E+04  0.00000000000E+00 0.  1.
    9000010    2    1    2  501    0 -0.25799644640E+03 -0.73667196427E+03 -0.74312098263E+03  0.14741274759E+04  0.10057709835E+04 0.  0.
   -9000010    2    1    2    0  502  0.25799644640E+03  0.73667196427E+03  0.60990404882E+03  0.13995460228E+04  0.98868517328E+03 0.  0.
        -13    1    3    3    0    0  0.25615814542E+03  0.78109152537E+02 -0.33222490487E+03  0.42672172871E+03  0.10566000000E+00 0.  1.
         13    1    4    4    0    0 -0.17215050413E+03  0.76793598272E+03  0.55889346116E+03  0.96525819433E+03  0.10566000000E+00 0. -1.
          4    1    3    3  501    0 -0.51415459182E+03 -0.81478111680E+03 -0.41089607776E+03  0.10474057472E+04  0.00000000000E+00 0.  1.
         -4    1    4    4    0  502  0.43014695053E+03 -0.31264018456E+02  0.51010587657E+02  0.43428782847E+03  0.00000000000E+00 0. -1.
</event>
<event>
 8    1  0.7008488E-006  0.1051568E+04  0.7818608E-02  0.8731376E-01
         21   -1    0    0  503  502  0.00000000000E+00  0.00000000000E+00  0.90301833974E+03  0.90301833974E+03  0.00000000000E+00 0. -1.
         21   -1    0    0  501  503 -0.00000000000E+00 -0.00000000000E+00 -0.12190265849E+04  0.12190265849E+04  0.00000000000E+00 0. -1.
    9000010    2    1    2  501    0 -0.66090536629E+02  0.25143003674E+03 -0.42398894785E+02  0.10354646424E+04  0.10014011868E+04 0.  0.
   -9000010    2    1    2    0  502  0.66090536629E+02 -0.25143003674E+03 -0.27360935033E+03  0.10865802822E+04  0.10189257141E+04 0.  0.
        -13    1    3    3    0    0 -0.11957519384E+03  0.52328745007E+03  0.28404017345E+03  0.60729466792E+03  0.10566000000E+00 0.  1.
         13    1    4    4    0    0 -0.17961837371E+03 -0.37404826018E+03 -0.55528870005E+03  0.69319579679E+03  0.10566000000E+00 0. -1.
          4    1    3    3  501    0  0.53484657209E+02 -0.27185741333E+03 -0.32643906824E+03  0.42816997444E+03  0.00000000000E+00 0.  1.
         -4    1    4    4    0  502  0.24570891034E+03  0.12261822345E+03  0.28167934972E+03  0.39338448546E+03  0.00000000000E+00 0. -1.
</event>
<event>
 8    1  0.7008488E-006  0.1132539E+04  0.7818608E-02  0.8659339E-01
         21   -1    0    0  501  502  0.00000000000E+00  0.00000000000E+00  0.12710444351E+04  0.12710444351E+04  0.00000000000E+00 0. -1.
         21   -1    0    0  502  503 -0.00000000000E+00 -0.00000000000E+00 -0.10086048610E+04  0.10086048610E+04  0.00000000000E+00 0. -1.
   -9000010    2    1    2    0  503 -0.30674966251E+03  0.41138955625E+03  0.14812636080E+03  0.11421848930E+04  0.10096079381E+04 0.  0.
    9000010    2    1    2  501    0  0.30674966251E+03 -0.41138955625E+03  0.11431321322E+03  0.11374644031E+04  0.10086729079E+04 0.  0.
        -13    1    4    4    0    0  0.41995506080E+03  0.14471351019E+03  0.30494812553E+03  0.53879274638E+03  0.10566000000E+00 0.  1.
         13    1    3    3    0    0  0.31874154851E+02  0.62787166731E+03 -0.14444992693E+03  0.64506169078E+03  0.10566000000E+00 0. -1.
          4    1    4    4  501    0 -0.11320539829E+03 -0.55610306645E+03 -0.19063491231E+03  0.59867165667E+03  0.00000000000E+00 0.  1.
         -4    1    3    3    0  503 -0.33862381736E+03 -0.21648211105E+03  0.29257628773E+03  0.49712320227E+03  0.00000000000E+00 0. -1.
</event>
<event>
 8    1  0.7008488E-006  0.1109787E+04  0.7818608E-02  0.8679086E-01
         21   -1    0    0  503  502  0.00000000000E+00  0.00000000000E+00  0.80670774635E+03  0.80670774635E+03  0.00000000000E+00 0. -1.
         21   -1    0    0  501  503 -0.00000000000E+00 -0.00000000000E+00 -0.15257517168E+04  0.15257517168E+04  0.00000000000E+00 0. -1.
    9000010    2    1    2  501    0  0.24954709997E+03 -0.40216561931E+03 -0.27784715285E+03  0.11440395787E+04  0.10038010644E+04 0.  0.
   -9000010    2    1    2    0  502 -0.24954709997E+03  0.40216561931E+03 -0.44119681757E+03  0.11884198844E+04  0.99683311008E+03 0.  0.
        -13    1    3    3    0    0 -0.14960794056E+01 -0.53557800119E+03 -0.53767006182E+03  0.75890390706E+03  0.10566000000E+00 0.  1.
         13    1    4    4    0    0  0.81959309213E+02 -0.99492824637E+02 -0.56073118430E+03  0.57535695245E+03  0.10566000000E+00 0. -1.
          4    1    3    3  501    0  0.25104317938E+03  0.13341238188E+03  0.25982290897E+03  0.38513567165E+03  0.00000000000E+00 0.  1.
         -4    1    4    4    0  502 -0.33150640918E+03  0.50165844394E+03  0.11953436673E+03  0.61306293196E+03  0.00000000000E+00 0. -1.
</event>
<event>
 8    1  0.7008488E-006  0.1285108E+04  0.7818608E-02  0.8551227E-01
         21   -1    0    0  503  502  0.00000000000E+00  0.00000000000E+00  0.18478368159E+04  0.18478368159E+04  0.00000000000E+00 0.  1.
         21   -1    0    0  501  503 -0.00000000000E+00 -0.00000000000E+00 -0.87602942010E+03  0.87602942010E+03  0.00000000000E+00 0.  1.
    9000010    2    1    2  501    0  0.53965158802E+03  0.53105431367E+03  0.37619516669E+03  0.13390385148E+04  0.10383924211E+04 0.  0.
   -9000010    2    1    2    0  502 -0.53965158802E+03 -0.53105431367E+03  0.59561222910E+03  0.13848277212E+04  0.99486248771E+03 0.  0.
        -13    1    3    3    0    0 -0.60736009585E+02  0.12848809148E+03  0.57259923608E+03  0.58997283737E+03  0.10566000000E+00 0.  1.
         13    1    4    4    0    0 -0.17232351384E+03 -0.78406995844E+03  0.41386054232E+03  0.90318417435E+03  0.10566000000E+00 0. -1.
          4    1    3    3  501    0  0.60038759761E+03  0.40256622219E+03 -0.19640406939E+03  0.74906567742E+03  0.00000000000E+00 0.  1.
         -4    1    4    4    0  502 -0.36732807418E+03  0.25301564477E+03  0.18175168678E+03  0.48164354685E+03  0.00000000000E+00 0. -1.
</event>
<event>
 8    1  0.7008488E-006  0.1447271E+04  0.7818608E-02  0.8441839E-01
         21   -1    0    0  501  502  0.00000000000E+00  0.00000000000E+00  0.20710313124E+04  0.20710313124E+04  0.00000000000E+00 0. -1.
         21   -1    0    0  502  503 -0.00000000000E+00 -0.00000000000E+00 -0.10634280387E+04  0.10634280387E+04  0.00000000000E+00 0.  1.
   -9000010    2    1    2    0  503 -0.44883641543E+03  0.92520095612E+03  0.13856862242E+03  0.14538894235E+04  0.10184018145E+04 0.  0.
    9000010    2    1    2  501    0  0.44883641543E+03 -0.92520095612E+03  0.86903465125E+03  0.16805699276E+04  0.10058047124E+04 0.  0.
        -13    1    4    4    0    0  0.51041488544E+02  0.10202400545E+03  0.50905896756E+03  0.52168493831E+03  0.10566000000E+00 0.  1.
         13    1    3    3    0    0 -0.15007342412E+03  0.60816756117E+03 -0.41354962573E+03  0.75060849928E+03  0.10566000000E+00 0. -1.
          4    1    4    4  501    0  0.39779492688E+03 -0.10272249616E+04  0.35997568369E+03  0.11588849893E+04  0.00000000000E+00 0.  1.
         -4    1    3    3    0  503 -0.29876299130E+03  0.31703339495E+03  0.55211824815E+03  0.70328092426E+03  0.00000000000E+00 0. -1.
</event>
<event>
 8    1  0.7008488E-006  0.1088606E+04  0.7818608E-02  0.8697562E-01
         21   -1    0    0  503  502  0.00000000000E+00  0.00000000000E+00  0.12238898501E+04  0.12238898501E+04  0.00000000000E+00 0.  1.
         21   -1    0    0  501  503 -0.00000000000E+00 -0.00000000000E+00 -0.96021060640E+03  0.96021060640E+03  0.00000000000E+00 0.  1.
    9000010    2    1    2  501    0  0.57870126425E+02  0.43268174135E+03  0.15544169235E+03  0.10996478345E+04  0.99724660910E+03 0.  0.
   -9000010    2    1    2    0  502 -0.57870126425E+02 -0.43268174135E+03  0.10823755137E+03  0.10844526220E+04  0.98679262312E+03 0.  0.
        -13    1    3    3    0    0  0.49120784892E+03  0.23997387112E+02  0.45078357865E+02  0.49385533807E+03  0.10566000000E+00 0.  1.
         13    1    4    4    0    0 -0.36126391523E+03 -0.16678952775E+03  0.41703863192E+03  0.57641269477E+03  0.10566000000E+00 0. -1.
          4    1    3    3  501    0 -0.43333772249E+03  0.40868435424E+03  0.11036333448E+03  0.60579249643E+03  0.00000000000E+00 0.  1.
         -4    1    4    4    0  502  0.30339378880E+03 -0.26589221359E+03 -0.30880108055E+03  0.50803992725E+03  0.00000000000E+00 0. -1.
</event>
<event>
 8    1  0.7008488E-006  0.1404472E+04  0.7818608E-02  0.8467077E-01
         21   -1    0    0  501  502  0.00000000000E+00  0.00000000000E+00  0.18461724852E+04  0.18461724852E+04  0.00000000000E+00 0.  1.
         21   -1    0    0  502  503 -0.00000000000E+00 -0.00000000000E+00 -0.13921361998E+04  0.13921361998E+04  0.00000000000E+00 0.  1.
   -9000010    2    1    2    0  503 -0.20050528474E+03 -0.96264059969E+03  0.10098870641E+04  0.17278413794E+04  0.99934211200E+03 0.  0.
    9000010    2    1    2  501    0  0.20050528474E+03  0.96264059969E+03 -0.55585077876E+03  0.15104673055E+04  0.10028270535E+04 0.  0.
        -13    1    4    4    0    0 -0.43654018140E+02  0.94806650027E+03 -0.52129167253E+02  0.95050156417E+03  0.10566000000E+00 0.  1.
         13    1    3    3    0    0 -0.41592330419E+03 -0.37244182527E+03  0.24055905619E+02  0.55882359107E+03  0.10566000000E+00 0. -1.
          4    1    4    4  501    0  0.24415930288E+03  0.14574099418E+02 -0.50372161150E+03  0.55996574132E+03  0.00000000000E+00 0.  1.
         -4    1    3    3    0  503  0.21541801944E+03 -0.59019877442E+03  0.98583115851E+03  0.11690177884E+04  0.00000000000E+00 0. -1.
</event>
<event>
 8    1  0.7008488E-006  0.1194931E+04  0.7818608E-02  0.8625585E-01
         21   -1    0    0  501  502  0.00000000000E+00  0.00000000000E+00  0.12378855833E+04  0.12378855833E+04  0.00000000000E+00 0. -1.
         21   -1    0    0  502  503 -0.00000000000E+00 -0.00000000000E+00 -0.12890785399E+04  0.12890785399E+04  0.00000000000E+00 0. -1.
   -9000010    2    1    2    0  503 -0.33645492059E+03  0.40280704270E+03 -0.53367503860E+03  0.12383024206E+04  0.98647271162E+03 0.  0.
    9000010    2    1    2  501    0  0.33645492059E+03 -0.40280704270E+03  0.48248208199E+03  0.12886617026E+04  0.10735010932E+04 0.  0.
        -13    1    4    4    0    0  0.59794805554E+03 -0.58645454551E+03  0.19751547516E+03  0.86051332654E+03  0.10566000000E+00 0.  1.
         13    1    3    3    0    0 -0.36893920959E+03 -0.25222340679E+03 -0.11943172837E+03  0.46259781259E+03  0.10566000000E+00 0. -1.
          4    1    4    4  501    0 -0.26149313494E+03  0.18364750281E+03  0.28496660682E+03  0.42814837605E+03  0.00000000000E+00 0.  1.
         -4    1    3    3    0  503  0.32484289002E+02  0.65503044949E+03 -0.41424331023E+03  0.77570460799E+03  0.00000000000E+00 0. -1.
</event>
<event>
 8    1  0.7008488E-006  0.1427959E+04  0.7818608E-02  0.8455850E-01
         21   -1    0    0  503  502  0.00000000000E+00  0.00000000000E+00  0.16787764832E+04  0.16787764832E+04  0.00000000000E+00 0.  1.
         21   -1    0    0  501  503 -0.00000000000E+00 -0.00000000000E+00 -0.12600602590E+04  0.12600602590E+04  0.00000000000E+00 0. -1.
    9000010    2    1    2  501    0  0.41401930512E+03 -0.86275010530E+03  0.54602334943E+03  0.15287930962E+04  0.10598665499E+04 0.  0.
   -9000010    2    1    2    0  502 -0.41401930512E+03  0.86275010530E+03 -0.12730712523E+03  0.14100436461E+04  0.10277481454E+04 0.  0.
        -13    1    3    3    0    0  0.55093779205E+03 -0.94066330756E+03  0.14724730410E+03  0.11000280399E+04  0.10566000000E+00 0.  1.
         13    1    4    4    0    0  0.26236624294E+03  0.55687191947E+03 -0.23703905710E+03  0.65964377196E+03  0.10566000000E+00 0. -1.
          4    1    3    3  501    0 -0.13691848693E+03  0.77913202257E+02  0.39877604533E+03  0.42876505627E+03  0.00000000000E+00 0.  1.
         -4    1    4    4    0  502 -0.67638554806E+03  0.30587818584E+03  0.10973193188E+03  0.75039987411E+03  0.00000000000E+00 0. -1.
</event>
<event>
 8    1  0.7008488E-006  0.1224111E+04  0.7818608E-02  0.8592524E-01
         21   -1    0    0  501  502  0.00000000000E+00  0.00000000000E+00  0.12103497143E+04  0.12103497143E+04  0.00000000000E+00 0.  1.
         21   -1    0    0  502  503 -0.00000000000E+00 -0.00000000000E+00 -0.12403609152E+04  0.12403609152E+04  0.00000000000E+00 0.  1.
   -9000010    2    1    2    0  503 -0.27456911913E+02  0.66412894907E+03 -0.18357679038E+03  0.12170046590E+04  0.10027855000E+04 0.  0.
    9000010    2    1    2  501    0  0.27456911913E+02 -0.66412894907E+03  0.15356558950E+03  0.12337059705E+04  0.10279235810E+04 0.  0.
        -13    1    4    4    0    0 -0.38431889204E+02 -0.77941600740E+03  0.45570286339E+03  0.90367662002E+03  0.10566000000E+00 0.  1.
         13    1    3    3    0    0 -0.14355613030E+03  0.23537878849E+02 -0.48008074084E+03  0.50163724262E+03  0.10566000000E+00 0. -1.
          4    1    4    4  501    0  0.65888801117E+02  0.11528705833E+03 -0.30213727389E+03  0.33002935053E+03  0.00000000000E+00 0.  1.
         -4    1    3    3    0  503  0.11609921839E+03  0.64059107022E+03  0.29650395047E+03  0.71536741637E+03  0.00000000000E+00 0. -1.
</event>
<event>
 8    1  0.7008488E-006  0.1124208E+04  0.7818608E-02  0.8670267E-01
         21   -1    0    0  501  502  0.00000000000E+00  0.00000000000E+00  0.97421041906E+03  0.97421041906E+03  0.00000000000E+00 0. -1.
         21   -1    0    0  502  503 -0.00000000000E+00 -0.00000000000E+00 -0.12735362071E+04  0.12735362071E+04  0.00000000000E+00 0. -1.
   -9000010    2    1    2    0  503  0.33544788498E+03  0.33392548096E+03 -0.17180383108E+03  0.11372595918E+04  0.10197113869E+04 0.  0.
    9000010    2    1    2  501    0 -0.33544788498E+03 -0.33392548096E+03 -0.12752195699E+03  0.11104870343E+04  0.99643770180E+03 0.  0.
        -13    1    4    4    0    0 -0.37397602065E+03  0.25239560714E+03  0.12913274659E+03  0.46929402716E+03  0.10566000000E+00 0.  1.
         13    1    3    3    0    0 -0.32799303100E+03  0.31337754724E+03 -0.13135094532E+03  0.47226898850E+03  0.10566000000E+00 0. -1.
          4    1    4    4  501    0  0.38528135674E+02 -0.58632108810E+03 -0.25665470358E+03  0.64119300718E+03  0.00000000000E+00 0.  1.
         -4    1    3    3    0  503  0.66344091598E+03  0.20547933713E+02 -0.40452885761E+02  0.66499060335E+03  0.00000000000E+00 0. -1.
</event>
<event>
 8    1  0.7008488E-006  0.1221898E+04  0.7818608E-02  0.8591614E-01
         21   -1    0    0  501  502  0.00000000000E+00  0.00000000000E+00  0.98503811724E+03  0.98503811724E+03  0.00000000000E+00 0. -1.
         21   -1    0    0  502  503 -0.00000000000E+00 -0.00000000000E+00 -0.17788866131E+04  0.17788866131E+04  0.00000000000E+00 0. -1.
   -9000010    2    1    2    0  503  0.64561433154E+03  0.25331320682E+03  0.14274753126E+03  0.12302080363E+04  0.10060067142E+04 0.  0.
    9000010    2    1    2  501    0 -0.64561433154E+03 -0.25331320682E+03 -0.93659602708E+03  0.15337166940E+04  0.99704028693E+03 0.  0.
        -13    1    4    4    0    0 -0.16459447076E+03  0.15639190366E+02  0.20660331362E+03  0.26461455826E+03  0.10566000000E+00 0.  1.
         13    1    3    3    0    0  0.72791343529E+03  0.20612438591E+03 -0.27261125201E+03  0.80415305609E+03  0.10566000000E+00 0. -1.
          4    1    4    4  501    0 -0.48101986077E+03 -0.26895239719E+03 -0.11431993407E+04  0.12691021358E+04  0.00000000000E+00 0.  1.
         -4    1    3    3    0  503 -0.82299103748E+02  0.47188820910E+02  0.41535878327E+03  0.42605498018E+03  0.00000000000E+00 0. -1.
</event>
<event>
 7    1  0.7008488E-006  0.1129141E+04  0.7818608E-02  0.8731240E-01
         21   -1    0    0  503  502  0.00000000000E+00  0.00000000000E+00  0.81246896979E+03  0.81246896979E+03  0.00000000000E+00 0. -1.
         21   -1    0    0  501  503 -0.00000000000E+00 -0.00000000000E+00 -0.13599583663E+04  0.13599583663E+04  0.00000000000E+00 0.  1.
   -9000010    2    1    2    0  502  0.51528507265E+03  0.83839438478E+02  0.72530533701E+02  0.11314680122E+04  0.10012049874E+04 0.  0.
        -13    1    1    2    0    0  0.13348226101E+03 -0.53410847547E+02 -0.26322120997E+03  0.29992607286E+03  0.10566000000E+00 0.  1.
         13    1    3    3    0    0  0.17369619479E+03  0.39553020252E+03 -0.30969063859E+03  0.53152874991E+03  0.10566000000E+00 0. -1.
          4    1    1    2  501    0 -0.64876733366E+03 -0.30428590931E+02 -0.35679872022E+03  0.74103325102E+03  0.00000000000E+00 0.  1.
         -4    1    3    3    0  502  0.34158887787E+03 -0.31169076404E+03  0.38222117229E+03  0.59993926227E+03  0.00000000000E+00 0. -1.
</event>
<event>
 8    1  0.7008488E-006  0.1153084E+04  0.7818608E-02  0.8648448E-01
         21   -1    0    0  503  502  0.00000000000E+00  0.00000000000E+00  0.88637664265E+03  0.88637664265E+03  0.00000000000E+00 0.  1.
         21   -1    0    0  501  503 -0.00000000000E+00 -0.00000000000E+00 -0.19671918548E+04  0.19671918548E+04  0.00000000000E+00 0.  1.
    9000010    2    1    2  501    0  0.51561902324E+03 -0.22354589299E+03 -0.12574746402E+04  0.16870308165E+04  0.97416362172E+03 0.  0.
   -9000010    2    1    2    0  502 -0.51561902324E+03  0.22354589299E+03  0.17665942800E+03  0.11665376809E+04  0.10068594063E+04 0.  0.
        -13    1    3    3    0    0  0.44004527305E+03 -0.37249704819E+03 -0.19069538657E+03  0.60725499987E+03  0.10566000000E+00 0.  1.
         13    1    4    4    0    0 -0.91540639600E+02 -0.25925876023E+03  0.40073282600E+03  0.48598518748E+03  0.10566000000E+00 0. -1.
          4    1    3    3  501    0  0.75573750190E+02  0.14895115520E+03 -0.10667792536E+04  0.10797758167E+04  0.00000000000E+00 0.  1.
         -4    1    4    4    0  502 -0.42407838364E+03  0.48280465322E+03 -0.22407339800E+03  0.68055249344E+03  0.00000000000E+00 0. -1.
</event>
<event>
 8    1  0.7008488E-006  0.1497905E+04  0.7818608E-02  0.8420704E-01
         21   -1    0    0  503  502  0.00000000000E+00  0.00000000000E+00  0.92513188996E+03  0.92513188996E+03  0.00000000000E+00 0. -1.
         21   -1    0    0  501  503 -0.00000000000E+00 -0.00000000000E+00 -0.24531812682E+04  0.24531812682E+04  0.00000000000E+00 0.  1.
    9000010    2    1    2  501    0 -0.57009647445E+03  0.87769614178E+03 -0.11787407755E+04  0.19060825270E+04  0.10716157318E+04 0.  0.
   -9000010    2    1    2    0  502  0.57009647445E+03 -0.87769614178E+03 -0.34930860279E+03  0.14722306311E+04  0.97472356275E+03 0.  0.
        -13    1    3    3    0    0  0.10277322010E+03 -0.32471228887E+02 -0.64629424637E+03  0.65521979483E+03  0.10566000000E+00 0.  1.
         13    1    4    4    0    0 -0.12684111999E+03  0.12003924850E+03  0.65382837068E+02  0.18647524621E+03  0.10566000000E+00 0. -1.
          4    1    3    3  501    0 -0.67286969456E+03  0.91016737067E+03 -0.53244652909E+03  0.12508627322E+04  0.00000000000E+00 0.  1.
         -4    1    4    4    0  502  0.69693759444E+03 -0.99773539028E+03 -0.41469143986E+03  0.12857553849E+04  0.00000000000E+00 0. -1.
</event>
<event>
 8    1  0.7008488E-006  0.1082927E+04  0.7818608E-02  0.8704247E-01
         21   -1    0    0  503  502  0.00000000000E+00  0.00000000000E+00  0.56097701571E+03  0.56097701571E+03  0.00000000000E+00 0. -1.
         21   -1    0    0  501  503 -0.00000000000E+00 -0.00000000000E+00 -0.20787506637E+04  0.20787506637E+04  0.00000000000E+00 0. -1.
    9000010    2    1    2  501    0 -0.10136046666E+03  0.36572889453E+03 -0.62633179660E+03  0.12510088023E+04  0.10142484585E+04 0.  0.
   -9000010    2    1    2    0  502  0.10136046666E+03 -0.36572889453E+03 -0.89144185137E+03  0.13887188771E+04  0.99490701910E+03 0.  0.
        -13    1    3    3    0    0  0.22196938212E+03  0.74188370308E+02  0.20594001996E+03  0.31174608879E+03  0.10566000000E+00 0.  1.
         13    1    4    4    0    0 -0.10697914772E+03  0.32484806209E+03 -0.32165051449E+03  0.46949959119E+03  0.10566000000E+00 0. -1.
          4    1    3    3  501    0 -0.32332984879E+03  0.29154052422E+03 -0.83227181657E+03  0.93926271353E+03  0.00000000000E+00 0.  1.
         -4    1    4    4    0  502  0.20833961438E+03 -0.69057695662E+03 -0.56979133688E+03  0.91921928588E+03  0.00000000000E+00 0. -1.
</event>
<event>
 8    1  0.7008488E-006  0.1306474E+04  0.7818608E-02  0.8536218E-01
         21   -1    0    0  501  502  0.00000000000E+00  0.00000000000E+00  0.95322739906E+03  0.95322739906E+03  0.00000000000E+00 0. -1.
         21   -1    0    0  502  503 -0.00000000000E+00 -0.00000000000E+00 -0.18129082061E+04  0.18129082061E+04  0.00000000000E+00 0.  1.
   -9000010    2    1    2    0  503  0.37619027536E+03 -0.72480100690E+03 -0.16724128415E+03  0.13171350714E+04  0.10198134763E+04 0.  0.
    9000010    2    1    2  501    0 -0.37619027536E+03  0.72480100690E+03 -0.69243952288E+03  0.14490005337E+04  0.97635773719E+03 0.  0.
        -13    1    4    4    0    0 -0.14067130841E+03  0.42441468677E+03  0.19131886614E+03  0.48633235865E+03  0.10566000000E+00 0.  1.
         13    1    3    3    0    0  0.70964361352E+03 -0.38124694318E+03  0.12691620729E+02  0.80567014236E+03  0.10566000000E+00 0. -1.
          4    1    4    4  501    0 -0.23551896695E+03  0.30038632012E+03 -0.88375838903E+03  0.96266817507E+03  0.00000000000E+00 0.  1.
         -4    1    3    3    0  503 -0.33345333815E+03 -0.34355406372E+03 -0.17993290488E+03  0.51146492908E+03  0.00000000000E+00 0. -1.
</event>
<event>
 8    1  0.7008488E-006  0.1112858E+04  0.7818608E-02  0.8684879E-01
         21   -1    0    0  503  502  0.00000000000E+00  0.00000000000E+00  0.76134713666E+03  0.76134713666E+03  0.00000000000E+00 0. -1.
         21   -1    0    0  501  503 -0.00000000000E+00 -0.00000000000E+00 -0.15649265051E+04  0.15649265051E+04  0.00000000000E+00 0. -1.
    9000010    2    1    2  501    0  0.26482405708E+03  0.24916222679E+03 -0.33184154216E+03  0.11175592996E+04  0.10032977537E+04 0.  0.
   -9000010    2    1    2    0  502 -0.26482405708E+03 -0.24916222679E+03 -0.47173782629E+03  0.12087143421E+04  0.10517795338E+04 0.  0.
        -13    1    3    3    0    0  0.18266506591E+03  0.29729032502E+03 -0.67585568258E+03  0.76061092452E+03  0.10566000000E+00 0.  1.
         13    1    4    4    0    0  0.14395039504E+03 -0.19178773921E+03 -0.69796131168E+03  0.73800694910E+03  0.10566000000E+00 0. -1.
          4    1    3    3  501    0  0.82158991177E+02 -0.48128098236E+02  0.34401414043E+03  0.35694837510E+03  0.00000000000E+00 0.  1.
         -4    1    4    4    0  502 -0.40877445212E+03 -0.57374487574E+02  0.22622348539E+03  0.47070739305E+03  0.00000000000E+00 0. -1.
</event>
<event>
 8    1  0.7008488E-006  0.1387412E+04  0.7818608E-02  0.8486148E-01
         21   -1    0    0  503  502  0.00000000000E+00  0.00000000000E+00  0.18851721448E+04  0.18851721448E+04  0.00000000000E+00 0.  1.
         21   -1    0    0  501  503 -0.00000000000E+00 -0.00000000000E+00 -0.10329972839E+04  0.10329972839E+04  0.00000000000E+00 0.  1.
    9000010    2    1    2  501    0  0.41024474580E+03  0.77065165027E+03  0.10856509778E+03  0.13916527996E+04  0.10782886519E+04 0.  0.
   -9000010    2    1    2    0  502 -0.41024474580E+03 -0.77065165027E+03  0.74360976305E+03  0.15265166290E+04  0.10075181494E+04 0.  0.
        -13    1    3    3    0    0  0.13254582620E+03  0.92783728246E+03  0.34047543361E+03  0.99718300768E+03  0.10566000000E+00 0.  1.
         13    1    4    4    0    0 -0.34769622383E+03 -0.27200613700E+03  0.89811840527E+03  0.10007480620E+04  0.10566000000E+00 0. -1.
          4    1    3    3  501    0  0.27769891960E+03 -0.15718563219E+03 -0.23191033582E+03  0.39446979197E+03  0.00000000000E+00 0.  1.
         -4    1    4    4    0  502 -0.62548521968E+02 -0.49864551327E+03 -0.15450864222E+03  0.52576856698E+03  0.00000000000E+00 0. -1.
</event>
<event>
 8    1  0.7008488E-006  0.1023622E+04  0.7818608E-02  0.8754375E-01
         21   -1    0    0  503  502  0.00000000000E+00  0.00000000000E+00  0.11972830625E+04  0.11972830625E+04  0.00000000000E+00 0.  1.
         21   -1    0    0  501  503 -0.00000000000E+00 -0.00000000000E+00 -0.87681494149E+03  0.87681494149E+03  0.00000000000E+00 0.  1.
    9000010    2    1    2  501    0  0.16644536052E+03  0.79380780652E+02  0.25904808345E+03  0.10558918236E+04  0.10068745042E+04 0.  0.
   -9000010    2    1    2    0  502 -0.16644536052E+03 -0.79380780652E+02  0.61420037597E+02  0.10182061805E+04  0.99948288556E+03 0.  0.
        -13    1    3    3    0    0  0.12100900706E+03 -0.36824954416E+03  0.42602562170E+03  0.57597634333E+03  0.10566000000E+00 0.  1.
         13    1    4    4    0    0  0.51689037320E+02  0.11288166591E+03  0.48711256688E+03  0.50268547925E+03  0.10566000000E+00 0. -1.
          4    1    3    3  501    0  0.45436353460E+02  0.44763032481E+03 -0.16697753825E+03  0.47991548025E+03  0.00000000000E+00 0.  1.
         -4    1    4    4    0  502 -0.21813439784E+03 -0.19226244656E+03 -0.42569252928E+03  0.51552070120E+03  0.00000000000E+00 0. -1.
</event>
<event>
 8    1  0.7008488E-006  0.1055924E+04  0.7818608E-02  0.8724640E-01
         21   -1    0    0  503  502  0.00000000000E+00  0.00000000000E+00  0.12872401446E+04  0.12872401446E+04  0.00000000000E+00 0.  1.
         21   -1    0    0  501  503 -0.00000000000E+00 -0.00000000000E+00 -0.89515893823E+03  0.89515893823E+03  0.00000000000E+00 0.  1.
    9000010    2    1    2  501    0  0.28172333874E+03  0.13372050954E+03 -0.11593160084E+02  0.10519440333E+04  0.10045907791E+04 0.  0.
   -9000010    2    1    2    0  502 -0.28172333874E+03 -0.13372050954E+03  0.40367436642E+03  0.11304550495E+04  0.10088242714E+04 0.  0.
        -13    1    3    3    0    0 -0.36529916199E+03 -0.73079719950E+02 -0.10119785745E+02  0.37267485084E+03  0.10566000000E+00 0.  1.
         13    1    4    4    0    0 -0.44133446932E+01  0.41376731729E+03  0.36752552229E+02  0.41541982587E+03  0.10566000000E+00 0. -1.
          4    1    3    3  501    0  0.64702250074E+03  0.20680022949E+03 -0.14733743391E+01  0.67926918244E+03  0.00000000000E+00 0.  1.
         -4    1    4    4    0  502 -0.27730999405E+03 -0.54748782683E+03  0.36692181419E+03  0.71503522364E+03  0.00000000000E+00 0. -1.
</event>
<event>
 8    1  0.7008488E-006  0.1165858E+04  0.7818608E-02  0.8640340E-01
         21   -1    0    0  503  502  0.00000000000E+00  0.00000000000E+00  0.22075349658E+04  0.22075349658E+04  0.00000000000E+00 0. -1.
         21   -1    0    0  501  503 -0.00000000000E+00 -0.00000000000E+00 -0.59882191665E+03  0.59882191665E+03  0.00000000000E+00 0.  1.
    9000010    2    1    2  501    0 -0.54697327259E+03  0.19470076791E+03  0.68837416505E+03  0.13210120348E+04  0.96650176150E+03 0.  0.
   -9000010    2    1    2    0  502  0.54697327259E+03 -0.19470076791E+03  0.92033888412E+03  0.14853448477E+04  0.10110081627E+04 0.  0.
        -13    1    3    3    0    0 -0.19104397987E+03 -0.34268467278E+03  0.52617895224E+03  0.65634966911E+03  0.10566000000E+00 0.  1.
         13    1    4    4    0    0  0.38308683129E+03  0.13952833209E+03  0.10212814200E+04  0.10996542301E+04  0.10566000000E+00 0. -1.
          4    1    3    3  501    0 -0.35592929271E+03  0.53738544069E+03  0.16219521282E+03  0.66466236567E+03  0.00000000000E+00 0.  1.
         -4    1    4    4    0  502  0.16388644130E+03 -0.33422910000E+03 -0.10094253590E+03  0.38569061757E+03  0.00000000000E+00 0. -1.
</event>
<event>
 8    1  0.7008488E-006  0.1148714E+04  0.7818608E-02  0.8661447E-01
         21   -1    0    0  501  502  0.00000000000E+00  0.00000000000E+00  0.61489137414E+03  0.61489137414E+03  0.00000000000E+00 0.  1.
         21   -1    0    0  502  503 -0.00000000000E+00 -0.00000000000E+00 -0.21478948072E+04  0.21478948072E+04  0.00000000000E+00 0.  1.
   -9000010    2    1    2    0  503 -0.26590203404E+03 -0.35704560280E+03 -0.39251662808E+03  0.11440666282E+04  0.97807652676E+03 0.  0.
    9000010    2    1    2  501    0  0.26590203404E+03  0.35704560280E+03 -0.11404868050E+04  0.16187195532E+04  0.10589416345E+04 0.  0.
        -13    1    4    4    0    0 -0.40873231591E+03  0.13182852576E+03 -0.52386205105E+03  0.67740115587E+03  0.10566000000E+00 0.  1.
         13    1    3    3    0    0  0.11105461661E+03  0.13463401417E+03  0.21461825210E+03  0.27662330152E+03  0.10566000000E+00 0. -1.
          4    1    4    4  501    0  0.67463434995E+03  0.22521707703E+03 -0.61662475393E+03  0.94131839729E+03  0.00000000000E+00 0.  1.
         -4    1    3    3    0  503 -0.37695665065E+03 -0.49167961697E+03 -0.60713488019E+03  0.86744332665E+03  0.00000000000E+00 0. -1.
</event>
<event>
 8    1  0.7008488E-006  0.1067793E+04  0.7818608E-02  0.8716541E-01
         21   -1    0    0  501  502  0.00000000000E+00  0.00000000000E+00  0.10932052219E+04  0.10932052219E+04  0.00000000000E+00 0.  1.
         21   -1    0    0  502  503 -0.00000000000E+00 -0.00000000000E+00 -0.10475847272E+04  0.10475847272E+04  0.00000000000E+00 0.  1.
   -9000010    2    1    2    0  503  0.36372144987E+03  0.10964312109E+03  0.16569289131E+03  0.10662672556E+04  0.98242395074E+03 0.  0.
    9000010    2    1    2  501    0 -0.36372144987E+03 -0.10964312109E+03 -0.12007239661E+03  0.10745226934E+04  0.99793122568E+03 0.  0.
        -13    1    4    4    0    0  0.95980684167E+02  0.36148954734E+03 -0.17706587419E+03  0.41381072912E+03  0.10566000000E+00 0.  1.
         13    1    3    3    0    0  0.39190241696E+03  0.48116326011E+03 -0.71365421345E+02  0.62465880433E+03  0.10566000000E+00 0. -1.
          4    1    4    4  501    0 -0.45970213404E+03 -0.47113266843E+03  0.56993477584E+02  0.66071196432E+03  0.00000000000E+00 0.  1.
         -4    1    3    3    0  503 -0.28180967085E+02 -0.37152013903E+03  0.23705831266E+03  0.44160845124E+03  0.00000000000E+00 0. -1.
</event>
<event>
 8    1  0.7008488E-006  0.1036254E+04  0.7818608E-02  0.8741298E-01
         21   -1    0    0  501  502  0.00000000000E+00  0.00000000000E+00  0.81878090009E+03  0.81878090009E+03  0.00000000000E+00 0.  1.
         21   -1    0    0  502  503 -0.00000000000E+00 -0.00000000000E+00 -0.13232147162E+04  0.13232147162E+04  0.00000000000E+00 0.  1.
   -9000010    2    1    2    0  503  0.17896585430E+02  0.30569341804E+03 -0.15035711644E+03  0.10471058256E+04  0.98997706739E+03 0.  0.
    9000010    2    1    2  501    0 -0.17896585430E+02 -0.30569341804E+03 -0.35407669964E+03  0.10948897907E+04  0.98976996865E+03 0.  0.
        -13    1    4    4    0    0  0.18098221587E+03 -0.60737257312E+03 -0.74708152756E+02  0.63815149008E+03  0.10566000000E+00 0.  1.
         13    1    3    3    0    0 -0.33862728216E+03 -0.63446415831E+02  0.22482632190E+03  0.41138883078E+03  0.10566000000E+00 0. -1.
          4    1    4    4  501    0 -0.19887880130E+03  0.30167915509E+03 -0.27936854688E+03  0.45673830057E+03  0.00000000000E+00 0.  1.
         -4    1    3    3    0  503  0.35652386759E+03  0.36913983387E+03 -0.37518343834E+03  0.63571699483E+03  0.00000000000E+00 0. -1.
</event>
<event>
 8    1  0.7008488E-006  0.1428345E+04  0.7818608E-02  0.8454028E-01
         21   -1    0    0  501  502  0.00000000000E+00  0.00000000000E+00  0.94387028055E+03  0.94387028055E+03  0.00000000000E+00 0. -1.
         21   -1    0    0  502  503 -0.00000000000E+00 -0.00000000000E+00 -0.23224069692E+04  0.23224069692E+04  0.00000000000E+00 0.  1.
   -9000010    2    1    2    0  503  0.41358430481E+03  0.92972400858E+03 -0.11424203233E+04  0.18185481210E+04  0.98313496727E+03 0.  0.
    9000010    2    1    2  501    0 -0.41358430481E+03 -0.92972400858E+03 -0.23611636532E+03  0.14477291288E+04  0.10023622015E+04 0.  0.
        -13    1    4    4    0    0 -0.36009229554E+03 -0.11248820699E+04 -0.65300943956E+02  0.11829160397E+04  0.10566000000E+00 0.  1.
         13    1    3    3    0    0  0.55320616312E+03  0.60555460328E+03 -0.12074176746E+04  0.14596543730E+04  0.10566000000E+00 0. -1.
          4    1    4    4  501    0 -0.53492009264E+02  0.19515806135E+03 -0.17081542136E+03  0.26481308906E+03  0.00000000000E+00 0.  1.
         -4    1    3    3    0  503 -0.13962185831E+03  0.32416940530E+03  0.64997351315E+02  0.35889374797E+03  0.00000000000E+00 0. -1.
</event>
<event>
 8    1  0.7008488E-006  0.1449933E+04  0.7818608E-02  0.8441581E-01
         21   -1    0    0  501  502  0.00000000000E+00  0.00000000000E+00  0.15333208026E+04  0.15333208026E+04  0.00000000000E+00 0.  1.
         21   -1    0    0  502  503 -0.00000000000E+00 -0.00000000000E+00 -0.16437976825E+04  0.16437976825E+04  0.00000000000E+00 0.  1.
   -9000010    2    1    2    0  503  0.10370484330E+04  0.11030293483E+03 -0.72150803350E+03  0.16036943513E+04  0.98164430437E+03 0.  0.
    9000010    2    1    2  501    0 -0.10370484330E+04 -0.11030293483E+03  0.61103115363E+03  0.15734241338E+04  0.10073074229E+04 0.  0.
        -13    1    4    4    0    0 -0.11497439331E+03 -0.27433494493E+02 -0.27042120935E+03  0.29512598897E+03  0.10566000000E+00 0.  1.
         13    1    3    3    0    0  0.90034020316E+03 -0.20077986996E+03 -0.14398747932E+03  0.93362596525E+03  0.10566000000E+00 0. -1.
          4    1    4    4  501    0 -0.92207403967E+03 -0.82869440334E+02  0.88145236298E+03  0.12782981448E+04  0.00000000000E+00 0.  1.
         -4    1    3    3    0  503  0.13670822982E+03  0.31108280479E+03 -0.57752055417E+03  0.67006838608E+03  0.00000000000E+00 0. -1.
</event>
<event>
 8    1  0.7008488E-006  0.1039346E+04  0.7818608E-02  0.8747989E-01
         21   -1    0    0  503  502  0.00000000000E+00  0.00000000000E+00  0.74007592244E+03  0.74007592244E+03  0.00000000000E+00 0. -1.
         21   -1    0    0  501  503 -0.00000000000E+00 -0.00000000000E+00 -0.15236286058E+04  0.15236286058E+04  0.00000000000E+00 0. -1.
    9000010    2    1    2  501    0 -0.25984869182E+03  0.55861393960E+02 -0.70430043546E+03  0.12213413209E+04  0.96176591791E+03 0.  0.
   -9000010    2    1    2    0  502  0.25984869182E+03 -0.55861393960E+02 -0.79252247881E+02  0.10423632073E+04  0.10047876886E+04 0.  0.
        -13    1    3    3    0    0  0.47659044045E+02 -0.28123076040E+03 -0.70986173099E+03  0.76502667493E+03  0.10566000000E+00 0.  1.
         13    1    4    4    0    0  0.13608824320E+03  0.47253111259E+03 -0.88262533247E+02  0.49959578485E+03  0.10566000000E+00 0. -1.
          4    1    3    3  501    0 -0.30750773587E+03  0.33709215436E+03  0.55612955298E+01  0.45631464600E+03  0.00000000000E+00 0.  1.
         -4    1    4    4    0  502  0.12376044862E+03 -0.52839250655E+03  0.90102853665E+01  0.54276742244E+03  0.00000000000E+00 0. -1.
</event>
<event>
 8    1  0.7008488E-006  0.1163825E+04  0.7818608E-02  0.8662983E-01
         21   -1    0    0  501  502  0.00000000000E+00  0.00000000000E+00  0.52104383153E+03  0.52104383153E+03  0.00000000000E+00 0.  1.
         21   -1    0    0  502  503 -0.00000000000E+00 -0.00000000000E+00 -0.24606359741E+04  0.24606359741E+04  0.00000000000E+00 0.  1.
   -9000010    2    1    2    0  503 -0.48365504717E+03 -0.28767435123E+03 -0.53463081139E+03  0.11572880078E+04  0.85837444709E+03 0.  0.
    9000010    2    1    2  501    0  0.48365504717E+03  0.28767435123E+03 -0.14049613312E+04  0.18243917979E+04  0.10187297743E+04 0.  0.
        -13    1    4    4    0    0  0.27410916559E+03  0.67140137432E+03 -0.83258979756E+03  0.11041383166E+04  0.10566000000E+00 0.  1.
         13    1    3    3    0    0  0.12234129318E+03  0.13390835691E+03  0.78516914221E+02  0.19764553385E+03  0.10566000000E+00 0. -1.
          4    1    4    4  501    0  0.20954588158E+03 -0.38372702309E+03 -0.57237153362E+03  0.72025348123E+03  0.00000000000E+00 0.  1.
         -4    1    3    3    0  503 -0.60599634035E+03 -0.42158270814E+03 -0.61314772561E+03  0.95964247391E+03  0.00000000000E+00 0. -1.
</event>
<event>
 8    1  0.7008488E-006  0.1052796E+04  0.7818608E-02  0.8728638E-01
         21   -1    0    0  501  502  0.00000000000E+00  0.00000000000E+00  0.98795306835E+03  0.98795306835E+03  0.00000000000E+00 0. -1.
         21   -1    0    0  502  503 -0.00000000000E+00 -0.00000000000E+00 -0.12333559478E+04  0.12333559478E+04  0.00000000000E+00 0. -1.
   -9000010    2    1    2    0  503 -0.27588888453E+03  0.10578297203E+03 -0.47104358486E+03  0.11446041036E+04  0.10004657822E+04 0.  0.
    9000010    2    1    2  501    0  0.27588888453E+03 -0.10578297203E+03  0.22564070539E+03  0.10767049126E+04  0.10104825714E+04 0.  0.
        -13    1    4    4    0    0  0.46105142820E+03  0.31641811213E+03  0.25534916278E+03  0.61472924709E+03  0.10566000000E+00 0.  1.
         13    1    3    3    0    0  0.16907132041E+03 -0.34107103378E+03 -0.31717494693E+03  0.49549421752E+03  0.10566000000E+00 0. -1.
          4    1    4    4  501    0 -0.18516254367E+03 -0.42220108416E+03 -0.29708457388E+02  0.46197566547E+03  0.00000000000E+00 0.  1.
         -4    1    3    3    0  503 -0.44496020494E+03  0.44685400580E+03 -0.15386863793E+03  0.64910988609E+03  0.00000000000E+00 0. -1.
</event>
<event>
 8    1  0.7008488E-006  0.1157933E+04  0.7818608E-02  0.8639839E-01
         21   -1    0    0  501  502  0.00000000000E+00  0.00000000000E+00  0.94312936137E+03  0.94312936137E+03  0.00000000000E+00 0. -1.
         21   -1    0    0  502  503 -0.00000000000E+00 -0.00000000000E+00 -0.14164990747E+04  0.14164990747E+04  0.00000000000E+00 0. -1.
   -9000010    2    1    2    0  503  0.59166170592E+02 -0.57759962941E+03 -0.21420283768E+03  0.11730469802E+04  0.99651111104E+03 0.  0.
    9000010    2    1    2  501    0 -0.59166170592E+02  0.57759962941E+03 -0.25916687565E+03  0.11865814559E+04  0.10018413619E+04 0.  0.
        -13    1    4    4    0    0  0.20088174747E+03 -0.76457220255E+02 -0.41347750709E+03  0.46600734225E+03  0.10566000000E+00 0.  1.
         13    1    3    3    0    0 -0.18125798517E+01  0.23607562197E+03  0.14978054360E+03  0.27958756614E+03  0.10566000000E+00 0. -1.
          4    1    4    4  501    0 -0.26004791806E+03  0.65405684966E+03  0.15431063144E+03  0.72057411364E+03  0.00000000000E+00 0.  1.
         -4    1    3    3    0  503  0.60978750444E+02 -0.81367525138E+03 -0.36398338127E+03  0.89345941405E+03  0.00000000000E+00 0. -1.
</event>
<event>
 8    1  0.7008488E-006  0.1086984E+04  0.7818608E-02  0.8697668E-01
         21   -1    0    0  501  502  0.00000000000E+00  0.00000000000E+00  0.13041600782E+04  0.13041600782E+04  0.00000000000E+00 0. -1.
         21   -1    0    0  502  503 -0.00000000000E+00 -0.00000000000E+00 -0.90300141128E+03  0.90300141128E+03  0.00000000000E+00 0. -1.
   -9000010    2    1    2    0  503 -0.15529535030E+03 -0.40129635540E+03  0.20746927693E+03  0.11066068739E+04  0.99818828974E+03 0.  0.
    9000010    2    1    2  501    0  0.15529535030E+03  0.40129635540E+03  0.19368938997E+03  0.11005546156E+04  0.99425825187E+03 0.  0.
        -13    1    4    4    0    0  0.23020516247E+03  0.20408762972E+02 -0.35791919180E+03  0.42604822902E+03  0.10566000000E+00 0.  1.
         13    1    3    3    0    0 -0.20463805091E+02 -0.45061349034E+03  0.56403480309E+03  0.72222334168E+03  0.10566000000E+00 0. -1.
          4    1    4    4  501    0 -0.74909812171E+02  0.38088759243E+03  0.55160858177E+03  0.67450638656E+03  0.00000000000E+00 0.  1.
         -4    1    3    3    0  503 -0.13483154521E+03  0.49317134944E+02 -0.35656552617E+03  0.38438353221E+03  0.00000000000E+00 0. -1.
</event>
<event>
 8    1  0.7008488E-006  0.1278601E+04  0.7818608E-02  0.8552915E-01
         21   -1    0    0  501  502  0.00000000000E+00  0.00000000000E+00  0.94592897727E+03  0.94592897727E+03  0.00000000000E+00 0.  1.
         21   -1    0    0  502  503 -0.00000000000E+00 -0.00000000000E+00 -0.18191918798E+04  0.18191918798E+04  0.00000000000E+00 0.  1.
   -9000010    2    1    2    0  503 -0.49750831027E+03 -0.62313582099E+03 -0.78911123733E+03  0.15025036869E+04  0.99950388395E+03 0.  0.
    9000010    2    1    2  501    0  0.49750831027E+03  0.62313582099E+03 -0.84151665177E+02  0.12626171702E+04  0.97535011428E+03 0.  0.
        -13    1    4    4    0    0 -0.16602724492E+03 -0.51697555160E+00 -0.28525946757E+03  0.33005800751E+03  0.10566000000E+00 0.  1.
         13    1    3    3    0    0 -0.55002318767E+03 -0.79622256846E+03 -0.35253390789E+03  0.10299398297E+04  0.10566000000E+00 0. -1.
          4    1    4    4  501    0  0.66353555519E+03  0.62365279654E+03  0.20110780240E+03  0.93255916264E+03  0.00000000000E+00 0.  1.
         -4    1    3    3    0  503  0.52514877400E+02  0.17308674747E+03 -0.43657732944E+03  0.47256385715E+03  0.00000000000E+00 0. -1.
</event>
<event>
 8    1  0.7008488E-006  0.1371013E+04  0.7818608E-02  0.8489501E-01
         21   -1    0    0  501  502  0.00000000000E+00  0.00000000000E+00  0.16258389472E+04  0.16258389472E+04  0.00000000000E+00 0. -1.
         21   -1    0    0  502  503 -0.00000000000E+00 -0.00000000000E+00 -0.11683127301E+04  0.11683127301E+04  0.00000000000E+00 0.  1.
   -9000010    2    1    2    0  503 -0.80756249155E+03  0.48774388143E+03  0.42707972239E+02  0.13716777107E+04  0.99479872316E+03 0.  0.
    9000010    2    1    2  501    0  0.80756249155E+03 -0.48774388143E+03  0.41481824481E+03  0.14224739666E+04  0.98046251211E+03 0.  0.
        -13    1    4    4    0    0  0.63173116571E+03  0.13323265164E+03 -0.17162321918E+02  0.64585583658E+03  0.10566000000E+00 0.  1.
         13    1    3    3    0    0 -0.10046854038E+04  0.57137346005E+03  0.16144025387E+02  0.11559070171E+04  0.10566000000E+00 0. -1.
          4    1    4    4  501    0  0.17583132584E+03 -0.62097653307E+03  0.43198056673E+03  0.77661812997E+03  0.00000000000E+00 0.  1.
         -4    1    3    3    0  503  0.19712291226E+03 -0.83629578620E+02  0.26563946852E+02  0.21577069363E+03  0.00000000000E+00 0. -1.
</event>
<event>
 8    1  0.7008488E-006  0.1043570E+04  0.7818608E-02  0.8737164E-01
         21   -1    0    0  501  502  0.00000000000E+00  0.00000000000E+00  0.32547907604E+03  0.32547907604E+03  0.00000000000E+00 0. -1.
         21   -1    0    0  502  503 -0.00000000000E+00 -0.00000000000E+00 -0.33157997892E+04  0.33157997892E+04  0.00000000000E+00 0. -1.
   -9000010    2    1    2    0  503  0.45420290834E+02 -0.24840124742E+03 -0.15738720527E+04  0.18884152609E+04  0.10125575425E+04 0.  0.
    9000010    2    1    2  501    0 -0.45420290834E+02  0.24840124742E+03 -0.14164486605E+04  0.17528636043E+04  0.10012181706E+04 0.  0.
        -13    1    4    4    0    0  0.20046191520E+03  0.26944777823E+03 -0.21794883058E+02  0.33654436963E+03  0.10566000000E+00 0.  1.
         13    1    3    3    0    0  0.30319679481E+03  0.26343923792E+03 -0.33354951239E+03  0.52209560124E+03  0.10566000000E+00 0. -1.
          4    1    4    4  501    0 -0.24588220603E+03 -0.21046530805E+02 -0.13946537774E+04  0.14163192347E+04  0.00000000000E+00 0.  1.
         -4    1    3    3    0  503 -0.25777650397E+03 -0.51184048535E+03 -0.12403225403E+04  0.13663196596E+04  0.00000000000E+00 0. -1.
</event>
<event>
 8    1  0.7008488E-006  0.1141205E+04  0.7818608E-02  0.8656531E-01
         21   -1    0    0  503  502  0.00000000000E+00  0.00000000000E+00  0.15836084156E+04  0.15836084156E+04  0.00000000000E+00 0. -1.
         21   -1    0    0  501  503 -0.00000000000E+00 -0.00000000000E+00 -0.84291626330E+03  0.84291626330E+03  0.00000000000E+00 0. -1.
    9000010    2    1    2  501    0  0.50324134651E+03 -0.68383326281E+01  0.12338342804E+03  0.11478553510E+04  0.10242313317E+04 0.  0.
   -9000010    2    1    2    0  502 -0.50324134651E+03  0.68383326281E+01  0.61730872429E+03  0.12786693279E+04  0.10003132377E+04 0.  0.
        -13    1    3    3    0    0  0.23032085991E+03 -0.16560993600E+03  0.54896927478E+03  0.61793335015E+03  0.10566000000E+00 0.  1.
         13    1    4    4    0    0 -0.72826935260E+03 -0.83752347865E+02  0.70852397672E+03  0.10195081866E+04  0.10566000000E+00 0. -1.
          4    1    3    3  501    0  0.27292048660E+03  0.15877160337E+03 -0.42558584674E+03  0.52992200085E+03  0.00000000000E+00 0.  1.
         -4    1    4    4    0  502  0.22502800609E+03  0.90590680493E+02 -0.91215252436E+02  0.25916114136E+03  0.00000000000E+00 0. -1.
</event>
<event>
 8    1  0.7008488E-006  0.1081962E+04  0.7818608E-02  0.8711385E-01
         21   -1    0    0  501  502  0.00000000000E+00  0.00000000000E+00  0.12546823519E+04  0.12546823519E+04  0.00000000000E+00 0.  1.
         21   -1    0    0  502  503 -0.00000000000E+00 -0.00000000000E+00 -0.89806004974E+03  0.89806004974E+03  0.00000000000E+00 0.  1.
   -9000010    2    1    2    0  503 -0.49345227247E+02 -0.40140233276E+03  0.95035961721E+02  0.10396072004E+04  0.95299134982E+03 0.  0.
    9000010    2    1    2  501    0  0.49345227247E+02  0.40140233276E+03  0.26158634048E+03  0.11131352013E+04  0.10035356390E+04 0.  0.
        -13    1    4    4    0    0 -0.40634990283E+03  0.46829595255E+03  0.12238546560E+03  0.63198066115E+03  0.10566000000E+00 0.  1.
         13    1    3    3    0    0 -0.48846475734E+02  0.30678351860E+03  0.11470378819E+03  0.33114811741E+03  0.10566000000E+00 0. -1.
          4    1    4    4  501    0  0.45569513008E+03 -0.66893619795E+02  0.13920087489E+03  0.48115454016E+03  0.00000000000E+00 0.  1.
         -4    1    3    3    0  503 -0.49875151275E+00 -0.70818585136E+03 -0.19667826471E+02  0.70845908295E+03  0.00000000000E+00 0. -1.
</event>
<event>
 8    1  0.7008488E-006  0.1040072E+04  0.7818608E-02  0.8746710E-01
         21   -1    0    0  503  502  0.00000000000E+00  0.00000000000E+00  0.11454391337E+04  0.11454391337E+04  0.00000000000E+00 0. -1.
         21   -1    0    0  501  503 -0.00000000000E+00 -0.00000000000E+00 -0.91088636265E+03  0.91088636265E+03  0.00000000000E+00 0. -1.
    9000010    2    1    2  501    0 -0.20493246135E+03 -0.15659517380E+02  0.73931975545E+02  0.10039242724E+04  0.97987523359E+03 0.  0.
   -9000010    2    1    2    0  502  0.20493246135E+03  0.15659517380E+02  0.16062079554E+03  0.10524012240E+04  0.10195620443E+04 0.  0.
        -13    1    3    3    0    0 -0.28443260431E+03 -0.38152204107E+03  0.30380498487E+03  0.56458697666E+03  0.10566000000E+00 0.  1.
         13    1    4    4    0    0  0.30723810718E+03 -0.28711825558E+03  0.45381477826E+03  0.61869217816E+03  0.10566000000E+00 0. -1.
          4    1    3    3  501    0  0.79500142966E+02  0.36586252369E+03 -0.22987300932E+03  0.43933729569E+03  0.00000000000E+00 0.  1.
         -4    1    4    4    0  502 -0.10230564584E+03  0.30277777296E+03 -0.29319398272E+03  0.43370904587E+03  0.00000000000E+00 0. -1.
</event>
<event>
 8    1  0.7008488E-006  0.1059864E+04  0.7818608E-02  0.8722306E-01
         21   -1    0    0  501  502  0.00000000000E+00  0.00000000000E+00  0.10898484251E+04  0.10898484251E+04  0.00000000000E+00 0.  1.
         21   -1    0    0  502  503 -0.00000000000E+00 -0.00000000000E+00 -0.10754721502E+04  0.10754721502E+04  0.00000000000E+00 0.  1.
   -9000010    2    1    2    0  503  0.21353233458E+03 -0.21033514505E+03 -0.23461355772E+03  0.10855202435E+04  0.10165991080E+04 0.  0.
    9000010    2    1    2  501    0 -0.21353233458E+03  0.21033514505E+03  0.24898983258E+03  0.10798003318E+04  0.10070431414E+04 0.  0.
        -13    1    4    4    0    0  0.37947116419E+03  0.24305690975E+03  0.16543689675E+03  0.48004625173E+03  0.10566000000E+00 0.  1.
         13    1    3    3    0    0  0.59411409001E+03  0.26468602614E+02 -0.22892990511E+03  0.63724489130E+03  0.10566000000E+00 0. -1.
          4    1    4    4  501    0 -0.59300349877E+03 -0.32721764703E+02  0.83552935821E+02  0.59975408004E+03  0.00000000000E+00 0.  1.
         -4    1    3    3    0  503 -0.38058175543E+03 -0.23680374766E+03 -0.56836526103E+01  0.44827535218E+03  0.00000000000E+00 0. -1.
</event>
<event>
 8    1  0.7008488E-006  0.1112329E+04  0.7818608E-02  0.8676810E-01
         21   -1    0    0  503  502  0.00000000000E+00  0.00000000000E+00  0.69540621182E+03  0.69540621182E+03  0.00000000000E+00 0.  1.
         21   -1    0    0  501  503 -0.00000000000E+00 -0.00000000000E+00 -0.21139409830E+04  0.21139409830E+04  0.00000000000E+00 0.  1.
    9000010    2    1    2  501    0  0.47022780117E+03 -0.15518423364E+03 -0.14159389802E+03  0.11158730174E+04  0.98991283842E+03 0.  0.
   -9000010    2    1    2    0  502 -0.47022780117E+03  0.15518423364E+03 -0.12769408732E+04  0.16934741774E+04  0.99603236126E+03 0.  0.
        -13    1    3    3    0    0 -0.24564168098E+03  0.14919046658E+03  0.95175874693E+02  0.30274756653E+03  0.10566000000E+00 0.  1.
         13    1    4    4    0    0  0.16316776246E+03  0.38928986009E+03 -0.62984384760E+03  0.75820419242E+03  0.10566000000E+00 0. -1.
          4    1    3    3  501    0  0.71586948214E+03 -0.30437470022E+03 -0.23676977271E+03  0.81312545088E+03  0.00000000000E+00 0.  1.
         -4    1    4    4    0  502 -0.63339556362E+03 -0.23410562645E+03 -0.64709702555E+03  0.93526998500E+03  0.00000000000E+00 0. -1.
</event>
<event>
 8    1  0.7008488E-006  0.1122276E+04  0.7818608E-02  0.8672666E-01
         21   -1    0    0  501  502  0.00000000000E+00  0.00000000000E+00  0.10751218779E+04  0.10751218779E+04  0.00000000000E+00 0. -1.
         21   -1    0    0  502  503 -0.00000000000E+00 -0.00000000000E+00 -0.12030412901E+04  0.12030412901E+04  0.00000000000E+00 0. -1.
   -9000010    2    1    2    0  503  0.48089179128E+03 -0.75090447521E+02  0.18564008935E+03  0.11129065252E+04  0.98346489555E+03 0.  0.
    9000010    2    1    2  501    0 -0.48089179128E+03  0.75090447521E+02 -0.31355950153E+03  0.11652566428E+04  0.10112408182E+04 0.  0.
        -13    1    4    4    0    0  0.83809856827E+02 -0.38062737533E+03 -0.48673123058E+02  0.39277267602E+03  0.10566000000E+00 0.  1.
         13    1    3    3    0    0 -0.19350993156E+02 -0.27303695421E+03 -0.28714062917E+03  0.39670315273E+03  0.10566000000E+00 0. -1.
          4    1    4    4  501    0 -0.56470164810E+03  0.45571782285E+03 -0.26488637847E+03  0.77248396678E+03  0.00000000000E+00 0.  1.
         -4    1    3    3    0  503  0.50024278443E+03  0.19794650669E+03  0.47278071852E+03  0.71620337244E+03  0.00000000000E+00 0. -1.
</event>
<event>
 8    1  0.7008488E-006  0.1083036E+04  0.7818608E-02  0.8705320E-01
         21   -1    0    0  501  502  0.00000000000E+00  0.00000000000E+00  0.69245977332E+03  0.69245977332E+03  0.00000000000E+00 0.  1.
         21   -1    0    0  502  503 -0.00000000000E+00 -0.00000000000E+00 -0.17218134925E+04  0.17218134925E+04  0.00000000000E+00 0.  1.
   -9000010    2    1    2    0  503  0.24835722566E+03 -0.29080825099E+03 -0.74265999273E+03  0.12939341518E+04  0.98816545884E+03 0.  0.
    9000010    2    1    2  501    0 -0.24835722566E+03  0.29080825099E+03 -0.28669372643E+03  0.11203391140E+04  0.10132697998E+04 0.  0.
        -13    1    4    4    0    0 -0.62669452909E+03  0.38303761174E+02 -0.15297211525E+03  0.64623036924E+03  0.10566000000E+00 0.  1.
         13    1    3    3    0    0  0.43403327223E+03 -0.31355649234E+02 -0.85197727837E+03  0.95667829084E+03  0.10566000000E+00 0. -1.
          4    1    4    4  501    0  0.37833730343E+03  0.25250448982E+03 -0.13372161117E+03  0.47410874474E+03  0.00000000000E+00 0.  1.
         -4    1    3    3    0  503 -0.18567604657E+03 -0.25945260176E+03  0.10931728564E+03  0.33725586098E+03  0.00000000000E+00 0. -1.
</event>
<event>
 8    1  0.7008488E-006  0.1314928E+04  0.7818608E-02  0.8524836E-01
         21   -1    0    0  503  502  0.00000000000E+00  0.00000000000E+00  0.16936067453E+04  0.16936067453E+04  0.00000000000E+00 0.  1.
         21   -1    0    0  501  503 -0.00000000000E+00 -0.00000000000E+00 -0.10203271750E+04  0.10203271750E+04  0.00000000000E+00 0.  1.
    9000010    2    1    2  501    0 -0.84492051098E+03  0.89730171729E+01  0.34131254761E+03  0.13585024046E+04  0.10075035203E+04 0.  0.
   -9000010    2    1    2    0  502  0.84492051098E+03 -0.89730171729E+01  0.33196702269E+03  0.13554315157E+04  0.10064895950E+04 0.  0.
        -13    1    3    3    0    0 -0.66815483483E+03 -0.43828749357E+02  0.69158196419E+03  0.96262010520E+03  0.10566000000E+00 0.  1.
         13    1    4    4    0    0  0.11324039180E+02  0.38193992374E+03  0.17510987522E+02  0.38250880389E+03  0.10566000000E+00 0. -1.
          4    1    3    3  501    0 -0.17676567615E+03  0.52801766530E+02 -0.35026941658E+03  0.39588229943E+03  0.00000000000E+00 0.  1.
         -4    1    4    4    0  502  0.83359647180E+03 -0.39091294091E+03  0.31445603517E+03  0.97292271185E+03  0.00000000000E+00 0. -1.
</event>
<event>
 8    1  0.7008488E-006  0.1047373E+04  0.7818608E-02  0.8732022E-01
         21   -1    0    0  503  502  0.00000000000E+00  0.00000000000E+00  0.39988524159E+04  0.39988524159E+04  0.00000000000E+00 0.  1.
         21   -1    0    0  501  503 -0.00000000000E+00 -0.00000000000E+00 -0.28925357271E+03  0.28925357271E+03  0.00000000000E+00 0.  1.
    9000010    2    1    2  501    0  0.24637142691E+03  0.18773760416E+03  0.23580251214E+04  0.25801692006E+04  0.10005230345E+04 0.  0.
   -9000010    2    1    2    0  502 -0.24637142691E+03 -0.18773760416E+03  0.13515737218E+04  0.17079367880E+04  0.99717213079E+03 0.  0.
        -13    1    3    3    0    0  0.26957316038E+03  0.49771598341E+03  0.21037628380E+04  0.21785795782E+04  0.10566000000E+00 0.  1.
         13    1    4    4    0    0 -0.31476433206E+03 -0.27726697950E+01  0.14526322331E+04  0.14863460862E+04  0.10566000000E+00 0. -1.
          4    1    3    3  501    0 -0.23201733472E+02 -0.30997837925E+03  0.25426228341E+03  0.40158962238E+03  0.00000000000E+00 0.  1.
         -4    1    4    4    0  502  0.68392905147E+02 -0.18496493437E+03 -0.10105851125E+03  0.22159070178E+03  0.00000000000E+00 0. -1.
</event>
<event>
 8    1  0.7008488E-006  0.1457372E+04  0.7818608E-02  0.8434792E-01
         21   -1    0    0  503  502  0.00000000000E+00  0.00000000000E+00  0.14631246421E+04  0.14631246421E+04  0.00000000000E+00 0.  1.
         21   -1    0    0  501  503 -0.00000000000E+00 -0.00000000000E+00 -0.16751320548E+04  0.16751320548E+04  0.00000000000E+00 0.  1.
    9000010    2    1    2  501    0 -0.69109702022E+03  0.79632442342E+03 -0.68188815400E+03  0.16070085498E+04  0.10028745415E+04 0.  0.
   -9000010    2    1    2    0  502  0.69109702022E+03 -0.79632442342E+03  0.46988074133E+03  0.15312481471E+04  0.10060742011E+04 0.  0.
        -13    1    3    3    0    0 -0.76024469070E+03  0.91972281665E+03 -0.34577818946E+03  0.12423464157E+04  0.10566000000E+00 0.  1.
         13    1    4    4    0    0  0.16441767386E+03 -0.86766542440E+03  0.46865642483E+03  0.99975762856E+03  0.10566000000E+00 0. -1.
          4    1    3    3  501    0  0.69147670481E+02 -0.12339839322E+03 -0.33610996455E+03  0.36466213411E+03  0.00000000000E+00 0.  1.
         -4    1    4    4    0  502  0.52667934637E+03  0.71341000973E+02  0.12243164986E+01  0.53149051850E+03  0.00000000000E+00 0. -1.
</event>
<event>
 8    1  0.7008488E-006  0.1273910E+04  0.7818608E-02  0.8570424E-01
         21   -1    0    0  501  502  0.00000000000E+00  0.00000000000E+00  0.20704598681E+04  0.20704598681E+04  0.00000000000E+00 0.  1.
         21   -1    0    0  502  503 -0.00000000000E+00 -0.00000000000E+00 -0.80155265852E+03  0.80155265852E+03  0.00000000000E+00 0. -1.
   -9000010    2    1    2    0  503  0.68471875827E+03  0.38622765251E+03  0.17079057484E+03  0.11901368408E+04  0.87706596213E+03 0.  0.
    9000010    2    1    2  501    0 -0.68471875827E+03 -0.38622765251E+03  0.10981166347E+04  0.16818756858E+04  0.10024141367E+04 0.  0.
        -13    1    4    4    0    0 -0.31106989445E+03  0.27724935051E+03  0.10369081601E+03  0.42939897308E+03  0.10566000000E+00 0.  1.
         13    1    3    3    0    0  0.59569340650E+03  0.66042084767E+03  0.13712435700E+03  0.89989412213E+03  0.10566000000E+00 0. -1.
          4    1    4    4  501    0 -0.37364886382E+03 -0.66347700302E+03  0.99442581871E+03  0.12524767127E+04  0.00000000000E+00 0.  1.
         -4    1    3    3    0  503  0.89025351766E+02 -0.27419319516E+03  0.33666217840E+02  0.29024271869E+03  0.00000000000E+00 0. -1.
</event>
<event>
 8    1  0.7008488E-006  0.1059008E+04  0.7818608E-02  0.8724219E-01
         21   -1    0    0  501  502  0.00000000000E+00  0.00000000000E+00  0.63252805972E+03  0.63252805972E+03  0.00000000000E+00 0.  1.
         21   -1    0    0  502  503 -0.00000000000E+00 -0.00000000000E+00 -0.17949810561E+04  0.17949810561E+04  0.00000000000E+00 0.  1.
   -9000010    2    1    2    0  503  0.31139995454E+03  0.10263527078E+03 -0.77157067097E+03  0.12986658515E+04  0.99182042879E+03 0.  0.
    9000010    2    1    2  501    0 -0.31139995454E+03 -0.10263527078E+03 -0.39088232545E+03  0.11288432644E+04  0.10069727865E+04 0.  0.
        -13    1    4    4    0    0  0.32351636851E+03  0.40839627376E+02  0.67139160747E+02  0.33292400624E+03  0.10566000000E+00 0.  1.
         13    1    3    3    0    0  0.26130915133E+03  0.20981512999E+03  0.15169324117E+03  0.36785284003E+03  0.10566000000E+00 0. -1.
          4    1    4    4  501    0 -0.63491632305E+03 -0.14347489815E+03 -0.45802148620E+03  0.79591925815E+03  0.00000000000E+00 0.  1.
         -4    1    3    3    0  503  0.50090803208E+02 -0.10717985921E+03 -0.92326391214E+03  0.93081301143E+03  0.00000000000E+00 0. -1.
</event>
<event>
 8    1  0.7008488E-006  0.1085451E+04  0.7818608E-02  0.8703379E-01
         21   -1    0    0  503  502  0.00000000000E+00  0.00000000000E+00  0.45294332922E+03  0.45294332922E+03  0.00000000000E+00 0. -1.
         21   -1    0    0  501  503 -0.00000000000E+00 -0.00000000000E+00 -0.25578624555E+04  0.25578624555E+04  0.00000000000E+00 0. -1.
    9000010    2    1    2  501    0 -0.13303601779E+03  0.32505240219E+03 -0.95300638734E+03  0.14444459743E+04  0.10270566451E+04 0.  0.
   -9000010    2    1    2    0  502  0.13303601779E+03 -0.32505240219E+03 -0.11519127389E+04  0.15663598104E+04  0.10016099297E+04 0.  0.
        -13    1    3    3    0    0 -0.19126145724E+03 -0.25851728508E+03  0.45002331444E+01  0.32160907166E+03  0.10566000000E+00 0.  1.
         13    1    4    4    0    0 -0.89644673606E+02 -0.64326546577E+03 -0.87345990993E+03  0.10884662844E+04  0.10566000000E+00 0. -1.
          4    1    3    3  501    0  0.58225439444E+02  0.58356968728E+03 -0.95750662048E+03  0.11228369027E+04  0.00000000000E+00 0.  1.
         -4    1    4    4    0  502  0.22268069140E+03  0.31821306357E+03 -0.27845282898E+03  0.47789352592E+03  0.00000000000E+00 0. -1.
</event>
<event>
 8    1  0.7008488E-006  0.1268656E+04  0.7818608E-02  0.8558609E-01
         21   -1    0    0  503  502  0.00000000000E+00  0.00000000000E+00  0.13095351653E+04  0.13095351653E+04  0.00000000000E+00 0. -1.
         21   -1    0    0  501  503 -0.00000000000E+00 -0.00000000000E+00 -0.13364139067E+04  0.13364139067E+04  0.00000000000E+00 0. -1.
    9000010    2    1    2  501    0 -0.25258392217E+03 -0.73417761083E+03 -0.40723210506E+03  0.13215033623E+04  0.98879611001E+03 0.  0.
   -9000010    2    1    2    0  502  0.25258392217E+03  0.73417761083E+03  0.38035336374E+03  0.13244457097E+04  0.10033306308E+04 0.  0.
        -13    1    3    3    0    0  0.10456758832E+03  0.46946403832E+02 -0.44721618107E+03  0.46167160313E+03  0.10566000000E+00 0.  1.
         13    1    4    4    0    0 -0.96345733469E+02  0.88172259651E+03  0.22557796169E+03  0.91520635133E+03  0.10566000000E+00 0. -1.
          4    1    3    3  501    0 -0.35715151049E+03 -0.78112401466E+03  0.39984076009E+02  0.85983175916E+03  0.00000000000E+00 0.  1.
         -4    1    4    4    0  502  0.34892965563E+03 -0.14754498568E+03  0.15477540204E+03  0.40923935839E+03  0.00000000000E+00 0. -1.
</event>
<event>
 8    1  0.7008488E-006  0.1184898E+04  0.7818608E-02  0.8620012E-01
         21   -1    0    0  503  502  0.00000000000E+00  0.00000000000E+00  0.14676035634E+04  0.14676035634E+04  0.00000000000E+00 0. -1.
         21   -1    0    0  501  503 -0.00000000000E+00 -0.00000000000E+00 -0.98263087827E+03  0.98263087827E+03  0.00000000000E+00 0. -1.
    9000010    2    1    2  501    0  0.58396212692E+03 -0.27460915303E+03  0.47249780889E+03  0.12756323528E+04  0.99376142383E+03 0.  0.
   -9000010    2    1    2    0  502 -0.58396212692E+03  0.27460915303E+03  0.12474876260E+02  0.11746020889E+04  0.98138294873E+03 0.  0.
        -13    1    3    3    0    0  0.22840482983E+03 -0.34663634130E+03  0.72374504622E+03  0.83434550546E+03  0.10566000000E+00 0.  1.
         13    1    4    4    0    0 -0.51664968410E+03  0.45693290693E+03  0.35880354643E+03  0.77746676689E+03  0.10566000000E+00 0. -1.
          4    1    3    3  501    0  0.35555729709E+03  0.72027188263E+02 -0.25124723733E+03  0.44128684734E+03  0.00000000000E+00 0.  1.
         -4    1    4    4    0  502 -0.67312442818E+02 -0.18232375389E+03 -0.34632867017E+03  0.39713532199E+03  0.00000000000E+00 0. -1.
</event>
<event>
 8    1  0.7008488E-006  0.1065014E+04  0.7818608E-02  0.8717211E-01
         21   -1    0    0  501  502  0.00000000000E+00  0.00000000000E+00  0.55005914230E+03  0.55005914230E+03  0.00000000000E+00 0. -1.
         21   -1    0    0  502  503 -0.00000000000E+00 -0.00000000000E+00 -0.20512858949E+04  0.20512858949E+04  0.00000000000E+00 0. -1.
   -9000010    2    1    2    0  503 -0.22680961225E+03  0.24544352150E+03 -0.71459514670E+03  0.12825371752E+04  0.10112221614E+04 0.  0.
    9000010    2    1    2  501    0  0.22680961225E+03 -0.24544352150E+03 -0.78663160593E+03  0.13188078620E+04  0.10043802920E+04 0.  0.
        -13    1    4    4    0    0  0.37498700030E+03  0.30816151810E+03 -0.36788991721E+03  0.60903347526E+03  0.10566000000E+00 0.  1.
         13    1    3    3    0    0  0.10167994409E+03  0.57080094210E+03 -0.26444099786E+03  0.63724530524E+03  0.10566000000E+00 0. -1.
          4    1    4    4  501    0 -0.14817738806E+03 -0.55360503959E+03 -0.41874168872E+03  0.70977438673E+03  0.00000000000E+00 0.  1.
         -4    1    3    3    0  503 -0.32848955633E+03 -0.32535742061E+03 -0.45015414885E+03  0.64529187000E+03  0.00000000000E+00 0. -1.
</event>
<event>
 8    1  0.7008488E-006  0.1392668E+04  0.7818608E-02  0.8476407E-01
         21   -1    0    0  503  502  0.00000000000E+00  0.00000000000E+00  0.10039054755E+04  0.10039054755E+04  0.00000000000E+00 0. -1.
         21   -1    0    0  501  503 -0.00000000000E+00 -0.00000000000E+00 -0.22416391844E+04  0.22416391844E+04  0.00000000000E+00 0. -1.
    9000010    2    1    2  501    0 -0.62697243983E+02  0.92293469774E+03 -0.12443178224E+04  0.18675791215E+04  0.10410502059E+04 0.  0.
   -9000010    2    1    2    0  502  0.62697243983E+02 -0.92293469774E+03  0.65841134988E+01  0.13779655384E+04  0.10212767861E+04 0.  0.
        -13    1    3    3    0    0 -0.17100924760E+03  0.58483957979E+03 -0.13631995826E+04  0.14931827115E+04  0.10566000000E+00 0.  1.
         13    1    4    4    0    0 -0.11670606412E+03 -0.46483902181E+03 -0.48544757508E+03  0.68216931983E+03  0.10566000000E+00 0. -1.
          4    1    3    3  501    0  0.10831200361E+03  0.33809511796E+03  0.11888176017E+03  0.37439640999E+03  0.00000000000E+00 0.  1.
         -4    1    4    4    0  502  0.17940330810E+03 -0.45809567593E+03  0.49203168858E+03  0.69579621861E+03  0.00000000000E+00 0. -1.
</event>
<event>
 8    1  0.7008488E-006  0.1308962E+04  0.7818608E-02  0.8532184E-01
         21   -1    0    0  501  502  0.00000000000E+00  0.00000000000E+00  0.12416241775E+04  0.12416241775E+04  0.00000000000E+00 0.  1.
         21   -1    0    0  502  503 -0.00000000000E+00 -0.00000000000E+00 -0.14738630360E+04  0.14738630360E+04  0.00000000000E+00 0. -1.
   -9000010    2    1    2    0  503  0.77314979391E+03  0.28586059418E+03 -0.49635071100E+03  0.13999092360E+04  0.10168111710E+04 0.  0.
    9000010    2    1    2  501    0 -0.77314979391E+03 -0.28586059418E+03  0.26411185256E+03  0.13155779775E+04  0.99071361209E+03 0.  0.
        -13    1    4    4    0    0 -0.33474203102E+03 -0.78897660843E+02 -0.37797573805E+03  0.51102126955E+03  0.10566000000E+00 0.  1.
         13    1    3    3    0    0 -0.17641058945E+02 -0.19088555103E+03 -0.43396607494E+03  0.47442076885E+03  0.10566000000E+00 0. -1.
          4    1    4    4  501    0 -0.43840776289E+03 -0.20696293334E+03  0.64208759061E+03  0.80455670798E+03  0.00000000000E+00 0.  1.
         -4    1    3    3    0  503  0.79079085286E+03  0.47674614521E+03 -0.62384636060E+02  0.92548846711E+03  0.00000000000E+00 0. -1.
</event>
<event>
 8    1  0.7008488E-006  0.1087981E+04  0.7818608E-02  0.8701409E-01
         21   -1    0    0  503  502  0.00000000000E+00  0.00000000000E+00  0.89284036272E+03  0.89284036272E+03  0.00000000000E+00 0. -1.
         21   -1    0    0  501  503 -0.00000000000E+00 -0.00000000000E+00 -0.13039737060E+04  0.13039737060E+04  0.00000000000E+00 0. -1.
    9000010    2    1    2  501    0  0.36080136720E+03 -0.16709918488E+03 -0.11967083556E+03  0.10945426955E+04  0.10127205138E+04 0.  0.
   -9000010    2    1    2    0  502 -0.36080136720E+03  0.16709918488E+03 -0.29146250767E+03  0.11022713732E+04  0.98587627147E+03 0.  0.
        -13    1    3    3    0    0  0.54371498399E+02  0.40827429974E+03  0.65067306611E+02  0.41698672547E+03  0.10566000000E+00 0.  1.
         13    1    4    4    0    0  0.16897303450E+03  0.21249897662E+02  0.26836108564E+03  0.31783821040E+03  0.10566000000E+00 0. -1.
          4    1    3    3  501    0  0.30642986880E+03 -0.57537348462E+03 -0.18473814218E+03  0.67755596999E+03  0.00000000000E+00 0.  1.
         -4    1    4    4    0  502 -0.52977440170E+03  0.14584928722E+03 -0.55982359331E+03  0.78443316281E+03  0.00000000000E+00 0. -1.
</event>
<event>
 8    1  0.7008488E-006  0.1197236E+04  0.7818608E-02  0.8608729E-01
         21   -1    0    0  503  502  0.00000000000E+00  0.00000000000E+00  0.78566397102E+03  0.78566397102E+03  0.00000000000E+00 0. -1.
         21   -1    0    0  501  503 -0.00000000000E+00 -0.00000000000E+00 -0.19867489190E+04  0.19867489190E+04  0.00000000000E+00 0. -1.
    9000010    2    1    2  501    0 -0.51416571794E+03  0.42047612799E+03 -0.99750121427E+03  0.15579911792E+04  0.99557083229E+03 0.  0.
   -9000010    2    1    2    0  502  0.51416571794E+03 -0.42047612799E+03 -0.20358373369E+03  0.12144217109E+04  0.99609597704E+03 0.  0.
        -13    1    3    3    0    0  0.13218854345E+03  0.17307262009E+03  0.11614295173E+03  0.24681397701E+03  0.10566000000E+00 0.  1.
         13    1    4    4    0    0  0.36634112454E+03 -0.74734212583E+03 -0.19850899815E+03  0.85564706865E+03  0.10566000000E+00 0. -1.
          4    1    3    3  501    0 -0.64635426140E+03  0.24740350790E+03 -0.11136441660E+04  0.13111772021E+04  0.00000000000E+00 0.  1.
         -4    1    4    4    0  502  0.14782459340E+03  0.32686599784E+03 -0.50747355454E+01  0.35877464222E+03  0.00000000000E+00 0. -1.
</event>
<event>
 8    1  0.7008488E-006  0.1039015E+04  0.7818608E-02  0.8741980E-01
         21   -1    0    0  501  502  0.00000000000E+00  0.00000000000E+00  0.83305194995E+03  0.83305194995E+03  0.00000000000E+00 0.  1.
         21   -1    0    0  502  503 -0.00000000000E+00 -0.00000000000E+00 -0.12843139083E+04  0.12843139083E+04  0.00000000000E+00 0.  1.
   -9000010    2    1    2    0  503  0.24865390399E+03 -0.56474504300E+02 -0.29987116814E+03  0.10814226507E+04  0.10072408343E+04 0.  0.
    9000010    2    1    2  501    0 -0.24865390399E+03  0.56474504300E+02 -0.15139079025E+03  0.10359432076E+04  0.99259308096E+03 0.  0.
        -13    1    4    4    0    0 -0.39416378918E+02 -0.30551841160E+03 -0.43331941001E+03  0.53165860570E+03  0.10566000000E+00 0.  1.
         13    1    3    3    0    0  0.34531975704E+03 -0.14161736736E+03 -0.62709319768E+03  0.72975824975E+03  0.10566000000E+00 0. -1.
          4    1    4    4  501    0 -0.20923752507E+03  0.36199291590E+03  0.28192861977E+03  0.50428460189E+03  0.00000000000E+00 0.  1.
         -4    1    3    3    0  503 -0.96665853050E+02  0.85142863058E+02  0.32722202954E+03  0.35166440095E+03  0.00000000000E+00 0. -1.
</event>
<event>
 8    1  0.7008488E-006  0.1101787E+04  0.7818608E-02  0.8685503E-01
         21   -1    0    0  503  502  0.00000000000E+00  0.00000000000E+00  0.28011240923E+04  0.28011240923E+04  0.00000000000E+00 0.  1.
         21   -1    0    0  501  503 -0.00000000000E+00 -0.00000000000E+00 -0.44371160129E+03  0.44371160129E+03  0.00000000000E+00 0.  1.
    9000010    2    1    2  501    0 -0.15118910670E+03  0.40324093396E+03  0.14520073394E+04  0.18227070396E+04  0.10141371908E+04 0.  0.
   -9000010    2    1    2    0  502  0.15118910670E+03 -0.40324093396E+03  0.90540515163E+03  0.14221286540E+04  0.10085782186E+04 0.  0.
        -13    1    3    3    0    0 -0.53652577938E+02  0.71283509894E+03  0.68598921184E+03  0.99075410033E+03  0.10566000000E+00 0.  1.
         13    1    4    4    0    0  0.51637344639E+03 -0.41703138249E+03  0.33193847904E+03  0.74211850479E+03  0.10566000000E+00 0. -1.
          4    1    3    3  501    0 -0.97536528758E+02 -0.30959416498E+03  0.76601812752E+03  0.83195293925E+03  0.00000000000E+00 0.  1.
         -4    1    4    4    0  502 -0.36518433969E+03  0.13790448534E+02  0.57346667259E+03  0.68001014919E+03  0.00000000000E+00 0. -1.
</event>
<event>
 8    1  0.7008488E-006  0.1082255E+04  0.7818608E-02  0.8709225E-01
         21   -1    0    0  501  502  0.00000000000E+00  0.00000000000E+00  0.91663492318E+03  0.91663492318E+03  0.00000000000E+00 0. -1.
         21   -1    0    0  502  503 -0.00000000000E+00 -0.00000000000E+00 -0.12581944937E+04  0.12581944937E+04  0.00000000000E+00 0. -1.
   -9000010    2    1    2    0  503  0.98580271000E+01  0.40839510773E+03 -0.32715403295E+03  0.11306221363E+04  0.10021940476E+04 0.  0.
    9000010    2    1    2  501    0 -0.98580271000E+01 -0.40839510773E+03 -0.14405537595E+02  0.10442072806E+04  0.96087334270E+03 0.  0.
        -13    1    4    4    0    0 -0.17468524439E+02  0.31551652728E+03 -0.47240780780E+02  0.31951139396E+03  0.10566000000E+00 0.  1.
         13    1    3    3    0    0 -0.43242059552E+03  0.46613964897E+03 -0.20734119708E+03  0.66877808498E+03  0.10566000000E+00 0. -1.
          4    1    4    4  501    0  0.76104973393E+01 -0.72391163502E+03  0.32835243185E+02  0.72469588668E+03  0.00000000000E+00 0.  1.
         -4    1    3    3    0  503  0.44227862262E+03 -0.57744541237E+02 -0.11981283587E+03  0.46184405129E+03  0.00000000000E+00 0. -1.
</event>
<event>
 8    1  0.7008488E-006  0.1160884E+04  0.7818608E-02  0.8638273E-01
         21   -1    0    0  501  502  0.00000000000E+00  0.00000000000E+00  0.11387419184E+04  0.11387419184E+04  0.00000000000E+00 0.  1.
         21   -1    0    0  502  503 -0.00000000000E+00 -0.00000000000E+00 -0.13767277299E+04  0.13767277299E+04  0.00000000000E+00 0.  1.
   -9000010    2    1    2    0  503 -0.71687507858E+02 -0.58429328035E+03 -0.60095436715E+03  0.13072095359E+04  0.10005562868E+04 0.  0.
    9000010    2    1    2  501    0  0.71687507858E+02  0.58429328035E+03  0.36296855562E+03  0.12082601125E+04  0.99076162160E+03 0.  0.
        -13    1    4    4    0    0 -0.36879950999E+03  0.18005532414E+03 -0.13304132326E+03  0.43143134237E+03  0.10566000000E+00 0.  1.
         13    1    3    3    0    0 -0.26001618577E+03  0.16977670232E+03 -0.39632089688E+03  0.50349062552E+03  0.10566000000E+00 0. -1.
          4    1    4    4  501    0  0.44048701785E+03  0.40423795621E+03  0.49600987888E+03  0.77682877012E+03  0.00000000000E+00 0.  1.
         -4    1    3    3    0  503  0.18832867791E+03 -0.75406998266E+03 -0.20463347027E+03  0.80371891034E+03  0.00000000000E+00 0. -1.
</event>
<event>
 8    1  0.7008488E-006  0.1121597E+04  0.7818608E-02  0.8671890E-01
         21   -1    0    0  501  502  0.00000000000E+00  0.00000000000E+00  0.14730714087E+04  0.14730714087E+04  0.00000000000E+00 0.  1.
         21   -1    0    0  502  503 -0.00000000000E+00 -0.00000000000E+00 -0.11519493980E+04  0.11519493980E+04  0.00000000000E+00 0.  1.
   -9000010    2    1    2    0  503  0.25677443987E+03 -0.39807117117E+03 -0.52155914078E+03  0.12369332897E+04  0.10166544425E+04 0.  0.
    9000010    2    1    2  501    0 -0.25677443987E+03  0.39807117117E+03  0.84268115150E+03  0.13880875170E+04  0.99613335527E+03 0.  0.
        -13    1    4    4    0    0 -0.66243479707E+02  0.68491665907E+03  0.77633191167E+03  0.10373959113E+04  0.10566000000E+00 0.  1.
         13    1    3    3    0    0 -0.45336955439E+02 -0.64385690292E+03 -0.54781400919E+03  0.84658570198E+03  0.10566000000E+00 0. -1.
          4    1    4    4  501    0 -0.19053096016E+03 -0.28684548789E+03  0.66349239825E+02  0.35069160573E+03  0.00000000000E+00 0.  1.
         -4    1    3    3    0  503  0.30211139531E+03  0.24578573175E+03  0.26254868412E+02  0.39034758770E+03  0.00000000000E+00 0. -1.
</event>
<event>
 8    1  0.7008488E-006  0.1219046E+04  0.7818608E-02  0.8596165E-01
         21   -1    0    0  503  502  0.00000000000E+00  0.00000000000E+00  0.76767445569E+03  0.76767445569E+03  0.00000000000E+00 0.  1.
         21   -1    0    0  501  503 -0.00000000000E+00 -0.00000000000E+00 -0.19740044133E+04  0.19740044133E+04  0.00000000000E+00 0.  1.
    9000010    2    1    2  501    0  0.47484480888E+03  0.44905233499E+03 -0.86716170357E+03  0.14960086599E+04  0.10290514556E+04 0.  0.
   -9000010    2    1    2    0  502 -0.47484480888E+03 -0.44905233499E+03 -0.33916825405E+03  0.12456702091E+04  0.10047554793E+04 0.  0.
        -13    1    3    3    0    0 -0.15246770114E+03  0.38414707500E+03  0.12672233524E+02  0.41349240838E+03  0.10566000000E+00 0.  1.
         13    1    4    4    0    0 -0.64903891053E+03  0.74493422703E+01 -0.38540447634E+03  0.75487987232E+03  0.10566000000E+00 0. -1.
          4    1    3    3  501    0  0.62731251001E+03  0.64905259990E+02 -0.87983393710E+03  0.10825162515E+04  0.00000000000E+00 0.  1.
         -4    1    4    4    0  502  0.17419410166E+03 -0.45650167726E+03  0.46236222292E+02  0.49079033675E+03  0.00000000000E+00 0. -1.
</event>
<event>
 8    1  0.7008488E-006  0.1053766E+04  0.7818608E-02  0.8731812E-01
         21   -1    0    0  501  502  0.00000000000E+00  0.00000000000E+00  0.35891676433E+03  0.35891676433E+03  0.00000000000E+00 0.  1.
         21   -1    0    0  502  503 -0.00000000000E+00 -0.00000000000E+00 -0.30234749991E+04  0.30234749991E+04  0.00000000000E+00 0.  1.
   -9000010    2    1    2    0  503 -0.23995316157E+03  0.15720374172E+03 -0.14472861188E+04  0.17902681602E+04  0.10139686580E+04 0.  0.
    9000010    2    1    2  501    0  0.23995316157E+03 -0.15720374172E+03 -0.12172721160E+04  0.15921236033E+04  0.98529976534E+03 0.  0.
        -13    1    4    4    0    0 -0.15821244726E+02  0.30924337167E+03 -0.94517349373E+03  0.99460279465E+03  0.10566000000E+00 0.  1.
         13    1    3    3    0    0 -0.28134575778E+03 -0.33507435311E+02 -0.15458759667E+04  0.15716267684E+04  0.10566000000E+00 0. -1.
          4    1    4    4  501    0  0.25577440629E+03 -0.46644711339E+03 -0.27209862225E+03  0.59752080862E+03  0.00000000000E+00 0.  1.
         -4    1    3    3    0  503  0.41392596215E+02  0.19071117703E+03  0.98589847916E+02  0.21864139173E+03  0.00000000000E+00 0. -1.
</event>
<event>
 8    1  0.7008488E-006  0.1159621E+04  0.7818608E-02  0.8638419E-01
         21   -1    0    0  503  502  0.00000000000E+00  0.00000000000E+00  0.97420824913E+03  0.97420824913E+03  0.00000000000E+00 0.  1.
         21   -1    0    0  501  503 -0.00000000000E+00 -0.00000000000E+00 -0.14283886897E+04  0.14283886897E+04  0.00000000000E+00 0.  1.
    9000010    2    1    2  501    0  0.46293394028E+03 -0.36376575322E+03  0.38975165437E+01  0.11596275571E+04  0.99904330445E+03 0.  0.
   -9000010    2    1    2    0  502 -0.46293394028E+03  0.36376575322E+03 -0.45807795714E+03  0.12429693818E+04  0.99423544142E+03 0.  0.
        -13    1    3    3    0    0  0.46692218597E+03  0.24013274046E+03  0.13395342276E+03  0.54187045631E+03  0.10566000000E+00 0.  1.
         13    1    4    4    0    0 -0.37746720227E+03  0.50946418542E+03  0.11597391954E+03  0.64458141937E+03  0.10566000000E+00 0. -1.
          4    1    3    3  501    0 -0.39882456918E+01 -0.60389849369E+03 -0.13005590622E+03  0.61775710075E+03  0.00000000000E+00 0.  1.
         -4    1    4    4    0  502 -0.85466738004E+02 -0.14569843220E+03 -0.57405187668E+03  0.59838796242E+03  0.00000000000E+00 0. -1.
</event>
<event>
 8    1  0.7008488E-006  0.1650084E+04  0.7818608E-02  0.8328048E-01
         21   -1    0    0  503  502  0.00000000000E+00  0.00000000000E+00  0.10746435164E+04  0.10746435164E+04  0.00000000000E+00 0.  1.
         21   -1    0    0  501  503 -0.00000000000E+00 -0.00000000000E+00 -0.25480982843E+04  0.25480982843E+04  0.00000000000E+00 0.  1.
    9000010    2    1    2  501    0 -0.90914195831E+03 -0.94699347441E+03 -0.87579649070E+03  0.18681001094E+04  0.99972135359E+03 0.  0.
   -9000010    2    1    2    0  502  0.90914195831E+03  0.94699347441E+03 -0.59765827714E+03  0.17546416913E+04  0.99911776463E+03 0.  0.
        -13    1    3    3    0    0 -0.82118243961E+03 -0.11542476637E+04 -0.68741192820E+03  0.15745359439E+04  0.10566000000E+00 0.  1.
         13    1    4    4    0    0  0.98869007160E+03  0.10924777724E+04 -0.59435675068E+03  0.15887969345E+04  0.10566000000E+00 0. -1.
          4    1    3    3  501    0 -0.87959518702E+02  0.20725418931E+03 -0.18838456250E+03  0.29356416557E+03  0.00000000000E+00 0.  1.
         -4    1    4    4    0  502 -0.79548113288E+02 -0.14548429795E+03 -0.33015264552E+01  0.16584475679E+03  0.00000000000E+00 0. -1.
</event>
<event>
 8    1  0.7008488E-006  0.1038175E+04  0.7818608E-02  0.8745844E-01
         21   -1    0    0  503  502  0.00000000000E+00  0.00000000000E+00  0.26488821384E+04  0.26488821384E+04  0.00000000000E+00 0.  1.
         21   -1    0    0  501  503 -0.00000000000E+00 -0.00000000000E+00 -0.39904510384E+03  0.39904510384E+03  0.00000000000E+00 0.  1.
    9000010    2    1    2  501    0  0.23511710056E+03  0.36716810494E+02  0.12408860323E+04  0.16002432741E+04  0.98201436656E+03 0.  0.
   -9000010    2    1    2    0  502 -0.23511710056E+03 -0.36716810494E+02  0.10089510023E+04  0.14476839681E+04  0.10105338051E+04 0.  0.
        -13    1    3    3    0    0  0.37239950843E+03 -0.23292236461E+03  0.14377793146E+03  0.46217564470E+03  0.10566000000E+00 0.  1.
         13    1    4    4    0    0 -0.20673471844E+03  0.47893956532E+03  0.51623664707E+03  0.73390914832E+03  0.10566000000E+00 0. -1.
          4    1    3    3  501    0 -0.13728240787E+03  0.26963917511E+03  0.10971081008E+04  0.11380676294E+04  0.00000000000E+00 0.  1.
         -4    1    4    4    0  502 -0.28382382124E+02 -0.51565637581E+03  0.49271435520E+03  0.71377481978E+03  0.00000000000E+00 0. -1.
</event>
<event>
 8    1  0.7008488E-006  0.1384981E+04  0.7818608E-02  0.8483162E-01
         21   -1    0    0  503  502  0.00000000000E+00  0.00000000000E+00  0.80718601820E+03  0.80718601820E+03  0.00000000000E+00 0. -1.
         21   -1    0    0  501  503 -0.00000000000E+00 -0.00000000000E+00 -0.23472839895E+04  0.23472839895E+04  0.00000000000E+00 0.  1.
    9000010    2    1    2  501    0 -0.22539347612E+03  0.88511381764E+03 -0.64691510300E+03  0.15286178783E+04  0.10411266869E+04 0.  0.
   -9000010    2    1    2    0  502  0.22539347612E+03 -0.88511381764E+03 -0.89318286829E+03  0.16258521294E+04  0.10056792835E+04 0.  0.
        -13    1    3    3    0    0  0.10883148399E+03  0.73340341334E+03  0.47723207292E+02  0.74296862268E+03  0.10566000000E+00 0.  1.
         13    1    4    4    0    0  0.42881301742E+03 -0.99602830136E+01 -0.45811819257E+03  0.62757637039E+03  0.10566000000E+00 0. -1.
          4    1    3    3  501    0 -0.33422496011E+03  0.15171040430E+03 -0.69463831029E+03  0.78564925562E+03  0.00000000000E+00 0.  1.
         -4    1    4    4    0  502 -0.20341954130E+03 -0.87515353463E+03 -0.43506467572E+03  0.99827575900E+03  0.00000000000E+00 0. -1.
</event>
<event>
 8    1  0.7008488E-006  0.2173966E+04  0.7818608E-02  0.8101231E-01
         21   -1    0    0  503  502  0.00000000000E+00  0.00000000000E+00  0.33750697774E+04  0.33750697774E+04  0.00000000000E+00 0.  1.
         21   -1    0    0  501  503 -0.00000000000E+00 -0.00000000000E+00 -0.14970112095E+04  0.14970112095E+04  0.00000000000E+00 0. -1.
    9000010    2    1    2  501    0 -0.12542391545E+04 -0.14634579461E+04  0.31570038428E+03  0.21967690242E+04  0.10056353199E+04 0.  0.
   -9000010    2    1    2    0  502  0.12542391545E+04  0.14634579461E+04  0.15623581837E+04  0.26753119626E+04  0.10007527100E+04 0.  0.
        -13    1    3    3    0    0 -0.44142289193E+03 -0.87039069049E+03 -0.29527178577E+03  0.10196173607E+04  0.10566000000E+00 0.  1.
         13    1    4    4    0    0  0.61242826150E+03  0.27559544024E+03  0.10179456888E+04  0.12195223075E+04  0.10566000000E+00 0. -1.
          4    1    3    3  501    0 -0.81281626260E+03 -0.59306725559E+03  0.61097217005E+03  0.11771516635E+04  0.00000000000E+00 0.  1.
         -4    1    4    4    0  502  0.64181089303E+03  0.11878625058E+04  0.54441249492E+03  0.14557896551E+04  0.00000000000E+00 0. -1.
</event>
<event>
 8    1  0.7008488E-006  0.1278061E+04  0.7818608E-02  0.8559122E-01
         21   -1    0    0  501  502  0.00000000000E+00  0.00000000000E+00  0.13191299480E+04  0.13191299480E+04  0.00000000000E+00 0. -1.
         21   -1    0    0  502  503 -0.00000000000E+00 -0.00000000000E+00 -0.17605142383E+04  0.17605142383E+04  0.00000000000E+00 0. -1.
   -9000010    2    1    2    0  503 -0.16906716920E+03  0.71016992015E+03 -0.11008557833E+04  0.16868084521E+04  0.10490539906E+04 0.  0.
    9000010    2    1    2  501    0  0.16906716920E+03 -0.71016992015E+03  0.65947149287E+03  0.13928357342E+04  0.98598362534E+03 0.  0.
        -13    1    4    4    0    0  0.17455819664E+03 -0.86528829176E+03  0.19621055962E+03  0.90426378162E+03  0.10566000000E+00 0.  1.
         13    1    3    3    0    0 -0.32621300663E+03  0.88894955697E+03 -0.10964499888E+04  0.14487404286E+04  0.10566000000E+00 0. -1.
          4    1    4    4  501    0 -0.54910274467E+01  0.15511837161E+03  0.46326093326E+03  0.48857195261E+03  0.00000000000E+00 0.  1.
         -4    1    3    3    0  503  0.15714583743E+03 -0.17877963682E+03 -0.44057944976E+01  0.23806802345E+03  0.00000000000E+00 0. -1.
</event>
<event>
 8    1  0.7008488E-006  0.1081770E+04  0.7818608E-02  0.8714443E-01
         21   -1    0    0  501  502  0.00000000000E+00  0.00000000000E+00  0.16742805799E+04  0.16742805799E+04  0.00000000000E+00 0. -1.
         21   -1    0    0  502  503 -0.00000000000E+00 -0.00000000000E+00 -0.85581935808E+03  0.85581935808E+03  0.00000000000E+00 0. -1.
   -9000010    2    1    2    0  503 -0.20739045904E+03 -0.25728292800E+03  0.10036798139E+04  0.14325875989E+04  0.96733073559E+03 0.  0.
    9000010    2    1    2  501    0  0.20739045904E+03  0.25728292800E+03 -0.18521859211E+03  0.10975123391E+04  0.10300592702E+04 0.  0.
        -13    1    4    4    0    0  0.54702275195E+03  0.41328175944E+03 -0.22520897153E+03  0.72163342208E+03  0.10566000000E+00 0.  1.
         13    1    3    3    0    0 -0.16875350181E+03 -0.19894471878E+03  0.11979884049E+04  0.12260640175E+04  0.10566000000E+00 0. -1.
          4    1    4    4  501    0 -0.33963229292E+03 -0.15599883144E+03  0.39990379417E+02  0.37587891700E+03  0.00000000000E+00 0.  1.
         -4    1    3    3    0  503 -0.38636957228E+02 -0.58338209217E+02 -0.19430859102E+03  0.20652358137E+03  0.00000000000E+00 0. -1.
</event>
<event>
 8    1  0.7008488E-006  0.1081374E+04  0.7818608E-02  0.8703091E-01
         21   -1    0    0  503  502  0.00000000000E+00  0.00000000000E+00  0.15649705714E+04  0.15649705714E+04  0.00000000000E+00 0. -1.
         21   -1    0    0  501  503 -0.00000000000E+00 -0.00000000000E+00 -0.74610586915E+03  0.74610586915E+03  0.00000000000E+00 0. -1.
    9000010    2    1    2  501    0  0.19723304402E+03 -0.33309025360E+03  0.32981443328E+03  0.11242568295E+04  0.10026593976E+04 0.  0.
   -9000010    2    1    2    0  502 -0.19723304402E+03  0.33309025360E+03  0.48905026900E+03  0.11868196110E+04  0.10097131438E+04 0.  0.
        -13    1    3    3    0    0  0.56574687374E+03 -0.34913205151E+03  0.60519524376E+02  0.66755174971E+03  0.10566000000E+00 0.  1.
         13    1    4    4    0    0  0.32014476903E+03 -0.42921906119E+02  0.43934898022E+03  0.54530954581E+03  0.10566000000E+00 0. -1.
          4    1    3    3  501    0 -0.36851382973E+03  0.16041797909E+02  0.26929490890E+03  0.45670507983E+03  0.00000000000E+00 0.  1.
         -4    1    4    4    0  502 -0.51737781305E+03  0.37601215972E+03  0.49701288775E+02  0.64151006523E+03  0.00000000000E+00 0. -1.
</event>
<event>
 8    1  0.7008488E-006  0.1218157E+04  0.7818608E-02  0.8595166E-01
         21   -1    0    0  501  502  0.00000000000E+00  0.00000000000E+00  0.23003040951E+04  0.23003040951E+04  0.00000000000E+00 0. -1.
         21   -1    0    0  502  503 -0.00000000000E+00 -0.00000000000E+00 -0.92652320389E+03  0.92652320389E+03  0.00000000000E+00 0.  1.
   -9000010    2    1    2    0  503  0.13134022547E+03 -0.68170032360E+03 -0.20966412789E+03  0.12360687724E+04  0.10009702181E+04 0.  0.
    9000010    2    1    2  501    0 -0.13134022547E+03  0.68170032360E+03  0.15834450191E+04  0.19907585266E+04  0.98684132302E+03 0.  0.
        -13    1    4    4    0    0 -0.37679023800E+03  0.15744993766E+02  0.10106177543E+04  0.10786876493E+04  0.10566000000E+00 0.  1.
         13    1    3    3    0    0 -0.11221584610E+03 -0.27318556141E+03 -0.56825914806E+03  0.64042268666E+03  0.10566000000E+00 0. -1.
          4    1    4    4  501    0  0.24545001252E+03  0.66595532983E+03  0.57282726480E+03  0.91207087733E+03  0.00000000000E+00 0.  1.
         -4    1    3    3    0  503  0.24355607157E+03 -0.40851476218E+03  0.35859502017E+03  0.59564608570E+03  0.00000000000E+00 0. -1.
</event>
<event>
 8    1  0.7008488E-006  0.1063289E+04  0.7818608E-02  0.8717788E-01
         21   -1    0    0  501  502  0.00000000000E+00  0.00000000000E+00  0.24734364647E+04  0.24734364647E+04  0.00000000000E+00 0. -1.
         21   -1    0    0  502  503 -0.00000000000E+00 -0.00000000000E+00 -0.45827758706E+03  0.45827758706E+03  0.00000000000E+00 0. -1.
   -9000010    2    1    2    0  503  0.28008897595E+03 -0.16046379717E+03  0.11091619498E+04  0.15364969307E+04  0.10131061753E+04 0.  0.
    9000010    2    1    2  501    0 -0.28008897595E+03  0.16046379717E+03  0.90599692788E+03  0.13952171211E+04  0.10107432498E+04 0.  0.
        -13    1    4    4    0    0  0.60098664738E+02 -0.35224480733E+03  0.62244350557E+03  0.71772152161E+03  0.10566000000E+00 0.  1.
         13    1    3    3    0    0 -0.31993577065E+03  0.41286436023E+02  0.73123726895E+03  0.79923176977E+03  0.10566000000E+00 0. -1.
          4    1    4    4  501    0 -0.34018764069E+03  0.51270860450E+03  0.28355342230E+03  0.67749559947E+03  0.00000000000E+00 0.  1.
         -4    1    3    3    0  503  0.60002474660E+03 -0.20175023319E+03  0.37792468083E+03  0.73726516092E+03  0.00000000000E+00 0. -1.
</event>
<event>
 8    1  0.7008488E-006  0.1063266E+04  0.7818608E-02  0.8717703E-01
         21   -1    0    0  501  502  0.00000000000E+00  0.00000000000E+00  0.14757088062E+04  0.14757088062E+04  0.00000000000E+00 0. -1.
         21   -1    0    0  502  503 -0.00000000000E+00 -0.00000000000E+00 -0.77222469648E+03  0.77222469648E+03  0.00000000000E+00 0. -1.
   -9000010    2    1    2    0  503 -0.33836397405E+03  0.10320261877E+03  0.46207525690E+03  0.11593307035E+04  0.10026929627E+04 0.  0.
    9000010    2    1    2  501    0  0.33836397405E+03 -0.10320261877E+03  0.24140885284E+03  0.10886027992E+04  0.10008180958E+04 0.  0.
        -13    1    4    4    0    0  0.62950237160E+03 -0.29231136220E+03  0.59340955731E+02  0.69659208186E+03  0.10566000000E+00 0.  1.
         13    1    3    3    0    0 -0.77757391978E+02 -0.23851193852E+02 -0.31741393467E+03  0.32766859560E+03  0.10566000000E+00 0. -1.
          4    1    4    4  501    0 -0.29113839755E+03  0.18910874343E+03  0.18206789711E+03  0.39201071736E+03  0.00000000000E+00 0.  1.
         -4    1    3    3    0  503 -0.26060658207E+03  0.12705381262E+03  0.77948919157E+03  0.83166210789E+03  0.00000000000E+00 0. -1.
</event>
<event>
 8    1  0.7008488E-006  0.1073590E+04  0.7818608E-02  0.8725234E-01
         21   -1    0    0  503  502  0.00000000000E+00  0.00000000000E+00  0.20956927325E+04  0.20956927325E+04  0.00000000000E+00 0. -1.
         21   -1    0    0  501  503 -0.00000000000E+00 -0.00000000000E+00 -0.54065835172E+03  0.54065835172E+03  0.00000000000E+00 0. -1.
    9000010    2    1    2  501    0 -0.14917141130E+03  0.39256274406E+03  0.50133844686E+03  0.11848782217E+04  0.98804784501E+03 0.  0.
   -9000010    2    1    2    0  502  0.14917141130E+03 -0.39256274406E+03  0.10536959339E+04  0.14514728625E+04  0.90561621640E+03 0.  0.
        -13    1    3    3    0    0  0.19098445838E+03  0.57861790330E+03  0.51369488394E+03  0.79696686651E+03  0.10566000000E+00 0.  1.
         13    1    4    4    0    0 -0.16768207962E+03  0.11607718380E+03 -0.36739438666E+02  0.20722207880E+03  0.10566000000E+00 0. -1.
          4    1    3    3  501    0 -0.34015586969E+03 -0.18605515924E+03 -0.12356437078E+02  0.38791135521E+03  0.00000000000E+00 0.  1.
         -4    1    4    4    0  502  0.31685349093E+03 -0.50863992786E+03  0.10904353726E+04  0.12442507837E+04  0.00000000000E+00 0. -1.
</event>
<event>
 7    1  0.7008488E-006  0.1108103E+04  0.7818608E-02  0.8763112E-01
         21   -1    0    0  501  502  0.00000000000E+00  0.00000000000E+00  0.91281647413E+03  0.91281647413E+03  0.00000000000E+00 0.  1.
         21   -1    0    0  502  503 -0.00000000000E+00 -0.00000000000E+00 -0.11803527037E+04  0.11803527037E+04  0.00000000000E+00 0.  1.
    9000010    2    1    2  501    0 -0.50997828524E+03 -0.32428301028E+01  0.28475865227E+03  0.11441067807E+04  0.98377053636E+03 0.  0.
        -13    1    3    3    0    0  0.17503563737E+03 -0.30990298830E+03  0.62479473016E+02  0.36135997595E+03  0.10566000000E+00 0.  1.
         13    1    1    2    0    0  0.35160049697E+03  0.35327011395E+02 -0.66430427968E+03  0.75244341606E+03  0.10566000000E+00 0. -1.
          4    1    3    3  501    0 -0.68501392261E+03  0.30666015820E+03  0.22227917926E+03  0.78274680474E+03  0.00000000000E+00 0.  1.
         -4    1    1    2    0  503  0.15837778827E+03 -0.32084181293E+02  0.11200939786E+03  0.19661898107E+03  0.00000000000E+00 0. -1.
</event>
<event>
 8    1  0.7008488E-006  0.1067691E+04  0.7818608E-02  0.8716330E-01
         21   -1    0    0  501  502  0.00000000000E+00  0.00000000000E+00  0.64698414722E+03  0.64698414722E+03  0.00000000000E+00 0.  1.
         21   -1    0    0  502  503 -0.00000000000E+00 -0.00000000000E+00 -0.17767950789E+04  0.17767950789E+04  0.00000000000E+00 0.  1.
   -9000010    2    1    2    0  503 -0.18673318134E+03 -0.28691040450E+03 -0.74179278536E+03  0.13000847675E+04  0.10113243818E+04 0.  0.
    9000010    2    1    2  501    0  0.18673318134E+03  0.28691040450E+03 -0.38801814629E+03  0.11236944586E+04  0.99746894344E+03 0.  0.
        -13    1    4    4    0    0  0.28942187813E+03  0.63059100605E+03 -0.22238417461E+03  0.72860467521E+03  0.10566000000E+00 0.  1.
         13    1    3    3    0    0 -0.29106860230E+03 -0.96471409885E+02  0.17830411229E+03  0.35471119491E+03  0.10566000000E+00 0. -1.
          4    1    4    4  501    0 -0.10268869679E+03 -0.34368060155E+03 -0.16563397168E+03  0.39508978335E+03  0.00000000000E+00 0.  1.
         -4    1    3    3    0  503  0.10433542095E+03 -0.19043899462E+03 -0.92009689766E+03  0.94537357262E+03  0.00000000000E+00 0. -1.
</event>
<event>
 8    1  0.7008488E-006  0.1125896E+04  0.7818608E-02  0.8667433E-01
         21   -1    0    0  503  502  0.00000000000E+00  0.00000000000E+00  0.11295805870E+04  0.11295805870E+04  0.00000000000E+00 0.  1.
         21   -1    0    0  501  503 -0.00000000000E+00 -0.00000000000E+00 -0.11274121746E+04  0.11274121746E+04  0.00000000000E+00 0.  1.
    9000010    2    1    2  501    0 -0.33928146609E+03 -0.33002549063E+03 -0.14598775522E+03  0.11353214226E+04  0.10215740649E+04 0.  0.
   -9000010    2    1    2    0  502  0.33928146609E+03  0.33002549063E+03  0.14815616757E+03  0.11216713390E+04  0.10060654080E+04 0.  0.
        -13    1    3    3    0    0 -0.36115770305E+03 -0.67280440565E+02  0.39136269182E+03  0.53677398583E+03  0.10566000000E+00 0.  1.
         13    1    4    4    0    0  0.42903508084E+02  0.34926709324E+03 -0.37864583955E+03  0.51691478640E+03  0.10566000000E+00 0. -1.
          4    1    3    3  501    0  0.21876236953E+02 -0.26274505006E+03 -0.53735044705E+03  0.59854743673E+03  0.00000000000E+00 0.  1.
         -4    1    4    4    0  502  0.29637795801E+03 -0.19241602611E+02  0.52680200712E+03  0.60475655265E+03  0.00000000000E+00 0. -1.
</event>
<event>
 8    1  0.7008488E-006  0.1161284E+04  0.7818608E-02  0.8638010E-01
         21   -1    0    0  501  502  0.00000000000E+00  0.00000000000E+00  0.14227647932E+04  0.14227647932E+04  0.00000000000E+00 0.  1.
         21   -1    0    0  502  503 -0.00000000000E+00 -0.00000000000E+00 -0.10676898602E+04  0.10676898602E+04  0.00000000000E+00 0. -1.
   -9000010    2    1    2    0  503 -0.55841685469E+03  0.19350819295E+03 -0.25118619969E+03  0.11881395868E+04  0.99965312306E+03 0.  0.
    9000010    2    1    2  501    0  0.55841685469E+03 -0.19350819295E+03  0.60626113270E+03  0.13023150666E+04  0.98954391891E+03 0.  0.
        -13    1    4    4    0    0 -0.27363064936E+02 -0.42503161811E+03  0.51108932994E+03  0.66529161129E+03  0.10566000000E+00 0.  1.
         13    1    3    3    0    0 -0.21620751167E+03  0.29452576500E+03  0.33904527584E+03  0.49844039220E+03  0.10566000000E+00 0. -1.
          4    1    4    4  501    0  0.58577991963E+03  0.23152342515E+03  0.95171802761E+02  0.63702345535E+03  0.00000000000E+00 0.  1.
         -4    1    3    3    0  503 -0.34220934302E+03 -0.10101757204E+03 -0.59023147553E+03  0.68969919459E+03  0.00000000000E+00 0. -1.
</event>
<event>
 8    1  0.7008488E-006  0.1142595E+04  0.7818608E-02  0.8652679E-01
         21   -1    0    0  501  502  0.00000000000E+00  0.00000000000E+00  0.37342584603E+03  0.37342584603E+03  0.00000000000E+00 0.  1.
         21   -1    0    0  502  503 -0.00000000000E+00 -0.00000000000E+00 -0.34907983681E+04  0.34907983681E+04  0.00000000000E+00 0.  1.
   -9000010    2    1    2    0  503  0.55458771022E+02 -0.46802014393E+03 -0.14110502494E+04  0.18106764657E+04  0.10321666176E+04 0.  0.
    9000010    2    1    2  501    0 -0.55458771022E+02  0.46802014393E+03 -0.17063222727E+04  0.20535477485E+04  0.10408670072E+04 0.  0.
        -13    1    4    4    0    0 -0.24260415331E+03 -0.76966129311E+02 -0.13549401882E+04  0.13786382720E+04  0.10566000000E+00 0.  1.
         13    1    3    3    0    0  0.23422175559E+03  0.20800637380E+03 -0.87561524264E+03  0.92996158342E+03  0.10566000000E+00 0. -1.
          4    1    4    4  501    0  0.18714538229E+03  0.54498627325E+03 -0.35138208446E+03  0.67490947646E+03  0.00000000000E+00 0.  1.
         -4    1    3    3    0  503 -0.17876298456E+03 -0.67602651774E+03 -0.53543500677E+03  0.88071488224E+03  0.00000000000E+00 0. -1.
</event>
<event>
 8    1  0.7008488E-006  0.1444662E+04  0.7818608E-02  0.8442615E-01
         21   -1    0    0  501  502  0.00000000000E+00  0.00000000000E+00  0.12705507485E+04  0.12705507485E+04  0.00000000000E+00 0.  1.
         21   -1    0    0  502  503 -0.00000000000E+00 -0.00000000000E+00 -0.19571637931E+04  0.19571637931E+04  0.00000000000E+00 0.  1.
   -9000010    2    1    2    0  503  0.12948869960E+03  0.10275603937E+04  0.30818152171E+03  0.14736724226E+04  0.10020413528E+04 0.  0.
    9000010    2    1    2  501    0 -0.12948869960E+03 -0.10275603937E+04 -0.99479456627E+03  0.17540421189E+04  0.10071741854E+04 0.  0.
        -13    1    4    4    0    0  0.82632236839E+02 -0.43235427078E+03  0.13425918228E+03  0.46019978403E+03  0.10566000000E+00 0.  1.
         13    1    3    3    0    0 -0.19314247257E+03  0.40817472011E+02 -0.23099691409E+03  0.30385797047E+03  0.10566000000E+00 0. -1.
          4    1    4    4  501    0 -0.21212093644E+03 -0.59520612294E+03 -0.11290537486E+04  0.12938423349E+04  0.00000000000E+00 0.  1.
         -4    1    3    3    0  503  0.32263117217E+03  0.98674292171E+03  0.53917843580E+03  0.11698144521E+04  0.00000000000E+00 0. -1.
</event>
<event>
 8    1  0.7008488E-006  0.1233356E+04  0.7818608E-02  0.8584660E-01
         21   -1    0    0  503  502  0.00000000000E+00  0.00000000000E+00  0.89242185505E+03  0.89242185505E+03  0.00000000000E+00 0. -1.
         21   -1    0    0  501  503 -0.00000000000E+00 -0.00000000000E+00 -0.21175678298E+04  0.21175678298E+04  0.00000000000E+00 0. -1.
    9000010    2    1    2  501    0  0.50288500489E+03  0.47823521729E+03 -0.12969974729E+04  0.17897960056E+04  0.10195906265E+04 0.  0.
   -9000010    2    1    2    0  502 -0.50288500489E+03 -0.47823521729E+03  0.71851498173E+02  0.12201936793E+04  0.10010533082E+04 0.  0.
        -13    1    3    3    0    0  0.21846394838E+03 -0.18841527210E+03 -0.93723680319E+03  0.98063226947E+03  0.10566000000E+00 0.  1.
         13    1    4    4    0    0 -0.32954612402E+03 -0.70993066444E+03  0.31356101334E+03  0.84316233100E+03  0.10566000000E+00 0. -1.
          4    1    3    3  501    0  0.28442105651E+03  0.66665048939E+03 -0.35976066975E+03  0.80916373614E+03  0.00000000000E+00 0.  1.
         -4    1    4    4    0  502 -0.17333888088E+03  0.23169544714E+03 -0.24170951517E+03  0.37703134827E+03  0.00000000000E+00 0. -1.
</event>
<event>
 8    1  0.7008488E-006  0.1026129E+04  0.7818608E-02  0.8756048E-01
         21   -1    0    0  501  502  0.00000000000E+00  0.00000000000E+00  0.11528852393E+04  0.11528852393E+04  0.00000000000E+00 0.  1.
         21   -1    0    0  502  503 -0.00000000000E+00 -0.00000000000E+00 -0.89181930527E+03  0.89181930527E+03  0.00000000000E+00 0.  1.
   -9000010    2    1    2    0  503 -0.11236971448E+03 -0.14618202498E+03  0.13975851268E+03  0.10114299431E+04  0.98461258920E+03 0.  0.
    9000010    2    1    2  501    0  0.11236971448E+03  0.14618202498E+03  0.12130742136E+03  0.10332746015E+04  0.10094279441E+04 0.  0.
        -13    1    4    4    0    0  0.35809376142E+03  0.23731099469E+03 -0.30918265666E+03  0.52928402254E+03  0.10566000000E+00 0.  1.
         13    1    3    3    0    0 -0.48297220732E+02  0.32550089484E+03  0.35930921238E+03  0.48722333210E+03  0.10566000000E+00 0. -1.
          4    1    4    4  501    0 -0.24572404694E+03 -0.91128969715E+02  0.43049007802E+03  0.50399057892E+03  0.00000000000E+00 0.  1.
         -4    1    3    3    0  503 -0.64072493750E+02 -0.47168291982E+03 -0.21955069970E+03  0.52420661103E+03  0.00000000000E+00 0. -1.
</event>
<event>
 8    1  0.7008488E-006  0.1125255E+04  0.7818608E-02  0.8673727E-01
         21   -1    0    0  503  502  0.00000000000E+00  0.00000000000E+00  0.16880172318E+04  0.16880172318E+04  0.00000000000E+00 0. -1.
         21   -1    0    0  501  503 -0.00000000000E+00 -0.00000000000E+00 -0.72866940279E+03  0.72866940279E+03  0.00000000000E+00 0. -1.
    9000010    2    1    2  501    0  0.11878860298E+03  0.45468733765E+03  0.59890892317E+03  0.12747120555E+04  0.10224224268E+04 0.  0.
   -9000010    2    1    2    0  502 -0.11878860298E+03 -0.45468733765E+03  0.36043890579E+03  0.11419745791E+04  0.97639050959E+03 0.  0.
        -13    1    3    3    0    0 -0.31082146677E+03  0.20738024534E+03  0.67663340290E+03  0.77294846105E+03  0.10566000000E+00 0.  1.
         13    1    4    4    0    0  0.42169893057E+03 -0.12650749727E+03  0.68684228110E+02  0.44559137027E+03  0.10566000000E+00 0. -1.
          4    1    3    3  501    0  0.42961006975E+03  0.24730709232E+03 -0.77724479730E+02  0.50176359442E+03  0.00000000000E+00 0.  1.
         -4    1    4    4    0  502 -0.54048753354E+03 -0.32817984039E+03  0.29175467768E+03  0.69638320880E+03  0.00000000000E+00 0. -1.
</event>
<event>
 8    1  0.7008488E-006  0.1134408E+04  0.7818608E-02  0.8663797E-01
         21   -1    0    0  501  502  0.00000000000E+00  0.00000000000E+00  0.14864890129E+04  0.14864890129E+04  0.00000000000E+00 0.  1.
         21   -1    0    0  502  503 -0.00000000000E+00 -0.00000000000E+00 -0.97464080297E+03  0.97464080297E+03  0.00000000000E+00 0.  1.
   -9000010    2    1    2    0  503  0.39056482125E+03  0.26534328087E+03 -0.19930839490E+03  0.11222406794E+04  0.99837486445E+03 0.  0.
    9000010    2    1    2  501    0 -0.39056482125E+03 -0.26534328087E+03  0.71115660483E+03  0.13388891364E+04  0.10314710208E+04 0.  0.
        -13    1    4    4    0    0 -0.86498012064E+02 -0.25639617822E+03  0.92713530180E+03  0.96581612396E+03  0.10566000000E+00 0.  1.
         13    1    3    3    0    0  0.21924215495E+03 -0.37610628308E+03 -0.13194061787E+03  0.45489712737E+03  0.10566000000E+00 0. -1.
          4    1    4    4  501    0 -0.30406680918E+03 -0.89471026513E+01 -0.21597869697E+03  0.37307301248E+03  0.00000000000E+00 0.  1.
         -4    1    3    3    0  503  0.17132266630E+03  0.64144956395E+03 -0.67367777030E+02  0.66734355205E+03  0.00000000000E+00 0. -1.
</event>
<event>
 8    1  0.7008488E-006  0.1112095E+04  0.7818608E-02  0.8676087E-01
         21   -1    0    0  503  502  0.00000000000E+00  0.00000000000E+00  0.11112293988E+04  0.11112293988E+04  0.00000000000E+00 0. -1.
         21   -1    0    0  501  503 -0.00000000000E+00 -0.00000000000E+00 -0.11182625228E+04  0.11182625228E+04  0.00000000000E+00 0. -1.
    9000010    2    1    2  501    0 -0.48069627831E+03  0.12149948218E+03  0.80485750684E+02  0.11139587582E+04  0.99428120904E+03 0.  0.
   -9000010    2    1    2    0  502  0.48069627831E+03 -0.12149948218E+03 -0.87518874612E+02  0.11155331635E+04  0.99545148009E+03 0.  0.
        -13    1    3    3    0    0 -0.63420365026E+03 -0.21915781345E+03 -0.13237250462E+03  0.68393487142E+03  0.10566000000E+00 0.  1.
         13    1    4    4    0    0 -0.44453274565E+00 -0.49308841393E+03  0.38830880133E+02  0.49461523428E+03  0.10566000000E+00 0. -1.
          4    1    3    3  501    0  0.15350737195E+03  0.34065729563E+03  0.21285825530E+03  0.43002388673E+03  0.00000000000E+00 0.  1.
         -4    1    4    4    0  502  0.48114081105E+03  0.37158893175E+03 -0.12634975475E+03  0.62091792918E+03  0.00000000000E+00 0. -1.
</event>
<event>
 8    1  0.7008488E-006  0.1082992E+04  0.7818608E-02  0.8701820E-01
         21   -1    0    0  501  502  0.00000000000E+00  0.00000000000E+00  0.29993284945E+04  0.29993284945E+04  0.00000000000E+00 0. -1.
         21   -1    0    0  502  503 -0.00000000000E+00 -0.00000000000E+00 -0.41568918879E+03  0.41568918879E+03  0.00000000000E+00 0. -1.
   -9000010    2    1    2    0  503 -0.25952279159E+03  0.30423267027E+03  0.17326352780E+04  0.20432565811E+04  0.10064605569E+04 0.  0.
    9000010    2    1    2  501    0  0.25952279159E+03 -0.30423267027E+03  0.85100402771E+03  0.13717611022E+04  0.99880482045E+03 0.  0.
        -13    1    4    4    0    0  0.10812484305E+03 -0.39161857791E+03 -0.88779484455E+02  0.41585802898E+03  0.10566000000E+00 0.  1.
         13    1    3    3    0    0 -0.20334343169E+03 -0.27782952610E+03  0.18941189359E+03  0.39295632503E+03  0.10566000000E+00 0. -1.
          4    1    4    4  501    0  0.15139794855E+03  0.87385907639E+02  0.93978351216E+03  0.95590307323E+03  0.00000000000E+00 0.  1.
         -4    1    3    3    0  503 -0.56179359905E+02  0.58206219637E+03  0.15432233844E+04  0.16503002560E+04  0.00000000000E+00 0. -1.
</event>
<event>
 8    1  0.7008488E-006  0.1963653E+04  0.7818608E-02  0.8184022E-01
         21   -1    0    0  503  502  0.00000000000E+00  0.00000000000E+00  0.18783945797E+04  0.18783945797E+04  0.00000000000E+00 0.  1.
         21   -1    0    0  501  503 -0.00000000000E+00 -0.00000000000E+00 -0.21366563722E+04  0.21366563722E+04  0.00000000000E+00 0. -1.
    9000010    2    1    2  501    0  0.78415606103E+03  0.14848344153E+04  0.28401259965E+03  0.19840862183E+04  0.10179887014E+04 0.  0.
   -9000010    2    1    2    0  502 -0.78415606103E+03 -0.14848344153E+04 -0.54227439221E+03  0.20309647336E+04  0.10055457542E+04 0.  0.
        -13    1    3    3    0    0  0.31115986097E+02  0.14636121190E+03  0.41655079386E+03  0.44261087195E+03  0.10566000000E+00 0.  1.
         13    1    4    4    0    0 -0.40705400551E+03 -0.59606237960E+03 -0.75268150327E+03  0.10428388084E+04  0.10566000000E+00 0. -1.
          4    1    3    3  501    0  0.75304007493E+03  0.13384732034E+04 -0.13253819421E+03  0.15414753464E+04  0.00000000000E+00 0.  1.
         -4    1    4    4    0  502 -0.37710205552E+03 -0.88877203567E+03  0.21040711106E+03  0.98812592520E+03  0.00000000000E+00 0. -1.
</event>
<event>
 8    1  0.7008488E-006  0.1150749E+04  0.7818608E-02  0.8646769E-01
         21   -1    0    0  501  502  0.00000000000E+00  0.00000000000E+00  0.15699747807E+04  0.15699747807E+04  0.00000000000E+00 0.  1.
         21   -1    0    0  502  503 -0.00000000000E+00 -0.00000000000E+00 -0.86774477252E+03  0.86774477252E+03  0.00000000000E+00 0. -1.
   -9000010    2    1    2    0  503 -0.45272116019E+03 -0.31160962897E+03  0.58765125450E+03  0.12921136563E+04  0.10110225983E+04 0.  0.
    9000010    2    1    2  501    0  0.45272116019E+03  0.31160962897E+03  0.11457875368E+03  0.11456058969E+04  0.99861282310E+03 0.  0.
        -13    1    4    4    0    0  0.43729813654E+03 -0.27621493977E+03  0.19364202819E+03  0.55228760572E+03  0.10566000000E+00 0.  1.
         13    1    3    3    0    0  0.20687962945E+03  0.38735001085E+02  0.49704050994E+03  0.53976741387E+03  0.10566000000E+00 0. -1.
          4    1    4    4  501    0  0.15423023648E+02  0.58782456874E+03 -0.79063274518E+02  0.59331829118E+03  0.00000000000E+00 0.  1.
         -4    1    3    3    0  503 -0.65960078964E+03 -0.35034463005E+03  0.90610744560E+02  0.75234624245E+03  0.00000000000E+00 0. -1.
</event>
<event>
 8    1  0.7008488E-006  0.1053017E+04  0.7818608E-02  0.8727515E-01
         21   -1    0    0  503  502  0.00000000000E+00  0.00000000000E+00  0.18539110650E+04  0.18539110650E+04  0.00000000000E+00 0. -1.
         21   -1    0    0  501  503 -0.00000000000E+00 -0.00000000000E+00 -0.64870265314E+03  0.64870265314E+03  0.00000000000E+00 0. -1.
    9000010    2    1    2  501    0 -0.12074621375E+03  0.30618377962E+03  0.24408899321E+03  0.10809371279E+04  0.10002587080E+04 0.  0.
   -9000010    2    1    2    0  502  0.12074621375E+03 -0.30618377962E+03  0.96111941870E+03  0.14216765903E+04  0.99452784542E+03 0.  0.
        -13    1    3    3    0    0 -0.50182026672E+03  0.34414418259E+03  0.32452684795E+03  0.68962053674E+03  0.10566000000E+00 0.  1.
         13    1    4    4    0    0  0.22726965577E+03 -0.63529178390E+03  0.77958227454E+03  0.10310168190E+04  0.10566000000E+00 0. -1.
          4    1    3    3  501    0  0.38107405297E+03 -0.37960402969E+02 -0.80437854739E+02  0.39131659116E+03  0.00000000000E+00 0.  1.
         -4    1    4    4    0  502 -0.10652344202E+03  0.32910800428E+03  0.18153714416E+03  0.39065977128E+03  0.00000000000E+00 0. -1.
</event>
<event>
 8    1  0.7008488E-006  0.1044546E+04  0.7818608E-02  0.8737263E-01
         21   -1    0    0  503  502  0.00000000000E+00  0.00000000000E+00  0.79251249281E+03  0.79251249281E+03  0.00000000000E+00 0. -1.
         21   -1    0    0  501  503 -0.00000000000E+00 -0.00000000000E+00 -0.13936072324E+04  0.13936072324E+04  0.00000000000E+00 0. -1.
    9000010    2    1    2  501    0  0.16678495501E+03  0.18501168678E+03 -0.48073392525E+03  0.11498619361E+04  0.10144115633E+04 0.  0.
   -9000010    2    1    2    0  502 -0.16678495501E+03 -0.18501168678E+03 -0.12036081430E+03  0.10362577890E+04  0.99864755256E+03 0.  0.
        -13    1    3    3    0    0  0.17907141360E+03  0.37056556544E+03 -0.73050641892E+03  0.83846589001E+03  0.10566000000E+00 0.  1.
         13    1    4    4    0    0  0.12964161354E+03 -0.54520452961E+03 -0.10053442647E+03  0.56935235939E+03  0.10566000000E+00 0. -1.
          4    1    3    3  501    0 -0.12286458598E+02 -0.18555387866E+03  0.24977249367E+03  0.31139604613E+03  0.00000000000E+00 0.  1.
         -4    1    4    4    0  502 -0.29642656855E+03  0.36019284283E+03 -0.19826387830E+02  0.46690542964E+03  0.00000000000E+00 0. -1.
</event>
<event>
 8    1  0.7008488E-006  0.1101934E+04  0.7818608E-02  0.8695832E-01
         21   -1    0    0  501  502  0.00000000000E+00  0.00000000000E+00  0.95464427562E+03  0.95464427562E+03  0.00000000000E+00 0.  1.
         21   -1    0    0  502  503 -0.00000000000E+00 -0.00000000000E+00 -0.12110461432E+04  0.12110461432E+04  0.00000000000E+00 0.  1.
   -9000010    2    1    2    0  503 -0.22585974525E+03 -0.36602051594E+03 -0.14424567741E+03  0.10580633673E+04  0.95588055271E+03 0.  0.
    9000010    2    1    2  501    0  0.22585974525E+03  0.36602051594E+03 -0.11215619014E+03  0.11076270515E+04  0.10145319274E+04 0.  0.
        -13    1    4    4    0    0  0.16565516073E+03  0.78102812166E+02 -0.55025993882E+03  0.57993766302E+03  0.10566000000E+00 0.  1.
         13    1    3    3    0    0 -0.55688192785E+03 -0.42786198620E+02  0.40251419621E+02  0.55997172099E+03  0.10566000000E+00 0. -1.
          4    1    4    4  501    0  0.60204584524E+02  0.28791770378E+03  0.43810374869E+03  0.52768938852E+03  0.00000000000E+00 0.  1.
         -4    1    3    3    0  503  0.33102218260E+03 -0.32323431732E+03 -0.18449709703E+03  0.49809164626E+03  0.00000000000E+00 0. -1.
</event>
<event>
 8    1  0.7008488E-006  0.1218460E+04  0.7818608E-02  0.8592807E-01
         21   -1    0    0  501  502  0.00000000000E+00  0.00000000000E+00  0.16145408582E+04  0.16145408582E+04  0.00000000000E+00 0. -1.
         21   -1    0    0  502  503 -0.00000000000E+00 -0.00000000000E+00 -0.12870098699E+04  0.12870098699E+04  0.00000000000E+00 0. -1.
   -9000010    2    1    2    0  503  0.24455562189E+03 -0.65016011097E+03 -0.61150831150E+03  0.13633001627E+04  0.10010640821E+04 0.  0.
    9000010    2    1    2  501    0 -0.24455562189E+03  0.65016011097E+03  0.93903929985E+03  0.15382505654E+04  0.10009517338E+04 0.  0.
        -13    1    4    4    0    0  0.23408535695E+03  0.22587703506E+03 -0.80110360516E+02  0.33501353753E+03  0.10566000000E+00 0.  1.
         13    1    3    3    0    0  0.21409364400E+03 -0.28511588454E+03 -0.85301940244E+03  0.92453732652E+03  0.10566000000E+00 0. -1.
          4    1    4    4  501    0 -0.47864097884E+03  0.42428307591E+03  0.10191496604E+04  0.12032370279E+04  0.00000000000E+00 0.  1.
         -4    1    3    3    0  503  0.30461977887E+02 -0.36504422643E+03  0.24151109095E+03  0.43876283616E+03  0.00000000000E+00 0. -1.
</event>
<event>
 8    1  0.7008488E-006  0.1072646E+04  0.7818608E-02  0.8710200E-01
         21   -1    0    0  503  502  0.00000000000E+00  0.00000000000E+00  0.29724728347E+04  0.29724728347E+04  0.00000000000E+00 0.  1.
         21   -1    0    0  501  503 -0.00000000000E+00 -0.00000000000E+00 -0.48999216198E+03  0.48999216198E+03  0.00000000000E+00 0.  1.
    9000010    2    1    2  501    0  0.19208456196E+03 -0.29083163262E+03  0.43911173482E+03  0.11546680557E+04  0.10094353301E+04 0.  0.
   -9000010    2    1    2    0  502 -0.19208456196E+03  0.29083163262E+03  0.20433689379E+04  0.23077969410E+04  0.10144410220E+04 0.  0.
        -13    1    3    3    0    0  0.15350301999E+03  0.27246974936E+03  0.49687375116E+03  0.58710005725E+03  0.10566000000E+00 0.  1.
         13    1    4    4    0    0 -0.12742049582E+02  0.36035714921E+03  0.20808252245E+04  0.21118364664E+04  0.10566000000E+00 0. -1.
          4    1    3    3  501    0  0.38581541964E+02 -0.56330138198E+03 -0.57762016344E+02  0.56756799844E+03  0.00000000000E+00 0.  1.
         -4    1    4    4    0  502 -0.17934251238E+03 -0.69525516592E+02 -0.37456286575E+02  0.19596047460E+03  0.00000000000E+00 0. -1.
</event>
<event>
 8    1  0.7008488E-006  0.1072418E+04  0.7818608E-02  0.8716302E-01
         21   -1    0    0  503  502  0.00000000000E+00  0.00000000000E+00  0.10200690966E+04  0.10200690966E+04  0.00000000000E+00 0.  1.
         21   -1    0    0  501  503 -0.00000000000E+00 -0.00000000000E+00 -0.10947574170E+04  0.10947574170E+04  0.00000000000E+00 0.  1.
    9000010    2    1    2  501    0 -0.26879998641E+03  0.15548026822E+03 -0.21002516334E+02  0.10726241066E+04  0.10264764108E+04 0.  0.
   -9000010    2    1    2    0  502  0.26879998641E+03 -0.15548026822E+03 -0.53685803982E+02  0.10422024070E+04  0.99341640062E+03 0.  0.
        -13    1    3    3    0    0 -0.31176887318E+02  0.27439534692E+03 -0.47334256403E+03  0.54801277248E+03  0.10566000000E+00 0.  1.
         13    1    4    4    0    0  0.37867470279E+03  0.20581991794E+03 -0.35556589796E+03  0.55873382581E+03  0.10566000000E+00 0. -1.
          4    1    3    3  501    0 -0.23762309909E+03 -0.11891507870E+03  0.45234004770E+03  0.52461133415E+03  0.00000000000E+00 0.  1.
         -4    1    4    4    0  502 -0.10987471637E+03 -0.36130018616E+03  0.30188009398E+03  0.48346858115E+03  0.00000000000E+00 0. -1.
</event>
<event>
 8    1  0.7008488E-006  0.1067949E+04  0.7818608E-02  0.8716784E-01
         21   -1    0    0  503  502  0.00000000000E+00  0.00000000000E+00  0.11787565646E+04  0.11787565646E+04  0.00000000000E+00 0. -1.
         21   -1    0    0  501  503 -0.00000000000E+00 -0.00000000000E+00 -0.95574248147E+03  0.95574248147E+03  0.00000000000E+00 0. -1.
    9000010    2    1    2  501    0  0.30199708165E+02  0.37958035358E+03  0.16845995008E+03  0.10651576636E+04  0.98040237979E+03 0.  0.
   -9000010    2    1    2    0  502 -0.30199708165E+02 -0.37958035358E+03  0.54554133073E+02  0.10693413825E+04  0.99775827320E+03 0.  0.
        -13    1    3    3    0    0  0.16710370333E+03  0.11349601668E+03  0.54672102401E+03  0.58284550503E+03  0.10566000000E+00 0.  1.
         13    1    4    4    0    0 -0.50192956713E+03 -0.81156050327E+02  0.52369435201E+02  0.51113810636E+03  0.10566000000E+00 0. -1.
          4    1    3    3  501    0 -0.13690399517E+03  0.26608433689E+03 -0.37826107393E+03  0.48231215855E+03  0.00000000000E+00 0.  1.
         -4    1    4    4    0  502  0.47172985897E+03 -0.29842430325E+03  0.21846978727E+01  0.55820327616E+03  0.00000000000E+00 0. -1.
</event>
<event>
 8    1  0.7008488E-006  0.1241517E+04  0.7818608E-02  0.8578740E-01
         21   -1    0    0  503  502  0.00000000000E+00  0.00000000000E+00  0.11154709841E+04  0.11154709841E+04  0.00000000000E+00 0.  1.
         21   -1    0    0  501  503 -0.00000000000E+00 -0.00000000000E+00 -0.18116306742E+04  0.18116306742E+04  0.00000000000E+00 0.  1.
    9000010    2    1    2  501    0  0.25329307002E+02  0.69823656379E+03 -0.10766308660E+04  0.16433194051E+04  0.10262498588E+04 0.  0.
   -9000010    2    1    2    0  502 -0.25329307002E+02 -0.69823656379E+03  0.38047117586E+03  0.12837822533E+04  0.10075528202E+04 0.  0.
        -13    1    3    3    0    0  0.23153662249E+03  0.11704556846E+02  0.11029068084E+03  0.25672991577E+03  0.10566000000E+00 0.  1.
         13    1    4    4    0    0  0.44259931403E+03 -0.52313034413E+03  0.54885064075E+02  0.68743864537E+03  0.10566000000E+00 0. -1.
          4    1    3    3  501    0 -0.20620731549E+03  0.68653200695E+03 -0.11869215468E+04  0.13865894893E+04  0.00000000000E+00 0.  1.
         -4    1    4    4    0  502 -0.46792862103E+03 -0.17510621966E+03  0.32558611178E+03  0.59634360794E+03  0.00000000000E+00 0. -1.
</event>
<event>
 8    1  0.7008488E-006  0.1056589E+04  0.7818608E-02  0.8728071E-01
         21   -1    0    0  501  502  0.00000000000E+00  0.00000000000E+00  0.14511822543E+04  0.14511822543E+04  0.00000000000E+00 0. -1.
         21   -1    0    0  502  503 -0.00000000000E+00 -0.00000000000E+00 -0.10232451861E+04  0.10232451861E+04  0.00000000000E+00 0. -1.
   -9000010    2    1    2    0  503 -0.35570816034E+03  0.12814858390E+03 -0.41980748515E+03  0.11369338862E+04  0.98662555310E+03 0.  0.
    9000010    2    1    2  501    0  0.35570816034E+03 -0.12814858390E+03  0.84774455335E+03  0.13374935543E+04  0.96294746747E+03 0.  0.
        -13    1    4    4    0    0  0.44783471954E+02 -0.51398875549E+03  0.29169162288E+03  0.59268373872E+03  0.10566000000E+00 0.  1.
         13    1    3    3    0    0 -0.37523245427E+03  0.12973899986E+03  0.24847063017E+03  0.46836873085E+03  0.10566000000E+00 0. -1.
          4    1    4    4  501    0  0.31092468838E+03  0.38584017159E+03  0.55605293047E+03  0.74480981555E+03  0.00000000000E+00 0.  1.
         -4    1    3    3    0  503  0.19524293932E+02 -0.15904159591E+01 -0.66827811532E+03  0.66856515531E+03  0.00000000000E+00 0. -1.
</event>
<event>
 8    1  0.7008488E-006  0.1174572E+04  0.7818608E-02  0.8628327E-01
         21   -1    0    0  501  502  0.00000000000E+00  0.00000000000E+00  0.77778951123E+03  0.77778951123E+03  0.00000000000E+00 0.  1.
         21   -1    0    0  502  503 -0.00000000000E+00 -0.00000000000E+00 -0.17660325075E+04  0.17660325075E+04  0.00000000000E+00 0.  1.
   -9000010    2    1    2    0  503 -0.74531277496E+02  0.60019995593E+03 -0.39806605385E+03  0.12401922094E+04  0.10068888890E+04 0.  0.
    9000010    2    1    2  501    0  0.74531277496E+02 -0.60019995593E+03 -0.59017694243E+03  0.13036298093E+04  0.99264644152E+03 0.  0.
        -13    1    4    4    0    0  0.23869323784E+03  0.19065466091E+03 -0.34217250061E+03  0.45870000311E+03  0.10566000000E+00 0.  1.
         13    1    3    3    0    0  0.15951774792E+03  0.15441546262E+03  0.30388235572E+03  0.37634365184E+03  0.10566000000E+00 0. -1.
          4    1    4    4  501    0 -0.16416196034E+03 -0.79085461684E+03 -0.24800444182E+03  0.84492980618E+03  0.00000000000E+00 0.  1.
         -4    1    3    3    0  503 -0.23404902542E+03  0.44578449331E+03 -0.70194840957E+03  0.86384855760E+03  0.00000000000E+00 0. -1.
</event>
<event>
 8    1  0.7008488E-006  0.1143401E+04  0.7818608E-02  0.8651009E-01
         21   -1    0    0  503  502  0.00000000000E+00  0.00000000000E+00  0.79001273289E+03  0.79001273289E+03  0.00000000000E+00 0.  1.
         21   -1    0    0  501  503 -0.00000000000E+00 -0.00000000000E+00 -0.16542579774E+04  0.16542579774E+04  0.00000000000E+00 0.  1.
    9000010    2    1    2  501    0  0.31263900014E+02  0.54914706916E+03 -0.48857798235E+03  0.12434123476E+04  0.10024100391E+04 0.  0.
   -9000010    2    1    2    0  502 -0.31263900014E+02 -0.54914706916E+03 -0.37566726214E+03  0.12008583626E+04  0.99919716788E+03 0.  0.
        -13    1    3    3    0    0 -0.18070525051E+03  0.17421317626E+02  0.25001192891E+03  0.30897227324E+03  0.10566000000E+00 0.  1.
         13    1    4    4    0    0 -0.49680337133E+03 -0.43373011148E+03 -0.24736261446E+03  0.70436047133E+03  0.10566000000E+00 0. -1.
          4    1    3    3  501    0  0.21196915052E+03  0.53172575153E+03 -0.73858991126E+03  0.93444007439E+03  0.00000000000E+00 0.  1.
         -4    1    4    4    0  502  0.46553947132E+03 -0.11541695768E+03 -0.12830464767E+03  0.49649789132E+03  0.00000000000E+00 0. -1.
</event>
<event>
 8    1  0.7008488E-006  0.1117322E+04  0.7818608E-02  0.8686569E-01
         21   -1    0    0  501  502  0.00000000000E+00  0.00000000000E+00  0.10495008540E+04  0.10495008540E+04  0.00000000000E+00 0. -1.
         21   -1    0    0  502  503 -0.00000000000E+00 -0.00000000000E+00 -0.14910654024E+04  0.14910654024E+04  0.00000000000E+00 0. -1.
   -9000010    2    1    2    0  503  0.30439524294E+03 -0.39997186986E+03  0.42184794517E+03  0.11285143594E+04  0.91812581375E+03 0.  0.
    9000010    2    1    2  501    0 -0.30439524294E+03  0.39997186986E+03 -0.86341249363E+03  0.14120518970E+04  0.99788549695E+03 0.  0.
        -13    1    4    4    0    0 -0.47629720077E+02  0.48852799371E+03 -0.99557289490E+03  0.11099971131E+04  0.10566000000E+00 0.  1.
         13    1    3    3    0    0  0.37579175430E+02 -0.65070510041E+03  0.39331256090E+03  0.76126480534E+03  0.10566000000E+00 0. -1.
          4    1    4    4  501    0 -0.25676552287E+03 -0.88556123853E+02  0.13216040127E+03  0.30205478389E+03  0.00000000000E+00 0.  1.
         -4    1    3    3    0  503  0.26681606751E+03  0.25073323055E+03  0.28535384263E+02  0.36724955404E+03  0.00000000000E+00 0. -1.
</event>
<event>
 8    1  0.7008488E-006  0.1102705E+04  0.7818608E-02  0.8684442E-01
         21   -1    0    0  503  502  0.00000000000E+00  0.00000000000E+00  0.17983508370E+04  0.17983508370E+04  0.00000000000E+00 0. -1.
         21   -1    0    0  501  503 -0.00000000000E+00 -0.00000000000E+00 -0.67389962269E+03  0.67389962269E+03  0.00000000000E+00 0. -1.
    9000010    2    1    2  501    0  0.77103043285E+02  0.41483451994E+03  0.55566204596E+03  0.12347954033E+04  0.10187869358E+04 0.  0.
   -9000010    2    1    2    0  502 -0.77103043285E+02 -0.41483451994E+03  0.56878916838E+03  0.12374550564E+04  0.10147617160E+04 0.  0.
        -13    1    3    3    0    0  0.18150598132E+03  0.71819545379E+03  0.53411047155E+03  0.91324867264E+03  0.10566000000E+00 0.  1.
         13    1    4    4    0    0  0.13182274638E+03 -0.41198787362E+03  0.81003951377E+03  0.91830020663E+03  0.10566000000E+00 0. -1.
          4    1    3    3  501    0 -0.10440293804E+03 -0.30336093385E+03  0.21551574413E+02  0.32154673069E+03  0.00000000000E+00 0.  1.
         -4    1    4    4    0  502 -0.20892578966E+03 -0.28466463251E+01 -0.24125034539E+03  0.31915484977E+03  0.00000000000E+00 0. -1.
</event>
<event>
 8    1  0.7008488E-006  0.1107306E+04  0.7818608E-02  0.8685112E-01
         21   -1    0    0  503  502  0.00000000000E+00  0.00000000000E+00  0.91807802041E+03  0.91807802041E+03  0.00000000000E+00 0.  1.
         21   -1    0    0  501  503 -0.00000000000E+00 -0.00000000000E+00 -0.13232602201E+04  0.13232602201E+04  0.00000000000E+00 0.  1.
    9000010    2    1    2  501    0  0.10303601206E+03  0.43579085744E+03 -0.33041557933E+03  0.11315106943E+04  0.98519637896E+03 0.  0.
   -9000010    2    1    2    0  502 -0.10303601206E+03 -0.43579085744E+03 -0.74766620364E+02  0.11098275462E+04  0.10127176524E+04 0.  0.
        -13    1    3    3    0    0  0.33058398921E+03  0.18699645660E+03  0.25392900938E+03  0.45687350729E+03  0.10566000000E+00 0.  1.
         13    1    4    4    0    0  0.21068350867E+03 -0.52097872590E+01  0.36336623716E+03  0.42005918177E+03  0.10566000000E+00 0. -1.
          4    1    3    3  501    0 -0.22754797714E+03  0.24879440083E+03 -0.58434458870E+03  0.67463718704E+03  0.00000000000E+00 0.  1.
         -4    1    4    4    0  502 -0.31371952073E+03 -0.43058107018E+03 -0.43813285753E+03  0.68976836440E+03  0.00000000000E+00 0. -1.
</event>
<event>
 8    1  0.7008488E-006  0.1145487E+04  0.7818608E-02  0.8652594E-01
         21   -1    0    0  503  502  0.00000000000E+00  0.00000000000E+00  0.54935568856E+03  0.54935568856E+03  0.00000000000E+00 0. -1.
         21   -1    0    0  501  503 -0.00000000000E+00 -0.00000000000E+00 -0.23794718638E+04  0.23794718638E+04  0.00000000000E+00 0. -1.
    9000010    2    1    2  501    0 -0.52305465321E+03  0.67374172845E+02 -0.10729087473E+04  0.15556909560E+04  0.99544749789E+03 0.  0.
   -9000010    2    1    2    0  502  0.52305465321E+03 -0.67374172845E+02 -0.75720742794E+03  0.13731365964E+04  0.10168655634E+04 0.  0.
        -13    1    3    3    0    0 -0.32595154524E+03 -0.45494827817E+03 -0.63293051569E+03  0.84488069838E+03  0.10566000000E+00 0.  1.
         13    1    4    4    0    0  0.61652206238E+03 -0.78052862833E+02 -0.96343084706E+03  0.11464688007E+04  0.10566000000E+00 0. -1.
          4    1    3    3  501    0 -0.19710310797E+03  0.52232245101E+03 -0.43997823164E+03  0.71081025761E+03  0.00000000000E+00 0.  1.
         -4    1    4    4    0  502 -0.93467409170E+02  0.10678689988E+02  0.20622341912E+03  0.22666779566E+03  0.00000000000E+00 0. -1.
</event>
<event>
 8    1  0.7008488E-006  0.1040362E+04  0.7818608E-02  0.8738327E-01
         21   -1    0    0  503  502  0.00000000000E+00  0.00000000000E+00  0.14360940212E+04  0.14360940212E+04  0.00000000000E+00 0.  1.
         21   -1    0    0  501  503 -0.00000000000E+00 -0.00000000000E+00 -0.75297976891E+03  0.75297976891E+03  0.00000000000E+00 0.  1.
    9000010    2    1    2  501    0 -0.14893158676E+03  0.21059131330E+03  0.28921911813E+03  0.10798150046E+04  0.10078806611E+04 0.  0.
   -9000010    2    1    2    0  502  0.14893158676E+03 -0.21059131330E+03  0.39389513413E+03  0.11092587855E+04  0.10043766016E+04 0.  0.
        -13    1    3    3    0    0 -0.15526747055E+03  0.32382452835E+03  0.62751719635E+03  0.72301324708E+03  0.10566000000E+00 0.  1.
         13    1    4    4    0    0  0.18609309036E+03  0.36930465606E+03  0.11618821915E+02  0.41370469595E+03  0.10566000000E+00 0. -1.
          4    1    3    3  501    0  0.63358837866E+01 -0.11323321506E+03 -0.33829807822E+03  0.35680175748E+03  0.00000000000E+00 0.  1.
         -4    1    4    4    0  502 -0.37161503603E+02 -0.57989596935E+03  0.38227631222E+03  0.69555408956E+03  0.00000000000E+00 0. -1.
</event>
<event>
 8    1  0.7008488E-006  0.1815553E+04  0.7818608E-02  0.8248810E-01
         21   -1    0    0  501  502  0.00000000000E+00  0.00000000000E+00  0.38640753710E+04  0.38640753710E+04  0.00000000000E+00 0. -1.
         21   -1    0    0  502  503 -0.00000000000E+00 -0.00000000000E+00 -0.92499726771E+03  0.92499726771E+03  0.00000000000E+00 0. -1.
   -9000010    2    1    2    0  503  0.68501731220E+03  0.13548676307E+04  0.78221875926E+03  0.19698042779E+04  0.98150277187E+03 0.  0.
    9000010    2    1    2  501    0 -0.68501731220E+03 -0.13548676307E+04  0.21568593440E+04  0.28192683608E+04  0.99564895704E+03 0.  0.
        -13    1    4    4    0    0 -0.16925915921E+03 -0.42951485748E+03  0.54225353692E+02  0.46483553642E+03  0.10566000000E+00 0.  1.
         13    1    3    3    0    0  0.55014074256E+03  0.85485556221E+03 -0.17865866035E+02  0.10167359880E+04  0.10566000000E+00 0. -1.
          4    1    4    4  501    0 -0.51575815299E+03 -0.92535277320E+03  0.21026339903E+04  0.23544328244E+04  0.00000000000E+00 0.  1.
         -4    1    3    3    0  503  0.13487656963E+03  0.50001206847E+03  0.80008462529E+03  0.95306828994E+03  0.00000000000E+00 0. -1.
</event>
<event>
 8    1  0.7008488E-006  0.1056285E+04  0.7818608E-02  0.8731625E-01
         21   -1    0    0  501  502  0.00000000000E+00  0.00000000000E+00  0.18130494265E+04  0.18130494265E+04  0.00000000000E+00 0.  1.
         21   -1    0    0  502  503 -0.00000000000E+00 -0.00000000000E+00 -0.60277802830E+03  0.60277802830E+03  0.00000000000E+00 0.  1.
   -9000010    2    1    2    0  503  0.33624552636E+03 -0.91427843701E+02  0.75917448173E+03  0.13008016373E+04  0.99715540477E+03 0.  0.
    9000010    2    1    2  501    0 -0.33624552636E+03  0.91427843701E+02  0.45109691648E+03  0.11150258175E+04  0.95831834015E+03 0.  0.
        -13    1    4    4    0    0 -0.22316542618E+03 -0.32462374719E+03  0.54627695175E+03  0.67349974302E+03  0.10566000000E+00 0.  1.
         13    1    3    3    0    0 -0.21684027928E+03  0.78208130202E+02 -0.11101819452E+03  0.25585399944E+03  0.10566000000E+00 0. -1.
          4    1    4    4  501    0 -0.11308010018E+03  0.41605159089E+03 -0.95180035274E+02  0.44152607449E+03  0.00000000000E+00 0.  1.
         -4    1    3    3    0  503  0.55308580564E+03 -0.16963597390E+03  0.87019267625E+03  0.10449476379E+04  0.00000000000E+00 0. -1.
</event>
<event>
 8    1  0.7008488E-006  0.1476680E+04  0.7818608E-02  0.8424338E-01
         21   -1    0    0  503  502  0.00000000000E+00  0.00000000000E+00  0.18551118440E+04  0.18551118440E+04  0.00000000000E+00 0. -1.
         21   -1    0    0  501  503 -0.00000000000E+00 -0.00000000000E+00 -0.13059829550E+04  0.13059829550E+04  0.00000000000E+00 0. -1.
    9000010    2    1    2  501    0  0.81952400284E+03  0.71518113924E+03 -0.23903685210E+03  0.14872401094E+04  0.98571845533E+03 0.  0.
   -9000010    2    1    2    0  502 -0.81952400284E+03 -0.71518113924E+03  0.78816574111E+03  0.16738546895E+04  0.99873952212E+03 0.  0.
        -13    1    3    3    0    0  0.26513428225E+02 -0.19315939176E+03  0.12022735978E+03  0.22905925370E+03  0.10566000000E+00 0.  1.
         13    1    4    4    0    0 -0.44300111091E+03 -0.74343794826E+03  0.77212877361E+02  0.86885660886E+03  0.10566000000E+00 0. -1.
          4    1    3    3  501    0  0.79301057461E+03  0.90834053100E+03 -0.35926421188E+03  0.12581808557E+04  0.00000000000E+00 0.  1.
         -4    1    4    4    0  502 -0.37652289193E+03  0.28256809013E+02  0.71095286375E+03  0.80499808066E+03  0.00000000000E+00 0. -1.
</event>
<event>
 8    1  0.7008488E-006  0.1080597E+04  0.7818608E-02  0.8702420E-01
         21   -1    0    0  503  502  0.00000000000E+00  0.00000000000E+00  0.68705212909E+03  0.68705212909E+03  0.00000000000E+00 0.  1.
         21   -1    0    0  501  503 -0.00000000000E+00 -0.00000000000E+00 -0.17219493404E+04  0.17219493404E+04  0.00000000000E+00 0.  1.
    9000010    2    1    2  501    0  0.11050115329E+03 -0.42544967892E+03 -0.65638548225E+03  0.12640298039E+04  0.98676821477E+03 0.  0.
   -9000010    2    1    2    0  502 -0.11050115329E+03  0.42544967892E+03 -0.37851172906E+03  0.11449716656E+04  0.98715300322E+03 0.  0.
        -13    1    3    3    0    0 -0.32584900728E+03 -0.40676724837E+03 -0.59721603568E+02  0.52459875237E+03  0.10566000000E+00 0.  1.
         13    1    4    4    0    0  0.21828387340E+03  0.50596916838E+03  0.98779870223E+02  0.55983044100E+03  0.10566000000E+00 0. -1.
          4    1    3    3  501    0  0.43635016057E+03 -0.18682430544E+02 -0.59666387869E+03  0.73943105153E+03  0.00000000000E+00 0.  1.
         -4    1    4    4    0  502 -0.32878502669E+03 -0.80519489467E+02 -0.47729159928E+03  0.58514122458E+03  0.00000000000E+00 0. -1.
</event>
<event>
 8    1  0.7008488E-006  0.1098062E+04  0.7818608E-02  0.8695815E-01
         21   -1    0    0  503  502  0.00000000000E+00  0.00000000000E+00  0.13873133912E+04  0.13873133912E+04  0.00000000000E+00 0.  1.
         21   -1    0    0  501  503 -0.00000000000E+00 -0.00000000000E+00 -0.10278927862E+04  0.10278927862E+04  0.00000000000E+00 0.  1.
    9000010    2    1    2  501    0  0.36858177308E+03  0.53497157890E+02 -0.34083057759E+03  0.11128654213E+04  0.99176080483E+03 0.  0.
   -9000010    2    1    2    0  502 -0.36858177308E+03 -0.53497157890E+02  0.70025118255E+03  0.13023407561E+04  0.10329691462E+04 0.  0.
        -13    1    3    3    0    0 -0.72799951250E+02 -0.40782825730E+03 -0.73750889434E+02  0.42078845660E+03  0.10566000000E+00 0.  1.
         13    1    4    4    0    0  0.69347521774E+02 -0.20404956445E+03 -0.19741602640E+03  0.29226426770E+03  0.10566000000E+00 0. -1.
          4    1    3    3  501    0  0.44138172433E+03  0.46132541519E+03 -0.26707968815E+03  0.69207696472E+03  0.00000000000E+00 0.  1.
         -4    1    4    4    0  502 -0.43792929485E+03  0.15055240657E+03  0.89766720895E+03  0.10100764884E+04  0.00000000000E+00 0. -1.
</event>
<event>
 8    1  0.7008488E-006  0.1366029E+04  0.7818608E-02  0.8491302E-01
         21   -1    0    0  501  502  0.00000000000E+00  0.00000000000E+00  0.27061436068E+04  0.27061436068E+04  0.00000000000E+00 0.  1.
         21   -1    0    0  502  503 -0.00000000000E+00 -0.00000000000E+00 -0.69016716535E+03  0.69016716535E+03  0.00000000000E+00 0. -1.
   -9000010    2    1    2    0  503 -0.44167842574E+02 -0.93335936823E+03  0.92962299130E+03  0.16509747372E+04  0.99418718976E+03 0.  0.
    9000010    2    1    2  501    0  0.44167842574E+02  0.93335936823E+03  0.10863534502E+04  0.17453360350E+04  0.99645549212E+03 0.  0.
        -13    1    4    4    0    0  0.29600278948E+03  0.54416326284E+02  0.68229300366E+03  0.74572283186E+03  0.10566000000E+00 0.  1.
         13    1    3    3    0    0 -0.47784206013E+03 -0.36738601167E+03  0.21092429642E+03  0.63858796261E+03  0.10566000000E+00 0. -1.
          4    1    4    4  501    0 -0.25183494690E+03  0.87894304194E+03  0.40406044654E+03  0.99961320315E+03  0.00000000000E+00 0.  1.
         -4    1    3    3    0  503  0.43367421756E+03 -0.56597335656E+03  0.71869869488E+03  0.10123867746E+04  0.00000000000E+00 0. -1.
</event>
<event>
 8    1  0.7008488E-006  0.1077493E+04  0.7818608E-02  0.8706375E-01
         21   -1    0    0  503  502  0.00000000000E+00  0.00000000000E+00  0.12065577349E+04  0.12065577349E+04  0.00000000000E+00 0. -1.
         21   -1    0    0  501  503 -0.00000000000E+00 -0.00000000000E+00 -0.96084306676E+03  0.96084306676E+03  0.00000000000E+00 0. -1.
    9000010    2    1    2  501    0 -0.68206766791E+02  0.39747815637E+03  0.50854870155E+02  0.10786922643E+04  0.99917452699E+03 0.  0.
   -9000010    2    1    2    0  502  0.68206766791E+02 -0.39747815637E+03  0.19485979795E+03  0.10887085373E+04  0.99230786079E+03 0.  0.
        -13    1    3    3    0    0  0.32848358064E+03 -0.17355106222E+03 -0.54399007081E+02  0.37547396326E+03  0.10566000000E+00 0.  1.
         13    1    4    4    0    0 -0.45226220181E+02 -0.60659957346E+03  0.43720646677E+03  0.74910477189E+03  0.10566000000E+00 0. -1.
          4    1    3    3  501    0 -0.39669034744E+03  0.57102921859E+03  0.10525387724E+03  0.70321830103E+03  0.00000000000E+00 0.  1.
         -4    1    4    4    0  502  0.11343298697E+03  0.20912141709E+03 -0.24234666882E+03  0.33960376545E+03  0.00000000000E+00 0. -1.
</event>
<event>
 8    1  0.7008488E-006  0.1235650E+04  0.7818608E-02  0.8583779E-01
         21   -1    0    0  503  502  0.00000000000E+00  0.00000000000E+00  0.66835720578E+03  0.66835720578E+03  0.00000000000E+00 0.  1.
         21   -1    0    0  501  503 -0.00000000000E+00 -0.00000000000E+00 -0.22821685971E+04  0.22821685971E+04  0.00000000000E+00 0.  1.
    9000010    2    1    2  501    0 -0.69953106683E+03 -0.11907766670E+03 -0.98004189137E+03  0.15618232156E+04  0.98756591875E+03 0.  0.
   -9000010    2    1    2    0  502  0.69953106683E+03  0.11907766670E+03 -0.63376949999E+03  0.13887025873E+04  0.10115868191E+04 0.  0.
        -13    1    3    3    0    0 -0.63946172873E+03 -0.47071282745E+03 -0.42119371451E+03  0.89882480203E+03  0.10566000000E+00 0.  1.
         13    1    4    4    0    0  0.45886988030E+03 -0.39694751994E+03 -0.53882333994E+03  0.81145517650E+03  0.10566000000E+00 0. -1.
          4    1    3    3  501    0 -0.60069338101E+02  0.35163516075E+03 -0.55884817686E+03  0.66299841360E+03  0.00000000000E+00 0.  1.
         -4    1    4    4    0  502  0.24066118653E+03  0.51602518665E+03 -0.94946160045E+02  0.57724741079E+03  0.00000000000E+00 0. -1.
</event>
<event>
 8    1  0.7008488E-006  0.1227977E+04  0.7818608E-02  0.8598165E-01
         21   -1    0    0  503  502  0.00000000000E+00  0.00000000000E+00  0.23185517697E+04  0.23185517697E+04  0.00000000000E+00 0.  1.
         21   -1    0    0  501  503 -0.00000000000E+00 -0.00000000000E+00 -0.62737984461E+03  0.62737984461E+03  0.00000000000E+00 0.  1.
    9000010    2    1    2  501    0  0.67110640418E+03  0.23927066753E+03  0.67051368552E+03  0.13991129645E+04  0.10001471026E+04 0.  0.
   -9000010    2    1    2    0  502 -0.67110640418E+03 -0.23927066753E+03  0.10206582396E+04  0.15468186498E+04  0.91829757451E+03 0.  0.
        -13    1    3    3    0    0 -0.24832144116E+02  0.45184582789E+03  0.45136525234E+03  0.63914934855E+03  0.10566000000E+00 0.  1.
         13    1    4    4    0    0 -0.76693719864E+03  0.96831361659E+02  0.87670229876E+03  0.11688352797E+04  0.10566000000E+00 0. -1.
          4    1    3    3  501    0  0.69593854829E+03 -0.21257516036E+03  0.21914843317E+03  0.75996361595E+03  0.00000000000E+00 0.  1.
         -4    1    4    4    0  502  0.95830794462E+02 -0.33610202919E+03  0.14395594082E+03  0.37798337012E+03  0.00000000000E+00 0. -1.
</event>
<event>
 8    1  0.7008488E-006  0.1055764E+04  0.7818608E-02  0.8724393E-01
         21   -1    0    0  503  502  0.00000000000E+00  0.00000000000E+00  0.95669066183E+03  0.95669066183E+03  0.00000000000E+00 0. -1.
         21   -1    0    0  501  503 -0.00000000000E+00 -0.00000000000E+00 -0.11724265321E+04  0.11724265321E+04  0.00000000000E+00 0. -1.
    9000010    2    1    2  501    0 -0.32177318783E+03  0.77211128113E+02 -0.10179803765E+02  0.10535284474E+04  0.10001594964E+04 0.  0.
   -9000010    2    1    2    0  502  0.32177318783E+03 -0.77211128113E+02 -0.20555606651E+03  0.10755887466E+04  0.10025658644E+04 0.  0.
        -13    1    3    3    0    0  0.31100943936E+03 -0.11308996121E+02  0.21255506512E+03  0.37687455690E+03  0.10566000000E+00 0.  1.
         13    1    4    4    0    0 -0.37940469330E+02  0.29821126571E+03 -0.41720184581E+03  0.51422449331E+03  0.10566000000E+00 0. -1.
          4    1    3    3  501    0 -0.63278262719E+03  0.88520124233E+02 -0.22273486889E+03  0.67665389047E+03  0.00000000000E+00 0.  1.
         -4    1    4    4    0  502  0.35971365716E+03 -0.37542239382E+03  0.21164577931E+03  0.56136425325E+03  0.00000000000E+00 0. -1.
</event>
<event>
 8    1  0.7008488E-006  0.1245353E+04  0.7818608E-02  0.8574032E-01
         21   -1    0    0  501  502  0.00000000000E+00  0.00000000000E+00  0.15168244899E+04  0.15168244899E+04  0.00000000000E+00 0. -1.
         21   -1    0    0  502  503 -0.00000000000E+00 -0.00000000000E+00 -0.10248678492E+04  0.10248678492E+04  0.00000000000E+00 0.  1.
   -9000010    2    1    2    0  503  0.74097545731E+03  0.14534249285E+02  0.34622293933E+03  0.12925847073E+04  0.10008241749E+04 0.  0.
    9000010    2    1    2  501    0 -0.74097545731E+03 -0.14534249285E+02  0.14573370137E+03  0.12491076318E+04  0.99487471140E+03 0.  0.
        -13    1    4    4    0    0 -0.65277657902E+03  0.42078735206E+03 -0.14893184920E+02  0.77678895196E+03  0.10566000000E+00 0.  1.
         13    1    3    3    0    0  0.72952764938E+03 -0.39905525196E+03  0.22485554263E+03  0.86140333848E+03  0.10566000000E+00 0. -1.
          4    1    4    4  501    0 -0.88198878291E+02 -0.43532160135E+03  0.16062688629E+03  0.47231867984E+03  0.00000000000E+00 0.  1.
         -4    1    3    3    0  503  0.11447807925E+02  0.41358950124E+03  0.12136739670E+03  0.43118136883E+03  0.00000000000E+00 0. -1.
</event>
<event>
 8    1  0.7008488E-006  0.1352165E+04  0.7818608E-02  0.8503254E-01
         21   -1    0    0  503  502  0.00000000000E+00  0.00000000000E+00  0.18065169424E+04  0.18065169424E+04  0.00000000000E+00 0.  1.
         21   -1    0    0  501  503 -0.00000000000E+00 -0.00000000000E+00 -0.12048267592E+04  0.12048267592E+04  0.00000000000E+00 0.  1.
    9000010    2    1    2  501    0 -0.86831626094E+03  0.25127696538E+03 -0.32206237075E+03  0.13899907705E+04  0.10056027690E+04 0.  0.
   -9000010    2    1    2    0  502  0.86831626094E+03 -0.25127696538E+03  0.92375255388E+03  0.16213529312E+04  0.97895521054E+03 0.  0.
        -13    1    3    3    0    0 -0.62963208468E+03 -0.10422689957E+03 -0.60287430063E+03  0.87792781148E+03  0.10566000000E+00 0.  1.
         13    1    4    4    0    0  0.10028591928E+04  0.48190748071E+02  0.68569043308E+03  0.12158208297E+04  0.10566000000E+00 0. -1.
          4    1    3    3  501    0 -0.23868417625E+03  0.35550386495E+03  0.28081192988E+03  0.51206295897E+03  0.00000000000E+00 0.  1.
         -4    1    4    4    0  502 -0.13454293190E+03 -0.29946771345E+03  0.23806212080E+03  0.40553210142E+03  0.00000000000E+00 0. -1.
</event>
<event>
 8    1  0.7008488E-006  0.1047946E+04  0.7818608E-02  0.8733236E-01
         21   -1    0    0  503  502  0.00000000000E+00  0.00000000000E+00  0.13277441882E+04  0.13277441882E+04  0.00000000000E+00 0.  1.
         21   -1    0    0  501  503 -0.00000000000E+00 -0.00000000000E+00 -0.83541617851E+03  0.83541617851E+03  0.00000000000E+00 0.  1.
    9000010    2    1    2  501    0 -0.29250817306E+03 -0.48570857350E+02  0.39869274951E+03  0.11110397992E+04  0.99374713449E+03 0.  0.
   -9000010    2    1    2    0  502  0.29250817306E+03  0.48570857350E+02  0.93635260147E+02  0.10521205675E+04  0.10051218668E+04 0.  0.
        -13    1    3    3    0    0 -0.65178351444E+03  0.12385354276E+02  0.14731859393E+03  0.66833967858E+03  0.10566000000E+00 0.  1.
         13    1    4    4    0    0 -0.17525358000E+03 -0.37663531142E+03  0.51221521902E+02  0.41855899296E+03  0.10566000000E+00 0. -1.
          4    1    3    3  501    0  0.35927534138E+03 -0.60956211626E+02  0.25137415559E+03  0.44270012057E+03  0.00000000000E+00 0.  1.
         -4    1    4    4    0  502  0.46776175306E+03  0.42520616877E+03  0.42413738244E+02  0.63356157458E+03  0.00000000000E+00 0. -1.
</event>
<event>
 8    1  0.7008488E-006  0.1050245E+04  0.7818608E-02  0.8733892E-01
         21   -1    0    0  503  502  0.00000000000E+00  0.00000000000E+00  0.58005150591E+03  0.58005150591E+03  0.00000000000E+00 0. -1.
         21   -1    0    0  501  503 -0.00000000000E+00 -0.00000000000E+00 -0.19144285559E+04  0.19144285559E+04  0.00000000000E+00 0. -1.
    9000010    2    1    2  501    0  0.89055131905E+02 -0.32321815674E+03 -0.86967197299E+03  0.13460175113E+04  0.97109886555E+03 0.  0.
   -9000010    2    1    2    0  502 -0.89055131905E+02  0.32321815674E+03 -0.46470507701E+03  0.11484625506E+04  0.99529625140E+03 0.  0.
        -13    1    3    3    0    0  0.17149494161E+03  0.85301617601E+02  0.15076621642E+03  0.24375673148E+03  0.10566000000E+00 0.  1.
         13    1    4    4    0    0 -0.44984979098E+03 -0.48069270584E+02 -0.43856282760E+03  0.63008956041E+03  0.10566000000E+00 0. -1.
          4    1    3    3  501    0 -0.82439809708E+02 -0.40851977434E+03 -0.10204381894E+04  0.11022607798E+04  0.00000000000E+00 0.  1.
         -4    1    4    4    0  502  0.36079465907E+03  0.37128742733E+03 -0.26142249415E+02  0.51837299014E+03  0.00000000000E+00 0. -1.
</event>
<event>
 8    1  0.7008488E-006  0.1140850E+04  0.7818608E-02  0.8659117E-01
         21   -1    0    0  501  502  0.00000000000E+00  0.00000000000E+00  0.58428816605E+03  0.58428816605E+03  0.00000000000E+00 0.  1.
         21   -1    0    0  502  503 -0.00000000000E+00 -0.00000000000E+00 -0.23622499758E+04  0.23622499758E+04  0.00000000000E+00 0.  1.
   -9000010    2    1    2    0  503 -0.17494328135E+03 -0.51918537849E+03 -0.47437777338E+03  0.12355460241E+04  0.10006903102E+04 0.  0.
    9000010    2    1    2  501    0  0.17494328135E+03  0.51918537849E+03 -0.13035840364E+04  0.17109921178E+04  0.96332968304E+03 0.  0.
        -13    1    4    4    0    0  0.31870310888E+03  0.20497321020E+03 -0.17535435946E+02  0.37933256015E+03  0.10566000000E+00 0.  1.
         13    1    3    3    0    0  0.68751616599E+02  0.27764567933E+03 -0.20690009833E+02  0.28677865281E+03  0.10566000000E+00 0. -1.
          4    1    4    4  501    0 -0.14375982753E+03  0.31421216829E+03 -0.12860486004E+04  0.13316595576E+04  0.00000000000E+00 0.  1.
         -4    1    3    3    0  503 -0.24369489795E+03 -0.79683105782E+03 -0.45368776354E+03  0.94876737127E+03  0.00000000000E+00 0. -1.
</event>
<event>
 8    1  0.7008488E-006  0.1294226E+04  0.7818608E-02  0.8542078E-01
         21   -1    0    0  501  502  0.00000000000E+00  0.00000000000E+00  0.19953994580E+04  0.19953994580E+04  0.00000000000E+00 0.  1.
         21   -1    0    0  502  503 -0.00000000000E+00 -0.00000000000E+00 -0.11173919233E+04  0.11173919233E+04  0.00000000000E+00 0.  1.
   -9000010    2    1    2    0  503  0.69708097287E+03  0.38402432799E+03 -0.35174931199E+03  0.13411739245E+04  0.10205995052E+04 0.  0.
    9000010    2    1    2  501    0 -0.69708097287E+03 -0.38402432799E+03  0.12297568466E+04  0.17716174568E+04  0.99645870168E+03 0.  0.
        -13    1    4    4    0    0 -0.50102776258E+03  0.22490502807E+03  0.89382891370E+03  0.10490668371E+04  0.10566000000E+00 0.  1.
         13    1    3    3    0    0 -0.25962401178E+03  0.11839835173E+03 -0.16888499821E+03  0.33157947912E+03  0.10566000000E+00 0. -1.
          4    1    4    4  501    0 -0.19605321029E+03 -0.60892935606E+03  0.33592793294E+03  0.72255061972E+03  0.00000000000E+00 0.  1.
         -4    1    3    3    0  503  0.95670498466E+03  0.26562597626E+03 -0.18286431378E+03  0.10095944454E+04  0.00000000000E+00 0. -1.
</event>
<event>
 8    1  0.7008488E-006  0.1191988E+04  0.7818608E-02  0.8614681E-01
         21   -1    0    0  501  502  0.00000000000E+00  0.00000000000E+00  0.12190350285E+04  0.12190350285E+04  0.00000000000E+00 0.  1.
         21   -1    0    0  502  503 -0.00000000000E+00 -0.00000000000E+00 -0.19316714766E+04  0.19316714766E+04  0.00000000000E+00 0.  1.
   -9000010    2    1    2    0  503  0.17682086708E+03 -0.58890667700E+03 -0.13542602699E+04  0.17970022003E+04  0.10085233444E+04 0.  0.
    9000010    2    1    2  501    0 -0.17682086708E+03  0.58890667700E+03  0.64162382179E+03  0.13537043048E+04  0.10211549946E+04 0.  0.
        -13    1    4    4    0    0 -0.18323495722E+03  0.30672393886E+03  0.90169459453E+03  0.96990091101E+03  0.10566000000E+00 0.  1.
         13    1    3    3    0    0 -0.14498070857E+03  0.24604374816E+03 -0.35616575145E+03  0.45652052039E+03  0.10566000000E+00 0. -1.
          4    1    4    4  501    0  0.64140901452E+01  0.28218273814E+03 -0.26007077274E+03  0.38380339380E+03  0.00000000000E+00 0.  1.
         -4    1    3    3    0  503  0.32180157564E+03 -0.83495042516E+03 -0.99809451841E+03  0.13404816799E+04  0.00000000000E+00 0. -1.
</event>
<event>
 8    1  0.7008488E-006  0.1085434E+04  0.7818608E-02  0.8699516E-01
         21   -1    0    0  501  502  0.00000000000E+00  0.00000000000E+00  0.92195335264E+03  0.92195335264E+03  0.00000000000E+00 0. -1.
         21   -1    0    0  502  503 -0.00000000000E+00 -0.00000000000E+00 -0.12803199977E+04  0.12803199977E+04  0.00000000000E+00 0. -1.
   -9000010    2    1    2    0  503 -0.27514614666E+03 -0.32387615638E+03 -0.27388963895E+03  0.11135566431E+04  0.99216515577E+03 0.  0.
    9000010    2    1    2  501    0  0.27514614666E+03  0.32387615638E+03 -0.84477006094E+02  0.10887167072E+04  0.99878252757E+03 0.  0.
        -13    1    4    4    0    0 -0.90631666021E+02  0.27891634113E+03 -0.47088542635E+03  0.55474455396E+03  0.10566000000E+00 0.  1.
         13    1    3    3    0    0 -0.34315167707E+02 -0.40922108498E+03  0.28443701026E+03  0.49954364283E+03  0.10566000000E+00 0. -1.
          4    1    4    4  501    0  0.36577781268E+03  0.44959815247E+02  0.38640842026E+03  0.53397215328E+03  0.00000000000E+00 0.  1.
         -4    1    3    3    0  503 -0.24083097895E+03  0.85344928599E+02 -0.55832664921E+03  0.61401300025E+03  0.00000000000E+00 0. -1.
</event>
<event>
 8    1  0.7008488E-006  0.1573850E+04  0.7818608E-02  0.8369021E-01
         21   -1    0    0  501  502  0.00000000000E+00  0.00000000000E+00  0.26232007802E+04  0.26232007802E+04  0.00000000000E+00 0. -1.
         21   -1    0    0  502  503 -0.00000000000E+00 -0.00000000000E+00 -0.17896561628E+04  0.17896561628E+04  0.00000000000E+00 0.  1.
   -9000010    2    1    2    0  503 -0.63937883031E+03  0.10293127164E+04 -0.11032567857E+04  0.19172200854E+04  0.99512178352E+03 0.  0.
    9000010    2    1    2  501    0  0.63937883031E+03 -0.10293127164E+04  0.19368014031E+04  0.24956368575E+04  0.10043473964E+04 0.  0.
        -13    1    4    4    0    0  0.79050470484E+03 -0.10376050444E+04  0.19474093683E+04  0.23439123652E+04  0.10566000000E+00 0.  1.
         13    1    3    3    0    0 -0.59013286683E+03  0.22927793608E+03 -0.88198533593E+03  0.10856902489E+04  0.10566000000E+00 0. -1.
          4    1    4    4  501    0 -0.15112587454E+03  0.82923279937E+01 -0.10607965204E+02  0.15172449237E+03  0.00000000000E+00 0.  1.
         -4    1    3    3    0  503 -0.49245963473E+02  0.80003478032E+03 -0.22127144974E+03  0.83152983657E+03  0.00000000000E+00 0. -1.
</event>
<event>
 8    1  0.7008488E-006  0.1098651E+04  0.7818608E-02  0.8687277E-01
         21   -1    0    0  503  502  0.00000000000E+00  0.00000000000E+00  0.11520624661E+04  0.11520624661E+04  0.00000000000E+00 0.  1.
         21   -1    0    0  501  503 -0.00000000000E+00 -0.00000000000E+00 -0.10504001695E+04  0.10504001695E+04  0.00000000000E+00 0.  1.
    9000010    2    1    2  501    0 -0.37914436863E+03  0.24143193539E+03  0.11610370051E+03  0.11047691673E+04  0.10024943951E+04 0.  0.
   -9000010    2    1    2    0  502  0.37914436863E+03 -0.24143193539E+03 -0.14441403906E+02  0.10976934684E+04  0.10013403840E+04 0.  0.
        -13    1    3    3    0    0 -0.70107646763E+03  0.19847119837E+03 -0.67381820922E+02  0.73173721445E+03  0.10566000000E+00 0.  1.
         13    1    4    4    0    0  0.49603976558E+03  0.27525048049E+03 -0.25103102880E+02  0.56784544815E+03  0.10566000000E+00 0. -1.
          4    1    3    3  501    0  0.32193209900E+03  0.42960737012E+02  0.18348552143E+03  0.37303195288E+03  0.00000000000E+00 0.  1.
         -4    1    4    4    0  502 -0.11689539695E+03 -0.51668241587E+03  0.10661698974E+02  0.52984802021E+03  0.00000000000E+00 0. -1.
</event>
<event>
 8    1  0.7008488E-006  0.1253087E+04  0.7818608E-02  0.8569997E-01
         21   -1    0    0  501  502  0.00000000000E+00  0.00000000000E+00  0.84442395643E+03  0.84442395643E+03  0.00000000000E+00 0. -1.
         21   -1    0    0  502  503 -0.00000000000E+00 -0.00000000000E+00 -0.22242695475E+04  0.22242695475E+04  0.00000000000E+00 0.  1.
   -9000010    2    1    2    0  503  0.50089409272E+03  0.54984831401E+03 -0.13307053074E+04  0.18278412289E+04  0.10084636247E+04 0.  0.
    9000010    2    1    2  501    0 -0.50089409272E+03 -0.54984831401E+03 -0.49140283648E+02  0.12408522750E+04  0.99200380062E+03 0.  0.
        -13    1    4    4    0    0 -0.49929449188E+03 -0.40356177314E+03  0.40813573756E+03  0.76074429725E+03  0.10566000000E+00 0.  1.
         13    1    3    3    0    0  0.40076416224E+03  0.79165288957E+03 -0.12858854377E+04  0.15623148150E+04  0.10566000000E+00 0. -1.
          4    1    4    4  501    0 -0.15996008421E+01 -0.14628654087E+03 -0.45727602121E+03  0.48010797779E+03  0.00000000000E+00 0.  1.
         -4    1    3    3    0  503  0.10012993048E+03 -0.24180457556E+03 -0.44819869771E+02  0.26552641388E+03  0.00000000000E+00 0. -1.
</event>
<event>
 8    1  0.7008488E-006  0.1043183E+04  0.7818608E-02  0.8735949E-01
         21   -1    0    0  503  502  0.00000000000E+00  0.00000000000E+00  0.12701369440E+04  0.12701369440E+04  0.00000000000E+00 0.  1.
         21   -1    0    0  501  503 -0.00000000000E+00 -0.00000000000E+00 -0.85468032190E+03  0.85468032190E+03  0.00000000000E+00 0.  1.
    9000010    2    1    2  501    0 -0.28394767563E+03  0.14794942381E+01  0.24832600180E+03  0.10723319579E+04  0.10037935811E+04 0.  0.
   -9000010    2    1    2    0  502  0.28394767563E+03 -0.14794942381E+01  0.16713062026E+03  0.10524853079E+04  0.99958201653E+03 0.  0.
        -13    1    3    3    0    0 -0.12032752692E+03  0.28368959223E+03 -0.30271895223E+03  0.43196906564E+03  0.10566000000E+00 0.  1.
         13    1    4    4    0    0 -0.86239764950E+02  0.78774582139E+02  0.52111291581E+03  0.53404252082E+03  0.10566000000E+00 0. -1.
          4    1    3    3  501    0 -0.16362014871E+03 -0.28221009799E+03  0.55104495403E+03  0.64036289230E+03  0.00000000000E+00 0.  1.
         -4    1    4    4    0  502  0.37018744058E+03 -0.80254076377E+02 -0.35398229555E+03  0.51844278711E+03  0.00000000000E+00 0. -1.
</event>
<event>
 8    1  0.7008488E-006  0.1348226E+04  0.7818608E-02  0.8502782E-01
         21   -1    0    0  501  502  0.00000000000E+00  0.00000000000E+00  0.21844750673E+04  0.21844750673E+04  0.00000000000E+00 0.  1.
         21   -1    0    0  502  503 -0.00000000000E+00 -0.00000000000E+00 -0.96900567230E+03  0.96900567230E+03  0.00000000000E+00 0. -1.
   -9000010    2    1    2    0  503  0.19189480549E+03  0.88856946759E+03  0.13754093407E+02  0.13482965186E+04  0.99565807986E+03 0.  0.
    9000010    2    1    2  501    0 -0.19189480549E+03 -0.88856946759E+03  0.12017153016E+04  0.18051842209E+04  0.99407801021E+03 0.  0.
        -13    1    4    4    0    0 -0.51739716291E+02  0.17099475656E+03  0.48884002692E+03  0.52046209093E+03  0.10566000000E+00 0.  1.
         13    1    3    3    0    0 -0.36656628611E+03  0.62906655710E+03  0.61314084750E+02  0.73065381921E+03  0.10566000000E+00 0. -1.
          4    1    4    4  501    0 -0.14015508920E+03 -0.10595642242E+04  0.71287527466E+03  0.12847221300E+04  0.00000000000E+00 0.  1.
         -4    1    3    3    0  503  0.55846109160E+03  0.25950291049E+03 -0.47559991343E+02  0.61764269943E+03  0.00000000000E+00 0. -1.
</event>
<event>
 8    1  0.7008488E-006  0.1163368E+04  0.7818608E-02  0.8637187E-01
         21   -1    0    0  503  502  0.00000000000E+00  0.00000000000E+00  0.73565111825E+03  0.73565111825E+03  0.00000000000E+00 0.  1.
         21   -1    0    0  501  503 -0.00000000000E+00 -0.00000000000E+00 -0.18282969498E+04  0.18282969498E+04  0.00000000000E+00 0.  1.
    9000010    2    1    2  501    0 -0.35945878582E+03  0.46808276120E+03 -0.45476898622E+03  0.12371807266E+04  0.98766858276E+03 0.  0.
   -9000010    2    1    2    0  502  0.35945878582E+03 -0.46808276120E+03 -0.63787684530E+03  0.13267673414E+04  0.10025530502E+04 0.  0.
        -13    1    3    3    0    0 -0.64346409725E+03  0.27217094419E+03 -0.53854825486E+03  0.88213224705E+03  0.10566000000E+00 0.  1.
         13    1    4    4    0    0 -0.12798039592E+03 -0.47661459549E+03  0.36254549610E+02  0.49482810946E+03  0.10566000000E+00 0. -1.
          4    1    3    3  501    0  0.28400531143E+03  0.19591181701E+03  0.83779268644E+02  0.35504847953E+03  0.00000000000E+00 0.  1.
         -4    1    4    4    0  502  0.48743918175E+03  0.85318342951E+01 -0.67413139491E+03  0.83193923198E+03  0.00000000000E+00 0. -1.
</event>
<event>
 8    1  0.7008488E-006  0.1080203E+04  0.7818608E-02  0.8705655E-01
         21   -1    0    0  503  502  0.00000000000E+00  0.00000000000E+00  0.91942718166E+03  0.91942718166E+03  0.00000000000E+00 0. -1.
         21   -1    0    0  501  503 -0.00000000000E+00 -0.00000000000E+00 -0.12582250285E+04  0.12582250285E+04  0.00000000000E+00 0. -1.
    9000010    2    1    2  501    0  0.28272680912E+03 -0.28919416944E+03 -0.24113632196E+03  0.11067908112E+04  0.10016343933E+04 0.  0.
   -9000010    2    1    2    0  502 -0.28272680912E+03  0.28919416944E+03 -0.97661524894E+02  0.10708613990E+04  0.98673129377E+03 0.  0.
        -13    1    3    3    0    0  0.15634330190E+03  0.34254678087E+03 -0.26767374635E+03  0.46198568244E+03  0.10566000000E+00 0.  1.
         13    1    4    4    0    0  0.35520798930E+03 -0.20612229660E+02 -0.58640787258E+02  0.36060550851E+03  0.10566000000E+00 0. -1.
          4    1    3    3  501    0  0.12638350722E+03 -0.63174095031E+03  0.26537424392E+02  0.64480512877E+03  0.00000000000E+00 0.  1.
         -4    1    4    4    0  502 -0.63793479842E+03  0.30980639910E+03 -0.39020737636E+02  0.71025589045E+03  0.00000000000E+00 0. -1.
</event>
<event>
 8    1  0.7008488E-006  0.1142968E+04  0.7818608E-02  0.8654253E-01
         21   -1    0    0  501  502  0.00000000000E+00  0.00000000000E+00  0.10222746773E+04  0.10222746773E+04  0.00000000000E+00 0. -1.
         21   -1    0    0  502  503 -0.00000000000E+00 -0.00000000000E+00 -0.12684920677E+04  0.12684920677E+04  0.00000000000E+00 0. -1.
   -9000010    2    1    2    0  503  0.48757483679E+03  0.20001646190E+03 -0.23725071096E+02  0.11432137939E+04  0.10142184642E+04 0.  0.
    9000010    2    1    2  501    0 -0.48757483679E+03 -0.20001646190E+03 -0.22249231934E+03  0.11475529510E+04  0.99480607998E+03 0.  0.
        -13    1    4    4    0    0 -0.36060493620E+03  0.99502594436E+02 -0.56343135448E+03  0.67630731822E+03  0.10566000000E+00 0.  1.
         13    1    3    3    0    0 -0.12815574676E+03  0.41545205212E+03  0.16357968661E+03  0.46452408772E+03  0.10566000000E+00 0. -1.
          4    1    4    4  501    0 -0.12696990060E+03 -0.29951905633E+03  0.34093903514E+03  0.47124563281E+03  0.00000000000E+00 0.  1.
         -4    1    3    3    0  503  0.61573058355E+03 -0.21543559022E+03 -0.18730475770E+03  0.67868970621E+03  0.00000000000E+00 0. -1.
</event>
<event>
 8    1  0.7008488E-006  0.1296310E+04  0.7818608E-02  0.8537871E-01
         21   -1    0    0  503  502  0.00000000000E+00  0.00000000000E+00  0.71691741187E+03  0.71691741187E+03  0.00000000000E+00 0.  1.
         21   -1    0    0  501  503 -0.00000000000E+00 -0.00000000000E+00 -0.27114744707E+04  0.27114744707E+04  0.00000000000E+00 0.  1.
    9000010    2    1    2  501    0  0.79175498083E+03 -0.19845979592E+03 -0.16319579670E+04  0.20823247105E+04  0.10032582686E+04 0.  0.
   -9000010    2    1    2    0  502 -0.79175498083E+03  0.19845979592E+03 -0.36259909179E+03  0.13460671721E+04  0.10070533700E+04 0.  0.
        -13    1    3    3    0    0  0.14165683741E+03 -0.26671829615E+03 -0.13271532220E+04  0.13610808186E+04  0.10566000000E+00 0.  1.
         13    1    4    4    0    0 -0.60524415056E+03 -0.29097065531E+03 -0.45910414816E+03  0.81348695998E+03  0.10566000000E+00 0. -1.
          4    1    3    3  501    0  0.65009814342E+03  0.68258500228E+02 -0.30480474505E+03  0.72124389185E+03  0.00000000000E+00 0.  1.
         -4    1    4    4    0  502 -0.18651083027E+03  0.48943045123E+03  0.96505056369E+02  0.53258021209E+03  0.00000000000E+00 0. -1.
</event>
<event>
 8    1  0.7008488E-006  0.1105637E+04  0.7818608E-02  0.8683961E-01
         21   -1    0    0  503  502  0.00000000000E+00  0.00000000000E+00  0.22428815862E+04  0.22428815862E+04  0.00000000000E+00 0.  1.
         21   -1    0    0  501  503 -0.00000000000E+00 -0.00000000000E+00 -0.13593850967E+04  0.13593850967E+04  0.00000000000E+00 0.  1.
    9000010    2    1    2  501    0  0.39990074299E+02 -0.44344213418E+03 -0.95675515053E+03  0.14621260267E+04  0.10120236990E+04 0.  0.
   -9000010    2    1    2    0  502 -0.39990074299E+02  0.44344213418E+03  0.18402516400E+04  0.21401406561E+04  0.99771528856E+03 0.  0.
        -13    1    3    3    0    0  0.15972202795E+03 -0.44133859509E+03  0.27933941251E+02  0.47018209022E+03  0.10566000000E+00 0.  1.
         13    1    4    4    0    0 -0.32971000156E+03  0.64261909956E+03  0.14124428871E+04  0.15863993548E+04  0.10566000000E+00 0. -1.
          4    1    3    3  501    0 -0.11973195366E+03 -0.21035390935E+01 -0.98468909178E+03  0.99194393646E+03  0.00000000000E+00 0.  1.
         -4    1    4    4    0  502  0.28971992726E+03 -0.19917696538E+03  0.42780875290E+03  0.55374130137E+03  0.00000000000E+00 0. -1.
</event>
<event>
 8    1  0.7008488E-006  0.1362730E+04  0.7818608E-02  0.8499845E-01
         21   -1    0    0  503  502  0.00000000000E+00  0.00000000000E+00  0.28954404640E+04  0.28954404640E+04  0.00000000000E+00 0. -1.
         21   -1    0    0  501  503 -0.00000000000E+00 -0.00000000000E+00 -0.62235704022E+03  0.62235704022E+03  0.00000000000E+00 0. -1.
    9000010    2    1    2  501    0 -0.81068714908E+03  0.35843542141E+03  0.11633899266E+04  0.17917891138E+04  0.10350567627E+04 0.  0.
   -9000010    2    1    2    0  502  0.81068714908E+03 -0.35843542141E+03  0.11096934973E+04  0.17260083905E+04  0.98081379530E+03 0.  0.
        -13    1    3    3    0    0 -0.21586110104E+03 -0.18044362281E+03  0.90634351223E+03  0.94900710707E+03  0.10566000000E+00 0.  1.
         13    1    4    4    0    0  0.95533625353E+03 -0.36903164394E+02  0.91453429071E+03  0.13230276569E+04  0.10566000000E+00 0. -1.
          4    1    3    3  501    0 -0.59482604805E+03  0.53887904423E+03  0.25704641434E+03  0.84278200673E+03  0.00000000000E+00 0.  1.
         -4    1    4    4    0  502 -0.14464910445E+03 -0.32153225702E+03  0.19515920654E+03  0.40298073356E+03  0.00000000000E+00 0. -1.
</event>
<event>
 8    1  0.7008488E-006  0.1832741E+04  0.7818608E-02  0.8240216E-01
         21   -1    0    0  503  502  0.00000000000E+00  0.00000000000E+00  0.12716062025E+04  0.12716062025E+04  0.00000000000E+00 0.  1.
         21   -1    0    0  501  503 -0.00000000000E+00 -0.00000000000E+00 -0.26828738729E+04  0.26828738729E+04  0.00000000000E+00 0. -1.
    9000010    2    1    2  501    0  0.15068758688E+04 -0.23499251158E+03 -0.45607380738E+03  0.18877596608E+04  0.10147595059E+04 0.  0.
   -9000010    2    1    2    0  502 -0.15068758688E+04  0.23499251158E+03 -0.95519386296E+03  0.20667204145E+04  0.10163865365E+04 0.  0.
        -13    1    3    3    0    0  0.15879268047E+04 -0.38617260043E+03 -0.50309351101E+03  0.17098958759E+04  0.10566000000E+00 0.  1.
         13    1    4    4    0    0 -0.21051304596E+03 -0.25305835031E+03  0.78433132443E+02  0.33838740906E+03  0.10566000000E+00 0. -1.
          4    1    3    3  501    0 -0.81050935873E+02  0.15118008885E+03  0.47019703633E+02  0.17786378496E+03  0.00000000000E+00 0.  1.
         -4    1    4    4    0  502 -0.12963628228E+04  0.48805086188E+03 -0.10336269954E+04  0.17283330055E+04  0.00000000000E+00 0. -1.
</event>
<event>
 8    1  0.7008488E-006  0.1081726E+04  0.7818608E-02  0.8703604E-01
         21   -1    0    0  503  502  0.00000000000E+00  0.00000000000E+00  0.78664055893E+03  0.78664055893E+03  0.00000000000E+00 0.  1.
         21   -1    0    0  501  503 -0.00000000000E+00 -0.00000000000E+00 -0.18855550299E+04  0.18855550299E+04  0.00000000000E+00 0.  1.
    9000010    2    1    2  501    0 -0.24427347138E+03 -0.29590633568E+03 -0.11721366497E+04  0.15879945561E+04  0.10002961043E+04 0.  0.
   -9000010    2    1    2    0  502  0.24427347138E+03  0.29590633568E+03  0.73222178726E+02  0.10842010327E+04  0.10113853388E+04 0.  0.
        -13    1    3    3    0    0 -0.94723484833E+02 -0.59407559085E+03 -0.33890847823E+03  0.69047615021E+03  0.10566000000E+00 0.  1.
         13    1    4    4    0    0  0.50465335491E+03  0.51183630369E+03 -0.58573358643E+02  0.72116728981E+03  0.10566000000E+00 0. -1.
          4    1    3    3  501    0 -0.14954998655E+03  0.29816925516E+03 -0.83322817148E+03  0.89751840591E+03  0.00000000000E+00 0.  1.
         -4    1    4    4    0  502 -0.26037988352E+03 -0.21592996800E+03  0.13179553737E+03  0.36303374292E+03  0.00000000000E+00 0. -1.
</event>
<event>
 8    1  0.7008488E-006  0.1197282E+04  0.7818608E-02  0.8611104E-01
         21   -1    0    0  501  502  0.00000000000E+00  0.00000000000E+00  0.16447343198E+04  0.16447343198E+04  0.00000000000E+00 0. -1.
         21   -1    0    0  502  503 -0.00000000000E+00 -0.00000000000E+00 -0.86499536954E+03  0.86499536954E+03  0.00000000000E+00 0. -1.
   -9000010    2    1    2    0  503 -0.65856966239E+02 -0.63164822554E+03  0.31428443422E+03  0.12251552451E+04  0.99945687657E+03 0.  0.
    9000010    2    1    2  501    0  0.65856966239E+02  0.63164822554E+03  0.46545451600E+03  0.12845744442E+04  0.10149714161E+04 0.  0.
        -13    1    4    4    0    0 -0.75050441732E+02  0.65447382778E+03 -0.13067026090E+03  0.67159756425E+03  0.10566000000E+00 0.  1.
         13    1    3    3    0    0 -0.35559382574E+03 -0.24867719922E+03  0.54148558475E+03  0.69389766390E+03  0.10566000000E+00 0. -1.
          4    1    4    4  501    0  0.14090740797E+03 -0.22825602240E+02  0.59612477690E+03  0.61297687997E+03  0.00000000000E+00 0.  1.
         -4    1    3    3    0  503  0.28973685950E+03 -0.38297102632E+03 -0.22720115052E+03  0.53125758117E+03  0.00000000000E+00 0. -1.
</event>
<event>
 8    1  0.7008488E-006  0.1054116E+04  0.7818608E-02  0.8727276E-01
         21   -1    0    0  501  502  0.00000000000E+00  0.00000000000E+00  0.19605206838E+04  0.19605206838E+04  0.00000000000E+00 0.  1.
         21   -1    0    0  502  503 -0.00000000000E+00 -0.00000000000E+00 -0.66089031126E+03  0.66089031126E+03  0.00000000000E+00 0.  1.
   -9000010    2    1    2    0  503 -0.13430008618E+03  0.30071747055E+03  0.14531573293E+03  0.10640849054E+04  0.10013453517E+04 0.  0.
    9000010    2    1    2  501    0  0.13430008618E+03 -0.30071747055E+03  0.11543146396E+04  0.15573260897E+04  0.99214653765E+03 0.  0.
        -13    1    4    4    0    0  0.45969185234E+03  0.92928950141E+02  0.28415275330E+03  0.54835680652E+03  0.10566000000E+00 0.  1.
         13    1    3    3    0    0 -0.22170210796E+03  0.65380316393E+03  0.96469401576E+02  0.69707729732E+03  0.10566000000E+00 0. -1.
          4    1    4    4  501    0 -0.32539176616E+03 -0.39364642069E+03  0.87016188629E+03  0.10089692832E+04  0.00000000000E+00 0.  1.
         -4    1    3    3    0  503  0.87402021777E+02 -0.35308569338E+03  0.48846331359E+02  0.36700760805E+03  0.00000000000E+00 0. -1.
</event>
<event>
 8    1  0.7008488E-006  0.1064093E+04  0.7818608E-02  0.8718440E-01
         21   -1    0    0  501  502  0.00000000000E+00  0.00000000000E+00  0.19239760959E+04  0.19239760959E+04  0.00000000000E+00 0.  1.
         21   -1    0    0  502  503 -0.00000000000E+00 -0.00000000000E+00 -0.61209230156E+03  0.61209230156E+03  0.00000000000E+00 0.  1.
   -9000010    2    1    2    0  503  0.19711733139E+03 -0.33440137034E+03  0.38612459699E+03  0.11319834312E+04  0.99076473761E+03 0.  0.
    9000010    2    1    2  501    0 -0.19711733139E+03  0.33440137034E+03  0.92575919734E+03  0.14040849662E+04  0.98170514013E+03 0.  0.
        -13    1    4    4    0    0  0.12997906088E+02 -0.16032575973E+03 -0.13819825121E+03  0.21206617505E+03  0.10566000000E+00 0.  1.
         13    1    3    3    0    0 -0.22258686692E+01  0.70451854899E+02 -0.30143075905E+03  0.30956248484E+03  0.10566000000E+00 0. -1.
          4    1    4    4  501    0 -0.21011523748E+03  0.49472713007E+03  0.10639574485E+04  0.11920187912E+04  0.00000000000E+00 0.  1.
         -4    1    3    3    0  503  0.19934320006E+03 -0.40485322524E+03  0.68755535604E+03  0.82242094636E+03  0.00000000000E+00 0. -1.
</event>
<event>
 8    1  0.7008488E-006  0.1152458E+04  0.7818608E-02  0.8661913E-01
         21   -1    0    0  503  502  0.00000000000E+00  0.00000000000E+00  0.14638158457E+04  0.14638158457E+04  0.00000000000E+00 0. -1.
         21   -1    0    0  501  503 -0.00000000000E+00 -0.00000000000E+00 -0.99785376255E+03  0.99785376255E+03  0.00000000000E+00 0. -1.
    9000010    2    1    2  501    0  0.33074014040E+03  0.19809878385E+03 -0.25206197192E+03  0.11797013269E+04  0.10860606864E+04 0.  0.
   -9000010    2    1    2    0  502 -0.33074014040E+03 -0.19809878385E+03  0.71802405502E+03  0.12819682813E+04  0.98957160525E+03 0.  0.
        -13    1    3    3    0    0  0.28186401980E+02  0.43229045106E+03  0.28627599320E+03  0.51925279275E+03  0.10566000000E+00 0.  1.
         13    1    4    4    0    0  0.15591466715E+03  0.22101087467E+03 -0.55976199890E+02  0.27620379482E+03  0.10566000000E+00 0. -1.
          4    1    3    3  501    0  0.30255373842E+03 -0.23419166721E+03 -0.53833796512E+03  0.66044853419E+03  0.00000000000E+00 0.  1.
         -4    1    4    4    0  502 -0.48665480756E+03 -0.41910965852E+03  0.77400025491E+03  0.10057644864E+04  0.00000000000E+00 0. -1.
</event>
<event>
 8    1  0.7008488E-006  0.1099506E+04  0.7818608E-02  0.8692114E-01
         21   -1    0    0  501  502  0.00000000000E+00  0.00000000000E+00  0.11830050034E+04  0.11830050034E+04  0.00000000000E+00 0.  1.
         21   -1    0    0  502  503 -0.00000000000E+00 -0.00000000000E+00 -0.10825274570E+04  0.10825274570E+04  0.00000000000E+00 0. -1.
   -9000010    2    1    2    0  503 -0.25150277332E+03 -0.39744254216E+03 -0.26915913612E+03  0.11055563322E+04  0.96363579417E+03 0.  0.
    9000010    2    1    2  501    0  0.25150277332E+03  0.39744254216E+03  0.36963668248E+03  0.11599761282E+04  0.99383052961E+03 0.  0.
        -13    1    4    4    0    0  0.39758298363E+03 -0.19179603996E+03 -0.14337994286E+02  0.44165998127E+03  0.10566000000E+00 0.  1.
         13    1    3    3    0    0 -0.23067522277E+03 -0.26413150352E+03 -0.62960738027E+03  0.72068160376E+03  0.10566000000E+00 0. -1.
          4    1    4    4  501    0 -0.14608021030E+03  0.58923858212E+03  0.38397467676E+03  0.71831614690E+03  0.00000000000E+00 0.  1.
         -4    1    3    3    0  503 -0.20827550553E+02 -0.13331103865E+03  0.36044824415E+03  0.38487472844E+03  0.00000000000E+00 0. -1.
</event>
<event>
 8    1  0.7008488E-006  0.1049355E+04  0.7818608E-02  0.8730866E-01
         21   -1    0    0  501  502  0.00000000000E+00  0.00000000000E+00  0.13441878714E+04  0.13441878714E+04  0.00000000000E+00 0.  1.
         21   -1    0    0  502  503 -0.00000000000E+00 -0.00000000000E+00 -0.92900892554E+03  0.92900892554E+03  0.00000000000E+00 0.  1.
   -9000010    2    1    2    0  503 -0.30158845525E+03  0.54227752464E+02 -0.19079784837E+03  0.10665593762E+04  0.10036178748E+04 0.  0.
    9000010    2    1    2  501    0  0.30158845525E+03 -0.54227752464E+02  0.60597679422E+03  0.12066374207E+04  0.99743157386E+03 0.  0.
        -13    1    4    4    0    0 -0.27781999234E+03 -0.29745313577E+03  0.31222525943E+03  0.51297849850E+03  0.10566000000E+00 0.  1.
         13    1    3    3    0    0  0.34372013794E+03  0.11215160024E+03 -0.21047909962E+03  0.41835747537E+03  0.10566000000E+00 0. -1.
          4    1    4    4  501    0  0.57940844759E+03  0.24322538331E+03  0.29375153479E+03  0.69365892225E+03  0.00000000000E+00 0.  1.
         -4    1    3    3    0  503 -0.64530859318E+03 -0.57923847773E+02  0.19681251250E+02  0.64820190082E+03  0.00000000000E+00 0. -1.
</event>
<event>
 8    1  0.7008488E-006  0.1707350E+04  0.7818608E-02  0.8301370E-01
         21   -1    0    0  501  502  0.00000000000E+00  0.00000000000E+00  0.14990774488E+04  0.14990774488E+04  0.00000000000E+00 0.  1.
         21   -1    0    0  502  503 -0.00000000000E+00 -0.00000000000E+00 -0.20213968033E+04  0.20213968033E+04  0.00000000000E+00 0. -1.
   -9000010    2    1    2    0  503  0.30945947936E+03  0.13459890278E+04 -0.64437924546E+03  0.18087667530E+04  0.97414625317E+03 0.  0.
    9000010    2    1    2  501    0 -0.30945947936E+03 -0.13459890278E+04  0.12205989094E+03  0.17117074991E+04  0.10037889784E+04 0.  0.
        -13    1    4    4    0    0  0.29967715494E+03 -0.21197500896E+03  0.20742407745E+03  0.42162134753E+03  0.10566000000E+00 0.  1.
         13    1    3    3    0    0  0.28420008712E+03  0.47290152730E+03 -0.74769817844E+03  0.92922447301E+03  0.10566000000E+00 0. -1.
          4    1    4    4  501    0 -0.60913663430E+03 -0.11340140188E+04 -0.85364186512E+02  0.12900861516E+04  0.00000000000E+00 0.  1.
         -4    1    3    3    0  503  0.25259392246E+02  0.87308750051E+03  0.10331893297E+03  0.87954228002E+03  0.00000000000E+00 0. -1.
</event>
<event>
 8    1  0.7008488E-006  0.1113622E+04  0.7818608E-02  0.8685184E-01
         21   -1    0    0  501  502  0.00000000000E+00  0.00000000000E+00  0.75346174136E+03  0.75346174136E+03  0.00000000000E+00 0.  1.
         21   -1    0    0  502  503 -0.00000000000E+00 -0.00000000000E+00 -0.17829536195E+04  0.17829536195E+04  0.00000000000E+00 0.  1.
   -9000010    2    1    2    0  503 -0.35700547329E+03  0.13826343877E+03 -0.93963453949E+03  0.14191737325E+04  0.99225567707E+03 0.  0.
    9000010    2    1    2  501    0  0.35700547329E+03 -0.13826343877E+03 -0.89857338655E+02  0.11172416284E+04  0.10457460631E+04 0.  0.
        -13    1    4    4    0    0  0.72961610523E+03 -0.86518394248E+02 -0.22498955925E+02  0.73507231463E+03  0.10566000000E+00 0.  1.
         13    1    3    3    0    0 -0.59006509761E+03 -0.13666280033E+03 -0.85695669798E+03  0.10493942699E+04  0.10566000000E+00 0. -1.
          4    1    4    4  501    0 -0.37261063193E+03 -0.51745044524E+02 -0.67358382730E+02  0.38216931377E+03  0.00000000000E+00 0.  1.
         -4    1    3    3    0  503  0.23305962432E+03  0.27492623910E+03 -0.82677841517E+02  0.36977946253E+03  0.00000000000E+00 0. -1.
</event>
<event>
 8    1  0.7008488E-006  0.1111721E+04  0.7818608E-02  0.8680662E-01
         21   -1    0    0  501  502  0.00000000000E+00  0.00000000000E+00  0.19876859539E+04  0.19876859539E+04  0.00000000000E+00 0.  1.
         21   -1    0    0  502  503 -0.00000000000E+00 -0.00000000000E+00 -0.14789318481E+04  0.14789318481E+04  0.00000000000E+00 0.  1.
   -9000010    2    1    2    0  503  0.44110036262E+03 -0.97590967571E+02 -0.10753476234E+04  0.15313398033E+04  0.99223765042E+03 0.  0.
    9000010    2    1    2  501    0 -0.44110036262E+03  0.97590967571E+02  0.15841017292E+04  0.19352779987E+04  0.10157898981E+04 0.  0.
        -13    1    4    4    0    0 -0.33438259457E+03 -0.91999395468E+02  0.16668234260E+04  0.17025204706E+04  0.10566000000E+00 0.  1.
         13    1    3    3    0    0  0.73401411140E+03 -0.19245575431E+03 -0.61122866700E+03  0.97438002218E+03  0.10566000000E+00 0. -1.
          4    1    4    4  501    0 -0.10671776804E+03  0.18959036304E+03 -0.82721696764E+02  0.23275752810E+03  0.00000000000E+00 0.  1.
         -4    1    3    3    0  503 -0.29291374879E+03  0.94864786742E+02 -0.46411895645E+03  0.55695978107E+03  0.00000000000E+00 0. -1.
</event>
<event>
 8    1  0.7008488E-006  0.1141300E+04  0.7818608E-02  0.8654724E-01
         21   -1    0    0  503  502  0.00000000000E+00  0.00000000000E+00  0.61992513200E+03  0.61992513200E+03  0.00000000000E+00 0.  1.
         21   -1    0    0  501  503 -0.00000000000E+00 -0.00000000000E+00 -0.21140732094E+04  0.21140732094E+04  0.00000000000E+00 0.  1.
    9000010    2    1    2  501    0 -0.52587386776E+03 -0.13782298529E+03 -0.57137917462E+03  0.12763383342E+04  0.10035072905E+04 0.  0.
   -9000010    2    1    2    0  502  0.52587386776E+03  0.13782298529E+03 -0.92276890277E+03  0.14576600072E+04  0.98880318996E+03 0.  0.
        -13    1    3    3    0    0 -0.31761499349E+03 -0.53131242929E+03 -0.98387349954E+02  0.62677927806E+03  0.10566000000E+00 0.  1.
         13    1    4    4    0    0  0.76017748505E+03  0.32233506454E+03 -0.61893309460E+03  0.10319146715E+04  0.10566000000E+00 0. -1.
          4    1    3    3  501    0 -0.20825887427E+03  0.39348944401E+03 -0.47299182467E+03  0.64955905618E+03  0.00000000000E+00 0.  1.
         -4    1    4    4    0  502 -0.23430361728E+03 -0.18451207926E+03 -0.30383580817E+03  0.42574533560E+03  0.00000000000E+00 0. -1.
</event>
<event>
 8    1  0.7008488E-006  0.1028732E+04  0.7818608E-02  0.8753596E-01
         21   -1    0    0  503  502  0.00000000000E+00  0.00000000000E+00  0.96637371600E+03  0.96637371600E+03  0.00000000000E+00 0.  1.
         21   -1    0    0  501  503 -0.00000000000E+00 -0.00000000000E+00 -0.10718587918E+04  0.10718587918E+04  0.00000000000E+00 0.  1.
    9000010    2    1    2  501    0  0.49701513571E+02 -0.28211922686E+03 -0.65644643836E+01  0.10287530550E+04  0.98804263940E+03 0.  0.
   -9000010    2    1    2    0  502 -0.49701513571E+02  0.28211922686E+03 -0.98920611419E+02  0.10094794528E+04  0.96291327737E+03 0.  0.
        -13    1    3    3    0    0 -0.57298470361E+02 -0.60526668840E+03  0.18837143384E+03  0.63648620334E+03  0.10566000000E+00 0.  1.
         13    1    4    4    0    0 -0.49220756475E+03  0.37722921003E+02 -0.10142409636E+03  0.50396246294E+03  0.10566000000E+00 0. -1.
          4    1    3    3  501    0  0.10699998393E+03  0.32314746154E+03 -0.19493589822E+03  0.39226685162E+03  0.00000000000E+00 0.  1.
         -4    1    4    4    0  502  0.44250605118E+03  0.24439630585E+03  0.25034849402E+01  0.50551698990E+03  0.00000000000E+00 0. -1.
</event>
<event>
 8    1  0.7008488E-006  0.1327715E+04  0.7818608E-02  0.8527802E-01
         21   -1    0    0  501  502  0.00000000000E+00  0.00000000000E+00  0.20194987642E+04  0.20194987642E+04  0.00000000000E+00 0.  1.
         21   -1    0    0  502  503 -0.00000000000E+00 -0.00000000000E+00 -0.83348840813E+03  0.83348840813E+03  0.00000000000E+00 0.  1.
   -9000010    2    1    2    0  503 -0.61045937777E+03 -0.61399546896E+03  0.50026954790E+03  0.14188368327E+04  0.10065670615E+04 0.  0.
    9000010    2    1    2  501    0  0.61045937777E+03  0.61399546896E+03  0.68574080815E+03  0.14341503396E+04  0.91482001122E+03 0.  0.
        -13    1    4    4    0    0  0.42990137156E+03  0.85390057711E+03  0.56525533147E+03  0.11106191903E+04  0.10566000000E+00 0.  1.
         13    1    3    3    0    0  0.95797352733E+02 -0.48805051805E+03  0.49458425958E+03  0.70141574116E+03  0.10566000000E+00 0. -1.
          4    1    4    4  501    0  0.18055800622E+03 -0.23990510816E+03  0.12048547667E+03  0.32353114938E+03  0.00000000000E+00 0.  1.
         -4    1    3    3    0  503 -0.70625673051E+03 -0.12594495091E+03  0.56852883243E+01  0.71742109151E+03  0.00000000000E+00 0. -1.
</event>
<event>
 8    1  0.7008488E-006  0.1058905E+04  0.7818608E-02  0.8722391E-01
         21   -1    0    0  501  502  0.00000000000E+00  0.00000000000E+00  0.14946506626E+04  0.14946506626E+04  0.00000000000E+00 0. -1.
         21   -1    0    0  502  503 -0.00000000000E+00 -0.00000000000E+00 -0.76421927579E+03  0.76421927579E+03  0.00000000000E+00 0. -1.
   -9000010    2    1    2    0  503  0.23030439584E+03  0.22790114448E+03  0.19247037818E+03  0.10762546988E+04  0.10081171975E+04 0.  0.
    9000010    2    1    2  501    0 -0.23030439584E+03 -0.22790114448E+03  0.53796100861E+03  0.11826152395E+04  0.10020966578E+04 0.  0.
        -13    1    4    4    0    0 -0.86141331757E+02 -0.42474626078E+03 -0.14529646345E+03  0.45710041406E+03  0.10566000000E+00 0.  1.
         13    1    3    3    0    0 -0.24114075451E+03 -0.20700768477E+03  0.28663148200E+03  0.42797039930E+03  0.10566000000E+00 0. -1.
          4    1    4    4  501    0 -0.14416306408E+03  0.19684511630E+03  0.68325747206E+03  0.72551482547E+03  0.00000000000E+00 0.  1.
         -4    1    3    3    0  503  0.47144515035E+03  0.43490882925E+03 -0.94161103817E+02  0.64828429953E+03  0.00000000000E+00 0. -1.
</event>
<event>
 8    1  0.7008488E-006  0.1561576E+04  0.7818608E-02  0.8392387E-01
         21   -1    0    0  503  502  0.00000000000E+00  0.00000000000E+00  0.11675660360E+04  0.11675660360E+04  0.00000000000E+00 0. -1.
         21   -1    0    0  501  503 -0.00000000000E+00 -0.00000000000E+00 -0.21779798779E+04  0.21779798779E+04  0.00000000000E+00 0.  1.
    9000010    2    1    2  501    0  0.67168026529E+02 -0.10357558207E+04 -0.10528936098E+04  0.17833922946E+04  0.99729707651E+03 0.  0.
   -9000010    2    1    2    0  502 -0.67168026529E+02  0.10357558207E+04  0.42479767902E+02  0.15621536194E+04  0.11667123622E+04 0.  0.
        -13    1    3    3    0    0 -0.43467123033E+03 -0.24067064310E+03 -0.41295886731E+03  0.64606228351E+03  0.10566000000E+00 0.  1.
         13    1    4    4    0    0 -0.31044679890E+03 -0.51618242257E+02  0.28185660996E+03  0.42247463548E+03  0.10566000000E+00 0. -1.
          4    1    3    3  501    0  0.50183925686E+03 -0.79508517762E+03 -0.63993474247E+03  0.11373300110E+04  0.00000000000E+00 0.  1.
         -4    1    4    4    0  502  0.24327877237E+03  0.10873740630E+04 -0.23937684206E+03  0.11396789839E+04  0.00000000000E+00 0. -1.
</event>
<event>
 8    1  0.7008488E-006  0.1394176E+04  0.7818608E-02  0.8473277E-01
         21   -1    0    0  501  502  0.00000000000E+00  0.00000000000E+00  0.38408097327E+04  0.38408097327E+04  0.00000000000E+00 0.  1.
         21   -1    0    0  502  503 -0.00000000000E+00 -0.00000000000E+00 -0.58602541408E+03  0.58602541408E+03  0.00000000000E+00 0. -1.
   -9000010    2    1    2    0  503  0.77047258216E+03 -0.59050183257E+03  0.80762098458E+03  0.16103949119E+04  0.99939967151E+03 0.  0.
    9000010    2    1    2  501    0 -0.77047258216E+03  0.59050183257E+03  0.24471633340E+04  0.28164402348E+04  0.10007031523E+04 0.  0.
        -13    1    4    4    0    0 -0.11472942686E+03  0.48665101556E+03  0.33363030538E+03  0.60108339203E+03  0.10566000000E+00 0.  1.
         13    1    3    3    0    0  0.82018645419E+03 -0.28935056520E+02  0.56652152093E+03  0.99724104507E+03  0.10566000000E+00 0. -1.
          4    1    4    4  501    0 -0.65574315530E+03  0.10385081700E+03  0.21135330286E+04  0.22153568428E+04  0.00000000000E+00 0.  1.
         -4    1    3    3    0  503 -0.49713872031E+02 -0.56156677605E+03  0.24109946365E+03  0.61315386683E+03  0.00000000000E+00 0. -1.
</event>
<event>
 8    1  0.7008488E-006  0.1144405E+04  0.7818608E-02  0.8651253E-01
         21   -1    0    0  503  502  0.00000000000E+00  0.00000000000E+00  0.10328013084E+04  0.10328013084E+04  0.00000000000E+00 0.  1.
         21   -1    0    0  501  503 -0.00000000000E+00 -0.00000000000E+00 -0.13041736669E+04  0.13041736669E+04  0.00000000000E+00 0.  1.
    9000010    2    1    2  501    0 -0.40351637357E+03 -0.37564204734E+03 -0.35225701246E+03  0.11897146760E+04  0.99368183839E+03 0.  0.
   -9000010    2    1    2    0  502  0.40351637357E+03  0.37564204734E+03  0.80884653978E+02  0.11472602994E+04  0.10028616334E+04 0.  0.
        -13    1    3    3    0    0 -0.17709804164E+02 -0.91718699143E+02  0.33735980208E+03  0.35005371611E+03  0.10566000000E+00 0.  1.
         13    1    4    4    0    0 -0.28466882693E+03  0.35320775177E+03  0.67042930716E+02  0.45857041189E+03  0.10566000000E+00 0. -1.
          4    1    3    3  501    0 -0.38580656940E+03 -0.28392334819E+03 -0.68961681454E+03  0.83966095988E+03  0.00000000000E+00 0.  1.
         -4    1    4    4    0  502  0.68818520049E+03  0.22434295563E+02  0.13841723262E+02  0.68868988747E+03  0.00000000000E+00 0. -1.
</event>
<event>
 8    1  0.7008488E-006  0.1150481E+04  0.7818608E-02  0.8651688E-01
         21   -1    0    0  501  502  0.00000000000E+00  0.00000000000E+00  0.64526834811E+03  0.64526834811E+03  0.00000000000E+00 0.  1.
         21   -1    0    0  502  503 -0.00000000000E+00 -0.00000000000E+00 -0.23826194417E+04  0.23826194417E+04  0.00000000000E+00 0.  1.
   -9000010    2    1    2    0  503 -0.73764033196E+02  0.48275165244E+03 -0.14716055821E+04  0.18471138718E+04  0.10038507736E+04 0.  0.
    9000010    2    1    2  501    0  0.73764033196E+02 -0.48275165244E+03 -0.26574551144E+03  0.11807739179E+04  0.10416890505E+04 0.  0.
        -13    1    4    4    0    0  0.49928858622E+03  0.86059281541E+01 -0.14126055298E+03  0.51895829247E+03  0.10566000000E+00 0.  1.
         13    1    3    3    0    0 -0.27971705927E+03  0.17500328547E+03 -0.14379082581E+04  0.14752789407E+04  0.10566000000E+00 0. -1.
          4    1    4    4  501    0 -0.42552455303E+03 -0.49135758060E+03 -0.12448495846E+03  0.66181562548E+03  0.00000000000E+00 0.  1.
         -4    1    3    3    0  503  0.20595302607E+03  0.30774836697E+03 -0.33697324029E+02  0.37183493108E+03  0.00000000000E+00 0. -1.
</event>
<event>
 8    1  0.7008488E-006  0.1243910E+04  0.7818608E-02  0.8576136E-01
         21   -1    0    0  501  502  0.00000000000E+00  0.00000000000E+00  0.92993218141E+03  0.92993218141E+03  0.00000000000E+00 0.  1.
         21   -1    0    0  502  503 -0.00000000000E+00 -0.00000000000E+00 -0.22924381904E+04  0.22924381904E+04  0.00000000000E+00 0.  1.
   -9000010    2    1    2    0  503  0.63920274336E+03 -0.32498798358E+03 -0.15364756647E+04  0.19768839649E+04  0.10164228479E+04 0.  0.
    9000010    2    1    2  501    0 -0.63920274336E+03  0.32498798358E+03  0.17396965567E+03  0.12454864070E+04  0.10033810902E+04 0.  0.
        -13    1    4    4    0    0 -0.30975674274E+03  0.21415236275E+03 -0.41575427172E+03  0.56094750178E+03  0.10566000000E+00 0.  1.
         13    1    3    3    0    0  0.74093261916E+03 -0.28423790839E+03 -0.16426484956E+04  0.18242988861E+04  0.10566000000E+00 0. -1.
          4    1    4    4  501    0 -0.32944600062E+03  0.11083562083E+03  0.58972392739E+03  0.68453890518E+03  0.00000000000E+00 0.  1.
         -4    1    3    3    0  503 -0.10172987579E+03 -0.40750075191E+02  0.10617283086E+03  0.15258507879E+03  0.00000000000E+00 0. -1.
</event>
<event>
 8    1  0.7008488E-006  0.1077963E+04  0.7818608E-02  0.8706105E-01
         21   -1    0    0  503  502  0.00000000000E+00  0.00000000000E+00  0.11549718412E+04  0.11549718412E+04  0.00000000000E+00 0.  1.
         21   -1    0    0  501  503 -0.00000000000E+00 -0.00000000000E+00 -0.10002945422E+04  0.10002945422E+04  0.00000000000E+00 0.  1.
    9000010    2    1    2  501    0  0.33440870359E+03  0.21781471953E+03  0.48246437460E+02  0.10720616436E+04  0.99383902916E+03 0.  0.
   -9000010    2    1    2    0  502 -0.33440870359E+03 -0.21781471953E+03  0.10643086147E+03  0.10832047398E+04  0.10013653414E+04 0.  0.
        -13    1    3    3    0    0 -0.43287080526E+01  0.39970636691E+03  0.38939846226E+03  0.55804577862E+03  0.10566000000E+00 0.  1.
         13    1    4    4    0    0 -0.86474848127E+02 -0.31132362105E+03 -0.39846088919E+03  0.51300232725E+03  0.10566000000E+00 0. -1.
          4    1    3    3  501    0  0.33873741165E+03 -0.18189164738E+03 -0.34115202480E+03  0.51401586499E+03  0.00000000000E+00 0.  1.
         -4    1    4    4    0  502 -0.24793385547E+03  0.93508901520E+02  0.50489175066E+03  0.57020241251E+03  0.00000000000E+00 0. -1.
</event>
<event>
 8    1  0.7008488E-006  0.1054542E+04  0.7818608E-02  0.8725633E-01
         21   -1    0    0  501  502  0.00000000000E+00  0.00000000000E+00  0.77299773237E+03  0.77299773237E+03  0.00000000000E+00 0. -1.
         21   -1    0    0  502  503 -0.00000000000E+00 -0.00000000000E+00 -0.14861862051E+04  0.14861862051E+04  0.00000000000E+00 0. -1.
   -9000010    2    1    2    0  503 -0.20053467207E+03 -0.25776595654E+03 -0.14546444053E+03  0.10615325350E+04  0.99951687148E+03 0.  0.
    9000010    2    1    2  501    0  0.20053467207E+03  0.25776595654E+03 -0.56772403218E+03  0.11976514024E+04  0.10026967947E+04 0.  0.
        -13    1    4    4    0    0  0.60719824699E+03  0.17425173448E+03 -0.41235276605E+03  0.75437934287E+03  0.10566000000E+00 0.  1.
         13    1    3    3    0    0 -0.28827958574E+03  0.24646734823E+03  0.21457687744E+03  0.43576888461E+03  0.10566000000E+00 0. -1.
          4    1    4    4  501    0 -0.40666357492E+03  0.83514222057E+02 -0.15537126613E+03  0.44327205957E+03  0.00000000000E+00 0.  1.
         -4    1    3    3    0  503  0.87744913672E+02 -0.50423330476E+03 -0.36004131797E+03  0.62576365039E+03  0.00000000000E+00 0. -1.
</event>
<event>
 8    1  0.7008488E-006  0.1021614E+04  0.7818608E-02  0.8761088E-01
         21   -1    0    0  501  502  0.00000000000E+00  0.00000000000E+00  0.12227324145E+04  0.12227324145E+04  0.00000000000E+00 0. -1.
         21   -1    0    0  502  503 -0.00000000000E+00 -0.00000000000E+00 -0.83038798792E+03  0.83038798792E+03  0.00000000000E+00 0. -1.
   -9000010    2    1    2    0  503 -0.41308785744E+02  0.13539448963E+03  0.21421956730E+03  0.10438324194E+04  0.10117598595E+04 0.  0.
    9000010    2    1    2  501    0  0.41308785744E+02 -0.13539448963E+03  0.17812485928E+03  0.10092879830E+04  0.98330853931E+03 0.  0.
        -13    1    4    4    0    0 -0.39725168038E+03  0.19065974571E+03  0.23108089845E+02  0.44124146584E+03  0.10566000000E+00 0.  1.
         13    1    3    3    0    0  0.45986466394E+03  0.11727588792E+03 -0.49607240088E+02  0.47716876727E+03  0.10566000000E+00 0. -1.
          4    1    4    4  501    0  0.43856046612E+03 -0.32605423534E+03  0.15501676944E+03  0.56804651714E+03  0.00000000000E+00 0.  1.
         -4    1    3    3    0  503 -0.50117344968E+03  0.18118601714E+02  0.26382680739E+03  0.56666365217E+03  0.00000000000E+00 0. -1.
</event>
<event>
 8    1  0.7008488E-006  0.1020933E+04  0.7818608E-02  0.8787881E-01
         21   -1    0    0  503  502  0.00000000000E+00  0.00000000000E+00  0.18962171094E+04  0.18962171094E+04  0.00000000000E+00 0.  1.
         21   -1    0    0  501  503 -0.00000000000E+00 -0.00000000000E+00 -0.49584753233E+03  0.49584753233E+03  0.00000000000E+00 0.  1.
    9000010    2    1    2  501    0 -0.10088460598E+02  0.19123679942E+03  0.53743117216E+03  0.11537486330E+04  0.10028112249E+04 0.  0.
   -9000010    2    1    2    0  502  0.10088460598E+02 -0.19123679942E+03  0.86293840492E+03  0.12383160087E+04  0.86723154711E+03 0.  0.
        -13    1    3    3    0    0 -0.26528371542E+03  0.28008970498E+03 -0.15092644717E+03  0.41425173038E+03  0.10566000000E+00 0.  1.
         13    1    4    4    0    0  0.42030116900E+03 -0.22167481900E+03  0.42529537053E+03  0.63770601487E+03  0.10566000000E+00 0. -1.
          4    1    3    3  501    0  0.25519525482E+03 -0.88852905559E+02  0.68835761932E+03  0.73949690263E+03  0.00000000000E+00 0.  1.
         -4    1    4    4    0  502 -0.41021270841E+03  0.30438019571E+02  0.43764303439E+03  0.60060999386E+03  0.00000000000E+00 0. -1.
</event>
<event>
 8    1  0.7008488E-006  0.1221455E+04  0.7818608E-02  0.8595986E-01
         21   -1    0    0  503  502  0.00000000000E+00  0.00000000000E+00  0.12148772092E+04  0.12148772092E+04  0.00000000000E+00 0. -1.
         21   -1    0    0  501  503 -0.00000000000E+00 -0.00000000000E+00 -0.12050063979E+04  0.12050063979E+04  0.00000000000E+00 0. -1.
    9000010    2    1    2  501    0 -0.38710221006E+03  0.59614746671E+03 -0.79754481046E+02  0.11951453328E+04  0.95748194037E+03 0.  0.
   -9000010    2    1    2    0  502  0.38710221006E+03 -0.59614746671E+03  0.89625292344E+02  0.12247382744E+04  0.99333339049E+03 0.  0.
        -13    1    3    3    0    0  0.12035667732E+03  0.46137570814E+03  0.28530629836E+03  0.55565544080E+03  0.10566000000E+00 0.  1.
         13    1    4    4    0    0 -0.25702329027E+02  0.22788610596E+03 -0.14800907074E+03  0.27294575137E+03  0.10566000000E+00 0. -1.
          4    1    3    3  501    0 -0.50745888738E+03  0.13477175857E+03 -0.36506077941E+03  0.63948989199E+03  0.00000000000E+00 0.  1.
         -4    1    4    4    0  502  0.41280453909E+03 -0.82403357267E+03  0.23763436308E+03  0.95179252304E+03  0.00000000000E+00 0. -1.
</event>
<event>
 8    1  0.7008488E-006  0.1091651E+04  0.7818608E-02  0.8696987E-01
         21   -1    0    0  503  502  0.00000000000E+00  0.00000000000E+00  0.13125021388E+04  0.13125021388E+04  0.00000000000E+00 0. -1.
         21   -1    0    0  501  503 -0.00000000000E+00 -0.00000000000E+00 -0.89767114544E+03  0.89767114544E+03  0.00000000000E+00 0. -1.
    9000010    2    1    2  501    0  0.33336191080E+03 -0.28303613500E+03  0.29134402093E+03  0.11115596191E+04  0.97951203716E+03 0.  0.
   -9000010    2    1    2    0  502 -0.33336191080E+03  0.28303613500E+03  0.12348697246E+03  0.10986136652E+04  0.10002316410E+04 0.  0.
        -13    1    3    3    0    0 -0.74722513000E+02 -0.44559232883E+03  0.45648602328E+03  0.64227367848E+03  0.10566000000E+00 0.  1.
         13    1    4    4    0    0 -0.29076342629E+03  0.62778432137E+03  0.23988974756E+03  0.73225926172E+03  0.10566000000E+00 0. -1.
          4    1    3    3  501    0  0.40808442380E+03  0.16255619383E+03 -0.16514200234E+03  0.46928594060E+03  0.00000000000E+00 0.  1.
         -4    1    4    4    0  502 -0.42598484517E+02 -0.34474818637E+03 -0.11640277511E+03  0.36635440347E+03  0.00000000000E+00 0. -1.
</event>
<event>
 8    1  0.7008488E-006  0.1249438E+04  0.7818608E-02  0.8571396E-01
         21   -1    0    0  503  502  0.00000000000E+00  0.00000000000E+00  0.18728147247E+04  0.18728147247E+04  0.00000000000E+00 0. -1.
         21   -1    0    0  501  503 -0.00000000000E+00 -0.00000000000E+00 -0.84928437763E+03  0.84928437763E+03  0.00000000000E+00 0. -1.
    9000010    2    1    2  501    0 -0.59292921504E+03 -0.44619820424E+03  0.30404591841E+03  0.12859006228E+04  0.10052057499E+04 0.  0.
   -9000010    2    1    2    0  502  0.59292921504E+03  0.44619820424E+03  0.71948442867E+03  0.14361984795E+04  0.99717116785E+03 0.  0.
        -13    1    3    3    0    0 -0.79065685479E+03 -0.14711212003E+03 -0.17328437225E+02  0.80441315491E+03  0.10566000000E+00 0.  1.
         13    1    4    4    0    0 -0.22573830120E+03 -0.72597174193E+02  0.29399709401E+03  0.37770680796E+03  0.10566000000E+00 0. -1.
          4    1    3    3  501    0  0.19772763975E+03 -0.29908608422E+03  0.32137435563E+03  0.48148746791E+03  0.00000000000E+00 0.  1.
         -4    1    4    4    0  502  0.81866751624E+03  0.51879537843E+03  0.42548733467E+03  0.10584916716E+04  0.00000000000E+00 0. -1.
</event>
<event>
 8    1  0.7008488E-006  0.1222915E+04  0.7818608E-02  0.8591902E-01
         21   -1    0    0  503  502  0.00000000000E+00  0.00000000000E+00  0.10574573450E+04  0.10574573450E+04  0.00000000000E+00 0.  1.
         21   -1    0    0  501  503 -0.00000000000E+00 -0.00000000000E+00 -0.16273524723E+04  0.16273524723E+04  0.00000000000E+00 0. -1.
    9000010    2    1    2  501    0  0.56146940276E+03  0.45090438749E+03  0.21625631078E+03  0.12418885846E+04  0.98841176019E+03 0.  0.
   -9000010    2    1    2    0  502 -0.56146940276E+03 -0.45090438749E+03 -0.78615143806E+03  0.14429212327E+04  0.97232964748E+03 0.  0.
        -13    1    3    3    0    0  0.54300057431E+03  0.72295134375E+03  0.17265008252E+02  0.90432646805E+03  0.10566000000E+00 0.  1.
         13    1    4    4    0    0 -0.67232201886E+03 -0.29504811593E+02 -0.18039780117E+03  0.69672864788E+03  0.10566000000E+00 0. -1.
          4    1    3    3  501    0  0.18468828445E+02 -0.27204695626E+03  0.19899130253E+03  0.33756211654E+03  0.00000000000E+00 0.  1.
         -4    1    4    4    0  502  0.11085261610E+03 -0.42139957590E+03 -0.60575363689E+03  0.74619258483E+03  0.00000000000E+00 0. -1.
</event>
<event>
 8    1  0.7008488E-006  0.1057730E+04  0.7818608E-02  0.8725131E-01
         21   -1    0    0  503  502  0.00000000000E+00  0.00000000000E+00  0.10023337734E+04  0.10023337734E+04  0.00000000000E+00 0. -1.
         21   -1    0    0  501  503 -0.00000000000E+00 -0.00000000000E+00 -0.11023419039E+04  0.11023419039E+04  0.00000000000E+00 0. -1.
    9000010    2    1    2  501    0  0.30160722380E+03  0.12095368936E+03 -0.67278914624E+02  0.10598674442E+04  0.10065762934E+04 0.  0.
   -9000010    2    1    2    0  502 -0.30160722380E+03 -0.12095368936E+03 -0.32729215950E+02  0.10448082331E+04  0.99244966120E+03 0.  0.
        -13    1    3    3    0    0 -0.34518383759E+01  0.49619664956E+03  0.16560653461E+03  0.52311429506E+03  0.10566000000E+00 0.  1.
         13    1    4    4    0    0  0.34846781718E+03 -0.17281705524E+03  0.27216169442E+02  0.38991830584E+03  0.10566000000E+00 0. -1.
          4    1    3    3  501    0  0.30505906218E+03 -0.37524296020E+03 -0.23288544923E+03  0.53675314910E+03  0.00000000000E+00 0.  1.
         -4    1    4    4    0  502 -0.65007504098E+03  0.51863365879E+02 -0.59945385393E+02  0.65488992729E+03  0.00000000000E+00 0. -1.
</event>
<event>
 8    1  0.7008488E-006  0.1164474E+04  0.7818608E-02  0.8638583E-01
         21   -1    0    0  501  502  0.00000000000E+00  0.00000000000E+00  0.13033631778E+04  0.13033631778E+04  0.00000000000E+00 0.  1.
         21   -1    0    0  502  503 -0.00000000000E+00 -0.00000000000E+00 -0.21419194711E+04  0.21419194711E+04  0.00000000000E+00 0.  1.
   -9000010    2    1    2    0  503  0.56629130998E+03 -0.93049334813E+02 -0.16645099441E+04  0.20176278600E+04  0.98533486751E+03 0.  0.
    9000010    2    1    2  501    0 -0.56629130998E+03  0.93049334813E+02  0.82595365078E+03  0.14276547888E+04  0.10132397231E+04 0.  0.
        -13    1    4    4    0    0 -0.77017186110E+03 -0.22683481182E+02  0.89718605198E+03  0.11826335269E+04  0.10566000000E+00 0.  1.
         13    1    3    3    0    0 -0.19946149875E+03 -0.10992751745E+02 -0.18817650703E+02  0.20064856146E+03  0.10566000000E+00 0. -1.
          4    1    4    4  501    0  0.20388055111E+03  0.11573281599E+03 -0.71232401200E+02  0.24502126194E+03  0.00000000000E+00 0.  1.
         -4    1    3    3    0  503  0.76575280874E+03 -0.82056583068E+02 -0.16456922934E+04  0.18169792985E+04  0.00000000000E+00 0. -1.
</event>
<event>
 8    1  0.7008488E-006  0.1057147E+04  0.7818608E-02  0.8725406E-01
         21   -1    0    0  501  502  0.00000000000E+00  0.00000000000E+00  0.36276756636E+03  0.36276756636E+03  0.00000000000E+00 0.  1.
         21   -1    0    0  502  503 -0.00000000000E+00 -0.00000000000E+00 -0.30594451688E+04  0.30594451688E+04  0.00000000000E+00 0.  1.
   -9000010    2    1    2    0  503 -0.29407856302E+03  0.70917757149E+02 -0.12217791486E+04  0.16075818819E+04  0.10000318443E+04 0.  0.
    9000010    2    1    2  501    0  0.29407856302E+03 -0.70917757149E+02 -0.14748984539E+04  0.18146308533E+04  0.10129403511E+04 0.  0.
        -13    1    4    4    0    0  0.58203370644E+03 -0.26844764963E+03 -0.62256746992E+03  0.89354218803E+03  0.10566000000E+00 0.  1.
         13    1    3    3    0    0  0.26943738718E+03  0.11692300337E+03 -0.38579799801E+02  0.29623623419E+03  0.10566000000E+00 0. -1.
          4    1    4    4  501    0 -0.28795514342E+03  0.19752989248E+03 -0.85233098395E+03  0.92108866524E+03  0.00000000000E+00 0.  1.
         -4    1    3    3    0  503 -0.56351595020E+03 -0.46005246222E+02 -0.11831993488E+04  0.13113456477E+04  0.00000000000E+00 0. -1.
</event>
<event>
 8    1  0.7008488E-006  0.1216560E+04  0.7818608E-02  0.8607178E-01
         21   -1    0    0  503  502  0.00000000000E+00  0.00000000000E+00  0.56037691153E+03  0.56037691153E+03  0.00000000000E+00 0.  1.
         21   -1    0    0  501  503 -0.00000000000E+00 -0.00000000000E+00 -0.25600447406E+04  0.25600447406E+04  0.00000000000E+00 0.  1.
    9000010    2    1    2  501    0  0.55137840866E+03 -0.42139683476E+03 -0.72412782175E+03  0.13577476872E+04  0.91516350348E+03 0.  0.
   -9000010    2    1    2    0  502 -0.55137840866E+03  0.42139683476E+03 -0.12755400073E+04  0.17626739648E+04  0.99921156634E+03 0.  0.
        -13    1    3    3    0    0  0.77926972564E+03 -0.15069887456E+03 -0.52635212115E+03  0.95237493809E+03  0.10566000000E+00 0.  1.
         13    1    4    4    0    0 -0.61711085820E+03  0.43382116278E+02 -0.12293323942E+04  0.13762143605E+04  0.10566000000E+00 0. -1.
          4    1    3    3  501    0 -0.22789131698E+03 -0.27069796020E+03 -0.19777570059E+03  0.40537274915E+03  0.00000000000E+00 0.  1.
         -4    1    4    4    0  502  0.65732449537E+02  0.37801471848E+03 -0.46207613054E+02  0.38645960437E+03  0.00000000000E+00 0. -1.
</event>
<event>
 8    1  0.7008488E-006  0.1100304E+04  0.7818608E-02  0.8688832E-01
         21   -1    0    0  503  502  0.00000000000E+00  0.00000000000E+00  0.16143625829E+04  0.16143625829E+04  0.00000000000E+00 0.  1.
         21   -1    0    0  501  503 -0.00000000000E+00 -0.00000000000E+00 -0.79470852747E+03  0.79470852747E+03  0.00000000000E+00 0.  1.
    9000010    2    1    2  501    0 -0.42338832740E+03  0.12917712840E+03  0.90455075662E+02  0.10890707615E+04  0.99093319484E+03 0.  0.
   -9000010    2    1    2    0  502  0.42338832740E+03 -0.12917712840E+03  0.72919897973E+03  0.13200003488E+04  0.10073357744E+04 0.  0.
        -13    1    3    3    0    0 -0.42794506726E+03  0.49615035935E+03  0.23293044680E+03  0.69538389676E+03  0.10566000000E+00 0.  1.
         13    1    4    4    0    0  0.54940796361E+03  0.28979844366E+03  0.60045995575E+03  0.86393542470E+03  0.10566000000E+00 0. -1.
          4    1    3    3  501    0  0.45567398529E+01 -0.36697323095E+03 -0.14247537114E+03  0.39368686477E+03  0.00000000000E+00 0.  1.
         -4    1    4    4    0  502 -0.12601963621E+03 -0.41897557206E+03  0.12873902398E+03  0.45606492409E+03  0.00000000000E+00 0. -1.
</event>
<event>
 8    1  0.7008488E-006  0.1353823E+04  0.7818608E-02  0.8499872E-01
         21   -1    0    0  503  502  0.00000000000E+00  0.00000000000E+00  0.17098071639E+04  0.17098071639E+04  0.00000000000E+00 0. -1.
         21   -1    0    0  501  503 -0.00000000000E+00 -0.00000000000E+00 -0.11902501595E+04  0.11902501595E+04  0.00000000000E+00 0. -1.
    9000010    2    1    2  501    0 -0.84809783030E+03  0.23303719398E+03 -0.20552444288E+03  0.13693347702E+04  0.10292041355E+04 0.  0.
   -9000010    2    1    2    0  502  0.84809783030E+03 -0.23303719398E+03  0.72508144733E+03  0.15307225533E+04  0.10216614734E+04 0.  0.
        -13    1    3    3    0    0 -0.85025824017E+03  0.59311950329E+02  0.24469631659E+03  0.88675435209E+03  0.10566000000E+00 0.  1.
         13    1    4    4    0    0  0.57568000800E+03  0.28827416124E+03  0.65780427858E+02  0.64717581807E+03  0.10566000000E+00 0. -1.
          4    1    3    3  501    0  0.21604098683E+01  0.17372524366E+03 -0.45022075947E+03  0.48258041808E+03  0.00000000000E+00 0.  1.
         -4    1    4    4    0  502  0.27241782231E+03 -0.52131135522E+03  0.65930101947E+03  0.88354673520E+03  0.00000000000E+00 0. -1.
</event>
<event>
 8    1  0.7008488E-006  0.1048279E+04  0.7818608E-02  0.8735446E-01
         21   -1    0    0  503  502  0.00000000000E+00  0.00000000000E+00  0.91457908928E+03  0.91457908928E+03  0.00000000000E+00 0.  1.
         21   -1    0    0  501  503 -0.00000000000E+00 -0.00000000000E+00 -0.13132389078E+04  0.13132389078E+04  0.00000000000E+00 0.  1.
    9000010    2    1    2  501    0  0.14448168094E+03  0.22165341988E+03  0.15829696100E+03  0.10601635971E+04  0.10143390607E+04 0.  0.
   -9000010    2    1    2    0  502 -0.14448168094E+03 -0.22165341988E+03 -0.55695677949E+03  0.11676544000E+04  0.99156984063E+03 0.  0.
        -13    1    3    3    0    0  0.54590403100E+03  0.33117393777E+02  0.25937825882E+03  0.60529750136E+03  0.10566000000E+00 0.  1.
         13    1    4    4    0    0 -0.17861387088E+03 -0.48510785992E+03  0.35704727764E+02  0.51817698654E+03  0.10566000000E+00 0. -1.
          4    1    3    3  501    0 -0.40142235006E+03  0.18853602611E+03 -0.10108129782E+03  0.45486609573E+03  0.00000000000E+00 0.  1.
         -4    1    4    4    0  502  0.34132189938E+02  0.26345444004E+03 -0.59266150725E+03  0.64947741342E+03  0.00000000000E+00 0. -1.
</event>
<event>
 8    1  0.7008488E-006  0.1078655E+04  0.7818608E-02  0.8712931E-01
         21   -1    0    0  501  502  0.00000000000E+00  0.00000000000E+00  0.98471087919E+03  0.98471087919E+03  0.00000000000E+00 0.  1.
         21   -1    0    0  502  503 -0.00000000000E+00 -0.00000000000E+00 -0.11455208291E+04  0.11455208291E+04  0.00000000000E+00 0.  1.
   -9000010    2    1    2    0  503 -0.19367843323E+03  0.10872657654E+03 -0.17219759898E+03  0.10923130021E+04  0.10555391407E+04 0.  0.
    9000010    2    1    2  501    0  0.19367843323E+03 -0.10872657654E+03  0.11387649045E+02  0.10379187062E+04  0.10138110071E+04 0.  0.
        -13    1    4    4    0    0  0.59889969058E+03  0.40332073087E+02  0.60827456635E+02  0.60333034578E+03  0.10566000000E+00 0.  1.
         13    1    3    3    0    0 -0.34109374279E+03  0.45245952965E+03 -0.36251251671E+03  0.67266626441E+03  0.10566000000E+00 0. -1.
          4    1    4    4  501    0 -0.40522125735E+03 -0.14905864963E+03 -0.49439807591E+02  0.43458836042E+03  0.00000000000E+00 0.  1.
         -4    1    3    3    0  503  0.14741530955E+03 -0.34373295311E+03  0.19031491773E+03  0.41964673770E+03  0.00000000000E+00 0. -1.
</event>
<event>
 8    1  0.7008488E-006  0.1392210E+04  0.7818608E-02  0.8477007E-01
         21   -1    0    0  503  502  0.00000000000E+00  0.00000000000E+00  0.17489163930E+04  0.17489163930E+04  0.00000000000E+00 0.  1.
         21   -1    0    0  501  503 -0.00000000000E+00 -0.00000000000E+00 -0.11245071748E+04  0.11245071748E+04  0.00000000000E+00 0.  1.
    9000010    2    1    2  501    0  0.45868661935E+03 -0.84700839103E+03  0.54299334835E+03  0.14788352122E+04  0.98198532539E+03 0.  0.
   -9000010    2    1    2    0  502 -0.45868661935E+03  0.84700839103E+03  0.81415869823E+02  0.13945883556E+04  0.10052022227E+04 0.  0.
        -13    1    3    3    0    0 -0.17931545652E+03 -0.67934923949E+03  0.17751858046E+03  0.72469461134E+03  0.10566000000E+00 0.  1.
         13    1    4    4    0    0 -0.26455489022E+03  0.10415998186E+04  0.20359683020E+03  0.10937875262E+04  0.10566000000E+00 0. -1.
          4    1    3    3  501    0  0.63800207587E+03 -0.16765915154E+03  0.36547476789E+03  0.75414060087E+03  0.00000000000E+00 0.  1.
         -4    1    4    4    0  502 -0.19413172913E+03 -0.19459142754E+03 -0.12218096038E+03  0.30080082946E+03  0.00000000000E+00 0. -1.
</event>
<event>
 8    1  0.7008488E-006  0.1241331E+04  0.7818608E-02  0.8577505E-01
         21   -1    0    0  503  502  0.00000000000E+00  0.00000000000E+00  0.16321171413E+04  0.16321171413E+04  0.00000000000E+00 0. -1.
         21   -1    0    0  501  503 -0.00000000000E+00 -0.00000000000E+00 -0.95473200639E+03  0.95473200639E+03  0.00000000000E+00 0. -1.
    9000010    2    1    2  501    0  0.71508092057E+03 -0.50855845939E+02  0.16698054483E+03  0.12446810410E+04  0.10037038166E+04 0.  0.
   -9000010    2    1    2    0  502 -0.71508092057E+03  0.50855845939E+02  0.51040459010E+03  0.13421681067E+04  0.10133979185E+04 0.  0.
        -13    1    3    3    0    0  0.48309851237E+03  0.45920435219E+03  0.26729547015E+02  0.66705868526E+03  0.10566000000E+00 0.  1.
         13    1    4    4    0    0 -0.64454909564E+03 -0.34464668218E+03  0.52176609236E+02  0.73276686739E+03  0.10566000000E+00 0. -1.
          4    1    3    3  501    0  0.23198240820E+03 -0.51006019813E+03  0.14025099782E+03  0.57762235571E+03  0.00000000000E+00 0.  1.
         -4    1    4    4    0  502 -0.70531824926E+02  0.39550252812E+03  0.45822798087E+03  0.60940123935E+03  0.00000000000E+00 0. -1.
</event>
<event>
 8    1  0.7008488E-006  0.1017505E+04  0.7818608E-02  0.8759913E-01
         21   -1    0    0  501  502  0.00000000000E+00  0.00000000000E+00  0.67153697329E+03  0.67153697329E+03  0.00000000000E+00 0.  1.
         21   -1    0    0  502  503 -0.00000000000E+00 -0.00000000000E+00 -0.15332172802E+04  0.15332172802E+04  0.00000000000E+00 0.  1.
   -9000010    2    1    2    0  503  0.84746694598E+02  0.17845459416E+03 -0.39279660296E+03  0.10906905645E+04  0.99814262094E+03 0.  0.
    9000010    2    1    2  501    0 -0.84746694598E+02 -0.17845459416E+03 -0.46888370394E+03  0.11140636890E+04  0.99108926485E+03 0.  0.
        -13    1    4    4    0    0  0.12871673550E+03  0.38607116525E+03 -0.19603932023E+03  0.45171934747E+03  0.10566000000E+00 0.  1.
         13    1    3    3    0    0  0.59822999723E+02 -0.37561661525E+03 -0.37744536148E+03  0.53584666185E+03  0.10566000000E+00 0. -1.
          4    1    4    4  501    0 -0.21346343010E+03 -0.56452575942E+03 -0.27284438372E+03  0.66234434153E+03  0.00000000000E+00 0.  1.
         -4    1    3    3    0  503  0.24923694875E+02  0.55407120942E+03 -0.15351241475E+02  0.55484390263E+03  0.00000000000E+00 0. -1.
</event>
<event>
 8    1  0.7008488E-006  0.1176522E+04  0.7818608E-02  0.8625571E-01
         21   -1    0    0  501  502  0.00000000000E+00  0.00000000000E+00  0.10080107857E+04  0.10080107857E+04  0.00000000000E+00 0. -1.
         21   -1    0    0  502  503 -0.00000000000E+00 -0.00000000000E+00 -0.14168636984E+04  0.14168636984E+04  0.00000000000E+00 0. -1.
   -9000010    2    1    2    0  503  0.21252987932E+03  0.56277410037E+03  0.23733596996E+02  0.11767613834E+04  0.10110986263E+04 0.  0.
    9000010    2    1    2  501    0 -0.21252987932E+03 -0.56277410037E+03 -0.43258650979E+03  0.12481131007E+04  0.10043762174E+04 0.  0.
        -13    1    4    4    0    0 -0.29654594463E+03  0.54478475625E+02  0.19879836069E+03  0.36114844727E+03  0.10566000000E+00 0.  1.
         13    1    3    3    0    0 -0.70409441348E+02  0.79149881002E+03 -0.79449446107E+02  0.79858630175E+03  0.10566000000E+00 0. -1.
          4    1    4    4  501    0  0.84016065318E+02 -0.61725257599E+03 -0.63138487048E+03  0.88696465346E+03  0.00000000000E+00 0.  1.
         -4    1    3    3    0  503  0.28293932066E+03 -0.22872470965E+03  0.10318304310E+03  0.37817508163E+03  0.00000000000E+00 0. -1.
</event>
<event>
 8    1  0.7008488E-006  0.1097935E+04  0.7818608E-02  0.8687660E-01
         21   -1    0    0  503  502  0.00000000000E+00  0.00000000000E+00  0.11002757417E+04  0.11002757417E+04  0.00000000000E+00 0.  1.
         21   -1    0    0  501  503 -0.00000000000E+00 -0.00000000000E+00 -0.11110707397E+04  0.11110707397E+04  0.00000000000E+00 0.  1.
    9000010    2    1    2  501    0 -0.42026581014E+03  0.18121424396E+03  0.12514339400E+03  0.11050281475E+04  0.99798015221E+03 0.  0.
   -9000010    2    1    2    0  502  0.42026581014E+03 -0.18121424396E+03 -0.13593839195E+03  0.11063183339E+04  0.99799752312E+03 0.  0.
        -13    1    3    3    0    0 -0.58870941536E+03 -0.10563397673E+03  0.35975414828E+03  0.69796874654E+03  0.10566000000E+00 0.  1.
         13    1    4    4    0    0  0.67544249042E+03 -0.23241572579E+03  0.13902454603E+03  0.72771386067E+03  0.10566000000E+00 0. -1.
          4    1    3    3  501    0  0.16844360522E+03  0.28684822068E+03 -0.23461075428E+03  0.40705940092E+03  0.00000000000E+00 0.  1.
         -4    1    4    4    0  502 -0.25517668027E+03  0.51201481835E+02 -0.27496293797E+03  0.37860447324E+03  0.00000000000E+00 0. -1.
</event>
<event>
 8    1  0.7008488E-006  0.1319350E+04  0.7818608E-02  0.8526975E-01
         21   -1    0    0  503  502  0.00000000000E+00  0.00000000000E+00  0.18574172890E+04  0.18574172890E+04  0.00000000000E+00 0.  1.
         21   -1    0    0  501  503 -0.00000000000E+00 -0.00000000000E+00 -0.12434812585E+04  0.12434812585E+04  0.00000000000E+00 0.  1.
    9000010    2    1    2  501    0  0.78150240430E+03  0.14347568151E+03 -0.48676144400E+03  0.14062792072E+04  0.10532583853E+04 0.  0.
   -9000010    2    1    2    0  502 -0.78150240430E+03 -0.14347568151E+03  0.11006974745E+04  0.16946193402E+04  0.10143315527E+04 0.  0.
        -13    1    3    3    0    0 -0.89054497494E+02 -0.24694104125E+03  0.10593434794E+03  0.28307716018E+03  0.10566000000E+00 0.  1.
         13    1    4    4    0    0 -0.74807455869E+03  0.18212766106E+03  0.29417908124E+03  0.82421318436E+03  0.10566000000E+00 0. -1.
          4    1    3    3  501    0  0.87055690180E+03  0.39041672277E+03 -0.59269579194E+03  0.11232020470E+04  0.00000000000E+00 0.  1.
         -4    1    4    4    0  502 -0.33427845617E+02 -0.32560334257E+03  0.80651839324E+03  0.87040615588E+03  0.00000000000E+00 0. -1.
</event>
<event>
 8    1  0.7008488E-006  0.1070629E+04  0.7818608E-02  0.8712232E-01
         21   -1    0    0  503  502  0.00000000000E+00  0.00000000000E+00  0.13924658015E+04  0.13924658015E+04  0.00000000000E+00 0.  1.
         21   -1    0    0  501  503 -0.00000000000E+00 -0.00000000000E+00 -0.97168204826E+03  0.97168204826E+03  0.00000000000E+00 0.  1.
    9000010    2    1    2  501    0  0.43528120915E+01 -0.39597277337E+03 -0.25839415899E+03  0.11013694261E+04  0.99470281343E+03 0.  0.
   -9000010    2    1    2    0  502 -0.43528120915E+01  0.39597277337E+03  0.67917791219E+03  0.12627784237E+04  0.98818688852E+03 0.  0.
        -13    1    3    3    0    0  0.14872972874E+03 -0.12355664401E+03  0.36097938094E+03  0.40950323701E+03  0.10566000000E+00 0.  1.
         13    1    4    4    0    0  0.21310024615E+03 -0.25529421008E+03  0.59390770513E+02  0.33780782021E+03  0.10566000000E+00 0. -1.
          4    1    3    3  501    0 -0.14437691665E+03 -0.27241612936E+03 -0.61937353993E+03  0.69186618906E+03  0.00000000000E+00 0.  1.
         -4    1    4    4    0  502 -0.21745305824E+03  0.65126698345E+03  0.61978714167E+03  0.92497060345E+03  0.00000000000E+00 0. -1.
</event>
<event>
 8    1  0.7008488E-006  0.1233918E+04  0.7818608E-02  0.8583010E-01
         21   -1    0    0  503  502  0.00000000000E+00  0.00000000000E+00  0.92724894732E+03  0.92724894732E+03  0.00000000000E+00 0.  1.
         21   -1    0    0  501  503 -0.00000000000E+00 -0.00000000000E+00 -0.16356401313E+04  0.16356401313E+04  0.00000000000E+00 0.  1.
    9000010    2    1    2  501    0  0.46275351074E+03 -0.53153208551E+03 -0.28476697107E+03  0.12663513069E+04  0.10128604223E+04 0.  0.
   -9000010    2    1    2    0  502 -0.46275351074E+03  0.53153208551E+03 -0.42362421291E+03  0.12965377717E+04  0.10024397987E+04 0.  0.
        -13    1    3    3    0    0  0.57694533532E+03 -0.26850517110E+03  0.23037362259E+03  0.67678132658E+03  0.10566000000E+00 0.  1.
         13    1    4    4    0    0 -0.60985420470E+03  0.28611543624E+03  0.11808508045E+03  0.68390663927E+03  0.10566000000E+00 0. -1.
          4    1    3    3  501    0 -0.11419182458E+03 -0.26302691441E+03 -0.51514059366E+03  0.58956998035E+03  0.00000000000E+00 0.  1.
         -4    1    4    4    0  502  0.14710069395E+03  0.24541664927E+03 -0.54170929337E+03  0.61263113243E+03  0.00000000000E+00 0. -1.
</event>
<event>
 8    1  0.7008488E-006  0.1282573E+04  0.7818608E-02  0.8570014E-01
         21   -1    0    0  501  502  0.00000000000E+00  0.00000000000E+00  0.17405552868E+04  0.17405552868E+04  0.00000000000E+00 0.  1.
         21   -1    0    0  502  503 -0.00000000000E+00 -0.00000000000E+00 -0.11885775824E+04  0.11885775824E+04  0.00000000000E+00 0.  1.
   -9000010    2    1    2    0  503 -0.67044787333E+03  0.44636979561E+03 -0.51024462893E+03  0.12638072423E+04  0.82952565901E+03 0.  0.
    9000010    2    1    2  501    0  0.67044787333E+03 -0.44636979561E+03  0.10622223334E+04  0.16653256269E+04  0.99812164239E+03 0.  0.
        -13    1    4    4    0    0  0.53486942357E+03 -0.76609492844E+02  0.11421072128E+04  0.12634726793E+04  0.10566000000E+00 0.  1.
         13    1    3    3    0    0 -0.76562348231E+03  0.56956180347E+03 -0.55230308330E+03  0.11025509837E+04  0.10566000000E+00 0. -1.
          4    1    4    4  501    0  0.13557844976E+03 -0.36976030277E+03 -0.79884879469E+02  0.40185294762E+03  0.00000000000E+00 0.  1.
         -4    1    3    3    0  503  0.95175608982E+02 -0.12319200786E+03  0.42058454370E+02  0.16125625858E+03  0.00000000000E+00 0. -1.
</event>
<event>
 8    1  0.7008488E-006  0.1068637E+04  0.7818608E-02  0.8717671E-01
         21   -1    0    0  501  502  0.00000000000E+00  0.00000000000E+00  0.10660582454E+04  0.10660582454E+04  0.00000000000E+00 0. -1.
         21   -1    0    0  502  503 -0.00000000000E+00 -0.00000000000E+00 -0.10664861063E+04  0.10664861063E+04  0.00000000000E+00 0. -1.
   -9000010    2    1    2    0  503 -0.28560635549E+03  0.10898884590E+03 -0.13919437720E+03  0.10776646712E+04  0.10239807176E+04 0.  0.
    9000010    2    1    2  501    0  0.28560635549E+03 -0.10898884590E+03  0.13876651634E+03  0.10548796805E+04  0.10000327172E+04 0.  0.
        -13    1    4    4    0    0  0.35778854520E+03 -0.47837622702E+03  0.27097547230E+03  0.65596049836E+03  0.10566000000E+00 0.  1.
         13    1    3    3    0    0  0.28909136640E+03 -0.55189822554E+02 -0.33762676755E+03  0.44789684077E+03  0.10566000000E+00 0. -1.
          4    1    4    4  501    0 -0.72182189717E+02  0.36938738111E+03 -0.13220895596E+03  0.39891918213E+03  0.00000000000E+00 0.  1.
         -4    1    3    3    0  503 -0.57469772189E+03  0.16417866846E+03  0.19843239035E+03  0.62976783044E+03  0.00000000000E+00 0. -1.
</event>
<event>
 8    1  0.7008488E-006  0.1042018E+04  0.7818608E-02  0.8737792E-01
         21   -1    0    0  501  502  0.00000000000E+00  0.00000000000E+00  0.99575568568E+03  0.99575568568E+03  0.00000000000E+00 0. -1.
         21   -1    0    0  502  503 -0.00000000000E+00 -0.00000000000E+00 -0.14948085243E+04  0.14948085243E+04  0.00000000000E+00 0. -1.
   -9000010    2    1    2    0  503  0.14662935145E+03 -0.23222722516E+03 -0.90289319004E+03  0.13730273809E+04  0.99727550117E+03 0.  0.
    9000010    2    1    2  501    0 -0.14662935145E+03  0.23222722516E+03  0.40384035146E+03  0.11175368291E+04  0.10051725643E+04 0.  0.
        -13    1    4    4    0    0 -0.54286745042E+03 -0.62777592266E+02  0.24236937716E+03  0.59782022462E+03  0.10566000000E+00 0.  1.
         13    1    3    3    0    0 -0.22286686463E+03 -0.10599082680E+02 -0.91517973153E+03  0.94198510183E+03  0.10566000000E+00 0. -1.
          4    1    4    4  501    0  0.39623809897E+03  0.29500481743E+03  0.16147097430E+03  0.51971660443E+03  0.00000000000E+00 0.  1.
         -4    1    3    3    0  503  0.36949621607E+03 -0.22162814248E+03  0.12286541492E+02  0.43104227906E+03  0.00000000000E+00 0. -1.
</event>
<event>
 8    1  0.7008488E-006  0.1293260E+04  0.7818608E-02  0.8541103E-01
         21   -1    0    0  501  502  0.00000000000E+00  0.00000000000E+00  0.13630140386E+04  0.13630140386E+04  0.00000000000E+00 0. -1.
         21   -1    0    0  502  503 -0.00000000000E+00 -0.00000000000E+00 -0.14292048150E+04  0.14292048150E+04  0.00000000000E+00 0.  1.
   -9000010    2    1    2    0  503 -0.39943023955E+03  0.70415302032E+03  0.50340649515E+03  0.13877824288E+04  0.10085365527E+04 0.  0.
    9000010    2    1    2  501    0  0.39943023955E+03 -0.70415302032E+03 -0.56959727154E+03  0.14044364247E+04  0.99630548877E+03 0.  0.
        -13    1    4    4    0    0  0.61292731360E+03 -0.69355564619E+03 -0.69422443097E+03  0.11569990915E+04  0.10566000000E+00 0.  1.
         13    1    3    3    0    0  0.24868776894E+03  0.31450649132E+03 -0.10808110169E+03  0.41526073160E+03  0.10566000000E+00 0. -1.
          4    1    4    4  501    0 -0.21349707405E+03 -0.10597374127E+02  0.12462715943E+03  0.24743733314E+03  0.00000000000E+00 0.  1.
         -4    1    3    3    0  503 -0.64811800849E+03  0.38964652899E+03  0.61148759684E+03  0.97252169723E+03  0.00000000000E+00 0. -1.
</event>
<event>
 8    1  0.7008488E-006  0.1202114E+04  0.7818608E-02  0.8638482E-01
         21   -1    0    0  501  502  0.00000000000E+00  0.00000000000E+00  0.25946060109E+04  0.25946060109E+04  0.00000000000E+00 0. -1.
         21   -1    0    0  502  503 -0.00000000000E+00 -0.00000000000E+00 -0.50536389000E+03  0.50536389000E+03  0.00000000000E+00 0. -1.
   -9000010    2    1    2    0  503  0.46096872368E+02  0.66395261093E+03  0.79347772744E+03  0.14403769398E+04  0.10010598552E+04 0.  0.
    9000010    2    1    2  501    0 -0.46096872368E+02 -0.66395261093E+03  0.12957643935E+04  0.16595929611E+04  0.79516378310E+03 0.  0.
        -13    1    4    4    0    0 -0.39017422303E+03 -0.14916329168E+03  0.52858316977E+03  0.67371046484E+03  0.10566000000E+00 0.  1.
         13    1    3    3    0    0  0.41740968399E+03  0.58734019720E+03  0.77873549468E+03  0.10609563296E+04  0.10566000000E+00 0. -1.
          4    1    4    4  501    0  0.34407735066E+03 -0.51478931924E+03  0.76718122373E+03  0.98588249629E+03  0.00000000000E+00 0.  1.
         -4    1    3    3    0  503 -0.37131281162E+03  0.76612413728E+02  0.14742232759E+02  0.37942061019E+03  0.00000000000E+00 0. -1.
</event>
<event>
 8    1  0.7008488E-006  0.1142510E+04  0.7818608E-02  0.8653310E-01
         21   -1    0    0  503  502  0.00000000000E+00  0.00000000000E+00  0.44487137368E+03  0.44487137368E+03  0.00000000000E+00 0.  1.
         21   -1    0    0  501  503 -0.00000000000E+00 -0.00000000000E+00 -0.29147371646E+04  0.29147371646E+04  0.00000000000E+00 0.  1.
    9000010    2    1    2  501    0 -0.51071561406E+03  0.14558692573E+03 -0.11409884685E+04  0.16071117159E+04  0.99946355138E+03 0.  0.
   -9000010    2    1    2    0  502  0.51071561406E+03 -0.14558692573E+03 -0.13288773224E+04  0.17524968224E+04  0.10115849857E+04 0.  0.
        -13    1    3    3    0    0 -0.68765920845E+03  0.39854149391E+03 -0.64816041582E+03  0.10255839532E+04  0.10566000000E+00 0.  1.
         13    1    4    4    0    0 -0.21637178708E+03 -0.23149165416E+03 -0.11927001057E+03  0.33857123737E+03  0.10566000000E+00 0. -1.
          4    1    3    3  501    0  0.17694359439E+03 -0.25295456818E+03 -0.49282805272E+03  0.58152776263E+03  0.00000000000E+00 0.  1.
         -4    1    4    4    0  502  0.72708740114E+03  0.85904728428E+02 -0.12096073118E+04  0.14139255850E+04  0.00000000000E+00 0. -1.
</event>
<event>
 8    1  0.7008488E-006  0.1528338E+04  0.7818608E-02  0.8394128E-01
         21   -1    0    0  503  502  0.00000000000E+00  0.00000000000E+00  0.19771247873E+04  0.19771247873E+04  0.00000000000E+00 0. -1.
         21   -1    0    0  501  503 -0.00000000000E+00 -0.00000000000E+00 -0.12192949390E+04  0.12192949390E+04  0.00000000000E+00 0.  1.
    9000010    2    1    2  501    0 -0.68076584638E+03 -0.93364539466E+03  0.67490009250E+03  0.16658338692E+04  0.99215748977E+03 0.  0.
   -9000010    2    1    2    0  502  0.68076584638E+03  0.93364539466E+03  0.82929755788E+02  0.15305858570E+04  0.10003398726E+04 0.  0.
        -13    1    3    3    0    0 -0.44977829431E+02 -0.83774465809E+03  0.18918901488E+03  0.86001837877E+03  0.10566000000E+00 0.  1.
         13    1    4    4    0    0  0.75377223516E+03  0.50305555420E+03 -0.29500409943E+03  0.95302932953E+03  0.10566000000E+00 0. -1.
          4    1    3    3  501    0 -0.63578801695E+03 -0.95900736570E+02  0.48571107762E+03  0.80581549048E+03  0.00000000000E+00 0.  1.
         -4    1    4    4    0  502 -0.73006388775E+02  0.43058984046E+03  0.37793385522E+03  0.57755652748E+03  0.00000000000E+00 0. -1.
</event>
<event>
 8    1  0.7008488E-006  0.1191646E+04  0.7818608E-02  0.8616020E-01
         21   -1    0    0  503  502  0.00000000000E+00  0.00000000000E+00  0.19035868585E+04  0.19035868585E+04  0.00000000000E+00 0.  1.
         21   -1    0    0  501  503 -0.00000000000E+00 -0.00000000000E+00 -0.75311440011E+03  0.75311440011E+03  0.00000000000E+00 0. -1.
    9000010    2    1    2  501    0 -0.46776246096E+03 -0.40575721799E+03  0.77316686997E+03  0.14067490404E+04  0.99885695374E+03 0.  0.
   -9000010    2    1    2    0  502  0.46776246096E+03  0.40575721799E+03  0.37730558841E+03  0.12499522182E+04  0.10181259258E+04 0.  0.
        -13    1    3    3    0    0 -0.35841819953E+03 -0.66232722235E+03  0.21563695058E+03  0.78335193932E+03  0.10566000000E+00 0.  1.
         13    1    4    4    0    0  0.49404089355E+02  0.45027145830E+03 -0.23245181555E+03  0.50913554966E+03  0.10566000000E+00 0. -1.
          4    1    3    3  501    0 -0.10934426143E+03  0.25657000435E+03  0.55752991938E+03  0.62339710109E+03  0.00000000000E+00 0.  1.
         -4    1    4    4    0  502  0.41835837160E+03 -0.44514240310E+02  0.60975740396E+03  0.74081666853E+03  0.00000000000E+00 0. -1.
</event>
<event>
 8    1  0.7008488E-006  0.1489188E+04  0.7818608E-02  0.8416516E-01
         21   -1    0    0  501  502  0.00000000000E+00  0.00000000000E+00  0.24413925524E+04  0.24413925524E+04  0.00000000000E+00 0. -1.
         21   -1    0    0  502  503 -0.00000000000E+00 -0.00000000000E+00 -0.10776550110E+04  0.10776550110E+04  0.00000000000E+00 0.  1.
   -9000010    2    1    2    0  503  0.90462419132E+03 -0.62161216774E+03 -0.23112488499E+02  0.14840947456E+04  0.99862726382E+03 0.  0.
    9000010    2    1    2  501    0 -0.90462419132E+03  0.62161216774E+03  0.13868500298E+04  0.20349528179E+04  0.10064459007E+04 0.  0.
        -13    1    4    4    0    0 -0.10732573896E+04  0.71551557445E+03  0.12651187816E+04  0.18067566256E+04  0.10566000000E+00 0.  1.
         13    1    3    3    0    0  0.16907585593E+03 -0.68909632058E+03 -0.17318634853E+03  0.73036559789E+03  0.10566000000E+00 0. -1.
          4    1    4    4  501    0  0.16863319827E+03 -0.93903406705E+02  0.12173124824E+03  0.22819619223E+03  0.00000000000E+00 0.  1.
         -4    1    3    3    0  503  0.73554833539E+03  0.67484152838E+02  0.15007386003E+03  0.75372914767E+03  0.00000000000E+00 0. -1.
</event>
<event>
 7    1  0.7008488E-006  0.1187840E+04  0.7818608E-02  0.8676872E-01
         21   -1    0    0  503  502  0.00000000000E+00  0.00000000000E+00  0.98889962117E+03  0.98889962117E+03  0.00000000000E+00 0. -1.
         21   -1    0    0  501  503 -0.00000000000E+00 -0.00000000000E+00 -0.22909925465E+04  0.22909925465E+04  0.00000000000E+00 0.  1.
    9000010    2    1    2  501    0 -0.64798662254E+03  0.12281593506E+01 -0.18648930389E+04  0.22110608081E+04  0.99552783934E+03 0.  0.
        -13    1    3    3    0    0 -0.84105778556E+03  0.21010060958E+03 -0.11386153531E+04  0.14310714162E+04  0.10566000000E+00 0.  1.
         13    1    1    2    0    0  0.43253464344E+03  0.25266312389E+03  0.12052748033E+03  0.51522010503E+03  0.10566000000E+00 0. -1.
          4    1    3    3  501    0  0.19307116302E+03 -0.20887245023E+03 -0.72627768587E+03  0.77998939188E+03  0.00000000000E+00 0.  1.
         -4    1    1    2    0  502  0.21545197910E+03 -0.25389128324E+03  0.44227263330E+03  0.55361125455E+03  0.00000000000E+00 0. -1.
</event>
<event>
 8    1  0.7008488E-006  0.1068388E+04  0.7818608E-02  0.8712990E-01
         21   -1    0    0  503  502  0.00000000000E+00  0.00000000000E+00  0.67833582675E+03  0.67833582675E+03  0.00000000000E+00 0.  1.
         21   -1    0    0  501  503 -0.00000000000E+00 -0.00000000000E+00 -0.17057841661E+04  0.17057841661E+04  0.00000000000E+00 0.  1.
    9000010    2    1    2  501    0 -0.34760187440E+03  0.15984566227E+03 -0.65496592706E+03  0.12526621683E+04  0.99689740873E+03 0.  0.
   -9000010    2    1    2    0  502  0.34760187440E+03 -0.15984566227E+03 -0.37248241233E+03  0.11314578246E+04  0.99753494297E+03 0.  0.
        -13    1    3    3    0    0 -0.41117865661E+03 -0.61438953368E+02 -0.85303410219E+03  0.94895196049E+03  0.10566000000E+00 0.  1.
         13    1    4    4    0    0  0.13120765524E+03 -0.29294827513E+03 -0.66837888463E+03  0.74146104771E+03  0.10566000000E+00 0. -1.
          4    1    3    3  501    0  0.63576782206E+02  0.22128461563E+03  0.19806817513E+03  0.30371020785E+03  0.00000000000E+00 0.  1.
         -4    1    4    4    0  502  0.21639421916E+03  0.13310261287E+03  0.29589647230E+03  0.38999677685E+03  0.00000000000E+00 0. -1.
</event>
<event>
 8    1  0.7008488E-006  0.1211985E+04  0.7818608E-02  0.8621146E-01
         21   -1    0    0  503  502  0.00000000000E+00  0.00000000000E+00  0.13031516513E+04  0.13031516513E+04  0.00000000000E+00 0.  1.
         21   -1    0    0  501  503 -0.00000000000E+00 -0.00000000000E+00 -0.10398572307E+04  0.10398572307E+04  0.00000000000E+00 0.  1.
    9000010    2    1    2  501    0 -0.39313966564E+03 -0.23738765162E+03 -0.43065017497E+02  0.10929033839E+04  0.99079337749E+03 0.  0.
   -9000010    2    1    2    0  502  0.39313966564E+03  0.23738765162E+03  0.30635943806E+03  0.12501054982E+04  0.11216041893E+04 0.  0.
        -13    1    3    3    0    0 -0.72307483370E+03 -0.13518508215E+03  0.43270048962E+02  0.73687484003E+03  0.10566000000E+00 0.  1.
         13    1    4    4    0    0  0.53998290389E+03  0.52629111773E+03  0.46850244128E+03  0.88772654897E+03  0.10566000000E+00 0. -1.
          4    1    3    3  501    0  0.32993516805E+03 -0.10220256947E+03 -0.86335066459E+02  0.35602854383E+03  0.00000000000E+00 0.  1.
         -4    1    4    4    0  502 -0.14684323825E+03 -0.28890346611E+03 -0.16214300322E+03  0.36237894923E+03  0.00000000000E+00 0. -1.
</event>
<event>
 8    1  0.7008488E-006  0.1186931E+04  0.7818608E-02  0.8617034E-01
         21   -1    0    0  501  502  0.00000000000E+00  0.00000000000E+00  0.97460392572E+03  0.97460392572E+03  0.00000000000E+00 0.  1.
         21   -1    0    0  502  503 -0.00000000000E+00 -0.00000000000E+00 -0.14475542724E+04  0.14475542724E+04  0.00000000000E+00 0.  1.
   -9000010    2    1    2    0  503  0.62527386291E+03  0.34244814767E+02 -0.31235157158E+03  0.12273417129E+04  0.10082976074E+04 0.  0.
    9000010    2    1    2  501    0 -0.62527386291E+03 -0.34244814767E+02 -0.16059877511E+03  0.11948164852E+04  0.10048155830E+04 0.  0.
        -13    1    4    4    0    0 -0.73176180344E+03 -0.37628100482E+03 -0.73255845369E+02  0.82609270764E+03  0.10566000000E+00 0.  1.
         13    1    3    3    0    0  0.46554304312E+03  0.43058154849E+03  0.89905431363E+02  0.64047934600E+03  0.10566000000E+00 0. -1.
          4    1    4    4  501    0  0.10648794053E+03  0.34203619005E+03 -0.87342929740E+02  0.36872377759E+03  0.00000000000E+00 0.  1.
         -4    1    3    3    0  503  0.15973081979E+03 -0.39633673372E+03 -0.40225700295E+03  0.58686236692E+03  0.00000000000E+00 0. -1.
</event>
<event>
 8    1  0.7008488E-006  0.1053975E+04  0.7818608E-02  0.8729338E-01
         21   -1    0    0  503  502  0.00000000000E+00  0.00000000000E+00  0.69844776521E+03  0.69844776521E+03  0.00000000000E+00 0.  1.
         21   -1    0    0  501  503 -0.00000000000E+00 -0.00000000000E+00 -0.15649296018E+04  0.15649296018E+04  0.00000000000E+00 0.  1.
    9000010    2    1    2  501    0  0.26135340742E+03  0.25504685811E+02 -0.45207805474E+03  0.11308610904E+04  0.10027542798E+04 0.  0.
   -9000010    2    1    2    0  502 -0.26135340742E+03 -0.25504685811E+02 -0.41440378181E+03  0.11325162765E+04  0.10207382278E+04 0.  0.
        -13    1    3    3    0    0  0.48946903109E+03 -0.19170544763E+03 -0.58719465693E+03  0.78811705180E+03  0.10566000000E+00 0.  1.
         13    1    4    4    0    0  0.11404759055E+03 -0.11819736308E+03  0.28752343194E+03  0.33113019287E+03  0.10566000000E+00 0. -1.
          4    1    3    3  501    0 -0.22811562367E+03  0.21721013344E+03  0.13511660219E+03  0.34274403864E+03  0.00000000000E+00 0.  1.
         -4    1    4    4    0  502 -0.37540099797E+03  0.92692677269E+02 -0.70192721375E+03  0.80138608367E+03  0.00000000000E+00 0. -1.
</event>
<event>
 8    1  0.7008488E-006  0.1286080E+04  0.7818608E-02  0.8550160E-01
         21   -1    0    0  503  502  0.00000000000E+00  0.00000000000E+00  0.15793692165E+04  0.15793692165E+04  0.00000000000E+00 0. -1.
         21   -1    0    0  501  503 -0.00000000000E+00 -0.00000000000E+00 -0.14701600500E+04  0.14701600500E+04  0.00000000000E+00 0. -1.
    9000010    2    1    2  501    0  0.49514151099E+03  0.58475226788E+03  0.89707754905E+03  0.15413060988E+04  0.99185484339E+03 0.  0.
   -9000010    2    1    2    0  502 -0.49514151099E+03 -0.58475226788E+03 -0.78786838249E+03  0.15082231678E+04  0.10329086140E+04 0.  0.
        -13    1    3    3    0    0  0.34758325680E+03  0.40405334404E+03 -0.78041290718E+02  0.53866843184E+03  0.10566000000E+00 0.  1.
         13    1    4    4    0    0  0.18028272849E+03 -0.46554689505E+03 -0.63107138171E+03  0.80466569062E+03  0.10566000000E+00 0. -1.
          4    1    3    3  501    0  0.14755825419E+03  0.18069892384E+03  0.97511883977E+03  0.10026376669E+04  0.00000000000E+00 0.  1.
         -4    1    4    4    0  502 -0.67542423948E+03 -0.11920537283E+03 -0.15679700077E+03  0.70355747714E+03  0.00000000000E+00 0. -1.
</event>
<event>
 8    1  0.7008488E-006  0.1249457E+04  0.7818608E-02  0.8571759E-01
         21   -1    0    0  501  502  0.00000000000E+00  0.00000000000E+00  0.15738041915E+04  0.15738041915E+04  0.00000000000E+00 0. -1.
         21   -1    0    0  502  503 -0.00000000000E+00 -0.00000000000E+00 -0.11811332466E+04  0.11811332466E+04  0.00000000000E+00 0. -1.
   -9000010    2    1    2    0  503 -0.35248672644E+03  0.66156869997E+03  0.75681958768E+03  0.14534966227E+04  0.98891683509E+03 0.  0.
    9000010    2    1    2  501    0  0.35248672644E+03 -0.66156869997E+03 -0.36414864272E+03  0.13014408155E+04  0.99961188720E+03 0.  0.
        -13    1    4    4    0    0  0.18871850347E+03 -0.32209528556E+02  0.31025370086E+03  0.36456754839E+03  0.10566000000E+00 0.  1.
         13    1    3    3    0    0  0.13224770968E+03  0.41527209286E+03 -0.92038816657E+02  0.44543408352E+03  0.10566000000E+00 0. -1.
          4    1    4    4  501    0  0.16376822297E+03 -0.62935917142E+03 -0.67440234358E+03  0.93687326706E+03  0.00000000000E+00 0.  1.
         -4    1    3    3    0  503 -0.48473443612E+03  0.24629660711E+03  0.84885840433E+03  0.10080625392E+04  0.00000000000E+00 0. -1.
</event>
<event>
 8    1  0.7008488E-006  0.1086727E+04  0.7818608E-02  0.8703085E-01
         21   -1    0    0  503  502  0.00000000000E+00  0.00000000000E+00  0.12219308278E+04  0.12219308278E+04  0.00000000000E+00 0. -1.
         21   -1    0    0  501  503 -0.00000000000E+00 -0.00000000000E+00 -0.97220023978E+03  0.97220023978E+03  0.00000000000E+00 0. -1.
    9000010    2    1    2  501    0 -0.35054531585E+03  0.22214855677E+03  0.31666026891E+03  0.11053447738E+04  0.97431070167E+03 0.  0.
   -9000010    2    1    2    0  502  0.35054531585E+03 -0.22214855677E+03 -0.66929680906E+02  0.10887862937E+04  0.10043624901E+04 0.  0.
        -13    1    3    3    0    0  0.29190883563E+03 -0.95327797552E+02  0.22967363703E+03  0.38346857500E+03  0.10566000000E+00 0.  1.
         13    1    4    4    0    0  0.58321871440E+03 -0.44950543692E+03  0.61798740228E+02  0.73893051236E+03  0.10566000000E+00 0. -1.
          4    1    3    3  501    0 -0.64245415148E+03  0.31747635432E+03  0.86986631877E+02  0.72187619882E+03  0.00000000000E+00 0.  1.
         -4    1    4    4    0  502 -0.23267339855E+03  0.22735688016E+03 -0.12872842113E+03  0.34985578136E+03  0.00000000000E+00 0. -1.
</event>
<event>
 8    1  0.7008488E-006  0.1208342E+04  0.7818608E-02  0.8604072E-01
         21   -1    0    0  501  502  0.00000000000E+00  0.00000000000E+00  0.10104106391E+04  0.10104106391E+04  0.00000000000E+00 0. -1.
         21   -1    0    0  502  503 -0.00000000000E+00 -0.00000000000E+00 -0.14275102972E+04  0.14275102972E+04  0.00000000000E+00 0.  1.
   -9000010    2    1    2    0  503 -0.56476208948E+03  0.38129140959E+03 -0.29107746216E+03  0.12429067020E+04  0.99787355114E+03 0.  0.
    9000010    2    1    2  501    0  0.56476208948E+03 -0.38129140959E+03 -0.12602219598E+03  0.11950142343E+04  0.97356975594E+03 0.  0.
        -13    1    4    4    0    0  0.70677329504E+03 -0.36151119834E+03 -0.39763371465E+03  0.88788029559E+03  0.10566000000E+00 0.  1.
         13    1    3    3    0    0 -0.50631452441E+03  0.63797847769E+03  0.45330249343E+02  0.81573634116E+03  0.10566000000E+00 0. -1.
          4    1    4    4  501    0 -0.14201120556E+03 -0.19780211255E+02  0.27161151867E+03  0.30713393876E+03  0.00000000000E+00 0.  1.
         -4    1    3    3    0  503 -0.58447565076E+02 -0.25668706810E+03 -0.33640771150E+03  0.42717036080E+03  0.00000000000E+00 0. -1.
</event>
<event>
 8    1  0.7008488E-006  0.1207972E+04  0.7818608E-02  0.8615278E-01
         21   -1    0    0  501  502  0.00000000000E+00  0.00000000000E+00  0.13530891789E+04  0.13530891789E+04  0.00000000000E+00 0. -1.
         21   -1    0    0  502  503 -0.00000000000E+00 -0.00000000000E+00 -0.11165388742E+04  0.11165388742E+04  0.00000000000E+00 0. -1.
   -9000010    2    1    2    0  503 -0.31992401241E+03  0.43790065559E+03 -0.25663404180E+03  0.12349320395E+04  0.10793923072E+04 0.  0.
    9000010    2    1    2  501    0  0.31992401241E+03 -0.43790065559E+03  0.49318434644E+03  0.12346960136E+04  0.99354672184E+03 0.  0.
        -13    1    4    4    0    0  0.17230255662E+03  0.15798391880E+03 -0.20078793681E+03  0.30816050420E+03  0.10566000000E+00 0.  1.
         13    1    3    3    0    0 -0.30846369451E+01  0.37597523510E+03  0.37158112976E+03  0.52862031700E+03  0.10566000000E+00 0. -1.
          4    1    4    4  501    0  0.14762145579E+03 -0.59588457439E+03  0.69397228325E+03  0.92653550937E+03  0.00000000000E+00 0.  1.
         -4    1    3    3    0  503 -0.31683937547E+03  0.61925420493E+02 -0.62821517156E+03  0.70631172249E+03  0.00000000000E+00 0. -1.
</event>
<event>
 8    1  0.7008488E-006  0.1612728E+04  0.7818608E-02  0.8349207E-01
         21   -1    0    0  501  502  0.00000000000E+00  0.00000000000E+00  0.16297787133E+04  0.16297787133E+04  0.00000000000E+00 0.  1.
         21   -1    0    0  502  503 -0.00000000000E+00 -0.00000000000E+00 -0.16419254244E+04  0.16419254244E+04  0.00000000000E+00 0. -1.
   -9000010    2    1    2    0  503  0.18520519488E+03  0.12459216897E+04  0.30503666074E+03  0.16280815284E+04  0.98538331497E+03 0.  0.
    9000010    2    1    2  501    0 -0.18520519488E+03 -0.12459216897E+04 -0.31718337189E+03  0.16436226093E+04  0.10071088170E+04 0.  0.
        -13    1    4    4    0    0 -0.52555528247E+03 -0.34917459024E+03 -0.26096579777E+03  0.68281359694E+03  0.10566000000E+00 0.  1.
         13    1    3    3    0    0 -0.20326598297E+03  0.58531294680E+03  0.54483361197E+03  0.82507695485E+03  0.10566000000E+00 0. -1.
          4    1    4    4  501    0  0.34035008759E+03 -0.89674709949E+03 -0.56217574125E+02  0.96080901235E+03  0.00000000000E+00 0.  1.
         -4    1    3    3    0  503  0.38847117785E+03  0.66060874293E+03 -0.23979695122E+03  0.80300457351E+03  0.00000000000E+00 0. -1.
</event>
<event>
 8    1  0.7008488E-006  0.1345411E+04  0.7818608E-02  0.8505111E-01
         21   -1    0    0  503  502  0.00000000000E+00  0.00000000000E+00  0.10789879454E+04  0.10789879454E+04  0.00000000000E+00 0. -1.
         21   -1    0    0  501  503 -0.00000000000E+00 -0.00000000000E+00 -0.21608177453E+04  0.21608177453E+04  0.00000000000E+00 0. -1.
    9000010    2    1    2  501    0  0.58931322365E+03 -0.65813424414E+03 -0.13116325762E+04  0.18789652750E+04  0.10147412137E+04 0.  0.
   -9000010    2    1    2    0  502 -0.58931322365E+03  0.65813424414E+03  0.22980277630E+03  0.13608404157E+04  0.10092802199E+04 0.  0.
        -13    1    3    3    0    0  0.23703608192E+03  0.16108851367E+03 -0.80242345322E+03  0.85206749897E+03  0.10566000000E+00 0.  1.
         13    1    4    4    0    0  0.40341097507E+02  0.48032656690E+03  0.46093689147E+03  0.66693616193E+03  0.10566000000E+00 0. -1.
          4    1    3    3  501    0  0.35227714173E+03 -0.81922275780E+03 -0.50920912296E+03  0.10268977760E+04  0.00000000000E+00 0.  1.
         -4    1    4    4    0  502 -0.62965432116E+03  0.17780767724E+03 -0.23113411516E+03  0.69390425379E+03  0.00000000000E+00 0. -1.
</event>
<event>
 8    1  0.7008488E-006  0.1220289E+04  0.7818608E-02  0.8594198E-01
         21   -1    0    0  503  502  0.00000000000E+00  0.00000000000E+00  0.10392412613E+04  0.10392412613E+04  0.00000000000E+00 0.  1.
         21   -1    0    0  501  503 -0.00000000000E+00 -0.00000000000E+00 -0.14155398525E+04  0.14155398525E+04  0.00000000000E+00 0.  1.
    9000010    2    1    2  501    0 -0.66962065554E+03 -0.11870238981E+03 -0.17899713274E+03  0.12186444025E+04  0.99527490000E+03 0.  0.
   -9000010    2    1    2    0  502  0.66962065554E+03  0.11870238981E+03 -0.19730145847E+03  0.12361367113E+04  0.10132245673E+04 0.  0.
        -13    1    3    3    0    0 -0.78926203638E+03 -0.12897708251E+03 -0.45325917271E+03  0.91924617959E+03  0.10566000000E+00 0.  1.
         13    1    4    4    0    0  0.10679511058E+03 -0.27759168676E+03 -0.41823013477E+03  0.51320443977E+03  0.10566000000E+00 0. -1.
          4    1    3    3  501    0  0.11964138085E+03  0.10274692696E+02  0.27426203997E+03  0.29939822292E+03  0.00000000000E+00 0.  1.
         -4    1    4    4    0  502  0.56282554496E+03  0.39629407657E+03  0.22092867630E+03  0.72293227151E+03  0.00000000000E+00 0. -1.
</event>
<event>
 8    1  0.7008488E-006  0.1069958E+04  0.7818608E-02  0.8712344E-01
         21   -1    0    0  501  502  0.00000000000E+00  0.00000000000E+00  0.10042226318E+04  0.10042226318E+04  0.00000000000E+00 0.  1.
         21   -1    0    0  502  503 -0.00000000000E+00 -0.00000000000E+00 -0.11359296413E+04  0.11359296413E+04  0.00000000000E+00 0.  1.
   -9000010    2    1    2    0  503 -0.29223525396E+03  0.21677152963E+03 -0.74756023215E+02  0.10725668111E+04  0.10061907183E+04 0.  0.
    9000010    2    1    2  501    0  0.29223525396E+03 -0.21677152963E+03 -0.56950986260E+02  0.10675854620E+04  0.10020498810E+04 0.  0.
        -13    1    4    4    0    0 -0.27941909431E+03  0.20749374437E+03  0.34952010771E+02  0.34978613242E+03  0.10566000000E+00 0.  1.
         13    1    3    3    0    0 -0.10467885963E+03  0.59449374656E+03  0.10751369752E+03  0.61313920497E+03  0.10566000000E+00 0. -1.
          4    1    4    4  501    0  0.57165434827E+03 -0.42426527399E+03 -0.91902997031E+02  0.71779932953E+03  0.00000000000E+00 0.  1.
         -4    1    3    3    0  503 -0.18755639433E+03 -0.37772221694E+03 -0.18226972074E+03  0.45942760618E+03  0.00000000000E+00 0. -1.
</event>
<event>
 8    1  0.7008488E-006  0.1063781E+04  0.7818608E-02  0.8728003E-01
         21   -1    0    0  503  502  0.00000000000E+00  0.00000000000E+00  0.19783253569E+04  0.19783253569E+04  0.00000000000E+00 0.  1.
         21   -1    0    0  501  503 -0.00000000000E+00 -0.00000000000E+00 -0.54639920978E+03  0.54639920978E+03  0.00000000000E+00 0.  1.
    9000010    2    1    2  501    0  0.23965679694E+03  0.15791497766E+03  0.74882278631E+03  0.12605015312E+04  0.97249988396E+03 0.  0.
   -9000010    2    1    2    0  502 -0.23965679694E+03 -0.15791497766E+03  0.68310336084E+03  0.12642230355E+04  0.10243325444E+04 0.  0.
        -13    1    3    3    0    0  0.56977658771E+03 -0.26942145366E+02  0.22244138761E+03  0.61225110959E+03  0.10566000000E+00 0.  1.
         13    1    4    4    0    0 -0.45795522360E+03  0.27905185146E+03  0.18683176714E+03  0.56788999199E+03  0.10566000000E+00 0. -1.
          4    1    3    3  501    0 -0.33011979077E+03  0.18485712303E+03  0.52638139870E+03  0.64825042159E+03  0.00000000000E+00 0.  1.
         -4    1    4    4    0  502  0.21829842665E+03 -0.43696682912E+03  0.49627159370E+03  0.69633304355E+03  0.00000000000E+00 0. -1.
</event>
<event>
 8    1  0.7008488E-006  0.1148023E+04  0.7818608E-02  0.8647535E-01
         21   -1    0    0  503  502  0.00000000000E+00  0.00000000000E+00  0.10611068578E+04  0.10611068578E+04  0.00000000000E+00 0. -1.
         21   -1    0    0  501  503 -0.00000000000E+00 -0.00000000000E+00 -0.12511309571E+04  0.12511309571E+04  0.00000000000E+00 0. -1.
    9000010    2    1    2  501    0 -0.50449216856E+03  0.95026849160E+02 -0.21417689981E+03  0.11678305999E+04  0.10268466854E+04 0.  0.
   -9000010    2    1    2    0  502  0.50449216856E+03 -0.95026849160E+02  0.24152800546E+02  0.11444072151E+04  0.10225175137E+04 0.  0.
        -13    1    3    3    0    0 -0.80540994740E+03  0.17946718776E+03 -0.22437207965E+03  0.85512367301E+03  0.10566000000E+00 0.  1.
         13    1    4    4    0    0  0.30284377549E+03  0.18463094474E+03 -0.44066742348E+03  0.56567722898E+03  0.10566000000E+00 0. -1.
          4    1    3    3  501    0  0.30091777884E+03 -0.84440338600E+02  0.10195179839E+02  0.31270692685E+03  0.00000000000E+00 0.  1.
         -4    1    4    4    0  502  0.20164839307E+03 -0.27965779390E+03  0.46482022403E+03  0.57872998608E+03  0.00000000000E+00 0. -1.
</event>
<event>
 8    1  0.7008488E-006  0.1475674E+04  0.7818608E-02  0.8425931E-01
         21   -1    0    0  501  502  0.00000000000E+00  0.00000000000E+00  0.15756108019E+04  0.15756108019E+04  0.00000000000E+00 0.  1.
         21   -1    0    0  502  503 -0.00000000000E+00 -0.00000000000E+00 -0.13807316995E+04  0.13807316995E+04  0.00000000000E+00 0. -1.
   -9000010    2    1    2    0  503  0.10748772487E+04  0.67010601893E+02 -0.47443117321E+02  0.14609047404E+04  0.98597174944E+03 0.  0.
    9000010    2    1    2  501    0 -0.10748772487E+04 -0.67010601893E+02  0.24232221974E+03  0.14954377609E+04  0.10088421671E+04 0.  0.
        -13    1    4    4    0    0 -0.14622986654E+03 -0.46798332705E+02  0.50688533645E+03  0.52962818400E+03  0.10566000000E+00 0.  1.
         13    1    3    3    0    0  0.72675510603E+03  0.14536594539E+03 -0.49294766603E+03  0.89011328202E+03  0.10566000000E+00 0. -1.
          4    1    4    4  501    0 -0.92864738213E+03 -0.20212269189E+02 -0.26456311671E+03  0.96580957693E+03  0.00000000000E+00 0.  1.
         -4    1    3    3    0  503  0.34812214263E+03 -0.78355343494E+02  0.44550454871E+03  0.57079145838E+03  0.00000000000E+00 0. -1.
</event>
<event>
 8    1  0.7008488E-006  0.1067328E+04  0.7818608E-02  0.8715011E-01
         21   -1    0    0  503  502  0.00000000000E+00  0.00000000000E+00  0.55474575485E+03  0.55474575485E+03  0.00000000000E+00 0.  1.
         21   -1    0    0  501  503 -0.00000000000E+00 -0.00000000000E+00 -0.20884503665E+04  0.20884503665E+04  0.00000000000E+00 0.  1.
    9000010    2    1    2  501    0  0.11185756294E+03  0.32972653205E+03 -0.96450094004E+03  0.14385590383E+04  0.10089392167E+04 0.  0.
   -9000010    2    1    2    0  502 -0.11185756294E+03 -0.32972653205E+03 -0.56920367164E+03  0.12046370831E+04  0.10029586142E+04 0.  0.
        -13    1    3    3    0    0 -0.38389984382E+03  0.44627107366E+02 -0.71881688304E+03  0.81613013136E+03  0.10566000000E+00 0.  1.
         13    1    4    4    0    0 -0.39934192987E+03  0.70170956068E+02  0.55387344179E+02  0.40922574343E+03  0.10566000000E+00 0. -1.
          4    1    3    3  501    0  0.49575740676E+03  0.28509942469E+03 -0.24568405700E+03  0.62242890692E+03  0.00000000000E+00 0.  1.
         -4    1    4    4    0  502  0.28748436693E+03 -0.39989748812E+03 -0.62459101582E+03  0.79541133967E+03  0.00000000000E+00 0. -1.
</event>
<event>
 8    1  0.7008488E-006  0.1365141E+04  0.7818608E-02  0.8492088E-01
         21   -1    0    0  501  502  0.00000000000E+00  0.00000000000E+00  0.10730726436E+04  0.10730726436E+04  0.00000000000E+00 0.  1.
         21   -1    0    0  502  503 -0.00000000000E+00 -0.00000000000E+00 -0.20496935117E+04  0.20496935117E+04  0.00000000000E+00 0. -1.
   -9000010    2    1    2    0  503  0.21994637415E+03  0.89979115641E+03 -0.11016763450E+04  0.17519093029E+04  0.99874666657E+03 0.  0.
    9000010    2    1    2  501    0 -0.21994637415E+03 -0.89979115641E+03  0.12505547694E+03  0.13708568524E+04  0.10028006306E+04 0.  0.
        -13    1    4    4    0    0  0.23723372287E+03 -0.86468054938E+03  0.40919187283E+01  0.89664321038E+03  0.10566000000E+00 0.  1.
         13    1    3    3    0    0  0.52632274595E+03  0.76089511952E+03 -0.47346037559E+03  0.10392986838E+04  0.10566000000E+00 0. -1.
          4    1    4    4  501    0 -0.45718009703E+03 -0.35110607028E+02  0.12096355821E+03  0.47421364200E+03  0.00000000000E+00 0.  1.
         -4    1    3    3    0  503 -0.30637637180E+03  0.13889603689E+03 -0.62821596937E+03  0.71261061908E+03  0.00000000000E+00 0. -1.
</event>
<event>
 8    1  0.7008488E-006  0.1175981E+04  0.7818608E-02  0.8626880E-01
         21   -1    0    0  501  502  0.00000000000E+00  0.00000000000E+00  0.10831836315E+04  0.10831836315E+04  0.00000000000E+00 0.  1.
         21   -1    0    0  502  503 -0.00000000000E+00 -0.00000000000E+00 -0.13343191384E+04  0.13343191384E+04  0.00000000000E+00 0.  1.
   -9000010    2    1    2    0  503  0.39021146679E+03 -0.48922855066E+03 -0.40059632887E+03  0.12423404326E+04  0.99565193122E+03 0.  0.
    9000010    2    1    2  501    0 -0.39021146679E+03  0.48922855066E+03  0.14946082194E+03  0.11751623373E+04  0.98339128438E+03 0.  0.
        -13    1    4    4    0    0 -0.48838734936E+03  0.74408447042E+03  0.81826628153E+02  0.89380059878E+03  0.10566000000E+00 0.  1.
         13    1    3    3    0    0  0.32263185202E+03 -0.12088098769E+03  0.29419399928E+03  0.45304927492E+03  0.10566000000E+00 0. -1.
          4    1    4    4  501    0  0.98175882578E+02 -0.25485591976E+03  0.67634193785E+02  0.28136173856E+03  0.00000000000E+00 0.  1.
         -4    1    3    3    0  503  0.67579614763E+02 -0.36834756296E+03 -0.69479032816E+03  0.78929115767E+03  0.00000000000E+00 0. -1.
</event>
<event>
 8    1  0.7008488E-006  0.1560804E+04  0.7818608E-02  0.8377294E-01
         21   -1    0    0  503  502  0.00000000000E+00  0.00000000000E+00  0.24074647916E+04  0.24074647916E+04  0.00000000000E+00 0.  1.
         21   -1    0    0  501  503 -0.00000000000E+00 -0.00000000000E+00 -0.10029909064E+04  0.10029909064E+04  0.00000000000E+00 0. -1.
    9000010    2    1    2  501    0  0.61326186547E+03 -0.10136770646E+04  0.73308841095E+03  0.17243923023E+04  0.10161096826E+04 0.  0.
   -9000010    2    1    2    0  502 -0.61326186547E+03  0.10136770646E+04  0.67138547423E+03  0.16860633958E+04  0.99419314659E+03 0.  0.
        -13    1    3    3    0    0  0.72046374346E+03 -0.27880820791E+03  0.58026820491E+03  0.96618488046E+03  0.10566000000E+00 0.  1.
         13    1    4    4    0    0 -0.22404043339E+03  0.36428796640E+03  0.81038510104E+03  0.91630991559E+03  0.10566000000E+00 0. -1.
          4    1    3    3  501    0 -0.10720187799E+03 -0.73486885666E+03  0.15282020604E+03  0.75820742182E+03  0.00000000000E+00 0.  1.
         -4    1    4    4    0  502 -0.38922143208E+03  0.64938909817E+03 -0.13899962681E+03  0.76975348019E+03  0.00000000000E+00 0. -1.
</event>
<event>
 8    1  0.7008488E-006  0.1090825E+04  0.7818608E-02  0.8695972E-01
         21   -1    0    0  503  502  0.00000000000E+00  0.00000000000E+00  0.20582556512E+04  0.20582556512E+04  0.00000000000E+00 0. -1.
         21   -1    0    0  501  503 -0.00000000000E+00 -0.00000000000E+00 -0.57347569153E+03  0.57347569153E+03  0.00000000000E+00 0. -1.
    9000010    2    1    2  501    0  0.42103531540E+03 -0.42945517107E+02  0.68715711709E+03  0.12892183063E+04  0.10053774830E+04 0.  0.
   -9000010    2    1    2    0  502 -0.42103531540E+03  0.42945517107E+02  0.79762284261E+03  0.13425130365E+04  0.99349081518E+03 0.  0.
        -13    1    3    3    0    0  0.12184128443E+03 -0.37172067222E+03  0.74448918572E+03  0.84100280354E+03  0.10566000000E+00 0.  1.
         13    1    4    4    0    0  0.15971311193E+03  0.37542307714E+03  0.34869671377E+03  0.53669374352E+03  0.10566000000E+00 0. -1.
          4    1    3    3  501    0  0.29919403097E+03  0.32877515511E+03 -0.57332068634E+02  0.44821550272E+03  0.00000000000E+00 0.  1.
         -4    1    4    4    0  502 -0.58074842733E+03 -0.33247756004E+03  0.44892612884E+03  0.80581929297E+03  0.00000000000E+00 0. -1.
</event>
<event>
 8    1  0.7008488E-006  0.1063346E+04  0.7818608E-02  0.8720212E-01
         21   -1    0    0  501  502  0.00000000000E+00  0.00000000000E+00  0.92026096744E+03  0.92026096744E+03  0.00000000000E+00 0. -1.
         21   -1    0    0  502  503 -0.00000000000E+00 -0.00000000000E+00 -0.12178465254E+04  0.12178465254E+04  0.00000000000E+00 0. -1.
   -9000010    2    1    2    0  503  0.12186350608E+02 -0.31837617364E+03 -0.83155049237E+02  0.10665924672E+04  0.10144914163E+04 0.  0.
    9000010    2    1    2  501    0 -0.12186350608E+02  0.31837617364E+03 -0.21443050873E+03  0.10715150257E+04  0.10003260029E+04 0.  0.
        -13    1    4    4    0    0 -0.16930572571E+02 -0.32570235067E+03  0.11782314140E+03  0.34677221534E+03  0.10566000000E+00 0.  1.
         13    1    3    3    0    0  0.16829408487E+03  0.32804971984E+03  0.89765353828E+02  0.37946982436E+03  0.10566000000E+00 0. -1.
          4    1    4    4  501    0  0.47442219638E+01  0.64407852431E+03 -0.33225365013E+03  0.72474281034E+03  0.00000000000E+00 0.  1.
         -4    1    3    3    0  503 -0.15610773426E+03 -0.64642589348E+03 -0.17292040306E+03  0.68712264281E+03  0.00000000000E+00 0. -1.
</event>
<event>
 8    1  0.7008488E-006  0.1099900E+04  0.7818608E-02  0.8686861E-01
         21   -1    0    0  503  502  0.00000000000E+00  0.00000000000E+00  0.66605138158E+03  0.66605138158E+03  0.00000000000E+00 0. -1.
         21   -1    0    0  501  503 -0.00000000000E+00 -0.00000000000E+00 -0.18159388795E+04  0.18159388795E+04  0.00000000000E+00 0. -1.
    9000010    2    1    2  501    0  0.45592312034E+03  0.53187918739E+02 -0.64688735461E+03  0.12725319172E+04  0.99507757708E+03 0.  0.
   -9000010    2    1    2    0  502 -0.45592312034E+03 -0.53187918739E+02 -0.50300014331E+03  0.12094583439E+04  0.99954264293E+03 0.  0.
        -13    1    3    3    0    0  0.58076233783E+03  0.38494109397E+03 -0.24962413519E+03  0.74011942206E+03  0.10566000000E+00 0.  1.
         13    1    4    4    0    0 -0.10758896511E+03 -0.25152804002E+03  0.24084567746E+03  0.36448373331E+03  0.10566000000E+00 0. -1.
          4    1    3    3  501    0 -0.12483921749E+03 -0.33175317523E+03 -0.39726321941E+03  0.53241249515E+03  0.00000000000E+00 0.  1.
         -4    1    4    4    0  502 -0.34833415523E+03  0.19834012128E+03 -0.74384582078E+03  0.84497461056E+03  0.00000000000E+00 0. -1.
</event>
<event>
 8    1  0.7008488E-006  0.1079313E+04  0.7818608E-02  0.8703582E-01
         21   -1    0    0  501  502  0.00000000000E+00  0.00000000000E+00  0.89168449457E+03  0.89168449457E+03  0.00000000000E+00 0. -1.
         21   -1    0    0  502  503 -0.00000000000E+00 -0.00000000000E+00 -0.13350369766E+04  0.13350369766E+04  0.00000000000E+00 0. -1.
   -9000010    2    1    2    0  503 -0.30353719174E+03  0.30665908899E+03 -0.38682231534E+03  0.11459288599E+04  0.98860852951E+03 0.  0.
    9000010    2    1    2  501    0  0.30353719174E+03 -0.30665908899E+03 -0.56530166716E+02  0.10807926113E+04  0.98931409840E+03 0.  0.
        -13    1    4    4    0    0  0.49377116466E+03 -0.26138571601E+03  0.32910244148E+03  0.64841412982E+03  0.10566000000E+00 0.  1.
         13    1    3    3    0    0  0.15519359181E+03  0.52652500936E+03 -0.87928290450E+02  0.55591818808E+03  0.10566000000E+00 0. -1.
          4    1    4    4  501    0 -0.19023397292E+03 -0.45273372975E+02 -0.38563260820E+03  0.43237848150E+03  0.00000000000E+00 0.  1.
         -4    1    3    3    0  503 -0.45873078355E+03 -0.21986592037E+03 -0.29889402489E+03  0.59001067179E+03  0.00000000000E+00 0. -1.
</event>
<event>
 8    1  0.7008488E-006  0.1077988E+04  0.7818608E-02  0.8710089E-01
         21   -1    0    0  501  502  0.00000000000E+00  0.00000000000E+00  0.94567195957E+03  0.94567195957E+03  0.00000000000E+00 0.  1.
         21   -1    0    0  502  503 -0.00000000000E+00 -0.00000000000E+00 -0.12450333096E+04  0.12450333096E+04  0.00000000000E+00 0.  1.
   -9000010    2    1    2    0  503  0.25975853808E+03 -0.34354082291E+03  0.56744215989E+02  0.10794803405E+04  0.98821207460E+03 0.  0.
    9000010    2    1    2  501    0 -0.25975853808E+03  0.34354082291E+03 -0.35610556600E+03  0.11112249286E+04  0.96047637805E+03 0.  0.
        -13    1    4    4    0    0 -0.46849066402E+02 -0.30113149833E+03  0.65952680919E+02  0.31180888633E+03  0.10566000000E+00 0.  1.
         13    1    3    3    0    0  0.31917011956E+02 -0.33216729603E+03  0.48824642123E+03  0.59138683382E+03  0.10566000000E+00 0. -1.
          4    1    4    4  501    0 -0.21290947168E+03  0.64467232124E+03 -0.42205824692E+03  0.79941604231E+03  0.00000000000E+00 0.  1.
         -4    1    3    3    0  503  0.22784152612E+03 -0.11373526877E+02 -0.43150220524E+03  0.48809350669E+03  0.00000000000E+00 0. -1.
</event>
<event>
 8    1  0.7008488E-006  0.1162473E+04  0.7818608E-02  0.8651022E-01
         21   -1    0    0  501  502  0.00000000000E+00  0.00000000000E+00  0.10733391695E+04  0.10733391695E+04  0.00000000000E+00 0.  1.
         21   -1    0    0  502  503 -0.00000000000E+00 -0.00000000000E+00 -0.11769484015E+04  0.11769484015E+04  0.00000000000E+00 0.  1.
   -9000010    2    1    2    0  503  0.56738965799E+03  0.13407710459E+03 -0.38090412095E+02  0.10859699032E+04  0.91540813689E+03 0.  0.
    9000010    2    1    2  501    0 -0.56738965799E+03 -0.13407710459E+03 -0.65518819914E+02  0.11643176679E+04  0.10057013583E+04 0.  0.
        -13    1    4    4    0    0 -0.69056311618E+03 -0.21333591492E+03  0.29079692017E+03  0.77907155639E+03  0.10566000000E+00 0.  1.
         13    1    3    3    0    0  0.56696332474E+03 -0.27289270518E+03 -0.18083811077E+03  0.65469097566E+03  0.10566000000E+00 0. -1.
          4    1    4    4  501    0  0.12317345819E+03  0.79258810336E+02 -0.35631574009E+03  0.38524611154E+03  0.00000000000E+00 0.  1.
         -4    1    3    3    0  503  0.42633324704E+00  0.40696980977E+03  0.14274769867E+03  0.43127892749E+03  0.00000000000E+00 0. -1.
</event>
<event>
 8    1  0.7008488E-006  0.1160488E+04  0.7818608E-02  0.8642231E-01
         21   -1    0    0  503  502  0.00000000000E+00  0.00000000000E+00  0.24744953315E+04  0.24744953315E+04  0.00000000000E+00 0. -1.
         21   -1    0    0  501  503 -0.00000000000E+00 -0.00000000000E+00 -0.60351811290E+03  0.60351811290E+03  0.00000000000E+00 0. -1.
    9000010    2    1    2  501    0  0.31452188386E+03 -0.44345196673E+03  0.41451887273E+03  0.12322984337E+04  0.10252608798E+04 0.  0.
   -9000010    2    1    2    0  502 -0.31452188386E+03  0.44345196673E+03  0.14564583459E+04  0.18457150107E+04  0.99489664040E+03 0.  0.
        -13    1    3    3    0    0 -0.17022823174E+03 -0.24527581236E+03  0.60530681208E+03  0.67493275438E+03  0.10566000000E+00 0.  1.
         13    1    4    4    0    0  0.19434335198E+03  0.53038758059E+03  0.10357041564E+04  0.11797302382E+04  0.10566000000E+00 0. -1.
          4    1    3    3  501    0  0.48475011560E+03 -0.19817615437E+03 -0.19078793935E+03  0.55736567937E+03  0.00000000000E+00 0.  1.
         -4    1    4    4    0  502 -0.50886523585E+03 -0.86935613865E+02  0.42075418943E+03  0.66598477245E+03  0.00000000000E+00 0. -1.
</event>
<event>
 8    1  0.7008488E-006  0.1227050E+04  0.7818608E-02  0.8600899E-01
         21   -1    0    0  503  502  0.00000000000E+00  0.00000000000E+00  0.11961566947E+04  0.11961566947E+04  0.00000000000E+00 0. -1.
         21   -1    0    0  501  503 -0.00000000000E+00 -0.00000000000E+00 -0.13096420390E+04  0.13096420390E+04  0.00000000000E+00 0. -1.
    9000010    2    1    2  501    0 -0.28423200667E+03 -0.50720689071E+03 -0.44633457070E+03  0.12344060910E+04  0.99322564648E+03 0.  0.
   -9000010    2    1    2    0  502  0.28423200667E+03  0.50720689071E+03  0.33284922644E+03  0.12713926427E+04  0.10805572547E+04 0.  0.
        -13    1    3    3    0    0  0.31234402863E+03 -0.42878367705E+03 -0.32016242085E+03  0.61961134658E+03  0.10566000000E+00 0.  1.
         13    1    4    4    0    0  0.56222845000E+03 -0.82007360048E+02  0.22459595653E+03  0.61095776609E+03  0.10566000000E+00 0. -1.
          4    1    3    3  501    0 -0.59657603530E+03 -0.78423213665E+02 -0.12617214986E+03  0.61479474440E+03  0.00000000000E+00 0.  1.
         -4    1    4    4    0  502 -0.27799644332E+03  0.58921425076E+03  0.10825326990E+03  0.66043487661E+03  0.00000000000E+00 0. -1.
</event>
<event>
 8    1  0.8073631E-006  0.1074079E+04  0.7818608E-02  0.8746091E-01
         21   -1    0    0  501  502  0.00000000000E+00  0.00000000000E+00  0.77616438847E+03  0.77616438847E+03  0.00000000000E+00 0. -1.
         21   -1    0    0  502  503 -0.00000000000E+00 -0.00000000000E+00 -0.12902897642E+04  0.12902897642E+04  0.00000000000E+00 0. -1.
   -9000010    2    1    2    0  503  0.93150735112E+02 -0.40572890638E+03 -0.40735996995E+03  0.11487330069E+04  0.99012745194E+03 0.  0.
    9000010    2    1    2  501    0 -0.93150735112E+02  0.40572890638E+03 -0.10676540582E+03  0.91772114581E+03  0.81087622031E+03 0.  0.
        -13    1    4    4    0    0  0.10522426036E+03  0.60457670628E+03 -0.15449818788E+03  0.63281501244E+03  0.10566000000E+00 0.  1.
         13    1    3    3    0    0  0.21955292912E+03  0.24459944957E+03 -0.35556988302E+03  0.48421310628E+03  0.10566000000E+00 0. -1.
          4    1    4    4  501    0 -0.19837499547E+03 -0.19884779989E+03  0.47732782067E+02  0.28490613337E+03  0.00000000000E+00 0.  1.
         -4    1    3    3    0  503 -0.12640219400E+03 -0.65032835596E+03 -0.51790086930E+02  0.66451990062E+03  0.00000000000E+00 0. -1.
</event>
<event>
 8    1  0.7008488E-006  0.1041001E+04  0.7818608E-02  0.8751085E-01
         21   -1    0    0  501  502  0.00000000000E+00  0.00000000000E+00  0.73422362002E+03  0.73422362002E+03  0.00000000000E+00 0. -1.
         21   -1    0    0  502  503 -0.00000000000E+00 -0.00000000000E+00 -0.13969885772E+04  0.13969885772E+04  0.00000000000E+00 0. -1.
   -9000010    2    1    2    0  503 -0.42681329665E+02  0.25775467704E+03 -0.41267576494E+03  0.11198140055E+04  0.10076819689E+04 0.  0.
    9000010    2    1    2  501    0  0.42681329665E+02 -0.25775467704E+03 -0.25008919223E+03  0.10113981917E+04  0.94452238123E+03 0.  0.
        -13    1    4    4    0    0  0.33988048661E+03 -0.49448671016E+03 -0.15384636164E+03  0.61943891213E+03  0.10566000000E+00 0.  1.
         13    1    3    3    0    0  0.23335989679E+02 -0.12294439413E+03 -0.65293942481E+03  0.66482313144E+03  0.10566000000E+00 0. -1.
          4    1    4    4  501    0 -0.29719915695E+03  0.23673203312E+03 -0.96242830593E+02  0.39195927956E+03  0.00000000000E+00 0.  1.
         -4    1    3    3    0  503 -0.66017319344E+02  0.38069907117E+03  0.24026365987E+03  0.45499087408E+03  0.00000000000E+00 0. -1.
</event>
<event>
 8    1  0.7008488E-006  0.1046270E+04  0.7818608E-02  0.8733305E-01
         21   -1    0    0  501  502  0.00000000000E+00  0.00000000000E+00  0.57912883008E+03  0.57912883008E+03  0.00000000000E+00 0.  1.
         21   -1    0    0  502  503 -0.00000000000E+00 -0.00000000000E+00 -0.18957713410E+04  0.18957713410E+04  0.00000000000E+00 0.  1.
   -9000010    2    1    2    0  503 -0.27807450878E+03  0.11667965037E+02 -0.55432379118E+03  0.11840420820E+04  0.10085728594E+04 0.  0.
    9000010    2    1    2  501    0  0.27807450878E+03 -0.11667965037E+02 -0.76231871977E+03  0.12908580891E+04  0.10038541736E+04 0.  0.
        -13    1    4    4    0    0  0.26828967769E+03 -0.27572372677E+03  0.92882952047E+02  0.39576530748E+03  0.10566000000E+00 0.  1.
         13    1    3    3    0    0  0.76247408046E+02  0.37170915745E+03  0.64848320872E+02  0.38495023165E+03  0.10566000000E+00 0. -1.
          4    1    4    4  501    0  0.97848310893E+01  0.26405576174E+03 -0.85520167182E+03  0.89509278162E+03  0.00000000000E+00 0.  1.
         -4    1    3    3    0  503 -0.35432191683E+03 -0.36004119241E+03 -0.61917211205E+03  0.79909185037E+03  0.00000000000E+00 0. -1.
</event>
<event>
 8    1  0.7008488E-006  0.1177930E+04  0.7818608E-02  0.8626960E-01
         21   -1    0    0  501  502  0.00000000000E+00  0.00000000000E+00  0.10450601908E+04  0.10450601908E+04  0.00000000000E+00 0.  1.
         21   -1    0    0  502  503 -0.00000000000E+00 -0.00000000000E+00 -0.16039272977E+04  0.16039272977E+04  0.00000000000E+00 0. -1.
   -9000010    2    1    2    0  503 -0.56233382019E+03 -0.15735035962E+01 -0.85116588424E+03  0.14532729046E+04  0.10350347683E+04 0.  0.
    9000010    2    1    2  501    0  0.56233382019E+03  0.15735035962E+01  0.29229877742E+03  0.11957145839E+04  0.10139393421E+04 0.  0.
        -13    1    4    4    0    0  0.83604729511E+03  0.14689058953E+03  0.19582587647E+03  0.87114850055E+03  0.10566000000E+00 0.  1.
         13    1    3    3    0    0  0.30649996628E+03  0.33860155669E+02 -0.22535208279E+03  0.38193233937E+03  0.10566000000E+00 0. -1.
          4    1    4    4  501    0 -0.27371347492E+03 -0.14531708594E+03  0.96472900943E+02  0.32456608331E+03  0.00000000000E+00 0.  1.
         -4    1    3    3    0  503 -0.86883378647E+03 -0.35433659265E+02 -0.62581380145E+03  0.10713405653E+04  0.00000000000E+00 0. -1.
</event>
<event>
 8    1  0.7008488E-006  0.1246441E+04  0.7818608E-02  0.8577954E-01
         21   -1    0    0  501  502  0.00000000000E+00  0.00000000000E+00  0.15674616140E+04  0.15674616140E+04  0.00000000000E+00 0. -1.
         21   -1    0    0  502  503 -0.00000000000E+00 -0.00000000000E+00 -0.99592783074E+03  0.99592783074E+03  0.00000000000E+00 0. -1.
   -9000010    2    1    2    0  503 -0.67833745851E+03  0.22869987706E+03  0.70864150411E+02  0.12484538234E+04  0.10203773224E+04 0.  0.
    9000010    2    1    2  501    0  0.67833745851E+03 -0.22869987706E+03  0.50066963286E+03  0.13149356213E+04  0.98282260127E+03 0.  0.
        -13    1    4    4    0    0  0.67348315496E+03 -0.35414746008E+03 -0.37962319300E+02  0.76186687312E+03  0.10566000000E+00 0.  1.
         13    1    3    3    0    0 -0.23179646215E+03  0.61016087054E+03  0.10058160702E+03  0.66041090136E+03  0.10566000000E+00 0. -1.
          4    1    4    4  501    0  0.48543035433E+01  0.12544758302E+03  0.53863195216E+03  0.55306874820E+03  0.00000000000E+00 0.  1.
         -4    1    3    3    0  503 -0.44654099635E+03 -0.38146099348E+03 -0.29717456606E+02  0.58804292207E+03  0.00000000000E+00 0. -1.
</event>
<event>
 8    1  0.7008488E-006  0.1078171E+04  0.7818608E-02  0.8705800E-01
         21   -1    0    0  503  502  0.00000000000E+00  0.00000000000E+00  0.15128969866E+04  0.15128969866E+04  0.00000000000E+00 0.  1.
         21   -1    0    0  501  503 -0.00000000000E+00 -0.00000000000E+00 -0.78929433143E+03  0.78929433143E+03  0.00000000000E+00 0.  1.
    9000010    2    1    2  501    0  0.18542742453E+03  0.35321146209E+03  0.56761307401E+03  0.12127941786E+04  0.99475798619E+03 0.  0.
   -9000010    2    1    2    0  502 -0.18542742453E+03 -0.35321146209E+03  0.15598958112E+03  0.10893971394E+04  0.10016544869E+04 0.  0.
        -13    1    3    3    0    0  0.32862416626E+03  0.16467470444E+03  0.80040037619E+03  0.88076805931E+03  0.10566000000E+00 0.  1.
         13    1    4    4    0    0  0.28825424676E+03 -0.47664758353E+03 -0.47995186019E+02  0.55909478508E+03  0.10566000000E+00 0. -1.
          4    1    3    3  501    0 -0.14319674173E+03  0.18853675765E+03 -0.23278730217E+03  0.33202611927E+03  0.00000000000E+00 0.  1.
         -4    1    4    4    0  502 -0.47368167129E+03  0.12343612144E+03  0.20398476713E+03  0.53030235433E+03  0.00000000000E+00 0. -1.
</event>
<event>
 8    1  0.7008488E-006  0.1109128E+04  0.7818608E-02  0.8679077E-01
         21   -1    0    0  503  502  0.00000000000E+00  0.00000000000E+00  0.11192782112E+04  0.11192782112E+04  0.00000000000E+00 0. -1.
         21   -1    0    0  501  503 -0.00000000000E+00 -0.00000000000E+00 -0.11729688412E+04  0.11729688412E+04  0.00000000000E+00 0. -1.
    9000010    2    1    2  501    0  0.39466586042E+02 -0.44178228209E+03 -0.32139177317E+03  0.11512699016E+04  0.10126206192E+04 0.  0.
   -9000010    2    1    2    0  502 -0.39466586042E+02  0.44178228209E+03  0.26770114323E+03  0.11409771507E+04  0.10165804249E+04 0.  0.
        -13    1    3    3    0    0  0.14215714005E+03 -0.75792618076E+03 -0.19296262257E+03  0.79491844413E+03  0.10566000000E+00 0.  1.
         13    1    4    4    0    0 -0.13964690680E+03  0.59883211674E+02  0.60370680765E+03  0.62253447968E+03  0.10566000000E+00 0. -1.
          4    1    3    3  501    0 -0.10269055401E+03  0.31614389867E+03 -0.12842915060E+03  0.35635145751E+03  0.00000000000E+00 0.  1.
         -4    1    4    4    0  502  0.10018032076E+03  0.38189907042E+03 -0.33600566443E+03  0.51844267106E+03  0.00000000000E+00 0. -1.
</event>
<event>
 8    1  0.7008488E-006  0.1486840E+04  0.7818608E-02  0.8419621E-01
         21   -1    0    0  503  502  0.00000000000E+00  0.00000000000E+00  0.24873628121E+04  0.24873628121E+04  0.00000000000E+00 0. -1.
         21   -1    0    0  501  503 -0.00000000000E+00 -0.00000000000E+00 -0.12165805277E+04  0.12165805277E+04  0.00000000000E+00 0.  1.
    9000010    2    1    2  501    0  0.36858918300E+03 -0.10319271015E+04 -0.34345595652E+03  0.15093001663E+04  0.97943528088E+03 0.  0.
   -9000010    2    1    2    0  502 -0.36858918300E+03  0.10319271015E+04  0.16142382410E+04  0.21946431735E+04  0.10049686721E+04 0.  0.
        -13    1    3    3    0    0  0.11153494822E+03 -0.11015649805E+04 -0.43322820797E+02  0.11080443714E+04  0.10566000000E+00 0.  1.
         13    1    4    4    0    0  0.15639098273E+03  0.93668235602E+03  0.95875452437E+03  0.13494599752E+04  0.10566000000E+00 0. -1.
          4    1    3    3  501    0  0.25705423478E+03  0.69637879052E+02 -0.30013313572E+03  0.40125579494E+03  0.00000000000E+00 0.  1.
         -4    1    4    4    0  502 -0.52498016572E+03  0.95244745458E+02  0.65548371661E+03  0.84518319829E+03  0.00000000000E+00 0. -1.
</event>
<event>
 8    1  0.7008488E-006  0.1185063E+04  0.7818608E-02  0.8623261E-01
         21   -1    0    0  503  502  0.00000000000E+00  0.00000000000E+00  0.13108316494E+04  0.13108316494E+04  0.00000000000E+00 0. -1.
         21   -1    0    0  501  503 -0.00000000000E+00 -0.00000000000E+00 -0.11519051956E+04  0.11519051956E+04  0.00000000000E+00 0. -1.
    9000010    2    1    2  501    0 -0.47655002272E+03 -0.33562512438E+03 -0.29224010725E+03  0.12205649394E+04  0.10318092569E+04 0.  0.
   -9000010    2    1    2    0  502  0.47655002272E+03  0.33562512438E+03  0.45116656113E+03  0.12421719056E+04  0.99984780290E+03 0.  0.
        -13    1    3    3    0    0 -0.56695677727E+03  0.50791976631E+02 -0.51313913273E+03  0.76637562128E+03  0.10566000000E+00 0.  1.
         13    1    4    4    0    0  0.10056034291E+03  0.61732472143E+02  0.70325399956E+03  0.71308448289E+03  0.10566000000E+00 0. -1.
          4    1    3    3  501    0  0.90406754547E+02 -0.38641710101E+03  0.22089902549E+03  0.45418931810E+03  0.00000000000E+00 0.  1.
         -4    1    4    4    0  502  0.37598967981E+03  0.27389265223E+03 -0.25208743843E+03  0.52908742273E+03  0.00000000000E+00 0. -1.
</event>
<event>
 8    1  0.7008488E-006  0.1588933E+04  0.7818608E-02  0.8361455E-01
         21   -1    0    0  503  502  0.00000000000E+00  0.00000000000E+00  0.16615741189E+04  0.16615741189E+04  0.00000000000E+00 0.  1.
         21   -1    0    0  501  503 -0.00000000000E+00 -0.00000000000E+00 -0.17653088766E+04  0.17653088766E+04  0.00000000000E+00 0. -1.
    9000010    2    1    2  501    0  0.69630490166E+03 -0.10233933679E+04  0.59996108809E+03  0.16984288308E+04  0.99625934594E+03 0.  0.
   -9000010    2    1    2    0  502 -0.69630490166E+03  0.10233933679E+04 -0.70369584579E+03  0.17284541647E+04  0.97989359335E+03 0.  0.
        -13    1    3    3    0    0  0.12459478994E+03 -0.10086483657E+04  0.40835102155E+03  0.10952835046E+04  0.10566000000E+00 0.  1.
         13    1    4    4    0    0  0.18408723583E+03  0.26626426057E+03 -0.42510955216E+03  0.53432472276E+03  0.10566000000E+00 0. -1.
          4    1    3    3  501    0  0.57171011173E+03 -0.14745002193E+02  0.19161006653E+03  0.60314532622E+03  0.00000000000E+00 0.  1.
         -4    1    4    4    0  502 -0.88039213749E+03  0.75712910737E+03 -0.27858629363E+03  0.11941294419E+04  0.00000000000E+00 0. -1.
</event>
<event>
 8    1  0.7008488E-006  0.1114991E+04  0.7818608E-02  0.8677915E-01
         21   -1    0    0  501  502  0.00000000000E+00  0.00000000000E+00  0.84969657759E+03  0.84969657759E+03  0.00000000000E+00 0.  1.
         21   -1    0    0  502  503 -0.00000000000E+00 -0.00000000000E+00 -0.16527396767E+04  0.16527396767E+04  0.00000000000E+00 0.  1.
   -9000010    2    1    2    0  503  0.39643968063E+03 -0.18531602369E+03 -0.85200335745E+03  0.13863705657E+04  0.10023009405E+04 0.  0.
    9000010    2    1    2  501    0 -0.39643968063E+03  0.18531602369E+03  0.48960258311E+02  0.11160656886E+04  0.10255238005E+04 0.  0.
        -13    1    4    4    0    0 -0.40040164265E+03  0.34806054788E+03  0.44207433765E+03  0.69057754930E+03  0.10566000000E+00 0.  1.
         13    1    3    3    0    0  0.36008648961E+03 -0.56297514724E+03 -0.72561363397E+03  0.98646766463E+03  0.10566000000E+00 0. -1.
          4    1    4    4  501    0  0.39619620163E+01 -0.16274452420E+03 -0.39311407934E+03  0.42548813929E+03  0.00000000000E+00 0.  1.
         -4    1    3    3    0  503  0.36353191029E+02  0.37765912356E+03 -0.12638972349E+03  0.39990290110E+03  0.00000000000E+00 0. -1.
</event>
<event>
 8    1  0.7008488E-006  0.1019530E+04  0.7818608E-02  0.8757901E-01
         21   -1    0    0  503  502  0.00000000000E+00  0.00000000000E+00  0.13084007237E+04  0.13084007237E+04  0.00000000000E+00 0. -1.
         21   -1    0    0  501  503 -0.00000000000E+00 -0.00000000000E+00 -0.79948001439E+03  0.79948001439E+03  0.00000000000E+00 0. -1.
    9000010    2    1    2  501    0 -0.22817243593E+02  0.12635233463E+03  0.13621905286E+03  0.10223635477E+04  0.10050801233E+04 0.  0.
   -9000010    2    1    2    0  502  0.22817243593E+02 -0.12635233463E+03  0.37270165649E+03  0.10855171905E+04  0.10114126294E+04 0.  0.
        -13    1    3    3    0    0 -0.50103889600E+03 -0.39749613337E+02  0.11538844105E+03  0.51568838513E+03  0.10566000000E+00 0.  1.
         13    1    4    4    0    0  0.46760208091E+03 -0.27642425140E+03  0.26268007998E+03  0.60337625775E+03  0.10566000000E+00 0. -1.
          4    1    3    3  501    0  0.47822165240E+03  0.16610194797E+03  0.20830611814E+02  0.50667516254E+03  0.00000000000E+00 0.  1.
         -4    1    4    4    0  502 -0.44478483732E+03  0.15007191676E+03  0.11002157651E+03  0.48214093272E+03  0.00000000000E+00 0. -1.
</event>
<event>
 8    1  0.7008488E-006  0.1361827E+04  0.7818608E-02  0.8494493E-01
         21   -1    0    0  501  502  0.00000000000E+00  0.00000000000E+00  0.90844328214E+03  0.90844328214E+03  0.00000000000E+00 0. -1.
         21   -1    0    0  502  503 -0.00000000000E+00 -0.00000000000E+00 -0.20382270132E+04  0.20382270132E+04  0.00000000000E+00 0.  1.
   -9000010    2    1    2    0  503 -0.54173760466E+03 -0.75195558549E+03 -0.62821583952E+03  0.14997424163E+04  0.99782530503E+03 0.  0.
    9000010    2    1    2  501    0  0.54173760466E+03  0.75195558549E+03 -0.50156789155E+03  0.14469278790E+04  0.99152060112E+03 0.  0.
        -13    1    4    4    0    0 -0.25473845515E+03  0.17791421448E+03 -0.32456110478E+03  0.44931622511E+03  0.10566000000E+00 0.  1.
         13    1    3    3    0    0  0.23331745452E+03 -0.46286046882E+03 -0.35627244922E+03  0.62897290674E+03  0.10566000000E+00 0. -1.
          4    1    4    4  501    0  0.79647605982E+03  0.57404137102E+03 -0.17700678677E+03  0.99761165393E+03  0.00000000000E+00 0.  1.
         -4    1    3    3    0  503 -0.77505505918E+03 -0.28909511667E+03 -0.27194339030E+03  0.87076950956E+03  0.00000000000E+00 0. -1.
</event>
<event>
 8    1  0.7008488E-006  0.1078749E+04  0.7818608E-02  0.8709345E-01
         21   -1    0    0  503  502  0.00000000000E+00  0.00000000000E+00  0.10753417750E+04  0.10753417750E+04  0.00000000000E+00 0.  1.
         21   -1    0    0  501  503 -0.00000000000E+00 -0.00000000000E+00 -0.13456912571E+04  0.13456912571E+04  0.00000000000E+00 0.  1.
    9000010    2    1    2  501    0 -0.68915003538E+02 -0.34954258868E+03  0.42646413965E+03  0.11368023361E+04  0.99172505769E+03 0.  0.
   -9000010    2    1    2    0  502  0.68915003538E+02  0.34954258868E+03 -0.69681362180E+03  0.12842306959E+04  0.10182190127E+04 0.  0.
        -13    1    3    3    0    0  0.27276337148E+03 -0.29159729477E+03 -0.18025077660E+03  0.43808582808E+03  0.10566000000E+00 0.  1.
         13    1    4    4    0    0  0.84293947963E+02 -0.30342581009E+03  0.18654718555E+02  0.31546901841E+03  0.10566000000E+00 0. -1.
          4    1    3    3  501    0 -0.34167837501E+03 -0.57945293912E+02  0.60671491625E+03  0.69871650807E+03  0.00000000000E+00 0.  1.
         -4    1    4    4    0  502 -0.15378944425E+02  0.65296839877E+03 -0.71546834035E+03  0.96876167749E+03  0.00000000000E+00 0. -1.
</event>
<event>
 8    1  0.7008488E-006  0.1031661E+04  0.7818608E-02  0.8754404E-01
         21   -1    0    0  503  502  0.00000000000E+00  0.00000000000E+00  0.40739616248E+03  0.40739616248E+03  0.00000000000E+00 0.  1.
         21   -1    0    0  501  503 -0.00000000000E+00 -0.00000000000E+00 -0.25340958460E+04  0.25340958460E+04  0.00000000000E+00 0.  1.
    9000010    2    1    2  501    0 -0.74095208636E+02 -0.26600259724E+03 -0.12124787092E+04  0.15919890859E+04  0.99402069774E+03 0.  0.
   -9000010    2    1    2    0  502  0.74095208636E+02  0.26600259724E+03 -0.91422097433E+03  0.13495029226E+04  0.95347295014E+03 0.  0.
        -13    1    3    3    0    0 -0.21206132634E+03 -0.53824667091E+03 -0.11398554341E+04  0.12782605003E+04  0.10566000000E+00 0.  1.
         13    1    4    4    0    0  0.47630135850E+03  0.30384922738E+03 -0.67410366293E+03  0.87954709745E+03  0.10566000000E+00 0. -1.
          4    1    3    3  501    0  0.13796611770E+03  0.27224407367E+03 -0.72623275070E+02  0.31372858551E+03  0.00000000000E+00 0.  1.
         -4    1    4    4    0  502 -0.40220614987E+03 -0.37846630140E+02 -0.24011731140E+03  0.46995582520E+03  0.00000000000E+00 0. -1.
</event>
<event>
 8    1  0.7008488E-006  0.1280495E+04  0.7818608E-02  0.8555689E-01
         21   -1    0    0  503  502  0.00000000000E+00  0.00000000000E+00  0.14142855699E+04  0.14142855699E+04  0.00000000000E+00 0.  1.
         21   -1    0    0  501  503 -0.00000000000E+00 -0.00000000000E+00 -0.12467385336E+04  0.12467385336E+04  0.00000000000E+00 0. -1.
    9000010    2    1    2  501    0 -0.75970701890E+03 -0.12917228859E+03 -0.33601850580E+03  0.13238491810E+04  0.10226573147E+04 0.  0.
   -9000010    2    1    2    0  502  0.75970701890E+03  0.12917228859E+03  0.50356554210E+03  0.13371749224E+04  0.96985477435E+03 0.  0.
        -13    1    3    3    0    0 -0.69515701864E+03  0.36253293401E+03 -0.18671804161E+03  0.80593861244E+03  0.10566000000E+00 0.  1.
         13    1    4    4    0    0 -0.58477978202E+02 -0.30507553333E+03  0.95381450678E+02  0.32494366784E+03  0.10566000000E+00 0. -1.
          4    1    3    3  501    0 -0.64550000258E+02 -0.49170522260E+03 -0.14930046420E+03  0.51791056860E+03  0.00000000000E+00 0.  1.
         -4    1    4    4    0  502  0.81818499710E+03  0.43424782191E+03  0.40818409142E+03  0.10122312546E+04  0.00000000000E+00 0. -1.
</event>
<event>
 8    1  0.7008488E-006  0.1258800E+04  0.7818608E-02  0.8567845E-01
         21   -1    0    0  501  502  0.00000000000E+00  0.00000000000E+00  0.10618744065E+04  0.10618744065E+04  0.00000000000E+00 0.  1.
         21   -1    0    0  502  503 -0.00000000000E+00 -0.00000000000E+00 -0.14644152452E+04  0.14644152452E+04  0.00000000000E+00 0. -1.
   -9000010    2    1    2    0  503 -0.31615662575E+03 -0.65458451651E+03 -0.18263471700E+03  0.12719798407E+04  0.10276873912E+04 0.  0.
    9000010    2    1    2  501    0  0.31615662575E+03  0.65458451651E+03 -0.21990612177E+03  0.12543098110E+04  0.99824771395E+03 0.  0.
        -13    1    4    4    0    0  0.27879065858E+02  0.22113012785E+03  0.39199997560E+03  0.45093210996E+03  0.10566000000E+00 0.  1.
         13    1    3    3    0    0 -0.94360912519E+02 -0.36343060957E+03  0.42220637880E+03  0.56501683802E+03  0.10566000000E+00 0. -1.
          4    1    4    4  501    0  0.28827755989E+03  0.43345438866E+03 -0.61190609737E+03  0.80337770107E+03  0.00000000000E+00 0.  1.
         -4    1    3    3    0  503 -0.22179571323E+03 -0.29115390694E+03 -0.60484109580E+03  0.70696300264E+03  0.00000000000E+00 0. -1.
</event>
<event>
 8    1  0.7008488E-006  0.1244658E+04  0.7818608E-02  0.8574565E-01
         21   -1    0    0  501  502  0.00000000000E+00  0.00000000000E+00  0.10032781130E+04  0.10032781130E+04  0.00000000000E+00 0. -1.
         21   -1    0    0  502  503 -0.00000000000E+00 -0.00000000000E+00 -0.15401064638E+04  0.15401064638E+04  0.00000000000E+00 0. -1.
   -9000010    2    1    2    0  503  0.70787909695E+03  0.20192989088E+03 -0.22164971790E+03  0.12642398379E+04  0.10036459902E+04 0.  0.
    9000010    2    1    2  501    0 -0.70787909695E+03 -0.20192989088E+03 -0.31517863296E+03  0.12791447389E+04  0.99749947156E+03 0.  0.
        -13    1    4    4    0    0 -0.20733813917E+03 -0.25250048267E+03  0.32774791979E+03  0.46277889731E+03  0.10566000000E+00 0.  1.
         13    1    3    3    0    0  0.68686574526E+03 -0.10541561065E+02 -0.54491632967E+03  0.87682922740E+03  0.10566000000E+00 0. -1.
          4    1    4    4  501    0 -0.50054095778E+03  0.50570591794E+02 -0.64292655274E+03  0.81636584164E+03  0.00000000000E+00 0.  1.
         -4    1    3    3    0  503  0.21013351687E+02  0.21247145194E+03  0.32326661177E+03  0.38741061050E+03  0.00000000000E+00 0. -1.
</event>
<event>
 8    1  0.7008488E-006  0.1034153E+04  0.7818608E-02  0.8745948E-01
         21   -1    0    0  503  502  0.00000000000E+00  0.00000000000E+00  0.48882922526E+03  0.48882922526E+03  0.00000000000E+00 0. -1.
         21   -1    0    0  501  503 -0.00000000000E+00 -0.00000000000E+00 -0.22112112012E+04  0.22112112012E+04  0.00000000000E+00 0. -1.
    9000010    2    1    2  501    0 -0.20946636817E+03  0.12131125325E+03 -0.10579442429E+04  0.14708334752E+04  0.99272982780E+03 0.  0.
   -9000010    2    1    2    0  502  0.20946636817E+03 -0.12131125325E+03 -0.66443773305E+03  0.12292069513E+04  0.10054251084E+04 0.  0.
        -13    1    3    3    0    0 -0.55868432448E+03  0.81822787715E+02 -0.94652833904E+03  0.11021520089E+04  0.10566000000E+00 0.  1.
         13    1    4    4    0    0  0.15979567574E+03 -0.19469699529E+03  0.22357132273E+03  0.33678735943E+03  0.10566000000E+00 0. -1.
          4    1    3    3  501    0  0.34921795631E+03  0.39488465534E+02 -0.11141590388E+03  0.36868146625E+03  0.00000000000E+00 0.  1.
         -4    1    4    4    0  502  0.49670692425E+02  0.73385742041E+02 -0.88800905579E+03  0.89241959189E+03  0.00000000000E+00 0. -1.
</event>
<event>
 8    1  0.7008488E-006  0.1325511E+04  0.7818608E-02  0.8524548E-01
         21   -1    0    0  501  502  0.00000000000E+00  0.00000000000E+00  0.12401745240E+04  0.12401745240E+04  0.00000000000E+00 0.  1.
         21   -1    0    0  502  503 -0.00000000000E+00 -0.00000000000E+00 -0.13734996518E+04  0.13734996518E+04  0.00000000000E+00 0. -1.
   -9000010    2    1    2    0  503  0.10917964174E+03 -0.81883187299E+03 -0.50790415278E+02  0.12855957690E+04  0.98375351825E+03 0.  0.
    9000010    2    1    2  501    0 -0.10917964174E+03  0.81883187299E+03 -0.82534712496E+02  0.13280784068E+04  0.10366168268E+04 0.  0.
        -13    1    4    4    0    0  0.23544873316E+03  0.78623619836E+03 -0.34837764294E+03  0.89161115898E+03  0.10566000000E+00 0.  1.
         13    1    3    3    0    0 -0.37111046751E+03 -0.81793797308E+02  0.10022076373E+03  0.39301070853E+03  0.10566000000E+00 0. -1.
          4    1    4    4  501    0 -0.34462837490E+03  0.32595674629E+02  0.26584293044E+03  0.43646724786E+03  0.00000000000E+00 0.  1.
         -4    1    3    3    0  503  0.48029010925E+03 -0.73703807568E+03 -0.15101117900E+03  0.89258506050E+03  0.00000000000E+00 0. -1.
</event>
<event>
 8    1  0.7008488E-006  0.1237773E+04  0.7818608E-02  0.8590502E-01
         21   -1    0    0  501  502  0.00000000000E+00  0.00000000000E+00  0.57824767518E+03  0.57824767518E+03  0.00000000000E+00 0.  1.
         21   -1    0    0  502  503 -0.00000000000E+00 -0.00000000000E+00 -0.25199070815E+04  0.25199070815E+04  0.00000000000E+00 0.  1.
   -9000010    2    1    2    0  503 -0.47329985427E+03  0.36785262690E+03 -0.10636161696E+04  0.16319807258E+04  0.10829374063E+04 0.  0.
    9000010    2    1    2  501    0  0.47329985427E+03 -0.36785262690E+03 -0.87804323673E+03  0.14661740309E+04  0.10096425388E+04 0.  0.
        -13    1    4    4    0    0  0.76165525076E+03 -0.43384464415E+03 -0.69130962997E+03  0.11163551907E+04  0.10566000000E+00 0.  1.
         13    1    3    3    0    0 -0.20436822237E+03 -0.37557836995E+03 -0.51664411023E+03  0.67063151588E+03  0.10566000000E+00 0. -1.
          4    1    4    4  501    0 -0.28835539649E+03  0.65992017248E+02 -0.18673360677E+03  0.34981884014E+03  0.00000000000E+00 0.  1.
         -4    1    3    3    0  503 -0.26893163190E+03  0.74343099685E+03 -0.54697205940E+03  0.96134920996E+03  0.00000000000E+00 0. -1.
</event>
<event>
 8    1  0.7008488E-006  0.9967498E+03  0.7818608E-02  0.8778147E-01
         21   -1    0    0  501  502  0.00000000000E+00  0.00000000000E+00  0.80736598785E+03  0.80736598785E+03  0.00000000000E+00 0. -1.
         21   -1    0    0  502  503 -0.00000000000E+00 -0.00000000000E+00 -0.12369126678E+04  0.12369126678E+04  0.00000000000E+00 0. -1.
   -9000010    2    1    2    0  503  0.98175063296E+02 -0.12117629382E+03 -0.12805698304E+03  0.10049422142E+04  0.98447357794E+03 0.  0.
    9000010    2    1    2  501    0 -0.98175063296E+02  0.12117629382E+03 -0.30148969695E+03  0.10393364415E+04  0.98234523670E+03 0.  0.
        -13    1    4    4    0    0  0.33609210994E+03  0.35633748912E+03 -0.22709519708E+03  0.53991346734E+03  0.10566000000E+00 0.  1.
         13    1    3    3    0    0 -0.10718341046E+03 -0.21632482409E+03  0.37917312787E+03  0.44950749166E+03  0.10566000000E+00 0. -1.
          4    1    4    4  501    0 -0.43426717324E+03 -0.23516119530E+03 -0.74394499867E+02  0.49942297418E+03  0.00000000000E+00 0.  1.
         -4    1    3    3    0  503  0.20535847376E+03  0.95148530269E+02 -0.50723011090E+03  0.55543472250E+03  0.00000000000E+00 0. -1.
</event>
<event>
 8    1  0.7008488E-006  0.1068901E+04  0.7818608E-02  0.8712854E-01
         21   -1    0    0  501  502  0.00000000000E+00  0.00000000000E+00  0.18951326552E+04  0.18951326552E+04  0.00000000000E+00 0. -1.
         21   -1    0    0  502  503 -0.00000000000E+00 -0.00000000000E+00 -0.61629658468E+03  0.61629658468E+03  0.00000000000E+00 0. -1.
   -9000010    2    1    2    0  503  0.31355285434E+03 -0.77056445196E+02  0.83175272868E+03  0.13527956450E+04  0.10168531690E+04 0.  0.
    9000010    2    1    2  501    0 -0.31355285434E+03  0.77056445196E+02  0.44708334186E+03  0.11586335949E+04  0.10189677151E+04 0.  0.
        -13    1    4    4    0    0 -0.27392059816E+03  0.40674548793E+03  0.61496339163E+03  0.78654584753E+03  0.10566000000E+00 0.  1.
         13    1    3    3    0    0  0.42048790056E+03 -0.13180640611E+03  0.10303850596E+04  0.11206589068E+04  0.10566000000E+00 0. -1.
          4    1    4    4  501    0 -0.39632256174E+02 -0.32968904273E+03 -0.16788004978E+03  0.37208774737E+03  0.00000000000E+00 0.  1.
         -4    1    3    3    0  503 -0.10693504622E+03  0.54749960915E+02 -0.19863233093E+03  0.23213673819E+03  0.00000000000E+00 0. -1.
</event>
<event>
 8    1  0.7008488E-006  0.1192508E+04  0.7818608E-02  0.8616695E-01
         21   -1    0    0  501  502  0.00000000000E+00  0.00000000000E+00  0.10949634603E+04  0.10949634603E+04  0.00000000000E+00 0. -1.
         21   -1    0    0  502  503 -0.00000000000E+00 -0.00000000000E+00 -0.13171303777E+04  0.13171303777E+04  0.00000000000E+00 0. -1.
   -9000010    2    1    2    0  503 -0.63099836687E+03  0.38743921207E+02 -0.32959822447E+03  0.12147564486E+04  0.98353353241E+03 0.  0.
    9000010    2    1    2  501    0  0.63099836687E+03 -0.38743921207E+02  0.10743130700E+03  0.11973373894E+04  0.10111455424E+04 0.  0.
        -13    1    4    4    0    0 -0.62871160094E+02 -0.32785312879E+03 -0.19554704533E+03  0.38688385199E+03  0.10566000000E+00 0.  1.
         13    1    3    3    0    0  0.20554711122E+03 -0.17105320530E+03  0.50708620090E+02  0.27217676112E+03  0.10566000000E+00 0. -1.
          4    1    4    4  501    0  0.69386952696E+03  0.28910920759E+03  0.30297835233E+03  0.81045353743E+03  0.00000000000E+00 0.  1.
         -4    1    3    3    0  503 -0.83654547809E+03  0.20979712651E+03 -0.38030684456E+03  0.94257968747E+03  0.00000000000E+00 0. -1.
</event>
<event>
 8    1  0.7008488E-006  0.1172884E+04  0.7818608E-02  0.8631398E-01
         21   -1    0    0  503  502  0.00000000000E+00  0.00000000000E+00  0.13285150146E+04  0.13285150146E+04  0.00000000000E+00 0.  1.
         21   -1    0    0  501  503 -0.00000000000E+00 -0.00000000000E+00 -0.10175697966E+04  0.10175697966E+04  0.00000000000E+00 0.  1.
    9000010    2    1    2  501    0  0.52269076290E+03 -0.31991551464E+03  0.12675515000E+03  0.11797131298E+04  0.10000523139E+04 0.  0.
   -9000010    2    1    2    0  502 -0.52269076290E+03  0.31991551464E+03  0.18419006796E+03  0.11663716814E+04  0.97516426718E+03 0.  0.
        -13    1    3    3    0    0  0.19056492051E+03  0.36429172498E+03  0.19030038275E+02  0.41156482276E+03  0.10566000000E+00 0.  1.
         13    1    4    4    0    0  0.14213436556E+03 -0.21605979523E+03  0.17516276250E+03  0.31235559466E+03  0.10566000000E+00 0. -1.
          4    1    3    3  501    0  0.33212584239E+03 -0.68420723962E+03  0.10772511173E+03  0.76814830705E+03  0.00000000000E+00 0.  1.
         -4    1    4    4    0  502 -0.66482512846E+03  0.53597530987E+03  0.90273054631E+01  0.85401608677E+03  0.00000000000E+00 0. -1.
</event>
<event>
 8    1  0.7008488E-006  0.1085995E+04  0.7818608E-02  0.8702882E-01
         21   -1    0    0  501  502  0.00000000000E+00  0.00000000000E+00  0.14638974153E+04  0.14638974153E+04  0.00000000000E+00 0.  1.
         21   -1    0    0  502  503 -0.00000000000E+00 -0.00000000000E+00 -0.78839313879E+03  0.78839313879E+03  0.00000000000E+00 0.  1.
   -9000010    2    1    2    0  503  0.26931003596E+03 -0.30093564684E+03  0.30923081658E+03  0.11061919189E+04  0.98231700811E+03 0.  0.
    9000010    2    1    2  501    0 -0.26931003596E+03  0.30093564684E+03  0.36627345991E+03  0.11460986352E+04  0.10081149117E+04 0.  0.
        -13    1    4    4    0    0 -0.58166254277E+03  0.19413076740E+03 -0.49518275666E+02  0.61519926796E+03  0.10566000000E+00 0.  1.
         13    1    3    3    0    0  0.53935404603E+03  0.67241023068E+02 -0.19003431221E+02  0.54386145636E+03  0.10566000000E+00 0. -1.
          4    1    4    4  501    0  0.31235250681E+03  0.10680487944E+03  0.41579173557E+03  0.53089936725E+03  0.00000000000E+00 0.  1.
         -4    1    3    3    0  503 -0.27004401007E+03 -0.36817666991E+03  0.32823424780E+03  0.56233046251E+03  0.00000000000E+00 0. -1.
</event>
<event>
 8    1  0.7008488E-006  0.1034868E+04  0.7818608E-02  0.8745320E-01
         21   -1    0    0  503  502  0.00000000000E+00  0.00000000000E+00  0.59325582063E+03  0.59325582063E+03  0.00000000000E+00 0. -1.
         21   -1    0    0  501  503 -0.00000000000E+00 -0.00000000000E+00 -0.17881933713E+04  0.17881933713E+04  0.00000000000E+00 0. -1.
    9000010    2    1    2  501    0 -0.47518826777E+02 -0.27609021239E+03 -0.65417421223E+03  0.12138119995E+04  0.98331674743E+03 0.  0.
   -9000010    2    1    2    0  502  0.47518826777E+02  0.27609021239E+03 -0.54076333843E+03  0.11676371925E+04  0.99622677178E+03 0.  0.
        -13    1    3    3    0    0  0.15127916097E+03 -0.15244843578E+03 -0.86956253883E+03  0.89569243059E+03  0.10566000000E+00 0.  1.
         13    1    4    4    0    0  0.50516673685E+03  0.48866295122E+02 -0.16600468372E+03  0.53398400070E+03  0.10566000000E+00 0. -1.
          4    1    3    3  501    0 -0.19879798774E+03 -0.12364177662E+03  0.21538832660E+03  0.31811956886E+03  0.00000000000E+00 0.  1.
         -4    1    4    4    0  502 -0.45764791008E+03  0.22722391727E+03 -0.37475865471E+03  0.63365319179E+03  0.00000000000E+00 0. -1.
</event>
<event>
 8    1  0.7008488E-006  0.1041070E+04  0.7818608E-02  0.8757234E-01
         21   -1    0    0  503  502  0.00000000000E+00  0.00000000000E+00  0.10342309775E+04  0.10342309775E+04  0.00000000000E+00 0. -1.
         21   -1    0    0  501  503 -0.00000000000E+00 -0.00000000000E+00 -0.10388552618E+04  0.10388552618E+04  0.00000000000E+00 0. -1.
    9000010    2    1    2  501    0  0.23639039010E+03  0.11974319574E+03 -0.28300068622E+03  0.99544030672E+03  0.91683868068E+03 0.  0.
   -9000010    2    1    2    0  502 -0.23639039010E+03 -0.11974319574E+03  0.27837640193E+03  0.10776459325E+04  0.10067812499E+04 0.  0.
        -13    1    3    3    0    0  0.45436931482E+03  0.30428615583E+03 -0.40939626001E+03  0.68311554495E+03  0.10566000000E+00 0.  1.
         13    1    4    4    0    0  0.19739730502E+03 -0.36216318969E+03 -0.13210442413E+03  0.43310444703E+03  0.10566000000E+00 0. -1.
          4    1    3    3  501    0 -0.21797892472E+03 -0.18454296009E+03  0.12639557379E+03  0.31232476177E+03  0.00000000000E+00 0.  1.
         -4    1    4    4    0  502 -0.43378769512E+03  0.24241999396E+03  0.41048082606E+03  0.64454148545E+03  0.00000000000E+00 0. -1.
</event>
<event>
 8    1  0.7008488E-006  0.1045149E+04  0.7818608E-02  0.8733612E-01
         21   -1    0    0  501  502  0.00000000000E+00  0.00000000000E+00  0.15329988102E+04  0.15329988102E+04  0.00000000000E+00 0.  1.
         21   -1    0    0  502  503 -0.00000000000E+00 -0.00000000000E+00 -0.71366028357E+03  0.71366028357E+03  0.00000000000E+00 0.  1.
   -9000010    2    1    2    0  503 -0.62394012938E+02  0.29572507744E+03  0.47031456413E+03  0.11447724354E+04  0.99898038287E+03 0.  0.
    9000010    2    1    2  501    0  0.62394012938E+02 -0.29572507744E+03  0.34902396248E+03  0.11018866583E+04  0.10004949511E+04 0.  0.
        -13    1    4    4    0    0  0.33410928067E+03 -0.56310096991E+03  0.29011164713E+03  0.71615395880E+03  0.10566000000E+00 0.  1.
         13    1    3    3    0    0 -0.46751118369E+03  0.11698475811E+03 -0.22248036428E+02  0.48243872854E+03  0.10566000000E+00 0. -1.
          4    1    4    4  501    0 -0.27171526774E+03  0.26737589247E+03  0.58912315351E+02  0.38573269954E+03  0.00000000000E+00 0.  1.
         -4    1    3    3    0  503  0.40511717075E+03  0.17874031934E+03  0.49256260056E+03  0.66233370688E+03  0.00000000000E+00 0. -1.
</event>
<event>
 8    1  0.7008488E-006  0.1136857E+04  0.7818608E-02  0.8658780E-01
         21   -1    0    0  503  502  0.00000000000E+00  0.00000000000E+00  0.13013848178E+04  0.13013848178E+04  0.00000000000E+00 0.  1.
         21   -1    0    0  501  503 -0.00000000000E+00 -0.00000000000E+00 -0.98529233463E+03  0.98529233463E+03  0.00000000000E+00 0. -1.
    9000010    2    1    2  501    0  0.47235321617E+03 -0.20650159576E+03  0.71966080691E+02  0.11239037149E+04  0.99610239123E+03 0.  0.
   -9000010    2    1    2    0  502 -0.47235321617E+03  0.20650159576E+03  0.24412640247E+03  0.11627734375E+04  0.10132541126E+04 0.  0.
        -13    1    3    3    0    0  0.65714371124E+03 -0.17729526805E+03 -0.27149907214E+03  0.73279139367E+03  0.10566000000E+00 0.  1.
         13    1    4    4    0    0 -0.53471898032E+03 -0.23154769096E+03 -0.11374379774E+03  0.59369721558E+03  0.10566000000E+00 0. -1.
          4    1    3    3  501    0 -0.18479049507E+03 -0.29206327708E+02  0.34346515283E+03  0.39111232128E+03  0.00000000000E+00 0.  1.
         -4    1    4    4    0  502  0.62365764149E+02  0.43804928672E+03  0.35787020021E+03  0.56907622190E+03  0.00000000000E+00 0. -1.
</event>
<event>
 8    1  0.7008488E-006  0.1098345E+04  0.7818608E-02  0.8698154E-01
         21   -1    0    0  501  502  0.00000000000E+00  0.00000000000E+00  0.11848746213E+04  0.11848746213E+04  0.00000000000E+00 0. -1.
         21   -1    0    0  502  503 -0.00000000000E+00 -0.00000000000E+00 -0.14604883930E+04  0.14604883930E+04  0.00000000000E+00 0. -1.
   -9000010    2    1    2    0  503  0.13320949024E+02 -0.33655776346E+03 -0.90484415090E+03  0.14230615105E+04  0.10454245785E+04 0.  0.
    9000010    2    1    2  501    0 -0.13320949024E+02  0.33655776346E+03  0.62923037925E+03  0.12223015038E+04  0.99229104613E+03 0.  0.
        -13    1    4    4    0    0 -0.25766479961E+03  0.33774501370E+03  0.81250640379E+03  0.91685850086E+03  0.10566000000E+00 0.  1.
         13    1    3    3    0    0  0.45290784580E+03  0.64889398393E+02 -0.59909394026E+03  0.75382339525E+03  0.10566000000E+00 0. -1.
          4    1    4    4  501    0  0.24434385059E+03 -0.11872502406E+01 -0.18327602454E+03  0.30544300296E+03  0.00000000000E+00 0.  1.
         -4    1    3    3    0  503 -0.43958689678E+03 -0.40144716185E+03 -0.30575021064E+03  0.66923811524E+03  0.00000000000E+00 0. -1.
</event>
<event>
 8    1  0.7008488E-006  0.1270914E+04  0.7818608E-02  0.8555379E-01
         21   -1    0    0  503  502  0.00000000000E+00  0.00000000000E+00  0.11729191878E+04  0.11729191878E+04  0.00000000000E+00 0. -1.
         21   -1    0    0  501  503 -0.00000000000E+00 -0.00000000000E+00 -0.17103192453E+04  0.17103192453E+04  0.00000000000E+00 0. -1.
    9000010    2    1    2  501    0 -0.76386834238E+03 -0.17349710796E+03 -0.90710225344E+03  0.15596438854E+04  0.99802728429E+03 0.  0.
   -9000010    2    1    2    0  502  0.76386834238E+03  0.17349710796E+03  0.36970219586E+03  0.13235945477E+04  0.10008130305E+04 0.  0.
        -13    1    3    3    0    0 -0.40089667199E+03  0.39016265841E+03 -0.60594509204E+03  0.82469055249E+03  0.10566000000E+00 0.  1.
         13    1    4    4    0    0  0.51100846879E+03  0.24065010582E+03  0.70176983466E+03  0.90084573630E+03  0.10566000000E+00 0. -1.
          4    1    3    3  501    0 -0.36297167038E+03 -0.56365976637E+03 -0.30115716140E+03  0.73495333294E+03  0.00000000000E+00 0.  1.
         -4    1    4    4    0  502  0.25285987358E+03 -0.67152997864E+02 -0.33206763880E+03  0.42274881139E+03  0.00000000000E+00 0. -1.
</event>
<event>
 8    1  0.7008488E-006  0.1117598E+04  0.7818608E-02  0.8672884E-01
         21   -1    0    0  501  502  0.00000000000E+00  0.00000000000E+00  0.78215817051E+03  0.78215817051E+03  0.00000000000E+00 0.  1.
         21   -1    0    0  502  503 -0.00000000000E+00 -0.00000000000E+00 -0.16111344835E+04  0.16111344835E+04  0.00000000000E+00 0.  1.
   -9000010    2    1    2    0  503 -0.17016451990E+03 -0.45557996350E+03 -0.56200573833E+03  0.12442498894E+04  0.99789692373E+03 0.  0.
    9000010    2    1    2  501    0  0.17016451990E+03  0.45557996350E+03 -0.26697057468E+03  0.11490427646E+04  0.10062389976E+04 0.  0.
        -13    1    4    4    0    0 -0.35859729014E+03  0.46208089889E+03 -0.18802107322E+03  0.61437993844E+03  0.10566000000E+00 0.  1.
         13    1    3    3    0    0  0.10526945164E+03 -0.82916400171E+02  0.26460788879E+03  0.29660433719E+03  0.10566000000E+00 0. -1.
          4    1    4    4  501    0  0.52876181004E+03 -0.65009353973E+01 -0.78949501464E+02  0.53466282618E+03  0.00000000000E+00 0.  1.
         -4    1    3    3    0  503 -0.27543397154E+03 -0.37266356332E+03 -0.82661362712E+03  0.94764555222E+03  0.00000000000E+00 0. -1.
</event>
<event>
 8    1  0.7008488E-006  0.1065183E+04  0.7818608E-02  0.8721623E-01
         21   -1    0    0  503  502  0.00000000000E+00  0.00000000000E+00  0.19283888958E+04  0.19283888958E+04  0.00000000000E+00 0.  1.
         21   -1    0    0  501  503 -0.00000000000E+00 -0.00000000000E+00 -0.58075230263E+03  0.58075230263E+03  0.00000000000E+00 0.  1.
    9000010    2    1    2  501    0 -0.31431233362E+03 -0.79381522717E+02  0.52509870368E+03  0.11633392846E+04  0.98617238523E+03 0.  0.
   -9000010    2    1    2    0  502  0.31431233362E+03  0.79381522717E+02  0.82253788949E+03  0.13458019138E+04  0.10146529172E+04 0.  0.
        -13    1    3    3    0    0 -0.89088340962E+02 -0.51365434016E+03  0.13736969011E+03  0.53911775763E+03  0.10566000000E+00 0.  1.
         13    1    4    4    0    0 -0.16075803437E+03  0.24302632676E+03  0.79029726205E+03  0.84230322016E+03  0.10566000000E+00 0. -1.
          4    1    3    3  501    0 -0.22522399265E+03  0.43427281744E+03  0.38772901357E+03  0.62422152702E+03  0.00000000000E+00 0.  1.
         -4    1    4    4    0  502  0.47507036799E+03 -0.16364480405E+03  0.32240627440E+02  0.50349869363E+03  0.00000000000E+00 0. -1.
</event>
<event>
 8    1  0.7008488E-006  0.1132198E+04  0.7818608E-02  0.8673521E-01
         21   -1    0    0  501  502  0.00000000000E+00  0.00000000000E+00  0.10821801090E+04  0.10821801090E+04  0.00000000000E+00 0. -1.
         21   -1    0    0  502  503 -0.00000000000E+00 -0.00000000000E+00 -0.11955353761E+04  0.11955353761E+04  0.00000000000E+00 0. -1.
   -9000010    2    1    2    0  503 -0.14693655234E+03  0.32156821433E+03  0.23714542568E+03  0.11567669077E+04  0.10755813586E+04 0.  0.
    9000010    2    1    2  501    0  0.14693655234E+03 -0.32156821433E+03 -0.35050069280E+03  0.11209485773E+04  0.10043298813E+04 0.  0.
        -13    1    4    4    0    0  0.40814885761E+03 -0.18550063953E+02  0.18828975979E+03  0.44986958071E+03  0.10566000000E+00 0.  1.
         13    1    3    3    0    0 -0.32101698383E+03 -0.30020092144E+03 -0.64290178793E+02  0.44419110234E+03  0.10566000000E+00 0. -1.
          4    1    4    4  501    0 -0.26121230527E+03 -0.30301815037E+03 -0.53879045259E+03  0.67107899660E+03  0.00000000000E+00 0.  1.
         -4    1    3    3    0  503  0.17408043149E+03  0.62176913576E+03  0.30143560447E+03  0.71257580541E+03  0.00000000000E+00 0. -1.
</event>
<event>
 8    1  0.7008488E-006  0.1114621E+04  0.7818608E-02  0.8676995E-01
         21   -1    0    0  503  502  0.00000000000E+00  0.00000000000E+00  0.51872575901E+03  0.51872575901E+03  0.00000000000E+00 0. -1.
         21   -1    0    0  501  503 -0.00000000000E+00 -0.00000000000E+00 -0.24349306082E+04  0.24349306082E+04  0.00000000000E+00 0. -1.
    9000010    2    1    2  501    0 -0.37142688986E+03 -0.30313264843E+03 -0.70891373057E+03  0.13209608514E+04  0.10062462703E+04 0.  0.
   -9000010    2    1    2    0  502  0.37142688986E+03  0.30313264843E+03 -0.12072911186E+04  0.16326955158E+04  0.98908819887E+03 0.  0.
        -13    1    3    3    0    0  0.21961927796E+03 -0.84797737305E+01  0.12840043366E+03  0.25454118791E+03  0.10566000000E+00 0.  1.
         13    1    4    4    0    0  0.14323939105E+03 -0.20179854001E+03  0.55563058278E+02  0.25362854434E+03  0.10566000000E+00 0. -1.
          4    1    3    3  501    0 -0.59104616783E+03 -0.29465287470E+03 -0.83731416422E+03  0.10664196635E+04  0.00000000000E+00 0.  1.
         -4    1    4    4    0  502  0.22818749882E+03  0.50493118843E+03 -0.12628541769E+04  0.13790669714E+04  0.00000000000E+00 0. -1.
</event>
<event>
 8    1  0.7008488E-006  0.1281891E+04  0.7818608E-02  0.8554538E-01
         21   -1    0    0  503  502  0.00000000000E+00  0.00000000000E+00  0.17447387330E+04  0.17447387330E+04  0.00000000000E+00 0.  1.
         21   -1    0    0  501  503 -0.00000000000E+00 -0.00000000000E+00 -0.93089228920E+03  0.93089228920E+03  0.00000000000E+00 0. -1.
    9000010    2    1    2  501    0 -0.46166238572E+03 -0.62741415789E+03  0.60353467957E+03  0.14168619597E+04  0.10180682784E+04 0.  0.
   -9000010    2    1    2    0  502  0.46166238572E+03  0.62741415789E+03  0.21031176425E+03  0.12587690625E+04  0.96617173976E+03 0.  0.
        -13    1    3    3    0    0 -0.22788132452E+03  0.23932291100E+03 -0.81507136473E+01  0.33056285196E+03  0.10566000000E+00 0.  1.
         13    1    4    4    0    0  0.26096422470E+03  0.56657659814E+02  0.51593070068E+03  0.58094484769E+03  0.10566000000E+00 0. -1.
          4    1    3    3  501    0 -0.23378106119E+03 -0.86673706890E+03  0.61168539321E+03  0.10862991077E+04  0.00000000000E+00 0.  1.
         -4    1    4    4    0  502  0.20069816102E+03  0.57075649808E+03 -0.30561893643E+03  0.67782421485E+03  0.00000000000E+00 0. -1.
</event>
<event>
 8    1  0.7008488E-006  0.1069217E+04  0.7818608E-02  0.8727518E-01
         21   -1    0    0  503  502  0.00000000000E+00  0.00000000000E+00  0.86400739813E+03  0.86400739813E+03  0.00000000000E+00 0.  1.
         21   -1    0    0  501  503 -0.00000000000E+00 -0.00000000000E+00 -0.14670357232E+04  0.14670357232E+04  0.00000000000E+00 0.  1.
    9000010    2    1    2  501    0  0.82103446549E+02 -0.38511632995E+03 -0.76856042307E+03  0.13167805847E+04  0.99406761383E+03 0.  0.
   -9000010    2    1    2    0  502 -0.82103446549E+02  0.38511632995E+03  0.16553209795E+03  0.10142625367E+04  0.91993046166E+03 0.  0.
        -13    1    3    3    0    0 -0.16077149096E+03 -0.37759677516E+03  0.93680434014E+02  0.42095466715E+03  0.10566000000E+00 0.  1.
         13    1    4    4    0    0 -0.28487086907E+03  0.61377837977E+03  0.20275432429E+03  0.70638844746E+03  0.10566000000E+00 0. -1.
          4    1    3    3  501    0  0.24287493751E+03 -0.75195547859E+01 -0.86224085708E+03  0.89582591757E+03  0.00000000000E+00 0.  1.
         -4    1    4    4    0  502  0.20276742252E+03 -0.22866204982E+03 -0.37222226338E+02  0.30787408920E+03  0.00000000000E+00 0. -1.
</event>
<event>
 8    1  0.7008488E-006  0.1113792E+04  0.7818608E-02  0.8679848E-01
         21   -1    0    0  503  502  0.00000000000E+00  0.00000000000E+00  0.82695443664E+03  0.82695443664E+03  0.00000000000E+00 0.  1.
         21   -1    0    0  501  503 -0.00000000000E+00 -0.00000000000E+00 -0.21641230282E+04  0.21641230282E+04  0.00000000000E+00 0.  1.
    9000010    2    1    2  501    0 -0.17039669991E+03  0.40574493852E+03 -0.15129036609E+04  0.18635070010E+04  0.99504616241E+03 0.  0.
   -9000010    2    1    2    0  502  0.17039669991E+03 -0.40574493852E+03  0.17573506933E+03  0.11275704638E+04  0.10231658447E+04 0.  0.
        -13    1    3    3    0    0  0.31273550257E+03  0.24173028737E+03 -0.17624289804E+03  0.43278007888E+03  0.10566000000E+00 0.  1.
         13    1    4    4    0    0  0.26932198723E+03 -0.60135048653E+03  0.43387060248E+03  0.78892360296E+03  0.10566000000E+00 0. -1.
          4    1    3    3  501    0 -0.48313220248E+03  0.16401465115E+03 -0.13366607628E+04  0.14307269222E+04  0.00000000000E+00 0.  1.
         -4    1    4    4    0  502 -0.98925287327E+02  0.19560554800E+03 -0.25813553315E+03  0.33864686084E+03  0.00000000000E+00 0. -1.
</event>
<event>
 8    1  0.7008488E-006  0.1308567E+04  0.7818608E-02  0.8535397E-01
         21   -1    0    0  503  502  0.00000000000E+00  0.00000000000E+00  0.17812812241E+04  0.17812812241E+04  0.00000000000E+00 0. -1.
         21   -1    0    0  501  503 -0.00000000000E+00 -0.00000000000E+00 -0.93431609624E+03  0.93431609624E+03  0.00000000000E+00 0. -1.
    9000010    2    1    2  501    0  0.71198163501E+03  0.34820894239E+03  0.41567235078E+03  0.13730003911E+04  0.10412392879E+04 0.  0.
   -9000010    2    1    2    0  502 -0.71198163501E+03 -0.34820894239E+03  0.43129277713E+03  0.13425969292E+04  0.99417590932E+03 0.  0.
        -13    1    3    3    0    0  0.72664994214E+03  0.66814098475E+03  0.28873966120E+03  0.10284955600E+04  0.10566000000E+00 0.  1.
         13    1    4    4    0    0 -0.94238103951E+02 -0.48719168201E+03  0.50153100354E+03  0.70552810995E+03  0.10566000000E+00 0. -1.
          4    1    3    3  501    0 -0.14668307131E+02 -0.31993204236E+03  0.12693268958E+03  0.34450483110E+03  0.00000000000E+00 0.  1.
         -4    1    4    4    0  502 -0.61774353105E+03  0.13898273962E+03 -0.70238226411E+02  0.63706881930E+03  0.00000000000E+00 0. -1.
</event>
<event>
 8    1  0.7008488E-006  0.1196061E+04  0.7818608E-02  0.8616332E-01
         21   -1    0    0  503  502  0.00000000000E+00  0.00000000000E+00  0.11519987369E+04  0.11519987369E+04  0.00000000000E+00 0.  1.
         21   -1    0    0  501  503 -0.00000000000E+00 -0.00000000000E+00 -0.12112851777E+04  0.12112851777E+04  0.00000000000E+00 0.  1.
    9000010    2    1    2  501    0  0.12097158425E+03 -0.62671019400E+03  0.52767797121E+02  0.11972239468E+04  0.10115141853E+04 0.  0.
   -9000010    2    1    2    0  502 -0.12097158425E+03  0.62671019400E+03 -0.11205423786E+03  0.11660599677E+04  0.96940182828E+03 0.  0.
        -13    1    3    3    0    0 -0.24649340558E+03 -0.76276945270E+03 -0.17067246621E+01  0.80161035488E+03  0.10566000000E+00 0.  1.
         13    1    4    4    0    0 -0.37419866840E+03  0.74279397880E+03 -0.23092909089E+03  0.86318931560E+03  0.10566000000E+00 0. -1.
          4    1    3    3  501    0  0.36746498983E+03  0.13605925870E+03  0.54474521783E+02  0.39561359197E+03  0.00000000000E+00 0.  1.
         -4    1    4    4    0  502  0.25322708415E+03 -0.11608378480E+03  0.11887485303E+03  0.30287065214E+03  0.00000000000E+00 0. -1.
</event>
<event>
 8    1  0.7008488E-006  0.1029998E+04  0.7818608E-02  0.8752991E-01
         21   -1    0    0  501  502  0.00000000000E+00  0.00000000000E+00  0.68358903970E+03  0.68358903970E+03  0.00000000000E+00 0. -1.
         21   -1    0    0  502  503 -0.00000000000E+00 -0.00000000000E+00 -0.17226910635E+04  0.17226910635E+04  0.00000000000E+00 0. -1.
   -9000010    2    1    2    0  503 -0.27506690885E+03 -0.47741922678E+02 -0.93403650474E+03  0.13709375138E+04  0.96390060642E+03 0.  0.
    9000010    2    1    2  501    0  0.27506690885E+03  0.47741922678E+02 -0.10506551907E+03  0.10353425894E+04  0.99144057745E+03 0.  0.
        -13    1    4    4    0    0 -0.35792431726E+02  0.14736598429E+03  0.40348313451E+03  0.43104116102E+03  0.10566000000E+00 0.  1.
         13    1    3    3    0    0 -0.55217021254E+03 -0.26921890076E+03 -0.41160258796E+03  0.73945078384E+03  0.10566000000E+00 0. -1.
          4    1    4    4  501    0  0.31085934058E+03 -0.99624061612E+02 -0.50854865359E+03  0.60430142838E+03  0.00000000000E+00 0.  1.
         -4    1    3    3    0  503  0.27710330368E+03  0.22147697808E+03 -0.52243391678E+03  0.63148672997E+03  0.00000000000E+00 0. -1.
</event>
<event>
 8    1  0.7008488E-006  0.1175877E+04  0.7818608E-02  0.8632466E-01
         21   -1    0    0  501  502  0.00000000000E+00  0.00000000000E+00  0.11632877659E+04  0.11632877659E+04  0.00000000000E+00 0. -1.
         21   -1    0    0  502  503 -0.00000000000E+00 -0.00000000000E+00 -0.11502382632E+04  0.11502382632E+04  0.00000000000E+00 0. -1.
   -9000010    2    1    2    0  503  0.13430068125E+03  0.53220244036E+03  0.46141683072E+01  0.11758862513E+04  0.10399091667E+04 0.  0.
    9000010    2    1    2  501    0 -0.13430068125E+03 -0.53220244036E+03  0.84353344728E+01  0.11376397778E+04  0.99643213448E+03 0.  0.
        -13    1    4    4    0    0 -0.55698903893E+03 -0.18774291271E+03  0.55223253354E+02  0.59036752081E+03  0.10566000000E+00 0.  1.
         13    1    3    3    0    0 -0.37120747804E+03  0.16897849439E+03  0.28051320812E+03  0.49501150937E+03  0.10566000000E+00 0. -1.
          4    1    4    4  501    0  0.42268835767E+03 -0.34445952765E+03 -0.46787918881E+02  0.54727225698E+03  0.00000000000E+00 0.  1.
         -4    1    3    3    0  503  0.50550815929E+03  0.36322394597E+03 -0.27589903981E+03  0.68087474193E+03  0.00000000000E+00 0. -1.
</event>
<event>
 8    1  0.7008488E-006  0.1093209E+04  0.7818608E-02  0.8700859E-01
         21   -1    0    0  501  502  0.00000000000E+00  0.00000000000E+00  0.11789763143E+04  0.11789763143E+04  0.00000000000E+00 0. -1.
         21   -1    0    0  502  503 -0.00000000000E+00 -0.00000000000E+00 -0.99222228442E+03  0.99222228442E+03  0.00000000000E+00 0. -1.
   -9000010    2    1    2    0  503 -0.87273589151E+02  0.29660837458E+03 -0.50512198613E+02  0.10943754937E+04  0.10485766695E+04 0.  0.
    9000010    2    1    2  501    0  0.87273589151E+02 -0.29660837458E+03  0.23726622854E+03  0.10768231050E+04  0.10038224590E+04 0.  0.
        -13    1    4    4    0    0 -0.16596208592E+03  0.21995601932E+03  0.39378421967E+03  0.48061428113E+03  0.10566000000E+00 0.  1.
         13    1    3    3    0    0 -0.61629626726E+01 -0.12824061938E+03  0.42947889098E+03  0.44825859448E+03  0.10566000000E+00 0. -1.
          4    1    4    4  501    0  0.25323567507E+03 -0.51656439390E+03 -0.15651799114E+03  0.59620882392E+03  0.00000000000E+00 0.  1.
         -4    1    3    3    0  503 -0.81110626478E+02  0.42484899397E+03 -0.47999108959E+03  0.64611689924E+03  0.00000000000E+00 0. -1.
</event>
<event>
 8    1  0.7008488E-006  0.1129502E+04  0.7818608E-02  0.8664569E-01
         21   -1    0    0  501  502  0.00000000000E+00  0.00000000000E+00  0.53716969305E+03  0.53716969305E+03  0.00000000000E+00 0. -1.
         21   -1    0    0  502  503 -0.00000000000E+00 -0.00000000000E+00 -0.23526308387E+04  0.23526308387E+04  0.00000000000E+00 0. -1.
   -9000010    2    1    2    0  503 -0.31360660881E+03  0.42792451081E+03 -0.98543024022E+03  0.14881138229E+04  0.98078616401E+03 0.  0.
    9000010    2    1    2  501    0  0.31360660881E+03 -0.42792451081E+03 -0.83003090545E+03  0.14016867089E+04  0.99714885237E+03 0.  0.
        -13    1    4    4    0    0 -0.31736421362E+03 -0.36659164039E+03 -0.45605433658E+03  0.66565384696E+03  0.10566000000E+00 0.  1.
         13    1    3    3    0    0 -0.81732497130E+02  0.69103758170E+03 -0.88004977135E+03  0.11219183355E+04  0.10566000000E+00 0. -1.
          4    1    4    4  501    0  0.63097082243E+03 -0.61332870416E+02 -0.37397656886E+03  0.73603286191E+03  0.00000000000E+00 0.  1.
         -4    1    3    3    0  503 -0.23187411168E+03 -0.26311307089E+03 -0.10538046887E+03  0.36619548735E+03  0.00000000000E+00 0. -1.
</event>
<event>
 8    1  0.7008488E-006  0.1051315E+04  0.7818608E-02  0.8731778E-01
         21   -1    0    0  501  502  0.00000000000E+00  0.00000000000E+00  0.11821970807E+04  0.11821970807E+04  0.00000000000E+00 0.  1.
         21   -1    0    0  502  503 -0.00000000000E+00 -0.00000000000E+00 -0.92034109244E+03  0.92034109244E+03  0.00000000000E+00 0.  1.
   -9000010    2    1    2    0  503  0.31479182357E+03  0.33548248446E+02  0.92725736215E+02  0.10377059756E+04  0.98387816954E+03 0.  0.
    9000010    2    1    2  501    0 -0.31479182357E+03 -0.33548248446E+02  0.16913025208E+03  0.10648321976E+04  0.10025184236E+04 0.  0.
        -13    1    4    4    0    0  0.25275157822E+02  0.11244333820E+03 -0.38310201970E+03  0.40006187842E+03  0.10566000000E+00 0.  1.
         13    1    3    3    0    0  0.12818246134E+03 -0.40755739962E+03  0.29353413209E+03  0.51835902157E+03  0.10566000000E+00 0. -1.
          4    1    4    4  501    0 -0.34006698139E+03 -0.14599158665E+03  0.55223227178E+03  0.66477031913E+03  0.00000000000E+00 0.  1.
         -4    1    3    3    0  503  0.18660936223E+03  0.44110564806E+03 -0.20080839587E+03  0.51934695405E+03  0.00000000000E+00 0. -1.
</event>
<event>
 8    1  0.7008488E-006  0.1147044E+04  0.7818608E-02  0.8657396E-01
         21   -1    0    0  501  502  0.00000000000E+00  0.00000000000E+00  0.37107185592E+04  0.37107185592E+04  0.00000000000E+00 0.  1.
         21   -1    0    0  502  503 -0.00000000000E+00 -0.00000000000E+00 -0.38914090448E+03  0.38914090448E+03  0.00000000000E+00 0.  1.
   -9000010    2    1    2    0  503  0.55062121917E+03  0.65768576042E+02  0.23596393568E+04  0.26028505779E+04  0.94837967312E+03 0.  0.
    9000010    2    1    2  501    0 -0.55062121917E+03 -0.65768576042E+02  0.96193829794E+03  0.14970088857E+04  0.10040921682E+04 0.  0.
        -13    1    4    4    0    0 -0.32772455460E+03 -0.74472967800E+01  0.11523752452E+04  0.11980933031E+04  0.10566000000E+00 0.  1.
         13    1    3    3    0    0  0.17753725656E+03 -0.33449846770E+03  0.17195607377E+04  0.17607662662E+04  0.10566000000E+00 0. -1.
          4    1    4    4  501    0 -0.22289666457E+03 -0.58321279262E+02 -0.19043694726E+03  0.29891558268E+03  0.00000000000E+00 0.  1.
         -4    1    3    3    0  503  0.37308396260E+03  0.40026704374E+03  0.64007861903E+03  0.84208431169E+03  0.00000000000E+00 0. -1.
</event>
<event>
 8    1  0.7008488E-006  0.1138381E+04  0.7818608E-02  0.8655908E-01
         21   -1    0    0  503  502  0.00000000000E+00  0.00000000000E+00  0.59417196530E+03  0.59417196530E+03  0.00000000000E+00 0.  1.
         21   -1    0    0  501  503 -0.00000000000E+00 -0.00000000000E+00 -0.32172488084E+04  0.32172488084E+04  0.00000000000E+00 0.  1.
    9000010    2    1    2  501    0 -0.35278013979E+03 -0.39648393831E+03 -0.24029767956E+04  0.26589863697E+04  0.10071036161E+04 0.  0.
   -9000010    2    1    2    0  502  0.35278013979E+03  0.39648393831E+03 -0.22010004748E+03  0.11524344040E+04  0.99900334548E+03 0.  0.
        -13    1    3    3    0    0  0.19835588377E+01 -0.33154626690E+03 -0.12768698504E+03  0.35528979568E+03  0.10566000000E+00 0.  1.
         13    1    4    4    0    0 -0.34819515120E+03  0.13906021549E+03 -0.36717505305E+01  0.37495479696E+03  0.10566000000E+00 0. -1.
          4    1    3    3  501    0 -0.35476369863E+03 -0.64937671406E+02 -0.22752898106E+04  0.23036965740E+04  0.00000000000E+00 0.  1.
         -4    1    4    4    0  502  0.70097529099E+03  0.25742372282E+03 -0.21642829695E+03  0.77747960705E+03  0.00000000000E+00 0. -1.
</event>
<event>
 8    1  0.7008488E-006  0.1355280E+04  0.7818608E-02  0.8500983E-01
         21   -1    0    0  503  502  0.00000000000E+00  0.00000000000E+00  0.21024460784E+04  0.21024460784E+04  0.00000000000E+00 0.  1.
         21   -1    0    0  501  503 -0.00000000000E+00 -0.00000000000E+00 -0.88217555400E+03  0.88217555400E+03  0.00000000000E+00 0.  1.
    9000010    2    1    2  501    0 -0.67891845580E+03 -0.62633027075E+03  0.84043659922E+03  0.15947157544E+04  0.99174834632E+03 0.  0.
   -9000010    2    1    2    0  502  0.67891845580E+03  0.62633027075E+03  0.37983392522E+03  0.13899058780E+04  0.96661505333E+03 0.  0.
        -13    1    3    3    0    0 -0.91547479227E+01 -0.64449551591E+03  0.21863656655E+03  0.68063223464E+03  0.10566000000E+00 0.  1.
         13    1    4    4    0    0 -0.16453907228E+03  0.39714478636E+03 -0.16516399737E+02  0.43019750146E+03  0.10566000000E+00 0. -1.
          4    1    3    3  501    0 -0.66976370787E+03  0.18165245160E+02  0.62180003267E+03  0.91408351979E+03  0.00000000000E+00 0.  1.
         -4    1    4    4    0  502  0.84345752808E+03  0.22918548439E+03  0.39635032495E+03  0.95970837655E+03  0.00000000000E+00 0. -1.
</event>
<event>
 8    1  0.7008488E-006  0.1109128E+04  0.7818608E-02  0.8686732E-01
         21   -1    0    0  501  502  0.00000000000E+00  0.00000000000E+00  0.16811263344E+04  0.16811263344E+04  0.00000000000E+00 0.  1.
         21   -1    0    0  502  503 -0.00000000000E+00 -0.00000000000E+00 -0.78524839024E+03  0.78524839024E+03  0.00000000000E+00 0.  1.
   -9000010    2    1    2    0  503 -0.14088374322E+03 -0.38126133200E+03  0.83297061944E+03  0.13554646535E+04  0.98905810830E+03 0.  0.
    9000010    2    1    2  501    0  0.14088374322E+03  0.38126133200E+03  0.62907324735E+02  0.11109100712E+04  0.10319667739E+04 0.  0.
        -13    1    4    4    0    0 -0.12379030517E+03 -0.31335869016E+03 -0.96916156364E+02  0.35058588232E+03  0.10566000000E+00 0.  1.
         13    1    3    3    0    0  0.19139037395E+03 -0.28858825003E+03 -0.10027087044E+03  0.36051034925E+03  0.10566000000E+00 0. -1.
          4    1    4    4  501    0  0.26467404838E+03  0.69462002216E+03  0.15982348110E+03  0.76032418887E+03  0.00000000000E+00 0.  1.
         -4    1    3    3    0  503 -0.33227411717E+03 -0.92673081970E+02  0.93324148988E+03  0.99495430423E+03  0.00000000000E+00 0. -1.
</event>
<event>
 8    1  0.7008488E-006  0.1243514E+04  0.7818608E-02  0.8574865E-01
         21   -1    0    0  503  502  0.00000000000E+00  0.00000000000E+00  0.24329569116E+04  0.24329569116E+04  0.00000000000E+00 0.  1.
         21   -1    0    0  501  503 -0.00000000000E+00 -0.00000000000E+00 -0.68381965852E+03  0.68381965852E+03  0.00000000000E+00 0.  1.
    9000010    2    1    2  501    0 -0.64472473394E+03 -0.36772788829E+03  0.12936134640E+04  0.17943694974E+04  0.99771354432E+03 0.  0.
   -9000010    2    1    2    0  502  0.64472473394E+03  0.36772788829E+03  0.45552378910E+03  0.13224070728E+04  0.99517071966E+03 0.  0.
        -13    1    3    3    0    0  0.15868999628E+03 -0.60393026451E+02  0.76746525393E+03  0.78602338370E+03  0.10566000000E+00 0.  1.
         13    1    4    4    0    0 -0.12141032204E+03  0.10476304000E+03  0.48605316690E+03  0.51182365427E+03  0.10566000000E+00 0. -1.
          4    1    3    3  501    0 -0.80341473022E+03 -0.30733486184E+03  0.52614821009E+03  0.10083461137E+04  0.00000000000E+00 0.  1.
         -4    1    4    4    0  502  0.76613505598E+03  0.26296484829E+03 -0.30529377798E+02  0.81058341850E+03  0.00000000000E+00 0. -1.
</event>
<event>
 8    1  0.7008488E-006  0.1174944E+04  0.7818608E-02  0.8640597E-01
         21   -1    0    0  503  502  0.00000000000E+00  0.00000000000E+00  0.81393424914E+03  0.81393424914E+03  0.00000000000E+00 0. -1.
         21   -1    0    0  501  503 -0.00000000000E+00 -0.00000000000E+00 -0.16011309283E+04  0.16011309283E+04  0.00000000000E+00 0. -1.
    9000010    2    1    2  501    0  0.16027027562E+03  0.46778703528E+03 -0.30585056837E+03  0.12140998636E+04  0.10658248623E+04 0.  0.
   -9000010    2    1    2    0  502 -0.16027027562E+03 -0.46778703528E+03 -0.48134611082E+03  0.12009653139E+04  0.98291013580E+03 0.  0.
        -13    1    3    3    0    0  0.43320289949E+03  0.14007089494E+03 -0.55681369041E+03  0.71925385278E+03  0.10566000000E+00 0.  1.
         13    1    4    4    0    0  0.26015046514E+03 -0.36876652554E+03  0.11397200976E+03  0.46546390305E+03  0.10566000000E+00 0. -1.
          4    1    3    3  501    0 -0.27293262388E+03  0.32771614035E+03  0.25096312204E+03  0.49484601084E+03  0.00000000000E+00 0.  1.
         -4    1    4    4    0  502 -0.42042074075E+03 -0.99020509737E+02 -0.59531812058E+03  0.73550141080E+03  0.00000000000E+00 0. -1.
</event>
<event>
 8    1  0.7008488E-006  0.1326040E+04  0.7818608E-02  0.8525363E-01
         21   -1    0    0  501  502  0.00000000000E+00  0.00000000000E+00  0.11566030407E+04  0.11566030407E+04  0.00000000000E+00 0.  1.
         21   -1    0    0  502  503 -0.00000000000E+00 -0.00000000000E+00 -0.18505276942E+04  0.18505276942E+04  0.00000000000E+00 0.  1.
   -9000010    2    1    2    0  503  0.77903565348E+03 -0.22608585088E+03 -0.10271302287E+04  0.16398681256E+04  0.98800789537E+03 0.  0.
    9000010    2    1    2  501    0 -0.77903565348E+03  0.22608585088E+03  0.33320557525E+03  0.13672626092E+04  0.10489850932E+04 0.  0.
        -13    1    4    4    0    0 -0.15519957629E+03  0.40119914693E+03 -0.24825696804E+03  0.49666809573E+03  0.10566000000E+00 0.  1.
         13    1    3    3    0    0  0.32449256406E+03  0.38921430649E+03 -0.49199076917E+03  0.70628473622E+03  0.10566000000E+00 0. -1.
          4    1    4    4  501    0 -0.62383607719E+03 -0.17511329605E+03  0.58146254329E+03  0.87059451348E+03  0.00000000000E+00 0.  1.
         -4    1    3    3    0  503  0.45454308943E+03 -0.61530015737E+03 -0.53513945955E+03  0.93358338940E+03  0.00000000000E+00 0. -1.
</event>
<event>
 8    1  0.7008488E-006  0.1148113E+04  0.7818608E-02  0.8650820E-01
         21   -1    0    0  503  502  0.00000000000E+00  0.00000000000E+00  0.12210629899E+04  0.12210629899E+04  0.00000000000E+00 0.  1.
         21   -1    0    0  501  503 -0.00000000000E+00 -0.00000000000E+00 -0.16696864417E+04  0.16696864417E+04  0.00000000000E+00 0.  1.
    9000010    2    1    2  501    0 -0.35785584003E+03 -0.44056595091E+03 -0.10962202838E+04  0.15725900306E+04  0.97425937727E+03 0.  0.
   -9000010    2    1    2    0  502  0.35785584003E+03  0.44056595091E+03  0.64759683210E+03  0.13181594010E+04  0.99799969447E+03 0.  0.
        -13    1    3    3    0    0 -0.50883096125E+01 -0.64164442385E+03 -0.37036885890E+03  0.74088228510E+03  0.10566000000E+00 0.  1.
         13    1    4    4    0    0 -0.23783469958E+03  0.75616751120E+02  0.56126656437E+03  0.61425027865E+03  0.10566000000E+00 0. -1.
          4    1    3    3  501    0 -0.35276753042E+03  0.20107847295E+03 -0.72585142493E+03  0.83170774547E+03  0.00000000000E+00 0.  1.
         -4    1    4    4    0  502  0.59569053961E+03  0.36494919979E+03  0.86330267728E+02  0.70390912236E+03  0.00000000000E+00 0. -1.
</event>
<event>
 8    1  0.7008488E-006  0.1095161E+04  0.7818608E-02  0.8697879E-01
         21   -1    0    0  503  502  0.00000000000E+00  0.00000000000E+00  0.82496634653E+03  0.82496634653E+03  0.00000000000E+00 0. -1.
         21   -1    0    0  501  503 -0.00000000000E+00 -0.00000000000E+00 -0.17081237091E+04  0.17081237091E+04  0.00000000000E+00 0. -1.
    9000010    2    1    2  501    0 -0.33768587810E+03 -0.10688234055E+03 -0.98095773013E+03  0.14702567777E+04  0.10363017597E+04 0.  0.
   -9000010    2    1    2    0  502  0.33768587810E+03  0.10688234055E+03  0.97800367553E+02  0.10628332779E+04  0.99729337594E+03 0.  0.
        -13    1    3    3    0    0 -0.56380557603E+03  0.13105778672E+03 -0.98442534324E+03  0.11419921797E+04  0.10566000000E+00 0.  1.
         13    1    4    4    0    0 -0.19702790880E+03 -0.37777620373E+02 -0.31398698117E+03  0.37260566415E+03  0.10566000000E+00 0. -1.
          4    1    3    3  501    0  0.22611969793E+03 -0.23794012728E+03  0.34676131076E+01  0.32826459800E+03  0.00000000000E+00 0.  1.
         -4    1    4    4    0  502  0.53471378690E+03  0.14465996093E+03  0.41178734873E+03  0.69022761374E+03  0.00000000000E+00 0. -1.
</event>
<event>
 8    1  0.7008488E-006  0.1088274E+04  0.7818608E-02  0.8696203E-01
         21   -1    0    0  501  502  0.00000000000E+00  0.00000000000E+00  0.63535558545E+03  0.63535558545E+03  0.00000000000E+00 0.  1.
         21   -1    0    0  502  503 -0.00000000000E+00 -0.00000000000E+00 -0.19112156470E+04  0.19112156470E+04  0.00000000000E+00 0.  1.
   -9000010    2    1    2    0  503 -0.17632344261E+03 -0.39720489584E+03 -0.84515585877E+03  0.13779073655E+04  0.99773673718E+03 0.  0.
    9000010    2    1    2  501    0  0.17632344261E+03  0.39720489584E+03 -0.43070420282E+03  0.11686638670E+04  0.99569445007E+03 0.  0.
        -13    1    4    4    0    0 -0.31778557753E+02  0.69590389810E+03 -0.15936936179E+03  0.71462627769E+03  0.10566000000E+00 0.  1.
         13    1    3    3    0    0 -0.23545457536E+03 -0.13692590453E+03 -0.10220357172E+04  0.10577072274E+04  0.10566000000E+00 0. -1.
          4    1    4    4  501    0  0.20810200036E+03 -0.29869900226E+03 -0.27133484103E+03  0.45403758926E+03  0.00000000000E+00 0.  1.
         -4    1    3    3    0  503  0.59131132752E+02 -0.26027899131E+03  0.17687985844E+03  0.32020013819E+03  0.00000000000E+00 0. -1.
</event>
<event>
 8    1  0.7008488E-006  0.1086912E+04  0.7818608E-02  0.8702295E-01
         21   -1    0    0  503  502  0.00000000000E+00  0.00000000000E+00  0.70758732138E+03  0.70758732138E+03  0.00000000000E+00 0. -1.
         21   -1    0    0  501  503 -0.00000000000E+00 -0.00000000000E+00 -0.16493910879E+04  0.16493910879E+04  0.00000000000E+00 0. -1.
    9000010    2    1    2  501    0  0.35689269323E+03  0.10418615657E+03 -0.35419999944E+03  0.11431685596E+04  0.10213469373E+04 0.  0.
   -9000010    2    1    2    0  502 -0.35689269323E+03 -0.10418615657E+03 -0.58760376707E+03  0.12138098497E+04  0.99490150990E+03 0.  0.
        -13    1    3    3    0    0  0.95294565854E+01  0.52941959793E+03 -0.24455361121E+03  0.58325157619E+03  0.10566000000E+00 0.  1.
         13    1    4    4    0    0 -0.44483656326E+03 -0.30170029276E+03 -0.76444331414E+03  0.93449249669E+03  0.10566000000E+00 0. -1.
          4    1    3    3  501    0  0.34736323665E+03 -0.42523344136E+03 -0.10964638823E+03  0.55991698338E+03  0.00000000000E+00 0.  1.
         -4    1    4    4    0  502  0.87943870029E+02  0.19751413619E+03  0.17683954708E+03  0.27931735299E+03  0.00000000000E+00 0. -1.
</event>
<event>
 8    1  0.7008488E-006  0.1143583E+04  0.7818608E-02  0.8657848E-01
         21   -1    0    0  501  502  0.00000000000E+00  0.00000000000E+00  0.17224053617E+04  0.17224053617E+04  0.00000000000E+00 0.  1.
         21   -1    0    0  502  503 -0.00000000000E+00 -0.00000000000E+00 -0.85192718879E+03  0.85192718879E+03  0.00000000000E+00 0.  1.
   -9000010    2    1    2    0  503 -0.37913362918E+03 -0.26512572040E+03 -0.48159970788E+02  0.11074725656E+04  0.10050582791E+04 0.  0.
    9000010    2    1    2  501    0  0.37913362918E+03  0.26512572040E+03  0.91863814372E+03  0.14668599849E+04  0.10458241821E+04 0.  0.
        -13    1    4    4    0    0  0.24611209385E+03 -0.27133401194E+03 -0.31480550867E+02  0.36767423764E+03  0.10566000000E+00 0.  1.
         13    1    3    3    0    0 -0.32802197704E+03  0.30746665146E+03 -0.22936580673E+03  0.50472055995E+03  0.10566000000E+00 0. -1.
          4    1    4    4  501    0  0.13302153533E+03  0.53645973234E+03  0.95011869458E+03  0.10991857473E+04  0.00000000000E+00 0.  1.
         -4    1    3    3    0  503 -0.51111652142E+02 -0.57259237186E+03  0.18120583594E+03  0.60275200561E+03  0.00000000000E+00 0. -1.
</event>
<event>
 8    1  0.7008488E-006  0.1049016E+04  0.7818608E-02  0.8732526E-01
         21   -1    0    0  501  502  0.00000000000E+00  0.00000000000E+00  0.17570010464E+04  0.17570010464E+04  0.00000000000E+00 0.  1.
         21   -1    0    0  502  503 -0.00000000000E+00 -0.00000000000E+00 -0.68257755856E+03  0.68257755856E+03  0.00000000000E+00 0.  1.
   -9000010    2    1    2    0  503 -0.12820256971E+02  0.27182706243E+03  0.16265903173E+03  0.10497045946E+04  0.10006834987E+04 0.  0.
    9000010    2    1    2  501    0  0.12820256971E+02 -0.27182706243E+03  0.91176445613E+03  0.13898740104E+04  0.10131046493E+04 0.  0.
        -13    1    4    4    0    0 -0.14911122446E+03 -0.53216242392E+03  0.15594319627E+03  0.57423801190E+03  0.10566000000E+00 0.  1.
         13    1    3    3    0    0  0.27468041238E+03 -0.26876710746E+03 -0.77438393595E+02  0.39202270720E+03  0.10566000000E+00 0. -1.
          4    1    4    4  501    0  0.16193148143E+03  0.26033536149E+03  0.75582125986E+03  0.81563599846E+03  0.00000000000E+00 0.  1.
         -4    1    3    3    0  503 -0.28750066935E+03  0.54059416988E+03  0.24009742533E+03  0.65768188742E+03  0.00000000000E+00 0. -1.
</event>
<event>
 8    1  0.7008488E-006  0.1312869E+04  0.7818608E-02  0.8528327E-01
         21   -1    0    0  501  502  0.00000000000E+00  0.00000000000E+00  0.11555442125E+04  0.11555442125E+04  0.00000000000E+00 0.  1.
         21   -1    0    0  502  503 -0.00000000000E+00 -0.00000000000E+00 -0.19842023412E+04  0.19842023412E+04  0.00000000000E+00 0. -1.
   -9000010    2    1    2    0  503  0.82809836966E+03 -0.89873428262E+01 -0.12067072065E+04  0.17735307691E+04  0.10017192344E+04 0.  0.
    9000010    2    1    2  501    0 -0.82809836966E+03  0.89873428262E+01  0.37804907774E+03  0.13662157847E+04  0.10187231140E+04 0.  0.
        -13    1    4    4    0    0 -0.10626821433E+03  0.12358114868E+03 -0.31774367153E+03  0.35710822680E+03  0.10566000000E+00 0.  1.
         13    1    3    3    0    0  0.12161790072E+03 -0.41882253227E+03 -0.65861751998E+03  0.78992422174E+03  0.10566000000E+00 0. -1.
          4    1    4    4  501    0 -0.72183015533E+03 -0.11459380586E+03  0.69579274927E+03  0.10091075579E+04  0.00000000000E+00 0.  1.
         -4    1    3    3    0  503  0.70648046894E+03  0.40983518944E+03 -0.54808968647E+03  0.98360654731E+03  0.00000000000E+00 0. -1.
</event>
<event>
 8    1  0.7008488E-006  0.1114250E+04  0.7818608E-02  0.8676536E-01
         21   -1    0    0  503  502  0.00000000000E+00  0.00000000000E+00  0.84743354838E+03  0.84743354838E+03  0.00000000000E+00 0.  1.
         21   -1    0    0  501  503 -0.00000000000E+00 -0.00000000000E+00 -0.14526252105E+04  0.14526252105E+04  0.00000000000E+00 0.  1.
    9000010    2    1    2  501    0  0.21697271539E+02 -0.46574330340E+03 -0.25174370249E+03  0.11423342717E+04  0.10120104250E+04 0.  0.
   -9000010    2    1    2    0  502 -0.21697271539E+02  0.46574330340E+03 -0.35344795964E+03  0.11577244872E+04  0.99900597185E+03 0.  0.
        -13    1    3    3    0    0 -0.11603402373E+03 -0.59011868364E+03  0.21607162383E+03  0.63905470284E+03  0.10566000000E+00 0.  1.
         13    1    4    4    0    0  0.36821530037E+03  0.56967682000E+03 -0.32783452272E+03  0.75338547379E+03  0.10566000000E+00 0. -1.
          4    1    3    3  501    0  0.13773129527E+03  0.12437538023E+03 -0.46781532632E+03  0.50327956887E+03  0.00000000000E+00 0.  1.
         -4    1    4    4    0  502 -0.38991257191E+03 -0.10393351659E+03 -0.25613436921E+02  0.40433901339E+03  0.00000000000E+00 0. -1.
</event>
<event>
 8    1  0.7008488E-006  0.1058670E+04  0.7818608E-02  0.8726816E-01
         21   -1    0    0  503  502  0.00000000000E+00  0.00000000000E+00  0.27982744722E+04  0.27982744722E+04  0.00000000000E+00 0.  1.
         21   -1    0    0  501  503 -0.00000000000E+00 -0.00000000000E+00 -0.39420253429E+03  0.39420253429E+03  0.00000000000E+00 0.  1.
    9000010    2    1    2  501    0 -0.25301719660E+03 -0.40503791441E+02  0.10496672110E+04  0.14734092563E+04  0.10017361549E+04 0.  0.
   -9000010    2    1    2    0  502  0.25301719660E+03  0.40503791441E+02  0.13544047269E+04  0.17190677501E+04  0.10271920494E+04 0.  0.
        -13    1    3    3    0    0 -0.62434262962E+03 -0.53236480188E+02  0.46347971860E+03  0.77939162345E+03  0.10566000000E+00 0.  1.
         13    1    4    4    0    0  0.10205016815E+03 -0.33225431662E+03  0.46429854283E+02  0.35066067681E+03  0.10566000000E+00 0. -1.
          4    1    3    3  501    0  0.37132543302E+03  0.12732688747E+02  0.58618749236E+03  0.69401763289E+03  0.00000000000E+00 0.  1.
         -4    1    4    4    0  502  0.15096702845E+03  0.37275810806E+03  0.13079748727E+04  0.13684070733E+04  0.00000000000E+00 0. -1.
</event>
<event>
 8    1  0.7008488E-006  0.1021426E+04  0.7818608E-02  0.8757467E-01
         21   -1    0    0  503  502  0.00000000000E+00  0.00000000000E+00  0.57905173012E+03  0.57905173012E+03  0.00000000000E+00 0.  1.
         21   -1    0    0  501  503 -0.00000000000E+00 -0.00000000000E+00 -0.22258564793E+04  0.22258564793E+04  0.00000000000E+00 0.  1.
    9000010    2    1    2  501    0  0.66455824494E+02 -0.25729130903E+03 -0.14544116030E+04  0.17772519182E+04  0.98625355543E+03 0.  0.
   -9000010    2    1    2    0  502 -0.66455824494E+02  0.25729130903E+03 -0.19239314621E+03  0.10276562912E+04  0.97388250618E+03 0.  0.
        -13    1    3    3    0    0 -0.31683270891E+03  0.58636016391E+02 -0.10430731217E+03  0.33867561824E+03  0.10566000000E+00 0.  1.
         13    1    4    4    0    0  0.98431612026E+02  0.56923623381E+03 -0.31015811469E+03  0.65568036374E+03  0.10566000000E+00 0. -1.
          4    1    3    3  501    0  0.38328853340E+03 -0.31592732542E+03 -0.13501042908E+04  0.14385763000E+04  0.00000000000E+00 0.  1.
         -4    1    4    4    0  502 -0.16488743652E+03 -0.31194492477E+03  0.11776496848E+03  0.37197592747E+03  0.00000000000E+00 0. -1.
</event>
<event>
 8    1  0.7008488E-006  0.1307122E+04  0.7818608E-02  0.8530299E-01
         21   -1    0    0  503  502  0.00000000000E+00  0.00000000000E+00  0.67686475182E+03  0.67686475182E+03  0.00000000000E+00 0.  1.
         21   -1    0    0  501  503 -0.00000000000E+00 -0.00000000000E+00 -0.32445685397E+04  0.32445685397E+04  0.00000000000E+00 0.  1.
    9000010    2    1    2  501    0  0.75015809254E+03  0.38074633021E+03 -0.22106809486E+04  0.25682051430E+04  0.10004311412E+04 0.  0.
   -9000010    2    1    2    0  502 -0.75015809254E+03 -0.38074633021E+03 -0.35702283931E+03  0.13532281486E+04  0.99802614321E+03 0.  0.
        -13    1    3    3    0    0  0.53439958085E+03  0.22676849967E+03 -0.32763998043E+03  0.66659945424E+03  0.10566000000E+00 0.  1.
         13    1    4    4    0    0  0.19050072321E+03 -0.14874765570E+03  0.12388259951E+03  0.27159399891E+03  0.10566000000E+00 0. -1.
          4    1    3    3  501    0  0.21575851169E+03  0.15397783054E+03 -0.18830409682E+04  0.19016056887E+04  0.00000000000E+00 0.  1.
         -4    1    4    4    0  502 -0.94065881576E+03 -0.23199867450E+03 -0.48090543882E+03  0.10816341497E+04  0.00000000000E+00 0. -1.
</event>
<event>
 8    1  0.7008488E-006  0.1077167E+04  0.7818608E-02  0.8706129E-01
         21   -1    0    0  501  502  0.00000000000E+00  0.00000000000E+00  0.24337557776E+04  0.24337557776E+04  0.00000000000E+00 0.  1.
         21   -1    0    0  502  503 -0.00000000000E+00 -0.00000000000E+00 -0.81734412265E+03  0.81734412265E+03  0.00000000000E+00 0.  1.
   -9000010    2    1    2    0  503 -0.29227758367E+03  0.24140040047E+03 -0.24466399505E+03  0.11007764552E+04  0.10040657322E+04 0.  0.
    9000010    2    1    2  501    0  0.29227758367E+03 -0.24140040047E+03  0.18610756500E+04  0.21503234451E+04  0.10082598892E+04 0.  0.
        -13    1    4    4    0    0  0.47471777189E+03  0.43761661655E+02  0.17177971170E+04  0.17827223543E+04  0.10566000000E+00 0.  1.
         13    1    3    3    0    0 -0.39531066068E+03  0.46964158900E+03  0.15133004605E+03  0.63224562836E+03  0.10566000000E+00 0. -1.
          4    1    4    4  501    0 -0.18244018821E+03 -0.28516206213E+03  0.14327853300E+03  0.36760109082E+03  0.00000000000E+00 0.  1.
         -4    1    3    3    0  503  0.10303307701E+03 -0.22824118853E+03 -0.39599404110E+03  0.46853082683E+03  0.00000000000E+00 0. -1.
</event>
<event>
 8    1  0.7008488E-006  0.1160357E+04  0.7818608E-02  0.8674074E-01
         21   -1    0    0  501  502  0.00000000000E+00  0.00000000000E+00  0.12119685461E+04  0.12119685461E+04  0.00000000000E+00 0. -1.
         21   -1    0    0  502  503 -0.00000000000E+00 -0.00000000000E+00 -0.97118648581E+03  0.97118648581E+03  0.00000000000E+00 0.  1.
   -9000010    2    1    2    0  503  0.35539841515E+03 -0.10744194645E+03  0.28714168219E+03  0.11953567953E+04  0.10993524080E+04 0.  0.
    9000010    2    1    2  501    0 -0.35539841515E+03  0.10744194645E+03 -0.46359621880E+02  0.98779823667E+03  0.91419053620E+03 0.  0.
        -13    1    4    4    0    0  0.29777269672E+03 -0.66850427693E+02  0.33740589227E+02  0.30704396610E+03  0.10566000000E+00 0.  1.
         13    1    3    3    0    0  0.10681778878E+03  0.47742532533E+03  0.27182037053E+03  0.55967071235E+03  0.10566000000E+00 0. -1.
          4    1    4    4  501    0 -0.65317111187E+03  0.17429237415E+03 -0.80100211106E+02  0.68075427056E+03  0.00000000000E+00 0.  1.
         -4    1    3    3    0  503  0.24858062637E+03 -0.58486727179E+03  0.15321311660E+02  0.63568608291E+03  0.00000000000E+00 0. -1.
</event>
<event>
 8    1  0.7008488E-006  0.1083026E+04  0.7818608E-02  0.8702700E-01
         21   -1    0    0  503  502  0.00000000000E+00  0.00000000000E+00  0.27401958569E+04  0.27401958569E+04  0.00000000000E+00 0.  1.
         21   -1    0    0  501  503 -0.00000000000E+00 -0.00000000000E+00 -0.42480109833E+03  0.42480109833E+03  0.00000000000E+00 0.  1.
    9000010    2    1    2  501    0  0.31875304214E+03 -0.22644372441E+03  0.10669300088E+04  0.15122389322E+04  0.99782096705E+03 0.  0.
   -9000010    2    1    2    0  502 -0.31875304214E+03  0.22644372441E+03  0.12484647498E+04  0.16527580230E+04  0.10099824696E+04 0.  0.
        -13    1    3    3    0    0 -0.27447908308E+03 -0.20808138545E+03  0.78070790267E+03  0.85331205925E+03  0.10566000000E+00 0.  1.
         13    1    4    4    0    0  0.96618473456E+02  0.25500060732E+03 -0.60372108833E+02  0.27929418511E+03  0.10566000000E+00 0. -1.
          4    1    3    3  501    0  0.59323212522E+03 -0.18362338963E+02  0.28622210612E+03  0.65892687297E+03  0.00000000000E+00 0.  1.
         -4    1    4    4    0  502 -0.41537151560E+03 -0.28556882912E+02  0.13088368586E+04  0.13734638379E+04  0.00000000000E+00 0. -1.
</event>
<event>
 8    1  0.7008488E-006  0.1429134E+04  0.7818608E-02  0.8456322E-01
         21   -1    0    0  501  502  0.00000000000E+00  0.00000000000E+00  0.21076613957E+04  0.21076613957E+04  0.00000000000E+00 0. -1.
         21   -1    0    0  502  503 -0.00000000000E+00 -0.00000000000E+00 -0.10260733236E+04  0.10260733236E+04  0.00000000000E+00 0. -1.
   -9000010    2    1    2    0  503 -0.12048278642E+03 -0.10120689849E+04  0.11391781578E+03  0.14336669425E+04  0.10018103120E+04 0.  0.
    9000010    2    1    2  501    0  0.12048278642E+03  0.10120689849E+04  0.96767025632E+03  0.17000677768E+04  0.95657983924E+03 0.  0.
        -13    1    4    4    0    0 -0.83656389137E+02  0.10649706066E+04  0.10261109471E+04  0.14812374798E+04  0.10566000000E+00 0.  1.
         13    1    3    3    0    0 -0.32756027635E+03 -0.11245683172E+04  0.18873855121E+03  0.11864113480E+04  0.10566000000E+00 0. -1.
          4    1    4    4  501    0  0.20413917555E+03 -0.52901621724E+02 -0.58440690819E+02  0.21883029708E+03  0.00000000000E+00 0.  1.
         -4    1    3    3    0  503  0.20707748993E+03  0.11249933227E+03 -0.74820735434E+02  0.24725559458E+03  0.00000000000E+00 0. -1.
</event>
<event>
 8    1  0.7008488E-006  0.1050351E+04  0.7818608E-02  0.8729783E-01
         21   -1    0    0  503  502  0.00000000000E+00  0.00000000000E+00  0.22736270106E+04  0.22736270106E+04  0.00000000000E+00 0.  1.
         21   -1    0    0  501  503 -0.00000000000E+00 -0.00000000000E+00 -0.48323827091E+03  0.48323827091E+03  0.00000000000E+00 0.  1.
    9000010    2    1    2  501    0 -0.35556205208E+03 -0.16009283904E+02  0.85743500585E+03  0.13520024309E+04  0.98287085312E+03 0.  0.
   -9000010    2    1    2    0  502  0.35556205208E+03  0.16009283904E+02  0.93295373384E+03  0.14048628506E+04  0.98820862647E+03 0.  0.
        -13    1    3    3    0    0 -0.19136126184E+03 -0.24520625934E+03 -0.12100681576E+03  0.33374826258E+03  0.10566000000E+00 0.  1.
         13    1    4    4    0    0  0.60395575892E+03  0.29852740851E+03  0.57866527487E+03  0.88810736055E+03  0.10566000000E+00 0. -1.
          4    1    3    3  501    0 -0.16420079024E+03  0.22919697543E+03  0.97844182161E+03  0.10182541683E+04  0.00000000000E+00 0.  1.
         -4    1    4    4    0  502 -0.24839370684E+03 -0.28251812460E+03  0.35428845897E+03  0.51675549004E+03  0.00000000000E+00 0. -1.
</event>
<event>
 8    1  0.7008488E-006  0.1062370E+04  0.7818608E-02  0.8720278E-01
         21   -1    0    0  501  502  0.00000000000E+00  0.00000000000E+00  0.16298060018E+04  0.16298060018E+04  0.00000000000E+00 0.  1.
         21   -1    0    0  502  503 -0.00000000000E+00 -0.00000000000E+00 -0.75253030259E+03  0.75253030259E+03  0.00000000000E+00 0.  1.
   -9000010    2    1    2    0  503  0.33283600077E+03 -0.12866095524E+03  0.82672742109E+02  0.10556772496E+04  0.99009405017E+03 0.  0.
    9000010    2    1    2  501    0 -0.33283600077E+03  0.12866095524E+03  0.79460295709E+03  0.13266590548E+04  0.10006482616E+04 0.  0.
        -13    1    4    4    0    0 -0.36088198718E+03  0.40938034489E+03  0.71411602503E+02  0.55038868410E+03  0.10566000000E+00 0.  1.
         13    1    3    3    0    0 -0.50871743145E+02  0.36053035822E+03  0.21103765133E+03  0.42084079519E+03  0.10566000000E+00 0. -1.
          4    1    4    4  501    0  0.28045986411E+02 -0.28071938965E+03  0.72319135459E+03  0.77627037070E+03  0.00000000000E+00 0.  1.
         -4    1    3    3    0  503  0.38370774392E+03 -0.48919131346E+03 -0.12836490922E+03  0.63483645439E+03  0.00000000000E+00 0. -1.
</event>
<event>
 8    1  0.7008488E-006  0.1120903E+04  0.7818608E-02  0.8690805E-01
         21   -1    0    0  503  502  0.00000000000E+00  0.00000000000E+00  0.14971451586E+04  0.14971451586E+04  0.00000000000E+00 0.  1.
         21   -1    0    0  501  503 -0.00000000000E+00 -0.00000000000E+00 -0.85847580893E+03  0.85847580893E+03  0.00000000000E+00 0.  1.
    9000010    2    1    2  501    0  0.63060652176E+02 -0.21516081476E+03 -0.85083575378E+02  0.10213640761E+04  0.99281143174E+03 0.  0.
   -9000010    2    1    2    0  502 -0.63060652176E+02  0.21516081476E+03  0.72375292507E+03  0.13342568915E+04  0.10982496683E+04 0.  0.
        -13    1    3    3    0    0 -0.35035231114E+03 -0.29875041480E+03 -0.29843854495E+03  0.54869310962E+03  0.10566000000E+00 0.  1.
         13    1    4    4    0    0  0.60324796033E+02  0.62420265925E+03  0.64538443353E+03  0.89988283628E+03  0.10566000000E+00 0. -1.
          4    1    3    3  501    0  0.41341296332E+03  0.83589600042E+02  0.21335496958E+03  0.47267096644E+03  0.00000000000E+00 0.  1.
         -4    1    4    4    0  502 -0.12338544821E+03 -0.40904184449E+03  0.78368491540E+02  0.43437405521E+03  0.00000000000E+00 0. -1.
</event>
<event>
 8    1  0.7008488E-006  0.1066853E+04  0.7818608E-02  0.8721623E-01
         21   -1    0    0  501  502  0.00000000000E+00  0.00000000000E+00  0.81161261390E+03  0.81161261390E+03  0.00000000000E+00 0. -1.
         21   -1    0    0  502  503 -0.00000000000E+00 -0.00000000000E+00 -0.13597226143E+04  0.13597226143E+04  0.00000000000E+00 0. -1.
   -9000010    2    1    2    0  503 -0.37670159914E+03 -0.35975514855E+02 -0.31094134938E+03  0.11112426512E+04  0.99748552603E+03 0.  0.
    9000010    2    1    2  501    0  0.37670159914E+03  0.35975514855E+02 -0.23716865106E+03  0.10600925770E+04  0.96143068932E+03 0.  0.
        -13    1    4    4    0    0 -0.28103116335E+01 -0.24267404151E+03  0.27339873888E+03  0.36557553235E+03  0.10566000000E+00 0.  1.
         13    1    3    3    0    0 -0.37602504628E+03  0.28482142330E+03  0.19641357918E+03  0.51097591318E+03  0.10566000000E+00 0. -1.
          4    1    4    4  501    0  0.37951191077E+03  0.27864955636E+03 -0.51056738994E+03  0.69451704468E+03  0.00000000000E+00 0.  1.
         -4    1    3    3    0  503 -0.67655285110E+00 -0.32079693815E+03 -0.50735492855E+03  0.60026673802E+03  0.00000000000E+00 0. -1.
</event>
<event>
 8    1  0.7008488E-006  0.1041972E+04  0.7818608E-02  0.8742225E-01
         21   -1    0    0  503  502  0.00000000000E+00  0.00000000000E+00  0.76807919751E+03  0.76807919751E+03  0.00000000000E+00 0. -1.
         21   -1    0    0  501  503 -0.00000000000E+00 -0.00000000000E+00 -0.13773270110E+04  0.13773270110E+04  0.00000000000E+00 0. -1.
    9000010    2    1    2  501    0  0.90238320534E+02  0.23886091850E+03 -0.30073592928E+03  0.10845031701E+04  0.10102017294E+04 0.  0.
   -9000010    2    1    2    0  502 -0.90238320534E+02 -0.23886091850E+03 -0.30851188416E+03  0.10609030383E+04  0.98241446508E+03 0.  0.
        -13    1    3    3    0    0 -0.20292238198E+03  0.53113852197E+03  0.70943238122E+01  0.56862638280E+03  0.10566000000E+00 0.  1.
         13    1    4    4    0    0 -0.45149253109E+03 -0.34418901156E+03 -0.37275900961E+03  0.67916188918E+03  0.10566000000E+00 0. -1.
          4    1    3    3  501    0  0.29316070251E+03 -0.29227760347E+03 -0.30783025310E+03  0.51587678733E+03  0.00000000000E+00 0.  1.
         -4    1    4    4    0  502  0.36125421055E+03  0.10532809306E+03  0.64247125451E+02  0.38174114915E+03  0.00000000000E+00 0. -1.
</event>
<event>
 8    1  0.7008488E-006  0.1254282E+04  0.7818608E-02  0.8568526E-01
         21   -1    0    0  503  502  0.00000000000E+00  0.00000000000E+00  0.81351645951E+03  0.81351645951E+03  0.00000000000E+00 0.  1.
         21   -1    0    0  501  503 -0.00000000000E+00 -0.00000000000E+00 -0.38048594114E+04  0.38048594114E+04  0.00000000000E+00 0.  1.
    9000010    2    1    2  501    0  0.75221398614E+03 -0.80585925217E+02 -0.31185187738E+04  0.33576629438E+04  0.98814023769E+03 0.  0.
   -9000010    2    1    2    0  502 -0.75221398614E+03  0.80585925217E+02  0.12717582197E+03  0.12607129271E+04  0.10004516093E+04 0.  0.
        -13    1    3    3    0    0  0.32383009503E+03  0.28645638105E+03 -0.24271180560E+04  0.24653245745E+04  0.10566000000E+00 0.  1.
         13    1    4    4    0    0 -0.24121416300E+03  0.39391662664E+03 -0.27622607319E+03  0.53819646584E+03  0.10566000000E+00 0. -1.
          4    1    3    3  501    0  0.42838389111E+03 -0.36704230626E+03 -0.69140071779E+03  0.89233836929E+03  0.00000000000E+00 0.  1.
         -4    1    4    4    0  502 -0.51099982314E+03 -0.31333070142E+03  0.40340189516E+03  0.72251646121E+03  0.00000000000E+00 0. -1.
</event>
<event>
 8    1  0.7008488E-006  0.1136176E+04  0.7818608E-02  0.8665897E-01
         21   -1    0    0  501  502  0.00000000000E+00  0.00000000000E+00  0.91433963314E+03  0.91433963314E+03  0.00000000000E+00 0. -1.
         21   -1    0    0  502  503 -0.00000000000E+00 -0.00000000000E+00 -0.14255056500E+04  0.14255056500E+04  0.00000000000E+00 0. -1.
   -9000010    2    1    2    0  503 -0.23536157689E+03 -0.39964631199E+03  0.11350314941E+02  0.10892778211E+04  0.98553797254E+03 0.  0.
    9000010    2    1    2  501    0  0.23536157689E+03  0.39964631199E+03 -0.52251633178E+03  0.12505674620E+04  0.10371997944E+04 0.  0.
        -13    1    4    4    0    0  0.38428709542E+03  0.66293351884E+03 -0.16785669161E+03  0.78443183400E+03  0.10566000000E+00 0.  1.
         13    1    3    3    0    0 -0.22612601129E+03  0.14413745983E+02 -0.42875218876E+03  0.48494244976E+03  0.10566000000E+00 0. -1.
          4    1    4    4  501    0 -0.14892551853E+03 -0.26328720684E+03 -0.35465964017E+03  0.46613562803E+03  0.00000000000E+00 0.  1.
         -4    1    3    3    0  503 -0.92355656051E+01 -0.41406005798E+03  0.44010250370E+03  0.60433537134E+03  0.00000000000E+00 0. -1.
</event>
<event>
 8    1  0.7008488E-006  0.1119164E+04  0.7818608E-02  0.8670794E-01
         21   -1    0    0  501  502  0.00000000000E+00  0.00000000000E+00  0.71039327320E+03  0.71039327320E+03  0.00000000000E+00 0. -1.
         21   -1    0    0  502  503 -0.00000000000E+00 -0.00000000000E+00 -0.17605885430E+04  0.17605885430E+04  0.00000000000E+00 0. -1.
   -9000010    2    1    2    0  503 -0.24335352703E+03  0.42957754676E+03 -0.57790286920E+03  0.12595631041E+04  0.10043752681E+04 0.  0.
    9000010    2    1    2  501    0  0.24335352703E+03 -0.42957754676E+03 -0.47229240063E+03  0.12114187121E+04  0.10003586240E+04 0.  0.
        -13    1    4    4    0    0  0.42010148588E+03  0.11341715099E+03  0.49422537565E+02  0.43793984399E+03  0.10566000000E+00 0.  1.
         13    1    3    3    0    0 -0.29188496960E+03  0.14361942682E+03  0.23182318439E+03  0.39945634958E+03  0.10566000000E+00 0. -1.
          4    1    4    4  501    0 -0.17674795885E+03 -0.54299469775E+03 -0.52171493819E+03  0.77347886815E+03  0.00000000000E+00 0.  1.
         -4    1    3    3    0  503  0.48531442571E+02  0.28595811994E+03 -0.80972605359E+03  0.86010675450E+03  0.00000000000E+00 0. -1.
</event>
<event>
 8    1  0.7008488E-006  0.1266388E+04  0.7818608E-02  0.8564971E-01
         21   -1    0    0  503  502  0.00000000000E+00  0.00000000000E+00  0.13491188824E+04  0.13491188824E+04  0.00000000000E+00 0.  1.
         21   -1    0    0  501  503 -0.00000000000E+00 -0.00000000000E+00 -0.14663115835E+04  0.14663115835E+04  0.00000000000E+00 0.  1.
    9000010    2    1    2  501    0  0.45594073737E+03  0.60061401663E+03  0.59091474232E+03  0.13974684790E+04  0.10174078651E+04 0.  0.
   -9000010    2    1    2    0  502 -0.45594073737E+03 -0.60061401663E+03 -0.70810744349E+03  0.14179619869E+04  0.96983549731E+03 0.  0.
        -13    1    3    3    0    0  0.35125976810E+03  0.65396841027E+03  0.84063794048E+03  0.11214857397E+04  0.10566000000E+00 0.  1.
         13    1    4    4    0    0 -0.59654107451E+03 -0.64061168084E+03 -0.21185259387E+03  0.90062540043E+03  0.10566000000E+00 0. -1.
          4    1    3    3  501    0  0.10468096927E+03 -0.53354393641E+02 -0.24972319816E+03  0.27598273922E+03  0.00000000000E+00 0.  1.
         -4    1    4    4    0  502  0.14060033713E+03  0.39997664212E+02 -0.49625484962E+03  0.51733658649E+03  0.00000000000E+00 0. -1.
</event>
<event>
 8    1  0.7008488E-006  0.1043249E+04  0.7818608E-02  0.8736719E-01
         21   -1    0    0  501  502  0.00000000000E+00  0.00000000000E+00  0.20009303333E+04  0.20009303333E+04  0.00000000000E+00 0. -1.
         21   -1    0    0  502  503 -0.00000000000E+00 -0.00000000000E+00 -0.57238345918E+03  0.57238345918E+03  0.00000000000E+00 0. -1.
   -9000010    2    1    2    0  503 -0.16585890231E+03 -0.27429797711E+03  0.40525100735E+03  0.11119777552E+04  0.98464084485E+03 0.  0.
    9000010    2    1    2  501    0  0.16585890231E+03  0.27429797711E+03  0.10232958668E+04  0.14613360373E+04  0.99278397813E+03 0.  0.
        -13    1    4    4    0    0  0.51566757678E+03  0.53778392921E+02  0.88430705993E+03  0.10250873878E+04  0.10566000000E+00 0.  1.
         13    1    3    3    0    0 -0.19494429361E+03  0.35370078821E+03  0.11771911495E+03  0.42067246924E+03  0.10566000000E+00 0. -1.
          4    1    4    4  501    0 -0.34980867447E+03  0.22051958419E+03  0.13898880688E+03  0.43624864950E+03  0.00000000000E+00 0.  1.
         -4    1    3    3    0  503  0.29085391302E+02 -0.62799876532E+03  0.28753189240E+03  0.69130528595E+03  0.00000000000E+00 0. -1.
</event>
<event>
 8    1  0.7008488E-006  0.1115251E+04  0.7818608E-02  0.8677727E-01
         21   -1    0    0  503  502  0.00000000000E+00  0.00000000000E+00  0.67685043425E+03  0.67685043425E+03  0.00000000000E+00 0.  1.
         21   -1    0    0  501  503 -0.00000000000E+00 -0.00000000000E+00 -0.18519938047E+04  0.18519938047E+04  0.00000000000E+00 0.  1.
    9000010    2    1    2  501    0 -0.94461308326E+02  0.38268053337E+03 -0.37519039182E+03  0.11563615265E+04  0.10203121191E+04 0.  0.
   -9000010    2    1    2    0  502  0.94461308326E+02 -0.38268053337E+03 -0.79995297868E+03  0.13724827125E+04  0.10432721115E+04 0.  0.
        -13    1    3    3    0    0 -0.10039148150E+03  0.91553357926E+02 -0.70409225374E+03  0.71708185017E+03  0.10566000000E+00 0.  1.
         13    1    4    4    0    0 -0.24813844817E+03 -0.47018053011E+03 -0.38618781263E+02  0.53304206381E+03  0.10566000000E+00 0. -1.
          4    1    3    3  501    0  0.59301731733E+01  0.29112717544E+03  0.32890186192E+03  0.43927967630E+03  0.00000000000E+00 0.  1.
         -4    1    4    4    0  502  0.34259975649E+03  0.87499996744E+02 -0.76133419742E+03  0.83944064873E+03  0.00000000000E+00 0. -1.
</event>
<event>
 8    1  0.7008488E-006  0.1374891E+04  0.7818608E-02  0.8488295E-01
         21   -1    0    0  501  502  0.00000000000E+00  0.00000000000E+00  0.17171530041E+04  0.17171530041E+04  0.00000000000E+00 0. -1.
         21   -1    0    0  502  503 -0.00000000000E+00 -0.00000000000E+00 -0.10900368309E+04  0.10900368309E+04  0.00000000000E+00 0. -1.
   -9000010    2    1    2    0  503  0.74754458258E+03  0.53196045363E+03  0.39426280122E+03  0.14127199056E+04  0.99926450355E+03 0.  0.
    9000010    2    1    2  501    0 -0.74754458258E+03 -0.53196045363E+03  0.23285337204E+03  0.13944699294E+04  0.10239730778E+04 0.  0.
        -13    1    4    4    0    0 -0.37014665758E+03  0.28653270292E+03  0.13896041386E+03  0.48828223984E+03  0.10566000000E+00 0.  1.
         13    1    3    3    0    0  0.18677805140E+03  0.97081422542E+01 -0.31644426748E+03  0.36758301660E+03  0.10566000000E+00 0. -1.
          4    1    4    4  501    0 -0.37739792500E+03 -0.81849315655E+03  0.93892958181E+02  0.90618768956E+03  0.00000000000E+00 0.  1.
         -4    1    3    3    0  503  0.56076653118E+03  0.52225231138E+03  0.71070706870E+03  0.10451368890E+04  0.00000000000E+00 0. -1.
</event>
<event>
 8    1  0.7008488E-006  0.1282238E+04  0.7818608E-02  0.8551294E-01
         21   -1    0    0  501  502  0.00000000000E+00  0.00000000000E+00  0.19189659500E+04  0.19189659500E+04  0.00000000000E+00 0. -1.
         21   -1    0    0  502  503 -0.00000000000E+00 -0.00000000000E+00 -0.86094506907E+03  0.86094506907E+03  0.00000000000E+00 0. -1.
   -9000010    2    1    2    0  503  0.84591125292E+02  0.78077865406E+03  0.31160808249E+03  0.12962440951E+04  0.98304536616E+03 0.  0.
    9000010    2    1    2  501    0 -0.84591125292E+02 -0.78077865406E+03  0.74641279844E+03  0.14836669240E+04  0.10135899124E+04 0.  0.
        -13    1    4    4    0    0 -0.41230040012E+03 -0.85211287337E+03  0.56358895098E+03  0.11016898319E+04  0.10566000000E+00 0.  1.
         13    1    3    3    0    0 -0.26635416469E+03 -0.66742503080E+02  0.25894115815E+03  0.37742500885E+03  0.10566000000E+00 0. -1.
          4    1    4    4  501    0  0.32770927482E+03  0.71334219314E+02  0.18282384746E+03  0.38197709205E+03  0.00000000000E+00 0.  1.
         -4    1    3    3    0  503  0.35094528998E+03  0.84752115714E+03  0.52666924339E+02  0.91881908626E+03  0.00000000000E+00 0. -1.
</event>
<event>
 8    1  0.7008488E-006  0.1736249E+04  0.7818608E-02  0.8286117E-01
         21   -1    0    0  501  502  0.00000000000E+00  0.00000000000E+00  0.12526927947E+04  0.12526927947E+04  0.00000000000E+00 0. -1.
         21   -1    0    0  502  503 -0.00000000000E+00 -0.00000000000E+00 -0.29523012396E+04  0.29523012396E+04  0.00000000000E+00 0.  1.
   -9000010    2    1    2    0  503 -0.26425894215E+03 -0.13835338796E+04 -0.17613242554E+04  0.24676485241E+04  0.10015125167E+04 0.  0.
    9000010    2    1    2  501    0  0.26425894215E+03  0.13835338796E+04  0.61715810531E+02  0.17373455103E+04  0.10151658960E+04 0.  0.
        -13    1    4    4    0    0 -0.18782534523E+03 -0.36829863816E+02  0.15144776856E+03  0.24407219617E+03  0.10566000000E+00 0.  1.
         13    1    3    3    0    0 -0.19451325613E+03 -0.85389611810E+03 -0.32319267602E+03  0.93350281431E+03  0.10566000000E+00 0. -1.
          4    1    4    4  501    0  0.45208428737E+03  0.14203637434E+04 -0.89731958027E+02  0.14932733141E+04  0.00000000000E+00 0.  1.
         -4    1    3    3    0  503 -0.69745686016E+02 -0.52963776148E+03 -0.14381315794E+04  0.15341457098E+04  0.00000000000E+00 0. -1.
</event>
<event>
 8    1  0.7008488E-006  0.1058764E+04  0.7818608E-02  0.8724068E-01
         21   -1    0    0  501  502  0.00000000000E+00  0.00000000000E+00  0.11524758836E+04  0.11524758836E+04  0.00000000000E+00 0.  1.
         21   -1    0    0  502  503 -0.00000000000E+00 -0.00000000000E+00 -0.96336828702E+03  0.96336828702E+03  0.00000000000E+00 0.  1.
   -9000010    2    1    2    0  503  0.31637787488E+03 -0.11515357358E+03  0.41432614975E+02  0.10468306351E+04  0.99034459249E+03 0.  0.
    9000010    2    1    2  501    0 -0.31637787488E+03  0.11515357358E+03  0.14767498164E+03  0.10690135355E+04  0.10038061235E+04 0.  0.
        -13    1    4    4    0    0  0.27237538089E+03  0.32219795445E+03 -0.21324936747E+02  0.42243891163E+03  0.10566000000E+00 0.  1.
         13    1    3    3    0    0  0.61965638325E+03 -0.17346514428E+03 -0.17839573354E+03  0.66774938300E+03  0.10566000000E+00 0. -1.
          4    1    4    4  501    0 -0.58875325576E+03 -0.20704438087E+03  0.16899991838E+03  0.64657462387E+03  0.00000000000E+00 0.  1.
         -4    1    3    3    0  503 -0.30327850837E+03  0.58311570703E+02  0.21982834852E+03  0.37908125215E+03  0.00000000000E+00 0. -1.
</event>
<event>
 8    1  0.7008488E-006  0.1299646E+04  0.7818608E-02  0.8535837E-01
         21   -1    0    0  503  502  0.00000000000E+00  0.00000000000E+00  0.59073573736E+03  0.59073573736E+03  0.00000000000E+00 0. -1.
         21   -1    0    0  501  503 -0.00000000000E+00 -0.00000000000E+00 -0.29622432508E+04  0.29622432508E+04  0.00000000000E+00 0. -1.
    9000010    2    1    2  501    0  0.78125204993E+03  0.32057482517E+03 -0.15302635765E+04  0.20048285191E+04  0.98209357671E+03 0.  0.
   -9000010    2    1    2    0  502 -0.78125204993E+03 -0.32057482517E+03 -0.84124393688E+03  0.15481504690E+04  0.98790461548E+03 0.  0.
        -13    1    3    3    0    0  0.82889404358E+03  0.55827097254E+03 -0.14250783110E+04  0.17405688776E+04  0.10566000000E+00 0.  1.
         13    1    4    4    0    0 -0.44544681618E+03 -0.67088725729E+03 -0.61198498152E+03  0.10114535119E+04  0.10566000000E+00 0. -1.
          4    1    3    3  501    0 -0.47641993647E+02 -0.23769614737E+03 -0.10518526559E+03  0.26425964151E+03  0.00000000000E+00 0.  1.
         -4    1    4    4    0  502 -0.33580523375E+03  0.35031243212E+03 -0.22925895536E+03  0.53669695707E+03  0.00000000000E+00 0. -1.
</event>
<event>
 8    1  0.7008488E-006  0.1085935E+04  0.7818608E-02  0.8717218E-01
         21   -1    0    0  503  502  0.00000000000E+00  0.00000000000E+00  0.20388855177E+04  0.20388855177E+04  0.00000000000E+00 0.  1.
         21   -1    0    0  501  503 -0.00000000000E+00 -0.00000000000E+00 -0.56320601327E+03  0.56320601327E+03  0.00000000000E+00 0.  1.
    9000010    2    1    2  501    0 -0.26971585489E+03 -0.32873387775E+03  0.40622527840E+03  0.10779566457E+04  0.90341515837E+03 0.  0.
   -9000010    2    1    2    0  502  0.26971585489E+03  0.32873387775E+03  0.10694542260E+04  0.15241348853E+04  0.99922079753E+03 0.  0.
        -13    1    3    3    0    0 -0.30656139074E+03 -0.10505087596E+02 -0.21800692105E+03  0.37632070359E+03  0.10566000000E+00 0.  1.
         13    1    4    4    0    0  0.43558479550E+03 -0.20070667912E+03  0.73083109774E+03  0.87414609174E+03  0.10566000000E+00 0. -1.
          4    1    3    3  501    0  0.36845535851E+02 -0.31822879015E+03  0.62423219945E+03  0.70163594208E+03  0.00000000000E+00 0.  1.
         -4    1    4    4    0  502 -0.16586894061E+03  0.52944055687E+03  0.33862312826E+03  0.64998879353E+03  0.00000000000E+00 0. -1.
</event>
<event>
 8    1  0.7008488E-006  0.1068674E+04  0.7818608E-02  0.8716477E-01
         21   -1    0    0  503  502  0.00000000000E+00  0.00000000000E+00  0.20085360347E+04  0.20085360347E+04  0.00000000000E+00 0.  1.
         21   -1    0    0  501  503 -0.00000000000E+00 -0.00000000000E+00 -0.57418517487E+03  0.57418517487E+03  0.00000000000E+00 0.  1.
    9000010    2    1    2  501    0  0.17425639719E+03 -0.27310348325E+03  0.93130939273E+03  0.14175335787E+04  0.10183876753E+04 0.  0.
   -9000010    2    1    2    0  502 -0.17425639719E+03  0.27310348325E+03  0.50304146715E+03  0.11651876309E+04  0.99983033215E+03 0.  0.
        -13    1    3    3    0    0 -0.13812188099E+03  0.24091537153E+03 -0.34397203156E+02  0.27982324599E+03  0.10566000000E+00 0.  1.
         13    1    4    4    0    0 -0.56181597796E+03  0.11887614601E+03  0.95718209861E+02  0.58217756574E+03  0.10566000000E+00 0. -1.
          4    1    3    3  501    0  0.31237827818E+03 -0.51401885479E+03  0.96570659588E+03  0.11377103327E+04  0.00000000000E+00 0.  1.
         -4    1    4    4    0  502  0.38755958077E+03  0.15422733724E+03  0.40732325729E+03  0.58301006520E+03  0.00000000000E+00 0. -1.
</event>
<event>
 8    1  0.7008488E-006  0.1061924E+04  0.7818608E-02  0.8719802E-01
         21   -1    0    0  501  502  0.00000000000E+00  0.00000000000E+00  0.17272596379E+04  0.17272596379E+04  0.00000000000E+00 0. -1.
         21   -1    0    0  502  503 -0.00000000000E+00 -0.00000000000E+00 -0.81243690478E+03  0.81243690478E+03  0.00000000000E+00 0. -1.
   -9000010    2    1    2    0  503  0.17397943681E+03  0.30430320275E+03 -0.11076837346E+03  0.10676851254E+04  0.10024034172E+04 0.  0.
    9000010    2    1    2  501    0 -0.17397943681E+03 -0.30430320275E+03  0.10255911065E+04  0.14720114173E+04  0.99604779562E+03 0.  0.
        -13    1    4    4    0    0 -0.28809599700E+03 -0.32450724506E+03  0.11923942357E+04  0.12689004217E+04  0.10566000000E+00 0.  1.
         13    1    3    3    0    0 -0.32113015412E+02 -0.10318934536E+03  0.38133361661E+03  0.39635164321E+03  0.10566000000E+00 0. -1.
          4    1    4    4  501    0  0.11411656019E+03  0.20204042316E+02 -0.16680312918E+03  0.20311099561E+03  0.00000000000E+00 0.  1.
         -4    1    3    3    0  503  0.20609245222E+03  0.40749254811E+03 -0.49210199006E+03  0.67133348215E+03  0.00000000000E+00 0. -1.
</event>
<event>
 8    1  0.7008488E-006  0.1076944E+04  0.7818608E-02  0.8714590E-01
         21   -1    0    0  503  502  0.00000000000E+00  0.00000000000E+00  0.13976848738E+04  0.13976848738E+04  0.00000000000E+00 0.  1.
         21   -1    0    0  501  503 -0.00000000000E+00 -0.00000000000E+00 -0.95881207298E+03  0.95881207298E+03  0.00000000000E+00 0.  1.
    9000010    2    1    2  501    0  0.12436103742E+03  0.36733120188E+03  0.70536731746E+03  0.12873818494E+04  0.10046945278E+04 0.  0.
   -9000010    2    1    2    0  502 -0.12436103742E+03 -0.36733120188E+03 -0.26649451662E+03  0.10691150974E+04  0.95999473150E+03 0.  0.
        -13    1    3    3    0    0  0.48942259340E+03  0.40469643700E+03  0.20593496696E+03  0.66762482192E+03  0.10566000000E+00 0.  1.
         13    1    4    4    0    0 -0.88184095169E+02  0.25535167226E+03  0.15956507810E+03  0.31375458002E+03  0.10566000000E+00 0. -1.
          4    1    3    3  501    0 -0.36506155598E+03 -0.37365235126E+02  0.49943235050E+03  0.61975702753E+03  0.00000000000E+00 0.  1.
         -4    1    4    4    0  502 -0.36176942254E+02 -0.62268287414E+03 -0.42605959472E+03  0.75536051734E+03  0.00000000000E+00 0. -1.
</event>
<event>
 8    1  0.7008488E-006  0.1103631E+04  0.7818608E-02  0.8684206E-01
         21   -1    0    0  503  502  0.00000000000E+00  0.00000000000E+00  0.11206270223E+04  0.11206270223E+04  0.00000000000E+00 0. -1.
         21   -1    0    0  501  503 -0.00000000000E+00 -0.00000000000E+00 -0.10827583897E+04  0.10827583897E+04  0.00000000000E+00 0. -1.
    9000010    2    1    2  501    0 -0.36773770888E+03 -0.22130122955E+03  0.66816571686E+02  0.11056520612E+04  0.10167579700E+04 0.  0.
   -9000010    2    1    2    0  502  0.36773770888E+03  0.22130122955E+03 -0.28947939024E+02  0.10977333508E+04  0.10099382503E+04 0.  0.
        -13    1    3    3    0    0 -0.57661976709E+03  0.21288996447E+03  0.99744252153E+02  0.62270492192E+03  0.10566000000E+00 0.  1.
         13    1    4    4    0    0  0.40280449719E+03  0.56515023512E+03  0.14773846844E+03  0.70955825514E+03  0.10566000000E+00 0. -1.
          4    1    3    3  501    0  0.20888205821E+03 -0.43419119402E+03 -0.32927680466E+02  0.48294713929E+03  0.00000000000E+00 0.  1.
         -4    1    4    4    0  502 -0.35066788311E+02 -0.34384900557E+03 -0.17668640747E+03  0.38817509562E+03  0.00000000000E+00 0. -1.
</event>
<event>
 8    1  0.7008488E-006  0.1107493E+04  0.7818608E-02  0.8679721E-01
         21   -1    0    0  503  502  0.00000000000E+00  0.00000000000E+00  0.91952348510E+03  0.91952348510E+03  0.00000000000E+00 0.  1.
         21   -1    0    0  501  503 -0.00000000000E+00 -0.00000000000E+00 -0.13828778612E+04  0.13828778612E+04  0.00000000000E+00 0.  1.
    9000010    2    1    2  501    0  0.84207620501E+02 -0.44511434521E+03 -0.14459145059E+02  0.11073920467E+04  0.10103911988E+04 0.  0.
   -9000010    2    1    2    0  502 -0.84207620501E+02  0.44511434521E+03 -0.44889523104E+03  0.11950092996E+04  0.10106050633E+04 0.  0.
        -13    1    3    3    0    0 -0.17273580892E+03 -0.10352675329E+03 -0.45254397138E+03  0.49532969376E+03  0.10566000000E+00 0.  1.
         13    1    4    4    0    0  0.26052741049E+03 -0.18327515598E+03 -0.34704813086E+03  0.47106977266E+03  0.10566000000E+00 0. -1.
          4    1    3    3  501    0  0.25694342942E+03 -0.34158759192E+03  0.43808482632E+03  0.61206235297E+03  0.00000000000E+00 0.  1.
         -4    1    4    4    0  502 -0.34473503099E+03  0.62838950119E+03 -0.10184710018E+03  0.72393952690E+03  0.00000000000E+00 0. -1.
</event>
<event>
 8    1  0.7008488E-006  0.1098708E+04  0.7818608E-02  0.8692547E-01
         21   -1    0    0  501  502  0.00000000000E+00  0.00000000000E+00  0.13570179320E+04  0.13570179320E+04  0.00000000000E+00 0. -1.
         21   -1    0    0  502  503 -0.00000000000E+00 -0.00000000000E+00 -0.10667117973E+04  0.10667117973E+04  0.00000000000E+00 0. -1.
   -9000010    2    1    2    0  503 -0.33924068706E+03 -0.20005478934E+03 -0.37854364234E+03  0.11374483213E+04  0.99769095008E+03 0.  0.
    9000010    2    1    2  501    0  0.33924068706E+03  0.20005478934E+03  0.66884977706E+03  0.12862814081E+04  0.10256966774E+04 0.  0.
        -13    1    4    4    0    0  0.47174784678E+03  0.43894814016E+01 -0.99728971822E+02  0.48219412841E+03  0.10566000000E+00 0.  1.
         13    1    3    3    0    0 -0.47066315565E+03  0.97014930273E+02  0.16172551234E+03  0.50704127572E+03  0.10566000000E+00 0. -1.
          4    1    4    4  501    0 -0.13250715972E+03  0.19566530794E+03  0.76857874888E+03  0.80408727968E+03  0.00000000000E+00 0.  1.
         -4    1    3    3    0  503  0.13142246859E+03 -0.29706971961E+03 -0.54026915468E+03  0.63040704553E+03  0.00000000000E+00 0. -1.
</event>
<event>
 8    1  0.7008488E-006  0.1380856E+04  0.7818608E-02  0.8483644E-01
         21   -1    0    0  501  502  0.00000000000E+00  0.00000000000E+00  0.16606878634E+04  0.16606878634E+04  0.00000000000E+00 0. -1.
         21   -1    0    0  502  503 -0.00000000000E+00 -0.00000000000E+00 -0.11429936258E+04  0.11429936258E+04  0.00000000000E+00 0.  1.
   -9000010    2    1    2    0  503  0.82888786867E+03  0.44120389068E+03  0.35903680327E+03  0.14267696553E+04  0.10124466658E+04 0.  0.
    9000010    2    1    2  501    0 -0.82888786867E+03 -0.44120389068E+03  0.15865743435E+03  0.13769118339E+04  0.99448380821E+03 0.  0.
        -13    1    4    4    0    0 -0.10405386818E+04 -0.40682619889E+03  0.12316750665E+02  0.11173092759E+04  0.10566000000E+00 0.  1.
         13    1    3    3    0    0 -0.16972614018E+03  0.10692133752E+03  0.31415305491E+03  0.37273487649E+03  0.10566000000E+00 0. -1.
          4    1    4    4  501    0  0.21165081316E+03 -0.34377691792E+02  0.14634068368E+03  0.25960255797E+03  0.00000000000E+00 0.  1.
         -4    1    3    3    0  503  0.99861400885E+03  0.33428255316E+03  0.44883748361E+02  0.10540347788E+04  0.00000000000E+00 0. -1.
</event>
<event>
 8    1  0.7008488E-006  0.1056157E+04  0.7818608E-02  0.8725590E-01
         21   -1    0    0  503  502  0.00000000000E+00  0.00000000000E+00  0.10907748841E+04  0.10907748841E+04  0.00000000000E+00 0. -1.
         21   -1    0    0  501  503 -0.00000000000E+00 -0.00000000000E+00 -0.10137386450E+04  0.10137386450E+04  0.00000000000E+00 0. -1.
    9000010    2    1    2  501    0  0.30690312203E+03 -0.19203708898E+03  0.31487867465E+02  0.10566258101E+04  0.99216875931E+03 0.  0.
   -9000010    2    1    2    0  502 -0.30690312203E+03  0.19203708898E+03  0.45548371624E+02  0.10478877189E+04  0.98230659543E+03 0.  0.
        -13    1    3    3    0    0  0.59541050022E+01 -0.47859068408E+03 -0.26411222276E+03  0.54666239274E+03  0.10566000000E+00 0.  1.
         13    1    4    4    0    0 -0.45605776608E+03 -0.24586574301E+03 -0.15916670860E+03  0.54200802750E+03  0.10566000000E+00 0. -1.
          4    1    3    3  501    0  0.30094901702E+03  0.28655359511E+03  0.29560009023E+03  0.50996341737E+03  0.00000000000E+00 0.  1.
         -4    1    4    4    0  502  0.14915464405E+03  0.43790283198E+03  0.20471508023E+03  0.50587969140E+03  0.00000000000E+00 0. -1.
</event>
<event>
 8    1  0.7008488E-006  0.1247288E+04  0.7818608E-02  0.8576602E-01
         21   -1    0    0  501  502  0.00000000000E+00  0.00000000000E+00  0.22799942818E+04  0.22799942818E+04  0.00000000000E+00 0.  1.
         21   -1    0    0  502  503 -0.00000000000E+00 -0.00000000000E+00 -0.84483073678E+03  0.84483073678E+03  0.00000000000E+00 0.  1.
   -9000010    2    1    2    0  503 -0.63653306308E+03  0.34708439758E+03  0.86957652680E+01  0.12473179462E+04  0.10149307972E+04 0.  0.
    9000010    2    1    2  501    0  0.63653306308E+03 -0.34708439758E+03  0.14264677798E+04  0.18775070724E+04  0.98213062300E+03 0.  0.
        -13    1    4    4    0    0  0.65403436442E+02 -0.19485248141E+03  0.12411694086E+04  0.12580725778E+04  0.10566000000E+00 0.  1.
         13    1    3    3    0    0 -0.66859422791E+03  0.47095850794E+03  0.34491505985E+03  0.88757341526E+03  0.10566000000E+00 0. -1.
          4    1    4    4  501    0  0.57112962664E+03 -0.15223191617E+03  0.18529837119E+03  0.61943449459E+03  0.00000000000E+00 0.  1.
         -4    1    3    3    0  503  0.32061164836E+02 -0.12387411036E+03 -0.33621929458E+03  0.35974453096E+03  0.00000000000E+00 0. -1.
</event>
<event>
 8    1  0.7008488E-006  0.1357817E+04  0.7818608E-02  0.8506805E-01
         21   -1    0    0  501  502  0.00000000000E+00  0.00000000000E+00  0.18720757181E+04  0.18720757181E+04  0.00000000000E+00 0.  1.
         21   -1    0    0  502  503 -0.00000000000E+00 -0.00000000000E+00 -0.97418342754E+03  0.97418342754E+03  0.00000000000E+00 0.  1.
   -9000010    2    1    2    0  503 -0.42952329181E+03 -0.71049841425E+03  0.19158439943E+03  0.13712659450E+04  0.10744149361E+04 0.  0.
    9000010    2    1    2  501    0  0.42952329181E+03  0.71049841425E+03  0.70630789116E+03  0.14749932007E+04  0.99369806791E+03 0.  0.
        -13    1    4    4    0    0  0.25057788734E+03  0.69812146354E+03 -0.46627848182E+01  0.74174430109E+03  0.10566000000E+00 0.  1.
         13    1    3    3    0    0 -0.37662487399E+03 -0.58168166214E+03 -0.37492742915E+03  0.78788986545E+03  0.10566000000E+00 0. -1.
          4    1    4    4  501    0  0.17894540447E+03  0.12376950711E+02  0.71097067598E+03  0.73324889962E+03  0.00000000000E+00 0.  1.
         -4    1    3    3    0  503 -0.52898417818E+02 -0.12881675210E+03  0.56651182858E+03  0.58337607951E+03  0.00000000000E+00 0. -1.
</event>
<event>
 8    1  0.7008488E-006  0.1080951E+04  0.7818608E-02  0.8703330E-01
         21   -1    0    0  503  502  0.00000000000E+00  0.00000000000E+00  0.65331945190E+03  0.65331945190E+03  0.00000000000E+00 0. -1.
         21   -1    0    0  501  503 -0.00000000000E+00 -0.00000000000E+00 -0.17796529617E+04  0.17796529617E+04  0.00000000000E+00 0.  1.
    9000010    2    1    2  501    0  0.27020601207E+03 -0.27834746633E+03 -0.53151358202E+03  0.11991709094E+04  0.10025046539E+04 0.  0.
   -9000010    2    1    2    0  502 -0.27020601207E+03  0.27834746633E+03 -0.59481992777E+03  0.12338015042E+04  0.10089434098E+04 0.  0.
        -13    1    3    3    0    0  0.16981491319E+03 -0.16563190781E+03  0.28386851366E+03  0.36993564013E+03  0.10566000000E+00 0.  1.
         13    1    4    4    0    0  0.28338434599E+02  0.37762307357E+03 -0.78118324704E+03  0.86812990341E+03  0.10566000000E+00 0. -1.
          4    1    3    3  501    0  0.10039109889E+03 -0.11271555851E+03 -0.81538209568E+03  0.82923526929E+03  0.00000000000E+00 0.  1.
         -4    1    4    4    0  502 -0.29854444667E+03 -0.99275607243E+02  0.18636331927E+03  0.36567160076E+03  0.00000000000E+00 0. -1.
</event>
<event>
 8    1  0.7008488E-006  0.1125266E+04  0.7818608E-02  0.8666839E-01
         21   -1    0    0  503  502  0.00000000000E+00  0.00000000000E+00  0.19688612646E+04  0.19688612646E+04  0.00000000000E+00 0. -1.
         21   -1    0    0  501  503 -0.00000000000E+00 -0.00000000000E+00 -0.63981518709E+03  0.63981518709E+03  0.00000000000E+00 0. -1.
    9000010    2    1    2  501    0  0.36518931807E+03  0.39698308826E+03  0.73293591642E+03  0.13429142238E+04  0.98755493238E+03 0.  0.
   -9000010    2    1    2    0  502 -0.36518931807E+03 -0.39698308826E+03  0.59611016111E+03  0.12657622279E+04  0.97767473274E+03 0.  0.
        -13    1    3    3    0    0  0.68059021724E+03  0.26111944890E+03  0.67724060158E+03  0.99500816780E+03  0.10566000000E+00 0.  1.
         13    1    4    4    0    0 -0.59306283339E+03 -0.15170099330E+03  0.35995447994E+02  0.61321480670E+03  0.10566000000E+00 0. -1.
          4    1    3    3  501    0 -0.31540089917E+03  0.13586363936E+03  0.55695314842E+02  0.34790605599E+03  0.00000000000E+00 0.  1.
         -4    1    4    4    0  502  0.22787351532E+03 -0.24528209497E+03  0.56011471312E+03  0.65254742122E+03  0.00000000000E+00 0. -1.
</event>
<event>
 8    1  0.7008488E-006  0.1096444E+04  0.7818608E-02  0.8692443E-01
         21   -1    0    0  501  502  0.00000000000E+00  0.00000000000E+00  0.40332069847E+03  0.40332069847E+03  0.00000000000E+00 0. -1.
         21   -1    0    0  502  503 -0.00000000000E+00 -0.00000000000E+00 -0.29906114476E+04  0.29906114476E+04  0.00000000000E+00 0. -1.
   -9000010    2    1    2    0  503  0.31224457951E+03  0.37934242775E+03 -0.15141774011E+04  0.18597349790E+04  0.96150072023E+03 0.  0.
    9000010    2    1    2  501    0 -0.31224457951E+03 -0.37934242775E+03 -0.10731133480E+04  0.15341971671E+04  0.98019964036E+03 0.  0.
        -13    1    4    4    0    0 -0.61840587641E+03 -0.14850109737E+03 -0.92630339924E+03  0.11236175517E+04  0.10566000000E+00 0.  1.
         13    1    3    3    0    0 -0.14973103195E+03 -0.98750926733E+02 -0.10088221015E+04  0.10246429481E+04  0.10566000000E+00 0. -1.
          4    1    4    4  501    0  0.30616129690E+03 -0.23084133038E+03 -0.14680994879E+03  0.41057961542E+03  0.00000000000E+00 0.  1.
         -4    1    3    3    0  503  0.46197561146E+03  0.47809335448E+03 -0.50535529966E+03  0.83509203090E+03  0.00000000000E+00 0. -1.
</event>
<event>
 8    1  0.7008488E-006  0.1070673E+04  0.7818608E-02  0.8714645E-01
         21   -1    0    0  501  502  0.00000000000E+00  0.00000000000E+00  0.84856551362E+03  0.84856551362E+03  0.00000000000E+00 0. -1.
         21   -1    0    0  502  503 -0.00000000000E+00 -0.00000000000E+00 -0.13832923222E+04  0.13832923222E+04  0.00000000000E+00 0. -1.
   -9000010    2    1    2    0  503  0.23357167905E+03  0.26003497983E+03 -0.44684980649E+02  0.10543682329E+04  0.99374126567E+03 0.  0.
    9000010    2    1    2  501    0 -0.23357167905E+03 -0.26003497983E+03 -0.49004182796E+03  0.11774896029E+04  0.10120112904E+04 0.  0.
        -13    1    4    4    0    0 -0.21478026528E+03 -0.47988376592E+03 -0.69828920876E+03  0.87408627799E+03  0.10566000000E+00 0.  1.
         13    1    3    3    0    0  0.33005822891E+03 -0.32307781126E+03 -0.35978092314E+02  0.46326249675E+03  0.10566000000E+00 0. -1.
          4    1    4    4  501    0 -0.18791413774E+02  0.21984878609E+03  0.20824738080E+03  0.30340332494E+03  0.00000000000E+00 0.  1.
         -4    1    3    3    0  503 -0.96486549860E+02  0.58311279109E+03 -0.87068883348E+01  0.59110573617E+03  0.00000000000E+00 0. -1.
</event>
<event>
 8    1  0.7008488E-006  0.1050550E+04  0.7818608E-02  0.8728744E-01
         21   -1    0    0  501  502  0.00000000000E+00  0.00000000000E+00  0.21042577318E+04  0.21042577318E+04  0.00000000000E+00 0. -1.
         21   -1    0    0  502  503 -0.00000000000E+00 -0.00000000000E+00 -0.52656723796E+03  0.52656723796E+03  0.00000000000E+00 0. -1.
   -9000010    2    1    2    0  503 -0.26768821148E+03  0.14994040742E+03  0.69601022335E+03  0.12601923247E+04  0.10047464157E+04 0.  0.
    9000010    2    1    2  501    0  0.26768821148E+03 -0.14994040742E+03  0.88168027047E+03  0.13706326450E+04  0.10035609817E+04 0.  0.
        -13    1    4    4    0    0 -0.38537741000E+02  0.35939600152E+03  0.75809398309E+02  0.36932061874E+03  0.10566000000E+00 0.  1.
         13    1    3    3    0    0 -0.15408102223E+03  0.19437771911E+03  0.94816907601E+03  0.98007564349E+03  0.10566000000E+00 0. -1.
          4    1    4    4  501    0  0.30622595248E+03 -0.50933640894E+03  0.80587087216E+03  0.10013120263E+04  0.00000000000E+00 0.  1.
         -4    1    3    3    0  503 -0.11360718925E+03 -0.44437311688E+02 -0.25215885265E+03  0.28011668121E+03  0.00000000000E+00 0. -1.
</event>
<event>
 8    1  0.7008488E-006  0.1516405E+04  0.7818608E-02  0.8411501E-01
         21   -1    0    0  503  502  0.00000000000E+00  0.00000000000E+00  0.14181234393E+04  0.14181234393E+04  0.00000000000E+00 0.  1.
         21   -1    0    0  501  503 -0.00000000000E+00 -0.00000000000E+00 -0.18465448018E+04  0.18465448018E+04  0.00000000000E+00 0. -1.
    9000010    2    1    2  501    0  0.68606139371E+03 -0.78351243186E+03 -0.87525962225E+03  0.16837982187E+04  0.99223236598E+03 0.  0.
   -9000010    2    1    2    0  502 -0.68606139371E+03  0.78351243186E+03  0.44683825972E+03  0.15808700225E+04  0.11022312057E+04 0.  0.
        -13    1    3    3    0    0  0.78279842884E+03 -0.27657990196E+03 -0.81638865971E+03  0.11643711939E+04  0.10566000000E+00 0.  1.
         13    1    4    4    0    0 -0.42679450400E+03 -0.21690214745E+03  0.87249772145E+02  0.48663397345E+03  0.10566000000E+00 0. -1.
          4    1    3    3  501    0 -0.96737035127E+02 -0.50693252990E+03 -0.58870962545E+02  0.51942702477E+03  0.00000000000E+00 0.  1.
         -4    1    4    4    0  502 -0.25926688971E+03  0.10004145793E+04  0.35958848758E+03  0.10942360490E+04  0.00000000000E+00 0. -1.
</event>
<event>
 8    1  0.7008488E-006  0.1093429E+04  0.7818608E-02  0.8691783E-01
         21   -1    0    0  501  502  0.00000000000E+00  0.00000000000E+00  0.89587068381E+03  0.89587068381E+03  0.00000000000E+00 0.  1.
         21   -1    0    0  502  503 -0.00000000000E+00 -0.00000000000E+00 -0.15026515236E+04  0.15026515236E+04  0.00000000000E+00 0.  1.
   -9000010    2    1    2    0  503 -0.21580482571E+03 -0.33594609434E+03 -0.70701348091E+03  0.13020963408E+04  0.10179171467E+04 0.  0.
    9000010    2    1    2  501    0  0.21580482571E+03  0.33594609434E+03  0.10023264112E+03  0.10964258666E+04  0.10162045057E+04 0.  0.
        -13    1    4    4    0    0 -0.24861940147E+03  0.49266408551E+03  0.21629849484E+03  0.59271794133E+03  0.10566000000E+00 0.  1.
         13    1    3    3    0    0 -0.16181012831E+02 -0.28456321702E+03  0.21519148372E+03  0.35713503817E+03  0.10566000000E+00 0. -1.
          4    1    4    4  501    0  0.46442422718E+03 -0.15671799118E+03 -0.11606585373E+03  0.50370792524E+03  0.00000000000E+00 0.  1.
         -4    1    3    3    0  503 -0.19962381288E+03 -0.51382877317E+02 -0.92220496463E+03  0.94496130267E+03  0.00000000000E+00 0. -1.
</event>
<event>
 8    1  0.7008488E-006  0.1155486E+04  0.7818608E-02  0.8641526E-01
         21   -1    0    0  503  502  0.00000000000E+00  0.00000000000E+00  0.10276864681E+04  0.10276864681E+04  0.00000000000E+00 0.  1.
         21   -1    0    0  501  503 -0.00000000000E+00 -0.00000000000E+00 -0.16667547999E+04  0.16667547999E+04  0.00000000000E+00 0.  1.
    9000010    2    1    2  501    0 -0.45189775084E+03 -0.42748958609E+03 -0.95583006735E+03  0.14995865740E+04  0.97375040538E+03 0.  0.
   -9000010    2    1    2    0  502  0.45189775084E+03  0.42748958609E+03  0.31676173559E+03  0.11948546939E+04  0.96973234402E+03 0.  0.
        -13    1    3    3    0    0 -0.12895227443E+03  0.31777314510E+03 -0.26774792205E+03  0.43508323543E+03  0.10566000000E+00 0.  1.
         13    1    4    4    0    0 -0.21903196908E+03  0.40851685764E+03  0.28596060336E+02  0.46441228696E+03  0.10566000000E+00 0. -1.
          4    1    3    3  501    0 -0.32294547641E+03 -0.74526273119E+03 -0.68808214530E+03  0.10645033386E+04  0.00000000000E+00 0.  1.
         -4    1    4    4    0  502  0.67092971992E+03  0.18972728452E+02  0.28816567525E+03  0.73044240697E+03  0.00000000000E+00 0. -1.
</event>
<event>
 8    1  0.7008488E-006  0.1075420E+04  0.7818608E-02  0.8707358E-01
         21   -1    0    0  501  502  0.00000000000E+00  0.00000000000E+00  0.11786262908E+04  0.11786262908E+04  0.00000000000E+00 0.  1.
         21   -1    0    0  502  503 -0.00000000000E+00 -0.00000000000E+00 -0.10432273357E+04  0.10432273357E+04  0.00000000000E+00 0.  1.
   -9000010    2    1    2    0  503  0.38418607186E+03 -0.94837555406E+02 -0.20823290632E+03  0.10953946595E+04  0.99996770798E+03 0.  0.
    9000010    2    1    2  501    0 -0.38418607186E+03  0.94837555406E+02  0.34363186149E+03  0.11264589670E+04  0.99711275615E+03 0.  0.
        -13    1    4    4    0    0 -0.22026301739E+03 -0.44525858883E+03  0.24346916136E+03  0.55321627909E+03  0.10566000000E+00 0.  1.
         13    1    3    3    0    0  0.34677680334E+02  0.32923663853E+03  0.22103659471E+03  0.39806594056E+03  0.10566000000E+00 0. -1.
          4    1    4    4  501    0 -0.16392305447E+03  0.54009614423E+03  0.10016270013E+03  0.57324268796E+03  0.00000000000E+00 0.  1.
         -4    1    3    3    0  503  0.34950839153E+03 -0.42407419394E+03 -0.42926950103E+03  0.69732871892E+03  0.00000000000E+00 0. -1.
</event>
<event>
 8    1  0.7008488E-006  0.1093799E+04  0.7818608E-02  0.8707823E-01
         21   -1    0    0  503  502  0.00000000000E+00  0.00000000000E+00  0.71178128120E+03  0.71178128120E+03  0.00000000000E+00 0. -1.
         21   -1    0    0  501  503 -0.00000000000E+00 -0.00000000000E+00 -0.16105736186E+04  0.16105736186E+04  0.00000000000E+00 0. -1.
    9000010    2    1    2  501    0  0.11829990174E+03 -0.42411756819E+03 -0.62729969743E+03  0.11953654802E+04  0.91734570493E+03 0.  0.
   -9000010    2    1    2    0  502 -0.11829990174E+03  0.42411756819E+03 -0.27149264000E+03  0.11269894197E+04  0.10012623633E+04 0.  0.
        -13    1    3    3    0    0  0.12001839715E+03 -0.69553190602E+03 -0.29161866049E+03  0.76368219977E+03  0.10566000000E+00 0.  1.
         13    1    4    4    0    0 -0.70746783729E+02 -0.60845874071E+02 -0.55529406177E+03  0.56307977588E+03  0.10566000000E+00 0. -1.
          4    1    3    3  501    0 -0.17184954053E+01  0.27141433782E+03 -0.33568103694E+03  0.43168328038E+03  0.00000000000E+00 0.  1.
         -4    1    4    4    0  502 -0.47553118013E+02  0.48496344226E+03  0.28380142177E+03  0.56390964380E+03  0.00000000000E+00 0. -1.
</event>
<event>
 8    1  0.7008488E-006  0.1109330E+04  0.7818608E-02  0.8697220E-01
         21   -1    0    0  501  502  0.00000000000E+00  0.00000000000E+00  0.88128155288E+03  0.88128155288E+03  0.00000000000E+00 0.  1.
         21   -1    0    0  502  503 -0.00000000000E+00 -0.00000000000E+00 -0.13034084730E+04  0.13034084730E+04  0.00000000000E+00 0.  1.
   -9000010    2    1    2    0  503 -0.54153547641E+02  0.29564480327E+03 -0.32242784827E+03  0.10708891356E+04  0.97596381434E+03 0.  0.
    9000010    2    1    2  501    0  0.54153547641E+02 -0.29564480327E+03 -0.99699071859E+02  0.11138008903E+04  0.10678361588E+04 0.  0.
        -13    1    4    4    0    0  0.18873475732E+03 -0.14432541515E+03  0.46046840127E+03  0.51815228824E+03  0.10566000000E+00 0.  1.
         13    1    3    3    0    0  0.33754306218E+03 -0.16112220541E+03 -0.28086328458E+03  0.46773911499E+03  0.10566000000E+00 0. -1.
          4    1    4    4  501    0 -0.13458120968E+03 -0.15131938812E+03 -0.56016747313E+03  0.59564860209E+03  0.00000000000E+00 0.  1.
         -4    1    3    3    0  503 -0.39169660982E+03  0.45676700868E+03 -0.41564563685E+02  0.60315002057E+03  0.00000000000E+00 0. -1.
</event>
<event>
 8    1  0.7008488E-006  0.1272328E+04  0.7818608E-02  0.8554921E-01
         21   -1    0    0  501  502  0.00000000000E+00  0.00000000000E+00  0.20892555128E+04  0.20892555128E+04  0.00000000000E+00 0. -1.
         21   -1    0    0  502  503 -0.00000000000E+00 -0.00000000000E+00 -0.78897713239E+03  0.78897713239E+03  0.00000000000E+00 0. -1.
   -9000010    2    1    2    0  503  0.49761390436E+03  0.58351592452E+03  0.86473830612E+03  0.15383727553E+04  0.10152378855E+04 0.  0.
    9000010    2    1    2  501    0 -0.49761390436E+03 -0.58351592452E+03  0.43554007432E+03  0.13398598899E+04  0.10086718675E+04 0.  0.
        -13    1    4    4    0    0 -0.42773081993E+03  0.20012377958E+03  0.23738271285E+03  0.52853925587E+03  0.10566000000E+00 0.  1.
         13    1    3    3    0    0 -0.12865068981E+03 -0.54722478583E+02  0.58497687897E+03  0.60145116988E+03  0.10566000000E+00 0. -1.
          4    1    4    4  501    0 -0.69883084429E+02 -0.78363970410E+03  0.19815736147E+03  0.81132063405E+03  0.00000000000E+00 0.  1.
         -4    1    3    3    0  503  0.62626459417E+03  0.63823840311E+03  0.27976142715E+03  0.93692158543E+03  0.00000000000E+00 0. -1.
</event>
<event>
 8    1  0.7008488E-006  0.1044041E+04  0.7818608E-02  0.8737926E-01
         21   -1    0    0  501  502  0.00000000000E+00  0.00000000000E+00  0.17230360740E+04  0.17230360740E+04  0.00000000000E+00 0.  1.
         21   -1    0    0  502  503 -0.00000000000E+00 -0.00000000000E+00 -0.68307074317E+03  0.68307074317E+03  0.00000000000E+00 0.  1.
   -9000010    2    1    2    0  503  0.22713966664E+03  0.23057918350E+03  0.88098795055E+03  0.13660748551E+04  0.99260342163E+03 0.  0.
    9000010    2    1    2  501    0 -0.22713966664E+03 -0.23057918350E+03  0.15897738026E+03  0.10400319621E+04  0.97551703557E+03 0.  0.
        -13    1    4    4    0    0 -0.43341849175E+02 -0.41835392189E+03 -0.29622332510E+03  0.51443832414E+03  0.10566000000E+00 0.  1.
         13    1    3    3    0    0  0.23365319687E+03  0.52000734303E+03  0.91136651558E+03  0.10749839023E+04  0.10566000000E+00 0. -1.
          4    1    4    4  501    0 -0.18379781747E+03  0.18777473838E+03  0.45520070536E+03  0.52559363794E+03  0.00000000000E+00 0.  1.
         -4    1    3    3    0  503 -0.65135302237E+01 -0.28942815952E+03 -0.30378565035E+02  0.29109095282E+03  0.00000000000E+00 0. -1.
</event>
<event>
 8    1  0.7008488E-006  0.1300688E+04  0.7818608E-02  0.8535355E-01
         21   -1    0    0  503  502  0.00000000000E+00  0.00000000000E+00  0.32427488544E+04  0.32427488544E+04  0.00000000000E+00 0. -1.
         21   -1    0    0  501  503 -0.00000000000E+00 -0.00000000000E+00 -0.52326581942E+03  0.52326581942E+03  0.00000000000E+00 0. -1.
    9000010    2    1    2  501    0 -0.31805898804E+01  0.81471853767E+03  0.12010131983E+04  0.17703730574E+04  0.10139090926E+04 0.  0.
   -9000010    2    1    2    0  502  0.31805898804E+01 -0.81471853767E+03  0.15184698366E+04  0.19956416164E+04  0.10065080251E+04 0.  0.
        -13    1    3    3    0    0  0.18859945511E+03 -0.16002668664E+03  0.48944301745E+03  0.54839107706E+03  0.10566000000E+00 0.  1.
         13    1    4    4    0    0  0.64182754921E+01 -0.79719412861E+03  0.16660624902E+04  0.18469769639E+04  0.10566000000E+00 0. -1.
          4    1    3    3  501    0 -0.19178004499E+03  0.97474522431E+03  0.71157018085E+03  0.12219819803E+04  0.00000000000E+00 0.  1.
         -4    1    4    4    0  502 -0.32376856117E+01 -0.17524409062E+02 -0.14759265352E+03  0.14866465247E+03  0.00000000000E+00 0. -1.
</event>
<event>
 8    1  0.7008488E-006  0.1202908E+04  0.7818608E-02  0.8604903E-01
         21   -1    0    0  503  502  0.00000000000E+00  0.00000000000E+00  0.11724075886E+04  0.11724075886E+04  0.00000000000E+00 0.  1.
         21   -1    0    0  501  503 -0.00000000000E+00 -0.00000000000E+00 -0.12918385148E+04  0.12918385148E+04  0.00000000000E+00 0.  1.
    9000010    2    1    2  501    0  0.57283579359E+03  0.35502673698E+03 -0.32645124392E+03  0.12464184339E+04  0.99639533688E+03 0.  0.
   -9000010    2    1    2    0  502 -0.57283579359E+03 -0.35502673698E+03  0.20702031770E+03  0.12178276695E+04  0.99300654094E+03 0.  0.
        -13    1    3    3    0    0 -0.23197814240E+02  0.39161541852E+03  0.20887262557E+03  0.44444185163E+03  0.10566000000E+00 0.  1.
         13    1    4    4    0    0 -0.21163389516E+03 -0.55825443520E+03 -0.20711626700E+03  0.63192885614E+03  0.10566000000E+00 0. -1.
          4    1    3    3  501    0  0.59603360783E+03 -0.36588681545E+02 -0.53532386949E+03  0.80197658228E+03  0.00000000000E+00 0.  1.
         -4    1    4    4    0  502 -0.36120189843E+03  0.20322769822E+03  0.41413658470E+03  0.58589881339E+03  0.00000000000E+00 0. -1.
</event>
<event>
 8    1  0.7008488E-006  0.1013531E+04  0.7818608E-02  0.8765154E-01
         21   -1    0    0  501  502  0.00000000000E+00  0.00000000000E+00  0.10731493225E+04  0.10731493225E+04  0.00000000000E+00 0. -1.
         21   -1    0    0  502  503 -0.00000000000E+00 -0.00000000000E+00 -0.95649600720E+03  0.95649600720E+03  0.00000000000E+00 0. -1.
   -9000010    2    1    2    0  503 -0.21438150327E+02 -0.16733840785E+03  0.17287101639E+03  0.10281679276E+04  0.99939139579E+03 0.  0.
    9000010    2    1    2  501    0  0.21438150327E+02  0.16733840785E+03 -0.56217701134E+02  0.10014774021E+04  0.98556319934E+03 0.  0.
        -13    1    4    4    0    0 -0.43499091444E+03  0.26114243893E+03  0.85330509394E+02  0.51448399008E+03  0.10566000000E+00 0.  1.
         13    1    3    3    0    0  0.19577575111E+03  0.27263785341E+03 -0.21852202736E+03  0.40051395911E+03  0.10566000000E+00 0. -1.
          4    1    4    4  501    0  0.45642906476E+03 -0.93804031080E+02 -0.14154821053E+03  0.48699341198E+03  0.00000000000E+00 0.  1.
         -4    1    3    3    0  503 -0.21721390144E+03 -0.43997626127E+03  0.39139304374E+03  0.62765396848E+03  0.00000000000E+00 0. -1.
</event>
<event>
 8    1  0.7008488E-006  0.1094456E+04  0.7818608E-02  0.8699342E-01
         21   -1    0    0  501  502  0.00000000000E+00  0.00000000000E+00  0.64484472882E+03  0.64484472882E+03  0.00000000000E+00 0. -1.
         21   -1    0    0  502  503 -0.00000000000E+00 -0.00000000000E+00 -0.17911778931E+04  0.17911778931E+04  0.00000000000E+00 0. -1.
   -9000010    2    1    2    0  503  0.31346176872E+03 -0.19622301744E+03 -0.54131975835E+03  0.12210086241E+04  0.10300840870E+04 0.  0.
    9000010    2    1    2  501    0 -0.31346176872E+03  0.19622301744E+03 -0.60501340595E+03  0.12150139978E+04  0.98663875888E+03 0.  0.
        -13    1    4    4    0    0 -0.37982335328E+03 -0.33667730985E+03 -0.37372728379E+03  0.63030903887E+03  0.10566000000E+00 0.  1.
         13    1    3    3    0    0  0.68465054245E+03 -0.31500223674E+02 -0.38310248307E+03  0.78517905797E+03  0.10566000000E+00 0. -1.
          4    1    4    4  501    0  0.66361584558E+02  0.53290032729E+03 -0.23128612216E+03  0.58470495896E+03  0.00000000000E+00 0.  1.
         -4    1    3    3    0  503 -0.37118877373E+03 -0.16472279376E+03 -0.15821727528E+03  0.43582956614E+03  0.00000000000E+00 0. -1.
</event>
<event>
 8    1  0.7008488E-006  0.1172440E+04  0.7818608E-02  0.8628679E-01
         21   -1    0    0  501  502  0.00000000000E+00  0.00000000000E+00  0.16178485560E+04  0.16178485560E+04  0.00000000000E+00 0. -1.
         21   -1    0    0  502  503 -0.00000000000E+00 -0.00000000000E+00 -0.99954901895E+03  0.99954901895E+03  0.00000000000E+00 0. -1.
   -9000010    2    1    2    0  503  0.54262223857E+03  0.27289315265E+03 -0.20495420578E+03  0.11847903620E+04  0.99639972340E+03 0.  0.
    9000010    2    1    2  501    0 -0.54262223857E+03 -0.27289315265E+03  0.82325374281E+03  0.14326072129E+04  0.10028495076E+04 0.  0.
        -13    1    4    4    0    0 -0.15698888646E+03  0.32220235316E+03  0.16913401658E+02  0.35881184647E+03  0.10566000000E+00 0.  1.
         13    1    3    3    0    0  0.74568207656E+03  0.51193947188E+02 -0.37833905220E+03  0.83773684956E+03  0.10566000000E+00 0. -1.
          4    1    4    4  501    0 -0.38563335212E+03 -0.59509550581E+03  0.80634034115E+03  0.10737953665E+04  0.00000000000E+00 0.  1.
         -4    1    3    3    0  503 -0.20305983799E+03  0.22169920546E+03  0.17338484641E+03  0.34705351240E+03  0.00000000000E+00 0. -1.
</event>
<event>
 8    1  0.7008488E-006  0.1213370E+04  0.7818608E-02  0.8599788E-01
         21   -1    0    0  501  502  0.00000000000E+00  0.00000000000E+00  0.14588747364E+04  0.14588747364E+04  0.00000000000E+00 0. -1.
         21   -1    0    0  502  503 -0.00000000000E+00 -0.00000000000E+00 -0.10067707751E+04  0.10067707751E+04  0.00000000000E+00 0. -1.
   -9000010    2    1    2    0  503  0.26948462162E+03 -0.63785683175E+03  0.93751903201E+02  0.12169865215E+04  0.99638520415E+03 0.  0.
    9000010    2    1    2  501    0 -0.26948462162E+03  0.63785683175E+03  0.35835205809E+03  0.12486589899E+04  0.97532034560E+03 0.  0.
        -13    1    4    4    0    0  0.16517475734E+03  0.42348560174E+03  0.56212391394E+03  0.72291497504E+03  0.10566000000E+00 0.  1.
         13    1    3    3    0    0  0.57365514775E+03 -0.14312683979E+03  0.20480485810E+03  0.62570804843E+03  0.10566000000E+00 0. -1.
          4    1    4    4  501    0 -0.43465937896E+03  0.21437123001E+03 -0.20377185585E+03  0.52574401491E+03  0.00000000000E+00 0.  1.
         -4    1    3    3    0  503 -0.30417052613E+03 -0.49472999196E+03 -0.11105295490E+03  0.59127847307E+03  0.00000000000E+00 0. -1.
</event>
<event>
 8    1  0.7008488E-006  0.1075345E+04  0.7818608E-02  0.8709066E-01
         21   -1    0    0  503  502  0.00000000000E+00  0.00000000000E+00  0.68332025098E+03  0.68332025098E+03  0.00000000000E+00 0. -1.
         21   -1    0    0  501  503 -0.00000000000E+00 -0.00000000000E+00 -0.17549182451E+04  0.17549182451E+04  0.00000000000E+00 0. -1.
    9000010    2    1    2  501    0 -0.20271038669E+03  0.33626676678E+03 -0.79156664736E+03  0.13270298874E+04  0.99008268627E+03 0.  0.
   -9000010    2    1    2    0  502  0.20271038669E+03 -0.33626676678E+03 -0.28003134677E+03  0.11112086087E+04  0.10010994843E+04 0.  0.
        -13    1    3    3    0    0 -0.19431631064E+02 -0.19833491480E+03 -0.73212892562E+03  0.75876682954E+03  0.10566000000E+00 0.  1.
         13    1    4    4    0    0 -0.68073871797E+01 -0.39025419984E+03  0.29990467131E+03  0.49222708586E+03  0.10566000000E+00 0. -1.
          4    1    3    3  501    0 -0.18327875563E+03  0.53460168159E+03 -0.59437721747E+02  0.56826305791E+03  0.00000000000E+00 0.  1.
         -4    1    4    4    0  502  0.20951777387E+03  0.53987433058E+02 -0.57993601808E+03  0.61898152280E+03  0.00000000000E+00 0. -1.
</event>
<event>
 8    1  0.7008488E-006  0.1082508E+04  0.7818608E-02  0.8702284E-01
         21   -1    0    0  503  502  0.00000000000E+00  0.00000000000E+00  0.13086192343E+04  0.13086192343E+04  0.00000000000E+00 0.  1.
         21   -1    0    0  501  503 -0.00000000000E+00 -0.00000000000E+00 -0.11253072649E+04  0.11253072649E+04  0.00000000000E+00 0.  1.
    9000010    2    1    2  501    0 -0.37703649567E+03  0.92800912860E+02 -0.46529340938E+03  0.11782705631E+04  0.10104726787E+04 0.  0.
   -9000010    2    1    2    0  502  0.37703649567E+03 -0.92800912860E+02  0.64860537878E+03  0.12556559362E+04  0.10026037923E+04 0.  0.
        -13    1    3    3    0    0 -0.13458108639E+03  0.10463550205E+03 -0.77002731070E+03  0.78867149529E+03  0.10566000000E+00 0.  1.
         13    1    4    4    0    0  0.62338938487E+02  0.15917615332E+03 -0.23140283150E+03  0.28769857946E+03  0.10566000000E+00 0. -1.
          4    1    3    3  501    0 -0.24245540927E+03 -0.11834589190E+02  0.30473390132E+03  0.38959906776E+03  0.00000000000E+00 0.  1.
         -4    1    4    4    0  502  0.31469755718E+03 -0.25197706618E+03  0.88000821028E+03  0.96795735678E+03  0.00000000000E+00 0. -1.
</event>
<event>
 8    1  0.7008488E-006  0.1125299E+04  0.7818608E-02  0.8672078E-01
         21   -1    0    0  503  502  0.00000000000E+00  0.00000000000E+00  0.66965730585E+03  0.66965730585E+03  0.00000000000E+00 0. -1.
         21   -1    0    0  501  503 -0.00000000000E+00 -0.00000000000E+00 -0.22540080554E+04  0.22540080554E+04  0.00000000000E+00 0. -1.
    9000010    2    1    2  501    0 -0.31349092433E+03  0.34559948128E+03 -0.17127865301E+03  0.11382595518E+04  0.10240033540E+04 0.  0.
   -9000010    2    1    2    0  502  0.31349092433E+03 -0.34559948128E+03 -0.14130720965E+04  0.17854058095E+04  0.98650169460E+03 0.  0.
        -13    1    3    3    0    0 -0.63922608974E+03  0.30509132209E+03 -0.32080244499E+03  0.77756345625E+03  0.10566000000E+00 0.  1.
         13    1    4    4    0    0 -0.14829280857E+03  0.25561633745E+03 -0.20677395614E+03  0.36067429787E+03  0.10566000000E+00 0. -1.
          4    1    3    3  501    0  0.32573516541E+03  0.40508159186E+02  0.14952379197E+03  0.36069609551E+03  0.00000000000E+00 0.  1.
         -4    1    4    4    0  502  0.46178373290E+03 -0.60121581873E+03 -0.12062981404E+04  0.14247315116E+04  0.00000000000E+00 0. -1.
</event>
<event>
 8    1  0.7008488E-006  0.1004962E+04  0.7818608E-02  0.8775461E-01
         21   -1    0    0  501  502  0.00000000000E+00  0.00000000000E+00  0.24494356841E+04  0.24494356841E+04  0.00000000000E+00 0.  1.
         21   -1    0    0  502  503 -0.00000000000E+00 -0.00000000000E+00 -0.51776855916E+03  0.51776855916E+03  0.00000000000E+00 0.  1.
   -9000010    2    1    2    0  503  0.14908369526E+03 -0.59365388361E+02  0.25793348240E+03  0.10149407413E+04  0.96841356323E+03 0.  0.
    9000010    2    1    2  501    0 -0.14908369526E+03  0.59365388361E+02  0.16737336425E+04  0.19522635020E+04  0.99206767783E+03 0.  0.
        -13    1    4    4    0    0 -0.11067515737E+03  0.52083339834E+03  0.76098536568E+03  0.92877077755E+03  0.10566000000E+00 0.  1.
         13    1    3    3    0    0 -0.30227439880E+03 -0.87156787922E+02  0.42854212162E+03  0.53161497253E+03  0.10566000000E+00 0. -1.
          4    1    4    4  501    0 -0.38408537892E+02 -0.46146800998E+03  0.91274827686E+03  0.10234927244E+04  0.00000000000E+00 0.  1.
         -4    1    3    3    0  503  0.45135809406E+03  0.27791399560E+02 -0.17060863923E+03  0.48332576876E+03  0.00000000000E+00 0. -1.
</event>
<event>
 8    1  0.7008488E-006  0.1070794E+04  0.7818608E-02  0.8715361E-01
         21   -1    0    0  503  502  0.00000000000E+00  0.00000000000E+00  0.15738050249E+04  0.15738050249E+04  0.00000000000E+00 0.  1.
         21   -1    0    0  501  503 -0.00000000000E+00 -0.00000000000E+00 -0.71443301423E+03  0.71443301423E+03  0.00000000000E+00 0.  1.
    9000010    2    1    2  501    0  0.28404263230E+03  0.25045452641E+03  0.44631953169E+03  0.11600866517E+04  0.10015948424E+04 0.  0.
   -9000010    2    1    2    0  502 -0.28404263230E+03 -0.25045452641E+03  0.41305247896E+03  0.11281513874E+04  0.97913508555E+03 0.  0.
        -13    1    3    3    0    0  0.59503751851E+03 -0.64181600134E+02  0.12009954213E+03  0.61042021380E+03  0.10566000000E+00 0.  1.
         13    1    4    4    0    0 -0.80963563194E+01 -0.43130056439E+03 -0.16558378273E+03  0.46206463627E+03  0.10566000000E+00 0. -1.
          4    1    3    3  501    0 -0.31099488622E+03  0.31463612654E+03  0.32621998956E+03  0.54966643791E+03  0.00000000000E+00 0.  1.
         -4    1    4    4    0  502 -0.27594627598E+03  0.18084603798E+03  0.57863626169E+03  0.66608675113E+03  0.00000000000E+00 0. -1.
</event>
<event>
 8    1  0.7008488E-006  0.1038867E+04  0.7818608E-02  0.8739925E-01
         21   -1    0    0  503  502  0.00000000000E+00  0.00000000000E+00  0.13776792428E+04  0.13776792428E+04  0.00000000000E+00 0. -1.
         21   -1    0    0  501  503 -0.00000000000E+00 -0.00000000000E+00 -0.79419603531E+03  0.79419603531E+03  0.00000000000E+00 0. -1.
    9000010    2    1    2  501    0 -0.19066817083E+03 -0.19863298902E+03  0.43774256796E+03  0.11273260552E+04  0.10017165584E+04 0.  0.
   -9000010    2    1    2    0  502  0.19066817083E+03  0.19863298902E+03  0.14574063956E+03  0.10445492229E+04  0.99701220121E+03 0.  0.
        -13    1    3    3    0    0  0.12181071383E+03  0.36917880013E+03  0.13050941418E+03  0.41007749856E+03  0.10566000000E+00 0.  1.
         13    1    4    4    0    0  0.36134899804E+03  0.19975389671E+03  0.50171861796E+03  0.64976634293E+03  0.10566000000E+00 0. -1.
          4    1    3    3  501    0 -0.31247888466E+03 -0.56781178915E+03  0.30723315378E+03  0.71724855667E+03  0.00000000000E+00 0.  1.
         -4    1    4    4    0  502 -0.17068082721E+03 -0.11209076931E+01 -0.35597797840E+03  0.39478287997E+03  0.00000000000E+00 0. -1.
</event>
<event>
 8    1  0.7008488E-006  0.1338381E+04  0.7818608E-02  0.8518887E-01
         21   -1    0    0  503  502  0.00000000000E+00  0.00000000000E+00  0.18631234028E+04  0.18631234028E+04  0.00000000000E+00 0.  1.
         21   -1    0    0  501  503 -0.00000000000E+00 -0.00000000000E+00 -0.95848879338E+03  0.95848879338E+03  0.00000000000E+00 0.  1.
    9000010    2    1    2  501    0 -0.72168764677E+03  0.29991900128E+03  0.17964389966E+03  0.13503837337E+04  0.10864988866E+04 0.  0.
   -9000010    2    1    2    0  502  0.72168764677E+03 -0.29991900128E+03  0.72499070980E+03  0.14712284625E+04  0.10139611397E+04 0.  0.
        -13    1    3    3    0    0 -0.80873727310E+03  0.57104072401E+03 -0.39895410514E+02  0.99082548429E+03  0.10566000000E+00 0.  1.
         13    1    4    4    0    0  0.19070000976E+03  0.91811356460E+02 -0.22864270524E+03  0.31156591072E+03  0.10566000000E+00 0. -1.
          4    1    3    3  501    0  0.87049626333E+02 -0.27112172273E+03  0.21953931017E+03  0.35955824937E+03  0.00000000000E+00 0.  1.
         -4    1    4    4    0  502  0.53098763701E+03 -0.39173035774E+03  0.95363341504E+03  0.11596625518E+04  0.00000000000E+00 0. -1.
</event>
<event>
 8    1  0.7008488E-006  0.1080685E+04  0.7818608E-02  0.8703744E-01
         21   -1    0    0  503  502  0.00000000000E+00  0.00000000000E+00  0.19352662247E+04  0.19352662247E+04  0.00000000000E+00 0. -1.
         21   -1    0    0  501  503 -0.00000000000E+00 -0.00000000000E+00 -0.59969170292E+03  0.59969170292E+03  0.00000000000E+00 0. -1.
    9000010    2    1    2  501    0 -0.37663822606E+03 -0.13657919919E+03  0.65401721584E+03  0.12573038723E+04  0.99627520185E+03 0.  0.
   -9000010    2    1    2    0  502  0.37663822606E+03  0.13657919919E+03  0.68155730599E+03  0.12776540553E+04  0.10036778830E+04 0.  0.
        -13    1    3    3    0    0  0.28803855498E+03 -0.58175442813E+02  0.48488703596E+03  0.56697975282E+03  0.10566000000E+00 0.  1.
         13    1    4    4    0    0  0.44346136706E+03  0.33729347348E+03  0.84373556259E+03  0.10110957334E+04  0.10566000000E+00 0. -1.
          4    1    3    3  501    0 -0.66467678103E+03 -0.78403756373E+02  0.16913017988E+03  0.69032411953E+03  0.00000000000E+00 0.  1.
         -4    1    4    4    0  502 -0.66823141007E+02 -0.20071427429E+03 -0.16217825660E+03  0.26655832193E+03  0.00000000000E+00 0. -1.
</event>
<event>
 8    1  0.7008488E-006  0.1039836E+04  0.7818608E-02  0.8739681E-01
         21   -1    0    0  503  502  0.00000000000E+00  0.00000000000E+00  0.85924046122E+03  0.85924046122E+03  0.00000000000E+00 0.  1.
         21   -1    0    0  501  503 -0.00000000000E+00 -0.00000000000E+00 -0.12587461486E+04  0.12587461486E+04  0.00000000000E+00 0.  1.
    9000010    2    1    2  501    0  0.17413111411E+03  0.22070375128E+03 -0.10857192804E+03  0.10382171745E+04  0.99351660636E+03 0.  0.
   -9000010    2    1    2    0  502 -0.17413111411E+03 -0.22070375128E+03 -0.29093375936E+03  0.10797694354E+04  0.10011132755E+04 0.  0.
        -13    1    3    3    0    0 -0.21605057166E+03 -0.28846554162E+03 -0.16073428121E+03  0.39462100620E+03  0.10566000000E+00 0.  1.
         13    1    4    4    0    0  0.40339980373E+03 -0.15272714918E+02 -0.22785149139E+03  0.46355255447E+03  0.10566000000E+00 0. -1.
          4    1    3    3  501    0  0.39018168577E+03  0.50916929290E+03  0.52162353171E+02  0.64359616828E+03  0.00000000000E+00 0.  1.
         -4    1    4    4    0  502 -0.57753091784E+03 -0.20543103636E+03 -0.63082267973E+02  0.61621688089E+03  0.00000000000E+00 0. -1.
</event>
<event>
 8    1  0.7008488E-006  0.1597167E+04  0.7818608E-02  0.8383017E-01
         21   -1    0    0  501  502  0.00000000000E+00  0.00000000000E+00  0.38842108241E+04  0.38842108241E+04  0.00000000000E+00 0. -1.
         21   -1    0    0  502  503 -0.00000000000E+00 -0.00000000000E+00 -0.59609242184E+03  0.59609242184E+03  0.00000000000E+00 0.  1.
   -9000010    2    1    2    0  503  0.85422436990E+03  0.49653847722E+03  0.11771507980E+04  0.18332054032E+04  0.99935394917E+03 0.  0.
    9000010    2    1    2  501    0 -0.85422436990E+03 -0.49653847722E+03  0.21109676042E+04  0.26470978427E+04  0.12548677337E+04 0.  0.
        -13    1    4    4    0    0 -0.85101032038E+03 -0.41057007532E+03  0.56949705038E+03  0.11032285591E+04  0.10566000000E+00 0.  1.
         13    1    3    3    0    0 -0.18079777991E+03  0.20434177816E+03  0.47819013042E+03  0.55055355009E+03  0.10566000000E+00 0. -1.
          4    1    4    4  501    0 -0.32140495217E+01 -0.85968401894E+02  0.15414705538E+04  0.15438692835E+04  0.00000000000E+00 0.  1.
         -4    1    3    3    0  503  0.10350221498E+04  0.29219669906E+03  0.69896066759E+03  0.12826518531E+04  0.00000000000E+00 0. -1.
</event>
<event>
 8    1  0.7008488E-006  0.1036031E+04  0.7818608E-02  0.8741722E-01
         21   -1    0    0  501  502  0.00000000000E+00  0.00000000000E+00  0.10331164948E+04  0.10331164948E+04  0.00000000000E+00 0.  1.
         21   -1    0    0  502  503 -0.00000000000E+00 -0.00000000000E+00 -0.10383335597E+04  0.10383335597E+04  0.00000000000E+00 0.  1.
   -9000010    2    1    2    0  503  0.24933103385E+03 -0.16788043654E+03 -0.26819890733E+02  0.10363778685E+04  0.99146859472E+03 0.  0.
    9000010    2    1    2  501    0 -0.24933103385E+03  0.16788043654E+03  0.21602825836E+02  0.10350721860E+04  0.99023125724E+03 0.  0.
        -13    1    4    4    0    0  0.27036347621E+03  0.22865104923E+03  0.28008726213E+03  0.45147159064E+03  0.10566000000E+00 0.  1.
         13    1    3    3    0    0 -0.22600897915E+03  0.25733274383E+02  0.33747396901E+03  0.40697782617E+03  0.10566000000E+00 0. -1.
          4    1    4    4  501    0 -0.51969451006E+03 -0.60770612684E+02 -0.25848443630E+03  0.58360059541E+03  0.00000000000E+00 0.  1.
         -4    1    3    3    0  503  0.47534001300E+03 -0.19361371093E+03 -0.36429385974E+03  0.62940004232E+03  0.00000000000E+00 0. -1.
</event>
<event>
 8    1  0.7008488E-006  0.1051757E+04  0.7818608E-02  0.8739094E-01
         21   -1    0    0  503  502  0.00000000000E+00  0.00000000000E+00  0.12777690569E+04  0.12777690569E+04  0.00000000000E+00 0.  1.
         21   -1    0    0  501  503 -0.00000000000E+00 -0.00000000000E+00 -0.82697317938E+03  0.82697317938E+03  0.00000000000E+00 0.  1.
    9000010    2    1    2  501    0 -0.19313430320E+03 -0.15157939949E+03  0.15572505709E+03  0.10123783330E+04  0.96973317068E+03 0.  0.
   -9000010    2    1    2    0  502  0.19313430320E+03  0.15157939949E+03  0.29507082040E+03  0.10923639033E+04  0.10226998263E+04 0.  0.
        -13    1    3    3    0    0 -0.44471871255E+03 -0.19974935913E+03  0.42061847480E+03  0.64389009332E+03  0.10566000000E+00 0.  1.
         13    1    4    4    0    0  0.19451981503E+03 -0.38468258471E+03 -0.79367832347E+02  0.43831257499E+03  0.10566000000E+00 0. -1.
          4    1    3    3  501    0  0.25158440935E+03  0.48169959643E+02 -0.26489341771E+03  0.36848823968E+03  0.00000000000E+00 0.  1.
         -4    1    4    4    0  502 -0.13855118245E+01  0.53626198419E+03  0.37443865274E+03  0.65405132826E+03  0.00000000000E+00 0. -1.
</event>
<event>
 8    1  0.7008488E-006  0.1036954E+04  0.7818608E-02  0.8743493E-01
         21   -1    0    0  503  502  0.00000000000E+00  0.00000000000E+00  0.10817896311E+04  0.10817896311E+04  0.00000000000E+00 0. -1.
         21   -1    0    0  501  503 -0.00000000000E+00 -0.00000000000E+00 -0.98188372978E+03  0.98188372978E+03  0.00000000000E+00 0. -1.
    9000010    2    1    2  501    0  0.23417207387E+03 -0.14979852896E+03  0.45598293598E+02  0.10379562373E+04  0.99899839180E+03 0.  0.
   -9000010    2    1    2    0  502 -0.23417207387E+03  0.14979852896E+03  0.54307607711E+02  0.10257171235E+04  0.98583474363E+03 0.  0.
        -13    1    3    3    0    0 -0.16569985259E+03 -0.17576828163E+03  0.42324728636E+03  0.48732864327E+03  0.10566000000E+00 0.  1.
         13    1    4    4    0    0 -0.26527406508E+03  0.46318149028E+03 -0.24854825426E+03  0.58879849558E+03  0.10566000000E+00 0. -1.
          4    1    3    3  501    0  0.39987192646E+03  0.25969752669E+02 -0.37764899277E+03  0.55062759408E+03  0.00000000000E+00 0.  1.
         -4    1    4    4    0  502  0.31101991209E+02 -0.31338296132E+03  0.30285586197E+03  0.43691862793E+03  0.00000000000E+00 0. -1.
</event>
<event>
 8    1  0.7008488E-006  0.1102426E+04  0.7818608E-02  0.8689315E-01
         21   -1    0    0  503  502  0.00000000000E+00  0.00000000000E+00  0.17499946161E+04  0.17499946161E+04  0.00000000000E+00 0. -1.
         21   -1    0    0  501  503 -0.00000000000E+00 -0.00000000000E+00 -0.68166642582E+03  0.68166642582E+03  0.00000000000E+00 0. -1.
    9000010    2    1    2  501    0  0.40336225180E+03  0.12913073409E+03  0.44414278563E+03  0.11647942818E+04  0.99000356172E+03 0.  0.
   -9000010    2    1    2    0  502 -0.40336225180E+03 -0.12913073409E+03  0.62418540470E+03  0.12668667602E+04  0.10178251893E+04 0.  0.
        -13    1    3    3    0    0  0.26607992741E+03  0.41300201793E+03  0.62988780035E+03  0.79882904728E+03  0.10566000000E+00 0.  1.
         13    1    4    4    0    0 -0.31004561013E+03 -0.48727167915E+03  0.44694761827E+02  0.57927506641E+03  0.10566000000E+00 0. -1.
          4    1    3    3  501    0  0.13728232439E+03 -0.28387128384E+03 -0.18574501472E+03  0.36596523452E+03  0.00000000000E+00 0.  1.
         -4    1    4    4    0  502 -0.93316641666E+02  0.35814094506E+03  0.57949064287E+03  0.68759169375E+03  0.00000000000E+00 0. -1.
</event>
<event>
 8    1  0.7008488E-006  0.1056073E+04  0.7818608E-02  0.8730722E-01
         21   -1    0    0  501  502  0.00000000000E+00  0.00000000000E+00  0.65693310730E+03  0.65693310730E+03  0.00000000000E+00 0. -1.
         21   -1    0    0  502  503 -0.00000000000E+00 -0.00000000000E+00 -0.16725664858E+04  0.16725664858E+04  0.00000000000E+00 0. -1.
   -9000010    2    1    2    0  503  0.19035630037E+03  0.96695183071E+02 -0.64414368040E+03  0.12099934459E+04  0.10017871923E+04 0.  0.
    9000010    2    1    2  501    0 -0.19035630037E+03 -0.96695183071E+02 -0.37148969810E+03  0.11195061472E+04  0.10342649266E+04 0.  0.
        -13    1    4    4    0    0  0.15339019810E+03  0.33647031461E+03 -0.42568626963E+03  0.56387023046E+03  0.10566000000E+00 0.  1.
         13    1    3    3    0    0 -0.28495475567E+03  0.22505234270E+03 -0.61822683262E+03  0.71697433529E+03  0.10566000000E+00 0. -1.
          4    1    4    4  501    0 -0.34374649847E+03 -0.43316549769E+03  0.54196571529E+02  0.55563591673E+03  0.00000000000E+00 0.  1.
         -4    1    3    3    0  503  0.47531105604E+03 -0.12835715963E+03 -0.25916847776E+02  0.49301911060E+03  0.00000000000E+00 0. -1.
</event>
<event>
 8    1  0.7008488E-006  0.1159886E+04  0.7818608E-02  0.8640027E-01
         21   -1    0    0  503  502  0.00000000000E+00  0.00000000000E+00  0.72958167502E+03  0.72958167502E+03  0.00000000000E+00 0. -1.
         21   -1    0    0  501  503 -0.00000000000E+00 -0.00000000000E+00 -0.18413508970E+04  0.18413508970E+04  0.00000000000E+00 0. -1.
    9000010    2    1    2  501    0 -0.20437894741E+03  0.53887672129E+03 -0.43025505398E+03  0.12371152488E+04  0.10065663677E+04 0.  0.
   -9000010    2    1    2    0  502  0.20437894741E+03 -0.53887672129E+03 -0.68151416795E+03  0.13338173231E+04  0.99118525790E+03 0.  0.
        -13    1    3    3    0    0  0.17067105257E+03 -0.19798467692E+03 -0.30364834200E+03  0.40066053866E+03  0.10566000000E+00 0.  1.
         13    1    4    4    0    0  0.25037431961E+03 -0.28100812376E+03  0.19154841254E+03  0.42230755505E+03  0.10566000000E+00 0. -1.
          4    1    3    3  501    0 -0.37504999998E+03  0.73686139821E+03 -0.12660671198E+03  0.83645471018E+03  0.00000000000E+00 0.  1.
         -4    1    4    4    0  502 -0.45995372203E+02 -0.25786859753E+03 -0.87306258049E+03  0.91150976809E+03  0.00000000000E+00 0. -1.
</event>
<event>
 8    1  0.7008488E-006  0.1057758E+04  0.7818608E-02  0.8723435E-01
         21   -1    0    0  501  502  0.00000000000E+00  0.00000000000E+00  0.15736034356E+04  0.15736034356E+04  0.00000000000E+00 0. -1.
         21   -1    0    0  502  503 -0.00000000000E+00 -0.00000000000E+00 -0.97402391599E+03  0.97402391599E+03  0.00000000000E+00 0. -1.
   -9000010    2    1    2    0  503 -0.77490922618E+02  0.32991129174E+03 -0.36648420600E+03  0.11194470968E+04  0.10020004121E+04 0.  0.
    9000010    2    1    2  501    0  0.77490922618E+02 -0.32991129174E+03  0.96606372565E+03  0.14281802548E+04  0.99577779383E+03 0.  0.
        -13    1    4    4    0    0  0.38389059173E+03  0.20506961426E+03  0.38900256538E+03  0.58373670447E+03  0.10566000000E+00 0.  1.
         13    1    3    3    0    0 -0.20500850310E+03  0.50950951445E+03 -0.58971022277E+03  0.80584526409E+03  0.10566000000E+00 0. -1.
          4    1    4    4  501    0 -0.30639966911E+03 -0.53498090600E+03  0.57706116027E+03  0.84444355034E+03  0.00000000000E+00 0.  1.
         -4    1    3    3    0  503  0.12751758048E+03 -0.17959822271E+03  0.22322601677E+03  0.31360183273E+03  0.00000000000E+00 0. -1.
</event>
<event>
 8    1  0.7008488E-006  0.1190306E+04  0.7818608E-02  0.8615609E-01
         21   -1    0    0  501  502  0.00000000000E+00  0.00000000000E+00  0.10747955687E+04  0.10747955687E+04  0.00000000000E+00 0. -1.
         21   -1    0    0  502  503 -0.00000000000E+00 -0.00000000000E+00 -0.17836075132E+04  0.17836075132E+04  0.00000000000E+00 0. -1.
   -9000010    2    1    2    0  503  0.59875158194E+03  0.17855606225E+03 -0.10931567360E+04  0.16161126420E+04  0.10131350837E+04 0.  0.
    9000010    2    1    2  501    0 -0.59875158194E+03 -0.17855606225E+03  0.38434479154E+03  0.12422904400E+04  0.10025861031E+04 0.  0.
        -13    1    4    4    0    0 -0.65259188514E+03  0.19717331298E+03 -0.27409221527E+02  0.68227909282E+03  0.10566000000E+00 0.  1.
         13    1    3    3    0    0  0.42816353705E+03  0.48821409388E+03 -0.23946758836E+03  0.69211397396E+03  0.10566000000E+00 0. -1.
          4    1    4    4  501    0  0.53840303203E+02 -0.37572937523E+03  0.41175401306E+03  0.56001134715E+03  0.00000000000E+00 0.  1.
         -4    1    3    3    0  503  0.17058804489E+03 -0.30965803163E+03 -0.85368914767E+03  0.92399866800E+03  0.00000000000E+00 0. -1.
</event>
<event>
 8    1  0.7008488E-006  0.1151532E+04  0.7818608E-02  0.8645052E-01
         21   -1    0    0  501  502  0.00000000000E+00  0.00000000000E+00  0.18042997817E+04  0.18042997817E+04  0.00000000000E+00 0. -1.
         21   -1    0    0  502  503 -0.00000000000E+00 -0.00000000000E+00 -0.11640710598E+04  0.11640710598E+04  0.00000000000E+00 0. -1.
   -9000010    2    1    2    0  503 -0.57394942340E+03 -0.41055345941E+02 -0.58417396299E+03  0.12912339842E+04  0.99745801964E+03 0.  0.
    9000010    2    1    2  501    0  0.57394942340E+03  0.41055345941E+02  0.12244026849E+04  0.16771368572E+04  0.99122279082E+03 0.  0.
        -13    1    4    4    0    0  0.22297227913E+03 -0.11490583074E+03  0.12661940350E+04  0.12908010430E+04  0.10566000000E+00 0.  1.
         13    1    3    3    0    0 -0.91231797705E+02 -0.15589622186E+02  0.28337376967E+03  0.29810565532E+03  0.10566000000E+00 0. -1.
          4    1    4    4  501    0  0.35097714427E+03  0.15596117668E+03 -0.41791350071E+02  0.38633581425E+03  0.00000000000E+00 0.  1.
         -4    1    3    3    0  503 -0.48271762569E+03 -0.25465723755E+02 -0.86754773266E+03  0.99312832891E+03  0.00000000000E+00 0. -1.
</event>
<event>
 8    1  0.7008488E-006  0.1337053E+04  0.7818608E-02  0.8511247E-01
         21   -1    0    0  501  502  0.00000000000E+00  0.00000000000E+00  0.23743524524E+04  0.23743524524E+04  0.00000000000E+00 0. -1.
         21   -1    0    0  502  503 -0.00000000000E+00 -0.00000000000E+00 -0.87075746800E+03  0.87075746800E+03  0.00000000000E+00 0.  1.
   -9000010    2    1    2    0  503  0.27033841032E+03  0.83019408223E+03  0.14569243256E+03  0.13449670370E+04  0.10126228199E+04 0.  0.
    9000010    2    1    2  501    0 -0.27033841032E+03 -0.83019408223E+03  0.13579025518E+04  0.19001428834E+04  0.10021669356E+04 0.  0.
        -13    1    4    4    0    0 -0.85596876680E+02 -0.10120402732E+04  0.12705264610E+04  0.16265884050E+04  0.10566000000E+00 0.  1.
         13    1    3    3    0    0 -0.64772978973E+02  0.81743795301E+03  0.41111335734E+03  0.91728651444E+03  0.10566000000E+00 0. -1.
          4    1    4    4  501    0 -0.18474153364E+03  0.18184619096E+03  0.87376090817E+02  0.27355447842E+03  0.00000000000E+00 0.  1.
         -4    1    3    3    0  503  0.33511138929E+03  0.12756129223E+02 -0.26542092477E+03  0.42768052255E+03  0.00000000000E+00 0. -1.
</event>
<event>
 8    1  0.7008488E-006  0.1082426E+04  0.7818608E-02  0.8706319E-01
         21   -1    0    0  503  502  0.00000000000E+00  0.00000000000E+00  0.83990799670E+03  0.83990799670E+03  0.00000000000E+00 0.  1.
         21   -1    0    0  501  503 -0.00000000000E+00 -0.00000000000E+00 -0.14076362557E+04  0.14076362557E+04  0.00000000000E+00 0.  1.
    9000010    2    1    2  501    0 -0.52763137041E+02  0.41333075958E+03 -0.48916364298E+03  0.11878249487E+04  0.99900989669E+03 0.  0.
   -9000010    2    1    2    0  502  0.52763137041E+02 -0.41333075958E+03 -0.78564615990E+02  0.10597193037E+04  0.97118810651E+03 0.  0.
        -13    1    3    3    0    0  0.32601840684E+03  0.10987875751E+02  0.13602590492E+03  0.35342862502E+03  0.10566000000E+00 0.  1.
         13    1    4    4    0    0  0.33434473241E+03 -0.62115932182E+03 -0.78196038019E+02  0.70974638759E+03  0.10566000000E+00 0. -1.
          4    1    3    3  501    0 -0.37878154388E+03  0.40234288383E+03 -0.62518954790E+03  0.83439632367E+03  0.00000000000E+00 0.  1.
         -4    1    4    4    0  502 -0.28158159537E+03  0.20782856224E+03 -0.36857797087E+00  0.34997291607E+03  0.00000000000E+00 0. -1.
</event>
<event>
 8    1  0.7008488E-006  0.1110978E+04  0.7818608E-02  0.8677973E-01
         21   -1    0    0  501  502  0.00000000000E+00  0.00000000000E+00  0.59029327491E+03  0.59029327491E+03  0.00000000000E+00 0. -1.
         21   -1    0    0  502  503 -0.00000000000E+00 -0.00000000000E+00 -0.20852335993E+04  0.20852335993E+04  0.00000000000E+00 0. -1.
   -9000010    2    1    2    0  503 -0.23094249337E+02  0.50595844081E+03 -0.81480971775E+03  0.13777472030E+04  0.98880998732E+03 0.  0.
    9000010    2    1    2  501    0  0.23094249337E+02 -0.50595844081E+03 -0.68013060664E+03  0.12977796712E+04  0.98240884807E+03 0.  0.
        -13    1    4    4    0    0  0.29208572667E+03 -0.58935972878E+03 -0.75993438668E+03  0.10050667863E+04  0.10566000000E+00 0.  1.
         13    1    3    3    0    0 -0.43431101495E+03  0.44691211855E+03 -0.23839077592E+03  0.66722310558E+03  0.10566000000E+00 0. -1.
          4    1    4    4  501    0 -0.26899147733E+03  0.83401287966E+02  0.79803780041E+02  0.29271288496E+03  0.00000000000E+00 0.  1.
         -4    1    3    3    0  503  0.41121676561E+03  0.59046322266E+02 -0.57641894184E+03  0.71052409741E+03  0.00000000000E+00 0. -1.
</event>
<event>
 8    1  0.7008488E-006  0.1193956E+04  0.7818608E-02  0.8622946E-01
         21   -1    0    0  501  502  0.00000000000E+00  0.00000000000E+00  0.83191282782E+03  0.83191282782E+03  0.00000000000E+00 0. -1.
         21   -1    0    0  502  503 -0.00000000000E+00 -0.00000000000E+00 -0.17291403499E+04  0.17291403499E+04  0.00000000000E+00 0. -1.
   -9000010    2    1    2    0  503  0.53601547350E+03  0.75315842273E+02 -0.74790713572E+03  0.13577962250E+04  0.99562063113E+03 0.  0.
    9000010    2    1    2  501    0 -0.53601547350E+03 -0.75315842273E+02 -0.14932038639E+03  0.12032569527E+04  0.10642112819E+04 0.  0.
        -13    1    4    4    0    0 -0.54367645135E+02 -0.43769955977E+03  0.22356772671E+03  0.49448891297E+03  0.10566000000E+00 0.  1.
         13    1    3    3    0    0 -0.11080863569E+02  0.31249725760E+03 -0.69140743283E+03  0.75882907883E+03  0.10566000000E+00 0. -1.
          4    1    4    4  501    0 -0.48164782837E+03  0.36238371750E+03 -0.37288811310E+03  0.70876803975E+03  0.00000000000E+00 0.  1.
         -4    1    3    3    0  503  0.54709633707E+03 -0.23718141532E+03 -0.56499702895E+02  0.59896714621E+03  0.00000000000E+00 0. -1.
</event>
<event>
 8    1  0.7008488E-006  0.1305080E+04  0.7818608E-02  0.8533406E-01
         21   -1    0    0  503  502  0.00000000000E+00  0.00000000000E+00  0.12812904911E+04  0.12812904911E+04  0.00000000000E+00 0.  1.
         21   -1    0    0  501  503 -0.00000000000E+00 -0.00000000000E+00 -0.13538428755E+04  0.13538428755E+04  0.00000000000E+00 0. -1.
    9000010    2    1    2  501    0  0.67431423352E+03  0.49907145568E+03  0.18023672225E+03  0.13174671667E+04  0.99973119181E+03 0.  0.
   -9000010    2    1    2    0  502 -0.67431423352E+03 -0.49907145568E+03 -0.25278910667E+03  0.13176661999E+04  0.98415947822E+03 0.  0.
        -13    1    3    3    0    0  0.29768760611E+02 -0.27417540968E+03 -0.60688492325E+02  0.28238526634E+03  0.10566000000E+00 0.  1.
         13    1    4    4    0    0  0.22380421699E+02  0.21651322589E+03  0.12367331033E+03  0.25034767646E+03  0.10566000000E+00 0. -1.
          4    1    3    3  501    0  0.64454547291E+03  0.77324686536E+03  0.24092521458E+03  0.10350819004E+04  0.00000000000E+00 0.  1.
         -4    1    4    4    0  502 -0.69669465522E+03 -0.71558468156E+03 -0.37646241700E+03  0.10673185235E+04  0.00000000000E+00 0. -1.
</event>
<event>
 8    1  0.7008488E-006  0.1538215E+04  0.7818608E-02  0.8405938E-01
         21   -1    0    0  501  502  0.00000000000E+00  0.00000000000E+00  0.15683994500E+04  0.15683994500E+04  0.00000000000E+00 0.  1.
         21   -1    0    0  502  503 -0.00000000000E+00 -0.00000000000E+00 -0.14099508745E+04  0.14099508745E+04  0.00000000000E+00 0.  1.
   -9000010    2    1    2    0  503 -0.98330923768E+03  0.12950134056E+03  0.25580334868E+03  0.14370572526E+04  0.10079834026E+04 0.  0.
    9000010    2    1    2  501    0  0.98330923768E+03 -0.12950134056E+03 -0.97354773152E+02  0.15412930719E+04  0.11757715457E+04 0.  0.
        -13    1    4    4    0    0  0.86568883705E+03  0.90478678091E+02  0.42037524194E+03  0.96660173235E+03  0.10566000000E+00 0.  1.
         13    1    3    3    0    0 -0.45332334039E+03  0.48253203010E+03 -0.15405603734E+03  0.67975913736E+03  0.10566000000E+00 0. -1.
          4    1    4    4  501    0  0.11762040063E+03 -0.21998001865E+03 -0.51773001509E+03  0.57469133957E+03  0.00000000000E+00 0.  1.
         -4    1    3    3    0  503 -0.52998589729E+03 -0.35303068954E+03  0.40985938602E+03  0.75729811527E+03  0.00000000000E+00 0. -1.
</event>
<event>
 8    1  0.7008488E-006  0.1152646E+04  0.7818608E-02  0.8660801E-01
         21   -1    0    0  503  502  0.00000000000E+00  0.00000000000E+00  0.20321682503E+04  0.20321682503E+04  0.00000000000E+00 0.  1.
         21   -1    0    0  501  503 -0.00000000000E+00 -0.00000000000E+00 -0.61456100105E+03  0.61456100105E+03  0.00000000000E+00 0.  1.
    9000010    2    1    2  501    0 -0.32490151161E+03  0.13060081207E+03  0.57910261304E+03  0.12899431766E+04  0.10981693850E+04 0.  0.
   -9000010    2    1    2    0  502  0.32490151161E+03 -0.13060081207E+03  0.83850463622E+03  0.13567860747E+04  0.10075519159E+04 0.  0.
        -13    1    3    3    0    0  0.11742028000E+03 -0.66967016641E+02  0.76067643205E+03  0.77259352114E+03  0.10566000000E+00 0.  1.
         13    1    4    4    0    0  0.65712073971E+03 -0.10739142911E+03  0.76786994195E+03  0.10163487809E+04  0.10566000000E+00 0. -1.
          4    1    3    3  501    0 -0.44232179161E+03  0.19756782871E+03 -0.18157381901E+03  0.51734965548E+03  0.00000000000E+00 0.  1.
         -4    1    4    4    0  502 -0.33221922811E+03 -0.23209382964E+02  0.70634694275E+02  0.34043729381E+03  0.00000000000E+00 0. -1.
</event>
<event>
 8    1  0.7008488E-006  0.1179638E+04  0.7818608E-02  0.8625809E-01
         21   -1    0    0  503  502  0.00000000000E+00  0.00000000000E+00  0.16633454217E+04  0.16633454217E+04  0.00000000000E+00 0. -1.
         21   -1    0    0  501  503 -0.00000000000E+00 -0.00000000000E+00 -0.82519307759E+03  0.82519307759E+03  0.00000000000E+00 0. -1.
    9000010    2    1    2  501    0  0.27803167802E+03 -0.53916621446E+03  0.48089225172E+03  0.12559882883E+04  0.98906390179E+03 0.  0.
   -9000010    2    1    2    0  502 -0.27803167802E+03  0.53916621446E+03  0.35726009235E+03  0.12325502109E+04  0.10117032312E+04 0.  0.
        -13    1    3    3    0    0  0.63917644154E+03 -0.34714857425E+03  0.18312652283E+03  0.75006265775E+03  0.10566000000E+00 0.  1.
         13    1    4    4    0    0 -0.50820731559E+03  0.65545061939E+03  0.46752162361E+03  0.95208543198E+03  0.10566000000E+00 0. -1.
          4    1    3    3  501    0 -0.36114476352E+03 -0.19201764021E+03  0.29776572888E+03  0.50592563057E+03  0.00000000000E+00 0.  1.
         -4    1    4    4    0  502  0.23017563756E+03 -0.11628440494E+03 -0.11026153126E+03  0.28046477896E+03  0.00000000000E+00 0. -1.
</event>
<event>
 8    1  0.7008488E-006  0.1431822E+04  0.7818608E-02  0.8451830E-01
         21   -1    0    0  501  502  0.00000000000E+00  0.00000000000E+00  0.12024329332E+04  0.12024329332E+04  0.00000000000E+00 0.  1.
         21   -1    0    0  502  503 -0.00000000000E+00 -0.00000000000E+00 -0.18789100164E+04  0.18789100164E+04  0.00000000000E+00 0.  1.
   -9000010    2    1    2    0  503  0.35779638342E+03  0.96125542019E+03 -0.82867727066E+03  0.16543337165E+04  0.99904143650E+03 0.  0.
    9000010    2    1    2  501    0 -0.35779638342E+03 -0.96125542019E+03  0.15220018747E+03  0.14270092332E+04  0.98038779047E+03 0.  0.
        -13    1    4    4    0    0 -0.56170438535E+03 -0.97071001389E+03 -0.71978420614E+02  0.11238196705E+04  0.10566000000E+00 0.  1.
         13    1    3    3    0    0 -0.33970099088E+03  0.36134397903E+03 -0.41030729215E+03  0.64367563224E+03  0.10566000000E+00 0. -1.
          4    1    4    4  501    0  0.20390800194E+03  0.94545937059E+01  0.22417860809E+03  0.30318956268E+03  0.00000000000E+00 0.  1.
         -4    1    3    3    0  503  0.69749737430E+03  0.59991144116E+03 -0.41836997852E+03  0.10106580843E+04  0.00000000000E+00 0. -1.
</event>
<event>
 8    1  0.7008488E-006  0.1099272E+04  0.7818608E-02  0.8686576E-01
         21   -1    0    0  501  502  0.00000000000E+00  0.00000000000E+00  0.11761700411E+04  0.11761700411E+04  0.00000000000E+00 0. -1.
         21   -1    0    0  502  503 -0.00000000000E+00 -0.00000000000E+00 -0.10272702299E+04  0.10272702299E+04  0.00000000000E+00 0. -1.
   -9000010    2    1    2    0  503 -0.51332616737E+02  0.46483658237E+03  0.81783917921E+02  0.11023105907E+04  0.99483262076E+03 0.  0.
    9000010    2    1    2  501    0  0.51332616737E+02 -0.46483658237E+03  0.67115893302E+02  0.11011296803E+04  0.99462251323E+03 0.  0.
        -13    1    4    4    0    0 -0.36717927112E+03  0.20002710316E+02  0.23826989973E+03  0.43817037993E+03  0.10566000000E+00 0.  1.
         13    1    3    3    0    0  0.38608035125E+03  0.27370367015E+03  0.31754184743E+03  0.56991628570E+03  0.10566000000E+00 0. -1.
          4    1    4    4  501    0  0.41851188786E+03 -0.48483929269E+03 -0.17115400643E+03  0.66295930036E+03  0.00000000000E+00 0.  1.
         -4    1    3    3    0  503 -0.43741296798E+03  0.19113291222E+03 -0.23575792951E+03  0.53239430502E+03  0.00000000000E+00 0. -1.
</event>
<event>
 8    1  0.7008488E-006  0.1399838E+04  0.7818608E-02  0.8470111E-01
         21   -1    0    0  501  502  0.00000000000E+00  0.00000000000E+00  0.10767385432E+04  0.10767385432E+04  0.00000000000E+00 0.  1.
         21   -1    0    0  502  503 -0.00000000000E+00 -0.00000000000E+00 -0.19284457776E+04  0.19284457776E+04  0.00000000000E+00 0. -1.
   -9000010    2    1    2    0  503 -0.77028974925E+03 -0.58048746087E+03 -0.62685457085E+02  0.14012405881E+04  0.10145115717E+04 0.  0.
    9000010    2    1    2  501    0  0.77028974925E+03  0.58048746087E+03 -0.78902177734E+03  0.16039437328E+04  0.10098357009E+04 0.  0.
        -13    1    4    4    0    0 -0.93059746931E+02  0.44333304477E+03 -0.51927812599E+03  0.68909657405E+03  0.10566000000E+00 0.  1.
         13    1    3    3    0    0 -0.57491372914E+03  0.56528007149E+02  0.29104766336E+03  0.64686162744E+03  0.10566000000E+00 0. -1.
          4    1    4    4  501    0  0.86334949619E+03  0.13715441610E+03 -0.26974365136E+03  0.91484715875E+03  0.00000000000E+00 0.  1.
         -4    1    3    3    0  503 -0.19537602011E+03 -0.63701546802E+03 -0.35373312044E+03  0.75437896062E+03  0.00000000000E+00 0. -1.
</event>
<event>
 8    1  0.7008488E-006  0.1117099E+04  0.7818608E-02  0.8679924E-01
         21   -1    0    0  501  502  0.00000000000E+00  0.00000000000E+00  0.68038149242E+03  0.68038149242E+03  0.00000000000E+00 0. -1.
         21   -1    0    0  502  503 -0.00000000000E+00 -0.00000000000E+00 -0.17901558956E+04  0.17901558956E+04  0.00000000000E+00 0. -1.
   -9000010    2    1    2    0  503  0.31423075500E+03  0.20763040432E+03 -0.67441276665E+03  0.12716000132E+04  0.10100904224E+04 0.  0.
    9000010    2    1    2  501    0 -0.31423075500E+03 -0.20763040432E+03 -0.43536163650E+03  0.11989373748E+04  0.10516937397E+04 0.  0.
        -13    1    4    4    0    0 -0.20712062019E+03 -0.12676929954E+03  0.33679139258E+03  0.41520821270E+03  0.10566000000E+00 0.  1.
         13    1    3    3    0    0  0.57156201100E+02  0.21157930513E+03  0.23806900125E+03  0.32358846427E+03  0.10566000000E+00 0. -1.
          4    1    4    4  501    0 -0.10711013481E+03 -0.80861104784E+02 -0.77215302908E+03  0.78372916212E+03  0.00000000000E+00 0.  1.
         -4    1    3    3    0  503  0.25707455391E+03 -0.39489008086E+01 -0.91248176790E+03  0.94801154889E+03  0.00000000000E+00 0. -1.
</event>
<event>
 8    1  0.7008488E-006  0.1062652E+04  0.7818608E-02  0.8718573E-01
         21   -1    0    0  501  502  0.00000000000E+00  0.00000000000E+00  0.12695927072E+04  0.12695927072E+04  0.00000000000E+00 0.  1.
         21   -1    0    0  502  503 -0.00000000000E+00 -0.00000000000E+00 -0.13004007968E+04  0.13004007968E+04  0.00000000000E+00 0.  1.
   -9000010    2    1    2    0  503  0.34374612541E+03  0.98191077310E+02 -0.74021312448E+03  0.12950464793E+04  0.10007132594E+04 0.  0.
    9000010    2    1    2  501    0 -0.34374612541E+03 -0.98191077310E+02  0.70940503490E+03  0.12749470247E+04  0.99721187616E+03 0.  0.
        -13    1    4    4    0    0 -0.59827423234E+03 -0.35638087126E+03  0.48354993038E+03  0.84779710357E+03  0.10566000000E+00 0.  1.
         13    1    3    3    0    0  0.13183223869E+03 -0.18626118848E+03  0.19162347562E+03  0.29798076627E+03  0.10566000000E+00 0. -1.
          4    1    4    4  501    0  0.25452810693E+03  0.25818979395E+03  0.22585510452E+03  0.42714992117E+03  0.00000000000E+00 0.  1.
         -4    1    3    3    0  503  0.21191388672E+03  0.28445226579E+03 -0.93183660010E+03  0.99706571308E+03  0.00000000000E+00 0. -1.
</event>
<event>
 8    1  0.7008488E-006  0.1162003E+04  0.7818608E-02  0.8640609E-01
         21   -1    0    0  501  502  0.00000000000E+00  0.00000000000E+00  0.80853725402E+03  0.80853725402E+03  0.00000000000E+00 0.  1.
         21   -1    0    0  502  503 -0.00000000000E+00 -0.00000000000E+00 -0.16734037283E+04  0.16734037283E+04  0.00000000000E+00 0.  1.
   -9000010    2    1    2    0  503  0.49408463683E+03  0.30276173402E+03 -0.62539364586E+03  0.13196092683E+04  0.10072075818E+04 0.  0.
    9000010    2    1    2  501    0 -0.49408463683E+03 -0.30276173402E+03 -0.23947282843E+03  0.11623317140E+04  0.97871522004E+03 0.  0.
        -13    1    4    4    0    0 -0.31776025702E+03  0.33645241740E+03 -0.18008231999E+03  0.49658983402E+03  0.10566000000E+00 0.  1.
         13    1    3    3    0    0 -0.27128993575E+03 -0.79685419474E+02 -0.27689289744E+03  0.39574952070E+03  0.10566000000E+00 0. -1.
          4    1    4    4  501    0 -0.17632437982E+03 -0.63921415143E+03 -0.59390508447E+02  0.66574188001E+03  0.00000000000E+00 0.  1.
         -4    1    3    3    0  503  0.76537457259E+03  0.38244715350E+03 -0.34850074842E+03  0.92385974760E+03  0.00000000000E+00 0. -1.
</event>
<event>
 8    1  0.7008488E-006  0.1046716E+04  0.7818608E-02  0.8739670E-01
         21   -1    0    0  501  502  0.00000000000E+00  0.00000000000E+00  0.10599538166E+04  0.10599538166E+04  0.00000000000E+00 0. -1.
         21   -1    0    0  502  503 -0.00000000000E+00 -0.00000000000E+00 -0.10293061848E+04  0.10293061848E+04  0.00000000000E+00 0. -1.
   -9000010    2    1    2    0  503  0.30628733554E+03  0.12635978556E+03 -0.16121519697E+03  0.10251053414E+04  0.95659390231E+03 0.  0.
    9000010    2    1    2  501    0 -0.30628733554E+03 -0.12635978556E+03  0.19186282879E+03  0.10641546600E+04  0.99289227409E+03 0.  0.
        -13    1    4    4    0    0  0.28311416930E+03  0.22090504422E+03  0.10769121685E+03  0.37490009439E+03  0.10566000000E+00 0.  1.
         13    1    3    3    0    0  0.14017627428E+03  0.54239400586E+03 -0.13566218858E+03  0.57640687543E+03  0.10566000000E+00 0. -1.
          4    1    4    4  501    0 -0.58940150484E+03 -0.34726482978E+03  0.84171611942E+02  0.68925456558E+03  0.00000000000E+00 0.  1.
         -4    1    3    3    0  503  0.16611106126E+03 -0.41603422030E+03 -0.25553008390E+02  0.44869846598E+03  0.00000000000E+00 0. -1.
</event>
<event>
 8    1  0.7008488E-006  0.1660622E+04  0.7818608E-02  0.8325555E-01
         21   -1    0    0  503  502  0.00000000000E+00  0.00000000000E+00  0.28091042508E+04  0.28091042508E+04  0.00000000000E+00 0.  1.
         21   -1    0    0  501  503 -0.00000000000E+00 -0.00000000000E+00 -0.13793116139E+04  0.13793116139E+04  0.00000000000E+00 0. -1.
    9000010    2    1    2  501    0  0.42135155759E+03 -0.12404442791E+04 -0.42493521643E+03  0.17141279122E+04  0.10205025313E+04 0.  0.
   -9000010    2    1    2    0  502 -0.42135155759E+03  0.12404442791E+04  0.18547278533E+04  0.24742879526E+04  0.98277480523E+03 0.  0.
        -13    1    3    3    0    0  0.51680784333E+03 -0.85827956192E+03  0.15426731641E+03  0.10136728118E+04  0.10566000000E+00 0.  1.
         13    1    4    4    0    0 -0.34604716749E+03  0.13779315221E+04  0.14053887275E+04  0.19983897038E+04  0.10566000000E+00 0. -1.
          4    1    3    3  501    0 -0.95456285737E+02 -0.38216471717E+03 -0.57920253284E+03  0.70045510034E+03  0.00000000000E+00 0.  1.
         -4    1    4    4    0  502 -0.75304390107E+02 -0.13748724304E+03  0.44933912586E+03  0.47589824879E+03  0.00000000000E+00 0. -1.
</event>
<event>
 8    1  0.7008488E-006  0.1123301E+04  0.7818608E-02  0.8674659E-01
         21   -1    0    0  501  502  0.00000000000E+00  0.00000000000E+00  0.11184865468E+04  0.11184865468E+04  0.00000000000E+00 0.  1.
         21   -1    0    0  502  503 -0.00000000000E+00 -0.00000000000E+00 -0.10917213558E+04  0.10917213558E+04  0.00000000000E+00 0.  1.
   -9000010    2    1    2    0  503 -0.25878271574E+03  0.34406566435E+03 -0.32624933249E+02  0.10853378283E+04  0.99576309422E+03 0.  0.
    9000010    2    1    2  501    0  0.25878271574E+03 -0.34406566435E+03  0.59390124222E+02  0.11248700743E+04  0.10375238898E+04 0.  0.
        -13    1    4    4    0    0  0.38301876269E+03  0.61879260285E+02 -0.35916208811E+03  0.52870580868E+03  0.10566000000E+00 0.  1.
         13    1    3    3    0    0  0.80738848399E+02  0.12780790119E+02 -0.44764488626E+03  0.45504732237E+03  0.10566000000E+00 0. -1.
          4    1    4    4  501    0 -0.12423604696E+03 -0.40594492464E+03  0.41855221233E+03  0.59616426566E+03  0.00000000000E+00 0.  1.
         -4    1    3    3    0  503 -0.33952156413E+03  0.33128487423E+03  0.41501995301E+03  0.63029050588E+03  0.00000000000E+00 0. -1.
</event>
<event>
 8    1  0.7008488E-006  0.1067741E+04  0.7818608E-02  0.8714596E-01
         21   -1    0    0  501  502  0.00000000000E+00  0.00000000000E+00  0.93491690654E+03  0.93491690654E+03  0.00000000000E+00 0.  1.
         21   -1    0    0  502  503 -0.00000000000E+00 -0.00000000000E+00 -0.12138986201E+04  0.12138986201E+04  0.00000000000E+00 0.  1.
   -9000010    2    1    2    0  503  0.35868687114E+03 -0.98422433109E+02 -0.11564678350E+03  0.10739855046E+04  0.10008633466E+04 0.  0.
    9000010    2    1    2  501    0 -0.35868687114E+03  0.98422433109E+02 -0.16333493004E+03  0.10748300220E+04  0.99510704452E+03 0.  0.
        -13    1    4    4    0    0 -0.27901355000E+03  0.40406057614E+03  0.25289155573E+03  0.55232930431E+03  0.10566000000E+00 0.  1.
         13    1    3    3    0    0  0.48883924690E+03 -0.13354081983E+03 -0.47228956401E+03  0.69271523969E+03  0.10566000000E+00 0. -1.
          4    1    4    4  501    0 -0.79673321139E+02 -0.30563814303E+03 -0.41622648577E+03  0.52250071774E+03  0.00000000000E+00 0.  1.
         -4    1    3    3    0  503 -0.13015237576E+03  0.35118386719E+02  0.35664278050E+03  0.38127026489E+03  0.00000000000E+00 0. -1.
</event>
<event>
 8    1  0.7008488E-006  0.1047745E+04  0.7818608E-02  0.8732118E-01
         21   -1    0    0  503  502  0.00000000000E+00  0.00000000000E+00  0.19419880051E+04  0.19419880051E+04  0.00000000000E+00 0. -1.
         21   -1    0    0  501  503 -0.00000000000E+00 -0.00000000000E+00 -0.56417919973E+03  0.56417919973E+03  0.00000000000E+00 0. -1.
    9000010    2    1    2  501    0 -0.15995187861E+03 -0.25751212779E+03  0.75840816750E+03  0.12934269378E+04  0.10029322985E+04 0.  0.
   -9000010    2    1    2    0  502  0.15995187861E+03  0.25751212779E+03  0.61940063788E+03  0.12127402671E+04  0.99758944750E+03 0.  0.
        -13    1    3    3    0    0 -0.39853511015E+03 -0.29323009732E+03  0.89025033044E+03  0.10185086087E+04  0.10566000000E+00 0.  1.
         13    1    4    4    0    0  0.82235744001E+02  0.62249153555E+03  0.54672703713E+03  0.83256765114E+03  0.10566000000E+00 0. -1.
          4    1    3    3  501    0  0.23858323155E+03  0.35717969531E+02 -0.13184216294E+03  0.27491832906E+03  0.00000000000E+00 0.  1.
         -4    1    4    4    0  502  0.77716134607E+02 -0.36497940776E+03  0.72673600755E+02  0.38017261595E+03  0.00000000000E+00 0. -1.
</event>
<event>
 8    1  0.7008488E-006  0.1418263E+04  0.7818608E-02  0.8481377E-01
         21   -1    0    0  501  502  0.00000000000E+00  0.00000000000E+00  0.29222790275E+04  0.29222790275E+04  0.00000000000E+00 0. -1.
         21   -1    0    0  502  503 -0.00000000000E+00 -0.00000000000E+00 -0.72424153405E+03  0.72424153405E+03  0.00000000000E+00 0. -1.
   -9000010    2    1    2    0  503 -0.73246797221E+03  0.28133586747E+03  0.36070224187E+03  0.13254707601E+04  0.10055383772E+04 0.  0.
    9000010    2    1    2  501    0  0.73246797221E+03 -0.28133586747E+03  0.18373352516E+04  0.23210498014E+04  0.11814449430E+04 0.  0.
        -13    1    4    4    0    0  0.87136504201E+03  0.18748672810E+03  0.14281498536E+04  0.16834608178E+04  0.10566000000E+00 0.  1.
         13    1    3    3    0    0  0.41194131432E+02 -0.11211520114E+03 -0.24125186209E+03  0.26920112726E+03  0.10566000000E+00 0. -1.
          4    1    4    4  501    0 -0.13889706980E+03 -0.46882259557E+03  0.40918539800E+03  0.63758898363E+03  0.00000000000E+00 0.  1.
         -4    1    3    3    0  503 -0.77366210364E+03  0.39345106861E+03  0.60195410396E+03  0.10562696328E+04  0.00000000000E+00 0. -1.
</event>
<event>
 8    1  0.7008488E-006  0.1135475E+04  0.7818608E-02  0.8661827E-01
         21   -1    0    0  501  502  0.00000000000E+00  0.00000000000E+00  0.10092843824E+04  0.10092843824E+04  0.00000000000E+00 0.  1.
         21   -1    0    0  502  503 -0.00000000000E+00 -0.00000000000E+00 -0.12503352897E+04  0.12503352897E+04  0.00000000000E+00 0.  1.
   -9000010    2    1    2    0  503  0.19226979296E+03 -0.48496572078E+03 -0.99306723471E+02  0.11398094088E+04  0.10085356907E+04 0.  0.
    9000010    2    1    2  501    0 -0.19226979296E+03  0.48496572078E+03 -0.14174418379E+03  0.11198102633E+04  0.98067537368E+03 0.  0.
        -13    1    4    4    0    0  0.10732710314E+03  0.13943032418E+03  0.38435812233E+03  0.42271870048E+03  0.10566000000E+00 0.  1.
         13    1    3    3    0    0  0.24369681590E+03 -0.20970190010E+03 -0.53365536108E+03  0.62301772091E+03  0.10566000000E+00 0. -1.
          4    1    4    4  501    0 -0.29959689610E+03  0.34553539660E+03 -0.52610230612E+03  0.69709156282E+03  0.00000000000E+00 0.  1.
         -4    1    3    3    0  503 -0.51427022941E+02 -0.27526382068E+03  0.43434863761E+03  0.51679168788E+03  0.00000000000E+00 0. -1.
</event>
<event>
 8    1  0.7008488E-006  0.1176842E+04  0.7818608E-02  0.8625643E-01
         21   -1    0    0  501  502  0.00000000000E+00  0.00000000000E+00  0.19588633276E+04  0.19588633276E+04  0.00000000000E+00 0. -1.
         21   -1    0    0  502  503 -0.00000000000E+00 -0.00000000000E+00 -0.78024581164E+03  0.78024581164E+03  0.00000000000E+00 0. -1.
   -9000010    2    1    2    0  503  0.39203822188E+03 -0.45577963855E+03  0.15550573249E+03  0.11797134867E+04  0.10030517592E+04 0.  0.
    9000010    2    1    2  501    0 -0.39203822188E+03  0.45577963855E+03  0.10231117834E+04  0.15593956525E+04  0.10116956228E+04 0.  0.
        -13    1    4    4    0    0 -0.34140382759E+03  0.34777077751E+03 -0.40587873715E+02  0.48902809105E+03  0.10566000000E+00 0.  1.
         13    1    3    3    0    0  0.38585516737E+03 -0.70873671192E+03  0.33054390112E+03  0.87203854200E+03  0.10566000000E+00 0. -1.
          4    1    4    4  501    0 -0.50634394288E+02  0.10800886105E+03  0.10636996572E+04  0.10703675614E+04  0.00000000000E+00 0.  1.
         -4    1    3    3    0  503  0.61830545119E+01  0.25295707336E+03 -0.17503816863E+03  0.30767494472E+03  0.00000000000E+00 0. -1.
</event>
<event>
 8    1  0.7008488E-006  0.1243724E+04  0.7818608E-02  0.8579071E-01
         21   -1    0    0  501  502  0.00000000000E+00  0.00000000000E+00  0.16421029946E+04  0.16421029946E+04  0.00000000000E+00 0.  1.
         21   -1    0    0  502  503 -0.00000000000E+00 -0.00000000000E+00 -0.13472980920E+04  0.13472980920E+04  0.00000000000E+00 0.  1.
   -9000010    2    1    2    0  503 -0.62066942204E+03  0.32432122500E+03 -0.69083812985E+03  0.14227111383E+04  0.10278301771E+04 0.  0.
    9000010    2    1    2  501    0  0.62066942204E+03 -0.32432122500E+03  0.98564303247E+03  0.15666899482E+04  0.99629835788E+03 0.  0.
        -13    1    4    4    0    0  0.34978293512E+02  0.21993933589E+03 -0.78076899098E+02  0.23599323258E+03  0.10566000000E+00 0.  1.
         13    1    3    3    0    0  0.23229457142E+03  0.19302110498E+03  0.22768453991E+02  0.30288005636E+03  0.10566000000E+00 0. -1.
          4    1    4    4  501    0  0.58569112853E+03 -0.54426056088E+03  0.10637199316E+04  0.13306967156E+04  0.00000000000E+00 0.  1.
         -4    1    3    3    0  503 -0.85296399346E+03  0.13130012002E+03 -0.71360658384E+03  0.11198310820E+04  0.00000000000E+00 0. -1.
</event>
<event>
 8    1  0.7008488E-006  0.1121517E+04  0.7818608E-02  0.8671232E-01
         21   -1    0    0  503  502  0.00000000000E+00  0.00000000000E+00  0.80102405495E+03  0.80102405495E+03  0.00000000000E+00 0.  1.
         21   -1    0    0  501  503 -0.00000000000E+00 -0.00000000000E+00 -0.15619309759E+04  0.15619309759E+04  0.00000000000E+00 0.  1.
    9000010    2    1    2  501    0 -0.42708591357E+03  0.24833939417E+03 -0.48458341563E+03  0.12078985296E+04  0.99001158522E+03 0.  0.
   -9000010    2    1    2    0  502  0.42708591357E+03 -0.24833939417E+03 -0.27632350536E+03  0.11550565013E+04  0.10068396145E+04 0.  0.
        -13    1    3    3    0    0 -0.10385065346E+03 -0.26835974916E+03 -0.52329806231E+03  0.59719576889E+03  0.10566000000E+00 0.  1.
         13    1    4    4    0    0  0.47751931158E+02 -0.57340334495E+03 -0.31143118798E+03  0.65426373806E+03  0.10566000000E+00 0. -1.
          4    1    3    3  501    0 -0.32323526011E+03  0.51669914333E+03  0.38714646682E+02  0.61070276073E+03  0.00000000000E+00 0.  1.
         -4    1    4    4    0  502  0.37933398241E+03  0.32506395078E+03  0.35107682623E+02  0.50079276322E+03  0.00000000000E+00 0. -1.
</event>
<event>
 8    1  0.7008488E-006  0.1199833E+04  0.7818608E-02  0.8609057E-01
         21   -1    0    0  501  502  0.00000000000E+00  0.00000000000E+00  0.67395785407E+03  0.67395785407E+03  0.00000000000E+00 0. -1.
         21   -1    0    0  502  503 -0.00000000000E+00 -0.00000000000E+00 -0.24683337446E+04  0.24683337446E+04  0.00000000000E+00 0. -1.
   -9000010    2    1    2    0  503 -0.51591970769E+03  0.39035283894E+03 -0.14966370251E+04  0.19182078357E+04  0.10104704014E+04 0.  0.
    9000010    2    1    2  501    0  0.51591970769E+03 -0.39035283894E+03 -0.29773886538E+03  0.12240837630E+04  0.99558231363E+03 0.  0.
        -13    1    4    4    0    0  0.51065898114E+03 -0.26186024463E+03 -0.63931077136E+03  0.85910514856E+03  0.10566000000E+00 0.  1.
         13    1    3    3    0    0  0.30291529311E+03  0.61048069416E+02 -0.29440227621E+03  0.42679884370E+03  0.10566000000E+00 0. -1.
          4    1    4    4  501    0  0.52607265502E+01 -0.12849259431E+03  0.34157190598E+03  0.36497861443E+03  0.00000000000E+00 0.  1.
         -4    1    3    3    0  503 -0.81883500080E+03  0.32930476952E+03 -0.12022347489E+04  0.14914089920E+04  0.00000000000E+00 0. -1.
</event>
<event>
 8    1  0.7008488E-006  0.1057693E+04  0.7818608E-02  0.8723647E-01
         21   -1    0    0  501  502  0.00000000000E+00  0.00000000000E+00  0.81884536122E+03  0.81884536122E+03  0.00000000000E+00 0. -1.
         21   -1    0    0  502  503 -0.00000000000E+00 -0.00000000000E+00 -0.14166848057E+04  0.14166848057E+04  0.00000000000E+00 0. -1.
   -9000010    2    1    2    0  503 -0.33946554816E+03 -0.55844721583E+01 -0.52609738693E+03  0.11754071757E+04  0.99475400145E+03 0.  0.
    9000010    2    1    2  501    0  0.33946554816E+03  0.55844721583E+01 -0.71742057515E+02  0.10601229912E+04  0.10017214128E+04 0.  0.
        -13    1    4    4    0    0  0.10075546388E+03  0.10452793906E+03  0.45273561737E+03  0.47544432266E+03  0.10566000000E+00 0.  1.
         13    1    3    3    0    0  0.35247782641E+02  0.29601104503E+03  0.15935443278E+03  0.33802188002E+03  0.10566000000E+00 0. -1.
          4    1    4    4  501    0  0.23871008429E+03 -0.98943466902E+02 -0.52447767489E+03  0.58467866854E+03  0.00000000000E+00 0.  1.
         -4    1    3    3    0  503 -0.37471333080E+03 -0.30159551719E+03 -0.68545181971E+03  0.83738529567E+03  0.00000000000E+00 0. -1.
</event>
<event>
 8    1  0.7008488E-006  0.1220920E+04  0.7818608E-02  0.8610925E-01
         21   -1    0    0  503  502  0.00000000000E+00  0.00000000000E+00  0.70977462089E+03  0.70977462089E+03  0.00000000000E+00 0. -1.
         21   -1    0    0  501  503 -0.00000000000E+00 -0.00000000000E+00 -0.19267577862E+04  0.19267577862E+04  0.00000000000E+00 0. -1.
    9000010    2    1    2  501    0  0.32522162707E+03 -0.63367165103E+03 -0.55874786333E+03  0.12494786418E+04  0.86121358184E+03 0.  0.
   -9000010    2    1    2    0  502 -0.32522162707E+03  0.63367165103E+03 -0.65823530201E+03  0.13870537653E+04  0.99163277830E+03 0.  0.
        -13    1    3    3    0    0  0.43130194656E+03 -0.75995471274E+03 -0.26588768778E+03  0.91337221777E+03  0.10566000000E+00 0.  1.
         13    1    4    4    0    0 -0.17119921781E+03 -0.48497479192E+02  0.20801765976E+03  0.27373807847E+03  0.10566000000E+00 0. -1.
          4    1    3    3  501    0 -0.10608031949E+03  0.12628306171E+03 -0.29286017555E+03  0.33610642404E+03  0.00000000000E+00 0.  1.
         -4    1    4    4    0  502 -0.15402240925E+03  0.68216913022E+03 -0.86625296177E+03  0.11133156868E+04  0.00000000000E+00 0. -1.
</event>
<event>
 8    1  0.7008488E-006  0.1071796E+04  0.7818608E-02  0.8711962E-01
         21   -1    0    0  501  502  0.00000000000E+00  0.00000000000E+00  0.25537467450E+04  0.25537467450E+04  0.00000000000E+00 0.  1.
         21   -1    0    0  502  503 -0.00000000000E+00 -0.00000000000E+00 -0.44587181772E+03  0.44587181772E+03  0.00000000000E+00 0.  1.
   -9000010    2    1    2    0  503  0.32025936810E+03  0.24382268256E+03  0.10619582623E+04  0.15088078105E+04  0.99334288877E+03 0.  0.
    9000010    2    1    2  501    0 -0.32025936810E+03 -0.24382268256E+03  0.10459166649E+04  0.14908107522E+04  0.98313756186E+03 0.  0.
        -13    1    4    4    0    0 -0.58696441714E+03  0.12916116729E+03  0.64658324411E+03  0.88276822375E+03  0.10566000000E+00 0.  1.
         13    1    3    3    0    0  0.60959961838E+03  0.72301023050E+02  0.31579922699E+03  0.69033926123E+03  0.10566000000E+00 0. -1.
          4    1    4    4  501    0  0.26670504905E+03 -0.37298384985E+03  0.39933342083E+03  0.60804252847E+03  0.00000000000E+00 0.  1.
         -4    1    3    3    0  503 -0.28934025028E+03  0.17152165951E+03  0.74615903533E+03  0.81846854925E+03  0.00000000000E+00 0. -1.
</event>
<event>
 8    1  0.7008488E-006  0.1189752E+04  0.7818608E-02  0.8635089E-01
         21   -1    0    0  501  502  0.00000000000E+00  0.00000000000E+00  0.84040917386E+03  0.84040917386E+03  0.00000000000E+00 0. -1.
         21   -1    0    0  502  503 -0.00000000000E+00 -0.00000000000E+00 -0.15698112034E+04  0.15698112034E+04  0.00000000000E+00 0.  1.
   -9000010    2    1    2    0  503  0.58590637469E+03  0.28653226565E+03 -0.18295374027E+03  0.11009783078E+04  0.86792519488E+03 0.  0.
    9000010    2    1    2  501    0 -0.58590637469E+03 -0.28653226565E+03 -0.54644828929E+03  0.13092420695E+04  0.99504876493E+03 0.  0.
        -13    1    4    4    0    0 -0.19411735027E+03  0.36776582548E+03 -0.28032470608E+03  0.50151291117E+03  0.10566000000E+00 0.  1.
         13    1    3    3    0    0  0.25774417140E+03  0.58530964489E+03 -0.14334959470E+03  0.65541479672E+03  0.10566000000E+00 0. -1.
          4    1    4    4  501    0 -0.39178902442E+03 -0.65429809113E+03 -0.26612358320E+03  0.80772915835E+03  0.00000000000E+00 0.  1.
         -4    1    3    3    0  503  0.32816220329E+03 -0.29877737925E+03 -0.39604145571E+02  0.44556351103E+03  0.00000000000E+00 0. -1.
</event>
<event>
 8    1  0.7008488E-006  0.1171841E+04  0.7818608E-02  0.8630676E-01
         21   -1    0    0  501  502  0.00000000000E+00  0.00000000000E+00  0.19660593911E+04  0.19660593911E+04  0.00000000000E+00 0. -1.
         21   -1    0    0  502  503 -0.00000000000E+00 -0.00000000000E+00 -0.89926206664E+03  0.89926206664E+03  0.00000000000E+00 0.  1.
   -9000010    2    1    2    0  503 -0.40056714239E+03 -0.46089047269E+03 -0.15448546539E+03  0.11819805170E+04  0.10001690457E+04 0.  0.
    9000010    2    1    2  501    0  0.40056714239E+03  0.46089047269E+03  0.12212827899E+04  0.16833409408E+04  0.98449530563E+03 0.  0.
        -13    1    4    4    0    0  0.23190627760E+03 -0.28713780536E+03  0.56045770015E+03  0.67107487338E+03  0.10566000000E+00 0.  1.
         13    1    3    3    0    0  0.24146084803E+03  0.11847180726E+03 -0.16794318049E+03  0.31708647603E+03  0.10566000000E+00 0. -1.
          4    1    4    4  501    0  0.16866086479E+03  0.74802827805E+03  0.66082508973E+03  0.10122660674E+04  0.00000000000E+00 0.  1.
         -4    1    3    3    0  503 -0.64202799042E+03 -0.57936227996E+03  0.13457715103E+02  0.86489404092E+03  0.00000000000E+00 0. -1.
</event>
<event>
 8    1  0.7008488E-006  0.1065085E+04  0.7818608E-02  0.8722125E-01
         21   -1    0    0  503  502  0.00000000000E+00  0.00000000000E+00  0.10650000293E+04  0.10650000293E+04  0.00000000000E+00 0.  1.
         21   -1    0    0  501  503 -0.00000000000E+00 -0.00000000000E+00 -0.10478891648E+04  0.10478891648E+04  0.00000000000E+00 0.  1.
    9000010    2    1    2  501    0  0.12541857930E+03 -0.37771060085E+03  0.11921852173E+03  0.10717365392E+04  0.98793270802E+03 0.  0.
   -9000010    2    1    2    0  502 -0.12541857930E+03  0.37771060085E+03 -0.10210765715E+03  0.10411526548E+04  0.95664923510E+03 0.  0.
        -13    1    3    3    0    0  0.13217362282E+03  0.12381143254E+02 -0.40046758273E+03  0.42189744638E+03  0.10566000000E+00 0.  1.
         13    1    4    4    0    0  0.37511618446E+00  0.13300798903E+03  0.42566714335E+03  0.44596389311E+03  0.10566000000E+00 0. -1.
          4    1    3    3  501    0 -0.67550435282E+01 -0.39009174410E+03  0.51968610446E+03  0.64983909285E+03  0.00000000000E+00 0.  1.
         -4    1    4    4    0  502 -0.12579369548E+03  0.24470261182E+03 -0.52777480050E+03  0.59518876174E+03  0.00000000000E+00 0. -1.
</event>
<event>
 8    1  0.7008488E-006  0.1340877E+04  0.7818608E-02  0.8518280E-01
         21   -1    0    0  503  502  0.00000000000E+00  0.00000000000E+00  0.90845619690E+03  0.90845619690E+03  0.00000000000E+00 0.  1.
         21   -1    0    0  501  503 -0.00000000000E+00 -0.00000000000E+00 -0.22578213485E+04  0.22578213485E+04  0.00000000000E+00 0. -1.
    9000010    2    1    2  501    0 -0.43922369286E+02 -0.86914836515E+03 -0.13313968853E+04  0.18895951900E+04  0.10201001229E+04 0.  0.
   -9000010    2    1    2    0  502  0.43922369286E+02  0.86914836515E+03 -0.17968266346E+02  0.12766823554E+04  0.93394160573E+03 0.  0.
        -13    1    3    3    0    0 -0.11376364006E+03 -0.69615162095E+03 -0.14875402242E+04  0.16463125994E+04  0.10566000000E+00 0.  1.
         13    1    4    4    0    0  0.18931626387E+03  0.91492582935E+03  0.25107858680E+03  0.96745562632E+03  0.10566000000E+00 0. -1.
          4    1    3    3  501    0  0.69841270778E+02 -0.17299674420E+03  0.15614333891E+03  0.24328259061E+03  0.00000000000E+00 0.  1.
         -4    1    4    4    0  502 -0.14539389459E+03 -0.45777464204E+02 -0.26904685315E+03  0.30922672912E+03  0.00000000000E+00 0. -1.
</event>
<event>
 8    1  0.7008488E-006  0.1060543E+04  0.7818608E-02  0.8726185E-01
         21   -1    0    0  501  502  0.00000000000E+00  0.00000000000E+00  0.15975603919E+04  0.15975603919E+04  0.00000000000E+00 0. -1.
         21   -1    0    0  502  503 -0.00000000000E+00 -0.00000000000E+00 -0.72863528758E+03  0.72863528758E+03  0.00000000000E+00 0. -1.
   -9000010    2    1    2    0  503  0.29425394542E+03 -0.90386605672E+02  0.14342345585E+03  0.10412425427E+04  0.98430717879E+03 0.  0.
    9000010    2    1    2  501    0 -0.29425394542E+03  0.90386605672E+02  0.72550164848E+03  0.12849531368E+04  0.10148875794E+04 0.  0.
        -13    1    4    4    0    0 -0.46351224641E+03  0.23537582283E+02  0.91267164503E+03  0.10238980238E+04  0.10566000000E+00 0.  1.
         13    1    3    3    0    0 -0.19379661650E+03 -0.25507563804E+03 -0.23902792820E+03  0.39969372188E+03  0.10566000000E+00 0. -1.
          4    1    4    4  501    0  0.16925830100E+03  0.66849023389E+02 -0.18716999656E+03  0.26105511295E+03  0.00000000000E+00 0.  1.
         -4    1    3    3    0  503  0.48805056192E+03  0.16468903236E+03  0.38245138404E+03  0.64154882085E+03  0.00000000000E+00 0. -1.
</event>
<event>
 8    1  0.7008488E-006  0.1080057E+04  0.7818608E-02  0.8704465E-01
         21   -1    0    0  503  502  0.00000000000E+00  0.00000000000E+00  0.85132751167E+03  0.85132751167E+03  0.00000000000E+00 0. -1.
         21   -1    0    0  501  503 -0.00000000000E+00 -0.00000000000E+00 -0.15819736315E+04  0.15819736315E+04  0.00000000000E+00 0.  1.
    9000010    2    1    2  501    0  0.23190298814E+03 -0.34309726389E+03 -0.82171037880E+03  0.13571039210E+04  0.99751109139E+03 0.  0.
   -9000010    2    1    2    0  502 -0.23190298814E+03  0.34309726389E+03  0.91064258924E+02  0.10761972222E+04  0.98914762973E+03 0.  0.
        -13    1    3    3    0    0 -0.12126999597E+03  0.15566989619E+02  0.19066293286E+03  0.22649747950E+03  0.10566000000E+00 0.  1.
         13    1    4    4    0    0  0.23856740498E+03  0.50154778436E+03  0.15255633428E+03  0.57596704160E+03  0.10566000000E+00 0. -1.
          4    1    3    3  501    0  0.35317298411E+03 -0.35866425351E+03 -0.10123733117E+04  0.11306064415E+04  0.00000000000E+00 0.  1.
         -4    1    4    4    0  502 -0.47047039313E+03 -0.15845052047E+03 -0.61492075351E+02  0.50023018059E+03  0.00000000000E+00 0. -1.
</event>
<event>
 8    1  0.7008488E-006  0.1261892E+04  0.7818608E-02  0.8568402E-01
         21   -1    0    0  503  502  0.00000000000E+00  0.00000000000E+00  0.23143842956E+04  0.23143842956E+04  0.00000000000E+00 0. -1.
         21   -1    0    0  501  503 -0.00000000000E+00 -0.00000000000E+00 -0.74426339421E+03  0.74426339421E+03  0.00000000000E+00 0.  1.
    9000010    2    1    2  501    0  0.14486155730E+03  0.68382372429E+03  0.30303964599E+03  0.12977688917E+04  0.10506052125E+04 0.  0.
   -9000010    2    1    2    0  502 -0.14486155730E+03 -0.68382372429E+03  0.12670812554E+04  0.17608787982E+04  0.10032943124E+04 0.  0.
        -13    1    3    3    0    0 -0.29141994655E+03  0.16999979616E+03 -0.25482406980E+03  0.42280117509E+03  0.10566000000E+00 0.  1.
         13    1    4    4    0    0  0.99301608353E+01 -0.89601016256E+03  0.11851078208E+04  0.14857366448E+04  0.10566000000E+00 0. -1.
          4    1    3    3  501    0  0.43628150385E+03  0.51382392813E+03  0.55786371578E+03  0.87496771661E+03  0.00000000000E+00 0.  1.
         -4    1    4    4    0  502 -0.15479171813E+03  0.21218643827E+03  0.81973434654E+02  0.27514215340E+03  0.00000000000E+00 0. -1.
</event>
<event>
 8    1  0.7008488E-006  0.1144024E+04  0.7818608E-02  0.8651205E-01
         21   -1    0    0  501  502  0.00000000000E+00  0.00000000000E+00  0.78070389338E+03  0.78070389338E+03  0.00000000000E+00 0.  1.
         21   -1    0    0  502  503 -0.00000000000E+00 -0.00000000000E+00 -0.17651305816E+04  0.17651305816E+04  0.00000000000E+00 0.  1.
   -9000010    2    1    2    0  503  0.31534512957E+02  0.53294562261E+03 -0.19372755381E+03  0.11603104985E+04  0.10118125447E+04 0.  0.
    9000010    2    1    2  501    0 -0.31534512957E+02 -0.53294562261E+03 -0.79069913437E+03  0.13855239765E+04  0.10047119518E+04 0.  0.
        -13    1    4    4    0    0 -0.32050385320E+03 -0.66924521162E+03 -0.76379564075E+03  0.10648923256E+04  0.10566000000E+00 0.  1.
         13    1    3    3    0    0  0.18437597125E+03  0.79110997883E+03 -0.26029916158E+03  0.85299775033E+03  0.10566000000E+00 0. -1.
          4    1    4    4  501    0  0.28896934024E+03  0.13629958901E+03 -0.26903493617E+02  0.32063165086E+03  0.00000000000E+00 0.  1.
         -4    1    3    3    0  503 -0.15284145830E+03 -0.25816435622E+03  0.66571607769E+02  0.30731274812E+03  0.00000000000E+00 0. -1.
</event>
<event>
 8    1  0.7008488E-006  0.1244295E+04  0.7818608E-02  0.8573967E-01
         21   -1    0    0  501  502  0.00000000000E+00  0.00000000000E+00  0.16299081558E+04  0.16299081558E+04  0.00000000000E+00 0. -1.
         21   -1    0    0  502  503 -0.00000000000E+00 -0.00000000000E+00 -0.95393126090E+03  0.95393126090E+03  0.00000000000E+00 0. -1.
   -9000010    2    1    2    0  503  0.15055291024E+03  0.73648499482E+03  0.25262996894E+03  0.12694985983E+04  0.99132661800E+03 0.  0.
    9000010    2    1    2  501    0 -0.15055291024E+03 -0.73648499482E+03  0.42334692594E+03  0.13143408184E+04  0.99156081041E+03 0.  0.
        -13    1    4    4    0    0  0.13437897276E+03 -0.40568983512E+03  0.68350489995E+03  0.80611470031E+03  0.10566000000E+00 0.  1.
         13    1    3    3    0    0 -0.30352042993E+03  0.38421055942E+03 -0.20897916939E+03  0.53236708178E+03  0.10566000000E+00 0. -1.
          4    1    4    4  501    0 -0.28493188300E+03 -0.33079515970E+03 -0.26015797401E+03  0.50822611805E+03  0.00000000000E+00 0.  1.
         -4    1    3    3    0  503  0.45407334018E+03  0.35227443540E+03  0.46160913833E+03  0.73713151655E+03  0.00000000000E+00 0. -1.
</event>
<event>
 8    1  0.7008488E-006  0.1152892E+04  0.7818608E-02  0.8663630E-01
         21   -1    0    0  501  502  0.00000000000E+00  0.00000000000E+00  0.13079314473E+04  0.13079314473E+04  0.00000000000E+00 0.  1.
         21   -1    0    0  502  503 -0.00000000000E+00 -0.00000000000E+00 -0.93061264900E+03  0.93061264900E+03  0.00000000000E+00 0.  1.
   -9000010    2    1    2    0  503  0.10081945144E+03 -0.35683004540E+03  0.22595391969E+03  0.11748253708E+04  0.10916351199E+04 0.  0.
    9000010    2    1    2  501    0 -0.10081945144E+03  0.35683004540E+03  0.15136487859E+03  0.10637187254E+04  0.98544099635E+03 0.  0.
        -13    1    4    4    0    0  0.15479333431E+03 -0.30493357268E+03  0.22652999077E+02  0.34272237982E+03  0.10566000000E+00 0.  1.
         13    1    3    3    0    0  0.38516666201E+03  0.48478284379E+02  0.48081926180E+03  0.61797303765E+03  0.10566000000E+00 0. -1.
          4    1    4    4  501    0 -0.25561278575E+03  0.66176361809E+03  0.12871187951E+03  0.72099634562E+03  0.00000000000E+00 0.  1.
         -4    1    3    3    0  503 -0.28434721058E+03 -0.40530832978E+03 -0.25486534212E+03  0.55685233318E+03  0.00000000000E+00 0. -1.
</event>
<event>
 8    1  0.7008488E-006  0.1041559E+04  0.7818608E-02  0.8748471E-01
         21   -1    0    0  501  502  0.00000000000E+00  0.00000000000E+00  0.49981422514E+03  0.49981422514E+03  0.00000000000E+00 0.  1.
         21   -1    0    0  502  503 -0.00000000000E+00 -0.00000000000E+00 -0.21628391898E+04  0.21628391898E+04  0.00000000000E+00 0.  1.
   -9000010    2    1    2    0  503 -0.27183380943E+03  0.69122852129E+02 -0.11375194496E+04  0.15423345441E+04  0.10030821298E+04 0.  0.
    9000010    2    1    2  501    0  0.27183380943E+03 -0.69122852129E+02 -0.52550551510E+03  0.11203188709E+04  0.94883440988E+03 0.  0.
        -13    1    4    4    0    0 -0.21495423348E+03 -0.22429936895E+03 -0.52425745916E+03  0.60939430917E+03  0.10566000000E+00 0.  1.
         13    1    3    3    0    0 -0.23017801277E+02  0.39583529247E+03 -0.75431351808E+02  0.40361528457E+03  0.10566000000E+00 0. -1.
          4    1    4    4  501    0  0.48678804291E+03  0.15517651682E+03 -0.12480559405E+01  0.51092456169E+03  0.00000000000E+00 0.  1.
         -4    1    3    3    0  503 -0.24881600815E+03 -0.32671244034E+03 -0.10620880978E+04  0.11387192595E+04  0.00000000000E+00 0. -1.
</event>
<event>
 8    1  0.7008488E-006  0.1071480E+04  0.7818608E-02  0.8724089E-01
         21   -1    0    0  503  502  0.00000000000E+00  0.00000000000E+00  0.64534379625E+03  0.64534379625E+03  0.00000000000E+00 0.  1.
         21   -1    0    0  501  503 -0.00000000000E+00 -0.00000000000E+00 -0.16796015749E+04  0.16796015749E+04  0.00000000000E+00 0.  1.
    9000010    2    1    2  501    0 -0.34053219345E+03  0.20236463155E+03 -0.57858437279E+03  0.12177145861E+04  0.99556783687E+03 0.  0.
   -9000010    2    1    2    0  502  0.34053219345E+03 -0.20236463155E+03 -0.45567340587E+03  0.11072307851E+04  0.92812075710E+03 0.  0.
        -13    1    3    3    0    0 -0.41146301609E+03  0.32811897162E+03 -0.79748843892E+03  0.95548505719E+03  0.10566000000E+00 0.  1.
         13    1    4    4    0    0 -0.14097244416E+03  0.28408293210E+03 -0.20838551262E+03  0.37947447260E+03  0.10566000000E+00 0. -1.
          4    1    3    3  501    0  0.70930822643E+02 -0.12575434006E+03  0.21890406613E+03  0.26222952887E+03  0.00000000000E+00 0.  1.
         -4    1    4    4    0  502  0.48150463760E+03 -0.48644756365E+03 -0.24728789325E+03  0.72775631249E+03  0.00000000000E+00 0. -1.
</event>
<event>
 8    1  0.7008488E-006  0.1132850E+04  0.7818608E-02  0.8686109E-01
         21   -1    0    0  501  502  0.00000000000E+00  0.00000000000E+00  0.94853061038E+03  0.94853061038E+03  0.00000000000E+00 0.  1.
         21   -1    0    0  502  503 -0.00000000000E+00 -0.00000000000E+00 -0.13178528449E+04  0.13178528449E+04  0.00000000000E+00 0.  1.
   -9000010    2    1    2    0  503 -0.40951306452E+03 -0.33936924628E+03 -0.52423832894E+03  0.12482688388E+04  0.10002383881E+04 0.  0.
    9000010    2    1    2  501    0  0.40951306452E+03  0.33936924628E+03  0.15491609447E+03  0.10181146164E+04  0.85421656536E+03 0.  0.
        -13    1    4    4    0    0  0.19351847701E+03 -0.28275024343E+03  0.47667896752E+01  0.34266577674E+03  0.10566000000E+00 0.  1.
         13    1    3    3    0    0 -0.29636494092E+03 -0.48963833734E+03 -0.75699191916E+03  0.94900719515E+03  0.10566000000E+00 0. -1.
          4    1    4    4  501    0  0.21599458751E+03  0.62211948970E+03  0.15014930479E+03  0.67544883968E+03  0.00000000000E+00 0.  1.
         -4    1    3    3    0  503 -0.11314812360E+03  0.15026909106E+03  0.23275359022E+03  0.29926164365E+03  0.00000000000E+00 0. -1.
</event>
<event>
 8    1  0.7008488E-006  0.1132445E+04  0.7818608E-02  0.8666300E-01
         21   -1    0    0  503  502  0.00000000000E+00  0.00000000000E+00  0.27540322155E+04  0.27540322155E+04  0.00000000000E+00 0.  1.
         21   -1    0    0  501  503 -0.00000000000E+00 -0.00000000000E+00 -0.46410913593E+03  0.46410913593E+03  0.00000000000E+00 0.  1.
    9000010    2    1    2  501    0 -0.42267520562E+03  0.70880108119E+02  0.86401385969E+03  0.13972490539E+04  0.10109929029E+04 0.  0.
   -9000010    2    1    2    0  502  0.42267520562E+03 -0.70880108119E+02  0.14259092199E+04  0.18208922976E+04  0.10482143563E+04 0.  0.
        -13    1    3    3    0    0  0.20980984753E+03 -0.21547382620E+03  0.15861173755E+02  0.30116561872E+03  0.10566000000E+00 0.  1.
         13    1    4    4    0    0 -0.30594328887E+03 -0.23268587732E+03  0.43812262556E+03  0.58283398983E+03  0.10566000000E+00 0. -1.
          4    1    3    3  501    0 -0.63248505315E+03  0.28635393432E+03  0.84815268594E+03  0.10960834352E+04  0.00000000000E+00 0.  1.
         -4    1    4    4    0  502  0.72861849448E+03  0.16180576920E+03  0.98778659434E+03  0.12380583078E+04  0.00000000000E+00 0. -1.
</event>
<event>
 8    1  0.7008488E-006  0.1261188E+04  0.7818608E-02  0.8563617E-01
         21   -1    0    0  501  502  0.00000000000E+00  0.00000000000E+00  0.12053500323E+04  0.12053500323E+04  0.00000000000E+00 0.  1.
         21   -1    0    0  502  503 -0.00000000000E+00 -0.00000000000E+00 -0.13501509140E+04  0.13501509140E+04  0.00000000000E+00 0.  1.
   -9000010    2    1    2    0  503  0.57409492645E+03  0.45004058222E+03 -0.29440204155E+03  0.12854710328E+04  0.10166817122E+04 0.  0.
    9000010    2    1    2  501    0 -0.57409492645E+03 -0.45004058222E+03  0.14960115982E+03  0.12700299135E+04  0.10288216386E+04 0.  0.
        -13    1    4    4    0    0  0.72013195109E+02 -0.22523986398E+03 -0.35037009656E+03  0.42270333843E+03  0.10566000000E+00 0.  1.
         13    1    3    3    0    0  0.29113739442E+03  0.33330353043E+03 -0.66874410101E+03  0.80191702166E+03  0.10566000000E+00 0. -1.
          4    1    4    4  501    0 -0.64610812155E+03 -0.22480071825E+03  0.49997125639E+03  0.84732657510E+03  0.00000000000E+00 0.  1.
         -4    1    3    3    0  503  0.28295753203E+03  0.11673705179E+03  0.37434205946E+03  0.48355401112E+03  0.00000000000E+00 0. -1.
</event>
<event>
 8    1  0.7008488E-006  0.1168506E+04  0.7818608E-02  0.8634393E-01
         21   -1    0    0  503  502  0.00000000000E+00  0.00000000000E+00  0.15161517782E+04  0.15161517782E+04  0.00000000000E+00 0.  1.
         21   -1    0    0  501  503 -0.00000000000E+00 -0.00000000000E+00 -0.88632721676E+03  0.88632721676E+03  0.00000000000E+00 0.  1.
    9000010    2    1    2  501    0 -0.46652324754E+03 -0.31786854891E+03  0.28841232297E+03  0.11851180752E+04  0.10013185454E+04 0.  0.
   -9000010    2    1    2    0  502  0.46652324754E+03  0.31786854891E+03  0.34141223849E+03  0.12173609197E+04  0.10230938068E+04 0.  0.
        -13    1    3    3    0    0 -0.69261929990E+03 -0.50403434822E+03  0.21658083503E+03  0.88356063066E+03  0.10566000000E+00 0.  1.
         13    1    4    4    0    0  0.13162012551E+03  0.44704966534E+03  0.61100446760E+03  0.76844240599E+03  0.10566000000E+00 0. -1.
          4    1    3    3  501    0  0.22609605236E+03  0.18616579931E+03  0.71831487947E+02  0.30155744459E+03  0.00000000000E+00 0.  1.
         -4    1    4    4    0  502  0.33490312203E+03 -0.12918111644E+03 -0.26959222911E+03  0.44891851375E+03  0.00000000000E+00 0. -1.
</event>
<event>
 8    1  0.7008488E-006  0.1282024E+04  0.7818608E-02  0.8563402E-01
         21   -1    0    0  503  502  0.00000000000E+00  0.00000000000E+00  0.16655741908E+04  0.16655741908E+04  0.00000000000E+00 0.  1.
         21   -1    0    0  501  503 -0.00000000000E+00 -0.00000000000E+00 -0.10031975724E+04  0.10031975724E+04  0.00000000000E+00 0. -1.
    9000010    2    1    2  501    0 -0.74322230788E+03  0.28915482705E+03 -0.66054863198E+02  0.11942558017E+04  0.88650649293E+03 0.  0.
   -9000010    2    1    2    0  502  0.74322230788E+03 -0.28915482705E+03  0.72843148157E+03  0.14745159615E+04  0.10037903090E+04 0.  0.
        -13    1    3    3    0    0 -0.91591315518E+03  0.15647426258E+03  0.79090979355E+02  0.93254302681E+03  0.10566000000E+00 0.  1.
         13    1    4    4    0    0  0.46911346734E+03 -0.27370191304E+03  0.96812181287E+03  0.11100630785E+04  0.10566000000E+00 0. -1.
          4    1    3    3  501    0  0.17269084730E+03  0.13268056447E+03 -0.14514584255E+03  0.26171277488E+03  0.00000000000E+00 0.  1.
         -4    1    4    4    0  502  0.27410884054E+03 -0.15452914005E+02 -0.23969033130E+03  0.36445288301E+03  0.00000000000E+00 0. -1.
</event>
<event>
 8    1  0.7008488E-006  0.1185043E+04  0.7818608E-02  0.8618756E-01
         21   -1    0    0  503  502  0.00000000000E+00  0.00000000000E+00  0.81956992846E+03  0.81956992846E+03  0.00000000000E+00 0.  1.
         21   -1    0    0  501  503 -0.00000000000E+00 -0.00000000000E+00 -0.17071704555E+04  0.17071704555E+04  0.00000000000E+00 0.  1.
    9000010    2    1    2  501    0 -0.66477397135E+03  0.19873789114E+03 -0.45000996191E+03  0.12634854430E+04  0.95523050433E+03 0.  0.
   -9000010    2    1    2    0  502  0.66477397135E+03 -0.19873789114E+03 -0.43759056516E+03  0.12632549410E+04  0.96068015538E+03 0.  0.
        -13    1    3    3    0    0 -0.87158072060E+03  0.30003536906E+03 -0.24163929672E+03  0.95292378294E+03  0.10566000000E+00 0.  1.
         13    1    4    4    0    0  0.35410565172E+03 -0.56370670287E+03 -0.91244779820E+02  0.67192386507E+03  0.10566000000E+00 0. -1.
          4    1    3    3  501    0  0.20680674925E+03 -0.10129747792E+03 -0.20837066519E+03  0.31056166003E+03  0.00000000000E+00 0.  1.
         -4    1    4    4    0  502  0.31066831963E+03  0.36496881174E+03 -0.34634578534E+03  0.59133107595E+03  0.00000000000E+00 0. -1.
</event>
<event>
 8    1  0.7008488E-006  0.1100648E+04  0.7818608E-02  0.8685890E-01
         21   -1    0    0  501  502  0.00000000000E+00  0.00000000000E+00  0.61389048254E+03  0.61389048254E+03  0.00000000000E+00 0. -1.
         21   -1    0    0  502  503 -0.00000000000E+00 -0.00000000000E+00 -0.20559529941E+04  0.20559529941E+04  0.00000000000E+00 0. -1.
   -9000010    2    1    2    0  503  0.39723511345E+03 -0.19582701534E+03 -0.99475041596E+03  0.14817715290E+04  0.10049748846E+04 0.  0.
    9000010    2    1    2  501    0 -0.39723511345E+03  0.19582701534E+03 -0.44731209563E+03  0.11880719477E+04  0.10076124685E+04 0.  0.
        -13    1    4    4    0    0 -0.72285648688E+03  0.20595386221E+03 -0.42034599643E+03  0.86117899525E+03  0.10566000000E+00 0.  1.
         13    1    3    3    0    0 -0.48968364018E+02 -0.21416294446E+03  0.14122545286E+03  0.26116720153E+03  0.10566000000E+00 0. -1.
          4    1    4    4  501    0  0.32562137344E+03 -0.10126846872E+02 -0.26966099202E+02  0.32689295247E+03  0.00000000000E+00 0.  1.
         -4    1    3    3    0  503  0.44620347746E+03  0.18335929117E+02 -0.11359758688E+04  0.12206043274E+04  0.00000000000E+00 0. -1.
</event>
<event>
 8    1  0.7008488E-006  0.1458892E+04  0.7818608E-02  0.8434283E-01
         21   -1    0    0  503  502  0.00000000000E+00  0.00000000000E+00  0.10336320543E+04  0.10336320543E+04  0.00000000000E+00 0.  1.
         21   -1    0    0  501  503 -0.00000000000E+00 -0.00000000000E+00 -0.23174158969E+04  0.23174158969E+04  0.00000000000E+00 0.  1.
    9000010    2    1    2  501    0  0.12277288094E+03 -0.10558506565E+04 -0.12077119976E+04  0.18901743804E+04  0.99211749816E+03 0.  0.
   -9000010    2    1    2    0  502 -0.12277288094E+03  0.10558506565E+04 -0.76071844992E+02  0.14608735707E+04  0.99923514501E+03 0.  0.
        -13    1    3    3    0    0  0.35501666400E+03 -0.11474953161E+04 -0.95078737456E+03  0.15319200289E+04  0.10566000000E+00 0.  1.
         13    1    4    4    0    0  0.14143098969E+03  0.51577005576E+02  0.31667748732E+03  0.35063878064E+03  0.10566000000E+00 0. -1.
          4    1    3    3  501    0 -0.23224378306E+03  0.91644659678E+02 -0.25692462305E+03  0.35825435147E+03  0.00000000000E+00 0.  1.
         -4    1    4    4    0  502 -0.26420387063E+03  0.10042736509E+04 -0.39274933231E+03  0.11102347901E+04  0.00000000000E+00 0. -1.
</event>
<event>
 8    1  0.7008488E-006  0.1053579E+04  0.7818608E-02  0.8726906E-01
         21   -1    0    0  503  502  0.00000000000E+00  0.00000000000E+00  0.11122660428E+04  0.11122660428E+04  0.00000000000E+00 0. -1.
         21   -1    0    0  501  503 -0.00000000000E+00 -0.00000000000E+00 -0.10583747521E+04  0.10583747521E+04  0.00000000000E+00 0. -1.
    9000010    2    1    2  501    0  0.13197734132E+03  0.29545353307E+03  0.29596368778E+03  0.10896100042E+04  0.99746912124E+03 0.  0.
   -9000010    2    1    2    0  502 -0.13197734132E+03 -0.29545353307E+03 -0.24207239707E+03  0.10810307908E+04  0.10026553328E+04 0.  0.
        -13    1    3    3    0    0  0.54151553040E+03  0.38846572686E+00  0.11659741092E+03  0.55392615751E+03  0.10566000000E+00 0.  1.
         13    1    4    4    0    0  0.75123771947E+02  0.28053982107E+03  0.17618000278E+03  0.33968452550E+03  0.10566000000E+00 0. -1.
          4    1    3    3  501    0 -0.40953818908E+03  0.29506506734E+03  0.17936627686E+03  0.53568384664E+03  0.00000000000E+00 0.  1.
         -4    1    4    4    0  502 -0.20710111327E+03 -0.57599335414E+03 -0.41825239985E+03  0.74134626532E+03  0.00000000000E+00 0. -1.
</event>
<event>
 8    1  0.7008488E-006  0.1241728E+04  0.7818608E-02  0.8577444E-01
         21   -1    0    0  501  502  0.00000000000E+00  0.00000000000E+00  0.23511043296E+04  0.23511043296E+04  0.00000000000E+00 0.  1.
         21   -1    0    0  502  503 -0.00000000000E+00 -0.00000000000E+00 -0.65992343643E+03  0.65992343643E+03  0.00000000000E+00 0.  1.
   -9000010    2    1    2    0  503  0.67766071840E+03 -0.27226380207E+03  0.67353995470E+03  0.14126377743E+04  0.10042598188E+04 0.  0.
    9000010    2    1    2  501    0 -0.67766071840E+03  0.27226380207E+03  0.10176409385E+04  0.15983899918E+04  0.99292792230E+03 0.  0.
        -13    1    4    4    0    0  0.67622628752E+02  0.24282250488E+03  0.77357946785E+03  0.81360973018E+03  0.10566000000E+00 0.  1.
         13    1    3    3    0    0 -0.12265813800E+03 -0.13196992392E+03 -0.16550787030E+03  0.24465066101E+03  0.10566000000E+00 0. -1.
          4    1    4    4  501    0 -0.74528334716E+03  0.29441297183E+02  0.24406147067E+03  0.78478026160E+03  0.00000000000E+00 0.  1.
         -4    1    3    3    0  503  0.80031885640E+03 -0.14029387815E+03  0.83904782500E+03  0.11679871133E+04  0.00000000000E+00 0. -1.
</event>
<event>
 8    1  0.7008488E-006  0.1109406E+04  0.7818608E-02  0.8681695E-01
         21   -1    0    0  501  502  0.00000000000E+00  0.00000000000E+00  0.25367239099E+04  0.25367239099E+04  0.00000000000E+00 0. -1.
         21   -1    0    0  502  503 -0.00000000000E+00 -0.00000000000E+00 -0.51404553889E+03  0.51404553889E+03  0.00000000000E+00 0. -1.
   -9000010    2    1    2    0  503  0.14168742881E+03  0.46125797771E+03  0.61295172015E+03  0.12674747513E+04  0.99897356545E+03 0.  0.
    9000010    2    1    2  501    0 -0.14168742881E+03 -0.46125797771E+03  0.14097266509E+04  0.17832946975E+04  0.97978390397E+03 0.  0.
        -13    1    4    4    0    0  0.23609947333E+03 -0.59101273082E+03  0.11257366824E+04  0.12931829331E+04  0.10566000000E+00 0.  1.
         13    1    3    3    0    0 -0.23073887106E+02  0.97461375137E+02 -0.27563479966E+03  0.29326724648E+03  0.10566000000E+00 0. -1.
          4    1    4    4  501    0 -0.37778690214E+03  0.12975475311E+03  0.28398996850E+03  0.49011176439E+03  0.00000000000E+00 0.  1.
         -4    1    3    3    0  503  0.16476131592E+03  0.36379660258E+03  0.88858651980E+03  0.97420750482E+03  0.00000000000E+00 0. -1.
</event>
<event>
 8    1  0.7008488E-006  0.1230607E+04  0.7818608E-02  0.8584975E-01
         21   -1    0    0  501  502  0.00000000000E+00  0.00000000000E+00  0.17980511391E+04  0.17980511391E+04  0.00000000000E+00 0. -1.
         21   -1    0    0  502  503 -0.00000000000E+00 -0.00000000000E+00 -0.84379479664E+03  0.84379479664E+03  0.00000000000E+00 0. -1.
   -9000010    2    1    2    0  503 -0.42256320998E+03  0.60054951097E+03  0.36739689609E+03  0.12784683538E+04  0.97993952403E+03 0.  0.
    9000010    2    1    2  501    0  0.42256320998E+03 -0.60054951097E+03  0.58685944637E+03  0.13633775820E+04  0.98750951372E+03 0.  0.
        -13    1    4    4    0    0  0.52710839584E+03  0.86154280085E+02  0.21778903037E+03  0.57679969994E+03  0.10566000000E+00 0.  1.
         13    1    3    3    0    0 -0.25118013812E+03  0.72312125803E+03  0.59408040984E+03  0.96898264180E+03  0.10566000000E+00 0. -1.
          4    1    4    4  501    0 -0.10454518586E+03 -0.68670379105E+03  0.36907041601E+03  0.78657788203E+03  0.00000000000E+00 0.  1.
         -4    1    3    3    0  503 -0.17138307186E+03 -0.12257174706E+03 -0.22668351375E+03  0.30948571195E+03  0.00000000000E+00 0. -1.
</event>
<event>
 8    1  0.7008488E-006  0.1115385E+04  0.7818608E-02  0.8687205E-01
         21   -1    0    0  501  502  0.00000000000E+00  0.00000000000E+00  0.13167733608E+04  0.13167733608E+04  0.00000000000E+00 0. -1.
         21   -1    0    0  502  503 -0.00000000000E+00 -0.00000000000E+00 -0.89320301417E+03  0.89320301417E+03  0.00000000000E+00 0. -1.
   -9000010    2    1    2    0  503  0.88039357169E+02 -0.29869336643E+03  0.27530482319E+03  0.10847800806E+04  0.10019912286E+04 0.  0.
    9000010    2    1    2  501    0 -0.88039357169E+02  0.29869336643E+03  0.14826552341E+03  0.11251962943E+04  0.10710347239E+04 0.  0.
        -13    1    4    4    0    0 -0.93853503293E+02 -0.29403130482E+03  0.37929926757E+03  0.48901005494E+03  0.10566000000E+00 0.  1.
         13    1    3    3    0    0 -0.71677430934E+02 -0.64187214902E+03  0.28542554882E+03  0.70611986580E+03  0.10566000000E+00 0. -1.
          4    1    4    4  501    0  0.58141461243E+01  0.59272467125E+03 -0.23103374416E+03  0.63618623935E+03  0.00000000000E+00 0.  1.
         -4    1    3    3    0  503  0.15971678810E+03  0.34317878259E+03 -0.10120725633E+02  0.37866021485E+03  0.00000000000E+00 0. -1.
</event>
<event>
 8    1  0.7008488E-006  0.1351422E+04  0.7818608E-02  0.8501789E-01
         21   -1    0    0  503  502  0.00000000000E+00  0.00000000000E+00  0.15322644747E+04  0.15322644747E+04  0.00000000000E+00 0. -1.
         21   -1    0    0  501  503 -0.00000000000E+00 -0.00000000000E+00 -0.11850559949E+04  0.11850559949E+04  0.00000000000E+00 0. -1.
    9000010    2    1    2  501    0 -0.15284692361E+03 -0.86288860922E+03  0.16381756119E+03  0.13535118557E+04  0.10184395987E+04 0.  0.
   -9000010    2    1    2    0  502  0.15284692361E+03  0.86288860922E+03  0.18339091863E+03  0.13638086139E+04  0.10287870393E+04 0.  0.
        -13    1    3    3    0    0  0.12109307116E+03  0.19850297668E+03 -0.47064548923E+02  0.23723837498E+03  0.10566000000E+00 0.  1.
         13    1    4    4    0    0  0.41618960680E+02 -0.66253877062E+02  0.39643914220E+03  0.40408627636E+03  0.10566000000E+00 0. -1.
          4    1    3    3  501    0 -0.27393999477E+03 -0.10613915859E+04  0.21088211012E+03  0.11162734807E+04  0.00000000000E+00 0.  1.
         -4    1    4    4    0  502  0.11122796293E+03  0.92914248629E+03 -0.21304822356E+03  0.95972233751E+03  0.00000000000E+00 0. -1.
</event>
<event>
 8    1  0.7008488E-006  0.1072002E+04  0.7818608E-02  0.8711236E-01
         21   -1    0    0  501  502  0.00000000000E+00  0.00000000000E+00  0.83010057822E+03  0.83010057822E+03  0.00000000000E+00 0.  1.
         21   -1    0    0  502  503 -0.00000000000E+00 -0.00000000000E+00 -0.13755015562E+04  0.13755015562E+04  0.00000000000E+00 0.  1.
   -9000010    2    1    2    0  503  0.22946627171E+03 -0.30500839791E+03 -0.27848672163E+03  0.11008711052E+04  0.99432260540E+03 0.  0.
    9000010    2    1    2  501    0 -0.22946627171E+03  0.30500839791E+03 -0.26691425638E+03  0.11047310292E+04  0.10017497362E+04 0.  0.
        -13    1    4    4    0    0 -0.20640759149E+03  0.40935485851E+03  0.28682065524E+03  0.54077869174E+03  0.10566000000E+00 0.  1.
         13    1    3    3    0    0  0.21662318665E+03  0.31839362021E+03  0.62584558103E+02  0.39014989487E+03  0.10566000000E+00 0. -1.
          4    1    4    4  501    0 -0.23058680221E+02 -0.10434646060E+03 -0.55373491162E+03  0.56395233745E+03  0.00000000000E+00 0.  1.
         -4    1    3    3    0  503  0.12843085056E+02 -0.62340201812E+03 -0.34107127973E+03  0.71072121038E+03  0.00000000000E+00 0. -1.
</event>
<event>
 8    1  0.7008488E-006  0.1098843E+04  0.7818608E-02  0.8695562E-01
         21   -1    0    0  503  502  0.00000000000E+00  0.00000000000E+00  0.11911423615E+04  0.11911423615E+04  0.00000000000E+00 0.  1.
         21   -1    0    0  501  503 -0.00000000000E+00 -0.00000000000E+00 -0.11306461610E+04  0.11306461610E+04  0.00000000000E+00 0.  1.
    9000010    2    1    2  501    0  0.24133183969E+03  0.43051664641E+03 -0.39765426400E+03  0.11685824669E+04  0.98176903018E+03 0.  0.
   -9000010    2    1    2    0  502 -0.24133183969E+03 -0.43051664641E+03  0.45815046453E+03  0.11532060556E+04  0.93616062659E+03 0.  0.
        -13    1    3    3    0    0  0.33665773349E+03  0.20067354037E+03  0.25670227145E+03  0.46851293115E+03  0.10566000000E+00 0.  1.
         13    1    4    4    0    0  0.30353219539E+03 -0.58701929889E+02  0.37859700617E+03  0.48878769875E+03  0.10566000000E+00 0. -1.
          4    1    3    3  501    0 -0.95325893808E+02  0.22984310604E+03 -0.65435653544E+03  0.70006953576E+03  0.00000000000E+00 0.  1.
         -4    1    4    4    0  502 -0.54486403507E+03 -0.37181471652E+03  0.79553458356E+02  0.66441835682E+03  0.00000000000E+00 0. -1.
</event>
<event>
 8    1  0.7008488E-006  0.1085722E+04  0.7818608E-02  0.8714439E-01
         21   -1    0    0  503  502  0.00000000000E+00  0.00000000000E+00  0.69474848144E+03  0.69474848144E+03  0.00000000000E+00 0.  1.
         21   -1    0    0  501  503 -0.00000000000E+00 -0.00000000000E+00 -0.15964965818E+04  0.15964965818E+04  0.00000000000E+00 0.  1.
    9000010    2    1    2  501    0  0.13951087887E+03  0.40533646048E+03 -0.32637867211E+03  0.10624890795E+04  0.91575055283E+03 0.  0.
   -9000010    2    1    2    0  502 -0.13951087887E+03 -0.40533646048E+03 -0.57536942828E+03  0.12287559837E+04  0.99751208365E+03 0.  0.
        -13    1    3    3    0    0 -0.25545100058E+03  0.44112351899E+03  0.54469322637E+02  0.51265201743E+03  0.10566000000E+00 0.  1.
         13    1    4    4    0    0  0.24152063645E+02  0.32985085906E+03 -0.14332354035E+03  0.36045326990E+03  0.10566000000E+00 0. -1.
          4    1    3    3  501    0  0.39496187944E+03 -0.35787058506E+02 -0.38084799474E+03  0.54983706211E+03  0.00000000000E+00 0.  1.
         -4    1    4    4    0  502 -0.16366294251E+03 -0.73518731954E+03 -0.43204588793E+03  0.86830271383E+03  0.00000000000E+00 0. -1.
</event>
<event>
 8    1  0.7008488E-006  0.1224902E+04  0.7818608E-02  0.8589343E-01
         21   -1    0    0  503  502  0.00000000000E+00  0.00000000000E+00  0.17865461135E+04  0.17865461135E+04  0.00000000000E+00 0. -1.
         21   -1    0    0  501  503 -0.00000000000E+00 -0.00000000000E+00 -0.83573893536E+03  0.83573893536E+03  0.00000000000E+00 0. -1.
    9000010    2    1    2  501    0 -0.15030790973E+03 -0.68091140397E+03  0.43484584664E+03  0.12931491816E+04  0.99845434934E+03 0.  0.
   -9000010    2    1    2    0  502  0.15030790973E+03  0.68091140397E+03  0.51596133148E+03  0.13291358673E+04  0.10070517615E+04 0.  0.
        -13    1    3    3    0    0 -0.13504973837E+03 -0.18325091781E+02 -0.28423948398E+03  0.31522426341E+03  0.10566000000E+00 0.  1.
         13    1    4    4    0    0  0.38236675390E+02  0.93588011449E+03  0.32499106267E+03  0.99143977832E+03  0.10566000000E+00 0. -1.
          4    1    3    3  501    0 -0.15258171354E+02 -0.66258631219E+03  0.71908533062E+03  0.97792491818E+03  0.00000000000E+00 0.  1.
         -4    1    4    4    0  502  0.11207123434E+03 -0.25496871052E+03  0.19097026881E+03  0.33769608894E+03  0.00000000000E+00 0. -1.
</event>
<event>
 8    1  0.7008488E-006  0.1211687E+04  0.7818608E-02  0.8599380E-01
         21   -1    0    0  501  502  0.00000000000E+00  0.00000000000E+00  0.14593508734E+04  0.14593508734E+04  0.00000000000E+00 0. -1.
         21   -1    0    0  502  503 -0.00000000000E+00 -0.00000000000E+00 -0.10351144072E+04  0.10351144072E+04  0.00000000000E+00 0. -1.
   -9000010    2    1    2    0  503  0.48878869356E+03 -0.44841005577E+03  0.44546214817E+03  0.12909767129E+04  0.10140011749E+04 0.  0.
    9000010    2    1    2  501    0 -0.48878869356E+03  0.44841005577E+03 -0.21225681965E+02  0.12034885677E+04  0.10039662534E+04 0.  0.
        -13    1    4    4    0    0 -0.31626878772E+03  0.13590030732E+03 -0.49953771279E+03  0.60665705079E+03  0.10566000000E+00 0.  1.
         13    1    3    3    0    0  0.82120210893E+02 -0.68502995173E+03  0.78682164576E+02  0.69440669495E+03  0.10566000000E+00 0. -1.
          4    1    4    4  501    0 -0.17251990584E+03  0.31250974845E+03  0.47831203082E+03  0.59683151694E+03  0.00000000000E+00 0.  1.
         -4    1    3    3    0  503  0.40666848267E+03  0.23661989597E+03  0.36677998360E+03  0.59657001796E+03  0.00000000000E+00 0. -1.
</event>
<event>
 8    1  0.7008488E-006  0.1111085E+04  0.7818608E-02  0.8698061E-01
         21   -1    0    0  501  502  0.00000000000E+00  0.00000000000E+00  0.15495372046E+04  0.15495372046E+04  0.00000000000E+00 0.  1.
         21   -1    0    0  502  503 -0.00000000000E+00 -0.00000000000E+00 -0.77442219777E+03  0.77442219777E+03  0.00000000000E+00 0.  1.
   -9000010    2    1    2    0  503 -0.27829226447E+03 -0.20485186530E+03  0.85528295903E+02  0.10162749112E+04  0.95188693368E+03 0.  0.
    9000010    2    1    2  501    0  0.27829226447E+03  0.20485186530E+03  0.68958671090E+03  0.13076844912E+04  0.10559820194E+04 0.  0.
        -13    1    4    4    0    0 -0.46829086326E+02  0.33101201377E+03 -0.17361177808E+03  0.37670011579E+03  0.10566000000E+00 0.  1.
         13    1    3    3    0    0  0.13476485791E+03 -0.44847258244E+03  0.22120741657E+03  0.51790149299E+03  0.10566000000E+00 0. -1.
          4    1    4    4  501    0  0.32512135080E+03 -0.12616014847E+03  0.86319848897E+03  0.93098437537E+03  0.00000000000E+00 0.  1.
         -4    1    3    3    0  503 -0.41305712239E+03  0.24362071714E+03 -0.13567912067E+03  0.49837341819E+03  0.00000000000E+00 0. -1.
</event>
<event>
 8    1  0.7008488E-006  0.1122355E+04  0.7818608E-02  0.8678839E-01
         21   -1    0    0  501  502  0.00000000000E+00  0.00000000000E+00  0.11668474580E+04  0.11668474580E+04  0.00000000000E+00 0. -1.
         21   -1    0    0  502  503 -0.00000000000E+00 -0.00000000000E+00 -0.11393323099E+04  0.11393323099E+04  0.00000000000E+00 0. -1.
   -9000010    2    1    2    0  503 -0.42982099604E+03  0.11953433645E+02 -0.34646414180E+03  0.11746137459E+04  0.10367213113E+04 0.  0.
    9000010    2    1    2  501    0  0.42982099604E+03 -0.11953433645E+02  0.37397928993E+03  0.11315660220E+04  0.97759510000E+03 0.  0.
        -13    1    4    4    0    0 -0.30277565059E+03  0.98460218896E+02  0.17991466350E+03  0.36570043287E+03  0.10566000000E+00 0.  1.
         13    1    3    3    0    0 -0.73893031346E+03  0.14744081473E+03 -0.10760331882E+03  0.76114078026E+03  0.10566000000E+00 0. -1.
          4    1    4    4  501    0  0.73259664663E+03 -0.11041365254E+03  0.19406462642E+03  0.76586558909E+03  0.00000000000E+00 0.  1.
         -4    1    3    3    0  503  0.30910931742E+03 -0.13548738109E+03 -0.23886082298E+03  0.41347296563E+03  0.00000000000E+00 0. -1.
</event>
<event>
 8    1  0.7008488E-006  0.1066429E+04  0.7818608E-02  0.8716595E-01
         21   -1    0    0  501  502  0.00000000000E+00  0.00000000000E+00  0.89639895630E+03  0.89639895630E+03  0.00000000000E+00 0. -1.
         21   -1    0    0  502  503 -0.00000000000E+00 -0.00000000000E+00 -0.13861144964E+04  0.13861144964E+04  0.00000000000E+00 0. -1.
   -9000010    2    1    2    0  503  0.25994900525E+03  0.26320195572E+03 -0.59131035434E+03  0.12112563059E+04  0.99027528935E+03 0.  0.
    9000010    2    1    2  501    0 -0.25994900525E+03 -0.26320195572E+03  0.10159481426E+03  0.10712571467E+04  0.10002107844E+04 0.  0.
        -13    1    4    4    0    0  0.95882399147E+02 -0.55243718769E+03  0.21227437862E+03  0.59953373866E+03  0.10566000000E+00 0.  1.
         13    1    3    3    0    0  0.30173233548E+03 -0.33876449052E+03 -0.24824126330E+03  0.51713394618E+03  0.10566000000E+00 0. -1.
          4    1    4    4  501    0 -0.35583140439E+03  0.28923523196E+03 -0.11067956436E+03  0.47172340808E+03  0.00000000000E+00 0.  1.
         -4    1    3    3    0  503 -0.41783330238E+02  0.60196644625E+03 -0.34306909104E+03  0.69412235976E+03  0.00000000000E+00 0. -1.
</event>
<event>
 8    1  0.7008488E-006  0.1178927E+04  0.7818608E-02  0.8623695E-01
         21   -1    0    0  501  502  0.00000000000E+00  0.00000000000E+00  0.84103471945E+03  0.84103471945E+03  0.00000000000E+00 0. -1.
         21   -1    0    0  502  503 -0.00000000000E+00 -0.00000000000E+00 -0.19342589850E+04  0.19342589850E+04  0.00000000000E+00 0. -1.
   -9000010    2    1    2    0  503 -0.53231510577E+03 -0.27123802128E+03 -0.10824498059E+04  0.15963177685E+04  0.10097541284E+04 0.  0.
    9000010    2    1    2  501    0  0.53231510577E+03  0.27123802128E+03 -0.10774459624E+02  0.11789759359E+04  0.10163359348E+04 0.  0.
        -13    1    4    4    0    0  0.72418708424E+03 -0.30637824072E+02 -0.22878165105E+03  0.76008332718E+03  0.10566000000E+00 0.  1.
         13    1    3    3    0    0  0.10888780014E+03  0.23257777609E+03 -0.20816038857E+02  0.25764761514E+03  0.10566000000E+00 0. -1.
          4    1    4    4  501    0 -0.19187197847E+03  0.30187584535E+03  0.21800719142E+03  0.41889260872E+03  0.00000000000E+00 0.  1.
         -4    1    3    3    0  503 -0.64120290591E+03 -0.50381579737E+03 -0.10616337671E+04  0.13386701534E+04  0.00000000000E+00 0. -1.
</event>
<event>
 8    1  0.7008488E-006  0.1086426E+04  0.7818608E-02  0.8713263E-01
         21   -1    0    0  503  502  0.00000000000E+00  0.00000000000E+00  0.85226006765E+03  0.85226006765E+03  0.00000000000E+00 0. -1.
         21   -1    0    0  501  503 -0.00000000000E+00 -0.00000000000E+00 -0.14625809662E+04  0.14625809662E+04  0.00000000000E+00 0. -1.
    9000010    2    1    2  501    0  0.24252005578E+03  0.17493186304E+03 -0.68804389140E+03  0.12256381175E+04  0.96920960811E+03 0.  0.
   -9000010    2    1    2    0  502 -0.24252005578E+03 -0.17493186304E+03  0.77722992896E+02  0.10892029163E+04  0.10444639750E+04 0.  0.
        -13    1    3    3    0    0  0.11750587900E+03 -0.26566246770E+03  0.10579921522E+03  0.30915637378E+03  0.10566000000E+00 0.  1.
         13    1    4    4    0    0 -0.63682085198E+03 -0.21226099744E+03  0.14688224258E+03  0.68714622381E+03  0.10566000000E+00 0. -1.
          4    1    3    3  501    0  0.12501417679E+03  0.44059433074E+03 -0.79384310662E+03  0.91648174374E+03  0.00000000000E+00 0.  1.
         -4    1    4    4    0  502  0.39430079619E+03  0.37329134403E+02 -0.69159249685E+02  0.40205669248E+03  0.00000000000E+00 0. -1.
</event>
<event>
 8    1  0.7008488E-006  0.1019178E+04  0.7818608E-02  0.8757058E-01
         21   -1    0    0  501  502  0.00000000000E+00  0.00000000000E+00  0.91765345650E+03  0.91765345650E+03  0.00000000000E+00 0. -1.
         21   -1    0    0  502  503 -0.00000000000E+00 -0.00000000000E+00 -0.11920719503E+04  0.11920719503E+04  0.00000000000E+00 0. -1.
   -9000010    2    1    2    0  503 -0.18243701539E+03  0.30877031809E+02 -0.37686724282E+03  0.10866243843E+04  0.10022409780E+04 0.  0.
    9000010    2    1    2  501    0  0.18243701539E+03 -0.30877031809E+02  0.10244874900E+03  0.10231010226E+04  0.10010011491E+04 0.  0.
        -13    1    4    4    0    0  0.37890928377E+03  0.23268838125E+03  0.38611287638E+03  0.58889667393E+03  0.10566000000E+00 0.  1.
         13    1    3    3    0    0 -0.19045720810E+03 -0.47284669610E+03 -0.24654829043E+03  0.56625437465E+03  0.10566000000E+00 0. -1.
          4    1    4    4  501    0 -0.19647226838E+03 -0.26356541306E+03 -0.28366412738E+03  0.43420434862E+03  0.00000000000E+00 0.  1.
         -4    1    3    3    0  503  0.80201927058E+01  0.50372372791E+03 -0.13031895238E+03  0.52037000961E+03  0.00000000000E+00 0. -1.
</event>
<event>
 8    1  0.7008488E-006  0.1342819E+04  0.7818608E-02  0.8516669E-01
         21   -1    0    0  501  502  0.00000000000E+00  0.00000000000E+00  0.65608630876E+03  0.65608630876E+03  0.00000000000E+00 0.  1.
         21   -1    0    0  502  503 -0.00000000000E+00 -0.00000000000E+00 -0.37420954322E+04  0.37420954322E+04  0.00000000000E+00 0. -1.
   -9000010    2    1    2    0  503 -0.82698688267E+03 -0.27862841676E+03 -0.27717062474E+04  0.30798570288E+04  0.10205991856E+04 0.  0.
    9000010    2    1    2  501    0  0.82698688267E+03  0.27862841676E+03 -0.31430287604E+03  0.13183247121E+04  0.93683117473E+03 0.  0.
        -13    1    4    4    0    0 -0.11164245272E+03 -0.75337460598E+02  0.15962542991E+03  0.20885415786E+03  0.10566000000E+00 0.  1.
         13    1    3    3    0    0 -0.45466597611E+03 -0.53298811951E+03 -0.82836860381E+03  0.10848926400E+04  0.10566000000E+00 0. -1.
          4    1    4    4  501    0  0.93862933538E+03  0.35396587736E+03 -0.47392830595E+03  0.11094705543E+04  0.00000000000E+00 0.  1.
         -4    1    3    3    0  503 -0.37232090656E+03  0.25435970276E+03 -0.19433376436E+04  0.19949643888E+04  0.00000000000E+00 0. -1.
</event>
<event>
 8    1  0.7008488E-006  0.1386736E+04  0.7818608E-02  0.8496273E-01
         21   -1    0    0  501  502  0.00000000000E+00  0.00000000000E+00  0.10748430289E+04  0.10748430289E+04  0.00000000000E+00 0. -1.
         21   -1    0    0  502  503 -0.00000000000E+00 -0.00000000000E+00 -0.29606121993E+04  0.29606121993E+04  0.00000000000E+00 0.  1.
   -9000010    2    1    2    0  503  0.39848320342E+03 -0.62435603166E+03 -0.23077987392E+04  0.26923915297E+04  0.11723599324E+04 0.  0.
    9000010    2    1    2  501    0 -0.39848320342E+03  0.62435603166E+03  0.42202956879E+03  0.13430636986E+04  0.10378351622E+04 0.  0.
        -13    1    4    4    0    0 -0.16814350393E+03  0.67968826426E+03 -0.15690026218E+03  0.71754169072E+03  0.10566000000E+00 0.  1.
         13    1    3    3    0    0  0.52811217282E+03 -0.55702702459E+02 -0.19197739429E+04  0.19918677820E+04  0.10566000000E+00 0. -1.
          4    1    4    4  501    0 -0.23033969949E+03 -0.55332232600E+02  0.57892983097E+03  0.62552200786E+03  0.00000000000E+00 0.  1.
         -4    1    3    3    0  503 -0.12962896940E+03 -0.56865332920E+03 -0.38802479629E+03  0.70052374767E+03  0.00000000000E+00 0. -1.
</event>
<event>
 8    1  0.7008488E-006  0.1323368E+04  0.7818608E-02  0.8526162E-01
         21   -1    0    0  503  502  0.00000000000E+00  0.00000000000E+00  0.30156752107E+04  0.30156752107E+04  0.00000000000E+00 0. -1.
         21   -1    0    0  501  503 -0.00000000000E+00 -0.00000000000E+00 -0.64283396182E+03  0.64283396182E+03  0.00000000000E+00 0.  1.
    9000010    2    1    2  501    0  0.73154458552E+03 -0.42405060648E+03  0.52312212500E+03  0.13841382760E+04  0.96291516345E+03 0.  0.
   -9000010    2    1    2    0  502 -0.73154458552E+03  0.42405060648E+03  0.18497191239E+04  0.22743708965E+04  0.10180008547E+04 0.  0.
        -13    1    3    3    0    0  0.19019208944E+02 -0.53059426391E+03  0.37125211667E+03  0.64785812374E+03  0.10566000000E+00 0.  1.
         13    1    4    4    0    0 -0.11034349507E+03  0.57737944902E+03  0.46689033568E+03  0.75068589421E+03  0.10566000000E+00 0. -1.
          4    1    3    3  501    0  0.71252537658E+03  0.10654365743E+03  0.15187000834E+03  0.73628015228E+03  0.00000000000E+00 0.  1.
         -4    1    4    4    0  502 -0.62120109045E+03 -0.15332884255E+03  0.13828287882E+04  0.15236850023E+04  0.00000000000E+00 0. -1.
</event>
<event>
 8    1  0.7008488E-006  0.1493361E+04  0.7818608E-02  0.8413623E-01
         21   -1    0    0  501  502  0.00000000000E+00  0.00000000000E+00  0.19478168441E+04  0.19478168441E+04  0.00000000000E+00 0. -1.
         21   -1    0    0  502  503 -0.00000000000E+00 -0.00000000000E+00 -0.12050767146E+04  0.12050767146E+04  0.00000000000E+00 0.  1.
   -9000010    2    1    2    0  503 -0.99192703991E+03 -0.48956434611E+03  0.14449724497E+02  0.14914078896E+04  0.10002480677E+04 0.  0.
    9000010    2    1    2  501    0  0.99192703991E+03  0.48956434611E+03  0.72829040502E+03  0.16614856691E+04  0.10032622852E+04 0.  0.
        -13    1    4    4    0    0  0.63517691240E+03  0.35011876051E+03 -0.11587994765E+03  0.73448010860E+03  0.10566000000E+00 0.  1.
         13    1    3    3    0    0 -0.31926815687E+03  0.37857746576E+00 -0.43969156319E+03  0.54337922413E+03  0.10566000000E+00 0. -1.
          4    1    4    4  501    0  0.35675012751E+03  0.13944558560E+03  0.84417035266E+03  0.92700556047E+03  0.00000000000E+00 0.  1.
         -4    1    3    3    0  503 -0.67265888305E+03 -0.48994292357E+03  0.45414128769E+03  0.94802866543E+03  0.00000000000E+00 0. -1.
</event>
<event>
 8    1  0.7008488E-006  0.1209637E+04  0.7818608E-02  0.8608938E-01
         21   -1    0    0  501  502  0.00000000000E+00  0.00000000000E+00  0.20806757988E+04  0.20806757988E+04  0.00000000000E+00 0. -1.
         21   -1    0    0  502  503 -0.00000000000E+00 -0.00000000000E+00 -0.68238000291E+03  0.68238000291E+03  0.00000000000E+00 0. -1.
   -9000010    2    1    2    0  503 -0.54006295253E+03  0.41446507706E+03  0.53398455256E+03  0.12763625742E+04  0.93835634257E+03 0.  0.
    9000010    2    1    2  501    0  0.54006295253E+03 -0.41446507706E+03  0.86431124335E+03  0.14866932275E+04  0.99988676089E+03 0.  0.
        -13    1    4    4    0    0  0.34261532528E+03 -0.41196996801E+03 -0.62157850383E+02  0.53941461344E+03  0.10566000000E+00 0.  1.
         13    1    3    3    0    0 -0.18435098486E+03  0.37664630444E+03 -0.19642092923E+03  0.46306470052E+03  0.10566000000E+00 0. -1.
          4    1    4    4  501    0  0.19744762725E+03 -0.24951090467E+01  0.92646909373E+03  0.94727861409E+03  0.00000000000E+00 0.  1.
         -4    1    3    3    0  503 -0.35571196767E+03  0.37818772623E+02  0.73040548179E+03  0.81329787368E+03  0.00000000000E+00 0. -1.
</event>
<event>
 8    1  0.7008488E-006  0.1035983E+04  0.7818608E-02  0.8745270E-01
         21   -1    0    0  501  502  0.00000000000E+00  0.00000000000E+00  0.80997559154E+03  0.80997559154E+03  0.00000000000E+00 0. -1.
         21   -1    0    0  502  503 -0.00000000000E+00 -0.00000000000E+00 -0.13587457846E+04  0.13587457846E+04  0.00000000000E+00 0. -1.
   -9000010    2    1    2    0  503  0.31169789028E+03  0.10778104419E+01 -0.49013253052E+03  0.11310806869E+04  0.97054463389E+03 0.  0.
    9000010    2    1    2  501    0 -0.31169789028E+03 -0.10778104419E+01 -0.58637662551E+02  0.10376406892E+04  0.98797929532E+03 0.  0.
        -13    1    4    4    0    0 -0.53578023573E+03 -0.22958119513E+03  0.21023084627E+03  0.61964909913E+03  0.10566000000E+00 0.  1.
         13    1    3    3    0    0  0.53438063622E+03 -0.21891664987E+03 -0.34802152990E+02  0.57853121348E+03  0.10566000000E+00 0. -1.
          4    1    4    4  501    0  0.22408234545E+03  0.22850338469E+03 -0.26886850882E+03  0.41799159010E+03  0.00000000000E+00 0.  1.
         -4    1    3    3    0  503 -0.22268274593E+03  0.21999446031E+03 -0.45533037753E+03  0.55254947345E+03  0.00000000000E+00 0. -1.
</event>
<event>
 8    1  0.7008488E-006  0.1123374E+04  0.7818608E-02  0.8671601E-01
         21   -1    0    0  501  502  0.00000000000E+00  0.00000000000E+00  0.93027119313E+03  0.93027119313E+03  0.00000000000E+00 0.  1.
         21   -1    0    0  502  503 -0.00000000000E+00 -0.00000000000E+00 -0.14573081721E+04  0.14573081721E+04  0.00000000000E+00 0.  1.
   -9000010    2    1    2    0  503  0.91600941978E+02  0.50918568005E+03 -0.62238953841E+03  0.12842655958E+04  0.99715023633E+03 0.  0.
    9000010    2    1    2  501    0 -0.91600941978E+02 -0.50918568005E+03  0.95352559411E+02  0.11033137694E+04  0.96981873247E+03 0.  0.
        -13    1    4    4    0    0  0.23028061379E+03 -0.25549285618E+03  0.44649779080E+03  0.56361870889E+03  0.10566000000E+00 0.  1.
         13    1    3    3    0    0  0.22393910721E+03 -0.22348769413E+03 -0.39778906195E+01  0.31640371038E+03  0.10566000000E+00 0. -1.
          4    1    4    4  501    0 -0.32188155577E+03 -0.25369282386E+03 -0.35114523139E+03  0.53969506053E+03  0.00000000000E+00 0.  1.
         -4    1    3    3    0  503 -0.13233816523E+03  0.73267337418E+03 -0.61841164779E+03  0.96786188547E+03  0.00000000000E+00 0. -1.
</event>
