<event>
 8    1  0.1084113E-005  0.1015758E+04  0.7818608E-02  0.8762613E-01
         21   -1    0    0  501  502  0.00000000000E+00  0.00000000000E+00  0.10568516819E+04  0.10568516819E+04  0.00000000000E+00 0. -1.
         21   -1    0    0  502  503 -0.00000000000E+00 -0.00000000000E+00 -0.15810289556E+04  0.15810289556E+04  0.00000000000E+00 0. -1.
    9000010    2    1    2  501    0  0.23798711512E+02  0.79827113354E+02  0.56201369172E+03  0.11507443692E+04  0.10007069835E+04 0.  0.
   -9000010    2    1    2    0  503 -0.23798711512E+02 -0.79827113354E+02 -0.10861909654E+04  0.14871362683E+04  0.10123362685E+04 0.  0.
        -13    1    3    3    0    0  0.33214040433E+03 -0.30415106291E+03  0.72090625444E+02  0.45609449316E+03  0.10566000000E+00 0.  1.
         13    1    4    4    0    0  0.38750394253E+02  0.42235644268E+03 -0.80070844121E+03  0.90610185781E+03  0.10566000000E+00 0. -1.
          4    1    3    3  501    0 -0.30834169281E+03  0.38397817626E+03  0.48992306628E+03  0.69464987601E+03  0.00000000000E+00 0.  1.
         -4    1    4    4    0  503 -0.62549105765E+02 -0.50218355604E+03 -0.28548252417E+03  0.58103441051E+03  0.00000000000E+00 0. -1.
</event>
<event>
 8    1  0.7572579E-006  0.1041673E+04  0.7818608E-02  0.8737635E-01
         21   -1    0    0  501  502  0.00000000000E+00  0.00000000000E+00  0.13734568628E+04  0.13734568628E+04  0.00000000000E+00 0.  1.
         21   -1    0    0  502  503 -0.00000000000E+00 -0.00000000000E+00 -0.80705099704E+03  0.80705099704E+03  0.00000000000E+00 0.  1.
    9000010    2    1    2  501    0  0.14395578849E+03 -0.25022053750E+03  0.46069685769E+03  0.11390015497E+04  0.10008742924E+04 0.  0.
   -9000010    2    1    2    0  503 -0.14395578849E+03  0.25022053750E+03  0.10570900807E+03  0.10415063101E+04  0.99510171000E+03 0.  0.
        -13    1    3    3    0    0  0.77467378437E+02 -0.42957976923E+03 -0.17865016536E+03  0.47165227191E+03  0.10566000000E+00 0.  1.
         13    1    4    4    0    0  0.29246793012E+03  0.20020945553E+03  0.38315380024E+03  0.52194651262E+03  0.10566000000E+00 0. -1.
          4    1    3    3  501    0  0.66488410050E+02  0.17935923174E+03  0.63934702304E+03  0.66734927778E+03  0.00000000000E+00 0.  1.
         -4    1    4    4    0  503 -0.43642371861E+03  0.50011081969E+02 -0.27744479218E+03  0.51955979751E+03  0.00000000000E+00 0. -1.
</event>
<event>
 8    1  0.7572579E-006  0.1007638E+04  0.7818608E-02  0.8768458E-01
         21   -1    0    0  501  502  0.00000000000E+00  0.00000000000E+00  0.14162647479E+04  0.14162647479E+04  0.00000000000E+00 0.  1.
         21   -1    0    0  502  503 -0.00000000000E+00 -0.00000000000E+00 -0.88040763378E+03  0.88040763378E+03  0.00000000000E+00 0.  1.
    9000010    2    1    2  501    0  0.94935548369E+02 -0.52944941580E+02  0.76789158310E+03  0.12668823764E+04  0.10017572296E+04 0.  0.
   -9000010    2    1    2    0  503 -0.94935548369E+02  0.52944941580E+02 -0.23203446894E+03  0.10297900053E+04  0.99740239379E+03 0.  0.
        -13    1    3    3    0    0 -0.95320153150E+02  0.30083005408E+03  0.80386327725E+03  0.86358603087E+03  0.10566000000E+00 0.  1.
         13    1    4    4    0    0 -0.30954029990E+03  0.33271711683E+03 -0.42981642190E+03  0.62550623082E+03  0.10566000000E+00 0. -1.
          4    1    3    3  501    0  0.19025570152E+03 -0.35377499566E+03 -0.35971694155E+02  0.40329634550E+03  0.00000000000E+00 0.  1.
         -4    1    4    4    0  503  0.21460475153E+03 -0.27977217525E+03  0.19778195296E+03  0.40428377452E+03  0.00000000000E+00 0. -1.
</event>
<event>
 8    1  0.7572579E-006  0.1059693E+04  0.7818608E-02  0.8722503E-01
         21   -1    0    0  501  502  0.00000000000E+00  0.00000000000E+00  0.32928725206E+04  0.32928725206E+04  0.00000000000E+00 0. -1.
         21   -1    0    0  502  503 -0.00000000000E+00 -0.00000000000E+00 -0.34765958817E+03  0.34765958817E+03  0.00000000000E+00 0. -1.
    9000010    2    1    2  501    0 -0.28876660728E+03 -0.16574604993E+03  0.17821557497E+04  0.20734100785E+04  0.10060279971E+04 0.  0.
   -9000010    2    1    2    0  503  0.28876660728E+03  0.16574604993E+03  0.11630571828E+04  0.15671220303E+04  0.99614835288E+03 0.  0.
        -13    1    3    3    0    0 -0.16673846301E+03 -0.43475209348E+03  0.28182264300E+03  0.54427484886E+03  0.10566000000E+00 0.  1.
         13    1    4    4    0    0  0.11714572373E+03  0.53533635257E+03  0.32987574411E+03  0.63962969654E+03  0.10566000000E+00 0. -1.
          4    1    3    3  501    0 -0.12202814427E+03  0.26900604356E+03  0.15003331067E+04  0.15291352296E+04  0.00000000000E+00 0.  1.
         -4    1    4    4    0  503  0.17162088355E+03 -0.36959030265E+03  0.83318143867E+03  0.92749233379E+03  0.00000000000E+00 0. -1.
</event>
<event>
 8    1  0.8323197E-006  0.1019103E+04  0.7818608E-02  0.8762929E-01
         21   -1    0    0  501  502  0.00000000000E+00  0.00000000000E+00  0.24638870435E+04  0.24638870435E+04  0.00000000000E+00 0. -1.
         21   -1    0    0  502  503 -0.00000000000E+00 -0.00000000000E+00 -0.10291153776E+04  0.10291153776E+04  0.00000000000E+00 0. -1.
    9000010    2    1    2  501    0  0.15630759920E+03 -0.41540059688E+02  0.20748450173E+04  0.23116125638E+04  0.10061874365E+04 0.  0.
   -9000010    2    1    2    0  503 -0.15630759920E+03  0.41540059688E+02 -0.64007335132E+03  0.11813898572E+04  0.97970937405E+03 0.  0.
        -13    1    3    3    0    0  0.41372314610E+03 -0.18407867619E+03  0.37921097718E+03  0.59063760211E+03  0.10566000000E+00 0.  1.
         13    1    4    4    0    0  0.16857794466E+03  0.21987403906E+03 -0.74612240572E+03  0.79590311719E+03  0.10566000000E+00 0. -1.
          4    1    3    3  501    0 -0.25741554690E+03  0.14253861650E+03  0.16956340401E+04  0.17209749617E+04  0.00000000000E+00 0.  1.
         -4    1    4    4    0  503 -0.32488554387E+03 -0.17833397937E+03  0.10604905440E+03  0.38548674005E+03  0.00000000000E+00 0. -1.
</event>
<event>
 8    1  0.7572579E-006  0.1088159E+04  0.7818608E-02  0.8697897E-01
         21   -1    0    0  503  502  0.00000000000E+00  0.00000000000E+00  0.71550549663E+03  0.71550549663E+03  0.00000000000E+00 0.  1.
         21   -1    0    0  501  503 -0.00000000000E+00 -0.00000000000E+00 -0.19211532831E+04  0.19211532831E+04  0.00000000000E+00 0.  1.
    9000010    2    1    2  501    0 -0.12506614704E+03 -0.37619383879E+03 -0.96898858300E+02  0.10831417690E+04  0.10033161802E+04 0.  0.
   -9000010    2    1    2    0  502  0.12506614704E+03  0.37619383879E+03 -0.11087489281E+04  0.15535170107E+04  0.10133743491E+04 0.  0.
        -13    1    3    3    0    0 -0.14037211641E+03 -0.34435316385E+03  0.42232959016E+03  0.56271282766E+03  0.10566000000E+00 0.  1.
         13    1    4    4    0    0  0.50839863505E+03  0.44322550520E+03 -0.85473435882E+03  0.10888015686E+04  0.10566000000E+00 0. -1.
          4    1    3    3  501    0  0.15305969375E+02 -0.31840674939E+02 -0.51922844846E+03  0.52042894133E+03  0.00000000000E+00 0.  1.
         -4    1    4    4    0  502 -0.38333248802E+03 -0.67031666409E+02 -0.25401456933E+03  0.46471544207E+03  0.00000000000E+00 0. -1.
</event>
<event>
 8    1  0.7572579E-006  0.1074334E+04  0.7818608E-02  0.8708363E-01
         21   -1    0    0  501  502  0.00000000000E+00  0.00000000000E+00  0.70133701744E+03  0.70133701744E+03  0.00000000000E+00 0.  1.
         21   -1    0    0  502  503 -0.00000000000E+00 -0.00000000000E+00 -0.20896165148E+04  0.20896165148E+04  0.00000000000E+00 0.  1.
    9000010    2    1    2  501    0 -0.21718232693E+03  0.31707894726E+03 -0.48415221634E+02  0.10754240366E+04  0.10032375605E+04 0.  0.
   -9000010    2    1    2    0  503  0.21718232693E+03 -0.31707894726E+03 -0.13398642757E+04  0.17155294957E+04  0.10000489744E+04 0.  0.
        -13    1    3    3    0    0  0.38931162103E+03  0.12611474170E+01  0.71063477868E+01  0.38937853061E+03  0.10566000000E+00 0.  1.
         13    1    4    4    0    0  0.31932105822E+03 -0.60926186572E+03 -0.11831910014E+04  0.13686149627E+04  0.10566000000E+00 0. -1.
          4    1    3    3  501    0 -0.60649394795E+03  0.31581779984E+03 -0.55521569421E+02  0.68604550598E+03  0.00000000000E+00 0.  1.
         -4    1    4    4    0  503 -0.10213873129E+03  0.29218291846E+03 -0.15667327433E+03  0.34691453294E+03  0.00000000000E+00 0. -1.
</event>
<event>
 8    1  0.7572579E-006  0.1088610E+04  0.7818608E-02  0.8706500E-01
         21   -1    0    0  501  502  0.00000000000E+00  0.00000000000E+00  0.12185852391E+04  0.12185852391E+04  0.00000000000E+00 0.  1.
         21   -1    0    0  502  503 -0.00000000000E+00 -0.00000000000E+00 -0.20414248769E+04  0.20414248769E+04  0.00000000000E+00 0.  1.
    9000010    2    1    2  501    0 -0.43483331970E+02 -0.27830942050E+03  0.79672648958E+03  0.13085835931E+04  0.99913511958E+03 0.  0.
   -9000010    2    1    2    0  503  0.43483331970E+02  0.27830942050E+03 -0.16195661274E+04  0.19514265230E+04  0.10515341648E+04 0.  0.
        -13    1    3    3    0    0  0.28286653635E+03 -0.40399379596E+03  0.64820510574E+02  0.49741951541E+03  0.10566000000E+00 0.  1.
         13    1    4    4    0    0 -0.29876252544E+03  0.12912585174E+03 -0.39511454552E+02  0.32786231622E+03  0.10566000000E+00 0. -1.
          4    1    3    3  501    0 -0.32634986832E+03  0.12568437546E+03  0.73190597900E+03  0.81116407766E+03  0.00000000000E+00 0.  1.
         -4    1    4    4    0  503  0.34224585741E+03  0.14918356876E+03 -0.15800546729E+04  0.16235642067E+04  0.00000000000E+00 0. -1.
</event>
<event>
 8    1  0.7572579E-006  0.1034221E+04  0.7818608E-02  0.8748320E-01
         21   -1    0    0  501  502  0.00000000000E+00  0.00000000000E+00  0.94682998032E+03  0.94682998032E+03  0.00000000000E+00 0. -1.
         21   -1    0    0  502  503 -0.00000000000E+00 -0.00000000000E+00 -0.15040320113E+04  0.15040320113E+04  0.00000000000E+00 0. -1.
    9000010    2    1    2  501    0 -0.12809197246E+03  0.12831814672E+03  0.35504391603E+03  0.10718021706E+04  0.99490231204E+03 0.  0.
   -9000010    2    1    2    0  503  0.12809197246E+03 -0.12831814672E+03 -0.91224594697E+03  0.13790598209E+04  0.10182044106E+04 0.  0.
        -13    1    3    3    0    0 -0.42007546768E+03 -0.27002925206E+03  0.77776369649E+02  0.50539921879E+03  0.10566000000E+00 0.  1.
         13    1    4    4    0    0  0.16265631080E+03  0.41590990635E+03 -0.22003862409E+03  0.49785051260E+03  0.10566000000E+00 0. -1.
          4    1    3    3  501    0  0.29198349522E+03  0.39834739878E+03  0.27726754638E+03  0.56640295186E+03  0.00000000000E+00 0.  1.
         -4    1    4    4    0  503 -0.34564338339E+02 -0.54422805307E+03 -0.69220732288E+03  0.88120930832E+03  0.00000000000E+00 0. -1.
</event>
<event>
 8    1  0.7572579E-006  0.1021660E+04  0.7818608E-02  0.8763229E-01
         21   -1    0    0  503  502  0.00000000000E+00  0.00000000000E+00  0.10645156049E+04  0.10645156049E+04  0.00000000000E+00 0.  1.
         21   -1    0    0  501  503 -0.00000000000E+00 -0.00000000000E+00 -0.10409868744E+04  0.10409868744E+04  0.00000000000E+00 0.  1.
    9000010    2    1    2  501    0  0.14859820229E+03 -0.15971396109E+03 -0.30769775170E+03  0.10669895998E+04  0.99809765282E+03 0.  0.
   -9000010    2    1    2    0  502 -0.14859820229E+03  0.15971396109E+03  0.33122648227E+03  0.10385128795E+04  0.95979583418E+03 0.  0.
        -13    1    3    3    0    0 -0.15805077613E+03  0.22855979233E+03  0.21194134328E+03  0.34948357710E+03  0.10566000000E+00 0.  1.
         13    1    4    4    0    0  0.11538163021E+03 -0.33786925242E+03  0.31322997431E+03  0.47495429284E+03  0.10566000000E+00 0. -1.
          4    1    3    3  501    0  0.30664897842E+03 -0.38827375342E+03 -0.51963909498E+03  0.71750602269E+03  0.00000000000E+00 0.  1.
         -4    1    4    4    0  502 -0.26397983250E+03  0.49758321350E+03  0.17996507954E+02  0.56355858668E+03  0.00000000000E+00 0. -1.
</event>
<event>
 8    1  0.7572579E-006  0.1056692E+04  0.7818608E-02  0.8736064E-01
         21   -1    0    0  503  502  0.00000000000E+00  0.00000000000E+00  0.12261501119E+04  0.12261501119E+04  0.00000000000E+00 0.  1.
         21   -1    0    0  501  503 -0.00000000000E+00 -0.00000000000E+00 -0.87825943020E+03  0.87825943020E+03  0.00000000000E+00 0.  1.
    9000010    2    1    2  501    0 -0.72693226286E+02  0.82896971345E+02  0.31292805891E+03  0.10471393024E+04  0.99318705966E+03 0.  0.
   -9000010    2    1    2    0  502  0.72693226286E+02 -0.82896971345E+02  0.34962622801E+02  0.10572702398E+04  0.10509242417E+04 0.  0.
        -13    1    3    3    0    0 -0.47271424873E+03  0.27112617895E+03  0.91088137463E+02  0.55250812285E+03  0.10566000000E+00 0.  1.
         13    1    4    4    0    0  0.36520190519E+03 -0.28244178975E+01  0.42683407447E+03  0.56175416971E+03  0.10566000000E+00 0. -1.
          4    1    3    3  501    0  0.40002102244E+03 -0.18822920761E+03  0.22183992144E+03  0.49463117951E+03  0.00000000000E+00 0.  1.
         -4    1    4    4    0  502 -0.29250867890E+03 -0.80072553447E+02 -0.39187145167E+03  0.49551607005E+03  0.00000000000E+00 0. -1.
</event>
<event>
 8    1  0.7572579E-006  0.1031045E+04  0.7818608E-02  0.8750960E-01
         21   -1    0    0  501  502  0.00000000000E+00  0.00000000000E+00  0.57822656295E+03  0.57822656295E+03  0.00000000000E+00 0. -1.
         21   -1    0    0  502  503 -0.00000000000E+00 -0.00000000000E+00 -0.20348707696E+04  0.20348707696E+04  0.00000000000E+00 0. -1.
    9000010    2    1    2  501    0  0.56836763163E+02  0.20364559690E+03 -0.11793546048E+04  0.15665028908E+04  0.10091343201E+04 0.  0.
   -9000010    2    1    2    0  503 -0.56836763163E+02 -0.20364559690E+03 -0.27728960180E+03  0.10465944418E+04  0.98679706905E+03 0.  0.
        -13    1    3    3    0    0 -0.35730430439E+03  0.21711697895E+03 -0.10535299881E+04  0.11334600105E+04  0.10566000000E+00 0.  1.
         13    1    4    4    0    0  0.14580047189E+02  0.27820287527E+03  0.21661800133E+03  0.35289203341E+03  0.10566000000E+00 0. -1.
          4    1    3    3  501    0  0.41414106755E+03 -0.13471382053E+02 -0.12582461678E+03  0.43304288027E+03  0.00000000000E+00 0.  1.
         -4    1    4    4    0  503 -0.71416810352E+02 -0.48184847217E+03 -0.49390760312E+03  0.69370240835E+03  0.00000000000E+00 0. -1.
</event>
<event>
 8    1  0.7572579E-006  0.1072905E+04  0.7818608E-02  0.8710246E-01
         21   -1    0    0  501  502  0.00000000000E+00  0.00000000000E+00  0.15084007837E+04  0.15084007837E+04  0.00000000000E+00 0. -1.
         21   -1    0    0  502  503 -0.00000000000E+00 -0.00000000000E+00 -0.12593060569E+04  0.12593060569E+04  0.00000000000E+00 0.  1.
    9000010    2    1    2  501    0 -0.32251370243E+03 -0.20722477637E+03  0.99709652705E+03  0.14646933773E+04  0.10020818375E+04 0.  0.
   -9000010    2    1    2    0  503  0.32251370243E+03  0.20722477637E+03 -0.74800180031E+03  0.13030134633E+04  0.99568077016E+03 0.  0.
        -13    1    3    3    0    0  0.29764365692E+02 -0.36121626057E+03  0.10170603616E+04  0.10797105606E+04  0.10566000000E+00 0.  1.
         13    1    4    4    0    0  0.45206261109E+03  0.15653272297E+03  0.60881516683E+02  0.48225477493E+03  0.10566000000E+00 0. -1.
          4    1    3    3  501    0 -0.35227806812E+03  0.15399148420E+03 -0.19963834548E+02  0.38498281672E+03  0.00000000000E+00 0.  1.
         -4    1    4    4    0  503 -0.12954890866E+03  0.50692053405E+02 -0.80888331700E+03  0.82075868837E+03  0.00000000000E+00 0. -1.
</event>
<event>
 8    1  0.7572579E-006  0.1049878E+04  0.7818608E-02  0.8731452E-01
         21   -1    0    0  503  502  0.00000000000E+00  0.00000000000E+00  0.20385722519E+04  0.20385722519E+04  0.00000000000E+00 0. -1.
         21   -1    0    0  501  503 -0.00000000000E+00 -0.00000000000E+00 -0.73082466149E+03  0.73082466149E+03  0.00000000000E+00 0. -1.
    9000010    2    1    2  501    0  0.29771395249E+03  0.18248578569E+02 -0.60020551026E+02  0.10515924931E+04  0.10066169564E+04 0.  0.
   -9000010    2    1    2    0  502 -0.29771395249E+03 -0.18248578569E+02  0.13677681414E+04  0.17178044202E+04  0.99553790953E+03 0.  0.
        -13    1    3    3    0    0 -0.30228771768E+03  0.37570333743E+02 -0.27852155970E+03  0.41275133509E+03  0.10566000000E+00 0.  1.
         13    1    4    4    0    0  0.15849452717E+03  0.14832419064E+03  0.11756447007E+04  0.11955170655E+04  0.10566000000E+00 0. -1.
          4    1    3    3  501    0  0.60000167018E+03 -0.19321755174E+02  0.21850100867E+03  0.63884115806E+03  0.00000000000E+00 0.  1.
         -4    1    4    4    0  502 -0.45620847966E+03 -0.16657276921E+03  0.19212344075E+03  0.52228735466E+03  0.00000000000E+00 0. -1.
</event>
<event>
 8    1  0.7572579E-006  0.1059269E+04  0.7818608E-02  0.8726539E-01
         21   -1    0    0  503  502  0.00000000000E+00  0.00000000000E+00  0.60776668827E+03  0.60776668827E+03  0.00000000000E+00 0. -1.
         21   -1    0    0  501  503 -0.00000000000E+00 -0.00000000000E+00 -0.18096240395E+04  0.18096240395E+04  0.00000000000E+00 0. -1.
    9000010    2    1    2  501    0 -0.23007027579E+03  0.19371558975E+03 -0.67456859063E+03  0.12341395139E+04  0.98873631201E+03 0.  0.
   -9000010    2    1    2    0  502  0.23007027579E+03 -0.19371558975E+03 -0.52728876060E+03  0.11832512139E+04  0.10156731446E+04 0.  0.
        -13    1    3    3    0    0  0.48965445988E+02  0.36133699913E+03 -0.80479236437E+03  0.88354558613E+03  0.10566000000E+00 0.  1.
         13    1    4    4    0    0  0.89285367629E+02 -0.33882936519E+03  0.21689372719E+03  0.41209236301E+03  0.10566000000E+00 0. -1.
          4    1    3    3  501    0 -0.27903572178E+03 -0.16762140939E+03  0.13022377375E+03  0.35059392773E+03  0.00000000000E+00 0.  1.
         -4    1    4    4    0  502  0.14078490816E+03  0.14511377544E+03 -0.74418248779E+03  0.77115885090E+03  0.00000000000E+00 0. -1.
</event>
<event>
 8    1  0.7572579E-006  0.1054880E+04  0.7818608E-02  0.8727238E-01
         21   -1    0    0  501  502  0.00000000000E+00  0.00000000000E+00  0.13717969674E+04  0.13717969674E+04  0.00000000000E+00 0.  1.
         21   -1    0    0  502  503 -0.00000000000E+00 -0.00000000000E+00 -0.83613762309E+03  0.83613762309E+03  0.00000000000E+00 0.  1.
    9000010    2    1    2  501    0  0.32231018404E+03 -0.92472166465E+02  0.49138400577E+03  0.11637137298E+04  0.10001682096E+04 0.  0.
   -9000010    2    1    2    0  503 -0.32231018404E+03  0.92472166465E+02  0.44275338588E+02  0.10442208607E+04  0.98792810671E+03 0.  0.
        -13    1    3    3    0    0 -0.18957114561E+03 -0.39648316275E+03  0.98398836577E+02  0.45035370521E+03  0.10566000000E+00 0.  1.
         13    1    4    4    0    0  0.31800324614E+02 -0.38294771442E+03  0.19733608793E+03  0.43197425315E+03  0.10566000000E+00 0. -1.
          4    1    3    3  501    0  0.51188132965E+03  0.30401099629E+03  0.39298516919E+03  0.71336002461E+03  0.00000000000E+00 0.  1.
         -4    1    4    4    0  503 -0.35411050865E+03  0.47541988088E+03 -0.15306074934E+03  0.61224660756E+03  0.00000000000E+00 0. -1.
</event>
<event>
 8    1  0.7572579E-006  0.1017067E+04  0.7818608E-02  0.8762318E-01
         21   -1    0    0  501  502  0.00000000000E+00  0.00000000000E+00  0.11971218059E+04  0.11971218059E+04  0.00000000000E+00 0. -1.
         21   -1    0    0  502  503 -0.00000000000E+00 -0.00000000000E+00 -0.91500781807E+03  0.91500781807E+03  0.00000000000E+00 0. -1.
    9000010    2    1    2  501    0  0.31710598596E+02 -0.10717933177E+03  0.42145210488E+03  0.11009303984E+04  0.10109069661E+04 0.  0.
   -9000010    2    1    2    0  503 -0.31710598596E+02  0.10717933177E+03 -0.13933811701E+03  0.10111992257E+04  0.99529683607E+03 0.  0.
        -13    1    3    3    0    0  0.22764410975E+03  0.40470759169E+03  0.24570651959E+03  0.52533968097E+03  0.10566000000E+00 0.  1.
         13    1    4    4    0    0 -0.47499855798E+03 -0.18628402603E+02 -0.25029753049E+03  0.53723320113E+03  0.10566000000E+00 0. -1.
          4    1    3    3  501    0 -0.19593351115E+03 -0.51188692346E+03  0.17574558529E+03  0.57559071739E+03  0.00000000000E+00 0.  1.
         -4    1    4    4    0  503  0.44328795938E+03  0.12580773437E+03  0.11095941348E+03  0.47396602452E+03  0.00000000000E+00 0. -1.
</event>
<event>
 8    1  0.7572579E-006  0.1049123E+04  0.7818608E-02  0.8739920E-01
         21   -1    0    0  503  502  0.00000000000E+00  0.00000000000E+00  0.23165870363E+04  0.23165870363E+04  0.00000000000E+00 0.  1.
         21   -1    0    0  501  503 -0.00000000000E+00 -0.00000000000E+00 -0.63271185443E+03  0.63271185443E+03  0.00000000000E+00 0.  1.
    9000010    2    1    2  501    0 -0.11867098010E+03  0.81491010499E+02  0.47432950450E+02  0.10054362559E+04  0.99394597113E+03 0.  0.
   -9000010    2    1    2    0  502  0.11867098010E+03 -0.81491010499E+02  0.16364422314E+04  0.19438626349E+04  0.10391992976E+04 0.  0.
        -13    1    3    3    0    0 -0.45859181190E+03  0.11608860733E+03  0.31765873666E+03  0.56981584642E+03  0.10566000000E+00 0.  1.
         13    1    4    4    0    0  0.27655441224E+03 -0.46638666552E+03  0.51528421600E+03  0.74800848867E+03  0.10566000000E+00 0. -1.
          4    1    3    3  501    0  0.33992083180E+03 -0.34597596827E+02 -0.27022578621E+03  0.43562040945E+03  0.00000000000E+00 0.  1.
         -4    1    4    4    0  502 -0.15788343214E+03  0.38489565502E+03  0.11211580154E+04  0.11958541462E+04  0.00000000000E+00 0. -1.
</event>
<event>
 8    1  0.7572579E-006  0.1074228E+04  0.7818608E-02  0.8729333E-01
         21   -1    0    0  501  502  0.00000000000E+00  0.00000000000E+00  0.13839225554E+04  0.13839225554E+04  0.00000000000E+00 0. -1.
         21   -1    0    0  502  503 -0.00000000000E+00 -0.00000000000E+00 -0.19569037017E+04  0.19569037017E+04  0.00000000000E+00 0. -1.
    9000010    2    1    2  501    0  0.33368993593E+03  0.50546234534E+02  0.10133007717E+04  0.14767345142E+04  0.10198345337E+04 0.  0.
   -9000010    2    1    2    0  503 -0.33368993593E+03 -0.50546234534E+02 -0.15862819179E+04  0.18640917429E+04  0.91904505206E+03 0.  0.
        -13    1    3    3    0    0  0.54172268609E+03 -0.20399717455E+03  0.22218665126E+03  0.62003647878E+03  0.10566000000E+00 0.  1.
         13    1    4    4    0    0 -0.56842765543E+03 -0.28745527543E+03 -0.11538147894E+04  0.13179640034E+04  0.10566000000E+00 0. -1.
          4    1    3    3  501    0 -0.20803275017E+03  0.25454340909E+03  0.79111412045E+03  0.85669803538E+03  0.00000000000E+00 0.  1.
         -4    1    4    4    0  503  0.23473771951E+03  0.23690904090E+03 -0.43246712850E+03  0.54612773950E+03  0.00000000000E+00 0. -1.
</event>
<event>
 8    1  0.7572579E-006  0.1052624E+04  0.7818608E-02  0.8727233E-01
         21   -1    0    0  503  502  0.00000000000E+00  0.00000000000E+00  0.87268846031E+03  0.87268846031E+03  0.00000000000E+00 0.  1.
         21   -1    0    0  501  503 -0.00000000000E+00 -0.00000000000E+00 -0.14095365341E+04  0.14095365341E+04  0.00000000000E+00 0.  1.
    9000010    2    1    2  501    0 -0.34483320393E+03  0.30323947883E+02 -0.63219765773E+03  0.12278810576E+04  0.99407672384E+03 0.  0.
   -9000010    2    1    2    0  502  0.34483320393E+03 -0.30323947883E+02  0.95349583912E+02  0.10543439368E+04  0.99132240649E+03 0.  0.
        -13    1    3    3    0    0 -0.67408441556E+03 -0.11953816175E+03 -0.34878550654E+03  0.76832968976E+03  0.10566000000E+00 0.  1.
         13    1    4    4    0    0 -0.28881308061E+03  0.45458678628E+02  0.26437769877E+03  0.39417643989E+03  0.10566000000E+00 0. -1.
          4    1    3    3  501    0  0.32925121164E+03  0.14986210963E+03 -0.28341215118E+03  0.45955136787E+03  0.00000000000E+00 0.  1.
         -4    1    4    4    0  502  0.63364628453E+03 -0.75782626511E+02 -0.16902811486E+03  0.66016749693E+03  0.00000000000E+00 0. -1.
</event>
<event>
 8    1  0.7572579E-006  0.1082150E+04  0.7818608E-02  0.8703210E-01
         21   -1    0    0  503  502  0.00000000000E+00  0.00000000000E+00  0.76231922222E+03  0.76231922222E+03  0.00000000000E+00 0. -1.
         21   -1    0    0  501  503 -0.00000000000E+00 -0.00000000000E+00 -0.16386732454E+04  0.16386732454E+04  0.00000000000E+00 0. -1.
    9000010    2    1    2  501    0 -0.36603921863E+03 -0.18317967187E+03 -0.11549480929E+03  0.10781335665E+04  0.99070350482E+03 0.  0.
   -9000010    2    1    2    0  502  0.36603921863E+03  0.18317967187E+03 -0.76085921387E+03  0.13228589011E+04  0.10017531768E+04 0.  0.
        -13    1    3    3    0    0 -0.33331499121E+03  0.92273764930E+02  0.37779917567E+03  0.51219679749E+03  0.10566000000E+00 0.  1.
         13    1    4    4    0    0  0.11924246177E+03  0.30158885426E+03 -0.94090172033E+03  0.99522392465E+03  0.10566000000E+00 0. -1.
          4    1    3    3  501    0 -0.32724227418E+02 -0.27545343680E+03 -0.49329398496E+03  0.56593676900E+03  0.00000000000E+00 0.  1.
         -4    1    4    4    0  502  0.24679675686E+03 -0.11840918239E+03  0.18004250646E+03  0.32763497647E+03  0.00000000000E+00 0. -1.
</event>
<event>
 8    1  0.7572579E-006  0.1066843E+04  0.7818608E-02  0.8723977E-01
         21   -1    0    0  501  502  0.00000000000E+00  0.00000000000E+00  0.16155546485E+04  0.16155546485E+04  0.00000000000E+00 0.  1.
         21   -1    0    0  502  503 -0.00000000000E+00 -0.00000000000E+00 -0.72976979215E+03  0.72976979215E+03  0.00000000000E+00 0.  1.
    9000010    2    1    2  501    0 -0.25565716662E+03 -0.12188865069E+03  0.77057062492E+03  0.13160294544E+04  0.10285606481E+04 0.  0.
   -9000010    2    1    2    0  503  0.25565716662E+03  0.12188865069E+03  0.11521423141E+03  0.10292949862E+04  0.98283081938E+03 0.  0.
        -13    1    3    3    0    0 -0.54599175155E+03 -0.20828966408E+02  0.69845867008E+02  0.55083508867E+03  0.10566000000E+00 0.  1.
         13    1    4    4    0    0  0.45404229715E+03 -0.55362618150E+02 -0.29215863832E+03  0.54274866025E+03  0.10566000000E+00 0. -1.
          4    1    3    3  501    0  0.29033458493E+03 -0.10105968429E+03  0.70072475791E+03  0.76519436573E+03  0.00000000000E+00 0.  1.
         -4    1    4    4    0  503 -0.19838513053E+03  0.17725126885E+03  0.40737286973E+03  0.48654632597E+03  0.00000000000E+00 0. -1.
</event>
<event>
 8    1  0.7572579E-006  0.9832509E+03  0.7818608E-02  0.8791077E-01
         21   -1    0    0  503  502  0.00000000000E+00  0.00000000000E+00  0.15349226260E+04  0.15349226260E+04  0.00000000000E+00 0. -1.
         21   -1    0    0  501  503 -0.00000000000E+00 -0.00000000000E+00 -0.72399775489E+03  0.72399775489E+03  0.00000000000E+00 0. -1.
    9000010    2    1    2  501    0  0.17476815775E+03 -0.58103123160E+02 -0.47496263631E+01  0.98326237672E+03  0.96584805256E+03 0.  0.
   -9000010    2    1    2    0  502 -0.17476815775E+03  0.58103123160E+02  0.81567449749E+03  0.12756580042E+04  0.96335796873E+03 0.  0.
        -13    1    3    3    0    0 -0.28064342826E+03  0.20201187455E+03 -0.22701329322E+03  0.41364789102E+03  0.10566000000E+00 0.  1.
         13    1    4    4    0    0 -0.10977771282E+02  0.30693175810E+03 -0.91787601520E+02  0.32055044930E+03  0.10566000000E+00 0. -1.
          4    1    3    3  501    0  0.45541158601E+03 -0.26011499771E+03  0.22226366686E+03  0.56961448569E+03  0.00000000000E+00 0.  1.
         -4    1    4    4    0  502 -0.16379038646E+03 -0.24882863494E+03  0.90746209901E+03  0.95510755489E+03  0.00000000000E+00 0. -1.
</event>
<event>
 8    1  0.7572579E-006  0.1033016E+04  0.7818608E-02  0.8745403E-01
         21   -1    0    0  503  502  0.00000000000E+00  0.00000000000E+00  0.78318275834E+03  0.78318275834E+03  0.00000000000E+00 0.  1.
         21   -1    0    0  501  503 -0.00000000000E+00 -0.00000000000E+00 -0.13687685773E+04  0.13687685773E+04  0.00000000000E+00 0.  1.
    9000010    2    1    2  501    0  0.11779937259E+03 -0.21002205095E+03 -0.39836803237E+03  0.11021068648E+04  0.99897772653E+03 0.  0.
   -9000010    2    1    2    0  502 -0.11779937259E+03  0.21002205095E+03 -0.18721778661E+03  0.10498444709E+04  0.10045580916E+04 0.  0.
        -13    1    3    3    0    0 -0.26592040189E+03 -0.48014545889E+03 -0.28885751031E+03  0.62023543454E+03  0.10566000000E+00 0.  1.
         13    1    4    4    0    0 -0.47092574916E+03  0.27116520021E+03 -0.36014430110E+03  0.65192450162E+03  0.10566000000E+00 0. -1.
          4    1    3    3  501    0  0.38371977448E+03  0.27012340793E+03 -0.10951052206E+03  0.48187143024E+03  0.00000000000E+00 0.  1.
         -4    1    4    4    0  502  0.35312637657E+03 -0.61143149254E+02  0.17292651449E+03  0.39791996927E+03  0.00000000000E+00 0. -1.
</event>
<event>
 8    1  0.7572579E-006  0.1009870E+04  0.7818608E-02  0.8767283E-01
         21   -1    0    0  501  502  0.00000000000E+00  0.00000000000E+00  0.66916810426E+03  0.66916810426E+03  0.00000000000E+00 0.  1.
         21   -1    0    0  502  503 -0.00000000000E+00 -0.00000000000E+00 -0.19023886384E+04  0.19023886384E+04  0.00000000000E+00 0.  1.
    9000010    2    1    2  501    0 -0.98949697695E+02 -0.64104960613E+02 -0.12012850471E+04  0.15693702521E+04  0.10029639751E+04 0.  0.
   -9000010    2    1    2    0  503  0.98949697695E+02  0.64104960613E+02 -0.31935487100E+02  0.10021864906E+04  0.99471473192E+03 0.  0.
        -13    1    3    3    0    0 -0.51228884323E+02  0.46766259836E+03 -0.64477463579E+03  0.79816479916E+03  0.10566000000E+00 0.  1.
         13    1    4    4    0    0  0.31457273880E+03  0.17536300574E+01 -0.43737972941E+03  0.53875794386E+03  0.10566000000E+00 0. -1.
          4    1    3    3  501    0 -0.47720813372E+02 -0.53176755898E+03 -0.55651041129E+03  0.77120545296E+03  0.00000000000E+00 0.  1.
         -4    1    4    4    0  503 -0.21562304111E+03  0.62351330556E+02  0.40544424231E+03  0.46342854670E+03  0.00000000000E+00 0. -1.
</event>
<event>
 8    1  0.7572579E-006  0.1097130E+04  0.7818608E-02  0.8689114E-01
         21   -1    0    0  503  502  0.00000000000E+00  0.00000000000E+00  0.17394066810E+04  0.17394066810E+04  0.00000000000E+00 0.  1.
         21   -1    0    0  501  503 -0.00000000000E+00 -0.00000000000E+00 -0.95160989124E+03  0.95160989124E+03  0.00000000000E+00 0.  1.
    9000010    2    1    2  501    0  0.10128750841E+03 -0.44038360958E+03 -0.31250174442E+03  0.11371986453E+04  0.99567391025E+03 0.  0.
   -9000010    2    1    2    0  502 -0.10128750841E+03  0.44038360958E+03  0.11002985342E+04  0.15538179270E+04  0.99974816975E+03 0.  0.
        -13    1    3    3    0    0  0.33275129368E+03  0.14311534754E+03 -0.35610744790E+03  0.50795467490E+03  0.10566000000E+00 0.  1.
         13    1    4    4    0    0  0.30653396244E+03 -0.17937041781E+03  0.34781299943E+03  0.49710231407E+03  0.10566000000E+00 0. -1.
          4    1    3    3  501    0 -0.23146378527E+03 -0.58349895712E+03  0.43605703476E+02  0.62924397036E+03  0.00000000000E+00 0.  1.
         -4    1    4    4    0  502 -0.40782147085E+03  0.61975402739E+03  0.75248553472E+03  0.10567156129E+04  0.00000000000E+00 0. -1.
</event>
<event>
 8    1  0.7572579E-006  0.1050652E+04  0.7818608E-02  0.8764943E-01
         21   -1    0    0  503  502  0.00000000000E+00  0.00000000000E+00  0.73628218245E+03  0.73628218245E+03  0.00000000000E+00 0. -1.
         21   -1    0    0  501  503 -0.00000000000E+00 -0.00000000000E+00 -0.13589248035E+04  0.13589248035E+04  0.00000000000E+00 0. -1.
    9000010    2    1    2  501    0 -0.70230537088E+02 -0.61980045661E+02 -0.52366979077E+03  0.10399037742E+04  0.89353005293E+03 0.  0.
   -9000010    2    1    2    0  502  0.70230537088E+02  0.61980045661E+02 -0.98972830276E+02  0.10553032117E+04  0.10464680564E+04 0.  0.
        -13    1    3    3    0    0  0.31215258926E+03  0.73492143616E+02 -0.54644316543E+03  0.63359330676E+03  0.10566000000E+00 0.  1.
         13    1    4    4    0    0 -0.39501883200E+03  0.32296278145E+03 -0.10902746213E+03  0.52175840626E+03  0.10566000000E+00 0. -1.
          4    1    3    3  501    0 -0.38238312635E+03 -0.13547218928E+03  0.22773374665E+02  0.40631046747E+03  0.00000000000E+00 0.  1.
         -4    1    4    4    0  502  0.46524936908E+03 -0.26098273579E+03  0.10054631856E+02  0.53354480546E+03  0.00000000000E+00 0. -1.
</event>
<event>
 8    1  0.7572579E-006  0.1032860E+04  0.7818608E-02  0.8745358E-01
         21   -1    0    0  501  502  0.00000000000E+00  0.00000000000E+00  0.14436596964E+04  0.14436596964E+04  0.00000000000E+00 0. -1.
         21   -1    0    0  502  503 -0.00000000000E+00 -0.00000000000E+00 -0.85607729008E+03  0.85607729008E+03  0.00000000000E+00 0. -1.
    9000010    2    1    2  501    0 -0.86838414554E+02 -0.44551075320E+02  0.72447581425E+03  0.12578450158E+04  0.10236128027E+04 0.  0.
   -9000010    2    1    2    0  503  0.86838414554E+02  0.44551075320E+02 -0.13689340797E+03  0.10418919706E+04  0.10282379903E+04 0.  0.
        -13    1    3    3    0    0 -0.47589394313E+03 -0.25413639908E+03  0.58185746747E+03  0.79348502068E+03  0.10566000000E+00 0.  1.
         13    1    4    4    0    0  0.16506166368E+03 -0.27803260317E+03  0.33458446226E+03  0.46528943121E+03  0.10566000000E+00 0. -1.
          4    1    3    3  501    0  0.38905552857E+03  0.20958532376E+03  0.14261834679E+03  0.46435999514E+03  0.00000000000E+00 0.  1.
         -4    1    4    4    0  503 -0.78223249124E+02  0.32258367849E+03 -0.47147787024E+03  0.57660253941E+03  0.00000000000E+00 0. -1.
</event>
<event>
 8    1  0.7572579E-006  0.1029108E+04  0.7818608E-02  0.8752029E-01
         21   -1    0    0  503  502  0.00000000000E+00  0.00000000000E+00  0.21174646515E+04  0.21174646515E+04  0.00000000000E+00 0.  1.
         21   -1    0    0  501  503 -0.00000000000E+00 -0.00000000000E+00 -0.78918738533E+03  0.78918738533E+03  0.00000000000E+00 0.  1.
    9000010    2    1    2  501    0 -0.12251279808E+03  0.96598662396E+02 -0.23293392772E+03  0.10367738236E+04  0.99814881626E+03 0.  0.
   -9000010    2    1    2    0  502  0.12251279808E+03 -0.96598662396E+02  0.15612111939E+04  0.18698782132E+04  0.10172135729E+04 0.  0.
        -13    1    3    3    0    0 -0.53961918563E+02  0.54485831631E+03 -0.57438913460E+02  0.55052857641E+03  0.10566000000E+00 0.  1.
         13    1    4    4    0    0 -0.31948665547E+03 -0.54321133857E+02  0.13306979826E+04  0.13695910487E+04  0.10566000000E+00 0. -1.
          4    1    3    3  501    0 -0.68550879513E+02 -0.44825965391E+03 -0.17549501426E+03  0.48624524721E+03  0.00000000000E+00 0.  1.
         -4    1    4    4    0  502  0.44199945355E+03 -0.42277528538E+02  0.23051321122E+03  0.50028716444E+03  0.00000000000E+00 0. -1.
</event>
<event>
 8    1  0.7572579E-006  0.1082316E+04  0.7818608E-02  0.8705595E-01
         21   -1    0    0  503  502  0.00000000000E+00  0.00000000000E+00  0.53691512365E+03  0.53691512365E+03  0.00000000000E+00 0. -1.
         21   -1    0    0  501  503 -0.00000000000E+00 -0.00000000000E+00 -0.28273254162E+04  0.28273254162E+04  0.00000000000E+00 0. -1.
    9000010    2    1    2  501    0  0.32802578707E+03  0.16272720064E+03 -0.19669951417E+04  0.22346360440E+04  0.99521218998E+03 0.  0.
   -9000010    2    1    2    0  502 -0.32802578707E+03 -0.16272720064E+03 -0.32341515082E+03  0.11296044958E+04  0.10184929544E+04 0.  0.
        -13    1    3    3    0    0  0.17225248553E+03 -0.34365737770E+03 -0.14280722735E+04  0.14789055891E+04  0.10566000000E+00 0.  1.
         13    1    4    4    0    0 -0.51862067108E+02 -0.45263696876E+03  0.17695616395E+03  0.48875698932E+03  0.10566000000E+00 0. -1.
          4    1    3    3  501    0  0.15577330154E+03  0.50638457834E+03 -0.53892286823E+03  0.75573045496E+03  0.00000000000E+00 0.  1.
         -4    1    4    4    0  502 -0.27616371997E+03  0.28990976812E+03 -0.50037131477E+03  0.64084750644E+03  0.00000000000E+00 0. -1.
</event>
<event>
 8    1  0.7572579E-006  0.1088075E+04  0.7818608E-02  0.8703250E-01
         21   -1    0    0  501  502  0.00000000000E+00  0.00000000000E+00  0.14504245583E+04  0.14504245583E+04  0.00000000000E+00 0.  1.
         21   -1    0    0  502  503 -0.00000000000E+00 -0.00000000000E+00 -0.99995451715E+03  0.99995451715E+03  0.00000000000E+00 0.  1.
    9000010    2    1    2  501    0 -0.26839556395E+03  0.19660531382E+03  0.78787651072E+03  0.13433748857E+04  0.10359618039E+04 0.  0.
   -9000010    2    1    2    0  503  0.26839556395E+03 -0.19660531382E+03 -0.33740646961E+03  0.11070041897E+04  0.10004625541E+04 0.  0.
        -13    1    3    3    0    0 -0.58769550144E+03  0.39864711346E+03  0.52181735285E+03  0.88124848050E+03  0.10566000000E+00 0.  1.
         13    1    4    4    0    0 -0.38221029065E+03 -0.10879586470E+03 -0.14264906880E+03  0.42222033874E+03  0.10566000000E+00 0. -1.
          4    1    3    3  501    0  0.31929993749E+03 -0.20204179964E+03  0.26605915787E+03  0.46212640518E+03  0.00000000000E+00 0.  1.
         -4    1    4    4    0  503  0.65060585460E+03 -0.87809449117E+02 -0.19475740081E+03  0.68478385098E+03  0.00000000000E+00 0. -1.
</event>
<event>
 8    1  0.7572579E-006  0.1189979E+04  0.7818608E-02  0.8615010E-01
         21   -1    0    0  503  502  0.00000000000E+00  0.00000000000E+00  0.13477975087E+04  0.13477975087E+04  0.00000000000E+00 0. -1.
         21   -1    0    0  501  503 -0.00000000000E+00 -0.00000000000E+00 -0.13491517765E+04  0.13491517765E+04  0.00000000000E+00 0. -1.
    9000010    2    1    2  501    0  0.44366151774E+03  0.46985843562E+03 -0.63920653452E+03  0.13467987851E+04  0.99382064872E+03 0.  0.
   -9000010    2    1    2    0  502 -0.44366151774E+03 -0.46985843562E+03  0.63785226678E+03  0.13501505002E+04  0.99922388234E+03 0.  0.
        -13    1    3    3    0    0  0.63358525501E+03  0.24333968047E+03 -0.76750529097E+03  0.10245530041E+04  0.10566000000E+00 0.  1.
         13    1    4    4    0    0 -0.33360637640E+03 -0.71576152178E+03  0.71984388109E+03  0.10685424628E+04  0.10566000000E+00 0. -1.
          4    1    3    3  501    0 -0.18992373727E+03  0.22651875515E+03  0.12829875645E+03  0.32224578092E+03  0.00000000000E+00 0.  1.
         -4    1    4    4    0  502 -0.11005514134E+03  0.24590308616E+03 -0.81991614310E+02  0.28160803741E+03  0.00000000000E+00 0. -1.
</event>
<event>
 8    1  0.7572579E-006  0.1237411E+04  0.7818608E-02  0.8584246E-01
         21   -1    0    0  503  502  0.00000000000E+00  0.00000000000E+00  0.16651275184E+04  0.16651275184E+04  0.00000000000E+00 0.  1.
         21   -1    0    0  501  503 -0.00000000000E+00 -0.00000000000E+00 -0.15607898605E+04  0.15607898605E+04  0.00000000000E+00 0.  1.
    9000010    2    1    2  501    0 -0.63019800726E+03  0.23025264728E+03 -0.99915086530E+03  0.15679450563E+04  0.10049793222E+04 0.  0.
   -9000010    2    1    2    0  502  0.63019800726E+03 -0.23025264728E+03  0.11034885232E+04  0.16579723225E+04  0.10397208719E+04 0.  0.
        -13    1    3    3    0    0 -0.64153828659E+02 -0.30613820107E+03 -0.16170876335E+02  0.31320571561E+03  0.10566000000E+00 0.  1.
         13    1    4    4    0    0 -0.49933186364E+02  0.33401918559E+03  0.43048109194E+03  0.54715274022E+03  0.10566000000E+00 0. -1.
          4    1    3    3  501    0 -0.56604417860E+03  0.53639084836E+03 -0.98297998897E+03  0.12547393407E+04  0.00000000000E+00 0.  1.
         -4    1    4    4    0  502  0.68013119362E+03 -0.56427183288E+03  0.67300743129E+03  0.11108195823E+04  0.00000000000E+00 0. -1.
</event>
<event>
 8    1  0.7572579E-006  0.1005075E+04  0.7818608E-02  0.8777117E-01
         21   -1    0    0  501  502  0.00000000000E+00  0.00000000000E+00  0.10303147410E+04  0.10303147410E+04  0.00000000000E+00 0.  1.
         21   -1    0    0  502  503 -0.00000000000E+00 -0.00000000000E+00 -0.11879350182E+04  0.11879350182E+04  0.00000000000E+00 0.  1.
    9000010    2    1    2  501    0  0.12568647656E+03 -0.20817511290E+02  0.41770997150E+03  0.10601560875E+04  0.96603253074E+03 0.  0.
   -9000010    2    1    2    0  503 -0.12568647656E+03  0.20817511290E+02 -0.57533024866E+03  0.11580936717E+04  0.99696820320E+03 0.  0.
        -13    1    3    3    0    0 -0.13981060616E+03  0.77819975462E+02  0.66511288721E+03  0.68408926177E+03  0.10566000000E+00 0.  1.
         13    1    4    4    0    0 -0.32892470729E+03 -0.33054980846E+03 -0.58985706152E+03  0.75192154054E+03  0.10566000000E+00 0. -1.
          4    1    3    3  501    0  0.26549708272E+03 -0.98637486752E+02 -0.24740291571E+03  0.37606682575E+03  0.00000000000E+00 0.  1.
         -4    1    4    4    0  503  0.20323823073E+03  0.35136731975E+03  0.14526812861E+02  0.40617213114E+03  0.00000000000E+00 0. -1.
</event>
<event>
 8    1  0.7572579E-006  0.1025170E+04  0.7818608E-02  0.8752704E-01
         21   -1    0    0  503  502  0.00000000000E+00  0.00000000000E+00  0.92537945283E+03  0.92537945283E+03  0.00000000000E+00 0. -1.
         21   -1    0    0  501  503 -0.00000000000E+00 -0.00000000000E+00 -0.11598675337E+04  0.11598675337E+04  0.00000000000E+00 0. -1.
    9000010    2    1    2  501    0 -0.20384897089E+03 -0.55326307006E+01  0.53439643856E+02  0.10204107937E+04  0.99839740552E+03 0.  0.
   -9000010    2    1    2    0  502  0.20384897089E+03  0.55326307006E+01 -0.28792772473E+03  0.10648361929E+04  0.10046833979E+04 0.  0.
        -13    1    3    3    0    0 -0.63265213578E+02  0.49503851620E+03  0.24152704500E+02  0.49964886077E+03  0.10566000000E+00 0.  1.
         13    1    4    4    0    0  0.74046283328E+01 -0.49092473632E+03 -0.12552420608E+03  0.50677239736E+03  0.10566000000E+00 0. -1.
          4    1    3    3  501    0 -0.14058375731E+03 -0.50057114690E+03  0.29286939356E+02  0.52076193289E+03  0.00000000000E+00 0.  1.
         -4    1    4    4    0  502  0.19644434256E+03  0.49645736702E+03 -0.16240351865E+03  0.55806379551E+03  0.00000000000E+00 0. -1.
</event>
<event>
 8    1  0.7572579E-006  0.1166973E+04  0.7818608E-02  0.8634701E-01
         21   -1    0    0  501  502  0.00000000000E+00  0.00000000000E+00  0.13130961430E+04  0.13130961430E+04  0.00000000000E+00 0.  1.
         21   -1    0    0  502  503 -0.00000000000E+00 -0.00000000000E+00 -0.11577414694E+04  0.11577414694E+04  0.00000000000E+00 0. -1.
    9000010    2    1    2  501    0  0.57649684932E+03 -0.11300369469E+03 -0.34137998495E+03  0.12158808723E+04  0.10083191703E+04 0.  0.
   -9000010    2    1    2    0  503 -0.57649684932E+03  0.11300369469E+03  0.49673465850E+03  0.12549567400E+04  0.99149011399E+03 0.  0.
        -13    1    3    3    0    0  0.53431198558E+03 -0.26774489591E+03 -0.64077931431E+03  0.87622757777E+03  0.10566000000E+00 0.  1.
         13    1    4    4    0    0 -0.50432482023E+03 -0.17873118666E+03 -0.13808797936E+03  0.55259086366E+03  0.10566000000E+00 0. -1.
          4    1    3    3  501    0  0.42184863743E+02  0.15474120123E+03  0.29939932937E+03  0.33965329457E+03  0.00000000000E+00 0.  1.
         -4    1    4    4    0  503 -0.72172029089E+02  0.29173488134E+03  0.63482263786E+03  0.70236587639E+03  0.00000000000E+00 0. -1.
</event>
<event>
 8    1  0.7572579E-006  0.1031697E+04  0.7818608E-02  0.8747017E-01
         21   -1    0    0  503  502  0.00000000000E+00  0.00000000000E+00  0.21779413785E+04  0.21779413785E+04  0.00000000000E+00 0.  1.
         21   -1    0    0  501  503 -0.00000000000E+00 -0.00000000000E+00 -0.62426346843E+03  0.62426346843E+03  0.00000000000E+00 0.  1.
    9000010    2    1    2  501    0 -0.15301069793E+03 -0.15598236974E+03  0.11787914793E+03  0.10384098312E+04  0.10082939604E+04 0.  0.
   -9000010    2    1    2    0  502  0.15301069793E+03  0.15598236974E+03  0.14357987622E+04  0.17637950158E+04  0.10008556334E+04 0.  0.
        -13    1    3    3    0    0 -0.34094585740E+03 -0.45609287029E+02 -0.36930968654E+03  0.50469192630E+03  0.10566000000E+00 0.  1.
         13    1    4    4    0    0  0.50267448151E+03 -0.14448155227E+03  0.51492886108E+03  0.73396750367E+03  0.10566000000E+00 0. -1.
          4    1    3    3  501    0  0.18793515947E+03 -0.11037308271E+03  0.48718883446E+03  0.53371790487E+03  0.00000000000E+00 0.  1.
         -4    1    4    4    0  502 -0.34966378358E+03  0.30046392200E+03  0.92086990110E+03  0.10298275121E+04  0.00000000000E+00 0. -1.
</event>
<event>
 8    1  0.7572579E-006  0.1038064E+04  0.7818608E-02  0.8741676E-01
         21   -1    0    0  501  502  0.00000000000E+00  0.00000000000E+00  0.85599293227E+03  0.85599293227E+03  0.00000000000E+00 0.  1.
         21   -1    0    0  502  503 -0.00000000000E+00 -0.00000000000E+00 -0.13226872048E+04  0.13226872048E+04  0.00000000000E+00 0.  1.
    9000010    2    1    2  501    0  0.20167521359E+03 -0.16132248466E+03 -0.49145611818E+03  0.11403210102E+04  0.99604470498E+03 0.  0.
   -9000010    2    1    2    0  503 -0.20167521359E+03  0.16132248466E+03  0.24761845675E+02  0.10383591269E+04  0.10054246324E+04 0.  0.
        -13    1    3    3    0    0  0.46150141736E+03 -0.44346157979E+03 -0.36313446852E+03  0.73587253269E+03  0.10566000000E+00 0.  1.
         13    1    4    4    0    0 -0.45892222328E+03 -0.19819922945E+03  0.23082998666E+03  0.55061332664E+03  0.10566000000E+00 0. -1.
          4    1    3    3  501    0 -0.25982620377E+03  0.28213909513E+03 -0.12832164966E+03  0.40444847748E+03  0.00000000000E+00 0.  1.
         -4    1    4    4    0  503  0.25724700969E+03  0.35952171411E+03 -0.20606814098E+03  0.48774580022E+03  0.00000000000E+00 0. -1.
</event>
<event>
 8    1  0.7572579E-006  0.9959209E+03  0.7818608E-02  0.8781869E-01
         21   -1    0    0  503  502  0.00000000000E+00  0.00000000000E+00  0.24641931149E+04  0.24641931149E+04  0.00000000000E+00 0. -1.
         21   -1    0    0  501  503 -0.00000000000E+00 -0.00000000000E+00 -0.40438178049E+03  0.40438178049E+03  0.00000000000E+00 0. -1.
    9000010    2    1    2  501    0  0.98164519781E+02  0.25723046429E+02  0.12350692897E+04  0.15865858194E+04  0.99073733345E+03 0.  0.
   -9000010    2    1    2    0  502 -0.98164519781E+02 -0.25723046429E+02  0.82474204465E+03  0.12819890759E+04  0.97621647320E+03 0.  0.
        -13    1    3    3    0    0  0.42863781510E+02  0.11883722034E+03 -0.15066830589E+03  0.19662283252E+03  0.10566000000E+00 0.  1.
         13    1    4    4    0    0 -0.32520607833E+03 -0.33137249354E+03  0.76743474281E+03  0.89695195997E+03  0.10566000000E+00 0. -1.
          4    1    3    3  501    0  0.55300738271E+02 -0.93114173911E+02  0.13857375956E+04  0.13899629869E+04  0.00000000000E+00 0.  1.
         -4    1    4    4    0  502  0.22704155855E+03  0.30564944711E+03  0.57307301840E+02  0.38503711597E+03  0.00000000000E+00 0. -1.
</event>
<event>
 8    1  0.7572579E-006  0.1095241E+04  0.7818608E-02  0.8697808E-01
         21   -1    0    0  501  502  0.00000000000E+00  0.00000000000E+00  0.14449745172E+04  0.14449745172E+04  0.00000000000E+00 0.  1.
         21   -1    0    0  502  503 -0.00000000000E+00 -0.00000000000E+00 -0.94522714090E+03  0.94522714090E+03  0.00000000000E+00 0.  1.
    9000010    2    1    2  501    0 -0.24615640659E+03  0.22068950643E+03  0.71062293638E+03  0.12748446422E+04  0.10054586363E+04 0.  0.
   -9000010    2    1    2    0  503  0.24615640659E+03 -0.22068950643E+03 -0.21087556011E+03  0.11153570159E+04  0.10441532149E+04 0.  0.
        -13    1    3    3    0    0 -0.26873155148E+03 -0.35999733625E+03  0.45685507851E+03  0.64072716721E+03  0.10566000000E+00 0.  1.
         13    1    4    4    0    0 -0.18069711585E+03 -0.13719617809E+03 -0.52958918543E+03  0.57614143701E+03  0.10566000000E+00 0. -1.
          4    1    3    3  501    0  0.22575144886E+02  0.58068684268E+03  0.25376785787E+03  0.63411747501E+03  0.00000000000E+00 0.  1.
         -4    1    4    4    0  503  0.42685352245E+03 -0.83493328344E+02  0.31871362532E+03  0.53921557884E+03  0.00000000000E+00 0. -1.
</event>
<event>
 8    1  0.7572579E-006  0.1000191E+04  0.7818608E-02  0.8780088E-01
         21   -1    0    0  503  502  0.00000000000E+00  0.00000000000E+00  0.96207968300E+03  0.96207968300E+03  0.00000000000E+00 0.  1.
         21   -1    0    0  501  503 -0.00000000000E+00 -0.00000000000E+00 -0.12483523239E+04  0.12483523239E+04  0.00000000000E+00 0.  1.
    9000010    2    1    2  501    0 -0.70401021363E+02  0.33860148819E+02 -0.62220156657E+03  0.11779291186E+04  0.99713560036E+03 0.  0.
   -9000010    2    1    2    0  502  0.70401021363E+02 -0.33860148819E+02  0.33592892569E+03  0.10325028883E+04  0.97319636133E+03 0.  0.
        -13    1    3    3    0    0  0.24898162770E+03  0.33504670322E+03 -0.60950882759E+03  0.73874837824E+03  0.10566000000E+00 0.  1.
         13    1    4    4    0    0  0.14976334924E+03  0.38451562580E+03 -0.98424275658E+02  0.42422715196E+03  0.10566000000E+00 0. -1.
          4    1    3    3  501    0 -0.31938264906E+03 -0.30118655440E+03 -0.12692738972E+02  0.43918074036E+03  0.00000000000E+00 0.  1.
         -4    1    4    4    0  502 -0.79362327877E+02 -0.41837577462E+03  0.43435320134E+03  0.60827573632E+03  0.00000000000E+00 0. -1.
</event>
<event>
 8    1  0.7572579E-006  0.1014190E+04  0.7818608E-02  0.8767297E-01
         21   -1    0    0  503  502  0.00000000000E+00  0.00000000000E+00  0.96069216571E+03  0.96069216571E+03  0.00000000000E+00 0. -1.
         21   -1    0    0  501  503 -0.00000000000E+00 -0.00000000000E+00 -0.11174284554E+04  0.11174284554E+04  0.00000000000E+00 0. -1.
    9000010    2    1    2  501    0 -0.99709403094E+02 -0.18525988101E+03 -0.34359283434E+03  0.10468604432E+04  0.96622852535E+03 0.  0.
   -9000010    2    1    2    0  502  0.99709403094E+02  0.18525988101E+03  0.18685654463E+03  0.10312601779E+04  0.99212851873E+03 0.  0.
        -13    1    3    3    0    0  0.30915747017E+03 -0.35318930530E+03 -0.37920099943E+03  0.60341895552E+03  0.10566000000E+00 0.  1.
         13    1    4    4    0    0  0.26500000262E+03 -0.35852879151E+03  0.81195929855E+02  0.45316739282E+03  0.10566000000E+00 0. -1.
          4    1    3    3  501    0 -0.40886687327E+03  0.16792942429E+03  0.35608165094E+02  0.44344148771E+03  0.00000000000E+00 0.  1.
         -4    1    4    4    0  502 -0.16529059953E+03  0.54378867251E+03  0.10566061477E+03  0.57809278508E+03  0.00000000000E+00 0. -1.
</event>
<event>
 8    1  0.7572579E-006  0.1000640E+04  0.7818608E-02  0.8777962E-01
         21   -1    0    0  501  502  0.00000000000E+00  0.00000000000E+00  0.70788597420E+03  0.70788597420E+03  0.00000000000E+00 0. -1.
         21   -1    0    0  502  503 -0.00000000000E+00 -0.00000000000E+00 -0.14610318591E+04  0.14610318591E+04  0.00000000000E+00 0. -1.
    9000010    2    1    2  501    0 -0.23408775137E+02  0.17208039978E+03 -0.13588460413E+03  0.99320879597E+03  0.96842111295E+03 0.  0.
   -9000010    2    1    2    0  503  0.23408775137E+02 -0.17208039978E+03 -0.61726128073E+03  0.11757090373E+04  0.98545452303E+03 0.  0.
        -13    1    3    3    0    0  0.14611011273E+03 -0.35255807229E+03 -0.21210981842E+03  0.43661876461E+03  0.10566000000E+00 0.  1.
         13    1    4    4    0    0 -0.23826590528E+03 -0.37013210126E+03  0.39052545005E+02  0.44192027159E+03  0.10566000000E+00 0. -1.
          4    1    3    3  501    0 -0.16951888787E+03  0.52463847206E+03  0.76225214292E+02  0.55659003136E+03  0.00000000000E+00 0.  1.
         -4    1    4    4    0  503  0.26167468042E+03  0.19805170149E+03 -0.65631382574E+03  0.73378876571E+03  0.00000000000E+00 0. -1.
</event>
<event>
 8    1  0.7572579E-006  0.1060980E+04  0.7818608E-02  0.8729162E-01
         21   -1    0    0  501  502  0.00000000000E+00  0.00000000000E+00  0.88135926262E+03  0.88135926262E+03  0.00000000000E+00 0.  1.
         21   -1    0    0  502  503 -0.00000000000E+00 -0.00000000000E+00 -0.17068590169E+04  0.17068590169E+04  0.00000000000E+00 0.  1.
    9000010    2    1    2  501    0  0.20928472497E+03 -0.63994626604E+02  0.26864247021E+03  0.10944620262E+04  0.10381632538E+04 0.  0.
   -9000010    2    1    2    0  503 -0.20928472497E+03  0.63994626604E+02 -0.10941422245E+04  0.14937562534E+04  0.99310882015E+03 0.  0.
        -13    1    3    3    0    0  0.27382174747E+03  0.12623711652E+03  0.62017147478E+03  0.68958453308E+03  0.10566000000E+00 0.  1.
         13    1    4    4    0    0  0.38686570460E+03 -0.98141681593E+02 -0.43286879107E+03  0.58878881147E+03  0.10566000000E+00 0. -1.
          4    1    3    3  501    0 -0.64537022496E+02 -0.19023174312E+03 -0.35152900457E+03  0.40487749310E+03  0.00000000000E+00 0.  1.
         -4    1    4    4    0  503 -0.59615042957E+03  0.16213630820E+03 -0.66127343344E+03  0.90496744189E+03  0.00000000000E+00 0. -1.
</event>
<event>
 8    1  0.7572579E-006  0.1033908E+04  0.7818608E-02  0.8751780E-01
         21   -1    0    0  503  502  0.00000000000E+00  0.00000000000E+00  0.84680099460E+03  0.84680099460E+03  0.00000000000E+00 0. -1.
         21   -1    0    0  501  503 -0.00000000000E+00 -0.00000000000E+00 -0.12601646696E+04  0.12601646696E+04  0.00000000000E+00 0. -1.
    9000010    2    1    2  501    0 -0.39127861759E+02 -0.12544744679E+03 -0.39555723128E+03  0.10729044943E+04  0.98863060806E+03 0.  0.
   -9000010    2    1    2    0  502  0.39127861759E+02  0.12544744679E+03 -0.17806443738E+02  0.10340611699E+04  0.10255229799E+04 0.  0.
        -13    1    3    3    0    0 -0.35285231234E+03  0.29171067189E+03 -0.85313823998E+02  0.46570197567E+03  0.10566000000E+00 0.  1.
         13    1    4    4    0    0  0.15212439087E+03 -0.24664491236E+03  0.37991625390E+03  0.47781996006E+03  0.10566000000E+00 0. -1.
          4    1    3    3  501    0  0.31372445058E+03 -0.41715811867E+03 -0.31024340728E+03  0.60720251862E+03  0.00000000000E+00 0.  1.
         -4    1    4    4    0  502 -0.11299652911E+03  0.37209235914E+03 -0.39772269764E+03  0.55624120986E+03  0.00000000000E+00 0. -1.
</event>
<event>
 8    1  0.7572579E-006  0.1079202E+04  0.7818608E-02  0.8703757E-01
         21   -1    0    0  503  502  0.00000000000E+00  0.00000000000E+00  0.80484448942E+03  0.80484448942E+03  0.00000000000E+00 0.  1.
         21   -1    0    0  501  503 -0.00000000000E+00 -0.00000000000E+00 -0.22312539161E+04  0.22312539161E+04  0.00000000000E+00 0.  1.
    9000010    2    1    2  501    0  0.31179955175E+03  0.18467989535E+03 -0.16141510935E+04  0.19416899002E+04  0.10165383867E+04 0.  0.
   -9000010    2    1    2    0  502 -0.31179955175E+03 -0.18467989535E+03  0.18774166680E+03  0.10944085053E+04  0.10154592158E+04 0.  0.
        -13    1    3    3    0    0 -0.19029138269E+03  0.32989385291E+03 -0.12446210702E+04  0.13015845667E+04  0.10566000000E+00 0.  1.
         13    1    4    4    0    0 -0.45815908336E+03 -0.22085106975E+03 -0.29548151501E+03  0.58821278255E+03  0.10566000000E+00 0. -1.
          4    1    3    3  501    0  0.50209093444E+03 -0.14521395756E+03 -0.36953002323E+03  0.64010533351E+03  0.00000000000E+00 0.  1.
         -4    1    4    4    0  502  0.14635953161E+03  0.36171174403E+02  0.48322318181E+03  0.50619572280E+03  0.00000000000E+00 0. -1.
</event>
<event>
 8    1  0.7572579E-006  0.1129942E+04  0.7818608E-02  0.8679616E-01
         21   -1    0    0  501  502  0.00000000000E+00  0.00000000000E+00  0.11928606630E+04  0.11928606630E+04  0.00000000000E+00 0. -1.
         21   -1    0    0  502  503 -0.00000000000E+00 -0.00000000000E+00 -0.11959703106E+04  0.11959703106E+04  0.00000000000E+00 0. -1.
    9000010    2    1    2  501    0 -0.33487490216E+03  0.41467767128E+03  0.49427541286E+03  0.11542622127E+04  0.89661268152E+03 0.  0.
   -9000010    2    1    2    0  503  0.33487490216E+03 -0.41467767128E+03 -0.49738506042E+03  0.12345687610E+04  0.99632793604E+03 0.  0.
        -13    1    3    3    0    0 -0.27876281572E+03 -0.14793887166E+03 -0.10284847185E+03  0.33192233504E+03  0.10566000000E+00 0.  1.
         13    1    4    4    0    0 -0.55006773150E+02  0.22908062953E+03  0.11697939490E+03  0.26303587191E+03  0.10566000000E+00 0. -1.
          4    1    3    3  501    0 -0.56112086441E+02  0.56261654294E+03  0.59712388471E+03  0.82233987762E+03  0.00000000000E+00 0.  1.
         -4    1    4    4    0  503  0.38988167531E+03 -0.64375830081E+03 -0.61436445531E+03  0.97153288908E+03  0.00000000000E+00 0. -1.
</event>
<event>
 8    1  0.7572579E-006  0.1014034E+04  0.7818608E-02  0.8763540E-01
         21   -1    0    0  501  502  0.00000000000E+00  0.00000000000E+00  0.14283744924E+04  0.14283744924E+04  0.00000000000E+00 0. -1.
         21   -1    0    0  502  503 -0.00000000000E+00 -0.00000000000E+00 -0.73967173759E+03  0.73967173759E+03  0.00000000000E+00 0. -1.
    9000010    2    1    2  501    0  0.91865849988E+02 -0.12710053034E+03  0.54601886404E+03  0.11440230141E+04  0.99300462121E+03 0.  0.
   -9000010    2    1    2    0  503 -0.91865849988E+02  0.12710053034E+03  0.14268389078E+03  0.10240232159E+04  0.10018338060E+04 0.  0.
        -13    1    3    3    0    0  0.60587141506E+02  0.42782806590E+03  0.34517006195E+03  0.55303710411E+03  0.10566000000E+00 0.  1.
         13    1    4    4    0    0  0.10107925842E+03  0.28569841203E+03  0.50202731464E+03  0.58640603248E+03  0.10566000000E+00 0. -1.
          4    1    3    3  501    0  0.31278708482E+02 -0.55492859624E+03  0.20084880208E+03  0.59098591001E+03  0.00000000000E+00 0.  1.
         -4    1    4    4    0  503 -0.19294510840E+03 -0.15859788170E+03 -0.35934342386E+03  0.43761718340E+03  0.00000000000E+00 0. -1.
</event>
<event>
 8    1  0.7572579E-006  0.1103726E+04  0.7818608E-02  0.8686741E-01
         21   -1    0    0  501  502  0.00000000000E+00  0.00000000000E+00  0.17490069811E+04  0.17490069811E+04  0.00000000000E+00 0.  1.
         21   -1    0    0  502  503 -0.00000000000E+00 -0.00000000000E+00 -0.10010158152E+04  0.10010158152E+04  0.00000000000E+00 0.  1.
    9000010    2    1    2  501    0 -0.39439518160E+03  0.13255941572E+03  0.11490011144E+04  0.15932404729E+04  0.10222974547E+04 0.  0.
   -9000010    2    1    2    0  503  0.39439518160E+03 -0.13255941572E+03 -0.40100994844E+03  0.11567823234E+04  0.10021061854E+04 0.  0.
        -13    1    3    3    0    0 -0.14858602460E+03  0.54167397781E+03  0.34778058041E+03  0.66063594227E+03  0.10566000000E+00 0.  1.
         13    1    4    4    0    0 -0.28579938852E+03 -0.12255663617E+03  0.83052788667E+02  0.32186829048E+03  0.10566000000E+00 0. -1.
          4    1    3    3  501    0 -0.24580915700E+03 -0.40911456209E+03  0.80122053396E+03  0.93260453067E+03  0.00000000000E+00 0.  1.
         -4    1    4    4    0  503  0.68019457013E+03 -0.10002779557E+02 -0.48406273711E+03  0.83491403287E+03  0.00000000000E+00 0. -1.
</event>
<event>
 8    1  0.7572579E-006  0.1040183E+04  0.7818608E-02  0.8739698E-01
         21   -1    0    0  503  502  0.00000000000E+00  0.00000000000E+00  0.34441374945E+03  0.34441374945E+03  0.00000000000E+00 0.  1.
         21   -1    0    0  501  503 -0.00000000000E+00 -0.00000000000E+00 -0.31370831803E+04  0.31370831803E+04  0.00000000000E+00 0.  1.
    9000010    2    1    2  501    0  0.26893790840E+03  0.24145704564E+02 -0.15361820408E+04  0.18503193110E+04  0.99544747541E+03 0.  0.
   -9000010    2    1    2    0  502 -0.26893790840E+03 -0.24145704564E+02 -0.12564873900E+04  0.16311776188E+04  0.10045243895E+04 0.  0.
        -13    1    3    3    0    0  0.18653838494E+03 -0.45886062495E+03 -0.49837540038E+03  0.70265759303E+03  0.10566000000E+00 0.  1.
         13    1    4    4    0    0 -0.16044438714E+03 -0.37467680067E+03 -0.11905207526E+04  0.12583579697E+04  0.10566000000E+00 0. -1.
          4    1    3    3  501    0  0.82399523460E+02  0.48300632951E+03 -0.10378066405E+04  0.11476617179E+04  0.00000000000E+00 0.  1.
         -4    1    4    4    0  502 -0.10849352125E+03  0.35053109610E+03 -0.65966637394E+02  0.37281964908E+03  0.00000000000E+00 0. -1.
</event>
<event>
 8    1  0.1224163E-005  0.1011594E+04  0.7818608E-02  0.8764560E-01
         21   -1    0    0  501  502  0.00000000000E+00  0.00000000000E+00  0.75603856715E+03  0.75603856715E+03  0.00000000000E+00 0. -1.
         21   -1    0    0  502  503 -0.00000000000E+00 -0.00000000000E+00 -0.17372552174E+04  0.17372552174E+04  0.00000000000E+00 0. -1.
    9000010    2    1    2  501    0  0.38134460138E+02  0.10334113790E+03  0.99373131262E+02  0.10130922565E+04  0.10021712793E+04 0.  0.
   -9000010    2    1    2    0  503 -0.38134460138E+02 -0.10334113790E+03 -0.10805897815E+04  0.14802015281E+04  0.10055787687E+04 0.  0.
        -13    1    3    3    0    0  0.33796575688E+03  0.10062198052E+03 -0.33426828101E+03  0.48588160146E+03  0.10566000000E+00 0.  1.
         13    1    4    4    0    0  0.31192023467E+03  0.18461634295E+03 -0.93710283004E+03  0.10047582556E+04  0.10566000000E+00 0. -1.
          4    1    3    3  501    0 -0.29983129674E+03  0.27191573778E+01  0.43364141227E+03  0.52721065501E+03  0.00000000000E+00 0.  1.
         -4    1    4    4    0  503 -0.35005469481E+03 -0.28795748085E+03 -0.14348695147E+03  0.47544327251E+03  0.00000000000E+00 0. -1.
</event>
<event>
 8    1  0.7572579E-006  0.1085871E+04  0.7818608E-02  0.8699991E-01
         21   -1    0    0  501  502  0.00000000000E+00  0.00000000000E+00  0.10577932673E+04  0.10577932673E+04  0.00000000000E+00 0. -1.
         21   -1    0    0  502  503 -0.00000000000E+00 -0.00000000000E+00 -0.23578067935E+04  0.23578067935E+04  0.00000000000E+00 0. -1.
    9000010    2    1    2  501    0 -0.28768659554E+03 -0.31537311705E+03  0.59373761675E+03  0.12375947960E+04  0.99844516195E+03 0.  0.
   -9000010    2    1    2    0  503  0.28768659554E+03  0.31537311705E+03 -0.18937511430E+04  0.21780052647E+04  0.98751696763E+03 0.  0.
        -13    1    3    3    0    0 -0.23135221225E+03 -0.63391224980E+03  0.61554187265E+03  0.91337856046E+03  0.10566000000E+00 0.  1.
         13    1    4    4    0    0  0.39163152984E+03 -0.25588469890E+03 -0.10928700261E+04  0.11887880970E+04  0.10566000000E+00 0. -1.
          4    1    3    3  501    0 -0.56334383290E+02  0.31853913275E+03 -0.21804255898E+02  0.32421623558E+03  0.00000000000E+00 0.  1.
         -4    1    4    4    0  503 -0.10394493430E+03  0.57125781595E+03 -0.80088111684E+03  0.98921716774E+03  0.00000000000E+00 0. -1.
</event>
<event>
 8    1  0.7572579E-006  0.1085799E+04  0.7818608E-02  0.8700558E-01
         21   -1    0    0  501  502  0.00000000000E+00  0.00000000000E+00  0.69000436030E+03  0.69000436030E+03  0.00000000000E+00 0. -1.
         21   -1    0    0  502  503 -0.00000000000E+00 -0.00000000000E+00 -0.17328837466E+04  0.17328837466E+04  0.00000000000E+00 0. -1.
    9000010    2    1    2  501    0 -0.61942234730E+02  0.38691711672E+03 -0.71090033994E+03  0.12874719483E+04  0.99933129074E+03 0.  0.
   -9000010    2    1    2    0  503  0.61942234730E+02 -0.38691711672E+03 -0.33197904637E+03  0.11354161586E+04  0.10126292858E+04 0.  0.
        -13    1    3    3    0    0 -0.33685198759E+03  0.60713826509E+03 -0.60150107294E+03  0.91863468604E+03  0.10566000000E+00 0.  1.
         13    1    4    4    0    0  0.48902702007E+03  0.25860287447E+02 -0.18546525784E+03  0.52365404024E+03  0.10566000000E+00 0. -1.
          4    1    3    3  501    0  0.27490975286E+03 -0.22022114837E+03 -0.10939926700E+03  0.36883726225E+03  0.00000000000E+00 0.  1.
         -4    1    4    4    0  503 -0.42708478534E+03 -0.41277740417E+03 -0.14651378853E+03  0.61176211839E+03  0.00000000000E+00 0. -1.
</event>
<event>
 8    1  0.7572579E-006  0.1112270E+04  0.7818608E-02  0.8691042E-01
         21   -1    0    0  503  502  0.00000000000E+00  0.00000000000E+00  0.29220293982E+04  0.29220293982E+04  0.00000000000E+00 0.  1.
         21   -1    0    0  501  503 -0.00000000000E+00 -0.00000000000E+00 -0.57754719170E+03  0.57754719170E+03  0.00000000000E+00 0.  1.
    9000010    2    1    2  501    0 -0.28539518105E+03  0.17471664189E+02  0.21985597089E+03  0.11337906068E+04  0.10748901450E+04 0.  0.
   -9000010    2    1    2    0  502  0.28539518105E+03 -0.17471664189E+02  0.21246262356E+04  0.23657859831E+04  0.10005753386E+04 0.  0.
        -13    1    3    3    0    0  0.33368826459E+03  0.20976172653E+03  0.27891448992E+03  0.48284691538E+03  0.10566000000E+00 0.  1.
         13    1    4    4    0    0 -0.90527092696E+01 -0.27119032272E+03  0.77647606238E+02  0.28223271356E+03  0.10566000000E+00 0. -1.
          4    1    3    3  501    0 -0.61908344565E+03 -0.19229006234E+03 -0.59058519029E+02  0.65094369143E+03  0.00000000000E+00 0.  1.
         -4    1    4    4    0  502  0.29444789032E+03  0.25371865853E+03  0.20469786294E+04  0.20835532695E+04  0.00000000000E+00 0. -1.
</event>
<event>
 8    1  0.7572579E-006  0.1113550E+04  0.7818608E-02  0.8676391E-01
         21   -1    0    0  501  502  0.00000000000E+00  0.00000000000E+00  0.10456632903E+04  0.10456632903E+04  0.00000000000E+00 0.  1.
         21   -1    0    0  502  503 -0.00000000000E+00 -0.00000000000E+00 -0.11852839878E+04  0.11852839878E+04  0.00000000000E+00 0.  1.
    9000010    2    1    2  501    0  0.44189739021E+03  0.13107778363E+02  0.23682370891E+02  0.11054868631E+04  0.10129635889E+04 0.  0.
   -9000010    2    1    2    0  503 -0.44189739021E+03 -0.13107778363E+02 -0.16330306845E+03  0.11254604150E+04  0.10220313774E+04 0.  0.
        -13    1    3    3    0    0  0.33160027274E+02 -0.46594813094E+03  0.77293764538E+02  0.47347817831E+03  0.10566000000E+00 0.  1.
         13    1    4    4    0    0 -0.35365323805E+03  0.11754144800E+03 -0.57466106041E+03  0.68492477711E+03  0.10566000000E+00 0. -1.
          4    1    3    3  501    0  0.40873736294E+03  0.47905590930E+03 -0.53611393647E+02  0.63200868477E+03  0.00000000000E+00 0.  1.
         -4    1    4    4    0  503 -0.88244152167E+02 -0.13064922637E+03  0.41135799196E+03  0.44053563794E+03  0.00000000000E+00 0. -1.
</event>
<event>
 8    1  0.7572579E-006  0.1072808E+04  0.7818608E-02  0.8718765E-01
         21   -1    0    0  503  502  0.00000000000E+00  0.00000000000E+00  0.11852774253E+04  0.11852774253E+04  0.00000000000E+00 0.  1.
         21   -1    0    0  501  503 -0.00000000000E+00 -0.00000000000E+00 -0.10624433629E+04  0.10624433629E+04  0.00000000000E+00 0.  1.
    9000010    2    1    2  501    0  0.39621881147E+03 -0.55075732357E+02 -0.33192569234E+03  0.11229836640E+04  0.99543707064E+03 0.  0.
   -9000010    2    1    2    0  502 -0.39621881147E+03  0.55075732357E+02  0.45475975475E+03  0.11247371241E+04  0.94773650394E+03 0.  0.
        -13    1    3    3    0    0  0.44391658963E+03  0.15948828715E+03 -0.60836554735E+03  0.76980978343E+03  0.10566000000E+00 0.  1.
         13    1    4    4    0    0 -0.19794986091E+03 -0.44699527676E+03  0.21148534720E+03  0.53264902903E+03  0.10566000000E+00 0. -1.
          4    1    3    3  501    0 -0.47697778159E+02 -0.21456401951E+03  0.27643985501E+03  0.35317388061E+03  0.00000000000E+00 0.  1.
         -4    1    4    4    0  502 -0.19826895056E+03  0.50207100911E+03  0.24327440754E+03  0.59208809506E+03  0.00000000000E+00 0. -1.
</event>
<event>
 8    1  0.7572579E-006  0.1043524E+04  0.7818608E-02  0.8735009E-01
         21   -1    0    0  503  502  0.00000000000E+00  0.00000000000E+00  0.97529482202E+03  0.97529482202E+03  0.00000000000E+00 0. -1.
         21   -1    0    0  501  503 -0.00000000000E+00 -0.00000000000E+00 -0.14560637417E+04  0.14560637417E+04  0.00000000000E+00 0. -1.
    9000010    2    1    2  501    0 -0.16577706437E+03 -0.21967512734E+03 -0.82844591778E+03  0.13314395499E+04  0.10053205656E+04 0.  0.
   -9000010    2    1    2    0  502  0.16577706437E+03  0.21967512734E+03  0.34767699813E+03  0.10999190138E+04  0.10065800243E+04 0.  0.
        -13    1    3    3    0    0  0.25729661035E+03  0.31038905893E+02  0.10240922414E+03  0.27866219645E+03  0.10566000000E+00 0.  1.
         13    1    4    4    0    0 -0.69561075219E+02 -0.34350631288E+03  0.34174551539E+03  0.48951541204E+03  0.10566000000E+00 0. -1.
          4    1    3    3  501    0 -0.42307367472E+03 -0.25071403324E+03 -0.93085514191E+03  0.10527773534E+04  0.00000000000E+00 0.  1.
         -4    1    4    4    0  502  0.23533813959E+03  0.56318144022E+03  0.59314827404E+01  0.61040360176E+03  0.00000000000E+00 0. -1.
</event>
<event>
 8    1  0.7572579E-006  0.1051064E+04  0.7818608E-02  0.8732015E-01
         21   -1    0    0  503  502  0.00000000000E+00  0.00000000000E+00  0.11753283486E+04  0.11753283486E+04  0.00000000000E+00 0.  1.
         21   -1    0    0  501  503 -0.00000000000E+00 -0.00000000000E+00 -0.98433916889E+03  0.98433916889E+03  0.00000000000E+00 0.  1.
    9000010    2    1    2  501    0  0.31744711404E+03 -0.13728517064E+03  0.36344794869E+03  0.11121286465E+04  0.99253001293E+03 0.  0.
   -9000010    2    1    2    0  502 -0.31744711404E+03  0.13728517064E+03 -0.17245876899E+03  0.10475388710E+04  0.97364047319E+03 0.  0.
        -13    1    3    3    0    0  0.34347586812E+03 -0.25449925968E+03 -0.24447849264E+03  0.49245841417E+03  0.10566000000E+00 0.  1.
         13    1    4    4    0    0  0.47985410758E+02  0.20636799148E+03  0.34826060310E+03  0.40764666856E+03  0.10566000000E+00 0. -1.
          4    1    3    3  501    0 -0.26028754078E+02  0.11721408904E+03  0.60792644133E+03  0.61967023228E+03  0.00000000000E+00 0.  1.
         -4    1    4    4    0  502 -0.36543252480E+03 -0.69082820840E+02 -0.52071937209E+03  0.63989220247E+03  0.00000000000E+00 0. -1.
</event>
<event>
 8    1  0.7572579E-006  0.1282830E+04  0.7818608E-02  0.8548284E-01
         21   -1    0    0  501  502  0.00000000000E+00  0.00000000000E+00  0.18309095471E+04  0.18309095471E+04  0.00000000000E+00 0. -1.
         21   -1    0    0  502  503 -0.00000000000E+00 -0.00000000000E+00 -0.11664092110E+04  0.11664092110E+04  0.00000000000E+00 0. -1.
    9000010    2    1    2  501    0  0.40000971934E+03 -0.70140378012E+03  0.10577781784E+04  0.16555585927E+04  0.98488808534E+03 0.  0.
   -9000010    2    1    2    0  503 -0.40000971934E+03  0.70140378012E+03 -0.39327784235E+03  0.13417601655E+04  0.99683390894E+03 0.  0.
        -13    1    3    3    0    0  0.31927811465E+03 -0.33676782070E+03  0.11756571253E+04  0.12639306812E+04  0.10566000000E+00 0.  1.
         13    1    4    4    0    0 -0.67878421428E+02  0.78316424703E+03 -0.55612403673E+03  0.96292661886E+03  0.10566000000E+00 0. -1.
          4    1    3    3  501    0  0.80731604693E+02 -0.36463595941E+03 -0.11787894686E+03  0.39162791142E+03  0.00000000000E+00 0.  1.
         -4    1    4    4    0  503 -0.33213129791E+03 -0.81760466917E+02  0.16284619438E+03  0.37883354660E+03  0.00000000000E+00 0. -1.
</event>
<event>
 8    1  0.7572579E-006  0.1042150E+04  0.7818608E-02  0.8738987E-01
         21   -1    0    0  501  502  0.00000000000E+00  0.00000000000E+00  0.21691426446E+04  0.21691426446E+04  0.00000000000E+00 0.  1.
         21   -1    0    0  502  503 -0.00000000000E+00 -0.00000000000E+00 -0.55364050541E+03  0.55364050541E+03  0.00000000000E+00 0.  1.
    9000010    2    1    2  501    0  0.97669463250E+02  0.20261794092E+03  0.12582557631E+04  0.16337942533E+04  0.10175867250E+04 0.  0.
   -9000010    2    1    2    0  503 -0.97669463250E+02 -0.20261794092E+03  0.35724637612E+03  0.10889888967E+04  0.10038319032E+04 0.  0.
        -13    1    3    3    0    0  0.27194116907E+02 -0.39567638934E+03  0.28207504061E+03  0.48668846789E+03  0.10566000000E+00 0.  1.
         13    1    4    4    0    0 -0.51758409782E+03 -0.97636613808E+02  0.38929809881E+03  0.65496505829E+03  0.10566000000E+00 0. -1.
          4    1    3    3  501    0  0.70475346343E+02  0.59829433026E+03  0.97618072244E+03  0.11471057854E+04  0.00000000000E+00 0.  1.
         -4    1    4    4    0  503  0.41991463457E+03 -0.10498132711E+03 -0.32051722691E+02  0.43402383840E+03  0.00000000000E+00 0. -1.
</event>
<event>
 8    1  0.7572579E-006  0.1140251E+04  0.7818608E-02  0.8656070E-01
         21   -1    0    0  503  502  0.00000000000E+00  0.00000000000E+00  0.21350145652E+04  0.21350145652E+04  0.00000000000E+00 0. -1.
         21   -1    0    0  501  503 -0.00000000000E+00 -0.00000000000E+00 -0.11499092847E+04  0.11499092847E+04  0.00000000000E+00 0. -1.
    9000010    2    1    2  501    0 -0.34485868618E+03  0.43006022215E+03 -0.64069174763E+03  0.13079210742E+04  0.99814443483E+03 0.  0.
   -9000010    2    1    2    0  502  0.34485868618E+03 -0.43006022215E+03  0.16257970281E+04  0.19770027757E+04  0.98053286037E+03 0.  0.
        -13    1    3    3    0    0  0.13623216607E+03  0.50429354223E+03 -0.24900557907E+02  0.52296388858E+03  0.10566000000E+00 0.  1.
         13    1    4    4    0    0 -0.12980089690E+03 -0.59760421435E+03  0.75969442897E+03  0.97525109916E+03  0.10566000000E+00 0. -1.
          4    1    3    3  501    0 -0.48109085225E+03 -0.74233320089E+02 -0.61579118972E+03  0.78495718563E+03  0.00000000000E+00 0.  1.
         -4    1    4    4    0  502  0.47465958308E+03  0.16754399221E+03  0.86610259916E+03  0.10017516765E+04  0.00000000000E+00 0. -1.
</event>
<event>
 8    1  0.7572579E-006  0.1032444E+04  0.7818608E-02  0.8749224E-01
         21   -1    0    0  503  502  0.00000000000E+00  0.00000000000E+00  0.11443742388E+04  0.11443742388E+04  0.00000000000E+00 0.  1.
         21   -1    0    0  501  503 -0.00000000000E+00 -0.00000000000E+00 -0.94447746432E+03  0.94447746432E+03  0.00000000000E+00 0.  1.
    9000010    2    1    2  501    0 -0.32360742291E+02 -0.18236376695E+03 -0.89716322122E+02  0.10165566214E+04  0.99550719981E+03 0.  0.
   -9000010    2    1    2    0  502  0.32360742291E+02  0.18236376695E+03  0.28961309663E+03  0.10722950818E+04  0.10156954443E+04 0.  0.
        -13    1    3    3    0    0 -0.51015471068E+03 -0.15669474055E+03 -0.62091017490E+02  0.53727681521E+03  0.10566000000E+00 0.  1.
         13    1    4    4    0    0  0.18785505656E+03  0.48037766485E+03 -0.13263975182E+03  0.53258383198E+03  0.10566000000E+00 0. -1.
          4    1    3    3  501    0  0.47779396839E+03 -0.25669026404E+02 -0.27625304632E+02  0.47927980617E+03  0.00000000000E+00 0.  1.
         -4    1    4    4    0  502 -0.15549431427E+03 -0.29801389790E+03  0.42225284845E+03  0.53971124978E+03  0.00000000000E+00 0. -1.
</event>
<event>
 8    1  0.7572579E-006  0.1110266E+04  0.7818608E-02  0.8688813E-01
         21   -1    0    0  503  502  0.00000000000E+00  0.00000000000E+00  0.11322500086E+04  0.11322500086E+04  0.00000000000E+00 0.  1.
         21   -1    0    0  501  503 -0.00000000000E+00 -0.00000000000E+00 -0.11056748313E+04  0.11056748313E+04  0.00000000000E+00 0.  1.
    9000010    2    1    2  501    0 -0.21486383159E+03 -0.34769751404E+03  0.29326130138E+03  0.11483437784E+04  0.10322941515E+04 0.  0.
   -9000010    2    1    2    0  502  0.21486383159E+03  0.34769751404E+03 -0.26668612405E+03  0.10895810615E+04  0.97416906815E+03 0.  0.
        -13    1    3    3    0    0 -0.14277165169E+03  0.34818070003E+03  0.24082768083E+03  0.44677905884E+03  0.10566000000E+00 0.  1.
         13    1    4    4    0    0  0.42349402050E+03 -0.20053921438E+03 -0.91902425706E+02  0.47750311928E+03  0.10566000000E+00 0. -1.
          4    1    3    3  501    0 -0.72092179904E+02 -0.69587821406E+03  0.52433620550E+02  0.70156471959E+03  0.00000000000E+00 0.  1.
         -4    1    4    4    0  502 -0.20863018891E+03  0.54823672841E+03 -0.17478369834E+03  0.61207794219E+03  0.00000000000E+00 0. -1.
</event>
<event>
 8    1  0.7572579E-006  0.1073429E+04  0.7818608E-02  0.8708503E-01
         21   -1    0    0  501  502  0.00000000000E+00  0.00000000000E+00  0.11014591820E+04  0.11014591820E+04  0.00000000000E+00 0.  1.
         21   -1    0    0  502  503 -0.00000000000E+00 -0.00000000000E+00 -0.11401152400E+04  0.11401152400E+04  0.00000000000E+00 0.  1.
    9000010    2    1    2  501    0 -0.20653343559E+03  0.33983224237E+03  0.30250994813E+03  0.11152335610E+04  0.99704143043E+03 0.  0.
   -9000010    2    1    2    0  503  0.20653343559E+03 -0.33983224237E+03 -0.34116600613E+03  0.11263408610E+04  0.99704938612E+03 0.  0.
        -13    1    3    3    0    0  0.10375695575E+03  0.56789167517E+03  0.41853480234E+03  0.71304828205E+03  0.10566000000E+00 0.  1.
         13    1    4    4    0    0  0.40815963529E+03  0.22791623442E+03 -0.19400975229E+03  0.50614216672E+03  0.10566000000E+00 0. -1.
          4    1    3    3  501    0 -0.31029039133E+03 -0.22805943280E+03 -0.11602485422E+03  0.40218527899E+03  0.00000000000E+00 0.  1.
         -4    1    4    4    0  503 -0.20162619970E+03 -0.56774847678E+03 -0.14715625384E+03  0.62019869424E+03  0.00000000000E+00 0. -1.
</event>
<event>
 8    1  0.7572579E-006  0.1073597E+04  0.7818608E-02  0.8708932E-01
         21   -1    0    0  503  502  0.00000000000E+00  0.00000000000E+00  0.16707482414E+04  0.16707482414E+04  0.00000000000E+00 0.  1.
         21   -1    0    0  501  503 -0.00000000000E+00 -0.00000000000E+00 -0.11795813349E+04  0.11795813349E+04  0.00000000000E+00 0.  1.
    9000010    2    1    2  501    0 -0.36819610147E+03  0.23497609983E+03 -0.67410768364E+03  0.12676874764E+04  0.98072841913E+03 0.  0.
   -9000010    2    1    2    0  502  0.36819610147E+03 -0.23497609983E+03  0.11652745901E+04  0.15826420999E+04  0.97780826824E+03 0.  0.
        -13    1    3    3    0    0  0.51083981253E+02 -0.20181548684E+03 -0.62670113248E+03  0.66037367034E+03  0.10566000000E+00 0.  1.
         13    1    4    4    0    0 -0.32260806706E+03 -0.12708792202E+03  0.55592990969E+03  0.65519873360E+03  0.10566000000E+00 0. -1.
          4    1    3    3  501    0 -0.41928008273E+03  0.43679158667E+03 -0.47406551169E+02  0.60731380608E+03  0.00000000000E+00 0.  1.
         -4    1    4    4    0  502  0.69080416853E+03 -0.10788817781E+03  0.60934468044E+03  0.92744336633E+03  0.00000000000E+00 0. -1.
</event>
<event>
 8    1  0.7572579E-006  0.1075908E+04  0.7818608E-02  0.8710500E-01
         21   -1    0    0  503  502  0.00000000000E+00  0.00000000000E+00  0.11028549899E+04  0.11028549899E+04  0.00000000000E+00 0. -1.
         21   -1    0    0  501  503 -0.00000000000E+00 -0.00000000000E+00 -0.10493550622E+04  0.10493550622E+04  0.00000000000E+00 0. -1.
    9000010    2    1    2  501    0  0.13167527362E+03  0.24139392409E+03  0.16836359202E+03  0.10701879686E+04  0.10204639066E+04 0.  0.
   -9000010    2    1    2    0  502 -0.13167527362E+03 -0.24139392409E+03 -0.11486366426E+03  0.10820220835E+04  0.10401772558E+04 0.  0.
        -13    1    3    3    0    0  0.57666319259E+02  0.32532879349E+03  0.56694585027E+03  0.65619496840E+03  0.10566000000E+00 0.  1.
         13    1    4    4    0    0 -0.42893244000E+03 -0.46545036163E+03 -0.25758698939E+03  0.68335799219E+03  0.10566000000E+00 0. -1.
          4    1    3    3  501    0  0.74008954359E+02 -0.83934869401E+02 -0.39858225825E+03  0.41399300021E+03  0.00000000000E+00 0.  1.
         -4    1    4    4    0  502  0.29725716638E+03  0.22405643754E+03  0.14272332512E+03  0.39866409131E+03  0.00000000000E+00 0. -1.
</event>
<event>
 8    1  0.7572579E-006  0.1010194E+04  0.7818608E-02  0.8774456E-01
         21   -1    0    0  503  502  0.00000000000E+00  0.00000000000E+00  0.17797357474E+04  0.17797357474E+04  0.00000000000E+00 0.  1.
         21   -1    0    0  501  503 -0.00000000000E+00 -0.00000000000E+00 -0.69592600677E+03  0.69592600677E+03  0.00000000000E+00 0.  1.
    9000010    2    1    2  501    0  0.39669945112E+02  0.12693691825E+03 -0.31194567908E+02  0.97109303324E+03  0.96143740950E+03 0.  0.
   -9000010    2    1    2    0  502 -0.39669945112E+02 -0.12693691825E+03  0.11150043086E+04  0.15045687209E+04  0.10014018884E+04 0.  0.
        -13    1    3    3    0    0 -0.15983800446E+03 -0.38212895505E+03  0.54052408994E+02  0.41772287469E+03  0.10566000000E+00 0.  1.
         13    1    4    4    0    0  0.42163483338E+03 -0.35410682167E+02  0.88520567633E+03  0.98113146402E+03  0.10566000000E+00 0. -1.
          4    1    3    3  501    0  0.19950794957E+03  0.50906587330E+03 -0.85246976902E+02  0.55337015855E+03  0.00000000000E+00 0.  1.
         -4    1    4    4    0  502 -0.46130477849E+03 -0.91526236083E+02  0.22979863223E+03  0.52343725691E+03  0.00000000000E+00 0. -1.
</event>
<event>
 8    1  0.7572579E-006  0.1025180E+04  0.7818608E-02  0.8753171E-01
         21   -1    0    0  501  502  0.00000000000E+00  0.00000000000E+00  0.15734658185E+04  0.15734658185E+04  0.00000000000E+00 0.  1.
         21   -1    0    0  502  503 -0.00000000000E+00 -0.00000000000E+00 -0.72167226185E+03  0.72167226185E+03  0.00000000000E+00 0.  1.
    9000010    2    1    2  501    0 -0.16227545297E+03  0.15105891885E+03  0.75581134136E+03  0.12736737533E+04  0.10009205395E+04 0.  0.
   -9000010    2    1    2    0  503  0.16227545297E+03 -0.15105891885E+03  0.95982215296E+02  0.10214643271E+04  0.99248408865E+03 0.  0.
        -13    1    3    3    0    0  0.36393887595E+03  0.20205592931E+03  0.58519636531E+03  0.71814545959E+03  0.10566000000E+00 0.  1.
         13    1    4    4    0    0  0.28002230844E+03 -0.43568713966E+03 -0.23551698639E+03  0.56894994413E+03  0.10566000000E+00 0. -1.
          4    1    3    3  501    0 -0.52621432891E+03 -0.50997010457E+02  0.17061497605E+03  0.55552829368E+03  0.00000000000E+00 0.  1.
         -4    1    4    4    0  503 -0.11774685547E+03  0.28462822081E+03  0.33149920168E+03  0.45251438294E+03  0.00000000000E+00 0. -1.
</event>
<event>
 8    1  0.7572579E-006  0.1001316E+04  0.7818608E-02  0.8773467E-01
         21   -1    0    0  501  502  0.00000000000E+00  0.00000000000E+00  0.77840357994E+03  0.77840357994E+03  0.00000000000E+00 0.  1.
         21   -1    0    0  502  503 -0.00000000000E+00 -0.00000000000E+00 -0.13727528280E+04  0.13727528280E+04  0.00000000000E+00 0.  1.
    9000010    2    1    2  501    0  0.61745201398E+02  0.41163192112E+02 -0.28997874540E+02  0.10012627515E+04  0.99808784304E+03 0.  0.
   -9000010    2    1    2    0  503 -0.61745201398E+02 -0.41163192112E+02 -0.56535137356E+03  0.11498936565E+04  0.99856215002E+03 0.  0.
        -13    1    3    3    0    0  0.24905993333E+03  0.46520103828E+03  0.53606971683E+02  0.53039284967E+03  0.10566000000E+00 0.  1.
         13    1    4    4    0    0  0.13447935839E+02  0.26591010022E+03  0.19262839238E+03  0.32862552715E+03  0.10566000000E+00 0. -1.
          4    1    3    3  501    0 -0.18731473193E+03 -0.42403784617E+03 -0.82604846223E+02  0.47086990178E+03  0.00000000000E+00 0.  1.
         -4    1    4    4    0  503 -0.75193137236E+02 -0.30707329234E+03 -0.75797976594E+03  0.82126812937E+03  0.00000000000E+00 0. -1.
</event>
<event>
 8    1  0.7572579E-006  0.1013977E+04  0.7818608E-02  0.8762972E-01
         21   -1    0    0  503  502  0.00000000000E+00  0.00000000000E+00  0.81737521078E+03  0.81737521078E+03  0.00000000000E+00 0.  1.
         21   -1    0    0  501  503 -0.00000000000E+00 -0.00000000000E+00 -0.14766264528E+04  0.14766264528E+04  0.00000000000E+00 0.  1.
    9000010    2    1    2  501    0  0.13631680823E+03 -0.27311350723E+02 -0.77944607819E+03  0.12789392985E+04  0.10044009948E+04 0.  0.
   -9000010    2    1    2    0  502 -0.13631680823E+03  0.27311350723E+02  0.12019483613E+03  0.10150623651E+04  0.99828684475E+03 0.  0.
        -13    1    3    3    0    0  0.34590845343E+03  0.38894977698E+02 -0.94285107751E+03  0.10050540498E+04  0.10566000000E+00 0.  1.
         13    1    4    4    0    0 -0.93523543309E+02  0.21862916215E+03 -0.39654818140E+03  0.46238061706E+03  0.10566000000E+00 0. -1.
          4    1    3    3  501    0 -0.20959164519E+03 -0.66206328422E+02  0.16340499932E+03  0.27388524871E+03  0.00000000000E+00 0.  1.
         -4    1    4    4    0  502 -0.42793264924E+02 -0.19131781142E+03  0.51674301753E+03  0.55268174808E+03  0.00000000000E+00 0. -1.
</event>
<event>
 8    1  0.7572579E-006  0.1038020E+04  0.7818608E-02  0.8741371E-01
         21   -1    0    0  503  502  0.00000000000E+00  0.00000000000E+00  0.59611746635E+03  0.59611746635E+03  0.00000000000E+00 0. -1.
         21   -1    0    0  501  503 -0.00000000000E+00 -0.00000000000E+00 -0.20516217308E+04  0.20516217308E+04  0.00000000000E+00 0. -1.
    9000010    2    1    2  501    0  0.20502573785E+03 -0.19386367693E+03 -0.11988710773E+04  0.15858050907E+04  0.99893305446E+03 0.  0.
   -9000010    2    1    2    0  502 -0.20502573785E+03  0.19386367693E+03 -0.25663318719E+03  0.10619341065E+04  0.99107253788E+03 0.  0.
        -13    1    3    3    0    0 -0.98568579524E+01 -0.50341836790E+03 -0.10784534849E+04  0.11902055037E+04  0.10566000000E+00 0.  1.
         13    1    4    4    0    0  0.11996633865E+03 -0.12635691039E+03  0.29711804341E+03  0.34443741680E+03  0.10566000000E+00 0. -1.
          4    1    3    3  501    0  0.21488259580E+03  0.30955469097E+03 -0.12041759240E+03  0.39559958701E+03  0.00000000000E+00 0.  1.
         -4    1    4    4    0  502 -0.32499207649E+03  0.32022058731E+03 -0.55375123060E+03  0.71749668969E+03  0.00000000000E+00 0. -1.
</event>
<event>
 8    1  0.7572579E-006  0.1024591E+04  0.7818608E-02  0.8753531E-01
         21   -1    0    0  503  502  0.00000000000E+00  0.00000000000E+00  0.72823501038E+03  0.72823501038E+03  0.00000000000E+00 0.  1.
         21   -1    0    0  501  503 -0.00000000000E+00 -0.00000000000E+00 -0.16021663173E+04  0.16021663173E+04  0.00000000000E+00 0.  1.
    9000010    2    1    2  501    0  0.23030748851E+03 -0.60739565694E+02 -0.81630416958E+03  0.13041913894E+04  0.98885380558E+03 0.  0.
   -9000010    2    1    2    0  502 -0.23030748851E+03  0.60739565694E+02 -0.57627137352E+02  0.10262099383E+04  0.99652150824E+03 0.  0.
        -13    1    3    3    0    0 -0.77156072891E+02  0.12525527749E+03  0.18731628024E+03  0.23817922691E+03  0.10566000000E+00 0.  1.
         13    1    4    4    0    0  0.31406153748E+03 -0.14211293401E+03  0.19123923900E+03  0.39421211680E+03  0.10566000000E+00 0. -1.
          4    1    3    3  501    0  0.30746356140E+03 -0.18599484319E+03 -0.10036204498E+04  0.10660121625E+04  0.00000000000E+00 0.  1.
         -4    1    4    4    0  502 -0.54436902599E+03  0.20285249970E+03 -0.24886637635E+03  0.63199782149E+03  0.00000000000E+00 0. -1.
</event>
<event>
 8    1  0.7572579E-006  0.1065991E+04  0.7818608E-02  0.8718108E-01
         21   -1    0    0  501  502  0.00000000000E+00  0.00000000000E+00  0.10740138594E+04  0.10740138594E+04  0.00000000000E+00 0. -1.
         21   -1    0    0  502  503 -0.00000000000E+00 -0.00000000000E+00 -0.16168398686E+04  0.16168398686E+04  0.00000000000E+00 0. -1.
    9000010    2    1    2  501    0  0.26619229215E+03  0.16759228166E+03  0.52840211900E+03  0.11897667619E+04  0.10185237549E+04 0.  0.
   -9000010    2    1    2    0  503 -0.26619229215E+03 -0.16759228166E+03 -0.10712281283E+04  0.15010869661E+04  0.10033876956E+04 0.  0.
        -13    1    3    3    0    0  0.49711071898E+03  0.94730316014E+02 -0.10043003961E+03  0.51592548272E+03  0.10566000000E+00 0.  1.
         13    1    4    4    0    0 -0.38800492754E+02 -0.57045880476E+03 -0.72458551885E+03  0.92301295303E+03  0.10566000000E+00 0. -1.
          4    1    3    3  501    0 -0.23091842683E+03  0.72861965642E+02  0.62883215862E+03  0.67384127923E+03  0.00000000000E+00 0.  1.
         -4    1    4    4    0  503 -0.22739179940E+03  0.40286652311E+03 -0.34664260943E+03  0.57807401304E+03  0.00000000000E+00 0. -1.
</event>
<event>
 8    1  0.7572579E-006  0.1327256E+04  0.7818608E-02  0.8516854E-01
         21   -1    0    0  501  502  0.00000000000E+00  0.00000000000E+00  0.18097490090E+04  0.18097490090E+04  0.00000000000E+00 0. -1.
         21   -1    0    0  502  503 -0.00000000000E+00 -0.00000000000E+00 -0.10716099480E+04  0.10716099480E+04  0.00000000000E+00 0. -1.
    9000010    2    1    2  501    0  0.86541922355E+03  0.14292709319E+02  0.80892641289E+03  0.15522161956E+04  0.10029249534E+04 0.  0.
   -9000010    2    1    2    0  503 -0.86541922355E+03 -0.14292709319E+02 -0.70787351890E+02  0.13291427615E+04  0.10062081878E+04 0.  0.
        -13    1    3    3    0    0  0.24835876295E+02  0.24364788522E+03 -0.12498883504E+03  0.27496060222E+03  0.10566000000E+00 0.  1.
         13    1    4    4    0    0 -0.16761472775E+03 -0.28299365118E+02 -0.48748246652E+03  0.51627000432E+03  0.10566000000E+00 0. -1.
          4    1    3    3  501    0  0.84058334726E+03 -0.22935517591E+03  0.93391524792E+03  0.12772555933E+04  0.00000000000E+00 0.  1.
         -4    1    4    4    0  503 -0.69780449581E+03  0.14006655799E+02  0.41669511464E+03  0.81287275716E+03  0.00000000000E+00 0. -1.
</event>
<event>
 8    1  0.7572579E-006  0.1128189E+04  0.7818608E-02  0.8672008E-01
         21   -1    0    0  501  502  0.00000000000E+00  0.00000000000E+00  0.66833550994E+03  0.66833550994E+03  0.00000000000E+00 0. -1.
         21   -1    0    0  502  503 -0.00000000000E+00 -0.00000000000E+00 -0.19748210384E+04  0.19748210384E+04  0.00000000000E+00 0. -1.
    9000010    2    1    2  501    0  0.40151819262E+03  0.24511771275E+02 -0.28231603659E+03  0.11194327065E+04  0.10057880264E+04 0.  0.
   -9000010    2    1    2    0  503 -0.40151819262E+03 -0.24511771275E+02 -0.10241694918E+04  0.15237238418E+04  0.10540367698E+04 0.  0.
        -13    1    3    3    0    0  0.38316739601E+02 -0.24920785469E+03  0.29268566592E+03  0.38631287524E+03  0.10566000000E+00 0.  1.
         13    1    4    4    0    0 -0.11184443081E+03  0.41628410313E+02  0.21690977835E+03  0.24757213970E+03  0.10566000000E+00 0. -1.
          4    1    3    3  501    0  0.36320145302E+03  0.27371962596E+03 -0.57500170251E+03  0.73311983127E+03  0.00000000000E+00 0.  1.
         -4    1    4    4    0  503 -0.28967376181E+03 -0.66140181589E+02 -0.12410792702E+04  0.12761517021E+04  0.00000000000E+00 0. -1.
</event>
<event>
 8    1  0.7572579E-006  0.1156144E+04  0.7818608E-02  0.8640962E-01
         21   -1    0    0  503  502  0.00000000000E+00  0.00000000000E+00  0.16781658683E+04  0.16781658683E+04  0.00000000000E+00 0.  1.
         21   -1    0    0  501  503 -0.00000000000E+00 -0.00000000000E+00 -0.11612154948E+04  0.11612154948E+04  0.00000000000E+00 0.  1.
    9000010    2    1    2  501    0 -0.46672733539E+03 -0.34761137369E+03 -0.53927887554E+03  0.12757311785E+04  0.99899963041E+03 0.  0.
   -9000010    2    1    2    0  502  0.46672733539E+03  0.34761137369E+03  0.10562292490E+04  0.15636501846E+04  0.99534597032E+03 0.  0.
        -13    1    3    3    0    0 -0.27029120183E+03 -0.20817838720E+03 -0.83046834037E+03  0.89781582198E+03  0.10566000000E+00 0.  1.
         13    1    4    4    0    0  0.13908163521E+03  0.59285174459E+03  0.24761561142E+03  0.65736625598E+03  0.10566000000E+00 0. -1.
          4    1    3    3  501    0 -0.19643613356E+03 -0.13943298649E+03  0.29118946483E+03  0.37791535655E+03  0.00000000000E+00 0.  1.
         -4    1    4    4    0  502  0.32764570018E+03 -0.24524037091E+03  0.80861363763E+03  0.90628392865E+03  0.00000000000E+00 0. -1.
</event>
<event>
 8    1  0.7572579E-006  0.1780945E+04  0.7818608E-02  0.8265880E-01
         21   -1    0    0  503  502  0.00000000000E+00  0.00000000000E+00  0.26015517702E+04  0.26015517702E+04  0.00000000000E+00 0.  1.
         21   -1    0    0  501  503 -0.00000000000E+00 -0.00000000000E+00 -0.13192892103E+04  0.13192892103E+04  0.00000000000E+00 0. -1.
    9000010    2    1    2  501    0 -0.12963037994E+04  0.64938326243E+03  0.74094550814E+02  0.17824855985E+04  0.10342450119E+04 0.  0.
   -9000010    2    1    2    0  502  0.12963037994E+04 -0.64938326243E+03  0.12081680091E+04  0.21383553819E+04  0.10053813403E+04 0.  0.
        -13    1    3    3    0    0 -0.14109404296E+04  0.42926051870E+03 -0.10178064132E+03  0.14783019986E+04  0.10566000000E+00 0.  1.
         13    1    4    4    0    0  0.35003139498E+03 -0.32865884698E+03 -0.10182092126E+03  0.49082188861E+03  0.10566000000E+00 0. -1.
          4    1    3    3  501    0  0.11463663020E+03  0.22012274374E+03  0.17587519214E+03  0.30418359999E+03  0.00000000000E+00 0.  1.
         -4    1    4    4    0  502  0.94627240443E+03 -0.32072441546E+03  0.13099889303E+04  0.16475334933E+04  0.00000000000E+00 0. -1.
</event>
<event>
 8    1  0.7572579E-006  0.1076858E+04  0.7818608E-02  0.8712616E-01
         21   -1    0    0  501  502  0.00000000000E+00  0.00000000000E+00  0.72273214645E+03  0.72273214645E+03  0.00000000000E+00 0. -1.
         21   -1    0    0  502  503 -0.00000000000E+00 -0.00000000000E+00 -0.17915880517E+04  0.17915880517E+04  0.00000000000E+00 0. -1.
    9000010    2    1    2  501    0  0.12999224745E+03  0.26923733041E+03 -0.86281416569E+02  0.10803088577E+04  0.10345221219E+04 0.  0.
   -9000010    2    1    2    0  503 -0.12999224745E+03 -0.26923733041E+03 -0.98257448871E+03  0.14340113404E+04  0.10007742873E+04 0.  0.
        -13    1    3    3    0    0  0.65486014060E+02 -0.17387924564E+03  0.38667672421E+03  0.42900036167E+03  0.10566000000E+00 0.  1.
         13    1    4    4    0    0  0.12972911643E+03 -0.60490762614E+03 -0.54607174419E+03  0.82518921514E+03  0.10566000000E+00 0. -1.
          4    1    3    3  501    0  0.64506233394E+02  0.44311657605E+03 -0.47295814078E+03  0.65130849607E+03  0.00000000000E+00 0.  1.
         -4    1    4    4    0  503 -0.25972136389E+03  0.33567029573E+03 -0.43650274451E+03  0.60882212530E+03  0.00000000000E+00 0. -1.
</event>
<event>
 8    1  0.7572579E-006  0.1003214E+04  0.7818608E-02  0.8777994E-01
         21   -1    0    0  501  502  0.00000000000E+00  0.00000000000E+00  0.11090681883E+04  0.11090681883E+04  0.00000000000E+00 0. -1.
         21   -1    0    0  502  503 -0.00000000000E+00 -0.00000000000E+00 -0.11240981510E+04  0.11240981510E+04  0.00000000000E+00 0. -1.
    9000010    2    1    2  501    0 -0.98014404439E+02  0.10623450138E+03  0.50929225198E+03  0.11250852545E+04  0.99274651307E+03 0.  0.
   -9000010    2    1    2    0  503  0.98014404439E+02 -0.10623450138E+03 -0.52432221474E+03  0.11080810847E+04  0.96542079569E+03 0.  0.
        -13    1    3    3    0    0 -0.40436922936E+03 -0.12976082874E+03 -0.68150343627E+02  0.43011257460E+03  0.10566000000E+00 0.  1.
         13    1    4    4    0    0 -0.37347143633E+03  0.15282113716E+03 -0.37232181958E+03  0.54905260423E+03  0.10566000000E+00 0. -1.
          4    1    3    3  501    0  0.30635482492E+03  0.23599533012E+03  0.57744259561E+03  0.69497267990E+03  0.00000000000E+00 0.  1.
         -4    1    4    4    0  503  0.47148584077E+03 -0.25905563853E+03 -0.15200039516E+03  0.55902848052E+03  0.00000000000E+00 0. -1.
</event>
<event>
 8    1  0.7572579E-006  0.1009802E+04  0.7818608E-02  0.8766871E-01
         21   -1    0    0  503  502  0.00000000000E+00  0.00000000000E+00  0.13226574583E+04  0.13226574583E+04  0.00000000000E+00 0. -1.
         21   -1    0    0  501  503 -0.00000000000E+00 -0.00000000000E+00 -0.77890001409E+03  0.77890001409E+03  0.00000000000E+00 0. -1.
    9000010    2    1    2  501    0 -0.67779473396E+02 -0.23081512125E+02  0.13715885508E+03  0.10129701044E+04  0.10010839463E+04 0.  0.
   -9000010    2    1    2    0  502  0.67779473396E+02  0.23081512125E+02  0.40659858912E+03  0.10885873680E+04  0.10072602603E+04 0.  0.
        -13    1    3    3    0    0 -0.30146600909E+03 -0.40459746298E+03  0.23246218426E+03  0.55553536337E+03  0.10566000000E+00 0.  1.
         13    1    4    4    0    0  0.44934514045E+03  0.19858570987E+03  0.45017874297E+03  0.66633944142E+03  0.10566000000E+00 0. -1.
          4    1    3    3  501    0  0.23368653569E+03  0.38151595085E+03 -0.95303329177E+02  0.45743474100E+03  0.00000000000E+00 0.  1.
         -4    1    4    4    0  502 -0.38156566705E+03 -0.17550419775E+03 -0.43580153851E+02  0.42224792659E+03  0.00000000000E+00 0. -1.
</event>
<event>
 8    1  0.7572579E-006  0.1248732E+04  0.7818608E-02  0.8572457E-01
         21   -1    0    0  503  502  0.00000000000E+00  0.00000000000E+00  0.51112345383E+03  0.51112345383E+03  0.00000000000E+00 0.  1.
         21   -1    0    0  501  503 -0.00000000000E+00 -0.00000000000E+00 -0.36038255106E+04  0.36038255106E+04  0.00000000000E+00 0.  1.
    9000010    2    1    2  501    0 -0.40657760965E+02 -0.72811847894E+03 -0.71865536708E+03  0.14325193429E+04  0.10019164428E+04 0.  0.
   -9000010    2    1    2    0  502  0.40657760965E+02  0.72811847894E+03 -0.23740466897E+04  0.26824296215E+04  0.10136673105E+04 0.  0.
        -13    1    3    3    0    0 -0.12628974094E+03 -0.90107439408E+03 -0.81074138242E+03  0.12186819777E+04  0.10566000000E+00 0.  1.
         13    1    4    4    0    0  0.15757335345E+03 -0.20040696157E+03 -0.23129927414E+03  0.34422620084E+03  0.10566000000E+00 0. -1.
          4    1    3    3  501    0  0.85631979972E+02  0.17295591514E+03  0.92086015337E+02  0.21383736529E+03  0.00000000000E+00 0.  1.
         -4    1    4    4    0  502 -0.11691559248E+03  0.92852544051E+03 -0.21427474156E+04  0.23382034207E+04  0.00000000000E+00 0. -1.
</event>
<event>
 8    1  0.7572579E-006  0.1008407E+04  0.7818608E-02  0.8767931E-01
         21   -1    0    0  501  502  0.00000000000E+00  0.00000000000E+00  0.10350449429E+04  0.10350449429E+04  0.00000000000E+00 0. -1.
         21   -1    0    0  502  503 -0.00000000000E+00 -0.00000000000E+00 -0.10292569118E+04  0.10292569118E+04  0.00000000000E+00 0. -1.
    9000010    2    1    2  501    0  0.74829064008E+02  0.88352803477E+02 -0.22867174212E+03  0.10289972188E+04  0.99656354733E+03 0.  0.
   -9000010    2    1    2    0  503 -0.74829064008E+02 -0.88352803477E+02  0.23445977322E+03  0.10353046358E+04  0.10017378385E+04 0.  0.
        -13    1    3    3    0    0  0.18660917681E+03 -0.97539723496E+02  0.35142164505E+03  0.40967568430E+03  0.10566000000E+00 0.  1.
         13    1    4    4    0    0 -0.50789582212E+03 -0.19316558367E+03  0.22907997392E+03  0.58970225916E+03  0.10566000000E+00 0. -1.
          4    1    3    3  501    0 -0.11178011281E+03  0.18589252697E+03 -0.58009338717E+03  0.61932153446E+03  0.00000000000E+00 0.  1.
         -4    1    4    4    0  503  0.43306675811E+03  0.10481278020E+03  0.53797993038E+01  0.44560237669E+03  0.00000000000E+00 0. -1.
</event>
<event>
 8    1  0.7572579E-006  0.1009981E+04  0.7818608E-02  0.8768812E-01
         21   -1    0    0  503  502  0.00000000000E+00  0.00000000000E+00  0.40869669473E+03  0.40869669473E+03  0.00000000000E+00 0. -1.
         21   -1    0    0  501  503 -0.00000000000E+00 -0.00000000000E+00 -0.30094476170E+04  0.30094476170E+04  0.00000000000E+00 0. -1.
    9000010    2    1    2  501    0 -0.81714718220E+02  0.10098532757E+03 -0.20235219815E+04  0.22548497700E+04  0.98632192726E+03 0.  0.
   -9000010    2    1    2    0  502  0.81714718220E+02 -0.10098532757E+03 -0.57722894082E+03  0.11632945417E+04  0.10015915381E+04 0.  0.
        -13    1    3    3    0    0 -0.40103593078E+03  0.10868545986E+03 -0.18402866748E+04  0.18866100296E+04  0.10566000000E+00 0.  1.
         13    1    4    4    0    0 -0.11261573236E+03 -0.40838074266E+03  0.61722909321E+02  0.42809679145E+03  0.10566000000E+00 0. -1.
          4    1    3    3  501    0  0.31932121256E+03 -0.77001322927E+01 -0.18323530664E+03  0.36823974042E+03  0.00000000000E+00 0.  1.
         -4    1    4    4    0  502  0.19433045058E+03  0.30739541509E+03 -0.63895185014E+03  0.73519775030E+03  0.00000000000E+00 0. -1.
</event>
<event>
 8    1  0.7572579E-006  0.1109152E+04  0.7818608E-02  0.8680994E-01
         21   -1    0    0  503  502  0.00000000000E+00  0.00000000000E+00  0.60600665086E+03  0.60600665086E+03  0.00000000000E+00 0. -1.
         21   -1    0    0  501  503 -0.00000000000E+00 -0.00000000000E+00 -0.25330525182E+04  0.25330525182E+04  0.00000000000E+00 0. -1.
    9000010    2    1    2  501    0  0.31586466404E+03 -0.32290464308E+03 -0.25239779000E+03  0.11375070541E+04  0.10130053106E+04 0.  0.
   -9000010    2    1    2    0  502 -0.31586466404E+03  0.32290464308E+03 -0.16746480774E+04  0.20015521150E+04  0.99886274904E+03 0.  0.
        -13    1    3    3    0    0  0.46035502339E+03 -0.49282307610E+03 -0.47305147180E+03  0.82375908980E+03  0.10566000000E+00 0.  1.
         13    1    4    4    0    0  0.57357617936E+02  0.57524689598E+03 -0.58504477343E+03  0.82248178445E+03  0.10566000000E+00 0. -1.
          4    1    3    3  501    0 -0.14449035934E+03  0.16991843302E+03  0.22065368180E+03  0.31374796432E+03  0.00000000000E+00 0.  1.
         -4    1    4    4    0  502 -0.37322228198E+03 -0.25234225290E+03 -0.10896033040E+04  0.11790703305E+04  0.00000000000E+00 0. -1.
</event>
<event>
 8    1  0.7572579E-006  0.1144913E+04  0.7818608E-02  0.8649266E-01
         21   -1    0    0  501  502  0.00000000000E+00  0.00000000000E+00  0.10112398438E+04  0.10112398438E+04  0.00000000000E+00 0.  1.
         21   -1    0    0  502  503 -0.00000000000E+00 -0.00000000000E+00 -0.17006271469E+04  0.17006271469E+04  0.00000000000E+00 0.  1.
    9000010    2    1    2  501    0  0.51340676150E+03  0.21475516242E+03  0.31662519165E+03  0.11877650744E+04  0.10004139531E+04 0.  0.
   -9000010    2    1    2    0  503 -0.51340676150E+03 -0.21475516242E+03 -0.10060124947E+04  0.15241019164E+04  0.10005594581E+04 0.  0.
        -13    1    3    3    0    0  0.11630414892E+03  0.21703520117E+03 -0.34035972939E+03  0.42009009767E+03  0.10566000000E+00 0.  1.
         13    1    4    4    0    0  0.73230341232E+02 -0.32798075889E+03  0.20170606543E+02  0.33666144063E+03  0.10566000000E+00 0. -1.
          4    1    3    3  501    0  0.39710261259E+03 -0.22800387512E+01  0.65698492104E+03  0.76767497678E+03  0.00000000000E+00 0.  1.
         -4    1    4    4    0  503 -0.58663710274E+03  0.11322559646E+03 -0.10261831013E+04  0.11874404757E+04  0.00000000000E+00 0. -1.
</event>
<event>
 8    1  0.7572579E-006  0.1299230E+04  0.7818608E-02  0.8538630E-01
         21   -1    0    0  501  502  0.00000000000E+00  0.00000000000E+00  0.11267173216E+04  0.11267173216E+04  0.00000000000E+00 0.  1.
         21   -1    0    0  502  503 -0.00000000000E+00 -0.00000000000E+00 -0.15155355739E+04  0.15155355739E+04  0.00000000000E+00 0. -1.
    9000010    2    1    2  501    0  0.78915161434E+03 -0.20980899042E+03  0.16510823725E+02  0.12993352494E+04  0.10105540065E+04 0.  0.
   -9000010    2    1    2    0  503 -0.78915161434E+03  0.20980899042E+03 -0.40532907598E+03  0.13429176461E+04  0.98608116370E+03 0.  0.
        -13    1    3    3    0    0  0.55988855036E+03 -0.56288298240E+03  0.23102622838E+03  0.82685281039E+03  0.10566000000E+00 0.  1.
         13    1    4    4    0    0 -0.67495061643E+03  0.53773305130E+03 -0.48037288443E+03  0.98766051269E+03  0.10566000000E+00 0. -1.
          4    1    3    3  501    0  0.22926306398E+03  0.35307399198E+03 -0.21451540465E+03  0.47248243899E+03  0.00000000000E+00 0.  1.
         -4    1    4    4    0  503 -0.11420099791E+03 -0.32792406088E+03  0.75043808444E+02  0.35525713338E+03  0.00000000000E+00 0. -1.
</event>
<event>
 8    1  0.7572579E-006  0.1053028E+04  0.7818608E-02  0.8730576E-01
         21   -1    0    0  501  502  0.00000000000E+00  0.00000000000E+00  0.96280706745E+03  0.96280706745E+03  0.00000000000E+00 0.  1.
         21   -1    0    0  502  503 -0.00000000000E+00 -0.00000000000E+00 -0.11372591949E+04  0.11372591949E+04  0.00000000000E+00 0.  1.
    9000010    2    1    2  501    0  0.34547758109E+03  0.38050307743E+02 -0.16702612771E+03  0.10661917717E+04  0.99401437705E+03 0.  0.
   -9000010    2    1    2    0  503 -0.34547758109E+03 -0.38050307743E+02 -0.74259997083E+01  0.10338744906E+04  0.97367280536E+03 0.  0.
        -13    1    3    3    0    0  0.49094692838E+03 -0.37091432317E+03 -0.54142201506E+02  0.61768738919E+03  0.10566000000E+00 0.  1.
         13    1    4    4    0    0  0.25719760034E+03  0.55754370439E+02  0.25813656652E+03  0.36863756398E+03  0.10566000000E+00 0. -1.
          4    1    3    3  501    0 -0.14546934729E+03  0.40896463092E+03 -0.11288392621E+03  0.44850438252E+03  0.00000000000E+00 0.  1.
         -4    1    4    4    0  503 -0.60267518143E+03 -0.93804678181E+02 -0.26556256622E+03  0.66523692662E+03  0.00000000000E+00 0. -1.
</event>
<event>
 8    1  0.7572579E-006  0.1050523E+04  0.7818608E-02  0.8733766E-01
         21   -1    0    0  501  502  0.00000000000E+00  0.00000000000E+00  0.33994103878E+04  0.33994103878E+04  0.00000000000E+00 0. -1.
         21   -1    0    0  502  503 -0.00000000000E+00 -0.00000000000E+00 -0.34283165418E+03  0.34283165418E+03  0.00000000000E+00 0. -1.
    9000010    2    1    2  501    0  0.34491516842E+02 -0.20783980918E+03  0.20534403927E+04  0.23065593560E+04  0.10291800451E+04 0.  0.
   -9000010    2    1    2    0  503 -0.34491516842E+02  0.20783980918E+03  0.10031383409E+04  0.14356826860E+04  0.10052418579E+04 0.  0.
        -13    1    3    3    0    0 -0.36948527223E+02  0.39443193726E+03  0.49331555862E+03  0.63269423763E+03  0.10566000000E+00 0.  1.
         13    1    4    4    0    0  0.21178426213E+03  0.27458260538E+03  0.11071148017E+04  0.11601514453E+04  0.10566000000E+00 0. -1.
          4    1    3    3  501    0  0.71440044064E+02 -0.60227174644E+03  0.15601248341E+04  0.16738651184E+04  0.00000000000E+00 0.  1.
         -4    1    4    4    0  503 -0.24627577897E+03 -0.66742796201E+02 -0.10397646082E+03  0.27553124062E+03  0.00000000000E+00 0. -1.
</event>
<event>
 8    1  0.7572579E-006  0.1156326E+04  0.7818608E-02  0.8650839E-01
         21   -1    0    0  503  502  0.00000000000E+00  0.00000000000E+00  0.99907160365E+03  0.99907160365E+03  0.00000000000E+00 0.  1.
         21   -1    0    0  501  503 -0.00000000000E+00 -0.00000000000E+00 -0.14918353172E+04  0.14918353172E+04  0.00000000000E+00 0.  1.
    9000010    2    1    2  501    0 -0.25957533668E+03 -0.37779508809E+03  0.22997086879E+03  0.11272957249E+04  0.10038927069E+04 0.  0.
   -9000010    2    1    2    0  502  0.25957533668E+03  0.37779508809E+03 -0.72273458237E+03  0.13636111959E+04  0.10615939587E+04 0.  0.
        -13    1    3    3    0    0  0.28280581642E+03  0.94979466030E+02 -0.12683836302E+03  0.32417311775E+03  0.10566000000E+00 0.  1.
         13    1    4    4    0    0  0.13334546060E+02  0.29049973845E+03 -0.96466325108E+03  0.10075431044E+04  0.10566000000E+00 0. -1.
          4    1    3    3  501    0 -0.54238115311E+03 -0.47277455412E+03  0.35680923182E+03  0.80312260719E+03  0.00000000000E+00 0.  1.
         -4    1    4    4    0  502  0.24624079062E+03  0.87295349640E+02  0.24192866871E+03  0.35606809150E+03  0.00000000000E+00 0. -1.
</event>
<event>
 8    1  0.7572579E-006  0.1065062E+04  0.7818608E-02  0.8717748E-01
         21   -1    0    0  501  502  0.00000000000E+00  0.00000000000E+00  0.15790644206E+04  0.15790644206E+04  0.00000000000E+00 0. -1.
         21   -1    0    0  502  503 -0.00000000000E+00 -0.00000000000E+00 -0.86008032432E+03  0.86008032432E+03  0.00000000000E+00 0. -1.
    9000010    2    1    2  501    0 -0.61440494542E+02 -0.35642086243E+03  0.86642691989E+03  0.13729724584E+04  0.10017719293E+04 0.  0.
   -9000010    2    1    2    0  503  0.61440494542E+02  0.35642086243E+03 -0.14744282364E+03  0.10661722865E+04  0.99205503515E+03 0.  0.
        -13    1    3    3    0    0  0.21021495588E+03 -0.63609770806E+03  0.48095936740E+03  0.82470148910E+03  0.10566000000E+00 0.  1.
         13    1    4    4    0    0 -0.35448656282E+03 -0.77240428177E+02 -0.27084464539E+03  0.45275119002E+03  0.10566000000E+00 0. -1.
          4    1    3    3  501    0 -0.27165545042E+03  0.27967684562E+03  0.38546755250E+03  0.54827096927E+03  0.00000000000E+00 0.  1.
         -4    1    4    4    0  503  0.41592705736E+03  0.43366129061E+03  0.12340182175E+03  0.61342109650E+03  0.00000000000E+00 0. -1.
</event>
<event>
 8    1  0.7572579E-006  0.1039786E+04  0.7818608E-02  0.8742287E-01
         21   -1    0    0  503  502  0.00000000000E+00  0.00000000000E+00  0.26176511475E+04  0.26176511475E+04  0.00000000000E+00 0. -1.
         21   -1    0    0  501  503 -0.00000000000E+00 -0.00000000000E+00 -0.49468294729E+03  0.49468294729E+03  0.00000000000E+00 0. -1.
    9000010    2    1    2  501    0  0.90198530374E+02 -0.21670520270E+03  0.39355396844E+03  0.10944072152E+04  0.99385386599E+03 0.  0.
   -9000010    2    1    2    0  502 -0.90198530374E+02  0.21670520270E+03  0.17294142318E+04  0.20179268796E+04  0.10129454015E+04 0.  0.
        -13    1    3    3    0    0 -0.18938299295E+03 -0.37901909274E+03  0.58224185335E+03  0.72008817352E+03  0.10566000000E+00 0.  1.
         13    1    4    4    0    0  0.32925036858E+02 -0.85807072368E+02 -0.11364181424E+03  0.14615534485E+03  0.10566000000E+00 0. -1.
          4    1    3    3  501    0  0.27958152332E+03  0.16231389004E+03 -0.18868788491E+03  0.37431904172E+03  0.00000000000E+00 0.  1.
         -4    1    4    4    0  502 -0.12312356723E+03  0.30251227507E+03  0.18430560460E+04  0.18717715347E+04  0.00000000000E+00 0. -1.
</event>
<event>
 8    1  0.7572579E-006  0.1013947E+04  0.7818608E-02  0.8762214E-01
         21   -1    0    0  503  502  0.00000000000E+00  0.00000000000E+00  0.57647227590E+03  0.57647227590E+03  0.00000000000E+00 0.  1.
         21   -1    0    0  501  503 -0.00000000000E+00 -0.00000000000E+00 -0.20596677021E+04  0.20596677021E+04  0.00000000000E+00 0.  1.
    9000010    2    1    2  501    0 -0.37017900047E+02 -0.17842557387E+02 -0.12275549050E+04  0.15904626181E+04  0.10104412962E+04 0.  0.
   -9000010    2    1    2    0  502  0.37017900047E+02  0.17842557387E+02 -0.25564052117E+03  0.10456773598E+04  0.10131142004E+04 0.  0.
        -13    1    3    3    0    0  0.68667474937E+02 -0.47594659161E+03 -0.89031021535E+03  0.10118758179E+04  0.10566000000E+00 0.  1.
         13    1    4    4    0    0 -0.35133571645E+03  0.11925924771E+03 -0.46346866723E+03  0.59368575062E+03  0.10566000000E+00 0. -1.
          4    1    3    3  501    0 -0.10568537498E+03  0.45810403422E+03 -0.33724468964E+03  0.57858680018E+03  0.00000000000E+00 0.  1.
         -4    1    4    4    0  502  0.38835361650E+03 -0.10141669033E+03  0.20782814605E+03  0.45199160923E+03  0.00000000000E+00 0. -1.
</event>
<event>
 8    1  0.7572579E-006  0.1012439E+04  0.7818608E-02  0.8763687E-01
         21   -1    0    0  503  502  0.00000000000E+00  0.00000000000E+00  0.16292746837E+04  0.16292746837E+04  0.00000000000E+00 0. -1.
         21   -1    0    0  501  503 -0.00000000000E+00 -0.00000000000E+00 -0.75971749524E+03  0.75971749524E+03  0.00000000000E+00 0. -1.
    9000010    2    1    2  501    0 -0.82827279007E+02 -0.17148866491E+02 -0.63434281097E+02  0.10144238917E+04  0.10088991438E+04 0.  0.
   -9000010    2    1    2    0  502  0.82827279007E+02  0.17148866491E+02  0.93299146955E+03  0.13745682872E+04  0.10058878924E+04 0.  0.
        -13    1    3    3    0    0  0.88321514031E+02 -0.28496253429E+03  0.37104253154E+03  0.47610598312E+03  0.10566000000E+00 0.  1.
         13    1    4    4    0    0  0.47881500077E+03 -0.27156301187E+02  0.83707824497E+03  0.96472859864E+03  0.10566000000E+00 0. -1.
          4    1    3    3  501    0 -0.17114879304E+03  0.26781366780E+03 -0.43447681264E+03  0.53831790862E+03  0.00000000000E+00 0.  1.
         -4    1    4    4    0  502 -0.39598772177E+03  0.44305167678E+02  0.95913224574E+02  0.40983968856E+03  0.00000000000E+00 0. -1.
</event>
<event>
 8    1  0.7572579E-006  0.1077664E+04  0.7818608E-02  0.8705304E-01
         21   -1    0    0  503  502  0.00000000000E+00  0.00000000000E+00  0.11176754849E+04  0.11176754849E+04  0.00000000000E+00 0. -1.
         21   -1    0    0  501  503 -0.00000000000E+00 -0.00000000000E+00 -0.12513965303E+04  0.12513965303E+04  0.00000000000E+00 0. -1.
    9000010    2    1    2  501    0  0.15499315685E+03  0.33291790540E+03 -0.55711957093E+03  0.12131541177E+04  0.10131650836E+04 0.  0.
   -9000010    2    1    2    0  502 -0.15499315685E+03 -0.33291790540E+03  0.42339852558E+03  0.11559178975E+04  0.10109513657E+04 0.  0.
        -13    1    3    3    0    0 -0.11885231346E+03 -0.42357198898E+02 -0.71227363606E+03  0.72336280559E+03  0.10566000000E+00 0.  1.
         13    1    4    4    0    0  0.23600894464E+02  0.26282230568E+03  0.46279199810E+03  0.53273728164E+03  0.10566000000E+00 0. -1.
          4    1    3    3  501    0  0.27384547031E+03  0.37527510429E+03  0.15515406513E+03  0.48979131213E+03  0.00000000000E+00 0.  1.
         -4    1    4    4    0  502 -0.17859405132E+03 -0.59574021108E+03 -0.39393472517E+02  0.62318061582E+03  0.00000000000E+00 0. -1.
</event>
<event>
 8    1  0.7572579E-006  0.1018392E+04  0.7818608E-02  0.8760020E-01
         21   -1    0    0  501  502  0.00000000000E+00  0.00000000000E+00  0.68398826671E+03  0.68398826671E+03  0.00000000000E+00 0.  1.
         21   -1    0    0  502  503 -0.00000000000E+00 -0.00000000000E+00 -0.18383268822E+04  0.18383268822E+04  0.00000000000E+00 0.  1.
    9000010    2    1    2  501    0 -0.15455995435E+03 -0.14636600864E+02 -0.38752055893E+02  0.10191288756E+04  0.10064884170E+04 0.  0.
   -9000010    2    1    2    0  503  0.15455995435E+03  0.14636600864E+02 -0.11155865596E+04  0.15031862734E+04  0.99545597130E+03 0.  0.
        -13    1    3    3    0    0 -0.61057838391E+02 -0.50637239087E+03 -0.82519598646E+02  0.51667257832E+03  0.10566000000E+00 0.  1.
         13    1    4    4    0    0  0.45592374173E+03 -0.10032454445E+03 -0.15817149904E+03  0.49289928664E+03  0.10566000000E+00 0. -1.
          4    1    3    3  501    0 -0.93502115956E+02  0.49173579001E+03  0.43767542753E+02  0.50245629726E+03  0.00000000000E+00 0.  1.
         -4    1    4    4    0  503 -0.30136378739E+03  0.11496114531E+03 -0.95741506059E+03  0.10102869867E+04  0.00000000000E+00 0. -1.
</event>
<event>
 8    1  0.7572579E-006  0.1010035E+04  0.7818608E-02  0.8765353E-01
         21   -1    0    0  503  502  0.00000000000E+00  0.00000000000E+00  0.13201141529E+04  0.13201141529E+04  0.00000000000E+00 0. -1.
         21   -1    0    0  501  503 -0.00000000000E+00 -0.00000000000E+00 -0.11696401536E+04  0.11696401536E+04  0.00000000000E+00 0. -1.
    9000010    2    1    2  501    0  0.17964146802E+03 -0.13724288097E+02  0.80077800666E+03  0.12889592732E+04  0.99383659568E+03 0.  0.
   -9000010    2    1    2    0  502 -0.17964146802E+03  0.13724288097E+02 -0.65030400733E+03  0.12007950333E+04  0.99325424590E+03 0.  0.
        -13    1    3    3    0    0  0.48549293116E+03  0.22198021412E+03  0.19054815746E+03  0.56682202951E+03  0.10566000000E+00 0.  1.
         13    1    4    4    0    0  0.86366893536E+02  0.30433476045E+03  0.11777806367E+03  0.33756565312E+03  0.10566000000E+00 0. -1.
          4    1    3    3  501    0 -0.30585146314E+03 -0.23570450222E+03  0.61022984921E+03  0.72213724370E+03  0.00000000000E+00 0.  1.
         -4    1    4    4    0  502 -0.26600836155E+03 -0.29061047235E+03 -0.76808207101E+03  0.86322938021E+03  0.00000000000E+00 0. -1.
</event>
<event>
 8    1  0.8673525E-006  0.1046204E+04  0.7818608E-02  0.8738676E-01
         21   -1    0    0  501  502  0.00000000000E+00  0.00000000000E+00  0.61452306960E+03  0.61452306960E+03  0.00000000000E+00 0. -1.
         21   -1    0    0  502  503 -0.00000000000E+00 -0.00000000000E+00 -0.17501639009E+04  0.17501639009E+04  0.00000000000E+00 0. -1.
    9000010    2    1    2  501    0  0.87049620637E+02 -0.17566333407E+03 -0.46083986723E+03  0.11432044930E+04  0.10276710983E+04 0.  0.
   -9000010    2    1    2    0  503 -0.87049620637E+02  0.17566333407E+03 -0.67480096412E+03  0.12214824775E+04  0.99911353624E+03 0.  0.
        -13    1    3    3    0    0  0.45184747699E+03  0.21817889838E+03 -0.15398898139E+03  0.52486264081E+03  0.10566000000E+00 0.  1.
         13    1    4    4    0    0  0.26288575803E+03  0.22596685396E+03 -0.77922122311E+03  0.85285149151E+03  0.10566000000E+00 0. -1.
          4    1    3    3  501    0 -0.36479785636E+03 -0.39384223246E+03 -0.30685088584E+03  0.61834185222E+03  0.00000000000E+00 0.  1.
         -4    1    4    4    0  503 -0.34993537866E+03 -0.50303519882E+02  0.10442025899E+03  0.36863098600E+03  0.00000000000E+00 0. -1.
</event>
<event>
 8    1  0.7572579E-006  0.1061898E+04  0.7818608E-02  0.8719681E-01
         21   -1    0    0  503  502  0.00000000000E+00  0.00000000000E+00  0.65307135136E+03  0.65307135136E+03  0.00000000000E+00 0.  1.
         21   -1    0    0  501  503 -0.00000000000E+00 -0.00000000000E+00 -0.23673051173E+04  0.23673051173E+04  0.00000000000E+00 0.  1.
    9000010    2    1    2  501    0 -0.20100385625E+03 -0.26211075735E+03 -0.16496091595E+04  0.19618454607E+04  0.10092188233E+04 0.  0.
   -9000010    2    1    2    0  502  0.20100385625E+03  0.26211075735E+03 -0.64624606435E+02  0.10585310079E+04  0.10035970086E+04 0.  0.
        -13    1    3    3    0    0 -0.25235496004E+03 -0.71960858444E+02  0.35907438898E+02  0.26485986169E+03  0.10566000000E+00 0.  1.
         13    1    4    4    0    0  0.21554925682E+03 -0.34070321636E+03 -0.18510019525E+03  0.44362400431E+03  0.10566000000E+00 0. -1.
          4    1    3    3  501    0  0.51351103784E+02 -0.19014989890E+03 -0.16855165984E+04  0.16969855990E+04  0.00000000000E+00 0.  1.
         -4    1    4    4    0  502 -0.14545400565E+02  0.60281397371E+03  0.12047558882E+03  0.61490700360E+03  0.00000000000E+00 0. -1.
</event>
<event>
 8    1  0.7572579E-006  0.9981253E+03  0.7818608E-02  0.8799713E-01
         21   -1    0    0  503  502  0.00000000000E+00  0.00000000000E+00  0.13079713982E+04  0.13079713982E+04  0.00000000000E+00 0.  1.
         21   -1    0    0  501  503 -0.00000000000E+00 -0.00000000000E+00 -0.11656717632E+04  0.11656717632E+04  0.00000000000E+00 0.  1.
    9000010    2    1    2  501    0  0.55065764637E+02  0.14808656826E+03 -0.71922075906E+03  0.11551320885E+04  0.88999425363E+03 0.  0.
   -9000010    2    1    2    0  502 -0.55065764637E+02 -0.14808656826E+03  0.86152039408E+03  0.13185110728E+04  0.98554157174E+03 0.  0.
        -13    1    3    3    0    0 -0.36249129607E+03  0.21424178805E+03 -0.15193793084E+03  0.44764341776E+03  0.10566000000E+00 0.  1.
         13    1    4    4    0    0  0.94237169829E+02 -0.49550541170E+03  0.78442135125E+03  0.93258947274E+03  0.10566000000E+00 0. -1.
          4    1    3    3  501    0  0.41755706070E+03 -0.66155219786E+02 -0.56728282821E+03  0.70748867075E+03  0.00000000000E+00 0.  1.
         -4    1    4    4    0  502 -0.14930293447E+03  0.34741884343E+03  0.77099042827E+02  0.38592160009E+03  0.00000000000E+00 0. -1.
</event>
<event>
 8    1  0.7572579E-006  0.1015752E+04  0.7818608E-02  0.8759989E-01
         21   -1    0    0  503  502  0.00000000000E+00  0.00000000000E+00  0.65142655922E+03  0.65142655922E+03  0.00000000000E+00 0.  1.
         21   -1    0    0  501  503 -0.00000000000E+00 -0.00000000000E+00 -0.15970709267E+04  0.15970709267E+04  0.00000000000E+00 0.  1.
    9000010    2    1    2  501    0 -0.37184403200E+02 -0.14629401789E+03 -0.36901615386E+03  0.10807059765E+04  0.10044739252E+04 0.  0.
   -9000010    2    1    2    0  502  0.37184403200E+02  0.14629401789E+03 -0.57662821363E+03  0.11677915094E+04  0.10042172540E+04 0.  0.
        -13    1    3    3    0    0 -0.22795763211E+03 -0.99884497191E+02 -0.67372251387E+03  0.71822255024E+03  0.10566000000E+00 0.  1.
         13    1    4    4    0    0 -0.55569390434E+02  0.45553765171E+03  0.51252955937E+02  0.46176767528E+03  0.10566000000E+00 0. -1.
          4    1    3    3  501    0  0.19077322891E+03 -0.46409520695E+02  0.30470636002E+03  0.36248342626E+03  0.00000000000E+00 0.  1.
         -4    1    4    4    0  502  0.92753793634E+02 -0.30924363382E+03 -0.62788116956E+03  0.70602383415E+03  0.00000000000E+00 0. -1.
</event>
<event>
 8    1  0.7572579E-006  0.1002886E+04  0.7818608E-02  0.8773149E-01
         21   -1    0    0  501  502  0.00000000000E+00  0.00000000000E+00  0.29976543524E+03  0.29976543524E+03  0.00000000000E+00 0. -1.
         21   -1    0    0  502  503 -0.00000000000E+00 -0.00000000000E+00 -0.34503196737E+04  0.34503196737E+04  0.00000000000E+00 0. -1.
    9000010    2    1    2  501    0  0.14149244398E+02  0.63832586567E+02 -0.12399244004E+04  0.15947391284E+04  0.10007525012E+04 0.  0.
   -9000010    2    1    2    0  503 -0.14149244398E+02 -0.63832586567E+02 -0.19106298381E+04  0.21553459806E+04  0.99535677900E+03 0.  0.
        -13    1    3    3    0    0  0.85595771436E+02  0.20729176511E+03  0.99793338052E+02  0.24546941450E+03  0.10566000000E+00 0.  1.
         13    1    4    4    0    0 -0.13649840205E+03  0.15105499096E+03  0.23978432505E+02  0.20499853767E+03  0.10566000000E+00 0. -1.
          4    1    3    3  501    0 -0.71446527038E+02 -0.14345917854E+03 -0.13397177384E+04  0.13492697139E+04  0.00000000000E+00 0.  1.
         -4    1    4    4    0  503  0.12234915765E+03 -0.21488757753E+03 -0.19346082706E+04  0.19503474429E+04  0.00000000000E+00 0. -1.
</event>
<event>
 8    1  0.7572579E-006  0.1047971E+04  0.7818608E-02  0.8731813E-01
         21   -1    0    0  503  502  0.00000000000E+00  0.00000000000E+00  0.28761649341E+04  0.28761649341E+04  0.00000000000E+00 0.  1.
         21   -1    0    0  501  503 -0.00000000000E+00 -0.00000000000E+00 -0.71801261250E+03  0.71801261250E+03  0.00000000000E+00 0.  1.
    9000010    2    1    2  501    0 -0.22696303770E+03  0.25867656635E+03 -0.15493484344E+03  0.10547650598E+04  0.98493590617E+03 0.  0.
   -9000010    2    1    2    0  502  0.22696303770E+03 -0.25867656635E+03  0.23130871650E+04  0.25394124867E+04  0.98985744350E+03 0.  0.
        -13    1    3    3    0    0  0.21299410823E+03 -0.27657373239E+03 -0.77575557567E+02  0.35759963350E+03  0.10566000000E+00 0.  1.
         13    1    4    4    0    0  0.39585150075E+03 -0.34089298640E+03  0.22915528249E+04  0.23503448256E+04  0.10566000000E+00 0. -1.
          4    1    3    3  501    0 -0.43995714593E+03  0.53525029874E+03 -0.77359285877E+02  0.69716542632E+03  0.00000000000E+00 0.  1.
         -4    1    4    4    0  502 -0.16888846305E+03  0.82216420052E+02  0.21534340094E+02  0.18906766112E+03  0.00000000000E+00 0. -1.
</event>
<event>
 8    1  0.7572579E-006  0.1074059E+04  0.7818608E-02  0.8714020E-01
         21   -1    0    0  501  502  0.00000000000E+00  0.00000000000E+00  0.83720057264E+03  0.83720057264E+03  0.00000000000E+00 0. -1.
         21   -1    0    0  502  503 -0.00000000000E+00 -0.00000000000E+00 -0.16471695643E+04  0.16471695643E+04  0.00000000000E+00 0. -1.
    9000010    2    1    2  501    0  0.25501348844E+02 -0.31958474943E+03  0.12484546730E+03  0.10812905236E+04  0.10250941785E+04 0.  0.
   -9000010    2    1    2    0  503 -0.25501348844E+02  0.31958474943E+03 -0.93481445896E+03  0.14030796134E+04  0.99597670549E+03 0.  0.
        -13    1    3    3    0    0  0.34486044366E+03 -0.10466781464E+03  0.45061207265E+03  0.57700548369E+03  0.10566000000E+00 0.  1.
         13    1    4    4    0    0 -0.21003957226E+03  0.48754125128E+03 -0.10112393104E+04  0.11421112238E+04  0.10566000000E+00 0. -1.
          4    1    3    3  501    0 -0.31935909482E+03 -0.21491693479E+03 -0.32576660535E+03  0.50428503990E+03  0.00000000000E+00 0.  1.
         -4    1    4    4    0  503  0.18453822341E+03 -0.16795650186E+03  0.76424851408E+02  0.26096838952E+03  0.00000000000E+00 0. -1.
</event>
<event>
 8    1  0.7572579E-006  0.9946767E+03  0.7818608E-02  0.8791413E-01
         21   -1    0    0  503  502  0.00000000000E+00  0.00000000000E+00  0.13003631698E+04  0.13003631698E+04  0.00000000000E+00 0.  1.
         21   -1    0    0  501  503 -0.00000000000E+00 -0.00000000000E+00 -0.80767584870E+03  0.80767584870E+03  0.00000000000E+00 0.  1.
    9000010    2    1    2  501    0 -0.74044954860E+01  0.31839933086E+02 -0.98143833036E+02  0.95111932236E+03  0.94547720518E+03 0.  0.
   -9000010    2    1    2    0  502  0.74044954860E+01 -0.31839933086E+02  0.59083115417E+03  0.11569196962E+04  0.99413938800E+03 0.  0.
        -13    1    3    3    0    0  0.19915932382E+03 -0.30397770139E+03  0.23683165033E+03  0.43376966349E+03  0.10566000000E+00 0.  1.
         13    1    4    4    0    0  0.11431813709E+03  0.81415882507E+02 -0.25811575955E+03  0.29380425266E+03  0.10566000000E+00 0. -1.
          4    1    3    3  501    0 -0.20656381930E+03  0.33581763448E+03 -0.33497548337E+03  0.51734965886E+03  0.00000000000E+00 0.  1.
         -4    1    4    4    0  502 -0.10691364160E+03 -0.11325581559E+03  0.84894691372E+03  0.86311544352E+03  0.00000000000E+00 0. -1.
</event>
<event>
 8    1  0.7572579E-006  0.1050805E+04  0.7818608E-02  0.8734132E-01
         21   -1    0    0  503  502  0.00000000000E+00  0.00000000000E+00  0.57086249552E+03  0.57086249552E+03  0.00000000000E+00 0. -1.
         21   -1    0    0  501  503 -0.00000000000E+00 -0.00000000000E+00 -0.22367662386E+04  0.22367662386E+04  0.00000000000E+00 0. -1.
    9000010    2    1    2  501    0  0.30206534040E+03  0.70690548526E+02 -0.13796616233E+04  0.17185351979E+04  0.97655333092E+03 0.  0.
   -9000010    2    1    2    0  502 -0.30206534040E+03 -0.70690548526E+02 -0.28624211977E+03  0.10890935362E+04  0.10039669098E+04 0.  0.
        -13    1    3    3    0    0 -0.34342426587E+03  0.82439161337E+02 -0.31405630891E+03  0.47261804667E+03  0.10566000000E+00 0.  1.
         13    1    4    4    0    0  0.21945799185E+03  0.57819355498E+02  0.24477221770E+03  0.33379385522E+03  0.10566000000E+00 0. -1.
          4    1    3    3  501    0  0.64548960626E+03 -0.11748612810E+02 -0.10656053144E+04  0.12459171513E+04  0.00000000000E+00 0.  1.
         -4    1    4    4    0  502 -0.52152333225E+03 -0.12850990402E+03 -0.53101433747E+03  0.75529968100E+03  0.00000000000E+00 0. -1.
</event>
<event>
 8    1  0.7572579E-006  0.1080839E+04  0.7818608E-02  0.8706368E-01
         21   -1    0    0  503  502  0.00000000000E+00  0.00000000000E+00  0.11964683878E+04  0.11964683878E+04  0.00000000000E+00 0. -1.
         21   -1    0    0  501  503 -0.00000000000E+00 -0.00000000000E+00 -0.10420802445E+04  0.10420802445E+04  0.00000000000E+00 0. -1.
    9000010    2    1    2  501    0 -0.22257816054E+03  0.30022199694E+03 -0.23993279894E+03  0.10880265486E+04  0.99325713566E+03 0.  0.
   -9000010    2    1    2    0  502  0.22257816054E+03 -0.30022199694E+03  0.39432094222E+03  0.11505220836E+04  0.10141685139E+04 0.  0.
        -13    1    3    3    0    0 -0.35926828788E+02 -0.26625735525E+03  0.20992613993E+03  0.34095851895E+03  0.10566000000E+00 0.  1.
         13    1    4    4    0    0  0.22942552789E+03 -0.11649159280E+03  0.72657482653E+03  0.77079008410E+03  0.10566000000E+00 0. -1.
          4    1    3    3  501    0 -0.18665133175E+03  0.56647935219E+03 -0.44985893887E+03  0.74706802969E+03  0.00000000000E+00 0.  1.
         -4    1    4    4    0  502 -0.68473673579E+01 -0.18373040414E+03 -0.33225388430E+03  0.37973199955E+03  0.00000000000E+00 0. -1.
</event>
<event>
 8    1  0.7572579E-006  0.1023695E+04  0.7818608E-02  0.8768604E-01
         21   -1    0    0  501  502  0.00000000000E+00  0.00000000000E+00  0.13697693514E+04  0.13697693514E+04  0.00000000000E+00 0. -1.
         21   -1    0    0  502  503 -0.00000000000E+00 -0.00000000000E+00 -0.10834286980E+04  0.10834286980E+04  0.00000000000E+00 0. -1.
    9000010    2    1    2  501    0  0.28195833283E+02  0.11448402563E+02  0.86094119982E+03  0.13375988863E+04  0.10232423761E+04 0.  0.
   -9000010    2    1    2    0  503 -0.28195833283E+02 -0.11448402563E+02 -0.57460054637E+03  0.11155991631E+04  0.95575605349E+03 0.  0.
        -13    1    3    3    0    0  0.18365324441E+03  0.34111311560E+03  0.89130138966E+03  0.97185639382E+03  0.10566000000E+00 0.  1.
         13    1    4    4    0    0  0.29764547214E+03 -0.55283401237E+02 -0.70083160954E+03  0.76342258130E+03  0.10566000000E+00 0. -1.
          4    1    3    3  501    0 -0.15545741113E+03 -0.32966471304E+03 -0.30360189844E+02  0.36574249251E+03  0.00000000000E+00 0.  1.
         -4    1    4    4    0  503 -0.32584130543E+03  0.43834998674E+02  0.12623106317E+03  0.35217658176E+03  0.00000000000E+00 0. -1.
</event>
<event>
 8    1  0.7572579E-006  0.1080392E+04  0.7818608E-02  0.8706021E-01
         21   -1    0    0  503  502  0.00000000000E+00  0.00000000000E+00  0.67350935237E+03  0.67350935237E+03  0.00000000000E+00 0. -1.
         21   -1    0    0  501  503 -0.00000000000E+00 -0.00000000000E+00 -0.19934016523E+04  0.19934016523E+04  0.00000000000E+00 0. -1.
    9000010    2    1    2  501    0  0.39099750205E+02  0.35613458812E+03 -0.11695333562E+04  0.15921854665E+04  0.10192574027E+04 0.  0.
   -9000010    2    1    2    0  502 -0.39099750205E+02 -0.35613458812E+03 -0.15035894368E+03  0.10747255382E+04  0.10020312047E+04 0.  0.
        -13    1    3    3    0    0  0.64471849755E+02  0.33590343927E+03 -0.13582732334E+04  0.14006762394E+04  0.10566000000E+00 0.  1.
         13    1    4    4    0    0 -0.65151579355E+02 -0.25688418063E+03 -0.57751394554E+03  0.63541842829E+03  0.10566000000E+00 0. -1.
          4    1    3    3  501    0 -0.25372099549E+02  0.20231148847E+02  0.18873987717E+03  0.19150922707E+03  0.00000000000E+00 0.  1.
         -4    1    4    4    0  502  0.26051829150E+02 -0.99250407484E+02  0.42715500186E+03  0.43930710989E+03  0.00000000000E+00 0. -1.
</event>
<event>
 8    1  0.7572579E-006  0.1034183E+04  0.7818608E-02  0.8750149E-01
         21   -1    0    0  503  502  0.00000000000E+00  0.00000000000E+00  0.86785641631E+03  0.86785641631E+03  0.00000000000E+00 0.  1.
         21   -1    0    0  501  503 -0.00000000000E+00 -0.00000000000E+00 -0.13786470503E+04  0.13786470503E+04  0.00000000000E+00 0.  1.
    9000010    2    1    2  501    0  0.60364474132E+02  0.66143797295E+02 -0.66074422743E+03  0.12015057199E+04  0.99950697306E+03 0.  0.
   -9000010    2    1    2    0  502 -0.60364474132E+02 -0.66143797295E+02  0.14995359343E+03  0.10449977467E+04  0.10302986649E+04 0.  0.
        -13    1    3    3    0    0 -0.16370294124E+03  0.26416984565E+03 -0.80979684887E+03  0.86738417551E+03  0.10566000000E+00 0.  1.
         13    1    4    4    0    0 -0.24437283661E+03  0.25086058779E+03  0.45076788629E+03  0.57082468084E+03  0.10566000000E+00 0. -1.
          4    1    3    3  501    0  0.22406741538E+03 -0.19802604836E+03  0.14905262144E+03  0.33412154438E+03  0.00000000000E+00 0.  1.
         -4    1    4    4    0  502  0.18400836248E+03 -0.31700438509E+03 -0.30081429286E+03  0.47417306589E+03  0.00000000000E+00 0. -1.
</event>
<event>
 8    1  0.7573170E-006  0.1057548E+04  0.7818608E-02  0.8726648E-01
         21   -1    0    0  501  502  0.00000000000E+00  0.00000000000E+00  0.91868721823E+03  0.91868721823E+03  0.00000000000E+00 0. -1.
         21   -1    0    0  502  503 -0.00000000000E+00 -0.00000000000E+00 -0.15171697134E+04  0.15171697134E+04  0.00000000000E+00 0. -1.
    9000010    2    1    2  501    0  0.15614922432E+03  0.19305642467E+03  0.25975063619E+03  0.10889807498E+04  0.10279860491E+04 0.  0.
   -9000010    2    1    2    0  503 -0.15614922432E+03 -0.19305642467E+03 -0.85823313137E+03  0.13468761818E+04  0.10078978014E+04 0.  0.
        -13    1    3    3    0    0 -0.34845507642E+02 -0.14461097796E+03 -0.34203979193E+03  0.37298495248E+03  0.10566000000E+00 0.  1.
         13    1    4    4    0    0 -0.45915156469E+03  0.21801164665E+03 -0.29962544153E+03  0.59002089269E+03  0.10566000000E+00 0. -1.
          4    1    3    3  501    0  0.19099473196E+03  0.33766740263E+03  0.60179042812E+03  0.71599579734E+03  0.00000000000E+00 0.  1.
         -4    1    4    4    0  503  0.30300234037E+03 -0.41106807132E+03 -0.55860768984E+03  0.75685528913E+03  0.00000000000E+00 0. -1.
</event>
<event>
 8    1  0.7572579E-006  0.1033894E+04  0.7818608E-02  0.8746723E-01
         21   -1    0    0  503  502  0.00000000000E+00  0.00000000000E+00  0.17127270679E+04  0.17127270679E+04  0.00000000000E+00 0. -1.
         21   -1    0    0  501  503 -0.00000000000E+00 -0.00000000000E+00 -0.69884221598E+03  0.69884221598E+03  0.00000000000E+00 0. -1.
    9000010    2    1    2  501    0 -0.16538481975E+03  0.22894632251E+03  0.86788040583E+02  0.10228844169E+04  0.97928127173E+03 0.  0.
   -9000010    2    1    2    0  502  0.16538481975E+03 -0.22894632251E+03  0.92709681136E+03  0.13886848670E+04  0.99456955764E+03 0.  0.
        -13    1    3    3    0    0 -0.33114327519E+03  0.27209345906E+02  0.45997460680E+03  0.56742653029E+03  0.10566000000E+00 0.  1.
         13    1    4    4    0    0 -0.30025045276E+03 -0.35744375868E+03  0.73104004799E+03  0.86737300968E+03  0.10566000000E+00 0. -1.
          4    1    3    3  501    0  0.16575845544E+03  0.20173697660E+03 -0.37318656621E+03  0.45545788662E+03  0.00000000000E+00 0.  1.
         -4    1    4    4    0  502  0.46563527251E+03  0.12849743617E+03  0.19605676337E+03  0.52131185731E+03  0.00000000000E+00 0. -1.
</event>
<event>
 8    1  0.7572579E-006  0.1017129E+04  0.7818608E-02  0.8765066E-01
         21   -1    0    0  503  502  0.00000000000E+00  0.00000000000E+00  0.69810054818E+03  0.69810054818E+03  0.00000000000E+00 0. -1.
         21   -1    0    0  501  503 -0.00000000000E+00 -0.00000000000E+00 -0.14441645113E+04  0.14441645113E+04  0.00000000000E+00 0. -1.
    9000010    2    1    2  501    0  0.59732511886E+02 -0.32713378047E+02 -0.41710492889E+03  0.10993303705E+04  0.10148460985E+04 0.  0.
   -9000010    2    1    2    0  502 -0.59732511886E+02  0.32713378047E+02 -0.32895903421E+03  0.10429346890E+04  0.98735028291E+03 0.  0.
        -13    1    3    3    0    0  0.32585720745E+03 -0.10008640330E+03 -0.65349394143E+03  0.73705803735E+03  0.10566000000E+00 0.  1.
         13    1    4    4    0    0 -0.71520300276E+02  0.20860766621E+03  0.30981198394E+03  0.38028382599E+03  0.10566000000E+00 0. -1.
          4    1    3    3  501    0 -0.26612469556E+03  0.67373025255E+02  0.23638901254E+03  0.36227233315E+03  0.00000000000E+00 0.  1.
         -4    1    4    4    0  502  0.11787788391E+02 -0.17589428816E+03 -0.63877101815E+03  0.66265086297E+03  0.00000000000E+00 0. -1.
</event>
<event>
 8    1  0.7572579E-006  0.1083254E+04  0.7818608E-02  0.8704713E-01
         21   -1    0    0  503  502  0.00000000000E+00  0.00000000000E+00  0.76012247973E+03  0.76012247973E+03  0.00000000000E+00 0.  1.
         21   -1    0    0  501  503 -0.00000000000E+00 -0.00000000000E+00 -0.23054283994E+04  0.23054283994E+04  0.00000000000E+00 0.  1.
    9000010    2    1    2  501    0 -0.30612849573E+03 -0.28888517566E+03 -0.16762164876E+04  0.19957808511E+04  0.99813335369E+03 0.  0.
   -9000010    2    1    2    0  502  0.30612849573E+03  0.28888517566E+03  0.13091056789E+03  0.10697700281E+04  0.97473126325E+03 0.  0.
        -13    1    3    3    0    0 -0.11785867995E+03  0.36954874268E+03 -0.74418392460E+03  0.83920597379E+03  0.10566000000E+00 0.  1.
         13    1    4    4    0    0  0.52736095143E+03 -0.87432198946E+02  0.28630909183E+03  0.60640487278E+03  0.10566000000E+00 0. -1.
          4    1    3    3  501    0 -0.18826981577E+03 -0.65843391834E+03 -0.93203256299E+03  0.11565748773E+04  0.00000000000E+00 0.  1.
         -4    1    4    4    0  502 -0.22123245571E+03  0.37631737461E+03 -0.15539852394E+03  0.46336515528E+03  0.00000000000E+00 0. -1.
</event>
<event>
 8    1  0.7572579E-006  0.1023963E+04  0.7818608E-02  0.8763317E-01
         21   -1    0    0  501  502  0.00000000000E+00  0.00000000000E+00  0.92960701855E+03  0.92960701855E+03  0.00000000000E+00 0.  1.
         21   -1    0    0  502  503 -0.00000000000E+00 -0.00000000000E+00 -0.11677579848E+04  0.11677579848E+04  0.00000000000E+00 0.  1.
    9000010    2    1    2  501    0  0.64209053564E+02 -0.11417787874E+03  0.17566705692E+03  0.99294446561E+03  0.96846290912E+03 0.  0.
   -9000010    2    1    2    0  503 -0.64209053564E+02  0.11417787874E+03 -0.41381802319E+03  0.11044205378E+04  0.10155491014E+04 0.  0.
        -13    1    3    3    0    0  0.37400954899E+03 -0.32105590122E+03  0.32628888027E+03  0.59112137416E+03  0.10566000000E+00 0.  1.
         13    1    4    4    0    0  0.25555786974E+03 -0.34417798604E+03 -0.32628999731E+03  0.53873322189E+03  0.10566000000E+00 0. -1.
          4    1    3    3  501    0 -0.30980049542E+03  0.20687802248E+03 -0.15062182335E+03  0.40182309144E+03  0.00000000000E+00 0.  1.
         -4    1    4    4    0  503 -0.31976692330E+03  0.45835586479E+03 -0.87528025881E+02  0.56568731587E+03  0.00000000000E+00 0. -1.
</event>
<event>
 8    1  0.7572579E-006  0.1057286E+04  0.7818608E-02  0.8731700E-01
         21   -1    0    0  503  502  0.00000000000E+00  0.00000000000E+00  0.13335892908E+04  0.13335892908E+04  0.00000000000E+00 0.  1.
         21   -1    0    0  501  503 -0.00000000000E+00 -0.00000000000E+00 -0.14538521716E+04  0.14538521716E+04  0.00000000000E+00 0.  1.
    9000010    2    1    2  501    0 -0.18289822756E+03  0.13491698674E+03 -0.99091558737E+03  0.14490576203E+04  0.10325695767E+04 0.  0.
   -9000010    2    1    2    0  502  0.18289822756E+03 -0.13491698674E+03  0.87065270655E+03  0.13383838421E+04  0.99074760577E+03 0.  0.
        -13    1    3    3    0    0 -0.64586560834E+01 -0.43402542790E+03 -0.25934438653E+03  0.50564741499E+03  0.10566000000E+00 0.  1.
         13    1    4    4    0    0 -0.82364322047E+02  0.26799817628E+03  0.80390487829E+03  0.85139295777E+03  0.10566000000E+00 0. -1.
          4    1    3    3  501    0 -0.17643957148E+03  0.56894241464E+03 -0.73157120084E+03  0.94341020530E+03  0.00000000000E+00 0.  1.
         -4    1    4    4    0  502  0.26526254961E+03 -0.40291516302E+03  0.66747828253E+02  0.48699088430E+03  0.00000000000E+00 0. -1.
</event>
<event>
 8    1  0.7572579E-006  0.1000955E+04  0.7818608E-02  0.8775670E-01
         21   -1    0    0  503  502  0.00000000000E+00  0.00000000000E+00  0.14338375519E+04  0.14338375519E+04  0.00000000000E+00 0. -1.
         21   -1    0    0  501  503 -0.00000000000E+00 -0.00000000000E+00 -0.78581023735E+03  0.78581023735E+03  0.00000000000E+00 0. -1.
    9000010    2    1    2  501    0 -0.18731587333E+03 -0.50618215853E+02 -0.56352762446E+02  0.10025396928E+04  0.98196780073E+03 0.  0.
   -9000010    2    1    2    0  502  0.18731587333E+03  0.50618215853E+02  0.70438007699E+03  0.12171080964E+04  0.97342251121E+03 0.  0.
        -13    1    3    3    0    0 -0.36922585679E+02  0.30598047695E+03 -0.38615042530E+03  0.49406425871E+03  0.10566000000E+00 0.  1.
         13    1    4    4    0    0  0.33891737974E+03 -0.39507931644E+03  0.40051563598E+03  0.65678416729E+03  0.10566000000E+00 0. -1.
          4    1    3    3  501    0 -0.15039328765E+03 -0.35659869280E+03  0.32979766286E+03  0.50847543412E+03  0.00000000000E+00 0.  1.
         -4    1    4    4    0  502 -0.15160150641E+03  0.44569753230E+03  0.30386444101E+03  0.56032392913E+03  0.00000000000E+00 0. -1.
</event>
<event>
 8    1  0.7572579E-006  0.1086103E+04  0.7818608E-02  0.8698919E-01
         21   -1    0    0  501  502  0.00000000000E+00  0.00000000000E+00  0.18578661637E+04  0.18578661637E+04  0.00000000000E+00 0.  1.
         21   -1    0    0  502  503 -0.00000000000E+00 -0.00000000000E+00 -0.64289826495E+03  0.64289826495E+03  0.00000000000E+00 0.  1.
    9000010    2    1    2  501    0  0.75688664457E+02  0.40364802192E+03  0.77265528234E+03  0.13280497791E+04  0.99902929437E+03 0.  0.
   -9000010    2    1    2    0  503 -0.75688664457E+02 -0.40364802192E+03  0.44231261638E+03  0.11727146495E+04  0.10054644195E+04 0.  0.
        -13    1    3    3    0    0  0.12293406268E+03 -0.31871166595E+03  0.14952202299E+03  0.37288973746E+03  0.10566000000E+00 0.  1.
         13    1    4    4    0    0 -0.18392492862E+03  0.16266383914E+03 -0.19481825404E+03  0.31343590605E+03  0.10566000000E+00 0. -1.
          4    1    3    3  501    0 -0.47245398225E+02  0.72235968787E+03  0.62313325936E+03  0.95516004168E+03  0.00000000000E+00 0.  1.
         -4    1    4    4    0  503  0.10823626416E+03 -0.56631186106E+03  0.63713087042E+03  0.85927874342E+03  0.00000000000E+00 0. -1.
</event>
<event>
 8    1  0.7572579E-006  0.1006453E+04  0.7818608E-02  0.8776848E-01
         21   -1    0    0  501  502  0.00000000000E+00  0.00000000000E+00  0.51918396386E+03  0.51918396386E+03  0.00000000000E+00 0. -1.
         21   -1    0    0  502  503 -0.00000000000E+00 -0.00000000000E+00 -0.21621620212E+04  0.21621620212E+04  0.00000000000E+00 0. -1.
    9000010    2    1    2  501    0  0.15620077132E+03 -0.28965373982E+02 -0.35323525484E+03  0.10666405539E+04  0.99383562626E+03 0.  0.
   -9000010    2    1    2    0  503 -0.15620077132E+03  0.28965373982E+02 -0.12897428025E+04  0.16147054312E+04  0.95843594418E+03 0.  0.
        -13    1    3    3    0    0 -0.26960706970E+03 -0.33445485425E+03 -0.33063600444E+03  0.54209611709E+03  0.10566000000E+00 0.  1.
         13    1    4    4    0    0 -0.50272456332E+03  0.12707011903E+03 -0.40015953264E+03  0.65498585057E+03  0.10566000000E+00 0. -1.
          4    1    3    3  501    0  0.42580784102E+03  0.30548948026E+03 -0.22599250402E+02  0.52454443677E+03  0.00000000000E+00 0.  1.
         -4    1    4    4    0  503  0.34652379201E+03 -0.98104745052E+02 -0.88958326986E+03  0.95971958063E+03  0.00000000000E+00 0. -1.
</event>
<event>
 8    1  0.7572579E-006  0.1073834E+04  0.7818608E-02  0.8710520E-01
         21   -1    0    0  503  502  0.00000000000E+00  0.00000000000E+00  0.74582660384E+03  0.74582660384E+03  0.00000000000E+00 0.  1.
         21   -1    0    0  501  503 -0.00000000000E+00 -0.00000000000E+00 -0.16009588831E+04  0.16009588831E+04  0.00000000000E+00 0.  1.
    9000010    2    1    2  501    0  0.32441214400E+03  0.20836836125E+03 -0.67181200252E+03  0.12574161166E+04  0.99050659279E+03 0.  0.
   -9000010    2    1    2    0  502 -0.32441214400E+03 -0.20836836125E+03 -0.18332027677E+03  0.10893693704E+04  0.10022268646E+04 0.  0.
        -13    1    3    3    0    0  0.34659407429E+03  0.57971037873E+03 -0.53285797964E+03  0.86030762705E+03  0.10566000000E+00 0.  1.
         13    1    4    4    0    0  0.99649821080E+02  0.97377676165E+02 -0.47202562082E+03  0.49215921868E+03  0.10566000000E+00 0. -1.
          4    1    3    3  501    0 -0.22181930296E+02 -0.37134201748E+03 -0.13895402288E+03  0.39710848953E+03  0.00000000000E+00 0.  1.
         -4    1    4    4    0  502 -0.42406196508E+03 -0.30574603741E+03  0.28870534405E+03  0.59721015170E+03  0.00000000000E+00 0. -1.
</event>
<event>
 8    1  0.7572579E-006  0.1187860E+04  0.7818608E-02  0.8627191E-01
         21   -1    0    0  503  502  0.00000000000E+00  0.00000000000E+00  0.10405319212E+04  0.10405319212E+04  0.00000000000E+00 0.  1.
         21   -1    0    0  501  503 -0.00000000000E+00 -0.00000000000E+00 -0.25101673735E+04  0.25101673735E+04  0.00000000000E+00 0.  1.
    9000010    2    1    2  501    0  0.50381078157E+03  0.19983758538E+03 -0.19627755961E+04  0.22645425596E+04  0.99091099483E+03 0.  0.
   -9000010    2    1    2    0  502 -0.50381078157E+03 -0.19983758538E+03  0.49314014385E+03  0.12861567350E+04  0.10570012211E+04 0.  0.
        -13    1    3    3    0    0  0.18857542981E+03  0.34656510864E+03 -0.15544013231E+03  0.42406333625E+03  0.10566000000E+00 0.  1.
         13    1    4    4    0    0 -0.56494319498E+02 -0.56688740930E+03  0.80260983375E+02  0.57532145760E+03  0.10566000000E+00 0. -1.
          4    1    3    3  501    0  0.31523535177E+03 -0.14672752327E+03 -0.18073354638E+04  0.18404792234E+04  0.00000000000E+00 0.  1.
         -4    1    4    4    0  502 -0.44731646208E+03  0.36704982392E+03  0.41287916048E+03  0.71083527743E+03  0.00000000000E+00 0. -1.
</event>
<event>
 8    1  0.7572579E-006  0.1038254E+04  0.7818608E-02  0.8757744E-01
         21   -1    0    0  503  502  0.00000000000E+00  0.00000000000E+00  0.10196829312E+04  0.10196829312E+04  0.00000000000E+00 0.  1.
         21   -1    0    0  501  503 -0.00000000000E+00 -0.00000000000E+00 -0.10210433959E+04  0.10210433959E+04  0.00000000000E+00 0.  1.
    9000010    2    1    2  501    0  0.68133191473E+02 -0.93869983042E+02  0.20610095095E+03  0.10585129804E+04  0.10317550204E+04 0.  0.
   -9000010    2    1    2    0  502 -0.68133191473E+02  0.93869983042E+02 -0.20746141571E+03  0.98221334678E+03  0.95302104598E+03 0.  0.
        -13    1    3    3    0    0 -0.39174487329E+03 -0.33585494142E+03  0.14004779549E+03  0.53467371696E+03  0.10566000000E+00 0.  1.
         13    1    4    4    0    0  0.20825011816E+03 -0.19315276511E+03  0.24799195012E+03  0.37706248935E+03  0.10566000000E+00 0. -1.
          4    1    3    3  501    0  0.45987806476E+03  0.24198495838E+03  0.66053155460E+02  0.52383926340E+03  0.00000000000E+00 0.  1.
         -4    1    4    4    0  502 -0.27638330963E+03  0.28702274815E+03 -0.45545336584E+03  0.60515085743E+03  0.00000000000E+00 0. -1.
</event>
<event>
 8    1  0.7572579E-006  0.1386700E+04  0.7818608E-02  0.8480628E-01
         21   -1    0    0  501  502  0.00000000000E+00  0.00000000000E+00  0.64397762001E+03  0.64397762001E+03  0.00000000000E+00 0. -1.
         21   -1    0    0  502  503 -0.00000000000E+00 -0.00000000000E+00 -0.32243208747E+04  0.32243208747E+04  0.00000000000E+00 0. -1.
    9000010    2    1    2  501    0 -0.41451111949E+03  0.83657607999E+03 -0.18633713363E+04  0.23227334750E+04  0.10253092475E+04 0.  0.
   -9000010    2    1    2    0  503  0.41451111949E+03 -0.83657607999E+03 -0.71697191837E+03  0.15455650197E+04  0.10015205902E+04 0.  0.
        -13    1    3    3    0    0  0.27935456556E+03  0.42433953150E+03 -0.11007647840E+04  0.12123473645E+04  0.10566000000E+00 0.  1.
         13    1    4    4    0    0  0.45881309609E+03 -0.75870746214E+03 -0.94785357882E+03  0.12979109709E+04  0.10566000000E+00 0. -1.
          4    1    3    3  501    0 -0.69386568504E+03  0.41223654849E+03 -0.76260655228E+03  0.11103861105E+04  0.00000000000E+00 0.  1.
         -4    1    4    4    0  503 -0.44301976606E+02 -0.77868617849E+02  0.23088166045E+03  0.24765404884E+03  0.00000000000E+00 0. -1.
</event>
<event>
 8    1  0.7572579E-006  0.1259449E+04  0.7818608E-02  0.8602931E-01
         21   -1    0    0  501  502  0.00000000000E+00  0.00000000000E+00  0.15155255312E+04  0.15155255312E+04  0.00000000000E+00 0.  1.
         21   -1    0    0  502  503 -0.00000000000E+00 -0.00000000000E+00 -0.12374046509E+04  0.12374046509E+04  0.00000000000E+00 0.  1.
    9000010    2    1    2  501    0  0.18348741654E+03  0.27053669812E+03  0.88193366421E+03  0.15375367435E+04  0.12162871833E+04 0.  0.
   -9000010    2    1    2    0  503 -0.18348741654E+03 -0.27053669812E+03 -0.60381278385E+03  0.12153934386E+04  0.10028627003E+04 0.  0.
        -13    1    3    3    0    0 -0.10694372833E+03  0.50141147960E+03  0.10200510509E+04  0.11416455625E+04  0.10566000000E+00 0.  1.
         13    1    4    4    0    0  0.65950080528E+02 -0.40228449958E+03  0.13108669625E+03  0.42821252296E+03  0.10566000000E+00 0. -1.
          4    1    3    3  501    0  0.29043114487E+03 -0.23087478148E+03 -0.13811738667E+03  0.39589118092E+03  0.00000000000E+00 0.  1.
         -4    1    4    4    0  503 -0.24943749707E+03  0.13174780146E+03 -0.73489948011E+03  0.78718091567E+03  0.00000000000E+00 0. -1.
</event>
<event>
 8    1  0.7572579E-006  0.1004706E+04  0.7818608E-02  0.8771066E-01
         21   -1    0    0  501  502  0.00000000000E+00  0.00000000000E+00  0.96586876762E+03  0.96586876762E+03  0.00000000000E+00 0.  1.
         21   -1    0    0  502  503 -0.00000000000E+00 -0.00000000000E+00 -0.10720569194E+04  0.10720569194E+04  0.00000000000E+00 0.  1.
    9000010    2    1    2  501    0  0.25529944640E+02  0.63334978886E+02  0.11992536440E+03  0.10080902704E+04  0.99859942047E+03 0.  0.
   -9000010    2    1    2    0  503 -0.25529944640E+02 -0.63334978886E+02 -0.22611351615E+03  0.10298354166E+04  0.10023824447E+04 0.  0.
        -13    1    3    3    0    0  0.38448012905E+03  0.69369674272E+02  0.39518725628E+03  0.55570684721E+03  0.10566000000E+00 0.  1.
         13    1    4    4    0    0 -0.32258547058E+03  0.26639875249E+02 -0.51339018230E+03  0.60691066825E+03  0.10566000000E+00 0. -1.
          4    1    3    3  501    0 -0.35895018441E+03 -0.60346953864E+01 -0.27526189188E+03  0.45238342317E+03  0.00000000000E+00 0.  1.
         -4    1    4    4    0  503  0.29705552594E+03 -0.89974854135E+02  0.28727666615E+03  0.42292474837E+03  0.00000000000E+00 0. -1.
</event>
<event>
 8    1  0.7572579E-006  0.1026817E+04  0.7818608E-02  0.8780049E-01
         21   -1    0    0  503  502  0.00000000000E+00  0.00000000000E+00  0.15159625328E+04  0.15159625328E+04  0.00000000000E+00 0. -1.
         21   -1    0    0  501  503 -0.00000000000E+00 -0.00000000000E+00 -0.70728755755E+03  0.70728755755E+03  0.00000000000E+00 0. -1.
    9000010    2    1    2  501    0 -0.45925456283E+01  0.24442147422E+03  0.23603947733E+02  0.10270886000E+04  0.99729178141E+03 0.  0.
   -9000010    2    1    2    0  502  0.45925456283E+01 -0.24442147422E+03  0.78507102752E+03  0.11961614904E+04  0.86873634914E+03 0.  0.
        -13    1    3    3    0    0  0.22935560888E+03 -0.20448913580E+03 -0.29743779943E+03  0.42765530241E+03  0.10566000000E+00 0.  1.
         13    1    4    4    0    0  0.36430541596E+03 -0.33953461423E+03  0.28806631257E+03  0.57531243856E+03  0.10566000000E+00 0. -1.
          4    1    3    3  501    0 -0.23394815451E+03  0.44891061003E+03  0.32104174716E+03  0.59943329755E+03  0.00000000000E+00 0.  1.
         -4    1    4    4    0  502 -0.35971287034E+03  0.95113140002E+02  0.49700471496E+03  0.62084905184E+03  0.00000000000E+00 0. -1.
</event>
<event>
 8    1  0.7572579E-006  0.1033513E+04  0.7818608E-02  0.8749160E-01
         21   -1    0    0  501  502  0.00000000000E+00  0.00000000000E+00  0.75298725378E+03  0.75298725378E+03  0.00000000000E+00 0.  1.
         21   -1    0    0  502  503 -0.00000000000E+00 -0.00000000000E+00 -0.15375728037E+04  0.15375728037E+04  0.00000000000E+00 0.  1.
    9000010    2    1    2  501    0  0.63530245778E+02 -0.13226696612E+03 -0.36953683044E+02  0.10341738021E+04  0.10230441026E+04 0.  0.
   -9000010    2    1    2    0  503 -0.63530245778E+02  0.13226696612E+03 -0.74763186685E+03  0.12563862554E+04  0.99901069658E+03 0.  0.
        -13    1    3    3    0    0 -0.24538714473E+03 -0.68905892816E+02 -0.44840177759E+03  0.51577809005E+03  0.10566000000E+00 0.  1.
         13    1    4    4    0    0 -0.57887973814E+02  0.27439633651E+03  0.16990433341E+03  0.32789001308E+03  0.10566000000E+00 0. -1.
          4    1    3    3  501    0  0.30891739050E+03 -0.63361073307E+02  0.41144809455E+03  0.51839571205E+03  0.00000000000E+00 0.  1.
         -4    1    4    4    0  503 -0.56422719638E+01 -0.14212937039E+03 -0.91753620026E+03  0.92849624229E+03  0.00000000000E+00 0. -1.
</event>
<event>
 8    1  0.7572579E-006  0.1062400E+04  0.7818608E-02  0.8719157E-01
         21   -1    0    0  503  502  0.00000000000E+00  0.00000000000E+00  0.14809332832E+04  0.14809332832E+04  0.00000000000E+00 0.  1.
         21   -1    0    0  501  503 -0.00000000000E+00 -0.00000000000E+00 -0.86980036525E+03  0.86980036525E+03  0.00000000000E+00 0.  1.
    9000010    2    1    2  501    0 -0.13837987553E+03  0.23376049620E+03 -0.11407252183E+03  0.10685069550E+04  0.10270840341E+04 0.  0.
   -9000010    2    1    2    0  502  0.13837987553E+03 -0.23376049620E+03  0.72520543981E+03  0.12822266935E+04  0.10219537192E+04 0.  0.
        -13    1    3    3    0    0 -0.34578476175E+03 -0.11952197643E+03  0.30951936053E+03  0.47922317350E+03  0.10566000000E+00 0.  1.
         13    1    4    4    0    0  0.36742160342E+03 -0.55211064495E+03  0.41663097341E+03  0.78320251411E+03  0.10566000000E+00 0. -1.
          4    1    3    3  501    0  0.20740488622E+03  0.35328247263E+03 -0.42359188236E+03  0.58928378146E+03  0.00000000000E+00 0.  1.
         -4    1    4    4    0  502 -0.22904172789E+03  0.31835014875E+03  0.30857446640E+03  0.49902417942E+03  0.00000000000E+00 0. -1.
</event>
<event>
 8    1  0.7572579E-006  0.1049897E+04  0.7818608E-02  0.8734461E-01
         21   -1    0    0  501  502  0.00000000000E+00  0.00000000000E+00  0.11255806061E+04  0.11255806061E+04  0.00000000000E+00 0.  1.
         21   -1    0    0  502  503 -0.00000000000E+00 -0.00000000000E+00 -0.10260995957E+04  0.10260995957E+04  0.00000000000E+00 0.  1.
    9000010    2    1    2  501    0 -0.14038510837E+03  0.20255233750E+03  0.32942919612E+03  0.11003665625E+04  0.10205623687E+04 0.  0.
   -9000010    2    1    2    0  503  0.14038510837E+03 -0.20255233750E+03 -0.22994818573E+03  0.10513136394E+04  0.99581563160E+03 0.  0.
        -13    1    3    3    0    0  0.35613630022E+03  0.26378790558E+03 -0.84342297426E+02  0.45114383268E+03  0.10566000000E+00 0.  1.
         13    1    4    4    0    0  0.11251155545E+02  0.34201391816E+03  0.15127400041E+03  0.37414428110E+03  0.10566000000E+00 0. -1.
          4    1    3    3  501    0 -0.49652140859E+03 -0.61235568077E+02  0.41377149354E+03  0.64922272977E+03  0.00000000000E+00 0.  1.
         -4    1    4    4    0  503  0.12913395282E+03 -0.54456625566E+03 -0.38122218614E+03  0.67716935827E+03  0.00000000000E+00 0. -1.
</event>
<event>
 8    1  0.7572579E-006  0.1034888E+04  0.7818608E-02  0.8743872E-01
         21   -1    0    0  501  502  0.00000000000E+00  0.00000000000E+00  0.16222696333E+04  0.16222696333E+04  0.00000000000E+00 0. -1.
         21   -1    0    0  502  503 -0.00000000000E+00 -0.00000000000E+00 -0.10315593243E+04  0.10315593243E+04  0.00000000000E+00 0. -1.
    9000010    2    1    2  501    0  0.27079738110E+03  0.63311673561E+02  0.10951389679E+04  0.15025507786E+04  0.99044933920E+03 0.  0.
   -9000010    2    1    2    0  503 -0.27079738110E+03 -0.63311673561E+02 -0.50442865895E+03  0.11512781790E+04  0.99682174130E+03 0.  0.
        -13    1    3    3    0    0  0.29025421896E+03  0.35619107963E+03  0.11174014341E+04  0.12081827565E+04  0.10566000000E+00 0.  1.
         13    1    4    4    0    0 -0.42254894182E+03 -0.24706296676E+03  0.10174645107E+03  0.49994006566E+03  0.10566000000E+00 0. -1.
          4    1    3    3  501    0 -0.19456837862E+02 -0.29287940607E+03 -0.22262466216E+02  0.29436802211E+03  0.00000000000E+00 0.  1.
         -4    1    4    4    0  503  0.15175156072E+03  0.18375129320E+03 -0.60617511002E+03  0.65133811338E+03  0.00000000000E+00 0. -1.
</event>
<event>
 8    1  0.7572579E-006  0.1066122E+04  0.7818608E-02  0.8732540E-01
         21   -1    0    0  503  502  0.00000000000E+00  0.00000000000E+00  0.11504864665E+04  0.11504864665E+04  0.00000000000E+00 0. -1.
         21   -1    0    0  501  503 -0.00000000000E+00 -0.00000000000E+00 -0.93599043980E+03  0.93599043980E+03  0.00000000000E+00 0. -1.
    9000010    2    1    2  501    0 -0.90010501946E+02  0.32296074469E+03  0.25275491518E+03  0.10196684713E+04  0.92921106923E+03 0.  0.
   -9000010    2    1    2    0  502  0.90010501946E+02 -0.32296074469E+03 -0.38258888441E+02  0.10668084350E+04  0.10120330832E+04 0.  0.
        -13    1    3    3    0    0  0.26384773483E+03  0.26609202037E+03  0.46959115525E+03  0.60077987211E+03  0.10566000000E+00 0.  1.
         13    1    4    4    0    0  0.35719608899E+03 -0.58875934945E+03 -0.41874036648E+02  0.68991308414E+03  0.10566000000E+00 0. -1.
          4    1    3    3  501    0 -0.35385823677E+03  0.56868724312E+02 -0.21683624007E+03  0.41888859921E+03  0.00000000000E+00 0.  1.
         -4    1    4    4    0  502 -0.26718558704E+03  0.26579860477E+03  0.36151482067E+01  0.37689535088E+03  0.00000000000E+00 0. -1.
</event>
<event>
 8    1  0.7572579E-006  0.1108013E+04  0.7818608E-02  0.8699107E-01
         21   -1    0    0  501  502  0.00000000000E+00  0.00000000000E+00  0.70736177129E+03  0.70736177129E+03  0.00000000000E+00 0. -1.
         21   -1    0    0  502  503 -0.00000000000E+00 -0.00000000000E+00 -0.18894475575E+04  0.18894475575E+04  0.00000000000E+00 0. -1.
    9000010    2    1    2  501    0  0.18668305180E+03  0.44477202173E+02 -0.57571538643E+02  0.10181312554E+04  0.99822241400E+03 0.  0.
   -9000010    2    1    2    0  503 -0.18668305180E+03 -0.44477202173E+02 -0.11245142475E+04  0.15786780734E+04  0.10912668707E+04 0.  0.
        -13    1    3    3    0    0 -0.26849044895E+03 -0.32597874020E+03  0.35996652713E+02  0.42384552659E+03  0.10566000000E+00 0.  1.
         13    1    4    4    0    0  0.29931719489E+02 -0.85502866394E+02  0.20861850062E+03  0.22743864658E+03  0.10566000000E+00 0. -1.
          4    1    3    3  501    0  0.45517350075E+03  0.37045594238E+03 -0.93568191356E+02  0.59428572881E+03  0.00000000000E+00 0.  1.
         -4    1    4    4    0  503 -0.21661477129E+03  0.41025664221E+02 -0.13331327481E+04  0.13512394268E+04  0.00000000000E+00 0. -1.
</event>
<event>
 8    1  0.7572579E-006  0.1068215E+04  0.7818608E-02  0.8731464E-01
         21   -1    0    0  503  502  0.00000000000E+00  0.00000000000E+00  0.13646856431E+04  0.13646856431E+04  0.00000000000E+00 0. -1.
         21   -1    0    0  501  503 -0.00000000000E+00 -0.00000000000E+00 -0.94868624001E+03  0.94868624001E+03  0.00000000000E+00 0. -1.
    9000010    2    1    2  501    0 -0.11134588997E+03 -0.20909715255E+03 -0.29548665196E+03  0.10299019914E+04  0.95774016518E+03 0.  0.
   -9000010    2    1    2    0  502  0.11134588997E+03  0.20909715255E+03  0.71148605502E+03  0.12834698917E+04  0.10416155864E+04 0.  0.
        -13    1    3    3    0    0 -0.45303071570E+03 -0.20518838158E+03 -0.43507866988E+03  0.66078178051E+03  0.10566000000E+00 0.  1.
         13    1    4    4    0    0 -0.50193637616E+02 -0.40585503446E+03  0.15116735152E+03  0.43599230449E+03  0.10566000000E+00 0. -1.
          4    1    3    3  501    0  0.34168482573E+03 -0.39087709712E+01  0.13959201792E+03  0.36912021089E+03  0.00000000000E+00 0.  1.
         -4    1    4    4    0  502  0.16153952759E+03  0.61495218700E+03  0.56031870350E+03  0.84747758718E+03  0.00000000000E+00 0. -1.
</event>
<event>
 8    1  0.7572579E-006  0.1032050E+04  0.7818608E-02  0.8745719E-01
         21   -1    0    0  501  502  0.00000000000E+00  0.00000000000E+00  0.25304070555E+04  0.25304070555E+04  0.00000000000E+00 0. -1.
         21   -1    0    0  502  503 -0.00000000000E+00 -0.00000000000E+00 -0.47915764093E+03  0.47915764093E+03  0.00000000000E+00 0. -1.
    9000010    2    1    2  501    0  0.23650760762E+03  0.14387470865E+00  0.15543078078E+04  0.18641046498E+04  0.10015375753E+04 0.  0.
   -9000010    2    1    2    0  503 -0.23650760762E+03 -0.14387470865E+00  0.49694160675E+03  0.11454600466E+04  0.10045854313E+04 0.  0.
        -13    1    3    3    0    0 -0.37433956876E+03 -0.12587221917E+03  0.47703556993E+03  0.61930353983E+03  0.10566000000E+00 0.  1.
         13    1    4    4    0    0  0.31126509866E+03  0.25963528801E+03  0.89741781686E+02  0.41515062684E+03  0.10566000000E+00 0. -1.
          4    1    3    3  501    0  0.61084717638E+03  0.12601609388E+03  0.10772722379E+04  0.12448011099E+04  0.00000000000E+00 0.  1.
         -4    1    4    4    0  503 -0.54777270628E+03 -0.25977916272E+03  0.40719982506E+03  0.73030941980E+03  0.00000000000E+00 0. -1.
</event>
<event>
 8    1  0.7572579E-006  0.1024220E+04  0.7818608E-02  0.8774946E-01
         21   -1    0    0  503  502  0.00000000000E+00  0.00000000000E+00  0.85323893726E+03  0.85323893726E+03  0.00000000000E+00 0.  1.
         21   -1    0    0  501  503 -0.00000000000E+00 -0.00000000000E+00 -0.11269964968E+04  0.11269964968E+04  0.00000000000E+00 0.  1.
    9000010    2    1    2  501    0 -0.13630242967E+03 -0.44095476928E+02 -0.23091685539E+03  0.10499283631E+04  0.10141519660E+04 0.  0.
   -9000010    2    1    2    0  502  0.13630242967E+03  0.44095476928E+02 -0.42840704154E+02  0.93030707094E+03  0.91821193462E+03 0.  0.
        -13    1    3    3    0    0 -0.46602552446E+03  0.17764464562E+03  0.12754082858E+03  0.51478547346E+03  0.10566000000E+00 0.  1.
         13    1    4    4    0    0 -0.36063154309E+03 -0.52048835467E+01 -0.19271624564E+03  0.40892757694E+03  0.10566000000E+00 0. -1.
          4    1    3    3  501    0  0.32972309478E+03 -0.22174012255E+03 -0.35845768397E+03  0.53514288968E+03  0.00000000000E+00 0.  1.
         -4    1    4    4    0  502  0.49693397276E+03  0.49300360475E+02  0.14987554149E+03  0.52137949400E+03  0.00000000000E+00 0. -1.
</event>
<event>
 8    1  0.7572579E-006  0.1073562E+04  0.7818608E-02  0.8712175E-01
         21   -1    0    0  501  502  0.00000000000E+00  0.00000000000E+00  0.79446456154E+03  0.79446456154E+03  0.00000000000E+00 0.  1.
         21   -1    0    0  502  503 -0.00000000000E+00 -0.00000000000E+00 -0.15138414187E+04  0.15138414187E+04  0.00000000000E+00 0.  1.
    9000010    2    1    2  501    0  0.51479660233E+02 -0.35178061979E+03 -0.63847258751E+03  0.12490726469E+04  0.10129834511E+04 0.  0.
   -9000010    2    1    2    0  503 -0.51479660233E+02  0.35178061979E+03 -0.80904269657E+02  0.10592333334E+04  0.99449987122E+03 0.  0.
        -13    1    3    3    0    0 -0.42496786679E+03  0.64962823059E+02 -0.17321217267E+03  0.46348713478E+03  0.10566000000E+00 0.  1.
         13    1    4    4    0    0 -0.99423912283E+02  0.68853067657E+03 -0.15116603092E+03  0.71190644538E+03  0.10566000000E+00 0. -1.
          4    1    3    3  501    0  0.47644752702E+03 -0.41674344285E+03 -0.46526041484E+03  0.78558551208E+03  0.00000000000E+00 0.  1.
         -4    1    4    4    0  503  0.47944252050E+02 -0.33675005677E+03  0.70261761265E+02  0.34732688801E+03  0.00000000000E+00 0. -1.
</event>
<event>
 8    1  0.7572579E-006  0.1120414E+04  0.7818608E-02  0.8672383E-01
         21   -1    0    0  503  502  0.00000000000E+00  0.00000000000E+00  0.77520871238E+03  0.77520871238E+03  0.00000000000E+00 0.  1.
         21   -1    0    0  501  503 -0.00000000000E+00 -0.00000000000E+00 -0.19151315207E+04  0.19151315207E+04  0.00000000000E+00 0.  1.
    9000010    2    1    2  501    0  0.19581012909E+03 -0.45077165560E+03 -0.24265776697E+02  0.11206763029E+04  0.10068713204E+04 0.  0.
   -9000010    2    1    2    0  502 -0.19581012909E+03  0.45077165560E+03 -0.11156570316E+04  0.15696639302E+04  0.98874544217E+03 0.  0.
        -13    1    3    3    0    0  0.39781606120E+03  0.19098188123E+03  0.48572498924E+02  0.44394931729E+03  0.10566000000E+00 0.  1.
         13    1    4    4    0    0 -0.21141500695E+03  0.27025106172E+03 -0.12799089381E+04  0.13251033328E+04  0.10566000000E+00 0. -1.
          4    1    3    3  501    0 -0.20200593211E+03 -0.64175353683E+03 -0.72838275622E+02  0.67672698559E+03  0.00000000000E+00 0.  1.
         -4    1    4    4    0  502  0.15604877855E+02  0.18052059388E+03  0.16425190649E+03  0.24456059742E+03  0.00000000000E+00 0. -1.
</event>
<event>
 8    1  0.7572579E-006  0.1073519E+04  0.7818608E-02  0.8715559E-01
         21   -1    0    0  503  502  0.00000000000E+00  0.00000000000E+00  0.92486903372E+03  0.92486903372E+03  0.00000000000E+00 0.  1.
         21   -1    0    0  501  503 -0.00000000000E+00 -0.00000000000E+00 -0.12938639099E+04  0.12938639099E+04  0.00000000000E+00 0.  1.
    9000010    2    1    2  501    0  0.96421553475E+02 -0.32454432710E+03 -0.47199003828E+03  0.11726963050E+04  0.10187324926E+04 0.  0.
   -9000010    2    1    2    0  502 -0.96421553475E+02  0.32454432710E+03  0.10299516206E+03  0.10460366386E+04  0.98435690159E+03 0.  0.
        -13    1    3    3    0    0  0.49620956671E+03 -0.42186206716E+03 -0.20748802054E+03  0.68355162763E+03  0.10566000000E+00 0.  1.
         13    1    4    4    0    0 -0.12270564142E+03  0.53259387135E+03  0.40366951667E+03  0.67945713338E+03  0.10566000000E+00 0. -1.
          4    1    3    3  501    0 -0.39978801323E+03  0.97317740066E+02 -0.26450201775E+03  0.48914467742E+03  0.00000000000E+00 0.  1.
         -4    1    4    4    0  502  0.26284087945E+02 -0.20804954426E+03 -0.30067435461E+03  0.36657950524E+03  0.00000000000E+00 0. -1.
</event>
<event>
 8    1  0.7572579E-006  0.1064595E+04  0.7818608E-02  0.8719229E-01
         21   -1    0    0  501  502  0.00000000000E+00  0.00000000000E+00  0.14875088791E+04  0.14875088791E+04  0.00000000000E+00 0.  1.
         21   -1    0    0  502  503 -0.00000000000E+00 -0.00000000000E+00 -0.11336987987E+04  0.11336987987E+04  0.00000000000E+00 0.  1.
    9000010    2    1    2  501    0  0.39354710664E+02  0.34546216639E+03  0.93821089118E+03  0.14190145651E+04  0.10062155624E+04 0.  0.
   -9000010    2    1    2    0  503 -0.39354710664E+02 -0.34546216639E+03 -0.58440081080E+03  0.12021931127E+04  0.99138845610E+03 0.  0.
        -13    1    3    3    0    0  0.47239776950E+03 -0.16141508147E+01  0.61942203561E+03  0.77900316269E+03  0.10566000000E+00 0.  1.
         13    1    4    4    0    0  0.31579160388E+03  0.14502882645E+03  0.18080047160E+02  0.34797212079E+03  0.10566000000E+00 0. -1.
          4    1    3    3  501    0 -0.43304305884E+03  0.34707631721E+03  0.31878885557E+03  0.64001140241E+03  0.00000000000E+00 0.  1.
         -4    1    4    4    0  503 -0.35514631454E+03 -0.49049099285E+03 -0.60248085796E+03  0.85422099190E+03  0.00000000000E+00 0. -1.
</event>
<event>
 8    1  0.7572579E-006  0.1013955E+04  0.7818608E-02  0.8765514E-01
         21   -1    0    0  501  502  0.00000000000E+00  0.00000000000E+00  0.84064609086E+03  0.84064609086E+03  0.00000000000E+00 0.  1.
         21   -1    0    0  502  503 -0.00000000000E+00 -0.00000000000E+00 -0.13049659158E+04  0.13049659158E+04  0.00000000000E+00 0.  1.
    9000010    2    1    2  501    0 -0.24504862325E+03 -0.14930502077E+02  0.66265053941E+02  0.10161183537E+04  0.98378539512E+03 0.  0.
   -9000010    2    1    2    0  503  0.24504862325E+03  0.14930502077E+02 -0.53058487892E+03  0.11294936530E+04  0.96641805178E+03 0.  0.
        -13    1    3    3    0    0  0.97959755379E+02 -0.31272384938E+03 -0.29096244626E+03  0.43823678068E+03  0.10566000000E+00 0.  1.
         13    1    4    4    0    0 -0.16050914689E+03  0.37261855786E+03 -0.55141180670E+02  0.40944882082E+03  0.10566000000E+00 0. -1.
          4    1    3    3  501    0 -0.34300837863E+03  0.29779334730E+03  0.35722750020E+03  0.57788157300E+03  0.00000000000E+00 0.  1.
         -4    1    4    4    0  503  0.40555777014E+03 -0.35768805579E+03 -0.47544369825E+03  0.72004483220E+03  0.00000000000E+00 0. -1.
</event>
<event>
 8    1  0.1123754E-005  0.1014383E+04  0.7818608E-02  0.8766202E-01
         21   -1    0    0  501  502  0.00000000000E+00  0.00000000000E+00  0.93744615622E+03  0.93744615622E+03  0.00000000000E+00 0. -1.
         21   -1    0    0  502  503 -0.00000000000E+00 -0.00000000000E+00 -0.12165577224E+04  0.12165577224E+04  0.00000000000E+00 0. -1.
    9000010    2    1    2  501    0  0.63543466877E+02  0.76593610984E+02  0.22971128010E+03  0.10191590029E+04  0.98793392871E+03 0.  0.
   -9000010    2    1    2    0  503 -0.63543466877E+02 -0.76593610984E+02 -0.50882284630E+03  0.11348448758E+04  0.10094889052E+04 0.  0.
        -13    1    3    3    0    0 -0.12251997891E+03  0.41796774948E+03 -0.16440407127E+03  0.46555009897E+03  0.10566000000E+00 0.  1.
         13    1    4    4    0    0 -0.77872760522E+02  0.33601182541E+03 -0.61805458170E+03  0.70778498908E+03  0.10566000000E+00 0. -1.
          4    1    3    3  501    0  0.18606344579E+03 -0.34137413849E+03  0.39411535137E+03  0.55360890390E+03  0.00000000000E+00 0.  1.
         -4    1    4    4    0  503  0.14329293645E+02 -0.41260543640E+03  0.10923173540E+03  0.42705988669E+03  0.00000000000E+00 0. -1.
</event>
<event>
 8    1  0.7572579E-006  0.1029245E+04  0.7818608E-02  0.8748163E-01
         21   -1    0    0  503  502  0.00000000000E+00  0.00000000000E+00  0.94030224007E+03  0.94030224007E+03  0.00000000000E+00 0. -1.
         21   -1    0    0  501  503 -0.00000000000E+00 -0.00000000000E+00 -0.13173770149E+04  0.13173770149E+04  0.00000000000E+00 0. -1.
    9000010    2    1    2  501    0 -0.26308015521E+02  0.18159110453E+03 -0.62101951446E+03  0.11999201312E+04  0.10101859448E+04 0.  0.
   -9000010    2    1    2    0  502  0.26308015521E+02 -0.18159110453E+03  0.24394473961E+03  0.10577591238E+04  0.10127575658E+04 0.  0.
        -13    1    3    3    0    0 -0.41007898862E+03  0.39809990430E+03 -0.44936744125E+03  0.72703467533E+03  0.10566000000E+00 0.  1.
         13    1    4    4    0    0 -0.24516940854E+03 -0.14111954132E+03 -0.32209477460E+03  0.42868148877E+03  0.10566000000E+00 0. -1.
          4    1    3    3  501    0  0.38377097309E+03 -0.21650879977E+03 -0.17165207320E+03  0.47288545590E+03  0.00000000000E+00 0.  1.
         -4    1    4    4    0  502  0.27147742406E+03 -0.40471563208E+02  0.56603951421E+03  0.62907763499E+03  0.00000000000E+00 0. -1.
</event>
<event>
 8    1  0.7572579E-006  0.1253021E+04  0.7818608E-02  0.8571228E-01
         21   -1    0    0  501  502  0.00000000000E+00  0.00000000000E+00  0.14601239270E+04  0.14601239270E+04  0.00000000000E+00 0.  1.
         21   -1    0    0  502  503 -0.00000000000E+00 -0.00000000000E+00 -0.13839773142E+04  0.13839773142E+04  0.00000000000E+00 0.  1.
    9000010    2    1    2  501    0  0.72466013302E+03  0.69734285212E+02  0.72799938030E+03  0.14491531414E+04  0.10198365313E+04 0.  0.
   -9000010    2    1    2    0  503 -0.72466013302E+03 -0.69734285212E+02 -0.65185276758E+03  0.13949480998E+04  0.99547626372E+03 0.  0.
        -13    1    3    3    0    0  0.39272656067E+03 -0.11796169658E+03  0.93089435529E+03  0.10172086439E+04  0.10566000000E+00 0.  1.
         13    1    4    4    0    0 -0.56538778089E+03  0.42326033449E+03 -0.29252394827E+03  0.76444942606E+03  0.10566000000E+00 0. -1.
          4    1    3    3  501    0  0.33193357235E+03  0.18769598179E+03 -0.20289497500E+03  0.43194449749E+03  0.00000000000E+00 0.  1.
         -4    1    4    4    0  503 -0.15927235213E+03 -0.49299461970E+03 -0.35932881931E+03  0.63049867375E+03  0.00000000000E+00 0. -1.
</event>
<event>
 8    1  0.7572579E-006  0.1182296E+04  0.7818608E-02  0.8624800E-01
         21   -1    0    0  501  502  0.00000000000E+00  0.00000000000E+00  0.14086588993E+04  0.14086588993E+04  0.00000000000E+00 0. -1.
         21   -1    0    0  502  503 -0.00000000000E+00 -0.00000000000E+00 -0.17310578323E+04  0.17310578323E+04  0.00000000000E+00 0. -1.
    9000010    2    1    2  501    0  0.33944113318E+03  0.51805361743E+03  0.87756650736E+03  0.14723950348E+04  0.10070870519E+04 0.  0.
   -9000010    2    1    2    0  503 -0.33944113318E+03 -0.51805361743E+03 -0.11999654404E+04  0.16673216968E+04  0.97797993283E+03 0.  0.
        -13    1    3    3    0    0  0.52983222725E+03 -0.78242262747E+02  0.54279990406E+03  0.76254559715E+03  0.10566000000E+00 0.  1.
         13    1    4    4    0    0  0.27228415110E+03  0.92257711269E+02 -0.22915109397E+03  0.36764164517E+03  0.10566000000E+00 0. -1.
          4    1    3    3  501    0 -0.19039109408E+03  0.59629588017E+03  0.33476660330E+03  0.70984943763E+03  0.00000000000E+00 0.  1.
         -4    1    4    4    0  503 -0.61172528428E+03 -0.61031132870E+03 -0.97081434644E+03  0.12996800516E+04  0.00000000000E+00 0. -1.
</event>
<event>
 8    1  0.7572579E-006  0.1108236E+04  0.7818608E-02  0.8681695E-01
         21   -1    0    0  503  502  0.00000000000E+00  0.00000000000E+00  0.17033466324E+04  0.17033466324E+04  0.00000000000E+00 0. -1.
         21   -1    0    0  501  503 -0.00000000000E+00 -0.00000000000E+00 -0.92444973790E+03  0.92444973790E+03  0.00000000000E+00 0.  1.
    9000010    2    1    2  501    0  0.26170473985E+03 -0.38361846487E+03 -0.23741368331E+03  0.11333804253E+04  0.10062472032E+04 0.  0.
   -9000010    2    1    2    0  502 -0.26170473985E+03  0.38361846487E+03  0.10163105778E+04  0.14944159450E+04  0.99234032904E+03 0.  0.
        -13    1    3    3    0    0  0.53881443814E+02  0.13350373955E+03 -0.49782345826E+03  0.51822260200E+03  0.10566000000E+00 0.  1.
         13    1    4    4    0    0 -0.62440817445E+03  0.16767609375E+03  0.44838553524E+03  0.78679758522E+03  0.10566000000E+00 0. -1.
          4    1    3    3  501    0  0.20782329604E+03 -0.51712220442E+03  0.26040977495E+03  0.61515782330E+03  0.00000000000E+00 0.  1.
         -4    1    4    4    0  502  0.36270343460E+03  0.21594237112E+03  0.56792504256E+03  0.70761835977E+03  0.00000000000E+00 0. -1.
</event>
<event>
 8    1  0.7572579E-006  0.1026708E+04  0.7818608E-02  0.8754764E-01
         21   -1    0    0  503  502  0.00000000000E+00  0.00000000000E+00  0.67525653749E+03  0.67525653749E+03  0.00000000000E+00 0. -1.
         21   -1    0    0  501  503 -0.00000000000E+00 -0.00000000000E+00 -0.15480313282E+04  0.15480313282E+04  0.00000000000E+00 0. -1.
    9000010    2    1    2  501    0  0.63973681891E+02  0.25329309060E+03 -0.55494856819E+03  0.11485125457E+04  0.97101139671E+03 0.  0.
   -9000010    2    1    2    0  502 -0.63973681891E+02 -0.25329309060E+03 -0.31782622248E+03  0.10747753200E+04  0.99291412468E+03 0.  0.
        -13    1    3    3    0    0 -0.41474023637E+03  0.30676003798E+03 -0.21461644782E+03  0.55872302208E+03  0.10566000000E+00 0.  1.
         13    1    4    4    0    0  0.44891540072E+03  0.78427939804E+01 -0.10460935360E+03  0.46100940819E+03  0.10566000000E+00 0. -1.
          4    1    3    3  501    0  0.47871391826E+03 -0.53466947383E+02 -0.34033212036E+03  0.58978952360E+03  0.00000000000E+00 0.  1.
         -4    1    4    4    0  502 -0.51288908261E+03 -0.26113588458E+03 -0.21321686888E+03  0.61376591177E+03  0.00000000000E+00 0. -1.
</event>
<event>
 8    1  0.7572579E-006  0.1065159E+04  0.7818608E-02  0.8715988E-01
         21   -1    0    0  503  502  0.00000000000E+00  0.00000000000E+00  0.99447665991E+03  0.99447665991E+03  0.00000000000E+00 0.  1.
         21   -1    0    0  501  503 -0.00000000000E+00 -0.00000000000E+00 -0.15686389165E+04  0.15686389165E+04  0.00000000000E+00 0.  1.
    9000010    2    1    2  501    0  0.34971992136E+03  0.55998389216E+02  0.38354188233E+03  0.11307187599E+04  0.10029858900E+04 0.  0.
   -9000010    2    1    2    0  502 -0.34971992136E+03 -0.55998389216E+02 -0.95770413893E+03  0.14323968165E+04  0.10045514318E+04 0.  0.
        -13    1    3    3    0    0  0.11117546626E+03  0.33799198717E+03  0.60368191960E+03  0.70073564124E+03  0.10566000000E+00 0.  1.
         13    1    4    4    0    0 -0.42040347931E+03  0.41215213108E+03 -0.47742023117E+03  0.75798321411E+03  0.10566000000E+00 0. -1.
          4    1    3    3  501    0  0.23854445510E+03 -0.28199359795E+03 -0.22014003727E+03  0.42998311868E+03  0.00000000000E+00 0.  1.
         -4    1    4    4    0  502  0.70683557953E+02 -0.46815052030E+03 -0.48028390776E+03  0.67441360238E+03  0.00000000000E+00 0. -1.
</event>
<event>
 8    1  0.7572579E-006  0.9962522E+03  0.7818608E-02  0.8779155E-01
         21   -1    0    0  501  502  0.00000000000E+00  0.00000000000E+00  0.11315956584E+04  0.11315956584E+04  0.00000000000E+00 0.  1.
         21   -1    0    0  502  503 -0.00000000000E+00 -0.00000000000E+00 -0.94768455382E+03  0.94768455382E+03  0.00000000000E+00 0.  1.
    9000010    2    1    2  501    0 -0.12298311076E+02 -0.49727664402E+02 -0.19922441180E+03  0.10159768229E+04  0.99493439448E+03 0.  0.
   -9000010    2    1    2    0  503  0.12298311076E+02  0.49727664402E+02  0.38313551638E+03  0.10633033893E+04  0.99055397874E+03 0.  0.
        -13    1    3    3    0    0  0.45303230167E+03 -0.94487511453E+02 -0.28098218970E+03  0.54140295370E+03  0.10566000000E+00 0.  1.
         13    1    4    4    0    0 -0.62126840494E+02  0.30819655514E+03  0.62625320950E+03  0.70074100385E+03  0.10566000000E+00 0. -1.
          4    1    3    3  501    0 -0.46533061275E+03  0.44759847050E+02  0.81757777895E+02  0.47457386919E+03  0.00000000000E+00 0.  1.
         -4    1    4    4    0  503  0.74425151570E+02 -0.25846889074E+03 -0.24311769311E+03  0.36256238549E+03  0.00000000000E+00 0. -1.
</event>
<event>
 8    1  0.7572579E-006  0.1146236E+04  0.7818608E-02  0.8651065E-01
         21   -1    0    0  503  502  0.00000000000E+00  0.00000000000E+00  0.17933937193E+04  0.17933937193E+04  0.00000000000E+00 0. -1.
         21   -1    0    0  501  503 -0.00000000000E+00 -0.00000000000E+00 -0.83955388736E+03  0.83955388736E+03  0.00000000000E+00 0. -1.
    9000010    2    1    2  501    0  0.23112231344E+03 -0.50615242615E+03 -0.15222160411E+02  0.11319682989E+04  0.98565344476E+03 0.  0.
   -9000010    2    1    2    0  502 -0.23112231344E+03  0.50615242615E+03  0.96906199236E+03  0.15009793078E+04  0.10021227146E+04 0.  0.
        -13    1    3    3    0    0  0.55067318499E+03 -0.31138770840E+03  0.24258618389E+03  0.67753326810E+03  0.10566000000E+00 0.  1.
         13    1    4    4    0    0 -0.39117125415E+03 -0.15396170821E+03  0.58593688510E+03  0.72113882308E+03  0.10566000000E+00 0. -1.
          4    1    3    3  501    0 -0.31955087155E+03 -0.19476471775E+03 -0.25780834430E+03  0.45443503075E+03  0.00000000000E+00 0.  1.
         -4    1    4    4    0  502  0.16004894071E+03  0.66011413436E+03  0.38312510726E+03  0.77984048472E+03  0.00000000000E+00 0. -1.
</event>
<event>
 8    1  0.7572579E-006  0.1059358E+04  0.7818608E-02  0.8726290E-01
         21   -1    0    0  503  502  0.00000000000E+00  0.00000000000E+00  0.12467318911E+04  0.12467318911E+04  0.00000000000E+00 0. -1.
         21   -1    0    0  501  503 -0.00000000000E+00 -0.00000000000E+00 -0.90377038261E+03  0.90377038261E+03  0.00000000000E+00 0. -1.
    9000010    2    1    2  501    0 -0.27468122784E+03 -0.17171034655E+03 -0.85419628869E+01  0.10343508469E+04  0.98228024994E+03 0.  0.
   -9000010    2    1    2    0  502  0.27468122784E+03  0.17171034655E+03  0.35150347138E+03  0.11161514268E+04  0.10086154357E+04 0.  0.
        -13    1    3    3    0    0 -0.49964136426E+03 -0.40311778968E+03  0.17189793267E+03  0.66460089952E+03  0.10566000000E+00 0.  1.
         13    1    4    4    0    0  0.63389125693E+03  0.73309485476E+02  0.37987428378E+03  0.74262836528E+03  0.10566000000E+00 0. -1.
          4    1    3    3  501    0  0.22496013642E+03  0.23140744313E+03 -0.18043989556E+03  0.36974994742E+03  0.00000000000E+00 0.  1.
         -4    1    4    4    0  502 -0.35921002910E+03  0.98400861073E+02 -0.28370812406E+02  0.37352306148E+03  0.00000000000E+00 0. -1.
</event>
<event>
 8    1  0.7572579E-006  0.1137943E+04  0.7818608E-02  0.8669038E-01
         21   -1    0    0  501  502  0.00000000000E+00  0.00000000000E+00  0.20729717117E+04  0.20729717117E+04  0.00000000000E+00 0.  1.
         21   -1    0    0  502  503 -0.00000000000E+00 -0.00000000000E+00 -0.83049526348E+03  0.83049526348E+03  0.00000000000E+00 0.  1.
    9000010    2    1    2  501    0  0.36298918827E+03  0.14725796384E+03  0.14197207302E+04  0.18194835569E+04  0.10683947788E+04 0.  0.
   -9000010    2    1    2    0  503 -0.36298918827E+03 -0.14725796384E+03 -0.17724428205E+03  0.10839834182E+04  0.99506706142E+03 0.  0.
        -13    1    3    3    0    0 -0.18226715091E+03 -0.31523681396E+03  0.22767406608E+03  0.42945436860E+03  0.10566000000E+00 0.  1.
         13    1    4    4    0    0 -0.41791446535E+03 -0.49400201916E+03 -0.29845953252E+03  0.71257883705E+03  0.10566000000E+00 0. -1.
          4    1    3    3  501    0  0.54525633918E+03  0.46249477780E+03  0.11920466642E+04  0.13900291883E+04  0.00000000000E+00 0.  1.
         -4    1    4    4    0  503  0.54925277082E+02  0.34674405532E+03  0.12121525048E+03  0.37140458117E+03  0.00000000000E+00 0. -1.
</event>
<event>
 8    1  0.7572579E-006  0.1067218E+04  0.7818608E-02  0.8740568E-01
         21   -1    0    0  501  502  0.00000000000E+00  0.00000000000E+00  0.11811352476E+04  0.11811352476E+04  0.00000000000E+00 0. -1.
         21   -1    0    0  502  503 -0.00000000000E+00 -0.00000000000E+00 -0.92366107321E+03  0.92366107321E+03  0.00000000000E+00 0. -1.
    9000010    2    1    2  501    0 -0.27788520800E+03 -0.22982300570E+03  0.40598223543E+03  0.11418301728E+04  0.10044479903E+04 0.  0.
   -9000010    2    1    2    0  503  0.27788520800E+03  0.22982300570E+03 -0.14850806104E+03  0.96296614800E+03  0.88046030872E+03 0.  0.
        -13    1    3    3    0    0 -0.27178071969E+03  0.31334759387E+03  0.43083711173E+03  0.59805693892E+03  0.10566000000E+00 0.  1.
         13    1    4    4    0    0  0.58003267245E+03  0.34191722717E+02 -0.16055336482E+03  0.60281371014E+03  0.10566000000E+00 0. -1.
          4    1    3    3  501    0 -0.61044883141E+01 -0.54317059957E+03 -0.24854876309E+02  0.54377323389E+03  0.00000000000E+00 0.  1.
         -4    1    4    4    0  503 -0.30214746445E+03  0.19563128298E+03  0.12045303776E+02  0.36015243786E+03  0.00000000000E+00 0. -1.
</event>
<event>
 8    1  0.7572579E-006  0.1282083E+04  0.7818608E-02  0.8548832E-01
         21   -1    0    0  503  502  0.00000000000E+00  0.00000000000E+00  0.12784833799E+04  0.12784833799E+04  0.00000000000E+00 0.  1.
         21   -1    0    0  501  503 -0.00000000000E+00 -0.00000000000E+00 -0.15969949192E+04  0.15969949192E+04  0.00000000000E+00 0.  1.
    9000010    2    1    2  501    0  0.14676651172E+02 -0.80554738730E+03 -0.80403330700E+03  0.15133424777E+04  0.99730331340E+03 0.  0.
   -9000010    2    1    2    0  502 -0.14676651172E+02  0.80554738730E+03  0.48552176773E+03  0.13621358213E+04  0.98517034646E+03 0.  0.
        -13    1    3    3    0    0  0.36132690229E+03 -0.76502202389E+03 -0.79987129386E+03  0.11643066285E+04  0.10566000000E+00 0.  1.
         13    1    4    4    0    0  0.16050881723E+03  0.77274253986E+03  0.71952039726E+03  0.10679905086E+04  0.10566000000E+00 0. -1.
          4    1    3    3  501    0 -0.34665025112E+03 -0.40525363412E+02 -0.41620131387E+01  0.34903584921E+03  0.00000000000E+00 0.  1.
         -4    1    4    4    0  502 -0.17518546840E+03  0.32804847441E+02 -0.23399862953E+03  0.29414531269E+03  0.00000000000E+00 0. -1.
</event>
<event>
 8    1  0.7572579E-006  0.1090135E+04  0.7818608E-02  0.8702465E-01
         21   -1    0    0  501  502  0.00000000000E+00  0.00000000000E+00  0.92645299073E+03  0.92645299073E+03  0.00000000000E+00 0. -1.
         21   -1    0    0  502  503 -0.00000000000E+00 -0.00000000000E+00 -0.14883942207E+04  0.14883942207E+04  0.00000000000E+00 0. -1.
    9000010    2    1    2  501    0  0.21868225146E+03  0.28391601969E+03 -0.78013460677E+03  0.13405236260E+04  0.10295452170E+04 0.  0.
   -9000010    2    1    2    0  503 -0.21868225146E+03 -0.28391601969E+03  0.21819337680E+03  0.10743235854E+04  0.98900585596E+03 0.  0.
        -13    1    3    3    0    0  0.52986725620E+03 -0.15219159389E+03 -0.44608510632E+03  0.70916396107E+03  0.10566000000E+00 0.  1.
         13    1    4    4    0    0  0.36319252248E+03  0.69650439922E+02  0.51871060586E+02  0.37343086409E+03  0.10566000000E+00 0. -1.
          4    1    3    3  501    0 -0.31118500474E+03  0.43610761358E+03 -0.33404950046E+03  0.63135966497E+03  0.00000000000E+00 0.  1.
         -4    1    4    4    0  503 -0.58187477394E+03 -0.35356645961E+03  0.16632231622E+03  0.70089272131E+03  0.00000000000E+00 0. -1.
</event>
<event>
 8    1  0.7572579E-006  0.1010961E+04  0.7818608E-02  0.8767662E-01
         21   -1    0    0  503  502  0.00000000000E+00  0.00000000000E+00  0.24044501305E+04  0.24044501305E+04  0.00000000000E+00 0.  1.
         21   -1    0    0  501  503 -0.00000000000E+00 -0.00000000000E+00 -0.52428748182E+03  0.52428748182E+03  0.00000000000E+00 0.  1.
    9000010    2    1    2  501    0  0.15973386918E+03 -0.11792243332E+02  0.16011523288E+04  0.18936024423E+04  0.99819209747E+03 0.  0.
   -9000010    2    1    2    0  502 -0.15973386918E+03  0.11792243332E+02  0.27901031988E+03  0.10351351700E+04  0.98387199149E+03 0.  0.
        -13    1    3    3    0    0 -0.36095544377E+03  0.16051052167E+03  0.10233353312E+04  0.10969355821E+04  0.10566000000E+00 0.  1.
         13    1    4    4    0    0 -0.20777526346E+03  0.23433783682E+02 -0.34810488369E+03  0.40607477580E+03  0.10566000000E+00 0. -1.
          4    1    3    3  501    0  0.52068931295E+03 -0.17230276500E+03  0.57781699754E+03  0.79666686017E+03  0.00000000000E+00 0.  1.
         -4    1    4    4    0  502  0.48041394283E+02 -0.11641540350E+02  0.62711520357E+03  0.62906039422E+03  0.00000000000E+00 0. -1.
</event>
<event>
 8    1  0.7572579E-006  0.1027598E+04  0.7818608E-02  0.8752896E-01
         21   -1    0    0  503  502  0.00000000000E+00  0.00000000000E+00  0.14524859798E+04  0.14524859798E+04  0.00000000000E+00 0.  1.
         21   -1    0    0  501  503 -0.00000000000E+00 -0.00000000000E+00 -0.74602759605E+03  0.74602759605E+03  0.00000000000E+00 0.  1.
    9000010    2    1    2  501    0  0.18221679626E+03 -0.15363237044E+03  0.57912161838E+03  0.11795504742E+04  0.99957571314E+03 0.  0.
   -9000010    2    1    2    0  502 -0.18221679626E+03  0.15363237044E+03  0.12733676537E+03  0.10189631016E+04  0.98247915224E+03 0.  0.
        -13    1    3    3    0    0  0.48719743569E+03 -0.36655441507E+03  0.52322169356E+03  0.80342045799E+03  0.10566000000E+00 0.  1.
         13    1    4    4    0    0 -0.38837803113E+03 -0.18035063328E+03 -0.23183197199E+03  0.48693933954E+03  0.10566000000E+00 0. -1.
          4    1    3    3  501    0 -0.30498063944E+03  0.21292204463E+03  0.55899924828E+02  0.37613001624E+03  0.00000000000E+00 0.  1.
         -4    1    4    4    0  502  0.20616123487E+03  0.33398300372E+03  0.35916873736E+03  0.53202376209E+03  0.00000000000E+00 0. -1.
</event>
<event>
 8    1  0.7572579E-006  0.1093322E+04  0.7818608E-02  0.8694581E-01
         21   -1    0    0  501  502  0.00000000000E+00  0.00000000000E+00  0.13461299965E+04  0.13461299965E+04  0.00000000000E+00 0. -1.
         21   -1    0    0  502  503 -0.00000000000E+00 -0.00000000000E+00 -0.97805860147E+03  0.97805860147E+03  0.00000000000E+00 0. -1.
    9000010    2    1    2  501    0 -0.29510615157E+03 -0.26035810814E+03  0.55979646659E+03  0.12283017639E+04  0.10200388003E+04 0.  0.
   -9000010    2    1    2    0  503  0.29510615157E+03  0.26035810814E+03 -0.19172507156E+03  0.10958868340E+04  0.10046568891E+04 0.  0.
        -13    1    3    3    0    0 -0.46889470397E+02 -0.59636620601E+03  0.99019633075E+02  0.60634657829E+03  0.10566000000E+00 0.  1.
         13    1    4    4    0    0 -0.32648456227E+03  0.11142677032E+03  0.14408826775E+03  0.37385763950E+03  0.10566000000E+00 0. -1.
          4    1    3    3  501    0 -0.24821668117E+03  0.33600809788E+03  0.46077683351E+03  0.62195518565E+03  0.00000000000E+00 0.  1.
         -4    1    4    4    0  503  0.62159071384E+03  0.14893133782E+03 -0.33581333930E+03  0.72202919454E+03  0.00000000000E+00 0. -1.
</event>
<event>
 8    1  0.7572579E-006  0.1024431E+04  0.7818608E-02  0.8756536E-01
         21   -1    0    0  503  502  0.00000000000E+00  0.00000000000E+00  0.27212560782E+04  0.27212560782E+04  0.00000000000E+00 0.  1.
         21   -1    0    0  501  503 -0.00000000000E+00 -0.00000000000E+00 -0.38791110529E+03  0.38791110529E+03  0.00000000000E+00 0.  1.
    9000010    2    1    2  501    0  0.20318941579E+01  0.20445638418E+01  0.93220346226E+03  0.13850857122E+04  0.10244270722E+04 0.  0.
   -9000010    2    1    2    0  502 -0.20318941579E+01 -0.20445638418E+01  0.14011415106E+04  0.17240814712E+04  0.10046148903E+04 0.  0.
        -13    1    3    3    0    0  0.19088539608E+03  0.35112362962E+03  0.90256428034E+03  0.98709033478E+03  0.10566000000E+00 0.  1.
         13    1    4    4    0    0  0.12786397115E+03  0.48359756946E+03  0.74880343435E+03  0.90051229795E+03  0.10566000000E+00 0. -1.
          4    1    3    3  501    0 -0.18885350192E+03 -0.34907906578E+03  0.29639181923E+02  0.39799537743E+03  0.00000000000E+00 0.  1.
         -4    1    4    4    0  502 -0.12989586531E+03 -0.48564213330E+03  0.65233807626E+03  0.82356917329E+03  0.00000000000E+00 0. -1.
</event>
<event>
 8    1  0.7572579E-006  0.1044777E+04  0.7818608E-02  0.8735850E-01
         21   -1    0    0  503  502  0.00000000000E+00  0.00000000000E+00  0.82874986700E+03  0.82874986700E+03  0.00000000000E+00 0.  1.
         21   -1    0    0  501  503 -0.00000000000E+00 -0.00000000000E+00 -0.23532199931E+04  0.23532199931E+04  0.00000000000E+00 0.  1.
    9000010    2    1    2  501    0  0.29117199664E+03 -0.82728395815E+02 -0.18222565896E+04  0.20955828710E+04  0.98955715948E+03 0.  0.
   -9000010    2    1    2    0  502 -0.29117199664E+03  0.82728395815E+02  0.29778646355E+03  0.10863869890E+04  0.99996739595E+03 0.  0.
        -13    1    3    3    0    0  0.55820350268E+03  0.23908623334E+03 -0.93761474674E+03  0.11170831669E+04  0.10566000000E+00 0.  1.
         13    1    4    4    0    0  0.38939294743E+02  0.21906763162E+03  0.58639923586E+03  0.62719292956E+03  0.10566000000E+00 0. -1.
          4    1    3    3  501    0 -0.26703150604E+03 -0.32181462916E+03 -0.88464184288E+03  0.97849970411E+03  0.00000000000E+00 0.  1.
         -4    1    4    4    0  502 -0.33011129138E+03 -0.13633923580E+03 -0.28861277231E+03  0.45919405948E+03  0.00000000000E+00 0. -1.
</event>
<event>
 8    1  0.7572579E-006  0.1019527E+04  0.7818608E-02  0.8770631E-01
         21   -1    0    0  501  502  0.00000000000E+00  0.00000000000E+00  0.14809516409E+04  0.14809516409E+04  0.00000000000E+00 0. -1.
         21   -1    0    0  502  503 -0.00000000000E+00 -0.00000000000E+00 -0.67323370839E+03  0.67323370839E+03  0.00000000000E+00 0. -1.
    9000010    2    1    2  501    0 -0.12844183720E+03  0.17251697893E+03  0.24839406494E+03  0.99130998694E+03  0.93527347078E+03 0.  0.
   -9000010    2    1    2    0  503  0.12844183720E+03 -0.17251697893E+03  0.55932386759E+03  0.11628753624E+04  0.99658241304E+03 0.  0.
        -13    1    3    3    0    0  0.31782312974E+03 -0.11872548526E+03  0.30396986374E+03  0.45552713626E+03  0.10566000000E+00 0.  1.
         13    1    4    4    0    0  0.29616115525E+03  0.27424187943E+03 -0.29793019788E+02  0.40473160676E+03  0.10566000000E+00 0. -1.
          4    1    3    3  501    0 -0.44626496694E+03  0.29124246418E+03 -0.55575798799E+02  0.53578285068E+03  0.00000000000E+00 0.  1.
         -4    1    4    4    0  503 -0.16771931805E+03 -0.44675885836E+03  0.58911688738E+03  0.75814375561E+03  0.00000000000E+00 0. -1.
</event>
<event>
 8    1  0.7572579E-006  0.1034870E+04  0.7818608E-02  0.8743115E-01
         21   -1    0    0  503  502  0.00000000000E+00  0.00000000000E+00  0.11468902210E+04  0.11468902210E+04  0.00000000000E+00 0. -1.
         21   -1    0    0  501  503 -0.00000000000E+00 -0.00000000000E+00 -0.10205360912E+04  0.10205360912E+04  0.00000000000E+00 0. -1.
    9000010    2    1    2  501    0 -0.22047157893E+03  0.13155230834E+02 -0.25713538912E+03  0.10663372549E+04  0.10110270796E+04 0.  0.
   -9000010    2    1    2    0  502  0.22047157893E+03 -0.13155230834E+02  0.38348951889E+03  0.11010890573E+04  0.10082420958E+04 0.  0.
        -13    1    3    3    0    0  0.11479250700E+03  0.42829932214E+03 -0.29306615767E+03  0.53151238268E+03  0.10566000000E+00 0.  1.
         13    1    4    4    0    0 -0.17062971755E+03  0.41157637078E+03  0.24035260298E+03  0.50624005611E+03  0.10566000000E+00 0. -1.
          4    1    3    3  501    0 -0.33526408592E+03 -0.41514409131E+03  0.35930768552E+02  0.53482487226E+03  0.00000000000E+00 0.  1.
         -4    1    4    4    0  502  0.39110129647E+03 -0.42473160161E+03  0.14313691591E+03  0.59484900118E+03  0.00000000000E+00 0. -1.
</event>
<event>
 8    1  0.7572579E-006  0.1037276E+04  0.7818608E-02  0.8742711E-01
         21   -1    0    0  501  502  0.00000000000E+00  0.00000000000E+00  0.14527356413E+04  0.14527356413E+04  0.00000000000E+00 0. -1.
         21   -1    0    0  502  503 -0.00000000000E+00 -0.00000000000E+00 -0.11103562273E+04  0.11103562273E+04  0.00000000000E+00 0. -1.
    9000010    2    1    2  501    0  0.32569035872E+02  0.20283194276E+03  0.91756593302E+03  0.13770140710E+04  0.10060014768E+04 0.  0.
   -9000010    2    1    2    0  503 -0.32569035872E+02 -0.20283194276E+03 -0.57518651902E+03  0.11860777976E+04  0.10167297926E+04 0.  0.
        -13    1    3    3    0    0  0.27493070231E+03 -0.33239389550E+03  0.30549958829E+03  0.52858547317E+03  0.10566000000E+00 0.  1.
         13    1    4    4    0    0  0.31816340228E+03 -0.45774586378E+03 -0.14657874946E+03  0.57640659895E+03  0.10566000000E+00 0. -1.
          4    1    3    3  501    0 -0.24236166644E+03  0.53522583826E+03  0.61206634474E+03  0.84842859786E+03  0.00000000000E+00 0.  1.
         -4    1    4    4    0  503 -0.35073243815E+03  0.25491392102E+03 -0.42860776955E+03  0.60967119862E+03  0.00000000000E+00 0. -1.
</event>
<event>
 8    1  0.7572579E-006  0.1030973E+04  0.7818608E-02  0.8750030E-01
         21   -1    0    0  503  502  0.00000000000E+00  0.00000000000E+00  0.11960405932E+04  0.11960405932E+04  0.00000000000E+00 0. -1.
         21   -1    0    0  501  503 -0.00000000000E+00 -0.00000000000E+00 -0.89630654411E+03  0.89630654411E+03  0.00000000000E+00 0. -1.
    9000010    2    1    2  501    0  0.86928332154E+02 -0.44802086270E+02 -0.17788425706E+02  0.10135860917E+04  0.10087004388E+04 0.  0.
   -9000010    2    1    2    0  502 -0.86928332154E+02  0.44802086270E+02  0.31752247477E+03  0.10787610456E+04  0.10263240763E+04 0.  0.
        -13    1    3    3    0    0  0.44624627085E+03  0.20582359536E+03 -0.21096687438E+03  0.53479540004E+03  0.10566000000E+00 0.  1.
         13    1    4    4    0    0  0.32308504155E+03 -0.32320916941E+03  0.25750511770E+03  0.52455410405E+03  0.10566000000E+00 0. -1.
          4    1    3    3  501    0 -0.35931793870E+03 -0.25062568162E+03  0.19317844867E+03  0.47879069163E+03  0.00000000000E+00 0.  1.
         -4    1    4    4    0  502 -0.41001337371E+03  0.36801125568E+03  0.60017357071E+02  0.55420694156E+03  0.00000000000E+00 0. -1.
</event>
<event>
 8    1  0.7572579E-006  0.1163069E+04  0.7818608E-02  0.8636007E-01
         21   -1    0    0  501  502  0.00000000000E+00  0.00000000000E+00  0.13595462960E+04  0.13595462960E+04  0.00000000000E+00 0.  1.
         21   -1    0    0  502  503 -0.00000000000E+00 -0.00000000000E+00 -0.10568853338E+04  0.10568853338E+04  0.00000000000E+00 0.  1.
    9000010    2    1    2  501    0 -0.10078411388E+03  0.59610344937E+03  0.45452899570E+03  0.12434890713E+04  0.98700136913E+03 0.  0.
   -9000010    2    1    2    0  503  0.10078411388E+03 -0.59610344937E+03 -0.15186803350E+03  0.11729425585E+04  0.99359628929E+03 0.  0.
        -13    1    3    3    0    0 -0.10364182441E+03 -0.21310284882E+03  0.35690454464E+03  0.42841022057E+03  0.10566000000E+00 0.  1.
         13    1    4    4    0    0 -0.14248821556E+03  0.19207559448E+03  0.16365134001E+03  0.28978905745E+03  0.10566000000E+00 0. -1.
          4    1    3    3  501    0  0.28577105318E+01  0.80920629818E+03  0.97624451058E+02  0.81507885077E+03  0.00000000000E+00 0.  1.
         -4    1    4    4    0  503  0.24327232944E+03 -0.78817904385E+03 -0.31551937351E+03  0.88315350109E+03  0.00000000000E+00 0. -1.
</event>
<event>
 8    1  0.7572579E-006  0.1124106E+04  0.7818608E-02  0.8666696E-01
         21   -1    0    0  501  502  0.00000000000E+00  0.00000000000E+00  0.22139129508E+04  0.22139129508E+04  0.00000000000E+00 0. -1.
         21   -1    0    0  502  503 -0.00000000000E+00 -0.00000000000E+00 -0.10923155685E+04  0.10923155685E+04  0.00000000000E+00 0. -1.
    9000010    2    1    2  501    0 -0.48840227229E+03 -0.14684335510E+02  0.17045132843E+04  0.20399722721E+04  0.10086470767E+04 0.  0.
   -9000010    2    1    2    0  503  0.48840227229E+03  0.14684335510E+02 -0.58291590206E+03  0.12662562472E+04  0.10123544465E+04 0.  0.
        -13    1    3    3    0    0 -0.65073157460E+03 -0.35488772980E+03  0.11943741748E+04  0.14056765501E+04  0.10566000000E+00 0.  1.
         13    1    4    4    0    0  0.34308837826E+03  0.28757740672E+03 -0.78019352074E+03  0.89950672100E+03  0.10566000000E+00 0. -1.
          4    1    3    3  501    0  0.16232930231E+03  0.34020339429E+03  0.51013910954E+03  0.63429572201E+03  0.00000000000E+00 0.  1.
         -4    1    4    4    0  503  0.14531389403E+03 -0.27289307121E+03  0.19727761868E+03  0.36674952617E+03  0.00000000000E+00 0. -1.
</event>
<event>
 8    1  0.7572579E-006  0.1065515E+04  0.7818608E-02  0.8715874E-01
         21   -1    0    0  501  502  0.00000000000E+00  0.00000000000E+00  0.80526478553E+03  0.80526478553E+03  0.00000000000E+00 0.  1.
         21   -1    0    0  502  503 -0.00000000000E+00 -0.00000000000E+00 -0.18168270734E+04  0.18168270734E+04  0.00000000000E+00 0.  1.
    9000010    2    1    2  501    0  0.17068863909E+03 -0.34590220609E+03  0.11665891706E+03  0.10718819936E+04  0.99324657441E+03 0.  0.
   -9000010    2    1    2    0  503 -0.17068863909E+03  0.34590220609E+03 -0.11282212049E+04  0.15502098653E+04  0.99069904190E+03 0.  0.
        -13    1    3    3    0    0  0.23652911512E+03 -0.52722349692E+03  0.41862885243E+03  0.71355501908E+03  0.10566000000E+00 0.  1.
         13    1    4    4    0    0 -0.42508909450E+03 -0.18298960994E+03 -0.62112907142E+03  0.77458845211E+03  0.10566000000E+00 0. -1.
          4    1    3    3  501    0 -0.65840476032E+02  0.18132129083E+03 -0.30196993537E+03  0.35832697451E+03  0.00000000000E+00 0.  1.
         -4    1    4    4    0  503  0.25440045541E+03  0.52889181603E+03 -0.50709213346E+03  0.77562141319E+03  0.00000000000E+00 0. -1.
</event>
<event>
 8    1  0.7572579E-006  0.1001729E+04  0.7818608E-02  0.8782721E-01
         21   -1    0    0  503  502  0.00000000000E+00  0.00000000000E+00  0.22010304201E+04  0.22010304201E+04  0.00000000000E+00 0.  1.
         21   -1    0    0  501  503 -0.00000000000E+00 -0.00000000000E+00 -0.44294221314E+03  0.44294221314E+03  0.00000000000E+00 0.  1.
    9000010    2    1    2  501    0 -0.10211713643E+03  0.75494013193E+02  0.10426765895E+04  0.14459026684E+04  0.99364621508E+03 0.  0.
   -9000010    2    1    2    0  502  0.10211713643E+03 -0.75494013193E+02  0.71541161753E+03  0.11980699649E+04  0.95259151928E+03 0.  0.
        -13    1    3    3    0    0  0.69813795558E+02  0.43695280881E+03  0.14937819995E+03  0.46702845840E+03  0.10566000000E+00 0.  1.
         13    1    4    4    0    0  0.31944393666E+03 -0.43467667084E+03  0.43823330910E+03  0.69500840369E+03  0.10566000000E+00 0. -1.
          4    1    3    3  501    0 -0.17193093199E+03 -0.36145879562E+03  0.89329838953E+03  0.97887421002E+03  0.00000000000E+00 0.  1.
         -4    1    4    4    0  502 -0.21732680023E+03  0.35918265764E+03  0.27717830843E+03  0.50306156116E+03  0.00000000000E+00 0. -1.
</event>
<event>
 8    1  0.7572579E-006  0.1006195E+04  0.7818608E-02  0.8768806E-01
         21   -1    0    0  503  502  0.00000000000E+00  0.00000000000E+00  0.99563676637E+03  0.99563676637E+03  0.00000000000E+00 0.  1.
         21   -1    0    0  501  503 -0.00000000000E+00 -0.00000000000E+00 -0.10299139171E+04  0.10299139171E+04  0.00000000000E+00 0.  1.
    9000010    2    1    2  501    0  0.91529567775E+01  0.16222363733E+02 -0.13138838988E+03  0.10146802194E+04  0.10059652563E+04 0.  0.
   -9000010    2    1    2    0  502 -0.91529567775E+01 -0.16222363733E+02  0.97111239193E+02  0.10108704640E+04  0.10060226442E+04 0.  0.
        -13    1    3    3    0    0 -0.44810991919E+03  0.72091880663E+02 -0.27679189430E+03  0.53161405441E+03  0.10566000000E+00 0.  1.
         13    1    4    4    0    0  0.46500950038E+03 -0.37747013694E+02 -0.13052896198E+03  0.48445484162E+03  0.10566000000E+00 0. -1.
          4    1    3    3  501    0  0.45726287597E+03 -0.55869516930E+02  0.14540350442E+03  0.48306616499E+03  0.00000000000E+00 0.  1.
         -4    1    4    4    0  502 -0.47416245716E+03  0.21524649961E+02  0.22764020117E+03  0.52641562242E+03  0.00000000000E+00 0. -1.
</event>
<event>
 8    1  0.7572579E-006  0.1108325E+04  0.7818608E-02  0.8682329E-01
         21   -1    0    0  501  502  0.00000000000E+00  0.00000000000E+00  0.11962722803E+04  0.11962722803E+04  0.00000000000E+00 0.  1.
         21   -1    0    0  502  503 -0.00000000000E+00 -0.00000000000E+00 -0.12752536693E+04  0.12752536693E+04  0.00000000000E+00 0.  1.
    9000010    2    1    2  501    0 -0.43395448518E+03 -0.17365146522E+03 -0.60107674809E+03  0.12608238601E+04  0.10049438903E+04 0.  0.
   -9000010    2    1    2    0  503  0.43395448518E+03  0.17365146522E+03  0.52209535911E+03  0.12107020895E+04  0.98729157749E+03 0.  0.
        -13    1    3    3    0    0 -0.65947165332E+03  0.98984589305E+00 -0.76734715267E+02  0.66392173411E+03  0.10566000000E+00 0.  1.
         13    1    4    4    0    0  0.42161840410E+03 -0.35854180837E+03  0.33225197242E+03  0.64552745206E+03  0.10566000000E+00 0. -1.
          4    1    3    3  501    0  0.22551716814E+03 -0.17464131112E+03 -0.52434203283E+03  0.59690212603E+03  0.00000000000E+00 0.  1.
         -4    1    4    4    0  503  0.12336081080E+02  0.53219327359E+03  0.18984338669E+03  0.56517463746E+03  0.00000000000E+00 0. -1.
</event>
<event>
 8    1  0.7572579E-006  0.1039125E+04  0.7818608E-02  0.8745835E-01
         21   -1    0    0  501  502  0.00000000000E+00  0.00000000000E+00  0.81262376193E+03  0.81262376193E+03  0.00000000000E+00 0. -1.
         21   -1    0    0  502  503 -0.00000000000E+00 -0.00000000000E+00 -0.13975930521E+04  0.13975930521E+04  0.00000000000E+00 0. -1.
    9000010    2    1    2  501    0 -0.72381251509E+01 -0.11994246714E+03  0.19829633229E+02  0.10079017126E+04  0.10005168974E+04 0.  0.
   -9000010    2    1    2    0  503  0.72381251509E+01  0.11994246714E+03 -0.60479892343E+03  0.12023151015E+04  0.10321537092E+04 0.  0.
        -13    1    3    3    0    0 -0.22344361386E+03  0.34902505187E+03  0.20105716221E+03  0.46061863732E+03  0.10566000000E+00 0.  1.
         13    1    4    4    0    0 -0.46663911526E+03  0.18265634790E+03 -0.10746422073E+03  0.51250753674E+03  0.10566000000E+00 0. -1.
          4    1    3    3  501    0  0.21620548870E+03 -0.46896751901E+03 -0.18122752898E+03  0.54728307528E+03  0.00000000000E+00 0.  1.
         -4    1    4    4    0  503  0.47387724041E+03 -0.62713880757E+02 -0.49733470271E+03  0.68980756471E+03  0.00000000000E+00 0. -1.
</event>
<event>
 8    1  0.7572579E-006  0.1099038E+04  0.7818608E-02  0.8694768E-01
         21   -1    0    0  501  502  0.00000000000E+00  0.00000000000E+00  0.17634811137E+04  0.17634811137E+04  0.00000000000E+00 0.  1.
         21   -1    0    0  502  503 -0.00000000000E+00 -0.00000000000E+00 -0.68128163016E+03  0.68128163016E+03  0.00000000000E+00 0.  1.
    9000010    2    1    2  501    0 -0.31348811487E+03  0.91378939030E+02  0.75760674200E+03  0.13348603818E+04  0.10494090503E+04 0.  0.
   -9000010    2    1    2    0  503  0.31348811487E+03 -0.91378939030E+02  0.32459274152E+03  0.11099023620E+04  0.10098999439E+04 0.  0.
        -13    1    3    3    0    0  0.38259334879E+03  0.44347778811E+02  0.38218763810E+03  0.54259727045E+03  0.10566000000E+00 0.  1.
         13    1    4    4    0    0 -0.26829381226E+03  0.23592617593E+03 -0.21630386062E+02  0.35792543211E+03  0.10566000000E+00 0. -1.
          4    1    3    3  501    0 -0.69608146367E+03  0.47031160219E+02  0.37541910391E+03  0.79226311139E+03  0.00000000000E+00 0.  1.
         -4    1    4    4    0  503  0.58178192713E+03 -0.32730511496E+03  0.34622312758E+03  0.75197692989E+03  0.00000000000E+00 0. -1.
</event>
<event>
 8    1  0.7572579E-006  0.1081674E+04  0.7818608E-02  0.8701756E-01
         21   -1    0    0  503  502  0.00000000000E+00  0.00000000000E+00  0.40687717553E+03  0.40687717553E+03  0.00000000000E+00 0. -1.
         21   -1    0    0  501  503 -0.00000000000E+00 -0.00000000000E+00 -0.31033897718E+04  0.31033897718E+04  0.00000000000E+00 0. -1.
    9000010    2    1    2  501    0  0.38649438848E+03 -0.13138615480E+03 -0.18289487561E+04  0.21248699235E+04  0.10016877783E+04 0.  0.
   -9000010    2    1    2    0  502 -0.38649438848E+03  0.13138615480E+03 -0.86756384012E+03  0.13853970238E+04  0.10000088314E+04 0.  0.
        -13    1    3    3    0    0  0.61180331014E+03 -0.30104658348E+03 -0.16636391035E+04  0.17979508930E+04  0.10566000000E+00 0.  1.
         13    1    4    4    0    0 -0.22846758122E+03  0.56930191657E+03 -0.52446524592E+03  0.80707243369E+03  0.10566000000E+00 0. -1.
          4    1    3    3  501    0 -0.22530892166E+03  0.16966042868E+03 -0.16530965261E+03  0.32691903048E+03  0.00000000000E+00 0.  1.
         -4    1    4    4    0  502 -0.15802680726E+03 -0.43791576177E+03 -0.34309859420E+03  0.57832459014E+03  0.00000000000E+00 0. -1.
</event>
<event>
 8    1  0.7572579E-006  0.1008767E+04  0.7818608E-02  0.8770404E-01
         21   -1    0    0  503  502  0.00000000000E+00  0.00000000000E+00  0.17713211603E+04  0.17713211603E+04  0.00000000000E+00 0.  1.
         21   -1    0    0  501  503 -0.00000000000E+00 -0.00000000000E+00 -0.60987891826E+03  0.60987891826E+03  0.00000000000E+00 0.  1.
    9000010    2    1    2  501    0 -0.75494288642E+02  0.82098748869E+02  0.26165512855E+03  0.10421487451E+04  0.10025821704E+04 0.  0.
   -9000010    2    1    2    0  502  0.75494288642E+02 -0.82098748869E+02  0.89978711348E+03  0.13390513334E+04  0.98539435344E+03 0.  0.
        -13    1    3    3    0    0  0.60754644927E+01 -0.43625182924E+03 -0.37896262566E+02  0.43793687634E+03  0.10566000000E+00 0.  1.
         13    1    4    4    0    0 -0.13175457247E+03 -0.15690994743E+03 -0.15788939732E+03  0.25866787957E+03  0.10566000000E+00 0. -1.
          4    1    3    3  501    0 -0.81569753134E+02  0.51835057811E+03  0.29955139112E+03  0.60421186878E+03  0.00000000000E+00 0.  1.
         -4    1    4    4    0  502  0.20724886111E+03  0.74811198558E+02  0.10576765108E+04  0.10803834539E+04  0.00000000000E+00 0. -1.
</event>
<event>
 8    1  0.7572579E-006  0.1085889E+04  0.7818608E-02  0.8698469E-01
         21   -1    0    0  501  502  0.00000000000E+00  0.00000000000E+00  0.11836369333E+04  0.11836369333E+04  0.00000000000E+00 0.  1.
         21   -1    0    0  502  503 -0.00000000000E+00 -0.00000000000E+00 -0.10555840677E+04  0.10555840677E+04  0.00000000000E+00 0.  1.
    9000010    2    1    2  501    0 -0.43095845691E+03  0.11629179650E+02  0.33570992199E+03  0.11365985148E+04  0.99664166210E+03 0.  0.
   -9000010    2    1    2    0  503  0.43095845691E+03 -0.11629179650E+02 -0.20765705647E+03  0.11026224862E+04  0.99337528893E+03 0.  0.
        -13    1    3    3    0    0 -0.75712086732E+03  0.53901171517E+01  0.19874476614E+03  0.78279023648E+03  0.10566000000E+00 0.  1.
         13    1    4    4    0    0  0.10567695366E+03 -0.46444235198E+03  0.67175938078E+02  0.48102695836E+03  0.10566000000E+00 0. -1.
          4    1    3    3  501    0  0.32616241041E+03  0.62390624984E+01  0.13696515585E+03  0.35380827828E+03  0.00000000000E+00 0.  1.
         -4    1    4    4    0  503  0.32528150325E+03  0.45281317233E+03 -0.27483299455E+03  0.62159552788E+03  0.00000000000E+00 0. -1.
</event>
<event>
 8    1  0.7572579E-006  0.1080080E+04  0.7818608E-02  0.8708873E-01
         21   -1    0    0  501  502  0.00000000000E+00  0.00000000000E+00  0.16793758668E+04  0.16793758668E+04  0.00000000000E+00 0.  1.
         21   -1    0    0  502  503 -0.00000000000E+00 -0.00000000000E+00 -0.75383634192E+03  0.75383634192E+03  0.00000000000E+00 0.  1.
    9000010    2    1    2  501    0 -0.10962290925E+03  0.41669169901E+03  0.84638801144E+03  0.13502362055E+04  0.95974787857E+03 0.  0.
   -9000010    2    1    2    0  503  0.10962290925E+03 -0.41669169901E+03  0.79151513433E+02  0.10829760032E+04  0.99041552252E+03 0.  0.
        -13    1    3    3    0    0 -0.31659642335E+03 -0.11630159225E+03  0.67294758892E+03  0.75274021032E+03  0.10566000000E+00 0.  1.
         13    1    4    4    0    0 -0.66624906432E+02 -0.45520349942E+03 -0.37549788140E+03  0.59384153959E+03  0.10566000000E+00 0. -1.
          4    1    3    3  501    0  0.20697351410E+03  0.53299329126E+03  0.17344042252E+03  0.59749599516E+03  0.00000000000E+00 0.  1.
         -4    1    4    4    0  503  0.17624781568E+03  0.38511800410E+02  0.45464939484E+03  0.48913446365E+03  0.00000000000E+00 0. -1.
</event>
<event>
 8    1  0.7572579E-006  0.1064582E+04  0.7818608E-02  0.8721277E-01
         21   -1    0    0  501  502  0.00000000000E+00  0.00000000000E+00  0.10307334264E+04  0.10307334264E+04  0.00000000000E+00 0.  1.
         21   -1    0    0  502  503 -0.00000000000E+00 -0.00000000000E+00 -0.12736029638E+04  0.12736029638E+04  0.00000000000E+00 0.  1.
    9000010    2    1    2  501    0 -0.33523372242E+03 -0.71147883175E+02  0.33155973382E+03  0.11150187491E+04  0.10079143236E+04 0.  0.
   -9000010    2    1    2    0  503  0.33523372242E+03  0.71147883175E+02 -0.57442927118E+03  0.11893176412E+04  0.98339401772E+03 0.  0.
        -13    1    3    3    0    0  0.13644597919E+03  0.23298350416E+03 -0.20466415465E+03  0.33880118921E+03  0.10566000000E+00 0.  1.
         13    1    4    4    0    0  0.61050750230E+03 -0.17675246807E+03 -0.20924967093E+03  0.66913846197E+03  0.10566000000E+00 0. -1.
          4    1    3    3  501    0 -0.47167970161E+03 -0.30413138733E+03  0.53622388847E+03  0.77621755986E+03  0.00000000000E+00 0.  1.
         -4    1    4    4    0  503 -0.27527377988E+03  0.24790035125E+03 -0.36517960025E+03  0.52017917921E+03  0.00000000000E+00 0. -1.
</event>
<event>
 8    1  0.7572579E-006  0.1129890E+04  0.7818608E-02  0.8665366E-01
         21   -1    0    0  501  502  0.00000000000E+00  0.00000000000E+00  0.12003913513E+04  0.12003913513E+04  0.00000000000E+00 0. -1.
         21   -1    0    0  502  503 -0.00000000000E+00 -0.00000000000E+00 -0.11117755631E+04  0.11117755631E+04  0.00000000000E+00 0. -1.
    9000010    2    1    2  501    0 -0.25804543633E+03 -0.41949301699E+03 -0.23874447110E+03  0.11548381146E+04  0.10169023109E+04 0.  0.
   -9000010    2    1    2    0  503  0.25804543633E+03  0.41949301699E+03  0.32736025929E+03  0.11573287998E+04  0.99482831326E+03 0.  0.
        -13    1    3    3    0    0 -0.18284646259E+03  0.32594159299E+03 -0.19648147959E+02  0.37424164894E+03  0.10566000000E+00 0.  1.
         13    1    4    4    0    0  0.23160567154E+03  0.42951198563E+03 -0.27108274368E+03  0.55821823508E+03  0.10566000000E+00 0. -1.
          4    1    3    3  501    0 -0.75198973742E+02 -0.74543460998E+03 -0.21909632314E+03  0.78059646567E+03  0.00000000000E+00 0.  1.
         -4    1    4    4    0  503  0.26439764793E+02 -0.10018968648E+02  0.59844300297E+03  0.59911056467E+03  0.00000000000E+00 0. -1.
</event>
<event>
 8    1  0.7572579E-006  0.1069445E+04  0.7818608E-02  0.8715197E-01
         21   -1    0    0  501  502  0.00000000000E+00  0.00000000000E+00  0.16416569451E+04  0.16416569451E+04  0.00000000000E+00 0.  1.
         21   -1    0    0  502  503 -0.00000000000E+00 -0.00000000000E+00 -0.78748663885E+03  0.78748663885E+03  0.00000000000E+00 0.  1.
    9000010    2    1    2  501    0 -0.16287883503E+03 -0.32445604959E+03  0.86354832076E+03  0.13745650513E+04  0.10059384349E+04 0.  0.
   -9000010    2    1    2    0  503  0.16287883503E+03  0.32445604959E+03 -0.93780145425E+01  0.10545785327E+04  0.99007408378E+03 0.  0.
        -13    1    3    3    0    0 -0.27498947175E+03 -0.17220965718E+03  0.10560329668E+04  0.11047538250E+04  0.10566000000E+00 0.  1.
         13    1    4    4    0    0  0.32887283507E+03  0.83856345124E+02 -0.42660733803E+03  0.54514499016E+03  0.10566000000E+00 0. -1.
          4    1    3    3  501    0  0.11211063672E+03 -0.15224639241E+03 -0.19248464606E+03  0.26981122630E+03  0.00000000000E+00 0.  1.
         -4    1    4    4    0  503 -0.16599400004E+03  0.24059970447E+03  0.41722932349E+03  0.50943354250E+03  0.00000000000E+00 0. -1.
</event>
<event>
 8    1  0.7572579E-006  0.1051323E+04  0.7818608E-02  0.8729338E-01
         21   -1    0    0  503  502  0.00000000000E+00  0.00000000000E+00  0.14777822946E+04  0.14777822946E+04  0.00000000000E+00 0.  1.
         21   -1    0    0  501  503 -0.00000000000E+00 -0.00000000000E+00 -0.77851936973E+03  0.77851936973E+03  0.00000000000E+00 0.  1.
    9000010    2    1    2  501    0 -0.27945253524E+02 -0.30167638511E+03  0.58938837504E+03  0.11992523287E+04  0.99951884065E+03 0.  0.
   -9000010    2    1    2    0  502  0.27945253524E+02  0.30167638511E+03  0.10987454986E+03  0.10570493356E+04  0.10067230516E+04 0.  0.
        -13    1    3    3    0    0  0.83546740906E+02 -0.78965564445E+02 -0.27586879815E+03  0.29886321828E+03  0.10566000000E+00 0.  1.
         13    1    4    4    0    0  0.22268287284E+03 -0.26759427629E+03 -0.17695131172E+03  0.39052034062E+03  0.10566000000E+00 0. -1.
          4    1    3    3  501    0 -0.11149199443E+03 -0.22271082066E+03  0.86525717319E+03  0.90038911045E+03  0.00000000000E+00 0.  1.
         -4    1    4    4    0  502 -0.19473761932E+03  0.56927066140E+03  0.28682586157E+03  0.66652899500E+03  0.00000000000E+00 0. -1.
</event>
<event>
 8    1  0.7572579E-006  0.1019945E+04  0.7818608E-02  0.8797188E-01
         21   -1    0    0  501  502  0.00000000000E+00  0.00000000000E+00  0.11118542736E+04  0.11118542736E+04  0.00000000000E+00 0. -1.
         21   -1    0    0  502  503 -0.00000000000E+00 -0.00000000000E+00 -0.81275662218E+03  0.81275662218E+03  0.00000000000E+00 0. -1.
    9000010    2    1    2  501    0 -0.91430980819E+02  0.14542872162E+03 -0.18266086519E+02  0.85643155226E+03  0.83882788250E+03 0.  0.
   -9000010    2    1    2    0  503  0.91430980819E+02 -0.14542872162E+03  0.31736373789E+03  0.10681793435E+04  0.10053746716E+04 0.  0.
        -13    1    3    3    0    0 -0.56931453167E+02  0.36202775130E+03 -0.31787038124E+03  0.48512562652E+03  0.10566000000E+00 0.  1.
         13    1    4    4    0    0  0.40433613442E+03 -0.23144637454E+03  0.51002631932E+03  0.69078360682E+03  0.10566000000E+00 0. -1.
          4    1    3    3  501    0 -0.34499527652E+02 -0.21659902968E+03  0.29960429473E+03  0.37130592573E+03  0.00000000000E+00 0.  1.
         -4    1    4    4    0  503 -0.31290515360E+03  0.86017652919E+02 -0.19266258143E+03  0.37739573666E+03  0.00000000000E+00 0. -1.
</event>
<event>
 8    1  0.7572579E-006  0.1017189E+04  0.7818608E-02  0.8759869E-01
         21   -1    0    0  501  502  0.00000000000E+00  0.00000000000E+00  0.21979292994E+04  0.21979292994E+04  0.00000000000E+00 0. -1.
         21   -1    0    0  502  503 -0.00000000000E+00 -0.00000000000E+00 -0.47545731145E+03  0.47545731145E+03  0.00000000000E+00 0. -1.
    9000010    2    1    2  501    0 -0.82567337641E+02 -0.12403596034E+03  0.10284106847E+04  0.14464788788E+04  0.10062158446E+04 0.  0.
   -9000010    2    1    2    0  503  0.82567337641E+02  0.12403596034E+03  0.69406130325E+03  0.12269077320E+04  0.10006893651E+04 0.  0.
        -13    1    3    3    0    0  0.30515410868E+03  0.29567187587E+03  0.29733618718E+03  0.51860361318E+03  0.10566000000E+00 0.  1.
         13    1    4    4    0    0  0.11924162124E+03  0.24534556982E+03  0.92450756561E+03  0.96391247678E+03  0.10566000000E+00 0. -1.
          4    1    3    3  501    0 -0.38772144632E+03 -0.41970783621E+03  0.73107449750E+03  0.92787526565E+03  0.00000000000E+00 0.  1.
         -4    1    4    4    0  503 -0.36674283603E+02 -0.12130960948E+03 -0.23044626236E+03  0.26299525522E+03  0.00000000000E+00 0. -1.
</event>
<event>
 8    1  0.7572579E-006  0.1009497E+04  0.7818608E-02  0.8769583E-01
         21   -1    0    0  501  502  0.00000000000E+00  0.00000000000E+00  0.94363257385E+03  0.94363257385E+03  0.00000000000E+00 0.  1.
         21   -1    0    0  502  503 -0.00000000000E+00 -0.00000000000E+00 -0.10776281907E+04  0.10776281907E+04  0.00000000000E+00 0.  1.
    9000010    2    1    2  501    0 -0.15718249691E+03  0.24079951538E+02 -0.18665686730E+03  0.10103907107E+04  0.98018489112E+03 0.  0.
   -9000010    2    1    2    0  503  0.15718249691E+03 -0.24079951538E+02  0.52661250476E+02  0.10108700538E+04  0.99689461678E+03 0.  0.
        -13    1    3    3    0    0 -0.34507046302E+03  0.43834716648E+02 -0.52095038299E+03  0.62640595426E+03  0.10566000000E+00 0.  1.
         13    1    4    4    0    0 -0.39875056948E+03  0.12432421714E+03  0.11194570765E+03  0.43242384330E+03  0.10566000000E+00 0. -1.
          4    1    3    3  501    0  0.18788796612E+03 -0.19754765110E+02  0.33429351569E+03  0.38398475645E+03  0.00000000000E+00 0.  1.
         -4    1    4    4    0  503  0.55593306639E+03 -0.14840416868E+03 -0.59284457176E+02  0.57844621050E+03  0.00000000000E+00 0. -1.
</event>
<event>
 8    1  0.7572579E-006  0.1060196E+04  0.7818608E-02  0.8728387E-01
         21   -1    0    0  503  502  0.00000000000E+00  0.00000000000E+00  0.64763651582E+03  0.64763651582E+03  0.00000000000E+00 0.  1.
         21   -1    0    0  501  503 -0.00000000000E+00 -0.00000000000E+00 -0.18436211585E+04  0.18436211585E+04  0.00000000000E+00 0.  1.
    9000010    2    1    2  501    0 -0.24447107053E+03 -0.26517839059E+03 -0.98494125258E+03  0.14471089364E+04  0.99696003919E+03 0.  0.
   -9000010    2    1    2    0  502  0.24447107053E+03  0.26517839059E+03 -0.21104339010E+03  0.10441487379E+04  0.95688117922E+03 0.  0.
        -13    1    3    3    0    0  0.22811195681E+03 -0.45958276809E+03 -0.68062836597E+03  0.85235342980E+03  0.10566000000E+00 0.  1.
         13    1    4    4    0    0  0.78102910473E+02 -0.34633867519E+03 -0.20582478201E+03  0.41038322896E+03  0.10566000000E+00 0. -1.
          4    1    3    3  501    0 -0.47258302734E+03  0.19440437750E+03 -0.30431288661E+03  0.59475550664E+03  0.00000000000E+00 0.  1.
         -4    1    4    4    0  502  0.16636816006E+03  0.61151706578E+03 -0.52186080899E+01  0.63376550892E+03  0.00000000000E+00 0. -1.
</event>
<event>
 8    1  0.7572579E-006  0.1025479E+04  0.7818608E-02  0.8755939E-01
         21   -1    0    0  503  502  0.00000000000E+00  0.00000000000E+00  0.74856062104E+03  0.74856062104E+03  0.00000000000E+00 0.  1.
         21   -1    0    0  501  503 -0.00000000000E+00 -0.00000000000E+00 -0.14376197027E+04  0.14376197027E+04  0.00000000000E+00 0.  1.
    9000010    2    1    2  501    0  0.10515878762E+03 -0.14913244555E+02 -0.57483567559E+03  0.11756031096E+04  0.10199636473E+04 0.  0.
   -9000010    2    1    2    0  502 -0.10515878762E+03  0.14913244555E+02 -0.11422340611E+03  0.10105772142E+04  0.99846809857E+03 0.  0.
        -13    1    3    3    0    0 -0.23820757506E+03 -0.42525894153E+03 -0.31894050073E+03  0.58250413761E+03  0.10566000000E+00 0.  1.
         13    1    4    4    0    0 -0.11882395146E+03  0.35966764322E+03 -0.40850575613E+03  0.55709685780E+03  0.10566000000E+00 0. -1.
          4    1    3    3  501    0  0.34336636268E+03  0.41034569697E+03 -0.25589517487E+03  0.59309897198E+03  0.00000000000E+00 0.  1.
         -4    1    4    4    0  502  0.13665163837E+02 -0.34475439866E+03  0.29428235002E+03  0.45348035639E+03  0.00000000000E+00 0. -1.
</event>
<event>
 8    1  0.7717360E-006  0.1025458E+04  0.7818608E-02  0.8752399E-01
         21   -1    0    0  501  502  0.00000000000E+00  0.00000000000E+00  0.64665417890E+03  0.64665417890E+03  0.00000000000E+00 0. -1.
         21   -1    0    0  502  503 -0.00000000000E+00 -0.00000000000E+00 -0.17691019676E+04  0.17691019676E+04  0.00000000000E+00 0. -1.
    9000010    2    1    2  501    0  0.98695834432E+02 -0.56626527622E+02 -0.20820267601E+03  0.10463804380E+04  0.10191252304E+04 0.  0.
   -9000010    2    1    2    0  503 -0.98695834432E+02  0.56626527622E+02 -0.91424511272E+03  0.13693757086E+04  0.10131131594E+04 0.  0.
        -13    1    3    3    0    0 -0.30748594592E+03  0.10666225632E+03 -0.44293053050E+03  0.54964707756E+03  0.10566000000E+00 0.  1.
         13    1    4    4    0    0 -0.62561759215E+02 -0.16810461842E+03 -0.10755456138E+04  0.10903997042E+04  0.10566000000E+00 0. -1.
          4    1    3    3  501    0  0.40618178036E+03 -0.16328878394E+03  0.23472785449E+03  0.49673336039E+03  0.00000000000E+00 0.  1.
         -4    1    4    4    0  503 -0.36134075216E+02  0.22473114604E+03  0.16130050104E+03  0.27897600439E+03  0.00000000000E+00 0. -1.
</event>
<event>
 8    1  0.7572579E-006  0.1046230E+04  0.7818608E-02  0.8735121E-01
         21   -1    0    0  501  502  0.00000000000E+00  0.00000000000E+00  0.12714325227E+04  0.12714325227E+04  0.00000000000E+00 0. -1.
         21   -1    0    0  502  503 -0.00000000000E+00 -0.00000000000E+00 -0.13475240142E+04  0.13475240142E+04  0.00000000000E+00 0. -1.
    9000010    2    1    2  501    0  0.28047142804E+03  0.88989180053E+02  0.75694035383E+03  0.12913391966E+04  0.10039994648E+04 0.  0.
   -9000010    2    1    2    0  503 -0.28047142804E+03 -0.88989180053E+02 -0.83303184534E+03  0.13276173404E+04  0.99098055028E+03 0.  0.
        -13    1    3    3    0    0 -0.13916253580E+03 -0.34650870262E+02  0.83477091236E+03  0.84700022519E+03  0.10566000000E+00 0.  1.
         13    1    4    4    0    0 -0.17010377589E+03 -0.54125388388E+03 -0.48432779829E+03  0.74596547424E+03  0.10566000000E+00 0. -1.
          4    1    3    3  501    0  0.41963396384E+03  0.12364005031E+03 -0.77830558530E+02  0.44433897138E+03  0.00000000000E+00 0.  1.
         -4    1    4    4    0  503 -0.11036765215E+03  0.45226470383E+03 -0.34870404705E+03  0.58165186615E+03  0.00000000000E+00 0. -1.
</event>
<event>
 8    1  0.7572579E-006  0.1015258E+04  0.7818608E-02  0.8762315E-01
         21   -1    0    0  501  502  0.00000000000E+00  0.00000000000E+00  0.27241447066E+04  0.27241447066E+04  0.00000000000E+00 0.  1.
         21   -1    0    0  502  503 -0.00000000000E+00 -0.00000000000E+00 -0.41034610116E+03  0.41034610116E+03  0.00000000000E+00 0.  1.
    9000010    2    1    2  501    0  0.13725671443E+03 -0.16768524253E+02  0.16194039837E+04  0.19113392316E+04  0.10057971003E+04 0.  0.
   -9000010    2    1    2    0  503 -0.13725671443E+03  0.16768524253E+02  0.69439462170E+03  0.12231515761E+04  0.99739425425E+03 0.  0.
        -13    1    3    3    0    0 -0.27333055706E+03 -0.12557018281E+03  0.14025210728E+04  0.14344137600E+04  0.10566000000E+00 0.  1.
         13    1    4    4    0    0 -0.35317756301E+03 -0.21605802774E+03  0.78967361676E+03  0.89162766586E+03  0.10566000000E+00 0. -1.
          4    1    3    3  501    0  0.41058727149E+03  0.10880165856E+03  0.21688291095E+03  0.47692547162E+03  0.00000000000E+00 0.  1.
         -4    1    4    4    0  503  0.21592084858E+03  0.23282655199E+03 -0.95278995052E+02  0.33152391024E+03  0.00000000000E+00 0. -1.
</event>
<event>
 8    1  0.7572579E-006  0.1036670E+04  0.7818608E-02  0.8748307E-01
         21   -1    0    0  501  502  0.00000000000E+00  0.00000000000E+00  0.16797736074E+04  0.16797736074E+04  0.00000000000E+00 0. -1.
         21   -1    0    0  502  503 -0.00000000000E+00 -0.00000000000E+00 -0.62873080309E+03  0.62873080309E+03  0.00000000000E+00 0. -1.
    9000010    2    1    2  501    0  0.22047550113E+03 -0.86988985097E+02  0.38044908461E+03  0.10738461717E+04  0.97582148181E+03 0.  0.
   -9000010    2    1    2    0  503 -0.22047550113E+03  0.86988985097E+02  0.67059371972E+03  0.12346582388E+04  0.10092118210E+04 0.  0.
        -13    1    3    3    0    0  0.27217434362E+03  0.37494583861E+03  0.39493807613E+03  0.60880156895E+03  0.10566000000E+00 0.  1.
         13    1    4    4    0    0 -0.48576269886E+03  0.48053366000E+02 -0.25408668420E+02  0.48879457565E+03  0.10566000000E+00 0. -1.
          4    1    3    3  501    0 -0.51698842488E+02 -0.46193482371E+03 -0.14488991516E+02  0.46504460275E+03  0.00000000000E+00 0.  1.
         -4    1    4    4    0  503  0.26528719773E+03  0.38935619097E+02  0.69600238814E+03  0.74586366315E+03  0.00000000000E+00 0. -1.
</event>
<event>
 8    1  0.7572579E-006  0.1027493E+04  0.7818608E-02  0.8757993E-01
         21   -1    0    0  503  502  0.00000000000E+00  0.00000000000E+00  0.19034162160E+04  0.19034162160E+04  0.00000000000E+00 0. -1.
         21   -1    0    0  501  503 -0.00000000000E+00 -0.00000000000E+00 -0.61907647785E+03  0.61907647785E+03  0.00000000000E+00 0. -1.
    9000010    2    1    2  501    0  0.10274061620E+03 -0.19402250291E+03  0.18603649554E+03  0.10441991182E+04  0.10037638442E+04 0.  0.
   -9000010    2    1    2    0  502 -0.10274061620E+03  0.19402250291E+03  0.10983032426E+04  0.14782935757E+04  0.96482201324E+03 0.  0.
        -13    1    3    3    0    0  0.21798142617E+02  0.17831983810E+03 -0.34595918858E+03  0.38982161947E+03  0.10566000000E+00 0.  1.
         13    1    4    4    0    0 -0.16923545185E+03 -0.36691327246E+03  0.31385985495E+03  0.51163855151E+03  0.10566000000E+00 0. -1.
          4    1    3    3  501    0  0.80942473588E+02 -0.37234234101E+03  0.53199568413E+03  0.65437749875E+03  0.00000000000E+00 0.  1.
         -4    1    4    4    0  502  0.66494835646E+02  0.56093577537E+03  0.78444338769E+03  0.96665502417E+03  0.00000000000E+00 0. -1.
</event>
<event>
 8    1  0.7572579E-006  0.1030370E+04  0.7818608E-02  0.8752265E-01
         21   -1    0    0  501  502  0.00000000000E+00  0.00000000000E+00  0.31735773360E+03  0.31735773360E+03  0.00000000000E+00 0. -1.
         21   -1    0    0  502  503 -0.00000000000E+00 -0.00000000000E+00 -0.33509481622E+04  0.33509481622E+04  0.00000000000E+00 0. -1.
    9000010    2    1    2  501    0  0.74198150333E+02 -0.15486387196E+03 -0.18281847513E+04  0.20985522992E+04  0.10159596858E+04 0.  0.
   -9000010    2    1    2    0  503 -0.74198150333E+02  0.15486387196E+03 -0.12054056773E+04  0.15697535966E+04  0.99077511213E+03 0.  0.
        -13    1    3    3    0    0 -0.93810346693E+02 -0.54826522186E+03 -0.71414813644E+03  0.90520865362E+03  0.10566000000E+00 0.  1.
         13    1    4    4    0    0  0.37039273790E+03 -0.98889868575E+02 -0.88852721683E+03  0.96770378350E+03  0.10566000000E+00 0. -1.
          4    1    3    3  501    0  0.16800849703E+03  0.39340134990E+03 -0.11140366149E+04  0.11933436456E+04  0.00000000000E+00 0.  1.
         -4    1    4    4    0  503 -0.44459088823E+03  0.25375374053E+03 -0.31687846043E+03  0.60204981307E+03  0.00000000000E+00 0. -1.
</event>
<event>
 8    1  0.7572579E-006  0.1045169E+04  0.7818608E-02  0.8753591E-01
         21   -1    0    0  503  502  0.00000000000E+00  0.00000000000E+00  0.15616596678E+04  0.15616596678E+04  0.00000000000E+00 0.  1.
         21   -1    0    0  501  503 -0.00000000000E+00 -0.00000000000E+00 -0.69806435419E+03  0.69806435419E+03  0.00000000000E+00 0.  1.
    9000010    2    1    2  501    0  0.49980951966E+02 -0.11376721868E+03  0.76796489625E+03  0.12969766501E+04  0.10377558834E+04 0.  0.
   -9000010    2    1    2    0  502 -0.49980951966E+02  0.11376721868E+03  0.95630417344E+02  0.96274737184E+03  0.94989275692E+03 0.  0.
        -13    1    3    3    0    0 -0.47958926381E+03 -0.95193874299E+02  0.51384222336E+03  0.70929653696E+03  0.10566000000E+00 0.  1.
         13    1    4    4    0    0 -0.10479437066E+03  0.27357036712E+03 -0.36737670297E+03  0.46988111149E+03  0.10566000000E+00 0. -1.
          4    1    3    3  501    0  0.52957021577E+03 -0.18573344376E+02  0.25412267289E+03  0.58768011319E+03  0.00000000000E+00 0.  1.
         -4    1    4    4    0  502  0.54813418689E+02 -0.15980314844E+03  0.46300712032E+03  0.49286626034E+03  0.00000000000E+00 0. -1.
</event>
<event>
 8    1  0.7572579E-006  0.1193089E+04  0.7818608E-02  0.8616555E-01
         21   -1    0    0  503  502  0.00000000000E+00  0.00000000000E+00  0.17837718821E+04  0.17837718821E+04  0.00000000000E+00 0.  1.
         21   -1    0    0  501  503 -0.00000000000E+00 -0.00000000000E+00 -0.14324967655E+04  0.14324967655E+04  0.00000000000E+00 0.  1.
    9000010    2    1    2  501    0  0.47436038290E+03  0.38827432260E+03 -0.90947235918E+03  0.14804846965E+04  0.99444469020E+03 0.  0.
   -9000010    2    1    2    0  502 -0.47436038290E+03 -0.38827432260E+03  0.12607474757E+04  0.17357839511E+04  0.10235658284E+04 0.  0.
        -13    1    3    3    0    0  0.38878495509E+03 -0.16997483530E+03 -0.79947901176E+03  0.90510324679E+03  0.10566000000E+00 0.  1.
         13    1    4    4    0    0 -0.16094725547E+02 -0.50062937501E+03  0.14049386441E+03  0.52021855832E+03  0.10566000000E+00 0. -1.
          4    1    3    3  501    0  0.85575427802E+02  0.55824915791E+03 -0.10999334743E+03  0.57538144967E+03  0.00000000000E+00 0.  1.
         -4    1    4    4    0  502 -0.45826565735E+03  0.11235505241E+03  0.11202536113E+04  0.12155653928E+04  0.00000000000E+00 0. -1.
</event>
<event>
 8    1  0.7572579E-006  0.1207023E+04  0.7818608E-02  0.8601546E-01
         21   -1    0    0  503  502  0.00000000000E+00  0.00000000000E+00  0.63669908171E+03  0.63669908171E+03  0.00000000000E+00 0. -1.
         21   -1    0    0  501  503 -0.00000000000E+00 -0.00000000000E+00 -0.27906597271E+04  0.27906597271E+04  0.00000000000E+00 0. -1.
    9000010    2    1    2  501    0 -0.67215638394E+03  0.11500601970E+03 -0.18054848723E+04  0.21710383836E+04  0.99428941955E+03 0.  0.
   -9000010    2    1    2    0  502  0.67215638394E+03 -0.11500601970E+03 -0.34847577307E+03  0.12563204252E+04  0.99593426356E+03 0.  0.
        -13    1    3    3    0    0 -0.82955414543E+03 -0.66965387041E+02 -0.17284963815E+04  0.19184223194E+04  0.10566000000E+00 0.  1.
         13    1    4    4    0    0 -0.13299953571E+03 -0.24736785199E+03  0.13100599843E+03  0.30990694327E+03  0.10566000000E+00 0. -1.
          4    1    3    3  501    0  0.15739776149E+03  0.18197140674E+03 -0.76988490770E+02  0.25261606423E+03  0.00000000000E+00 0.  1.
         -4    1    4    4    0  502  0.80515591965E+03  0.13236183229E+03 -0.47948177150E+03  0.94641348194E+03  0.00000000000E+00 0. -1.
</event>
<event>
 8    1  0.7572579E-006  0.1021269E+04  0.7818608E-02  0.8756550E-01
         21   -1    0    0  503  502  0.00000000000E+00  0.00000000000E+00  0.77135954557E+03  0.77135954557E+03  0.00000000000E+00 0. -1.
         21   -1    0    0  501  503 -0.00000000000E+00 -0.00000000000E+00 -0.13973254622E+04  0.13973254622E+04  0.00000000000E+00 0. -1.
    9000010    2    1    2  501    0  0.20810561417E+03 -0.70529381567E+02 -0.52682344006E+03  0.11426146371E+04  0.98981964594E+03 0.  0.
   -9000010    2    1    2    0  502 -0.20810561417E+03  0.70529381567E+02 -0.99142476537E+02  0.10260703707E+04  0.99735090847E+03 0.  0.
        -13    1    3    3    0    0 -0.22346311255E+03  0.33490503677E+03 -0.32370681180E+03  0.51660745009E+03  0.10566000000E+00 0.  1.
         13    1    4    4    0    0 -0.54160373354E+03  0.20928951052E+03 -0.25311810686E+03  0.63340783906E+03  0.10566000000E+00 0. -1.
          4    1    3    3  501    0  0.43156872671E+03 -0.40543441834E+03 -0.20311662826E+03  0.62600718696E+03  0.00000000000E+00 0.  1.
         -4    1    4    4    0  502  0.33349811937E+03 -0.13876012895E+03  0.15397563032E+03  0.39266253163E+03  0.00000000000E+00 0. -1.
</event>
<event>
 8    1  0.7572579E-006  0.1025563E+04  0.7818608E-02  0.8750996E-01
         21   -1    0    0  501  502  0.00000000000E+00  0.00000000000E+00  0.93178263745E+03  0.93178263745E+03  0.00000000000E+00 0.  1.
         21   -1    0    0  502  503 -0.00000000000E+00 -0.00000000000E+00 -0.11862496737E+04  0.11862496737E+04  0.00000000000E+00 0.  1.
    9000010    2    1    2  501    0  0.18901393816E+03 -0.61332752212E+02 -0.36088930022E+03  0.10869624793E+04  0.10058620030E+04 0.  0.
   -9000010    2    1    2    0  503 -0.18901393816E+03  0.61332752212E+02  0.10642226393E+03  0.10310698319E+04  0.10061268929E+04 0.  0.
        -13    1    3    3    0    0 -0.24759151800E+03 -0.33481457511E+03 -0.39057573477E+03  0.57092186440E+03  0.10566000000E+00 0.  1.
         13    1    4    4    0    0 -0.31626873813E+03  0.44109291149E+03 -0.14037943096E+03  0.56062043049E+03  0.10566000000E+00 0. -1.
          4    1    3    3  501    0  0.43660545616E+03  0.27348182290E+03  0.29686434554E+02  0.51604061487E+03  0.00000000000E+00 0.  1.
         -4    1    4    4    0  503  0.12725479997E+03 -0.37976015928E+03  0.24680169489E+03  0.47044940142E+03  0.00000000000E+00 0. -1.
</event>
<event>
 8    1  0.7572579E-006  0.1117891E+04  0.7818608E-02  0.8699748E-01
         21   -1    0    0  501  502  0.00000000000E+00  0.00000000000E+00  0.76967778828E+03  0.76967778828E+03  0.00000000000E+00 0.  1.
         21   -1    0    0  502  503 -0.00000000000E+00 -0.00000000000E+00 -0.15964261635E+04  0.15964261635E+04  0.00000000000E+00 0.  1.
    9000010    2    1    2  501    0 -0.47989218990E+02 -0.10956091912E+03 -0.65866961786E+02  0.11198299674E+04  0.11114738590E+04 0.  0.
   -9000010    2    1    2    0  503  0.47989218990E+02  0.10956091912E+03 -0.76088141345E+03  0.12462739844E+04  0.97977127872E+03 0.  0.
        -13    1    3    3    0    0 -0.22133718042E+03  0.41826717716E+03  0.18776222253E+03  0.50910926362E+03  0.10566000000E+00 0.  1.
         13    1    4    4    0    0 -0.33896428454E+03  0.15575758016E+03 -0.77093283421E+03  0.85644302554E+03  0.10566000000E+00 0. -1.
          4    1    3    3  501    0  0.17334796143E+03 -0.52782809628E+03 -0.25362918432E+03  0.61072070383E+03  0.00000000000E+00 0.  1.
         -4    1    4    4    0  503  0.38695350353E+03 -0.46196661047E+02  0.10051420758E+02  0.38983095881E+03  0.00000000000E+00 0. -1.
</event>
<event>
 8    1  0.7572579E-006  0.1018558E+04  0.7818608E-02  0.8760494E-01
         21   -1    0    0  501  502  0.00000000000E+00  0.00000000000E+00  0.15487145755E+04  0.15487145755E+04  0.00000000000E+00 0.  1.
         21   -1    0    0  502  503 -0.00000000000E+00 -0.00000000000E+00 -0.66628540699E+03  0.66628540699E+03  0.00000000000E+00 0.  1.
    9000010    2    1    2  501    0  0.10284824900E+03  0.47689206723E+02  0.34523654333E+03  0.10754761398E+04  0.10122295360E+04 0.  0.
   -9000010    2    1    2    0  503 -0.10284824900E+03 -0.47689206723E+02  0.53719262520E+03  0.11395238427E+04  0.99854226191E+03 0.  0.
        -13    1    3    3    0    0 -0.23471416768E+03  0.85460712200E+02  0.60063273834E+03  0.65050286038E+03  0.10566000000E+00 0.  1.
         13    1    4    4    0    0  0.38967222503E+03  0.13162860021E+03  0.33628753131E+02  0.41267594497E+03  0.10566000000E+00 0. -1.
          4    1    3    3  501    0  0.33756241668E+03 -0.37771505477E+02 -0.25539619501E+03  0.42497327940E+03  0.00000000000E+00 0.  1.
         -4    1    4    4    0  503 -0.49252047403E+03 -0.17931780693E+03  0.50356387207E+03  0.72684789776E+03  0.00000000000E+00 0. -1.
</event>
<event>
 8    1  0.7572579E-006  0.1012892E+04  0.7818608E-02  0.8782366E-01
         21   -1    0    0  501  502  0.00000000000E+00  0.00000000000E+00  0.91330537128E+03  0.91330537128E+03  0.00000000000E+00 0. -1.
         21   -1    0    0  502  503 -0.00000000000E+00 -0.00000000000E+00 -0.10481636350E+04  0.10481636350E+04  0.00000000000E+00 0. -1.
    9000010    2    1    2  501    0 -0.44579259848E+02  0.64040612156E+02  0.42262732644E+02  0.10137736297E+04  0.10098823314E+04 0.  0.
   -9000010    2    1    2    0  503  0.44579259848E+02 -0.64040612156E+02 -0.17712099632E+03  0.94769537659E+03  0.92772095430E+03 0.  0.
        -13    1    3    3    0    0  0.34893243633E+03 -0.27928385442E+03 -0.12728809882E+03  0.46471021909E+03  0.10566000000E+00 0.  1.
         13    1    4    4    0    0 -0.30593701109E+03 -0.21818123479E+03  0.18662193580E+03  0.41955722382E+03  0.10566000000E+00 0. -1.
          4    1    3    3  501    0 -0.39351169618E+03  0.34332446657E+03  0.16955083146E+03  0.54906341057E+03  0.00000000000E+00 0.  1.
         -4    1    4    4    0  503  0.35051627094E+03  0.15414062264E+03 -0.36374293213E+03  0.52813815277E+03  0.00000000000E+00 0. -1.
</event>
<event>
 8    1  0.7572579E-006  0.1037636E+04  0.7818608E-02  0.8745394E-01
         21   -1    0    0  503  502  0.00000000000E+00  0.00000000000E+00  0.95063192112E+03  0.95063192112E+03  0.00000000000E+00 0. -1.
         21   -1    0    0  501  503 -0.00000000000E+00 -0.00000000000E+00 -0.11721977893E+04  0.11721977893E+04  0.00000000000E+00 0. -1.
    9000010    2    1    2  501    0  0.15456355449E+03  0.97154268880E+02 -0.36246740416E+03  0.10991231660E+04  0.10214500823E+04 0.  0.
   -9000010    2    1    2    0  502 -0.15456355449E+03 -0.97154268880E+02  0.14090153603E+03  0.10237065443E+04  0.99739310290E+03 0.  0.
        -13    1    3    3    0    0 -0.28928538309E+03  0.21471180745E+03 -0.50321678048E+03  0.61888151729E+03  0.10566000000E+00 0.  1.
         13    1    4    4    0    0 -0.10756185039E+03 -0.71427495618E+02 -0.43068031631E+03  0.44961871048E+03  0.10566000000E+00 0. -1.
          4    1    3    3  501    0  0.44384893758E+03 -0.11755753857E+03  0.14074937632E+03  0.48024164875E+03  0.00000000000E+00 0.  1.
         -4    1    4    4    0  502 -0.47001704096E+02 -0.25726773262E+02  0.57158185234E+03  0.57408783385E+03  0.00000000000E+00 0. -1.
</event>
<event>
 8    1  0.7572579E-006  0.1024369E+04  0.7818608E-02  0.8752917E-01
         21   -1    0    0  501  502  0.00000000000E+00  0.00000000000E+00  0.63401843793E+03  0.63401843793E+03  0.00000000000E+00 0.  1.
         21   -1    0    0  502  503 -0.00000000000E+00 -0.00000000000E+00 -0.19201685459E+04  0.19201685459E+04  0.00000000000E+00 0.  1.
    9000010    2    1    2  501    0 -0.21019273957E+03 -0.79362717237E+02 -0.16399033609E+03  0.10374128727E+04  0.99942644025E+03 0.  0.
   -9000010    2    1    2    0  503  0.21019273957E+03  0.79362717237E+02 -0.11221597719E+04  0.15167741112E+04  0.99543042043E+03 0.  0.
        -13    1    3    3    0    0 -0.60531572719E+03 -0.98587865710E+02 -0.11353979063E+02  0.61339678908E+03  0.10566000000E+00 0.  1.
         13    1    4    4    0    0  0.23346887100E+03 -0.40130905829E+03 -0.26719549599E+03  0.53567725193E+03  0.10566000000E+00 0. -1.
          4    1    3    3  501    0  0.39512298763E+03  0.19225148474E+02 -0.15263635703E+03  0.42401608362E+03  0.00000000000E+00 0.  1.
         -4    1    4    4    0  503 -0.23276131436E+02  0.48067177553E+03 -0.85496427591E+03  0.98109685922E+03  0.00000000000E+00 0. -1.
</event>
<event>
 8    1  0.7572579E-006  0.1039304E+04  0.7818608E-02  0.8745551E-01
         21   -1    0    0  501  502  0.00000000000E+00  0.00000000000E+00  0.14459772897E+04  0.14459772897E+04  0.00000000000E+00 0. -1.
         21   -1    0    0  502  503 -0.00000000000E+00 -0.00000000000E+00 -0.76935893233E+03  0.76935893233E+03  0.00000000000E+00 0. -1.
    9000010    2    1    2  501    0 -0.21625982817E+03  0.10535570960E+02  0.59954597189E+03  0.11731783438E+04  0.98489224920E+03 0.  0.
   -9000010    2    1    2    0  503  0.21625982817E+03 -0.10535570960E+02  0.77072385522E+02  0.10421578782E+04  0.10165006537E+04 0.  0.
        -13    1    3    3    0    0 -0.55986321335E+03 -0.21147869586E+03  0.37965843738E+03  0.70873873657E+03  0.10566000000E+00 0.  1.
         13    1    4    4    0    0  0.21978955606E+03 -0.48268377105E+03  0.17778785206E+03  0.55937429624E+03  0.10566000000E+00 0. -1.
          4    1    3    3  501    0  0.34360338518E+03  0.22201426682E+03  0.21988753451E+03  0.46443960728E+03  0.00000000000E+00 0.  1.
         -4    1    4    4    0  503 -0.35297278838E+01  0.47214820009E+03 -0.10071546653E+03  0.48278358198E+03  0.00000000000E+00 0. -1.
</event>
<event>
 8    1  0.7572579E-006  0.1027236E+04  0.7818608E-02  0.8752333E-01
         21   -1    0    0  503  502  0.00000000000E+00  0.00000000000E+00  0.17773354196E+04  0.17773354196E+04  0.00000000000E+00 0.  1.
         21   -1    0    0  501  503 -0.00000000000E+00 -0.00000000000E+00 -0.85417856120E+03  0.85417856120E+03  0.00000000000E+00 0.  1.
    9000010    2    1    2  501    0 -0.81969094847E+01  0.17201990967E+03 -0.27318925243E+03  0.10629419346E+04  0.10126969685E+04 0.  0.
   -9000010    2    1    2    0  502  0.81969094847E+01 -0.17201990967E+03  0.11963461108E+04  0.15685720462E+04  0.99975807497E+03 0.  0.
        -13    1    3    3    0    0 -0.48081119650E+02 -0.30177337969E+03 -0.45986781860E+03  0.55213892138E+03  0.10566000000E+00 0.  1.
         13    1    4    4    0    0  0.24363434600E+03  0.35380882831E+03  0.41067273371E+03  0.59429831476E+03  0.10566000000E+00 0. -1.
          4    1    3    3  501    0  0.39884210165E+02  0.47379328936E+03  0.18667856617E+03  0.51080301324E+03  0.00000000000E+00 0.  1.
         -4    1    4    4    0  502 -0.23543743652E+03 -0.52582873799E+03  0.78567337710E+03  0.97427373140E+03  0.00000000000E+00 0. -1.
</event>
<event>
 8    1  0.7572579E-006  0.1034265E+04  0.7818608E-02  0.8750267E-01
         21   -1    0    0  503  502  0.00000000000E+00  0.00000000000E+00  0.10645554384E+04  0.10645554384E+04  0.00000000000E+00 0. -1.
         21   -1    0    0  501  503 -0.00000000000E+00 -0.00000000000E+00 -0.98485973884E+03  0.98485973884E+03  0.00000000000E+00 0. -1.
    9000010    2    1    2  501    0  0.13105540382E+03 -0.23520491204E+03  0.14570068000E+03  0.10444768644E+04  0.99860220443E+03 0.  0.
   -9000010    2    1    2    0  502 -0.13105540382E+03  0.23520491204E+03 -0.66004980455E+02  0.10049383128E+04  0.96594383146E+03 0.  0.
        -13    1    3    3    0    0 -0.26330987072E+03 -0.39026535055E+03 -0.18614391340E+03  0.50624964150E+03  0.10566000000E+00 0.  1.
         13    1    4    4    0    0 -0.29070255965E+03 -0.23338567177E+03 -0.27938648887E+03  0.46586872754E+03  0.10566000000E+00 0. -1.
          4    1    3    3  501    0  0.39436527454E+03  0.15506043852E+03  0.33184459340E+03  0.53822722294E+03  0.00000000000E+00 0.  1.
         -4    1    4    4    0  502  0.15964715583E+03  0.46859058381E+03  0.21338150841E+03  0.53906958524E+03  0.00000000000E+00 0. -1.
</event>
<event>
 8    1  0.7572579E-006  0.1047480E+04  0.7818608E-02  0.8735377E-01
         21   -1    0    0  503  502  0.00000000000E+00  0.00000000000E+00  0.13890642581E+04  0.13890642581E+04  0.00000000000E+00 0. -1.
         21   -1    0    0  501  503 -0.00000000000E+00 -0.00000000000E+00 -0.87070897452E+03  0.87070897452E+03  0.00000000000E+00 0. -1.
    9000010    2    1    2  501    0 -0.48375903617E+02  0.18647196173E+03  0.62982526363E+03  0.12063783772E+04  0.10107209832E+04 0.  0.
   -9000010    2    1    2    0  502  0.48375903617E+02 -0.18647196173E+03 -0.11146998000E+03  0.10533948554E+04  0.10296131042E+04 0.  0.
        -13    1    3    3    0    0  0.16056034097E+03  0.49743102334E+03  0.64650291372E+03  0.83137432886E+03  0.10566000000E+00 0.  1.
         13    1    4    4    0    0  0.70479208185E+02 -0.16248331107E+03  0.45382454058E+03  0.48716000447E+03  0.10566000000E+00 0. -1.
          4    1    3    3  501    0 -0.20893624459E+03 -0.31095906160E+03 -0.16677650095E+02  0.37500404839E+03  0.00000000000E+00 0.  1.
         -4    1    4    4    0  502 -0.22103304568E+02 -0.23988650662E+02 -0.56529452058E+03  0.56623485095E+03  0.00000000000E+00 0. -1.
</event>
<event>
 8    1  0.7572579E-006  0.1106312E+04  0.7818608E-02  0.8684090E-01
         21   -1    0    0  501  502  0.00000000000E+00  0.00000000000E+00  0.16391493041E+04  0.16391493041E+04  0.00000000000E+00 0. -1.
         21   -1    0    0  502  503 -0.00000000000E+00 -0.00000000000E+00 -0.11532200951E+04  0.11532200951E+04  0.00000000000E+00 0. -1.
    9000010    2    1    2  501    0 -0.42914557291E+03 -0.17218630028E+03  0.10842187510E+04  0.15490177005E+04  0.10050430299E+04 0.  0.
   -9000010    2    1    2    0  503  0.42914557291E+03  0.17218630028E+03 -0.59828954200E+03  0.12433516986E+04  0.98699494715E+03 0.  0.
        -13    1    3    3    0    0 -0.55955707050E+03  0.28206691539E+03  0.70372481337E+03  0.94228153119E+03  0.10566000000E+00 0.  1.
         13    1    4    4    0    0  0.42301164755E+03  0.24828577206E+03 -0.84942338102E+03  0.98086939496E+03  0.10566000000E+00 0. -1.
          4    1    3    3  501    0  0.13041149759E+03 -0.45425321567E+03  0.38049393759E+03  0.60673616935E+03  0.00000000000E+00 0.  1.
         -4    1    4    4    0  503  0.61339253567E+01 -0.76099471784E+02  0.25113383902E+03  0.26248230369E+03  0.00000000000E+00 0. -1.
</event>
<event>
 8    1  0.7572579E-006  0.1131922E+04  0.7818608E-02  0.8661794E-01
         21   -1    0    0  503  502  0.00000000000E+00  0.00000000000E+00  0.98964792982E+03  0.98964792982E+03  0.00000000000E+00 0. -1.
         21   -1    0    0  501  503 -0.00000000000E+00 -0.00000000000E+00 -0.20743064195E+04  0.20743064195E+04  0.00000000000E+00 0. -1.
    9000010    2    1    2  501    0  0.31545024305E+03  0.43549725306E+03 -0.14871515362E+04  0.18626019907E+04  0.98412385943E+03 0.  0.
   -9000010    2    1    2    0  502 -0.31545024305E+03 -0.43549725306E+03  0.40249304654E+03  0.12013523586E+04  0.99603219016E+03 0.  0.
        -13    1    3    3    0    0  0.18004302230E+03 -0.10736869086E+03  0.59462323773E+02  0.21789746389E+03  0.10566000000E+00 0.  1.
         13    1    4    4    0    0 -0.21824828507E+03 -0.44274921869E+03  0.71789932944E+03  0.87122823815E+03  0.10566000000E+00 0. -1.
          4    1    3    3  501    0  0.13540722074E+03  0.54286594392E+03 -0.15466138600E+04  0.16447045268E+04  0.00000000000E+00 0.  1.
         -4    1    4    4    0  502 -0.97201957976E+02  0.72519656288E+01 -0.31540628289E+03  0.33012412049E+03  0.00000000000E+00 0. -1.
</event>
<event>
 8    1  0.7572579E-006  0.1083308E+04  0.7818608E-02  0.8707589E-01
         21   -1    0    0  501  502  0.00000000000E+00  0.00000000000E+00  0.70421901746E+03  0.70421901746E+03  0.00000000000E+00 0.  1.
         21   -1    0    0  502  503 -0.00000000000E+00 -0.00000000000E+00 -0.16918214580E+04  0.16918214580E+04  0.00000000000E+00 0.  1.
    9000010    2    1    2  501    0 -0.37173332979E+03 -0.18320638342E+03 -0.24340088687E+03  0.11103149785E+04  0.10009021493E+04 0.  0.
   -9000010    2    1    2    0  503  0.37173332979E+03  0.18320638342E+03 -0.74420155364E+03  0.12857254969E+04  0.96307001484E+03 0.  0.
        -13    1    3    3    0    0 -0.41855175624E+03 -0.41203537655E+03  0.19057478901E+03  0.61747670851E+03  0.10566000000E+00 0.  1.
         13    1    4    4    0    0  0.54163761299E+03 -0.14363117352E+03 -0.13917272387E+03  0.57738226163E+03  0.10566000000E+00 0. -1.
          4    1    3    3  501    0  0.46818426452E+02  0.22882899313E+03 -0.43397567587E+03  0.49283827003E+03  0.00000000000E+00 0.  1.
         -4    1    4    4    0  503 -0.16990428320E+03  0.32683755694E+03 -0.60502882977E+03  0.70834323525E+03  0.00000000000E+00 0. -1.
</event>
<event>
 8    1  0.7572579E-006  0.1216958E+04  0.7818608E-02  0.8596221E-01
         21   -1    0    0  501  502  0.00000000000E+00  0.00000000000E+00  0.10934645104E+04  0.10934645104E+04  0.00000000000E+00 0.  1.
         21   -1    0    0  502  503 -0.00000000000E+00 -0.00000000000E+00 -0.18660410010E+04  0.18660410010E+04  0.00000000000E+00 0.  1.
    9000010    2    1    2  501    0 -0.25736977093E+03 -0.65755335552E+03  0.40038262838E+03  0.12692924985E+04  0.97579792132E+03 0.  0.
   -9000010    2    1    2    0  503  0.25736977093E+03  0.65755335552E+03 -0.11729591189E+04  0.16902130129E+04  0.99114646752E+03 0.  0.
        -13    1    3    3    0    0  0.59189719134E+02 -0.42268411359E+03 -0.26032681344E+03  0.49993533951E+03  0.10566000000E+00 0.  1.
         13    1    4    4    0    0  0.26153553916E+03  0.84878268289E+02  0.10141624951E+03  0.29307068345E+03  0.10566000000E+00 0. -1.
          4    1    3    3  501    0 -0.31655949007E+03 -0.23486924193E+03  0.66070944182E+03  0.76935715897E+03  0.00000000000E+00 0.  1.
         -4    1    4    4    0  503 -0.41657682287E+01  0.57267508723E+03 -0.12743753684E+04  0.13971423295E+04  0.00000000000E+00 0. -1.
</event>
<event>
 8    1  0.7572579E-006  0.1163540E+04  0.7818608E-02  0.8649412E-01
         21   -1    0    0  503  502  0.00000000000E+00  0.00000000000E+00  0.60571827687E+03  0.60571827687E+03  0.00000000000E+00 0. -1.
         21   -1    0    0  501  503 -0.00000000000E+00 -0.00000000000E+00 -0.21719293273E+04  0.21719293273E+04  0.00000000000E+00 0. -1.
    9000010    2    1    2  501    0 -0.71506144919E+02 -0.41747510789E+03 -0.10672973705E+04  0.15789074917E+04  0.10837096456E+04 0.  0.
   -9000010    2    1    2    0  502  0.71506144919E+02  0.41747510789E+03 -0.49891367990E+03  0.11987401124E+04  0.10043228578E+04 0.  0.
        -13    1    3    3    0    0  0.13112027112E+03 -0.66177416874E+03 -0.10659593913E+04  0.12615098141E+04  0.10566000000E+00 0.  1.
         13    1    4    4    0    0 -0.28119011139E+03 -0.22166917138E+03 -0.19795713540E+03  0.40913584407E+03  0.10566000000E+00 0. -1.
          4    1    3    3  501    0 -0.20262641604E+03  0.24429906086E+03 -0.13379792403E+01  0.31739767769E+03  0.00000000000E+00 0.  1.
         -4    1    4    4    0  502  0.35269625631E+03  0.63914427926E+03 -0.30095654451E+03  0.78960426836E+03  0.00000000000E+00 0. -1.
</event>
<event>
 8    1  0.7572579E-006  0.1295220E+04  0.7818608E-02  0.8546476E-01
         21   -1    0    0  503  502  0.00000000000E+00  0.00000000000E+00  0.15300283230E+04  0.15300283230E+04  0.00000000000E+00 0.  1.
         21   -1    0    0  501  503 -0.00000000000E+00 -0.00000000000E+00 -0.16623859454E+04  0.16623859454E+04  0.00000000000E+00 0.  1.
    9000010    2    1    2  501    0 -0.82238513184E+03  0.59787880915E+02  0.89666470305E+03  0.15753106422E+04  0.99885140731E+03 0.  0.
   -9000010    2    1    2    0  502  0.82238513184E+03 -0.59787880915E+02 -0.10290223255E+04  0.16171036262E+04  0.93607974862E+03 0.  0.
        -13    1    3    3    0    0  0.61088764511E+02  0.35081752572E+03  0.33384971536E+03  0.48811926526E+03  0.10566000000E+00 0.  1.
         13    1    4    4    0    0  0.84006890835E+03  0.20385695524E+03 -0.10403451328E+04  0.13526239076E+04  0.10566000000E+00 0. -1.
          4    1    3    3  501    0 -0.88347389635E+03 -0.29102964481E+03  0.56281498769E+03  0.10871913769E+04  0.00000000000E+00 0.  1.
         -4    1    4    4    0  502 -0.17683776510E+02 -0.26364483616E+03  0.11322807297E+02  0.26447971860E+03  0.00000000000E+00 0. -1.
</event>
<event>
 8    1  0.7572579E-006  0.1005850E+04  0.7818608E-02  0.8772667E-01
         21   -1    0    0  503  502  0.00000000000E+00  0.00000000000E+00  0.13746271460E+04  0.13746271460E+04  0.00000000000E+00 0. -1.
         21   -1    0    0  501  503 -0.00000000000E+00 -0.00000000000E+00 -0.87681713819E+03  0.87681713819E+03  0.00000000000E+00 0. -1.
    9000010    2    1    2  501    0  0.38143781881E+02  0.41230276218E+02 -0.21796128840E+03  0.10291941879E+04  0.10042801747E+04 0.  0.
   -9000010    2    1    2    0  502 -0.38143781881E+02 -0.41230276218E+02  0.71577129626E+03  0.12222500964E+04  0.98914703950E+03 0.  0.
        -13    1    3    3    0    0  0.16437114341E+03 -0.35910449555E+03  0.19490926922E+03  0.44041292658E+03  0.10566000000E+00 0.  1.
         13    1    4    4    0    0  0.12514535583E+02  0.47279224306E+03  0.37307485357E+03  0.60239021924E+03  0.10566000000E+00 0. -1.
          4    1    3    3  501    0 -0.12622736153E+03  0.40033477177E+03 -0.41287055762E+03  0.58878126128E+03  0.00000000000E+00 0.  1.
         -4    1    4    4    0  502 -0.50658317464E+02 -0.51402251928E+03  0.34269644268E+03  0.61985987713E+03  0.00000000000E+00 0. -1.
</event>
<event>
 8    1  0.7572579E-006  0.1035859E+04  0.7818608E-02  0.8750680E-01
         21   -1    0    0  503  502  0.00000000000E+00  0.00000000000E+00  0.75875056454E+03  0.75875056454E+03  0.00000000000E+00 0.  1.
         21   -1    0    0  501  503 -0.00000000000E+00 -0.00000000000E+00 -0.14348666727E+04  0.14348666727E+04  0.00000000000E+00 0.  1.
    9000010    2    1    2  501    0 -0.27413477046E+03  0.83269712176E+02 -0.58099739247E+03  0.11533997814E+04  0.95430046016E+03 0.  0.
   -9000010    2    1    2    0  502  0.27413477046E+03 -0.83269712176E+02 -0.95118715659E+02  0.10402174558E+04  0.99545018360E+03 0.  0.
        -13    1    3    3    0    0 -0.63094922970E+03  0.52074223041E+01 -0.35813680667E+03  0.72552465924E+03  0.10566000000E+00 0.  1.
         13    1    4    4    0    0  0.13379734402E+03 -0.33595240161E+03 -0.45335908426E+03  0.57991397281E+03  0.10566000000E+00 0. -1.
          4    1    3    3  501    0  0.35681445925E+03  0.78062289872E+02 -0.22286058580E+03  0.42787512213E+03  0.00000000000E+00 0.  1.
         -4    1    4    4    0  502  0.14033742643E+03  0.25268268943E+03  0.35824036860E+03  0.46030348303E+03  0.00000000000E+00 0. -1.
</event>
<event>
 8    1  0.7572579E-006  0.1105863E+04  0.7818608E-02  0.8691956E-01
         21   -1    0    0  503  502  0.00000000000E+00  0.00000000000E+00  0.99061712069E+03  0.99061712069E+03  0.00000000000E+00 0. -1.
         21   -1    0    0  501  503 -0.00000000000E+00 -0.00000000000E+00 -0.13438448539E+04  0.13438448539E+04  0.00000000000E+00 0. -1.
    9000010    2    1    2  501    0 -0.56351668865E+02  0.30754538916E+03  0.22968044801E+03  0.11294628516E+04  0.10607419799E+04 0.  0.
   -9000010    2    1    2    0  502  0.56351668865E+02 -0.30754538916E+03 -0.58290818124E+03  0.12049991230E+04  0.10072146056E+04 0.  0.
        -13    1    3    3    0    0  0.49685011882E+03  0.21625229609E+03  0.15652865885E+03  0.56402688619E+03  0.10566000000E+00 0.  1.
         13    1    4    4    0    0  0.44734493217E+02 -0.34660706421E+03 -0.85823985264E+03  0.92666784107E+03  0.10566000000E+00 0. -1.
          4    1    3    3  501    0 -0.55320178769E+03  0.91293093069E+02  0.73151789158E+02  0.56543596543E+03  0.00000000000E+00 0.  1.
         -4    1    4    4    0  502  0.11617175648E+02  0.39061675046E+02  0.27533167140E+03  0.27833128194E+03  0.00000000000E+00 0. -1.
</event>
<event>
 8    1  0.7572579E-006  0.1006455E+04  0.7818608E-02  0.8769432E-01
         21   -1    0    0  503  502  0.00000000000E+00  0.00000000000E+00  0.15145579309E+04  0.15145579309E+04  0.00000000000E+00 0.  1.
         21   -1    0    0  501  503 -0.00000000000E+00 -0.00000000000E+00 -0.71774287563E+03  0.71774287563E+03  0.00000000000E+00 0.  1.
    9000010    2    1    2  501    0 -0.12111950368E+03 -0.15033788720E+02  0.69651579745E+03  0.12208607838E+04  0.99522401922E+03 0.  0.
   -9000010    2    1    2    0  502  0.12111950368E+03  0.15033788720E+02  0.10029925777E+03  0.10114400226E+04  0.99902704134E+03 0.  0.
        -13    1    3    3    0    0 -0.26450097275E+02  0.24091471491E+03  0.86623017446E+03  0.89949665581E+03  0.10566000000E+00 0.  1.
         13    1    4    4    0    0  0.13132256981E+03 -0.71549838695E+02  0.54146731598E+03  0.56174003079E+03  0.10566000000E+00 0. -1.
          4    1    3    3  501    0 -0.94669406409E+02 -0.25594850363E+03 -0.16971437700E+03  0.32136412803E+03  0.00000000000E+00 0.  1.
         -4    1    4    4    0  502 -0.10203066127E+02  0.86583627415E+02 -0.44116805821E+03  0.44969999186E+03  0.00000000000E+00 0. -1.
</event>
<event>
 8    1  0.7572579E-006  0.1050391E+04  0.7818608E-02  0.8732887E-01
         21   -1    0    0  503  502  0.00000000000E+00  0.00000000000E+00  0.25001494031E+04  0.25001494031E+04  0.00000000000E+00 0.  1.
         21   -1    0    0  501  503 -0.00000000000E+00 -0.00000000000E+00 -0.43879218930E+03  0.43879218930E+03  0.00000000000E+00 0.  1.
    9000010    2    1    2  501    0 -0.30775851642E+03  0.31964944859E+02  0.11851326604E+04  0.15710631474E+04  0.98385107015E+03 0.  0.
   -9000010    2    1    2    0  502  0.30775851642E+03 -0.31964944859E+02  0.87622455335E+03  0.13678784450E+04  0.10037852909E+04 0.  0.
        -13    1    3    3    0    0 -0.14203540678E+03 -0.40696622665E+03  0.19036507285E+03  0.47120530402E+03  0.10566000000E+00 0.  1.
         13    1    4    4    0    0  0.19589849455E+01  0.41462843512E+03  0.10859887631E+03  0.42861906622E+03  0.10566000000E+00 0. -1.
          4    1    3    3  501    0 -0.16572310964E+03  0.43893117151E+03  0.99476758756E+03  0.10998578434E+04  0.00000000000E+00 0.  1.
         -4    1    4    4    0  502  0.30579953147E+03 -0.44659337998E+03  0.76762567704E+03  0.93925937873E+03  0.00000000000E+00 0. -1.
</event>
<event>
 8    1  0.7572579E-006  0.1030787E+04  0.7818608E-02  0.8748523E-01
         21   -1    0    0  501  502  0.00000000000E+00  0.00000000000E+00  0.14750013166E+04  0.14750013166E+04  0.00000000000E+00 0.  1.
         21   -1    0    0  502  503 -0.00000000000E+00 -0.00000000000E+00 -0.77682404309E+03  0.77682404309E+03  0.00000000000E+00 0.  1.
    9000010    2    1    2  501    0 -0.15637822128E+03 -0.76479947869E+02  0.66967759126E+03  0.12206442780E+04  0.10055849276E+04 0.  0.
   -9000010    2    1    2    0  503  0.15637822128E+03  0.76479947869E+02  0.28499682254E+02  0.10311810817E+04  0.10159817227E+04 0.  0.
        -13    1    3    3    0    0 -0.31442848008E+03 -0.11402759145E+03  0.88777832064E+03  0.94869274186E+03  0.10566000000E+00 0.  1.
         13    1    4    4    0    0 -0.37762212138E+03 -0.18925854970E+03  0.88948173923E+02  0.43165849232E+03  0.10566000000E+00 0. -1.
          4    1    3    3  501    0  0.15805025880E+03  0.37547643583E+02 -0.21810072937E+03  0.27195153612E+03  0.00000000000E+00 0.  1.
         -4    1    4    4    0  503  0.53400034265E+03  0.26573849757E+03 -0.60448491669E+02  0.59952258939E+03  0.00000000000E+00 0. -1.
</event>
<event>
 8    1  0.7572579E-006  0.1018259E+04  0.7818608E-02  0.8760972E-01
         21   -1    0    0  503  502  0.00000000000E+00  0.00000000000E+00  0.83135461875E+03  0.83135461875E+03  0.00000000000E+00 0.  1.
         21   -1    0    0  501  503 -0.00000000000E+00 -0.00000000000E+00 -0.13697471302E+04  0.13697471302E+04  0.00000000000E+00 0.  1.
    9000010    2    1    2  501    0 -0.17372274217E+03  0.11963365111E+03 -0.62303775643E+03  0.11937451032E+04  0.99617243678E+03 0.  0.
   -9000010    2    1    2    0  502  0.17372274217E+03 -0.11963365111E+03  0.84645244988E+02  0.10073566458E+04  0.98138208290E+03 0.  0.
        -13    1    3    3    0    0  0.63446269635E+02 -0.10741214995E+03  0.23993276953E+03  0.27042659659E+03  0.10566000000E+00 0.  1.
         13    1    4    4    0    0 -0.10065655286E+03  0.39807196395E+03 -0.24605819217E+02  0.41133743766E+03  0.10566000000E+00 0. -1.
          4    1    3    3  501    0 -0.23716901180E+03  0.22704580105E+03 -0.86297052595E+03  0.92331850658E+03  0.00000000000E+00 0.  1.
         -4    1    4    4    0  502  0.27437929503E+03 -0.51770561505E+03  0.10925106420E+03  0.59601920811E+03  0.00000000000E+00 0. -1.
</event>
<event>
 8    1  0.7572579E-006  0.1021922E+04  0.7818608E-02  0.8754721E-01
         21   -1    0    0  501  502  0.00000000000E+00  0.00000000000E+00  0.10911037421E+04  0.10911037421E+04  0.00000000000E+00 0. -1.
         21   -1    0    0  502  503 -0.00000000000E+00 -0.00000000000E+00 -0.10079418717E+04  0.10079418717E+04  0.00000000000E+00 0. -1.
    9000010    2    1    2  501    0  0.31343140783E+02  0.17520812945E+03  0.28150137062E+03  0.10580540297E+04  0.10042684039E+04 0.  0.
   -9000010    2    1    2    0  503 -0.31343140783E+02 -0.17520812945E+03 -0.19833950026E+03  0.10409915841E+04  0.10063024593E+04 0.  0.
        -13    1    3    3    0    0  0.10133157713E+03  0.58975900575E+03  0.14109070580E+03  0.61480921579E+03  0.10566000000E+00 0.  1.
         13    1    4    4    0    0 -0.51116703181E+03 -0.14322234476E+03 -0.17717004379E+03  0.55963703418E+03  0.10566000000E+00 0. -1.
          4    1    3    3  501    0 -0.69988436343E+02 -0.41455087630E+03  0.14041066482E+03  0.44324481391E+03  0.00000000000E+00 0.  1.
         -4    1    4    4    0  503  0.47982389102E+03 -0.31985784691E+02 -0.21169456478E+02  0.48135454990E+03  0.00000000000E+00 0. -1.
</event>
<event>
 8    1  0.7572579E-006  0.1061786E+04  0.7818608E-02  0.8719283E-01
         21   -1    0    0  503  502  0.00000000000E+00  0.00000000000E+00  0.11889270271E+04  0.11889270271E+04  0.00000000000E+00 0.  1.
         21   -1    0    0  501  503 -0.00000000000E+00 -0.00000000000E+00 -0.11921785487E+04  0.11921785487E+04  0.00000000000E+00 0.  1.
    9000010    2    1    2  501    0 -0.25158601900E+03 -0.25263554629E+03 -0.54319185628E+03  0.11899190238E+04  0.99685989298E+03 0.  0.
   -9000010    2    1    2    0  502  0.25158601900E+03  0.25263554629E+03  0.53994033464E+03  0.11911865520E+04  0.10001347872E+04 0.  0.
        -13    1    3    3    0    0 -0.39097927915E+01 -0.44571363776E+03 -0.70695690387E+03  0.83574159192E+03  0.10566000000E+00 0.  1.
         13    1    4    4    0    0  0.17203434536E+03  0.63922276135E+03  0.39419829894E+03  0.77045042973E+03  0.10566000000E+00 0. -1.
          4    1    3    3  501    0 -0.24767622620E+03  0.19307809147E+03  0.16376504759E+03  0.35417743187E+03  0.00000000000E+00 0.  1.
         -4    1    4    4    0  502  0.79551673636E+02 -0.38658721506E+03  0.14574203570E+03  0.42073612229E+03  0.00000000000E+00 0. -1.
</event>
<event>
 8    1  0.7572579E-006  0.1194184E+04  0.7818608E-02  0.8619115E-01
         21   -1    0    0  501  502  0.00000000000E+00  0.00000000000E+00  0.67721203320E+03  0.67721203320E+03  0.00000000000E+00 0. -1.
         21   -1    0    0  502  503 -0.00000000000E+00 -0.00000000000E+00 -0.24116215871E+04  0.24116215871E+04  0.00000000000E+00 0. -1.
    9000010    2    1    2  501    0 -0.56074010228E+02  0.55860356654E+03 -0.26762308703E+03  0.12238042863E+04  0.10539888876E+04 0.  0.
   -9000010    2    1    2    0  503  0.56074010228E+02 -0.55860356654E+03 -0.14667864669E+04  0.18650293340E+04  0.10058278372E+04 0.  0.
        -13    1    3    3    0    0  0.36750914326E+03  0.51535417246E+03 -0.43313586422E+03  0.76698082211E+03  0.10566000000E+00 0.  1.
         13    1    4    4    0    0 -0.89305724532E+02 -0.44666777577E+02  0.13990800047E+03  0.17188627989E+03  0.10566000000E+00 0. -1.
          4    1    3    3  501    0 -0.42358315349E+03  0.43249394086E+02  0.16551277719E+03  0.45682346417E+03  0.00000000000E+00 0.  1.
         -4    1    4    4    0  503  0.14537973476E+03 -0.51393678897E+03 -0.16066944674E+04  0.16931430541E+04  0.00000000000E+00 0. -1.
</event>
<event>
 8    1  0.7572579E-006  0.1010772E+04  0.7818608E-02  0.8768581E-01
         21   -1    0    0  503  502  0.00000000000E+00  0.00000000000E+00  0.38016944701E+03  0.38016944701E+03  0.00000000000E+00 0. -1.
         21   -1    0    0  501  503 -0.00000000000E+00 -0.00000000000E+00 -0.28040553158E+04  0.28040553158E+04  0.00000000000E+00 0. -1.
    9000010    2    1    2  501    0  0.93913977982E+02 -0.59022727223E+02 -0.16049725054E+04  0.18967329789E+04  0.10046669760E+04 0.  0.
   -9000010    2    1    2    0  502 -0.93913977982E+02  0.59022727223E+02 -0.81891336339E+03  0.12874917839E+04  0.98727528040E+03 0.  0.
        -13    1    3    3    0    0 -0.37292124975E+02  0.68769661302E+02  0.13021405652E+03  0.15190681545E+03  0.10566000000E+00 0.  1.
         13    1    4    4    0    0  0.29743624216E+03 -0.13560117263E+03 -0.78353391974E+03  0.84898846324E+03  0.10566000000E+00 0. -1.
          4    1    3    3  501    0  0.13120610296E+03 -0.12779238852E+03 -0.17351865619E+04  0.17448261634E+04  0.00000000000E+00 0.  1.
         -4    1    4    4    0  502 -0.39135022014E+03  0.19462389985E+03 -0.35379443647E+02  0.43850332066E+03  0.00000000000E+00 0. -1.
</event>
<event>
 8    1  0.7572579E-006  0.1075793E+04  0.7818608E-02  0.8707881E-01
         21   -1    0    0  503  502  0.00000000000E+00  0.00000000000E+00  0.99944309752E+03  0.99944309752E+03  0.00000000000E+00 0.  1.
         21   -1    0    0  501  503 -0.00000000000E+00 -0.00000000000E+00 -0.18220650283E+04  0.18220650283E+04  0.00000000000E+00 0.  1.
    9000010    2    1    2  501    0  0.18452306236E+03 -0.34767464114E+03 -0.12667176661E+04  0.16576564088E+04  0.99414521443E+03 0.  0.
   -9000010    2    1    2    0  502 -0.18452306236E+03  0.34767464114E+03  0.44409573536E+03  0.11638517170E+04  0.10012009690E+04 0.  0.
        -13    1    3    3    0    0 -0.16765972582E+03 -0.60830042169E+03 -0.73558505577E+03  0.96913599258E+03  0.10566000000E+00 0.  1.
         13    1    4    4    0    0 -0.35046484392E+03 -0.25426393646E+03  0.77717182460E+02  0.43990422574E+03  0.10566000000E+00 0. -1.
          4    1    3    3  501    0  0.35218278818E+03  0.26062578055E+03 -0.53113261036E+03  0.68852041623E+03  0.00000000000E+00 0.  1.
         -4    1    4    4    0  502  0.16594178156E+03  0.60193857760E+03  0.36637855290E+03  0.72394749126E+03  0.00000000000E+00 0. -1.
</event>
<event>
 8    1  0.7842516E-006  0.1008664E+04  0.7818608E-02  0.8773609E-01
         21   -1    0    0  501  502  0.00000000000E+00  0.00000000000E+00  0.84462335083E+03  0.84462335083E+03  0.00000000000E+00 0. -1.
         21   -1    0    0  502  503 -0.00000000000E+00 -0.00000000000E+00 -0.12614274516E+04  0.12614274516E+04  0.00000000000E+00 0. -1.
    9000010    2    1    2  501    0 -0.17842759313E+03  0.35569055750E+01  0.73901669393E+02  0.10113674468E+04  0.99275052159E+03 0.  0.
   -9000010    2    1    2    0  503  0.17842759313E+03 -0.35569055750E+01 -0.49070577021E+03  0.10946833557E+04  0.96212807814E+03 0.  0.
        -13    1    3    3    0    0  0.14614163597E+03 -0.28234809574E+03 -0.30186287770E+03  0.43840510151E+03  0.10566000000E+00 0.  1.
         13    1    4    4    0    0  0.44693144955E+03  0.29948231800E+03 -0.13244702266E+03  0.55405740169E+03  0.10566000000E+00 0. -1.
          4    1    3    3  501    0 -0.32456922910E+03  0.28590500132E+03  0.37576454709E+03  0.57296234528E+03  0.00000000000E+00 0.  1.
         -4    1    4    4    0  503 -0.26850385642E+03 -0.30303922358E+03 -0.35825874755E+03  0.54062595400E+03  0.00000000000E+00 0. -1.
</event>
<event>
 8    1  0.7572579E-006  0.1045339E+04  0.7818608E-02  0.8734778E-01
         21   -1    0    0  503  502  0.00000000000E+00  0.00000000000E+00  0.17006672125E+04  0.17006672125E+04  0.00000000000E+00 0. -1.
         21   -1    0    0  501  503 -0.00000000000E+00 -0.00000000000E+00 -0.75334841721E+03  0.75334841721E+03  0.00000000000E+00 0. -1.
    9000010    2    1    2  501    0 -0.26553594451E+03 -0.74141464647E+02 -0.79366671543E+01  0.10379480689E+04  0.10006332537E+04 0.  0.
   -9000010    2    1    2    0  502  0.26553594451E+03  0.74141464647E+02  0.95525546242E+03  0.14160675608E+04  0.10083293330E+04 0.  0.
        -13    1    3    3    0    0  0.51850695394E+02  0.27124674737E+03 -0.35837079607E+03  0.45243002908E+03  0.10566000000E+00 0.  1.
         13    1    4    4    0    0  0.39003873217E+03 -0.71138270293E+02 -0.43773535108E+02  0.39888218766E+03  0.10566000000E+00 0. -1.
          4    1    3    3  501    0 -0.31738663990E+03 -0.34538821202E+03  0.35043412892E+03  0.58551803977E+03  0.00000000000E+00 0.  1.
         -4    1    4    4    0  502 -0.12450278766E+03  0.14527973494E+03  0.99902899753E+03  0.10171853732E+04  0.00000000000E+00 0. -1.
</event>
<event>
 8    1  0.7572579E-006  0.1012955E+04  0.7818608E-02  0.8764365E-01
         21   -1    0    0  503  502  0.00000000000E+00  0.00000000000E+00  0.91112888973E+03  0.91112888973E+03  0.00000000000E+00 0.  1.
         21   -1    0    0  501  503 -0.00000000000E+00 -0.00000000000E+00 -0.11884282560E+04  0.11884282560E+04  0.00000000000E+00 0.  1.
    9000010    2    1    2  501    0  0.57392537460E+02 -0.11573345786E+03 -0.39492034658E+03  0.10797965619E+04  0.99664958656E+03 0.  0.
   -9000010    2    1    2    0  502 -0.57392537460E+02  0.11573345786E+03  0.11762098031E+03  0.10197605838E+04  0.10046834410E+04 0.  0.
        -13    1    3    3    0    0  0.21169697759E+03 -0.39892377811E+03  0.12444617936E+03  0.46844706615E+03  0.10566000000E+00 0.  1.
         13    1    4    4    0    0  0.42395645920E+03  0.24567766911E+03  0.16950757012E+03  0.51848763138E+03  0.10566000000E+00 0. -1.
          4    1    3    3  501    0 -0.15430444013E+03  0.28319032025E+03 -0.51936652593E+03  0.61134949578E+03  0.00000000000E+00 0.  1.
         -4    1    4    4    0  502 -0.48134899666E+03 -0.12994421125E+03 -0.51886589813E+02  0.50127295242E+03  0.00000000000E+00 0. -1.
</event>
<event>
 8    1  0.7572579E-006  0.1027973E+04  0.7818608E-02  0.8765186E-01
         21   -1    0    0  501  502  0.00000000000E+00  0.00000000000E+00  0.87637836261E+03  0.87637836261E+03  0.00000000000E+00 0. -1.
         21   -1    0    0  502  503 -0.00000000000E+00 -0.00000000000E+00 -0.11403288439E+04  0.11403288439E+04  0.00000000000E+00 0. -1.
    9000010    2    1    2  501    0  0.13990068649E+03  0.22702829292E+03 -0.24288730943E+03  0.98851879924E+03  0.92035923612E+03 0.  0.
   -9000010    2    1    2    0  503 -0.13990068649E+03 -0.22702829292E+03 -0.21063171819E+02  0.10281884072E+04  0.99278078934E+03 0.  0.
        -13    1    3    3    0    0  0.39020538208E+03  0.45491737913E+03 -0.56261307462E+02  0.60197625196E+03  0.10566000000E+00 0.  1.
         13    1    4    4    0    0 -0.45645557591E+03  0.19655150633E+03  0.23393939817E+02  0.49752535111E+03  0.10566000000E+00 0. -1.
          4    1    3    3  501    0 -0.25030469560E+03 -0.22788908621E+03 -0.18662600197E+03  0.38654254728E+03  0.00000000000E+00 0.  1.
         -4    1    4    4    0  503  0.31655488942E+03 -0.42357979926E+03 -0.44457111636E+02  0.53066305612E+03  0.00000000000E+00 0. -1.
</event>
<event>
 8    1  0.7572579E-006  0.1071544E+04  0.7818608E-02  0.8720510E-01
         21   -1    0    0  503  502  0.00000000000E+00  0.00000000000E+00  0.98256471774E+03  0.98256471774E+03  0.00000000000E+00 0. -1.
         21   -1    0    0  501  503 -0.00000000000E+00 -0.00000000000E+00 -0.12414760416E+04  0.12414760416E+04  0.00000000000E+00 0. -1.
    9000010    2    1    2  501    0  0.17676212256E+03  0.21109754154E+03 -0.47752275328E+03  0.11304241603E+04  0.98692643210E+03 0.  0.
   -9000010    2    1    2    0  502 -0.17676212256E+03 -0.21109754154E+03  0.21861142945E+03  0.10936165990E+04  0.10355671337E+04 0.  0.
        -13    1    3    3    0    0  0.17709295785E+03  0.58131443874E+03 -0.12746855794E+03  0.62091596600E+03  0.10566000000E+00 0.  1.
         13    1    4    4    0    0 -0.14994486565E+02 -0.61369015948E+03  0.24022083630E+03  0.65920141674E+03  0.10566000000E+00 0. -1.
          4    1    3    3  501    0 -0.33083528217E+00 -0.37021689721E+03 -0.35005419534E+03  0.50950819434E+03  0.00000000000E+00 0.  1.
         -4    1    4    4    0  502 -0.16176763600E+03  0.40259261794E+03 -0.21609406854E+02  0.43441518222E+03  0.00000000000E+00 0. -1.
</event>
<event>
 8    1  0.7572579E-006  0.1030026E+04  0.7818608E-02  0.8751123E-01
         21   -1    0    0  503  502  0.00000000000E+00  0.00000000000E+00  0.10977979889E+04  0.10977979889E+04  0.00000000000E+00 0. -1.
         21   -1    0    0  501  503 -0.00000000000E+00 -0.00000000000E+00 -0.97117512822E+03  0.97117512822E+03  0.00000000000E+00 0. -1.
    9000010    2    1    2  501    0  0.20646567008E+02  0.26916109413E+03 -0.92016392348E+02  0.10341280579E+04  0.99402205630E+03 0.  0.
   -9000010    2    1    2    0  502 -0.20646567008E+02 -0.26916109413E+03  0.21863925300E+03  0.10348450592E+04  0.97479597773E+03 0.  0.
        -13    1    3    3    0    0 -0.24995650963E+03 -0.16149874883E+02  0.35773854943E+03  0.43671038009E+03  0.10566000000E+00 0.  1.
         13    1    4    4    0    0  0.82275525312E+02 -0.30777936407E+03  0.57748724629E+03  0.65953690557E+03  0.10566000000E+00 0. -1.
          4    1    3    3  501    0  0.27060307664E+03  0.28531096901E+03 -0.44975494178E+03  0.59741767783E+03  0.00000000000E+00 0.  1.
         -4    1    4    4    0  502 -0.10292209232E+03  0.38618269941E+02 -0.35884799329E+03  0.37530815359E+03  0.00000000000E+00 0. -1.
</event>
<event>
 8    1  0.7572579E-006  0.1018722E+04  0.7818608E-02  0.8758629E-01
         21   -1    0    0  501  502  0.00000000000E+00  0.00000000000E+00  0.17134774454E+04  0.17134774454E+04  0.00000000000E+00 0.  1.
         21   -1    0    0  502  503 -0.00000000000E+00 -0.00000000000E+00 -0.62340477329E+03  0.62340477329E+03  0.00000000000E+00 0.  1.
    9000010    2    1    2  501    0  0.17298009083E+03 -0.15048043461E+03  0.33002631199E+03  0.10708461013E+04  0.99258628489E+03 0.  0.
   -9000010    2    1    2    0  503 -0.17298009083E+03  0.15048043461E+03  0.76004636009E+03  0.12660361174E+04  0.98621017438E+03 0.  0.
        -13    1    3    3    0    0  0.49652647883E+03 -0.27001122212E+03  0.43175601363E+03  0.71123685979E+03  0.10566000000E+00 0.  1.
         13    1    4    4    0    0 -0.49794955459E+03  0.21074398416E+03  0.76342002796E+03  0.93550891820E+03  0.10566000000E+00 0. -1.
          4    1    3    3  501    0 -0.32354638801E+03  0.11953078751E+03 -0.10172970163E+03  0.35960924147E+03  0.00000000000E+00 0.  1.
         -4    1    4    4    0  503  0.32496946376E+03 -0.60263549547E+02 -0.33736678644E+01  0.33052719921E+03  0.00000000000E+00 0. -1.
</event>
<event>
 8    1  0.7572579E-006  0.1037579E+04  0.7818608E-02  0.8743285E-01
         21   -1    0    0  503  502  0.00000000000E+00  0.00000000000E+00  0.16967615581E+04  0.16967615581E+04  0.00000000000E+00 0.  1.
         21   -1    0    0  501  503 -0.00000000000E+00 -0.00000000000E+00 -0.63043538100E+03  0.63043538100E+03  0.00000000000E+00 0.  1.
    9000010    2    1    2  501    0  0.18423082441E+02 -0.18799918398E+03  0.62919329527E+03  0.12012945988E+04  0.10057541485E+04 0.  0.
   -9000010    2    1    2    0  502 -0.18423082441E+02  0.18799918398E+03  0.43713288180E+03  0.11259023403E+04  0.10202390996E+04 0.  0.
        -13    1    3    3    0    0 -0.15676010329E+02 -0.20414732231E+03  0.90248063256E+03  0.92541513377E+03  0.10566000000E+00 0.  1.
         13    1    4    4    0    0 -0.33393366734E+03 -0.26630388286E+03  0.37668564722E+03  0.56949235306E+03  0.10566000000E+00 0. -1.
          4    1    3    3  501    0  0.34099092770E+02  0.16148138328E+02 -0.27328733729E+03  0.27587946502E+03  0.00000000000E+00 0.  1.
         -4    1    4    4    0  502  0.31551058490E+03  0.45430306684E+03  0.60447234585E+02  0.55640998723E+03  0.00000000000E+00 0. -1.
</event>
<event>
 8    1  0.7572579E-006  0.1011227E+04  0.7818608E-02  0.8773728E-01
         21   -1    0    0  501  502  0.00000000000E+00  0.00000000000E+00  0.17956864221E+04  0.17956864221E+04  0.00000000000E+00 0.  1.
         21   -1    0    0  502  503 -0.00000000000E+00 -0.00000000000E+00 -0.62518728504E+03  0.62518728504E+03  0.00000000000E+00 0.  1.
    9000010    2    1    2  501    0  0.56844190735E+02  0.84115498940E+02  0.10241875138E+04  0.14392842530E+04  0.10061174972E+04 0.  0.
   -9000010    2    1    2    0  503 -0.56844190735E+02 -0.84115498940E+02  0.14631162317E+03  0.98158945409E+03  0.96529999799E+03 0.  0.
        -13    1    3    3    0    0 -0.25828813357E+02 -0.40170277308E+03  0.13843642817E+03  0.42567229333E+03  0.10566000000E+00 0.  1.
         13    1    4    4    0    0  0.89160504166E+02 -0.47476166814E+03 -0.10546658050E+03  0.49444054021E+03  0.10566000000E+00 0. -1.
          4    1    3    3  501    0  0.82673004092E+02  0.48581827202E+03  0.88575108567E+03  0.10136119597E+04  0.00000000000E+00 0.  1.
         -4    1    4    4    0  503 -0.14600469490E+03  0.39064616920E+03  0.25177820367E+03  0.48714891387E+03  0.00000000000E+00 0. -1.
</event>
<event>
 8    1  0.7572579E-006  0.1003230E+04  0.7818608E-02  0.8784742E-01
         21   -1    0    0  501  502  0.00000000000E+00  0.00000000000E+00  0.14068178137E+04  0.14068178137E+04  0.00000000000E+00 0. -1.
         21   -1    0    0  502  503 -0.00000000000E+00 -0.00000000000E+00 -0.72808432579E+03  0.72808432579E+03  0.00000000000E+00 0. -1.
    9000010    2    1    2  501    0  0.67694899320E+02 -0.31756821573E+02  0.63099968468E+03  0.11851714974E+04  0.10004397938E+04 0.  0.
   -9000010    2    1    2    0  503 -0.67694899320E+02  0.31756821573E+02  0.47733803217E+02  0.94973064211E+03  0.94557849039E+03 0.  0.
        -13    1    3    3    0    0  0.27318406468E+03  0.27876995637E+03  0.70471512153E+03  0.80558403376E+03  0.10566000000E+00 0.  1.
         13    1    4    4    0    0 -0.35938350868E+02 -0.40822774820E+03  0.23284467860E+03  0.47133651988E+03  0.10566000000E+00 0. -1.
          4    1    3    3  501    0 -0.20548916536E+03 -0.31052677794E+03 -0.73715436849E+02  0.37958746361E+03  0.00000000000E+00 0.  1.
         -4    1    4    4    0  503 -0.31756548452E+02  0.43998456977E+03 -0.18511087538E+03  0.47839412223E+03  0.00000000000E+00 0. -1.
</event>
<event>
 8    1  0.7572579E-006  0.1048410E+04  0.7818608E-02  0.8730423E-01
         21   -1    0    0  501  502  0.00000000000E+00  0.00000000000E+00  0.81424277966E+03  0.81424277966E+03  0.00000000000E+00 0. -1.
         21   -1    0    0  502  503 -0.00000000000E+00 -0.00000000000E+00 -0.15050299911E+04  0.15050299911E+04  0.00000000000E+00 0. -1.
    9000010    2    1    2  501    0 -0.33160130016E+03  0.25909487988E+02  0.27094030110E+02  0.10487596861E+04  0.99424950031E+03 0.  0.
   -9000010    2    1    2    0  503  0.33160130016E+03 -0.25909487988E+02 -0.71788124159E+03  0.12705130847E+04  0.99409219771E+03 0.  0.
        -13    1    3    3    0    0 -0.66196404042E+03  0.16297473415E+03  0.82941035874E+02  0.68675787683E+03  0.10566000000E+00 0.  1.
         13    1    4    4    0    0 -0.75997805419E+02  0.41883267781E+03 -0.41889696408E+03  0.59721952087E+03  0.10566000000E+00 0. -1.
          4    1    3    3  501    0  0.33036274026E+03 -0.13706524617E+03 -0.55847005764E+02  0.36200180927E+03  0.00000000000E+00 0.  1.
         -4    1    4    4    0  503  0.40759910558E+03 -0.44474216579E+03 -0.29898427752E+03  0.67329356384E+03  0.00000000000E+00 0. -1.
</event>
<event>
 8    1  0.7572579E-006  0.9982929E+03  0.7818608E-02  0.8778658E-01
         21   -1    0    0  501  502  0.00000000000E+00  0.00000000000E+00  0.92242048326E+03  0.92242048326E+03  0.00000000000E+00 0.  1.
         21   -1    0    0  502  503 -0.00000000000E+00 -0.00000000000E+00 -0.11173920999E+04  0.11173920999E+04  0.00000000000E+00 0.  1.
    9000010    2    1    2  501    0  0.15389257791E+01  0.23168802230E+03  0.11387056934E+03  0.10047662821E+04  0.97103401958E+03 0.  0.
   -9000010    2    1    2    0  503 -0.15389257791E+01 -0.23168802230E+03 -0.30884218602E+03  0.10350463011E+04  0.96034141924E+03 0.  0.
        -13    1    3    3    0    0  0.42998081853E+03  0.25063271828E+03 -0.12597880442E+03  0.51339159917E+03  0.10566000000E+00 0.  1.
         13    1    4    4    0    0 -0.95164404109E+02  0.32071747726E+03  0.91031919763E+02  0.34670273378E+03  0.10566000000E+00 0. -1.
          4    1    3    3  501    0 -0.42844189275E+03 -0.18944695977E+02  0.23984937376E+03  0.49137468297E+03  0.00000000000E+00 0.  1.
         -4    1    4    4    0  503  0.93625478330E+02 -0.55240549956E+03 -0.39987410578E+03  0.68834356728E+03  0.00000000000E+00 0. -1.
</event>
<event>
 8    1  0.7572579E-006  0.1012915E+04  0.7818608E-02  0.8762995E-01
         21   -1    0    0  503  502  0.00000000000E+00  0.00000000000E+00  0.35633008974E+03  0.35633008974E+03  0.00000000000E+00 0.  1.
         21   -1    0    0  501  503 -0.00000000000E+00 -0.00000000000E+00 -0.29096014333E+04  0.29096014333E+04  0.00000000000E+00 0.  1.
    9000010    2    1    2  501    0  0.76401087949E+02  0.11755749165E+03 -0.14587483398E+04  0.17759345940E+04  0.10031650279E+04 0.  0.
   -9000010    2    1    2    0  502 -0.76401087949E+02 -0.11755749165E+03 -0.10945230037E+04  0.14899969290E+04  0.10012259249E+04 0.  0.
        -13    1    3    3    0    0 -0.34865395406E+03 -0.26369492654E+03 -0.71890816016E+03  0.84138192747E+03  0.10566000000E+00 0.  1.
         13    1    4    4    0    0  0.11268120183E+03 -0.26220304892E+03  0.76140560332E+02  0.29537245674E+03  0.10566000000E+00 0. -1.
          4    1    3    3  501    0  0.42505504201E+03  0.38125241819E+03 -0.73984017969E+03  0.93455266657E+03  0.00000000000E+00 0.  1.
         -4    1    4    4    0  502 -0.18908228977E+03  0.14464555727E+03 -0.11706635640E+04  0.11946244722E+04  0.00000000000E+00 0. -1.
</event>
<event>
 8    1  0.7572579E-006  0.1026931E+04  0.7818608E-02  0.8763167E-01
         21   -1    0    0  501  502  0.00000000000E+00  0.00000000000E+00  0.13476866767E+04  0.13476866767E+04  0.00000000000E+00 0.  1.
         21   -1    0    0  502  503 -0.00000000000E+00 -0.00000000000E+00 -0.78089126012E+03  0.78089126012E+03  0.00000000000E+00 0.  1.
    9000010    2    1    2  501    0  0.70923858161E+02 -0.86633698108E+02  0.53656195749E+03  0.11586569216E+04  0.10208092557E+04 0.  0.
   -9000010    2    1    2    0  503 -0.70923858161E+02  0.86633698108E+02  0.30233459131E+02  0.96992101527E+03  0.96296267970E+03 0.  0.
        -13    1    3    3    0    0 -0.46773010133E+03 -0.64907745601E+02  0.15060837667E+03  0.49564842118E+03  0.10566000000E+00 0.  1.
         13    1    4    4    0    0 -0.45559803429E+02 -0.30045487410E+03 -0.32427587598E+03  0.44441386338E+03  0.10566000000E+00 0. -1.
          4    1    3    3  501    0  0.53865395949E+03 -0.21725952507E+02  0.38595358082E+03  0.66300850042E+03  0.00000000000E+00 0.  1.
         -4    1    4    4    0  503 -0.25364054732E+02  0.38708857221E+03  0.35450933511E+03  0.52550715189E+03  0.00000000000E+00 0. -1.
</event>
<event>
 8    1  0.7572579E-006  0.1198790E+04  0.7818608E-02  0.8639395E-01
         21   -1    0    0  503  502  0.00000000000E+00  0.00000000000E+00  0.10871501187E+04  0.10871501187E+04  0.00000000000E+00 0. -1.
         21   -1    0    0  501  503 -0.00000000000E+00 -0.00000000000E+00 -0.17081313395E+04  0.17081313395E+04  0.00000000000E+00 0. -1.
    9000010    2    1    2  501    0 -0.15598643102E+03 -0.19024569696E+03 -0.11199189766E+04  0.16405232206E+04  0.11732743631E+04 0.  0.
   -9000010    2    1    2    0  502  0.15598643102E+03  0.19024569696E+03  0.49893775577E+03  0.11547582377E+04  0.10119300922E+04 0.  0.
        -13    1    3    3    0    0 -0.46164353890E+03  0.31027957886E+03 -0.79438107041E+03  0.96975742856E+03  0.10566000000E+00 0.  1.
         13    1    4    4    0    0  0.57001864744E+03  0.81072411806E+00  0.37696699974E+03  0.68339303900E+03  0.10566000000E+00 0. -1.
          4    1    3    3  501    0  0.30565710788E+03 -0.50052527582E+03 -0.32553790622E+03  0.67076579201E+03  0.00000000000E+00 0.  1.
         -4    1    4    4    0  502 -0.41403221642E+03  0.18943497284E+03  0.12197075603E+03  0.47136519865E+03  0.00000000000E+00 0. -1.
</event>
<event>
 8    1  0.9573566E-006  0.1002962E+04  0.7818608E-02  0.8772541E-01
         21   -1    0    0  503  502  0.00000000000E+00  0.00000000000E+00  0.24919450867E+04  0.24919450867E+04  0.00000000000E+00 0.  1.
         21   -1    0    0  501  503 -0.00000000000E+00 -0.00000000000E+00 -0.47383576549E+03  0.47383576549E+03  0.00000000000E+00 0.  1.
    9000010    2    1    2  501    0  0.89979813440E+02  0.10935889953E+03  0.43205666499E+03  0.10892162141E+04  0.98977940151E+03 0.  0.
   -9000010    2    1    2    0  502 -0.89979813440E+02 -0.10935889953E+03  0.15860526563E+04  0.18765646381E+04  0.99291292506E+03 0.  0.
        -13    1    3    3    0    0 -0.20907688935E+03  0.71190438364E+02  0.66979748896E+03  0.70527293409E+03  0.10566000000E+00 0.  1.
         13    1    4    4    0    0 -0.23520853801E+03 -0.51497320642E+03  0.79795302368E+03  0.97839128106E+03  0.10566000000E+00 0. -1.
          4    1    3    3  501    0  0.29905670279E+03  0.38168461168E+02 -0.23774082397E+03  0.38394328005E+03  0.00000000000E+00 0.  1.
         -4    1    4    4    0  502  0.14522872457E+03  0.40561430689E+03  0.78809963258E+03  0.89817335703E+03  0.00000000000E+00 0. -1.
</event>
<event>
 8    1  0.7572579E-006  0.1039804E+04  0.7818608E-02  0.8747727E-01
         21   -1    0    0  503  502  0.00000000000E+00  0.00000000000E+00  0.11320349066E+04  0.11320349066E+04  0.00000000000E+00 0.  1.
         21   -1    0    0  501  503 -0.00000000000E+00 -0.00000000000E+00 -0.12077309310E+04  0.12077309310E+04  0.00000000000E+00 0.  1.
    9000010    2    1    2  501    0 -0.18586222402E+03 -0.18867520864E+02 -0.61260357564E+03  0.12068450917E+04  0.10228837592E+04 0.  0.
   -9000010    2    1    2    0  502  0.18586222402E+03  0.18867520864E+02  0.53690755118E+03  0.11329207459E+04  0.97996885071E+03 0.  0.
        -13    1    3    3    0    0  0.40252835784E+03 -0.61401368114E+02 -0.86210175465E+02  0.41621077880E+03  0.10566000000E+00 0.  1.
         13    1    4    4    0    0  0.31747654107E+03  0.13047236833E+03 -0.18552008769E+03  0.39016933136E+03  0.10566000000E+00 0. -1.
          4    1    3    3  501    0 -0.58839058186E+03  0.42533847250E+02 -0.52639340018E+03  0.79063431290E+03  0.00000000000E+00 0.  1.
         -4    1    4    4    0  502 -0.13161431705E+03 -0.11160484747E+03  0.72242763888E+03  0.74275141457E+03  0.00000000000E+00 0. -1.
</event>
<event>
 8    1  0.7572579E-006  0.1039571E+04  0.7818608E-02  0.8738542E-01
         21   -1    0    0  501  502  0.00000000000E+00  0.00000000000E+00  0.12172247688E+04  0.12172247688E+04  0.00000000000E+00 0. -1.
         21   -1    0    0  502  503 -0.00000000000E+00 -0.00000000000E+00 -0.10589517014E+04  0.10589517014E+04  0.00000000000E+00 0. -1.
    9000010    2    1    2  501    0 -0.26089904774E+03 -0.21933596584E+02  0.53793609585E+03  0.11694462975E+04  0.10048283454E+04 0.  0.
   -9000010    2    1    2    0  503  0.26089904774E+03  0.21933596584E+02 -0.37966302846E+03  0.11067301727E+04  0.10060607657E+04 0.  0.
        -13    1    3    3    0    0  0.13878060456E+03 -0.32321867828E+03 -0.93241865509E+02  0.36390167193E+03  0.10566000000E+00 0.  1.
         13    1    4    4    0    0  0.53884755088E+03  0.31791367498E+03 -0.16306861576E+03  0.64654247536E+03  0.10566000000E+00 0. -1.
          4    1    3    3  501    0 -0.39967965229E+03  0.30128508169E+03  0.63117796136E+03  0.80554462559E+03  0.00000000000E+00 0.  1.
         -4    1    4    4    0  503 -0.27794850314E+03 -0.29598007840E+03 -0.21659441270E+03  0.46018769738E+03  0.00000000000E+00 0. -1.
</event>
<event>
 8    1  0.7572579E-006  0.1023427E+04  0.7818608E-02  0.8769845E-01
         21   -1    0    0  503  502  0.00000000000E+00  0.00000000000E+00  0.18392493981E+04  0.18392493981E+04  0.00000000000E+00 0.  1.
         21   -1    0    0  501  503 -0.00000000000E+00 -0.00000000000E+00 -0.56277053639E+03  0.56277053639E+03  0.00000000000E+00 0.  1.
    9000010    2    1    2  501    0  0.31089775398E+01 -0.13831991251E+03  0.94791795765E+03  0.13949737423E+04  0.10140321609E+04 0.  0.
   -9000010    2    1    2    0  502 -0.31089775398E+01  0.13831991251E+03  0.32856090404E+03  0.10070461921E+04  0.94183209837E+03 0.  0.
        -13    1    3    3    0    0  0.21999090107E+03 -0.16331420261E+03 -0.12422335444E+03  0.30083048097E+03  0.10566000000E+00 0.  1.
         13    1    4    4    0    0  0.21622495666E+03  0.17235747911E+03 -0.25905578034E+03  0.37890663887E+03  0.10566000000E+00 0. -1.
          4    1    3    3  501    0 -0.21688192353E+03  0.24994290102E+02  0.10721413121E+04  0.10941432614E+04  0.00000000000E+00 0.  1.
         -4    1    4    4    0  502 -0.21933393420E+03 -0.34037566603E+02  0.58761668438E+03  0.62813955328E+03  0.00000000000E+00 0. -1.
</event>
<event>
 8    1  0.7572579E-006  0.1006167E+04  0.7818608E-02  0.8769368E-01
         21   -1    0    0  503  502  0.00000000000E+00  0.00000000000E+00  0.13112879093E+04  0.13112879093E+04  0.00000000000E+00 0. -1.
         21   -1    0    0  501  503 -0.00000000000E+00 -0.00000000000E+00 -0.80075530192E+03  0.80075530192E+03  0.00000000000E+00 0. -1.
    9000010    2    1    2  501    0  0.45088187122E+02  0.46010888309E+02  0.46170815556E+03  0.11070441122E+04  0.10041027333E+04 0.  0.
   -9000010    2    1    2    0  502 -0.45088187122E+02 -0.46010888309E+02  0.48824451838E+02  0.10049990990E+04  0.10017431883E+04 0.  0.
        -13    1    3    3    0    0  0.39126940247E+03 -0.31331701814E+03  0.17125875461E+03  0.52970640109E+03  0.10566000000E+00 0.  1.
         13    1    4    4    0    0 -0.18931690986E+02  0.33393540719E+03  0.37577080037E+03  0.50306557294E+03  0.10566000000E+00 0. -1.
          4    1    3    3  501    0 -0.34618121535E+03  0.35932790644E+03  0.29044940095E+03  0.57733771115E+03  0.00000000000E+00 0.  1.
         -4    1    4    4    0  502 -0.26156496136E+02 -0.37994629549E+03 -0.32694634854E+03  0.50193352605E+03  0.00000000000E+00 0. -1.
</event>
<event>
 8    1  0.7572579E-006  0.1137493E+04  0.7818608E-02  0.8658891E-01
         21   -1    0    0  503  502  0.00000000000E+00  0.00000000000E+00  0.73467328227E+03  0.73467328227E+03  0.00000000000E+00 0.  1.
         21   -1    0    0  501  503 -0.00000000000E+00 -0.00000000000E+00 -0.19367379327E+04  0.19367379327E+04  0.00000000000E+00 0.  1.
    9000010    2    1    2  501    0  0.69493023116E+02 -0.54767955920E+03 -0.10299514819E+04  0.15209710549E+04  0.97353516367E+03 0.  0.
   -9000010    2    1    2    0  502 -0.69493023116E+02  0.54767955920E+03 -0.17211316854E+03  0.11504401601E+04  0.99453880737E+03 0.  0.
        -13    1    3    3    0    0  0.48605168086E+03 -0.50423538235E+03 -0.64511148423E+03  0.95219136497E+03  0.10566000000E+00 0.  1.
         13    1    4    4    0    0  0.37006199030E+03  0.39105032038E+03 -0.35972489791E+03  0.64750926100E+03  0.10566000000E+00 0. -1.
          4    1    3    3  501    0 -0.41655865775E+03 -0.43444176850E+02 -0.38483999765E+03  0.56877968990E+03  0.00000000000E+00 0.  1.
         -4    1    4    4    0  502 -0.43955501342E+03  0.15662923882E+03  0.18761172937E+03  0.50293089910E+03  0.00000000000E+00 0. -1.
</event>
<event>
 8    1  0.7572579E-006  0.1017899E+04  0.7818608E-02  0.8770495E-01
         21   -1    0    0  501  502  0.00000000000E+00  0.00000000000E+00  0.83907182531E+03  0.83907182531E+03  0.00000000000E+00 0. -1.
         21   -1    0    0  502  503 -0.00000000000E+00 -0.00000000000E+00 -0.15453725731E+04  0.15453725731E+04  0.00000000000E+00 0. -1.
    9000010    2    1    2  501    0 -0.38271645038E+02  0.81752149578E+02 -0.94669617924E+03  0.13900909974E+04  0.10138891421E+04 0.  0.
   -9000010    2    1    2    0  503  0.38271645038E+02 -0.81752149578E+02  0.24039543147E+03  0.99435340102E+03  0.96062510371E+03 0.  0.
        -13    1    3    3    0    0 -0.31816314960E+03 -0.31773252991E+03 -0.72769033126E+03  0.85540340174E+03  0.10566000000E+00 0.  1.
         13    1    4    4    0    0 -0.32149554368E+03 -0.36895067918E+03  0.21145609063E+03  0.53310193931E+03  0.10566000000E+00 0. -1.
          4    1    3    3  501    0  0.27989150456E+03  0.39948467949E+03 -0.21900584798E+03  0.53468759563E+03  0.00000000000E+00 0.  1.
         -4    1    4    4    0  503  0.35976718871E+03  0.28719852960E+03  0.28939340840E+02  0.46125146171E+03  0.00000000000E+00 0. -1.
</event>
<event>
 8    1  0.7572579E-006  0.1034504E+04  0.7818608E-02  0.8745752E-01
         21   -1    0    0  503  502  0.00000000000E+00  0.00000000000E+00  0.90711881626E+03  0.90711881626E+03  0.00000000000E+00 0.  1.
         21   -1    0    0  501  503 -0.00000000000E+00 -0.00000000000E+00 -0.13762731047E+04  0.13762731047E+04  0.00000000000E+00 0.  1.
    9000010    2    1    2  501    0  0.18929302966E+03  0.17276606414E+03 -0.68298164644E+03  0.12396220565E+04  0.10022569279E+04 0.  0.
   -9000010    2    1    2    0  502 -0.18929302966E+03 -0.17276606414E+03  0.21382735804E+03  0.10437698644E+04  0.98896583706E+03 0.  0.
        -13    1    3    3    0    0  0.33847074151E+03 -0.21679208840E+03  0.41031486061E+02  0.40403569949E+03  0.10566000000E+00 0.  1.
         13    1    4    4    0    0  0.26598689362E+03 -0.29562727641E+03  0.37383232319E+03  0.54579770168E+03  0.10566000000E+00 0. -1.
          4    1    3    3  501    0 -0.14917771185E+03  0.38955815255E+03 -0.72401313250E+03  0.83558635698E+03  0.00000000000E+00 0.  1.
         -4    1    4    4    0  502 -0.45527992328E+03  0.12286121227E+03 -0.16000496515E+03  0.49797216277E+03  0.00000000000E+00 0. -1.
</event>
<event>
 8    1  0.7572579E-006  0.1033905E+04  0.7818608E-02  0.8748058E-01
         21   -1    0    0  501  502  0.00000000000E+00  0.00000000000E+00  0.13802914757E+04  0.13802914757E+04  0.00000000000E+00 0.  1.
         21   -1    0    0  502  503 -0.00000000000E+00 -0.00000000000E+00 -0.81441842466E+03  0.81441842466E+03  0.00000000000E+00 0.  1.
    9000010    2    1    2  501    0  0.23639882160E+03  0.11789062832E+03  0.56620528831E+03  0.11608052165E+04  0.97831371199E+03 0.  0.
   -9000010    2    1    2    0  503 -0.23639882160E+03 -0.11789062832E+03 -0.33223725162E+00  0.10339046839E+04  0.99958800605E+03 0.  0.
        -13    1    3    3    0    0  0.31078041864E+03  0.29175677178E+03  0.77165846038E+03  0.88156864345E+03  0.10566000000E+00 0.  1.
         13    1    4    4    0    0 -0.37714976327E+03  0.19585888599E+03  0.34438603025E+03  0.54699579171E+03  0.10566000000E+00 0. -1.
          4    1    3    3  501    0 -0.74381597035E+02 -0.17386614345E+03 -0.20545317207E+03  0.27923657305E+03  0.00000000000E+00 0.  1.
         -4    1    4    4    0  503  0.14075094166E+03 -0.31374951431E+03 -0.34471826750E+03  0.48690889216E+03  0.00000000000E+00 0. -1.
</event>
<event>
 8    1  0.9492447E-006  0.1010074E+04  0.7818608E-02  0.8767636E-01
         21   -1    0    0  503  502  0.00000000000E+00  0.00000000000E+00  0.14722504098E+04  0.14722504098E+04  0.00000000000E+00 0. -1.
         21   -1    0    0  501  503 -0.00000000000E+00 -0.00000000000E+00 -0.77721683006E+03  0.77721683006E+03  0.00000000000E+00 0. -1.
    9000010    2    1    2  501    0  0.98764453109E+02  0.13789696926E+03 -0.39835164292E+02  0.10003546771E+04  0.98506479397E+03 0.  0.
   -9000010    2    1    2    0  502 -0.98764453109E+02 -0.13789696926E+03  0.73486874408E+03  0.12491125628E+04  0.99573095374E+03 0.  0.
        -13    1    3    3    0    0 -0.29439049172E+03  0.22518288400E+03 -0.33614427724E+03  0.50036594524E+03  0.10566000000E+00 0.  1.
         13    1    4    4    0    0 -0.71621121421E+02 -0.27188124819E+03 -0.17358854419E+03  0.33042698436E+03  0.10566000000E+00 0. -1.
          4    1    3    3  501    0  0.39315494483E+03 -0.87285914743E+02  0.29630911295E+03  0.49998873185E+03  0.00000000000E+00 0.  1.
         -4    1    4    4    0  502 -0.27143331688E+02  0.13398427894E+03  0.90845728827E+03  0.91868557846E+03  0.00000000000E+00 0. -1.
</event>
<event>
 8    1  0.7572579E-006  0.1159367E+04  0.7818608E-02  0.8640848E-01
         21   -1    0    0  501  502  0.00000000000E+00  0.00000000000E+00  0.14049830845E+04  0.14049830845E+04  0.00000000000E+00 0. -1.
         21   -1    0    0  502  503 -0.00000000000E+00 -0.00000000000E+00 -0.10159339128E+04  0.10159339128E+04  0.00000000000E+00 0. -1.
    9000010    2    1    2  501    0  0.44748485832E+02 -0.57793790985E+03  0.51534884256E+03  0.12546907307E+04  0.98623006729E+03 0.  0.
   -9000010    2    1    2    0  503 -0.44748485832E+02  0.57793790985E+03 -0.12629967090E+03  0.11662262666E+04  0.10040505184E+04 0.  0.
        -13    1    3    3    0    0 -0.39542379751E+03  0.15464088865E+02  0.10443379423E+03  0.40927441432E+03  0.10566000000E+00 0.  1.
         13    1    4    4    0    0 -0.45646154584E+03  0.51798511437E+03 -0.24659922305E+03  0.73312816718E+03  0.10566000000E+00 0. -1.
          4    1    3    3  501    0  0.44017228334E+03 -0.59340199871E+03  0.41091504833E+03  0.84541631640E+03  0.00000000000E+00 0.  1.
         -4    1    4    4    0  503  0.41171306001E+03  0.59952795477E+02  0.12029955215E+03  0.43309809942E+03  0.00000000000E+00 0. -1.
</event>
<event>
 8    1  0.7572579E-006  0.1019399E+04  0.7818608E-02  0.8761206E-01
         21   -1    0    0  503  502  0.00000000000E+00  0.00000000000E+00  0.67796387211E+03  0.67796387211E+03  0.00000000000E+00 0. -1.
         21   -1    0    0  501  503 -0.00000000000E+00 -0.00000000000E+00 -0.19994483328E+04  0.19994483328E+04  0.00000000000E+00 0. -1.
    9000010    2    1    2  501    0  0.25024474315E+02  0.71573102901E+02 -0.13229289018E+04  0.16580121158E+04  0.99655123491E+03 0.  0.
   -9000010    2    1    2    0  502 -0.25024474315E+02 -0.71573102901E+02  0.14444411038E+01  0.10194000890E+04  0.10165753891E+04 0.  0.
        -13    1    3    3    0    0  0.16407796476E+02 -0.15140578564E+03  0.12250862086E+03  0.19545153123E+03  0.10566000000E+00 0.  1.
         13    1    4    4    0    0 -0.23620348248E+03  0.32294200191E+03 -0.28218463504E+03  0.48960371848E+03  0.10566000000E+00 0. -1.
          4    1    3    3  501    0  0.86166778389E+01  0.22297888854E+03 -0.14454375226E+04  0.14625605846E+04  0.00000000000E+00 0.  1.
         -4    1    4    4    0  502  0.21117900817E+03 -0.39451510481E+03  0.28362907615E+03  0.52979637055E+03  0.00000000000E+00 0. -1.
</event>
<event>
 8    1  0.7572579E-006  0.1144796E+04  0.7818608E-02  0.8652370E-01
         21   -1    0    0  503  502  0.00000000000E+00  0.00000000000E+00  0.73064456828E+03  0.73064456828E+03  0.00000000000E+00 0.  1.
         21   -1    0    0  501  503 -0.00000000000E+00 -0.00000000000E+00 -0.18677542485E+04  0.18677542485E+04  0.00000000000E+00 0.  1.
    9000010    2    1    2  501    0  0.25302405935E+03 -0.47595897510E+03 -0.26786451693E+03  0.11609896089E+04  0.99276752164E+03 0.  0.
   -9000010    2    1    2    0  502 -0.25302405935E+03  0.47595897510E+03 -0.86924516328E+03  0.14374092078E+04  0.10099504722E+04 0.  0.
        -13    1    3    3    0    0  0.56537081694E+03 -0.55832627410E+03 -0.11239641399E+03  0.80249944177E+03  0.10566000000E+00 0.  1.
         13    1    4    4    0    0  0.10626244449E+03  0.37771379753E+03 -0.97434848789E+03  0.10503877413E+04  0.10566000000E+00 0. -1.
          4    1    3    3  501    0 -0.31234675759E+03  0.82367299001E+02 -0.15546810295E+03  0.35849016717E+03  0.00000000000E+00 0.  1.
         -4    1    4    4    0  502 -0.35928650384E+03  0.98245177566E+02  0.10510332461E+03  0.38702146659E+03  0.00000000000E+00 0. -1.
</event>
<event>
 8    1  0.7572579E-006  0.1096837E+04  0.7818608E-02  0.8691382E-01
         21   -1    0    0  503  502  0.00000000000E+00  0.00000000000E+00  0.19892255983E+04  0.19892255983E+04  0.00000000000E+00 0.  1.
         21   -1    0    0  501  503 -0.00000000000E+00 -0.00000000000E+00 -0.74299305764E+03  0.74299305764E+03  0.00000000000E+00 0.  1.
    9000010    2    1    2  501    0  0.10530181975E+03  0.34055721504E+03  0.21635641905E+02  0.10970499128E+04  0.10372958692E+04 0.  0.
   -9000010    2    1    2    0  502 -0.10530181975E+03 -0.34055721504E+03  0.12245968988E+04  0.16351687431E+04  0.10232651485E+04 0.  0.
        -13    1    3    3    0    0 -0.60272571634E+02 -0.18758834190E+03 -0.36987870926E+03  0.41908524149E+03  0.10566000000E+00 0.  1.
         13    1    4    4    0    0 -0.28937547033E+03  0.19137047207E+03  0.94500842929E+03  0.10066785798E+04  0.10566000000E+00 0. -1.
          4    1    3    3  501    0  0.16557439138E+03  0.52814555694E+03  0.39151435116E+03  0.67796467132E+03  0.00000000000E+00 0.  1.
         -4    1    4    4    0  502  0.18407365058E+03 -0.53192768711E+03  0.27958846946E+03  0.62849016334E+03  0.00000000000E+00 0. -1.
</event>
<event>
 8    1  0.7572579E-006  0.1007239E+04  0.7818608E-02  0.8770552E-01
         21   -1    0    0  501  502  0.00000000000E+00  0.00000000000E+00  0.71366887198E+03  0.71366887198E+03  0.00000000000E+00 0. -1.
         21   -1    0    0  502  503 -0.00000000000E+00 -0.00000000000E+00 -0.14601552135E+04  0.14601552135E+04  0.00000000000E+00 0. -1.
    9000010    2    1    2  501    0  0.82943065302E+02 -0.62225097117E+02 -0.16439143451E+03  0.10205656102E+04  0.10018872722E+04 0.  0.
   -9000010    2    1    2    0  503 -0.82943065302E+02  0.62225097117E+02 -0.58209490702E+03  0.11532584753E+04  0.99016115619E+03 0.  0.
        -13    1    3    3    0    0 -0.20500761088E+03 -0.40700006447E+03  0.14140842711E+03  0.47715147220E+03  0.10566000000E+00 0.  1.
         13    1    4    4    0    0 -0.22883501501E+03 -0.41199008112E+03 -0.42008943770E+03  0.63132910425E+03  0.10566000000E+00 0. -1.
          4    1    3    3  501    0  0.28795067618E+03  0.34477496736E+03 -0.30579986162E+03  0.54341413802E+03  0.00000000000E+00 0.  1.
         -4    1    4    4    0  503  0.14589194971E+03  0.47421517823E+03 -0.16200546932E+03  0.52192937103E+03  0.00000000000E+00 0. -1.
</event>
<event>
 8    1  0.7572579E-006  0.1008273E+04  0.7818608E-02  0.8768884E-01
         21   -1    0    0  501  502  0.00000000000E+00  0.00000000000E+00  0.86745240818E+03  0.86745240818E+03  0.00000000000E+00 0. -1.
         21   -1    0    0  502  503 -0.00000000000E+00 -0.00000000000E+00 -0.14457946718E+04  0.14457946718E+04  0.00000000000E+00 0. -1.
    9000010    2    1    2  501    0 -0.12088929337E+03 -0.35965763303E+02  0.22235449824E+03  0.10324997753E+04  0.10003531905E+04 0.  0.
   -9000010    2    1    2    0  503  0.12088929337E+03  0.35965763303E+02 -0.80069676186E+03  0.12807473047E+04  0.99161010317E+03 0.  0.
        -13    1    3    3    0    0 -0.47508973714E+01  0.35891166634E+03  0.43924193046E+03  0.56725094966E+03  0.10566000000E+00 0.  1.
         13    1    4    4    0    0  0.54531314553E+03  0.79881851309E+02 -0.58100697790E+03  0.80082248744E+03  0.10566000000E+00 0. -1.
          4    1    3    3  501    0 -0.11613839600E+03 -0.39487742964E+03 -0.21688743222E+03  0.46524882560E+03  0.00000000000E+00 0.  1.
         -4    1    4    4    0  503 -0.42442385216E+03 -0.43916088007E+02 -0.21968978395E+03  0.47992481728E+03  0.00000000000E+00 0. -1.
</event>
<event>
 8    1  0.7572579E-006  0.1002835E+04  0.7818608E-02  0.8773514E-01
         21   -1    0    0  503  502  0.00000000000E+00  0.00000000000E+00  0.23777827937E+04  0.23777827937E+04  0.00000000000E+00 0.  1.
         21   -1    0    0  501  503 -0.00000000000E+00 -0.00000000000E+00 -0.42532722642E+03  0.42532722642E+03  0.00000000000E+00 0.  1.
    9000010    2    1    2  501    0  0.48056364842E+02 -0.48092958979E+02  0.82429999520E+03  0.12981324025E+04  0.10005273137E+04 0.  0.
   -9000010    2    1    2    0  502 -0.48056364842E+02  0.48092958979E+02  0.11281555721E+04  0.15049776176E+04  0.99378080471E+03 0.  0.
        -13    1    3    3    0    0 -0.15324988249E+03 -0.23790849681E+03 -0.12497132511E+03  0.30936034426E+03  0.10566000000E+00 0.  1.
         13    1    4    4    0    0  0.20391756972E+03  0.34842107405E+03  0.10219735586E+04  0.10988219081E+04  0.10566000000E+00 0. -1.
          4    1    3    3  501    0  0.20130624733E+03  0.18981553783E+03  0.94927132031E+03  0.98877205825E+03  0.00000000000E+00 0.  1.
         -4    1    4    4    0  502 -0.25197393456E+03 -0.30032811508E+03  0.10618201352E+03  0.40615570955E+03  0.00000000000E+00 0. -1.
</event>
<event>
 8    1  0.7572579E-006  0.1077044E+04  0.7818608E-02  0.8708469E-01
         21   -1    0    0  503  502  0.00000000000E+00  0.00000000000E+00  0.82083153022E+03  0.82083153022E+03  0.00000000000E+00 0.  1.
         21   -1    0    0  501  503 -0.00000000000E+00 -0.00000000000E+00 -0.14199058537E+04  0.14199058537E+04  0.00000000000E+00 0.  1.
    9000010    2    1    2  501    0 -0.17601350278E+03 -0.32253846407E+03 -0.44711904337E+03  0.11530267419E+04  0.99726797537E+03 0.  0.
   -9000010    2    1    2    0  502  0.17601350278E+03  0.32253846407E+03 -0.15195528011E+03  0.10877106420E+04  0.10124288714E+04 0.  0.
        -13    1    3    3    0    0 -0.21201869832E+03  0.33027903252E+03 -0.71294467724E+02  0.39889733021E+03  0.10566000000E+00 0.  1.
         13    1    4    4    0    0  0.38489460249E+03 -0.86639367129E+02 -0.40318045179E+03  0.56409637725E+03  0.10566000000E+00 0. -1.
          4    1    3    3  501    0  0.36005195542E+02 -0.65281749659E+03 -0.37582457565E+03  0.75412941172E+03  0.00000000000E+00 0.  1.
         -4    1    4    4    0  502 -0.20888109971E+03  0.40917783120E+03  0.25122517167E+03  0.52361426474E+03  0.00000000000E+00 0. -1.
</event>
<event>
 8    1  0.7572579E-006  0.1054259E+04  0.7818608E-02  0.8726414E-01
         21   -1    0    0  503  502  0.00000000000E+00  0.00000000000E+00  0.17297186710E+04  0.17297186710E+04  0.00000000000E+00 0. -1.
         21   -1    0    0  501  503 -0.00000000000E+00 -0.00000000000E+00 -0.98650215437E+03  0.98650215437E+03  0.00000000000E+00 0. -1.
    9000010    2    1    2  501    0  0.33169346277E+03  0.20229650541E+03  0.11767303468E+04  0.15763100967E+04  0.97422522167E+03 0.  0.
   -9000010    2    1    2    0  502 -0.33169346277E+03 -0.20229650541E+03 -0.43351383012E+03  0.11399107287E+04  0.98006009977E+03 0.  0.
        -13    1    3    3    0    0  0.49429346888E+02 -0.13437633439E+03 -0.13265318337E+03  0.19518488108E+03  0.10566000000E+00 0.  1.
         13    1    4    4    0    0  0.26931995825E+03 -0.31224303608E+02 -0.43786572419E+03  0.51500932092E+03  0.10566000000E+00 0. -1.
          4    1    3    3  501    0  0.28226411588E+03  0.33667283980E+03  0.13093835301E+04  0.13811252156E+04  0.00000000000E+00 0.  1.
         -4    1    4    4    0  502 -0.60101342102E+03 -0.17107220180E+03  0.43518940678E+01  0.62490140779E+03  0.00000000000E+00 0. -1.
</event>
<event>
 8    1  0.7572579E-006  0.1027289E+04  0.7818608E-02  0.8753808E-01
         21   -1    0    0  503  502  0.00000000000E+00  0.00000000000E+00  0.61324317353E+03  0.61324317353E+03  0.00000000000E+00 0.  1.
         21   -1    0    0  501  503 -0.00000000000E+00 -0.00000000000E+00 -0.27846320794E+04  0.27846320794E+04  0.00000000000E+00 0.  1.
    9000010    2    1    2  501    0 -0.80189721676E+02  0.20356541762E+03 -0.21577788152E+04  0.23898394882E+04  0.10037201270E+04 0.  0.
   -9000010    2    1    2    0  502  0.80189721676E+02 -0.20356541762E+03 -0.13610090668E+02  0.10080357647E+04  0.98391137696E+03 0.  0.
        -13    1    3    3    0    0  0.37907814182E+03  0.36788102646E+03 -0.12973153378E+04  0.14007368718E+04  0.10566000000E+00 0.  1.
         13    1    4    4    0    0  0.18491963450E+03  0.32206727723E+03  0.21074465807E+03  0.42700810807E+03  0.10566000000E+00 0. -1.
          4    1    3    3  501    0 -0.45926786350E+03 -0.16431560884E+03 -0.86046347743E+03  0.98910261638E+03  0.00000000000E+00 0.  1.
         -4    1    4    4    0  502 -0.10472991282E+03 -0.52563269485E+03 -0.22435474874E+03  0.58102765667E+03  0.00000000000E+00 0. -1.
</event>
<event>
 8    1  0.7572579E-006  0.1001248E+04  0.7818608E-02  0.8780620E-01
         21   -1    0    0  501  502  0.00000000000E+00  0.00000000000E+00  0.75587955503E+03  0.75587955503E+03  0.00000000000E+00 0.  1.
         21   -1    0    0  502  503 -0.00000000000E+00 -0.00000000000E+00 -0.12931057193E+04  0.12931057193E+04  0.00000000000E+00 0.  1.
    9000010    2    1    2  501    0 -0.55974584536E+02  0.43757929874E+01 -0.33745954894E+03  0.10280031710E+04  0.96941181687E+03 0.  0.
   -9000010    2    1    2    0  503  0.55974584536E+02 -0.43757929874E+01 -0.19976661534E+03  0.10209821034E+04  0.99967267299E+03 0.  0.
        -13    1    3    3    0    0  0.41679901203E+03 -0.14630495598E+03 -0.26738185559E+02  0.44253982680E+03  0.10566000000E+00 0.  1.
         13    1    4    4    0    0  0.23557804913E+03 -0.14616683396E+03 -0.54229340173E+03  0.60905164420E+03  0.10566000000E+00 0. -1.
          4    1    3    3  501    0 -0.47277359657E+03  0.15068074896E+03 -0.31072136338E+03  0.58546334418E+03  0.00000000000E+00 0.  1.
         -4    1    4    4    0  503 -0.17960346460E+03  0.14179104097E+03  0.34252678639E+03  0.41193045917E+03  0.00000000000E+00 0. -1.
</event>
<event>
 8    1  0.7572579E-006  0.1015163E+04  0.7818608E-02  0.8761708E-01
         21   -1    0    0  503  502  0.00000000000E+00  0.00000000000E+00  0.49137037703E+03  0.49137037703E+03  0.00000000000E+00 0. -1.
         21   -1    0    0  501  503 -0.00000000000E+00 -0.00000000000E+00 -0.21896483342E+04  0.21896483342E+04  0.00000000000E+00 0. -1.
    9000010    2    1    2  501    0 -0.50929510464E+02 -0.33838955544E+02 -0.55577820509E+03  0.11526660716E+04  0.10079735956E+04 0.  0.
   -9000010    2    1    2    0  502  0.50929510464E+02  0.33838955544E+02 -0.11424997521E+04  0.15283526396E+04  0.10133198989E+04 0.  0.
        -13    1    3    3    0    0 -0.16810611272E+03 -0.82961795638E+02 -0.82975171619E+03  0.85066459098E+03  0.10566000000E+00 0.  1.
         13    1    4    4    0    0 -0.46235356324E+03  0.10533591784E+03 -0.70765330118E+03  0.85184486784E+03  0.10566000000E+00 0. -1.
          4    1    3    3  501    0  0.11717660225E+03  0.49122840094E+02  0.27397351110E+03  0.30200148066E+03  0.00000000000E+00 0.  1.
         -4    1    4    4    0  502  0.51328307371E+03 -0.71496962293E+02 -0.43484645090E+03  0.67650777175E+03  0.00000000000E+00 0. -1.
</event>
<event>
 8    1  0.7572579E-006  0.1039091E+04  0.7818608E-02  0.8740519E-01
         21   -1    0    0  503  502  0.00000000000E+00  0.00000000000E+00  0.13778683822E+04  0.13778683822E+04  0.00000000000E+00 0.  1.
         21   -1    0    0  501  503 -0.00000000000E+00 -0.00000000000E+00 -0.83710898607E+03  0.83710898607E+03  0.00000000000E+00 0.  1.
    9000010    2    1    2  501    0 -0.22613363167E+03 -0.22170191824E+03 -0.24062787132E+02  0.10393692790E+04  0.98965717320E+03 0.  0.
   -9000010    2    1    2    0  502  0.22613363167E+03  0.22170191824E+03  0.56482218325E+03  0.11756080893E+04  0.98119423202E+03 0.  0.
        -13    1    3    3    0    0  0.10484445945E+02 -0.30363504389E+03 -0.45137256182E+03  0.54409683349E+03  0.10566000000E+00 0.  1.
         13    1    4    4    0    0  0.23339113123E+03  0.95008249332E+02  0.83763897925E+03  0.87472113173E+03  0.10566000000E+00 0. -1.
          4    1    3    3  501    0 -0.23661807761E+03  0.81933125649E+02  0.42730977469E+03  0.49527244550E+03  0.00000000000E+00 0.  1.
         -4    1    4    4    0  502 -0.72574995638E+01  0.12669366891E+03 -0.27281679600E+03  0.30088695754E+03  0.00000000000E+00 0. -1.
</event>
<event>
 8    1  0.7572579E-006  0.1068912E+04  0.7818608E-02  0.8719592E-01
         21   -1    0    0  503  502  0.00000000000E+00  0.00000000000E+00  0.95257001015E+03  0.95257001015E+03  0.00000000000E+00 0. -1.
         21   -1    0    0  501  503 -0.00000000000E+00 -0.00000000000E+00 -0.17812518505E+04  0.17812518505E+04  0.00000000000E+00 0. -1.
    9000010    2    1    2  501    0  0.18258168230E+03  0.19145435953E+03 -0.12153010440E+04  0.15971394683E+04  0.10019516012E+04 0.  0.
   -9000010    2    1    2    0  502 -0.18258168230E+03 -0.19145435953E+03  0.38661920360E+03  0.11366823924E+04  0.10356551598E+04 0.  0.
        -13    1    3    3    0    0 -0.26547021273E+03 -0.22972357792E+03 -0.18385054445E+03  0.39629331304E+03  0.10566000000E+00 0.  1.
         13    1    4    4    0    0  0.77354450114E+02  0.40811400341E+03  0.15514223993E+03  0.44340712275E+03  0.10566000000E+00 0. -1.
          4    1    3    3  501    0  0.44805189503E+03  0.42117793745E+03 -0.10314504995E+04  0.12008461552E+04  0.00000000000E+00 0.  1.
         -4    1    4    4    0  502 -0.25993613241E+03 -0.59956836294E+03  0.23147696366E+03  0.69327526963E+03  0.00000000000E+00 0. -1.
</event>
<event>
 8    1  0.7572579E-006  0.1013798E+04  0.7818608E-02  0.8761999E-01
         21   -1    0    0  501  502  0.00000000000E+00  0.00000000000E+00  0.26692372602E+04  0.26692372602E+04  0.00000000000E+00 0.  1.
         21   -1    0    0  502  503 -0.00000000000E+00 -0.00000000000E+00 -0.39909893501E+03  0.39909893501E+03  0.00000000000E+00 0.  1.
    9000010    2    1    2  501    0 -0.90922399625E+02  0.10927250454E+03  0.14267233470E+04  0.17495732457E+04  0.10026263862E+04 0.  0.
   -9000010    2    1    2    0  503  0.90922399625E+02 -0.10927250454E+03  0.84341497819E+03  0.13187629495E+04  0.10037826102E+04 0.  0.
        -13    1    3    3    0    0  0.20372709536E+03 -0.26610293089E+03  0.11593550529E+03  0.35462170233E+03  0.10566000000E+00 0.  1.
         13    1    4    4    0    0 -0.32354209064E+03 -0.39406043136E+03  0.45469570816E+03  0.68316272305E+03  0.10566000000E+00 0. -1.
          4    1    3    3  501    0 -0.29464949499E+03  0.37537543542E+03  0.13107878417E+04  0.13949515434E+04  0.00000000000E+00 0.  1.
         -4    1    4    4    0  503  0.41446449026E+03  0.28478792683E+03  0.38871927003E+03  0.63560022644E+03  0.00000000000E+00 0. -1.
</event>
<event>
 8    1  0.7572579E-006  0.1081254E+04  0.7818608E-02  0.8703734E-01
         21   -1    0    0  501  502  0.00000000000E+00  0.00000000000E+00  0.17408984252E+04  0.17408984252E+04  0.00000000000E+00 0.  1.
         21   -1    0    0  502  503 -0.00000000000E+00 -0.00000000000E+00 -0.73420459392E+03  0.73420459392E+03  0.00000000000E+00 0.  1.
    9000010    2    1    2  501    0 -0.91860464765E+02 -0.34988114152E+03  0.87882471012E+03  0.13863142107E+04  0.10092963200E+04 0.  0.
   -9000010    2    1    2    0  503  0.91860464765E+02  0.34988114152E+03  0.12786912112E+03  0.10887888084E+04  0.10189481827E+04 0.  0.
        -13    1    3    3    0    0  0.22801616595E+03 -0.56264073725E+03  0.78225482513E+03  0.99019119050E+03  0.10566000000E+00 0.  1.
         13    1    4    4    0    0  0.18638065780E+03 -0.31835281481E+03  0.18273329169E+03  0.41167673162E+03  0.10566000000E+00 0. -1.
          4    1    3    3  501    0 -0.31987663071E+03  0.21275959573E+03  0.96569884992E+02  0.39612302021E+03  0.00000000000E+00 0.  1.
         -4    1    4    4    0  503 -0.94520193031E+02  0.66823395633E+03 -0.54864170568E+02  0.67711207676E+03  0.00000000000E+00 0. -1.
</event>
<event>
 8    1  0.7572579E-006  0.1030093E+04  0.7818608E-02  0.8748192E-01
         21   -1    0    0  503  502  0.00000000000E+00  0.00000000000E+00  0.73826604033E+03  0.73826604033E+03  0.00000000000E+00 0. -1.
         21   -1    0    0  501  503 -0.00000000000E+00 -0.00000000000E+00 -0.16583514617E+04  0.16583514617E+04  0.00000000000E+00 0. -1.
    9000010    2    1    2  501    0  0.12713954081E+03  0.25568514831E+03 -0.90697394475E+03  0.13724772416E+04  0.98972353930E+03 0.  0.
   -9000010    2    1    2    0  502 -0.12713954081E+03 -0.25568514831E+03 -0.13111476604E+02  0.10241402605E+04  0.98343886661E+03 0.  0.
        -13    1    3    3    0    0 -0.42311833048E+03  0.70208400466E+02 -0.25322075406E+03  0.49807539845E+03  0.10566000000E+00 0.  1.
         13    1    4    4    0    0  0.37678325992E+03  0.11930347264E+03 -0.23504266625E+02  0.39591843258E+03  0.10566000000E+00 0. -1.
          4    1    3    3  501    0  0.55025787129E+03  0.18547674784E+03 -0.65375319069E+03  0.87440184311E+03  0.00000000000E+00 0.  1.
         -4    1    4    4    0  502 -0.50392280073E+03 -0.37498862095E+03  0.10392790021E+02  0.62822182788E+03  0.00000000000E+00 0. -1.
</event>
<event>
 8    1  0.7572579E-006  0.1023790E+04  0.7818608E-02  0.8758601E-01
         21   -1    0    0  503  502  0.00000000000E+00  0.00000000000E+00  0.17256599620E+04  0.17256599620E+04  0.00000000000E+00 0.  1.
         21   -1    0    0  501  503 -0.00000000000E+00 -0.00000000000E+00 -0.66053515992E+03  0.66053515992E+03  0.00000000000E+00 0.  1.
    9000010    2    1    2  501    0  0.73465211639E+02  0.53687615668E+02  0.15441509599E+03  0.10353693098E+04  0.10197382450E+04 0.  0.
   -9000010    2    1    2    0  502 -0.73465211639E+02 -0.53687615668E+02  0.91070970608E+03  0.13508258121E+04  0.99350828310E+03 0.  0.
        -13    1    3    3    0    0  0.19827589441E+03 -0.18079662515E+03 -0.36438275129E+03  0.45252132610E+03  0.10566000000E+00 0.  1.
         13    1    4    4    0    0  0.72506785802E+02 -0.24279553402E+03  0.10460205465E+04  0.10762740823E+04  0.10566000000E+00 0. -1.
          4    1    3    3  501    0 -0.12481068277E+03  0.23448424081E+03  0.51879784729E+03  0.58284798367E+03  0.00000000000E+00 0.  1.
         -4    1    4    4    0  502 -0.14597199744E+03  0.18910791835E+03 -0.13531084043E+03  0.27455172984E+03  0.00000000000E+00 0. -1.
</event>
<event>
 8    1  0.7572579E-006  0.9853220E+03  0.7818608E-02  0.8805209E-01
         21   -1    0    0  503  502  0.00000000000E+00  0.00000000000E+00  0.67873513321E+03  0.67873513321E+03  0.00000000000E+00 0. -1.
         21   -1    0    0  501  503 -0.00000000000E+00 -0.00000000000E+00 -0.14179444556E+04  0.14179444556E+04  0.00000000000E+00 0. -1.
    9000010    2    1    2  501    0 -0.26305030276E+02  0.10372149704E+03 -0.61170073562E+03  0.11031415073E+04  0.91175286759E+03 0.  0.
   -9000010    2    1    2    0  502  0.26305030276E+02 -0.10372149704E+03 -0.12750858678E+03  0.99353808155E+03  0.97949444930E+03 0.  0.
        -13    1    3    3    0    0 -0.32581056180E+03 -0.17539273098E+03 -0.58586050360E+03  0.69292688871E+03  0.10566000000E+00 0.  1.
         13    1    4    4    0    0 -0.20739359500E+03  0.35693102427E+03  0.10670400971E+03  0.42637731669E+03  0.10566000000E+00 0. -1.
          4    1    3    3  501    0  0.29950553152E+03  0.27911422802E+03 -0.25840232021E+02  0.41021461857E+03  0.00000000000E+00 0.  1.
         -4    1    4    4    0  502  0.23369862527E+03 -0.46065252131E+03 -0.23421259649E+03  0.56716076486E+03  0.00000000000E+00 0. -1.
</event>
<event>
 8    1  0.7572579E-006  0.1014702E+04  0.7818608E-02  0.8780569E-01
         21   -1    0    0  501  502  0.00000000000E+00  0.00000000000E+00  0.92288714735E+03  0.92288714735E+03  0.00000000000E+00 0. -1.
         21   -1    0    0  502  503 -0.00000000000E+00 -0.00000000000E+00 -0.10448353479E+04  0.10448353479E+04  0.00000000000E+00 0. -1.
    9000010    2    1    2  501    0  0.12712718712E+03  0.44858373675E+02  0.67199500043E+02  0.93554149814E+03  0.92333554385E+03 0.  0.
   -9000010    2    1    2    0  503 -0.12712718712E+03 -0.44858373675E+02 -0.18914770058E+03  0.10321809971E+04  0.10057072948E+04 0.  0.
        -13    1    3    3    0    0 -0.19606257959E+03  0.26966180070E+03 -0.26066746168E+03  0.42320864667E+03  0.10566000000E+00 0.  1.
         13    1    4    4    0    0 -0.68584761382E+02  0.12542823357E+03  0.39544112331E+03  0.42048757941E+03  0.10566000000E+00 0. -1.
          4    1    3    3  501    0  0.32318976671E+03 -0.22480342703E+03  0.32786696172E+03  0.51233285147E+03  0.00000000000E+00 0.  1.
         -4    1    4    4    0  503 -0.58542425741E+02 -0.17028660725E+03 -0.58458882389E+03  0.61169341769E+03  0.00000000000E+00 0. -1.
</event>
<event>
 8    1  0.7572579E-006  0.1243780E+04  0.7818608E-02  0.8579669E-01
         21   -1    0    0  503  502  0.00000000000E+00  0.00000000000E+00  0.16303497020E+04  0.16303497020E+04  0.00000000000E+00 0. -1.
         21   -1    0    0  501  503 -0.00000000000E+00 -0.00000000000E+00 -0.10425593906E+04  0.10425593906E+04  0.00000000000E+00 0.  1.
    9000010    2    1    2  501    0 -0.47154472148E+03  0.57259301803E+03 -0.14870260336E+03  0.12526377741E+04  0.99838456532E+03 0.  0.
   -9000010    2    1    2    0  502  0.47154472148E+03 -0.57259301803E+03  0.73649291470E+03  0.14202713185E+04  0.96152567104E+03 0.  0.
        -13    1    3    3    0    0 -0.30196425605E+02  0.33455225167E+03 -0.52668470835E+03  0.62468698273E+03  0.10566000000E+00 0.  1.
         13    1    4    4    0    0  0.36189030478E+03  0.18751787455E+03  0.92352458812E+02  0.41791929099E+03  0.10566000000E+00 0. -1.
          4    1    3    3  501    0 -0.44134829587E+03  0.23804076636E+03  0.37798210499E+03  0.62795079139E+03  0.00000000000E+00 0.  1.
         -4    1    4    4    0  502  0.10965441670E+03 -0.76011089257E+03  0.64414045588E+03  0.10023520275E+04  0.00000000000E+00 0. -1.
</event>
<event>
 8    1  0.7572579E-006  0.1000339E+04  0.7818608E-02  0.8777284E-01
         21   -1    0    0  503  502  0.00000000000E+00  0.00000000000E+00  0.80187684189E+03  0.80187684189E+03  0.00000000000E+00 0.  1.
         21   -1    0    0  501  503 -0.00000000000E+00 -0.00000000000E+00 -0.12554489714E+04  0.12554489714E+04  0.00000000000E+00 0.  1.
    9000010    2    1    2  501    0 -0.31698886413E+02  0.31085853303E+02 -0.87875270678E+02  0.10041913035E+04  0.99935327143E+03 0.  0.
   -9000010    2    1    2    0  502  0.31698886413E+02 -0.31085853303E+02 -0.36569685882E+03  0.10531345098E+04  0.98660374696E+03 0.  0.
        -13    1    3    3    0    0 -0.22871781573E+03 -0.42535303883E+03 -0.14382668653E+03  0.50390790210E+03  0.10566000000E+00 0.  1.
         13    1    4    4    0    0  0.32290604610E+03  0.12550010403E+03 -0.56814761365E+03  0.66543993927E+03  0.10566000000E+00 0. -1.
          4    1    3    3  501    0  0.19701892931E+03  0.45643889213E+03  0.55951415856E+02  0.50028340138E+03  0.00000000000E+00 0.  1.
         -4    1    4    4    0  502 -0.29120715969E+03 -0.15658595733E+03  0.20245075482E+03  0.38769457053E+03  0.00000000000E+00 0. -1.
</event>
<event>
 8    1  0.7572579E-006  0.1018200E+04  0.7818608E-02  0.8758222E-01
         21   -1    0    0  503  502  0.00000000000E+00  0.00000000000E+00  0.20991750623E+04  0.20991750623E+04  0.00000000000E+00 0. -1.
         21   -1    0    0  501  503 -0.00000000000E+00 -0.00000000000E+00 -0.13284189483E+04  0.13284189483E+04  0.00000000000E+00 0. -1.
    9000010    2    1    2  501    0 -0.97070571054E+02  0.16769066597E+03 -0.97375392260E+03  0.14088749598E+04  0.99959446541E+03 0.  0.
   -9000010    2    1    2    0  502  0.97070571054E+02 -0.16769066597E+03  0.17445100366E+04  0.20187190508E+04  0.99718026617E+03 0.  0.
        -13    1    3    3    0    0 -0.11126410217E+03 -0.15234525017E+03 -0.10603706561E+04  0.10770212232E+04  0.10566000000E+00 0.  1.
         13    1    4    4    0    0 -0.26197657583E+03  0.25553287239E+03  0.11435497536E+04  0.12006809839E+04  0.10566000000E+00 0. -1.
          4    1    3    3  501    0  0.14193531116E+02  0.32003591614E+03  0.86616733535E+02  0.33185373657E+03  0.00000000000E+00 0.  1.
         -4    1    4    4    0  502  0.35904714689E+03 -0.42322353836E+03  0.60096028299E+03  0.81803806687E+03  0.00000000000E+00 0. -1.
</event>
<event>
 8    1  0.7572579E-006  0.1117960E+04  0.7818608E-02  0.8673558E-01
         21   -1    0    0  501  502  0.00000000000E+00  0.00000000000E+00  0.29331320927E+04  0.29331320927E+04  0.00000000000E+00 0.  1.
         21   -1    0    0  502  503 -0.00000000000E+00 -0.00000000000E+00 -0.48295262491E+03  0.48295262491E+03  0.00000000000E+00 0.  1.
    9000010    2    1    2  501    0  0.38987274322E+03  0.26624308213E+03  0.18286277207E+04  0.21369594822E+04  0.99991517275E+03 0.  0.
   -9000010    2    1    2    0  503 -0.38987274322E+03 -0.26624308213E+03  0.62155174707E+03  0.12791252355E+04  0.10133847537E+04 0.  0.
        -13    1    3    3    0    0 -0.29058198228E+03  0.14210649797E+03  0.23537515701E+03  0.40004202391E+03  0.10566000000E+00 0.  1.
         13    1    4    4    0    0  0.41545192846E+02 -0.36148284796E+03  0.73748469579E+03  0.82236217089E+03  0.10566000000E+00 0. -1.
          4    1    3    3  501    0  0.68045472550E+03  0.12413658416E+03  0.15932525637E+04  0.17369174583E+04  0.00000000000E+00 0.  1.
         -4    1    4    4    0  503 -0.43141793607E+03  0.95239765822E+02 -0.11593294873E+03  0.45676306457E+03  0.00000000000E+00 0. -1.
</event>
<event>
 8    1  0.7572579E-006  0.1068799E+04  0.7818608E-02  0.8715706E-01
         21   -1    0    0  503  502  0.00000000000E+00  0.00000000000E+00  0.90119945847E+03  0.90119945847E+03  0.00000000000E+00 0.  1.
         21   -1    0    0  501  503 -0.00000000000E+00 -0.00000000000E+00 -0.14749824087E+04  0.14749824087E+04  0.00000000000E+00 0.  1.
    9000010    2    1    2  501    0 -0.28752238877E+03 -0.17281502574E+03 -0.75233496686E+03  0.13070347518E+04  0.10147895264E+04 0.  0.
   -9000010    2    1    2    0  502  0.28752238877E+03  0.17281502574E+03  0.17855201666E+03  0.10691471153E+04  0.99933006279E+03 0.  0.
        -13    1    3    3    0    0  0.26599458926E+03 -0.30622728279E+03 -0.58816838016E+03  0.71447206022E+03  0.10566000000E+00 0.  1.
         13    1    4    4    0    0  0.42104920091E+03 -0.32928245749E+03  0.84598676458E+02  0.54117124242E+03  0.10566000000E+00 0. -1.
          4    1    3    3  501    0 -0.55351697803E+03  0.13341225705E+03 -0.16416658670E+03  0.59256269161E+03  0.00000000000E+00 0.  1.
         -4    1    4    4    0  502 -0.13352681215E+03  0.50209748323E+03  0.93953340201E+02  0.52797587290E+03  0.00000000000E+00 0. -1.
</event>
<event>
 8    1  0.7572579E-006  0.1058571E+04  0.7818608E-02  0.8728689E-01
         21   -1    0    0  503  502  0.00000000000E+00  0.00000000000E+00  0.74130149656E+03  0.74130149656E+03  0.00000000000E+00 0.  1.
         21   -1    0    0  501  503 -0.00000000000E+00 -0.00000000000E+00 -0.16462540946E+04  0.16462540946E+04  0.00000000000E+00 0.  1.
    9000010    2    1    2  501    0  0.92038614819E+02 -0.26467588787E+03 -0.84175571507E+03  0.13270995306E+04  0.98697317491E+03 0.  0.
   -9000010    2    1    2    0  502 -0.92038614819E+02  0.26467588787E+03 -0.63196882985E+02  0.10604560606E+04  0.10208079046E+04 0.  0.
        -13    1    3    3    0    0  0.33279602767E+03  0.52873632858E+02 -0.86460078520E+03  0.92794576675E+03  0.10566000000E+00 0.  1.
         13    1    4    4    0    0  0.11121003399E+03 -0.35163005194E+03 -0.16417957791E+03  0.40369085951E+03  0.10566000000E+00 0. -1.
          4    1    3    3  501    0 -0.24075741285E+03 -0.31754952072E+03  0.22845070132E+02  0.39915376384E+03  0.00000000000E+00 0.  1.
         -4    1    4    4    0  502 -0.20324864881E+03  0.61630593980E+03  0.10098269493E+03  0.65676520108E+03  0.00000000000E+00 0. -1.
</event>
<event>
 8    1  0.7572579E-006  0.1076703E+04  0.7818608E-02  0.8708398E-01
         21   -1    0    0  501  502  0.00000000000E+00  0.00000000000E+00  0.26566328189E+04  0.26566328189E+04  0.00000000000E+00 0. -1.
         21   -1    0    0  502  503 -0.00000000000E+00 -0.00000000000E+00 -0.46717908578E+03  0.46717908578E+03  0.00000000000E+00 0. -1.
    9000010    2    1    2  501    0 -0.75075773774E+02  0.35839934218E+03  0.65595168688E+03  0.12500675305E+04  0.99915452004E+03 0.  0.
   -9000010    2    1    2    0  503  0.75075773774E+02 -0.35839934218E+03  0.15335020462E+04  0.18737443742E+04  0.10125230831E+04 0.  0.
        -13    1    3    3    0    0  0.39809413248E+03  0.41395933933E+03  0.45623553154E+03  0.73347947779E+03  0.10566000000E+00 0.  1.
         13    1    4    4    0    0  0.11980104655E+03 -0.82880606690E+02 -0.12497775846E+03  0.19193993069E+03  0.10566000000E+00 0. -1.
          4    1    3    3  501    0 -0.47316990625E+03 -0.55559997156E+02  0.19971615535E+03  0.51658805268E+03  0.00000000000E+00 0.  1.
         -4    1    4    4    0  503 -0.44725272773E+02 -0.27551873549E+03  0.16584798047E+04  0.16818044435E+04  0.00000000000E+00 0. -1.
</event>
<event>
 8    1  0.7572579E-006  0.1000209E+04  0.7818608E-02  0.8776781E-01
         21   -1    0    0  501  502  0.00000000000E+00  0.00000000000E+00  0.29929118377E+04  0.29929118377E+04  0.00000000000E+00 0. -1.
         21   -1    0    0  502  503 -0.00000000000E+00 -0.00000000000E+00 -0.34523538603E+03  0.34523538603E+03  0.00000000000E+00 0. -1.
    9000010    2    1    2  501    0  0.12289885340E+03  0.52811679981E+02  0.16575729384E+04  0.19307657463E+04  0.98102758332E+03 0.  0.
   -9000010    2    1    2    0  503 -0.12289885340E+03 -0.52811679981E+02  0.99010351326E+03  0.14073814774E+04  0.99122371560E+03 0.  0.
        -13    1    3    3    0    0 -0.21947212256E+03 -0.29098804850E+03  0.25015958009E+03  0.44206547437E+03  0.10566000000E+00 0.  1.
         13    1    4    4    0    0  0.38851451189E+03  0.19182850279E+03  0.43039057976E+03  0.61071905385E+03  0.10566000000E+00 0. -1.
          4    1    3    3  501    0  0.34237097596E+03  0.34379972848E+03  0.14074133584E+04  0.14887002720E+04  0.00000000000E+00 0.  1.
         -4    1    4    4    0  503 -0.51141336529E+03 -0.24464018277E+03  0.55971293351E+03  0.79666242359E+03  0.00000000000E+00 0. -1.
</event>
<event>
 8    1  0.7572579E-006  0.1186566E+04  0.7818608E-02  0.8617390E-01
         21   -1    0    0  501  502  0.00000000000E+00  0.00000000000E+00  0.19030428594E+04  0.19030428594E+04  0.00000000000E+00 0. -1.
         21   -1    0    0  502  503 -0.00000000000E+00 -0.00000000000E+00 -0.18882408680E+04  0.18882408680E+04  0.00000000000E+00 0. -1.
    9000010    2    1    2  501    0 -0.37753622453E+03  0.50425885785E+03  0.14870939690E+04  0.19024686277E+04  0.10055485121E+04 0.  0.
   -9000010    2    1    2    0  503  0.37753622453E+03 -0.50425885785E+03 -0.14722919775E+04  0.18888150998E+04  0.10015828560E+04 0.  0.
        -13    1    3    3    0    0 -0.35611431242E+03 -0.17028238192E+03  0.98545632682E+03  0.10615732082E+04  0.10566000000E+00 0.  1.
         13    1    4    4    0    0  0.49755286980E+03 -0.64559617872E+03 -0.64055231058E+03  0.10366583613E+04  0.10566000000E+00 0. -1.
          4    1    3    3  501    0 -0.21421912110E+02  0.67454123978E+03  0.50163764215E+03  0.84089541948E+03  0.00000000000E+00 0.  1.
         -4    1    4    4    0  503 -0.12001664527E+03  0.14133732087E+03 -0.83173966695E+03  0.85215673851E+03  0.00000000000E+00 0. -1.
</event>
<event>
 8    1  0.7572579E-006  0.1138345E+04  0.7818608E-02  0.8654674E-01
         21   -1    0    0  503  502  0.00000000000E+00  0.00000000000E+00  0.14115641833E+04  0.14115641833E+04  0.00000000000E+00 0. -1.
         21   -1    0    0  501  503 -0.00000000000E+00 -0.00000000000E+00 -0.99840521039E+03  0.99840521039E+03  0.00000000000E+00 0. -1.
    9000010    2    1    2  501    0 -0.52264860199E+03  0.10843941830E+03 -0.13681080545E+03  0.11465367923E+04  0.10054395810E+04 0.  0.
   -9000010    2    1    2    0  502  0.52264860199E+03 -0.10843941830E+03  0.54996977833E+03  0.12634326014E+04  0.10044274551E+04 0.  0.
        -13    1    3    3    0    0 -0.65003902264E+03  0.33468777605E+03  0.16385404649E+03  0.74927618280E+03  0.10566000000E+00 0.  1.
         13    1    4    4    0    0  0.73710125624E+02 -0.21309625570E+03  0.73341660302E+03  0.76729598042E+03  0.10566000000E+00 0. -1.
          4    1    3    3  501    0  0.12739042066E+03 -0.22624835774E+03 -0.30066485194E+03  0.39726060949E+03  0.00000000000E+00 0.  1.
         -4    1    4    4    0  502  0.44893847636E+03  0.10465683740E+03 -0.18344682469E+03  0.49613662097E+03  0.00000000000E+00 0. -1.
</event>
<event>
 8    1  0.7572579E-006  0.1051089E+04  0.7818608E-02  0.8729562E-01
         21   -1    0    0  501  502  0.00000000000E+00  0.00000000000E+00  0.11014358917E+04  0.11014358917E+04  0.00000000000E+00 0.  1.
         21   -1    0    0  502  503 -0.00000000000E+00 -0.00000000000E+00 -0.10068715940E+04  0.10068715940E+04  0.00000000000E+00 0.  1.
    9000010    2    1    2  501    0  0.14335303970E+03 -0.28059460424E+03  0.15459813422E+03  0.10555058901E+04  0.99544395878E+03 0.  0.
   -9000010    2    1    2    0  503 -0.14335303970E+03  0.28059460424E+03 -0.60033836518E+02  0.10528015956E+04  0.10027480801E+04 0.  0.
        -13    1    3    3    0    0  0.47707712256E+03 -0.30830459970E+03 -0.16612604973E+03  0.59182107315E+03  0.10566000000E+00 0.  1.
         13    1    4    4    0    0 -0.13109558082E+03 -0.29308992226E+03 -0.29188350707E+03  0.43391675090E+03  0.10566000000E+00 0. -1.
          4    1    3    3  501    0 -0.33372408286E+03  0.27709995459E+02  0.32072418395E+03  0.46368481698E+03  0.00000000000E+00 0.  1.
         -4    1    4    4    0  503 -0.12257458875E+02  0.57368452650E+03  0.23184967056E+03  0.61888484468E+03  0.00000000000E+00 0. -1.
</event>
<event>
 8    1  0.7572579E-006  0.1003179E+04  0.7818608E-02  0.8790805E-01
         21   -1    0    0  501  502  0.00000000000E+00  0.00000000000E+00  0.18540140045E+04  0.18540140045E+04  0.00000000000E+00 0.  1.
         21   -1    0    0  502  503 -0.00000000000E+00 -0.00000000000E+00 -0.53943144264E+03  0.53943144264E+03  0.00000000000E+00 0.  1.
    9000010    2    1    2  501    0  0.84253854197E+02 -0.37357553139E+02  0.95113220577E+03  0.13264573389E+04  0.91996864094E+03 0.  0.
   -9000010    2    1    2    0  503 -0.84253854197E+02  0.37357553139E+02  0.36345035610E+03  0.10669881083E+04  0.99893601552E+03 0.  0.
        -13    1    3    3    0    0 -0.29886218990E+03 -0.30735604799E+03  0.61506156224E+03  0.74972467300E+03  0.10566000000E+00 0.  1.
         13    1    4    4    0    0 -0.36701578351E+03  0.29458579126E+03 -0.84461273850E+02  0.47813710555E+03  0.10566000000E+00 0. -1.
          4    1    3    3  501    0  0.38311604410E+03  0.26999849485E+03  0.33607064353E+03  0.57673266589E+03  0.00000000000E+00 0.  1.
         -4    1    4    4    0  503  0.28276192931E+03 -0.25722823812E+03  0.44791162995E+03  0.58885100272E+03  0.00000000000E+00 0. -1.
</event>
<event>
 8    1  0.7572579E-006  0.1140082E+04  0.7818608E-02  0.8653749E-01
         21   -1    0    0  501  502  0.00000000000E+00  0.00000000000E+00  0.25946761465E+04  0.25946761465E+04  0.00000000000E+00 0. -1.
         21   -1    0    0  502  503 -0.00000000000E+00 -0.00000000000E+00 -0.58014742620E+03  0.58014742620E+03  0.00000000000E+00 0. -1.
    9000010    2    1    2  501    0 -0.17313644532E+03  0.52436578516E+03  0.16002505337E+04  0.19648383180E+04  0.99742274882E+03 0.  0.
   -9000010    2    1    2    0  503  0.17313644532E+03 -0.52436578516E+03  0.41427818660E+03  0.12099852547E+04  0.99373145034E+03 0.  0.
        -13    1    3    3    0    0  0.23597066836E+02  0.79975281825E+03  0.10770009007E+04  0.13416752003E+04  0.10566000000E+00 0.  1.
         13    1    4    4    0    0 -0.12233927034E+03  0.10311908676E+03  0.48700001302E+03  0.51261044368E+03  0.10566000000E+00 0. -1.
          4    1    3    3  501    0 -0.19673351215E+03 -0.27538703309E+03  0.52324963294E+03  0.62316311762E+03  0.00000000000E+00 0.  1.
         -4    1    4    4    0  503  0.29547571566E+03 -0.62748487192E+03 -0.72721826414E+02  0.69737481104E+03  0.00000000000E+00 0. -1.
</event>
<event>
 8    1  0.7572579E-006  0.1185787E+04  0.7818608E-02  0.8618513E-01
         21   -1    0    0  501  502  0.00000000000E+00  0.00000000000E+00  0.30028843834E+04  0.30028843834E+04  0.00000000000E+00 0.  1.
         21   -1    0    0  502  503 -0.00000000000E+00 -0.00000000000E+00 -0.11268611640E+04  0.11268611640E+04  0.00000000000E+00 0.  1.
    9000010    2    1    2  501    0  0.23093113476E+03  0.58081546279E+03  0.25184988777E+04  0.27810919885E+04  0.10004800152E+04 0.  0.
   -9000010    2    1    2    0  503 -0.23093113476E+03 -0.58081546279E+03 -0.64247565826E+03  0.13486535590E+04  0.10076783515E+04 0.  0.
        -13    1    3    3    0    0 -0.97612790853E+02  0.76011700988E+03  0.13293538023E+04  0.15344339896E+04  0.10566000000E+00 0.  1.
         13    1    4    4    0    0  0.38120538476E+03 -0.33377892111E+03 -0.39956371198E+03  0.64527287611E+03  0.10566000000E+00 0. -1.
          4    1    3    3  501    0  0.32854392561E+03 -0.17930154709E+03  0.11891450754E+04  0.12466579988E+04  0.00000000000E+00 0.  1.
         -4    1    4    4    0  503 -0.61213651952E+03 -0.24703654168E+03 -0.24291194628E+03  0.70338068292E+03  0.00000000000E+00 0. -1.
</event>
<event>
 8    1  0.7572579E-006  0.1019592E+04  0.7818608E-02  0.8757687E-01
         21   -1    0    0  503  502  0.00000000000E+00  0.00000000000E+00  0.65418597592E+03  0.65418597592E+03  0.00000000000E+00 0.  1.
         21   -1    0    0  501  503 -0.00000000000E+00 -0.00000000000E+00 -0.20367563876E+04  0.20367563876E+04  0.00000000000E+00 0.  1.
    9000010    2    1    2  501    0 -0.21959325388E+01  0.17279382622E+03 -0.13266967397E+04  0.16698207548E+04  0.99915693739E+03 0.  0.
   -9000010    2    1    2    0  502  0.21959325388E+01 -0.17279382622E+03 -0.55873671997E+02  0.10211216087E+04  0.10048407556E+04 0.  0.
        -13    1    3    3    0    0 -0.11206499376E+03  0.78856347650E+02  0.14006883365E+03  0.19594942132E+03  0.10566000000E+00 0.  1.
         13    1    4    4    0    0 -0.18529996924E+03  0.34938808692E+03 -0.20658958604E+03  0.44619209104E+03  0.10566000000E+00 0. -1.
          4    1    3    3  501    0  0.10986906123E+03  0.93937478565E+02 -0.14667655734E+04  0.14738713335E+04  0.00000000000E+00 0.  1.
         -4    1    4    4    0  502  0.18749590178E+03 -0.52218191313E+03  0.15071591404E+03  0.57492951771E+03  0.00000000000E+00 0. -1.
</event>
<event>
 8    1  0.7572579E-006  0.1010163E+04  0.7818608E-02  0.8768276E-01
         21   -1    0    0  503  502  0.00000000000E+00  0.00000000000E+00  0.79817899308E+03  0.79817899308E+03  0.00000000000E+00 0. -1.
         21   -1    0    0  501  503 -0.00000000000E+00 -0.00000000000E+00 -0.15731395757E+04  0.15731395757E+04  0.00000000000E+00 0. -1.
    9000010    2    1    2  501    0 -0.56262551608E+02 -0.16868583084E+02 -0.91745447534E+03  0.13646071478E+04  0.10084542279E+04 0.  0.
   -9000010    2    1    2    0  502  0.56262551608E+02  0.16868583084E+02  0.14249389277E+03  0.10067114209E+04  0.99484338049E+03 0.  0.
        -13    1    3    3    0    0 -0.30749726476E+03  0.36795758115E+03 -0.71848195845E+03  0.86380766675E+03  0.10566000000E+00 0.  1.
         13    1    4    4    0    0  0.40024974345E+03 -0.11208471181E+03  0.38497209352E+03  0.56653893397E+03  0.10566000000E+00 0. -1.
          4    1    3    3  501    0  0.25123471315E+03 -0.38482616423E+03 -0.19897251689E+03  0.50079948107E+03  0.00000000000E+00 0.  1.
         -4    1    4    4    0  502 -0.34398719184E+03  0.12895329490E+03 -0.24247820075E+03  0.44017248694E+03  0.00000000000E+00 0. -1.
</event>
<event>
 8    1  0.7572579E-006  0.1157583E+04  0.7818608E-02  0.8639865E-01
         21   -1    0    0  501  502  0.00000000000E+00  0.00000000000E+00  0.13681089811E+04  0.13681089811E+04  0.00000000000E+00 0.  1.
         21   -1    0    0  502  503 -0.00000000000E+00 -0.00000000000E+00 -0.16582862427E+04  0.16582862427E+04  0.00000000000E+00 0.  1.
    9000010    2    1    2  501    0 -0.25179151678E+03 -0.50839331841E+03  0.82496230302E+03  0.14214643461E+04  0.10090269330E+04 0.  0.
   -9000010    2    1    2    0  503  0.25179151678E+03  0.50839331841E+03 -0.11151395647E+04  0.16049308778E+04  0.10051886090E+04 0.  0.
        -13    1    3    3    0    0  0.31351046730E+02  0.17369640842E+03  0.63475896501E+03  0.65884162380E+03  0.10566000000E+00 0.  1.
         13    1    4    4    0    0  0.40796369618E+03  0.28311873479E+03 -0.43150185653E+02  0.49845014302E+03  0.10566000000E+00 0. -1.
          4    1    3    3  501    0 -0.28314256351E+03 -0.68208972683E+03  0.19020333801E+03  0.76262272226E+03  0.00000000000E+00 0.  1.
         -4    1    4    4    0  503 -0.15617217940E+03  0.22527458362E+03 -0.10719893790E+04  0.11064807348E+04  0.00000000000E+00 0. -1.
</event>
<event>
 8    1  0.7572579E-006  0.1010483E+04  0.7818608E-02  0.8765516E-01
         21   -1    0    0  501  502  0.00000000000E+00  0.00000000000E+00  0.90931746735E+03  0.90931746735E+03  0.00000000000E+00 0.  1.
         21   -1    0    0  502  503 -0.00000000000E+00 -0.00000000000E+00 -0.12157968743E+04  0.12157968743E+04  0.00000000000E+00 0.  1.
    9000010    2    1    2  501    0 -0.99824420346E+02 -0.78815534247E+02  0.14558349255E+03  0.10209160449E+04  0.10024461153E+04 0.  0.
   -9000010    2    1    2    0  503  0.99824420346E+02  0.78815534247E+02 -0.45206289950E+03  0.11041982968E+04  0.99935789892E+03 0.  0.
        -13    1    3    3    0    0  0.25112950340E+03  0.31982607537E+03 -0.12423514713E+03  0.42519304899E+03  0.10566000000E+00 0.  1.
         13    1    4    4    0    0 -0.28289235895E+03 -0.28542813602E+03  0.10464847860E+02  0.40200352211E+03  0.10566000000E+00 0. -1.
          4    1    3    3  501    0 -0.35095392374E+03 -0.39864160962E+03  0.26981863968E+03  0.59572299589E+03  0.00000000000E+00 0.  1.
         -4    1    4    4    0  503  0.38271677929E+03  0.36424367026E+03 -0.46252774736E+03  0.70219477466E+03  0.00000000000E+00 0. -1.
</event>
<event>
 8    1  0.7572579E-006  0.1023396E+04  0.7818608E-02  0.8755781E-01
         21   -1    0    0  501  502  0.00000000000E+00  0.00000000000E+00  0.80542844285E+03  0.80542844285E+03  0.00000000000E+00 0. -1.
         21   -1    0    0  502  503 -0.00000000000E+00 -0.00000000000E+00 -0.13127932305E+04  0.13127932305E+04  0.00000000000E+00 0. -1.
    9000010    2    1    2  501    0 -0.19855554222E+01 -0.14592545599E+03 -0.96843632633E+02  0.10155581034E+04  0.10003406375E+04 0.  0.
   -9000010    2    1    2    0  503  0.19855554222E+01  0.14592545599E+03 -0.41052115502E+03  0.11026635699E+04  0.10129368927E+04 0.  0.
        -13    1    3    3    0    0 -0.70572485068E+02  0.39708312174E+03  0.12905283039E+03  0.42345026321E+03  0.10566000000E+00 0.  1.
         13    1    4    4    0    0 -0.37032006911E+03 -0.22938624320E+03 -0.37161507963E+03  0.57258430010E+03  0.10566000000E+00 0. -1.
          4    1    3    3  501    0  0.68586929646E+02 -0.54300857773E+03 -0.22589646302E+03  0.59210784019E+03  0.00000000000E+00 0.  1.
         -4    1    4    4    0  503  0.37230562453E+03  0.37531169919E+03 -0.38906075388E+02  0.53007926984E+03  0.00000000000E+00 0. -1.
</event>
<event>
 8    1  0.7572579E-006  0.1097843E+04  0.7818608E-02  0.8691095E-01
         21   -1    0    0  503  502  0.00000000000E+00  0.00000000000E+00  0.44586437821E+03  0.44586437821E+03  0.00000000000E+00 0.  1.
         21   -1    0    0  501  503 -0.00000000000E+00 -0.00000000000E+00 -0.30576687706E+04  0.30576687706E+04  0.00000000000E+00 0.  1.
    9000010    2    1    2  501    0 -0.18909588272E+03 -0.37731313578E+03 -0.19425908616E+04  0.22313488434E+04  0.10134771583E+04 0.  0.
   -9000010    2    1    2    0  502  0.18909588272E+03  0.37731313578E+03 -0.66921353088E+03  0.12721843054E+04  0.99623476239E+03 0.  0.
        -13    1    3    3    0    0  0.18258154229E+03 -0.29119354077E+03 -0.11209781095E+03  0.36151850320E+03  0.10566000000E+00 0.  1.
         13    1    4    4    0    0 -0.15455551636E+03 -0.25347115526E+03 -0.41489987300E+03  0.51017345086E+03  0.10566000000E+00 0. -1.
          4    1    3    3  501    0 -0.37167742501E+03 -0.86119595006E+02 -0.18304930506E+04  0.18698303402E+04  0.00000000000E+00 0.  1.
         -4    1    4    4    0  502  0.34365139907E+03  0.63078429104E+03 -0.25431365788E+03  0.76201085458E+03  0.00000000000E+00 0. -1.
</event>
<event>
 8    1  0.7572579E-006  0.1116649E+04  0.7818608E-02  0.8680156E-01
         21   -1    0    0  501  502  0.00000000000E+00  0.00000000000E+00  0.95621671025E+03  0.95621671025E+03  0.00000000000E+00 0. -1.
         21   -1    0    0  502  503 -0.00000000000E+00 -0.00000000000E+00 -0.17281038639E+04  0.17281038639E+04  0.00000000000E+00 0. -1.
    9000010    2    1    2  501    0  0.12494966311E+03 -0.38620969761E+03  0.31779002720E+03  0.11240961250E+04  0.99891503542E+03 0.  0.
   -9000010    2    1    2    0  503 -0.12494966311E+03  0.38620969761E+03 -0.10896771809E+04  0.15602244492E+04  0.10402565186E+04 0.  0.
        -13    1    3    3    0    0 -0.20840006023E+03 -0.57511654643E+03 -0.21816894536E+02  0.61209935070E+03  0.10566000000E+00 0.  1.
         13    1    4    4    0    0 -0.48985510408E+03 -0.69960963679E+02 -0.70296228912E+03  0.85965606525E+03  0.10566000000E+00 0. -1.
          4    1    3    3  501    0  0.33334972334E+03  0.18890684882E+03  0.33960692174E+03  0.51199677428E+03  0.00000000000E+00 0.  1.
         -4    1    4    4    0  503  0.36490544097E+03  0.45617066129E+03 -0.38671489174E+03  0.70056838393E+03  0.00000000000E+00 0. -1.
</event>
<event>
 8    1  0.7572579E-006  0.1089583E+04  0.7818608E-02  0.8703874E-01
         21   -1    0    0  501  502  0.00000000000E+00  0.00000000000E+00  0.12928729826E+04  0.12928729826E+04  0.00000000000E+00 0. -1.
         21   -1    0    0  502  503 -0.00000000000E+00 -0.00000000000E+00 -0.11359892223E+04  0.11359892223E+04  0.00000000000E+00 0. -1.
    9000010    2    1    2  501    0  0.99668795308E+02 -0.41169584807E+03  0.65286665712E+03  0.12702073529E+04  0.10038747468E+04 0.  0.
   -9000010    2    1    2    0  503 -0.99668795308E+02  0.41169584807E+03 -0.49598289685E+03  0.11586548519E+04  0.95762972587E+03 0.  0.
        -13    1    3    3    0    0  0.33385965770E+03 -0.32859149522E+03  0.83819427490E+03  0.96021054744E+03  0.10566000000E+00 0.  1.
         13    1    4    4    0    0 -0.56178282205E+02  0.53207841812E+03  0.10410325660E+03  0.54506966676E+03  0.10566000000E+00 0. -1.
          4    1    3    3  501    0 -0.23419086239E+03 -0.83104352855E+02 -0.18532761778E+03  0.30999680547E+03  0.00000000000E+00 0.  1.
         -4    1    4    4    0  503 -0.43490513104E+02 -0.12038257005E+03 -0.60008615345E+03  0.61358518518E+03  0.00000000000E+00 0. -1.
</event>
<event>
 8    1  0.7572579E-006  0.1045540E+04  0.7818608E-02  0.8734112E-01
         21   -1    0    0  503  502  0.00000000000E+00  0.00000000000E+00  0.61845128153E+03  0.61845128153E+03  0.00000000000E+00 0.  1.
         21   -1    0    0  501  503 -0.00000000000E+00 -0.00000000000E+00 -0.21752342505E+04  0.21752342505E+04  0.00000000000E+00 0.  1.
    9000010    2    1    2  501    0  0.28895403925E+03 -0.80088506593E+02 -0.13912178032E+04  0.17402989518E+04  0.10016211159E+04 0.  0.
   -9000010    2    1    2    0  502 -0.28895403925E+03  0.80088506593E+02 -0.16556516574E+03  0.10533865802E+04  0.99614399442E+03 0.  0.
        -13    1    3    3    0    0 -0.33465284360E+03 -0.11242553594E+03 -0.82502468243E+03  0.89738384465E+03  0.10566000000E+00 0.  1.
         13    1    4    4    0    0  0.21132493988E+03 -0.18121854625E+03 -0.36120062158E+03  0.45603102078E+03  0.10566000000E+00 0. -1.
          4    1    3    3  501    0  0.62360688285E+03  0.32337029350E+02 -0.56619312080E+03  0.84291510714E+03  0.00000000000E+00 0.  1.
         -4    1    4    4    0  502 -0.50027897913E+03  0.26130705284E+03  0.19563545584E+03  0.59735555945E+03  0.00000000000E+00 0. -1.
</event>
<event>
 8    1  0.7572579E-006  0.1035686E+04  0.7818608E-02  0.8746116E-01
         21   -1    0    0  503  502  0.00000000000E+00  0.00000000000E+00  0.21785536405E+04  0.21785536405E+04  0.00000000000E+00 0.  1.
         21   -1    0    0  501  503 -0.00000000000E+00 -0.00000000000E+00 -0.55137701116E+03  0.55137701116E+03  0.00000000000E+00 0.  1.
    9000010    2    1    2  501    0 -0.22110890876E+03  0.17750398293E+03  0.34067760277E+03  0.10902782815E+04  0.99611680471E+03 0.  0.
   -9000010    2    1    2    0  502  0.22110890876E+03 -0.17750398293E+03  0.12864990266E+04  0.16396523701E+04  0.97620865395E+03 0.  0.
        -13    1    3    3    0    0 -0.48568707728E+03  0.39757660881E+02  0.54318703264E+03  0.72974294942E+03  0.10566000000E+00 0.  1.
         13    1    4    4    0    0  0.45684561626E+03  0.75066522678E+02  0.11960355942E+04  0.12825147382E+04  0.10566000000E+00 0. -1.
          4    1    3    3  501    0  0.26457816852E+03  0.13774632205E+03 -0.20250942988E+03  0.36053533209E+03  0.00000000000E+00 0.  1.
         -4    1    4    4    0  502 -0.23573670751E+03 -0.25257050561E+03  0.90463432398E+02  0.35713763197E+03  0.00000000000E+00 0. -1.
</event>
<event>
 8    1  0.7572579E-006  0.1020445E+04  0.7818608E-02  0.8757097E-01
         21   -1    0    0  501  502  0.00000000000E+00  0.00000000000E+00  0.18023926551E+04  0.18023926551E+04  0.00000000000E+00 0.  1.
         21   -1    0    0  502  503 -0.00000000000E+00 -0.00000000000E+00 -0.64784152320E+03  0.64784152320E+03  0.00000000000E+00 0.  1.
    9000010    2    1    2  501    0  0.13918199010E+03  0.10715010075E+03  0.98899799942E+03  0.14164469424E+04  0.99867518612E+03 0.  0.
   -9000010    2    1    2    0  503 -0.13918199010E+03 -0.10715010075E+03  0.16555313247E+03  0.10337872359E+04  0.10052141259E+04 0.  0.
        -13    1    3    3    0    0  0.86798263660E+02  0.21688764974E+02 -0.20216331800E+03  0.22107546090E+03  0.10566000000E+00 0.  1.
         13    1    4    4    0    0 -0.92986468650E+02 -0.38924698533E+03 -0.29121902578E+03  0.49494265434E+03  0.10566000000E+00 0. -1.
          4    1    3    3  501    0  0.52383726442E+02  0.85461335780E+02  0.11911613174E+04  0.11953714815E+04  0.00000000000E+00 0.  1.
         -4    1    4    4    0  503 -0.46195521452E+02  0.28209688458E+03  0.45677215825E+03  0.53884458153E+03  0.00000000000E+00 0. -1.
</event>
<event>
 8    1  0.7572579E-006  0.1085306E+04  0.7818608E-02  0.8702260E-01
         21   -1    0    0  501  502  0.00000000000E+00  0.00000000000E+00  0.16224228732E+04  0.16224228732E+04  0.00000000000E+00 0.  1.
         21   -1    0    0  502  503 -0.00000000000E+00 -0.00000000000E+00 -0.74801579693E+03  0.74801579693E+03  0.00000000000E+00 0.  1.
    9000010    2    1    2  501    0  0.31854130848E+03  0.28520617562E+03  0.68712585865E+03  0.12690920469E+04  0.97756920479E+03 0.  0.
   -9000010    2    1    2    0  503 -0.31854130848E+03 -0.28520617562E+03  0.18728121761E+03  0.11013466232E+04  0.99753646655E+03 0.  0.
        -13    1    3    3    0    0  0.32472803479E+03  0.36034529345E+03 -0.85709244284E+02  0.49258817770E+03  0.10566000000E+00 0.  1.
         13    1    4    4    0    0 -0.35458167909E+03 -0.25093721575E+02  0.54919790023E+03  0.65419890461E+03  0.10566000000E+00 0. -1.
          4    1    3    3  501    0 -0.61867263127E+01 -0.75139117834E+02  0.77283510294E+03  0.77650386924E+03  0.00000000000E+00 0.  1.
         -4    1    4    4    0  503  0.36040370612E+02 -0.26011245404E+03 -0.36191668262E+03  0.44714771857E+03  0.00000000000E+00 0. -1.
</event>
<event>
 8    1  0.7572579E-006  0.1074589E+04  0.7818608E-02  0.8707964E-01
         21   -1    0    0  503  502  0.00000000000E+00  0.00000000000E+00  0.66798773864E+03  0.66798773864E+03  0.00000000000E+00 0. -1.
         21   -1    0    0  501  503 -0.00000000000E+00 -0.00000000000E+00 -0.19224463791E+04  0.19224463791E+04  0.00000000000E+00 0. -1.
    9000010    2    1    2  501    0 -0.34805321557E+03 -0.64698063165E+02 -0.21295075572E+03  0.10954855060E+04  0.10146002115E+04 0.  0.
   -9000010    2    1    2    0  502  0.34805321557E+03  0.64698063165E+02 -0.10415078848E+04  0.14949486118E+04  0.10123269223E+04 0.  0.
        -13    1    3    3    0    0  0.10626609994E+03 -0.43741550279E+03 -0.23427835162E+03  0.50745557764E+03  0.10566000000E+00 0.  1.
         13    1    4    4    0    0  0.18426161108E+03 -0.30243523724E+03 -0.10338911243E+04  0.10928633410E+04  0.10566000000E+00 0. -1.
          4    1    3    3  501    0 -0.45431931551E+03  0.37271743962E+03  0.21327595898E+02  0.58802992831E+03  0.00000000000E+00 0.  1.
         -4    1    4    4    0  502  0.16379160449E+03  0.36713330041E+03 -0.76167604833E+01  0.40208527082E+03  0.00000000000E+00 0. -1.
</event>
<event>
 8    1  0.7572579E-006  0.1007935E+04  0.7818608E-02  0.8771021E-01
         21   -1    0    0  503  502  0.00000000000E+00  0.00000000000E+00  0.68663217872E+03  0.68663217872E+03  0.00000000000E+00 0. -1.
         21   -1    0    0  501  503 -0.00000000000E+00 -0.00000000000E+00 -0.14641766349E+04  0.14641766349E+04  0.00000000000E+00 0. -1.
    9000010    2    1    2  501    0  0.59592569737E+01  0.12501820316E+03 -0.30332760418E+03  0.10368901182E+04  0.98359972446E+03 0.  0.
   -9000010    2    1    2    0  502 -0.59592569737E+01 -0.12501820316E+03 -0.47421685198E+03  0.11139186954E+04  0.10001340777E+04 0.  0.
        -13    1    3    3    0    0  0.26407920407E+03 -0.26930974574E+03 -0.40639332219E+03  0.55445568683E+03  0.10566000000E+00 0.  1.
         13    1    4    4    0    0  0.18500378163E+03 -0.17504434325E+03  0.25383302125E+03  0.35958049886E+03  0.10566000000E+00 0. -1.
          4    1    3    3  501    0 -0.25811994709E+03  0.39432794891E+03  0.10306571800E+03  0.48243443140E+03  0.00000000000E+00 0.  1.
         -4    1    4    4    0  502 -0.19096303860E+03  0.50026140083E+02 -0.72804987323E+03  0.75433819651E+03  0.00000000000E+00 0. -1.
</event>
<event>
 8    1  0.7572579E-006  0.1030594E+04  0.7818608E-02  0.8750917E-01
         21   -1    0    0  501  502  0.00000000000E+00  0.00000000000E+00  0.24408032954E+04  0.24408032954E+04  0.00000000000E+00 0.  1.
         21   -1    0    0  502  503 -0.00000000000E+00 -0.00000000000E+00 -0.49011962755E+03  0.49011962755E+03  0.00000000000E+00 0.  1.
    9000010    2    1    2  501    0 -0.13914915652E+01 -0.19495538740E+03  0.14937997235E+04  0.18035953696E+04  0.99172027507E+03 0.  0.
   -9000010    2    1    2    0  503  0.13914915652E+01  0.19495538740E+03  0.45688394438E+03  0.11273275534E+04  0.10119856396E+04 0.  0.
        -13    1    3    3    0    0 -0.20057318538E+03  0.89578677429E+02 -0.46573293200E+02  0.22455071799E+03  0.10566000000E+00 0.  1.
         13    1    4    4    0    0 -0.29772867340E+03 -0.28998193770E+03  0.32502369780E+02  0.41687924194E+03  0.10566000000E+00 0. -1.
          4    1    3    3  501    0  0.19918169382E+03 -0.28453406483E+03  0.15403730167E+04  0.15790446516E+04  0.00000000000E+00 0.  1.
         -4    1    4    4    0  503  0.29912016496E+03  0.48493732511E+03  0.42438157460E+03  0.71044831144E+03  0.00000000000E+00 0. -1.
</event>
<event>
 8    1  0.7572579E-006  0.1001978E+04  0.7818608E-02  0.8775156E-01
         21   -1    0    0  503  502  0.00000000000E+00  0.00000000000E+00  0.12752446945E+04  0.12752446945E+04  0.00000000000E+00 0.  1.
         21   -1    0    0  501  503 -0.00000000000E+00 -0.00000000000E+00 -0.79481985091E+03  0.79481985091E+03  0.00000000000E+00 0.  1.
    9000010    2    1    2  501    0  0.40582555328E+02  0.60398397426E+02  0.93984382124E+02  0.99614873173E+03  0.98903201234E+03 0.  0.
   -9000010    2    1    2    0  502 -0.40582555328E+02 -0.60398397426E+02  0.38644046145E+03  0.10739158137E+04  0.99933179395E+03 0.  0.
        -13    1    3    3    0    0  0.39720437446E+03 -0.24796841356E+03  0.20601238489E+03  0.51156696835E+03  0.10566000000E+00 0.  1.
         13    1    4    4    0    0  0.41204822968E+02  0.37334055438E+03  0.49306810235E+03  0.61983640721E+03  0.10566000000E+00 0. -1.
          4    1    3    3  501    0 -0.35662181913E+03  0.30836681098E+03 -0.11202800276E+03  0.48458176338E+03  0.00000000000E+00 0.  1.
         -4    1    4    4    0  502 -0.81787378296E+02 -0.43373895181E+03 -0.10662764091E+03  0.45407940646E+03  0.00000000000E+00 0. -1.
</event>
<event>
 8    1  0.7572579E-006  0.1044945E+04  0.7818608E-02  0.8733516E-01
         21   -1    0    0  501  502  0.00000000000E+00  0.00000000000E+00  0.14506586147E+04  0.14506586147E+04  0.00000000000E+00 0. -1.
         21   -1    0    0  502  503 -0.00000000000E+00 -0.00000000000E+00 -0.88970387520E+03  0.88970387520E+03  0.00000000000E+00 0. -1.
    9000010    2    1    2  501    0 -0.16369423823E+03  0.28566078567E+03  0.73994509318E+03  0.12804021924E+04  0.99172231259E+03 0.  0.
   -9000010    2    1    2    0  503  0.16369423823E+03 -0.28566078567E+03 -0.17899035365E+03  0.10599602975E+04  0.99150410868E+03 0.  0.
        -13    1    3    3    0    0 -0.23752312281E+03 -0.26412643500E+03  0.61741743433E+03  0.71230913718E+03  0.10566000000E+00 0.  1.
         13    1    4    4    0    0 -0.23781701374E+03 -0.52234447173E+03 -0.14876654285E+03  0.59290148812E+03  0.10566000000E+00 0. -1.
          4    1    3    3  501    0  0.73828884579E+02  0.54978722067E+03  0.12252765885E+03  0.56809305522E+03  0.00000000000E+00 0.  1.
         -4    1    4    4    0  503  0.40151125198E+03  0.23668368606E+03 -0.30223810792E+02  0.46705880941E+03  0.00000000000E+00 0. -1.
</event>
<event>
 8    1  0.7572579E-006  0.1074074E+04  0.7818608E-02  0.8712451E-01
         21   -1    0    0  503  502  0.00000000000E+00  0.00000000000E+00  0.10368399883E+04  0.10368399883E+04  0.00000000000E+00 0.  1.
         21   -1    0    0  501  503 -0.00000000000E+00 -0.00000000000E+00 -0.11258853428E+04  0.11258853428E+04  0.00000000000E+00 0.  1.
    9000010    2    1    2  501    0  0.78501553125E+02  0.33265369388E+03  0.14540599848E+03  0.10633603945E+04  0.99637916999E+03 0.  0.
   -9000010    2    1    2    0  502 -0.78501553125E+02 -0.33265369388E+03 -0.23445135299E+03  0.10993649365E+04  0.10182410583E+04 0.  0.
        -13    1    3    3    0    0 -0.41522051697E+03  0.35841568682E+03  0.15105129843E+03  0.56893443225E+03  0.10566000000E+00 0.  1.
         13    1    4    4    0    0  0.18418375080E+03  0.30665556259E+03 -0.19417416916E+03  0.40701954162E+03  0.10566000000E+00 0. -1.
          4    1    3    3  501    0  0.49372207010E+03 -0.25761992938E+02 -0.56452999506E+01  0.49442596230E+03  0.00000000000E+00 0.  1.
         -4    1    4    4    0  502 -0.26268530392E+03 -0.63930925647E+03 -0.40277183832E+02  0.69234539491E+03  0.00000000000E+00 0. -1.
</event>
<event>
 8    1  0.7572579E-006  0.1033387E+04  0.7818608E-02  0.8748453E-01
         21   -1    0    0  503  502  0.00000000000E+00  0.00000000000E+00  0.13173776204E+04  0.13173776204E+04  0.00000000000E+00 0.  1.
         21   -1    0    0  501  503 -0.00000000000E+00 -0.00000000000E+00 -0.92108409702E+03  0.92108409702E+03  0.00000000000E+00 0.  1.
    9000010    2    1    2  501    0  0.75962497526E+02 -0.13036648339E+03 -0.21790260058E+03  0.10363282852E+04  0.10018627901E+04 0.  0.
   -9000010    2    1    2    0  502 -0.75962497526E+02  0.13036648339E+03  0.61419612398E+03  0.12021334323E+04  0.10223121780E+04 0.  0.
        -13    1    3    3    0    0  0.30423371783E+03 -0.27641039644E+03  0.26040202436E+03  0.48659026683E+03  0.10566000000E+00 0.  1.
         13    1    4    4    0    0  0.14926897246E+03 -0.19124305570E+02 -0.25267265325E+03  0.29409258078E+03  0.10566000000E+00 0. -1.
          4    1    3    3  501    0 -0.22827122030E+03  0.14604391305E+03 -0.47830462494E+03  0.54973801832E+03  0.00000000000E+00 0.  1.
         -4    1    4    4    0  502 -0.22523146998E+03  0.14949078896E+03  0.86686877723E+03  0.90804085150E+03  0.00000000000E+00 0. -1.
</event>
<event>
 8    1  0.7572579E-006  0.1041101E+04  0.7818608E-02  0.8745905E-01
         21   -1    0    0  503  502  0.00000000000E+00  0.00000000000E+00  0.27506605447E+04  0.27506605447E+04  0.00000000000E+00 0.  1.
         21   -1    0    0  501  503 -0.00000000000E+00 -0.00000000000E+00 -0.58635213477E+03  0.58635213477E+03  0.00000000000E+00 0.  1.
    9000010    2    1    2  501    0  0.22624480139E+02  0.10991761178E+03  0.20871119238E+04  0.23323651965E+04  0.10350350132E+04 0.  0.
   -9000010    2    1    2    0  502 -0.22624480139E+02 -0.10991761178E+03  0.77196486073E+02  0.10046474830E+04  0.99537104596E+03 0.  0.
        -13    1    3    3    0    0  0.20341338652E+03 -0.39885713638E+03  0.58853626809E+03  0.73948561249E+03  0.10566000000E+00 0.  1.
         13    1    4    4    0    0  0.15947601510E+03  0.32390659783E+03 -0.24330009275E+03  0.43536539804E+03  0.10566000000E+00 0. -1.
          4    1    3    3  501    0 -0.18078890639E+03  0.50877474816E+03  0.14985756557E+04  0.15928795840E+04  0.00000000000E+00 0.  1.
         -4    1    4    4    0  502 -0.18210049524E+03 -0.43382420961E+03  0.32049657882E+03  0.56928208495E+03  0.00000000000E+00 0. -1.
</event>
<event>
 8    1  0.7572579E-006  0.1013248E+04  0.7818608E-02  0.8766756E-01
         21   -1    0    0  503  502  0.00000000000E+00  0.00000000000E+00  0.12593565797E+04  0.12593565797E+04  0.00000000000E+00 0. -1.
         21   -1    0    0  501  503 -0.00000000000E+00 -0.00000000000E+00 -0.10222787156E+04  0.10222787156E+04  0.00000000000E+00 0. -1.
    9000010    2    1    2  501    0 -0.92302363065E+02 -0.17070905459E+03 -0.41279891762E+03  0.10941088258E+04  0.99448975295E+03 0.  0.
   -9000010    2    1    2    0  502  0.92302363065E+02  0.17070905459E+03  0.64987678170E+03  0.11875264695E+04  0.97479124781E+03 0.  0.
        -13    1    3    3    0    0 -0.45693633754E+03  0.14835031737E+03 -0.38691488598E+02  0.48197061703E+03  0.10566000000E+00 0.  1.
         13    1    4    4    0    0  0.40437643922E+03 -0.24569245920E+03  0.29288963839E+03  0.55647950596E+03  0.10566000000E+00 0. -1.
          4    1    3    3  501    0  0.36463397447E+03 -0.31905937195E+03 -0.37410742902E+03  0.61213820876E+03  0.00000000000E+00 0.  1.
         -4    1    4    4    0  502 -0.31207407616E+03  0.41640151379E+03  0.35698714331E+03  0.63104696353E+03  0.00000000000E+00 0. -1.
</event>
<event>
 8    1  0.7572579E-006  0.1125873E+04  0.7818608E-02  0.8666074E-01
         21   -1    0    0  503  502  0.00000000000E+00  0.00000000000E+00  0.96329770992E+03  0.96329770992E+03  0.00000000000E+00 0. -1.
         21   -1    0    0  501  503 -0.00000000000E+00 -0.00000000000E+00 -0.15224671637E+04  0.15224671637E+04  0.00000000000E+00 0. -1.
    9000010    2    1    2  501    0  0.51073745734E+03 -0.81406159169E+01 -0.74602106868E+03  0.13444925469E+04  0.99508479726E+03 0.  0.
   -9000010    2    1    2    0  502 -0.51073745734E+03  0.81406159169E+01  0.18685161493E+03  0.11412723267E+04  0.10033294463E+04 0.  0.
        -13    1    3    3    0    0 -0.27134493071E+03  0.27462342716E+02 -0.14645667328E+02  0.27312407149E+03  0.10566000000E+00 0.  1.
         13    1    4    4    0    0 -0.25974915637E+03 -0.35214597039E+03  0.45137124996E+03  0.62865922815E+03  0.10566000000E+00 0. -1.
          4    1    3    3  501    0  0.78208238806E+03 -0.35602958633E+02 -0.73137540135E+03  0.10713684754E+04  0.00000000000E+00 0.  1.
         -4    1    4    4    0  502 -0.25098830098E+03  0.36028658630E+03 -0.26451963502E+03  0.51261309856E+03  0.00000000000E+00 0. -1.
</event>
<event>
 8    1  0.7572579E-006  0.1004904E+04  0.7818608E-02  0.8772262E-01
         21   -1    0    0  501  502  0.00000000000E+00  0.00000000000E+00  0.65286117681E+03  0.65286117681E+03  0.00000000000E+00 0.  1.
         21   -1    0    0  502  503 -0.00000000000E+00 -0.00000000000E+00 -0.16909514572E+04  0.16909514572E+04  0.00000000000E+00 0.  1.
    9000010    2    1    2  501    0 -0.48959578136E+01  0.70899843724E+02 -0.15743556551E+03  0.10076294728E+04  0.99271367418E+03 0.  0.
   -9000010    2    1    2    0  503  0.48959578136E+01 -0.70899843724E+02 -0.88065471490E+03  0.13361831612E+04  0.10023881260E+04 0.  0.
        -13    1    3    3    0    0 -0.30149023489E+03 -0.35863548804E+03 -0.25448529944E+02  0.46921574341E+03  0.10566000000E+00 0.  1.
         13    1    4    4    0    0  0.27473934086E+03 -0.19173590577E+03  0.68573258262E+02  0.34197465679E+03  0.10566000000E+00 0. -1.
          4    1    3    3  501    0  0.29659427708E+03  0.42953533177E+03 -0.13198703557E+03  0.53841372939E+03  0.00000000000E+00 0.  1.
         -4    1    4    4    0  503 -0.26984338304E+03  0.12083606205E+03 -0.94922797316E+03  0.99420850444E+03  0.00000000000E+00 0. -1.
</event>
<event>
 8    1  0.7572579E-006  0.1009751E+04  0.7818608E-02  0.8769656E-01
         21   -1    0    0  501  502  0.00000000000E+00  0.00000000000E+00  0.74873135160E+03  0.74873135160E+03  0.00000000000E+00 0. -1.
         21   -1    0    0  502  503 -0.00000000000E+00 -0.00000000000E+00 -0.13784891525E+04  0.13784891525E+04  0.00000000000E+00 0. -1.
    9000010    2    1    2  501    0  0.16122848164E+03  0.10707202767E+03 -0.12956138674E+03  0.10003692247E+04  0.97287891869E+03 0.  0.
   -9000010    2    1    2    0  503 -0.16122848164E+03 -0.10707202767E+03 -0.50019641421E+03  0.11268512794E+04  0.99102891521E+03 0.  0.
        -13    1    3    3    0    0  0.23392091488E+03  0.18215300925E+03  0.37899752283E+03  0.48118379719E+03  0.10566000000E+00 0.  1.
         13    1    4    4    0    0  0.23408152079E+03 -0.42917573564E+03 -0.16214266294E+03  0.51504973036E+03  0.10566000000E+00 0. -1.
          4    1    3    3  501    0 -0.72692433244E+02 -0.75080981586E+02 -0.50855890957E+03  0.51918542753E+03  0.00000000000E+00 0.  1.
         -4    1    4    4    0  503 -0.39531000243E+03  0.32210370797E+03 -0.33805375126E+03  0.61180154907E+03  0.00000000000E+00 0. -1.
</event>
<event>
 8    1  0.7572579E-006  0.1088961E+04  0.7818608E-02  0.8695347E-01
         21   -1    0    0  503  502  0.00000000000E+00  0.00000000000E+00  0.13508429233E+04  0.13508429233E+04  0.00000000000E+00 0. -1.
         21   -1    0    0  501  503 -0.00000000000E+00 -0.00000000000E+00 -0.13712218100E+04  0.13712218100E+04  0.00000000000E+00 0. -1.
    9000010    2    1    2  501    0  0.29818492453E+03 -0.31517489949E+03 -0.82697673997E+03  0.13673794876E+04  0.99879260513E+03 0.  0.
   -9000010    2    1    2    0  502 -0.29818492453E+03  0.31517489949E+03  0.80659785318E+03  0.13546852457E+04  0.99815958231E+03 0.  0.
        -13    1    3    3    0    0  0.51344730785E+03  0.34774696245E+02 -0.80563018761E+03  0.95596936551E+03  0.10566000000E+00 0.  1.
         13    1    4    4    0    0  0.24227789060E+03  0.40642578137E+03  0.61084673939E+03  0.77266696721E+03  0.10566000000E+00 0. -1.
          4    1    3    3  501    0 -0.21526238331E+03 -0.34994959574E+03 -0.21346552354E+02  0.41141012205E+03  0.00000000000E+00 0.  1.
         -4    1    4    4    0  502 -0.54046281513E+03 -0.91250881873E+02  0.19575111379E+03  0.58201827852E+03  0.00000000000E+00 0. -1.
</event>
<event>
 8    1  0.7572579E-006  0.1008730E+04  0.7818608E-02  0.8769493E-01
         21   -1    0    0  501  502  0.00000000000E+00  0.00000000000E+00  0.58295038212E+03  0.58295038212E+03  0.00000000000E+00 0. -1.
         21   -1    0    0  502  503 -0.00000000000E+00 -0.00000000000E+00 -0.17432801412E+04  0.17432801412E+04  0.00000000000E+00 0. -1.
    9000010    2    1    2  501    0 -0.20930801402E+03  0.20944670763E+02 -0.70956101229E+03  0.12332939684E+04  0.98655393078E+03 0.  0.
   -9000010    2    1    2    0  503  0.20930801402E+03 -0.20944670763E+02 -0.45076874681E+03  0.10929365550E+04  0.97317486923E+03 0.  0.
        -13    1    3    3    0    0  0.22960085331E+02  0.45113560248E+03 -0.56520462047E+03  0.72353767802E+03  0.10566000000E+00 0.  1.
         13    1    4    4    0    0  0.54303891399E+03  0.58746256995E+02 -0.25897757106E+02  0.54682089371E+03  0.10566000000E+00 0. -1.
          4    1    3    3  501    0 -0.23226809935E+03 -0.43019093172E+03 -0.14435639182E+03  0.50975629037E+03  0.00000000000E+00 0.  1.
         -4    1    4    4    0  503 -0.33373089997E+03 -0.79690927758E+02 -0.42487098971E+03  0.54611566124E+03  0.00000000000E+00 0. -1.
</event>
<event>
 8    1  0.7572579E-006  0.1104272E+04  0.7818608E-02  0.8693758E-01
         21   -1    0    0  503  502  0.00000000000E+00  0.00000000000E+00  0.15713117227E+04  0.15713117227E+04  0.00000000000E+00 0. -1.
         21   -1    0    0  501  503 -0.00000000000E+00 -0.00000000000E+00 -0.92238827672E+03  0.92238827672E+03  0.00000000000E+00 0. -1.
    9000010    2    1    2  501    0 -0.28678737164E+02 -0.23330114130E+03 -0.23775082235E+03  0.10775052381E+04  0.10243242612E+04 0.  0.
   -9000010    2    1    2    0  502  0.28678737164E+02  0.23330114130E+03  0.88667426831E+03  0.14161947613E+04  0.10789645274E+04 0.  0.
        -13    1    3    3    0    0 -0.30689912088E+03  0.22760523578E+03  0.15372405136E+03  0.41185229013E+03  0.10566000000E+00 0.  1.
         13    1    4    4    0    0  0.21486969144E+03 -0.10096044047E+03  0.99145863128E+03  0.10194862547E+04  0.10566000000E+00 0. -1.
          4    1    3    3  501    0  0.27822038371E+03 -0.46090637709E+03 -0.39147487371E+03  0.66565294794E+03  0.00000000000E+00 0.  1.
         -4    1    4    4    0  502 -0.18619095427E+03  0.33426158178E+03 -0.10478436297E+03  0.39670850662E+03  0.00000000000E+00 0. -1.
</event>
<event>
 8    1  0.7572579E-006  0.1024398E+04  0.7818608E-02  0.8756489E-01
         21   -1    0    0  501  502  0.00000000000E+00  0.00000000000E+00  0.10272032025E+04  0.10272032025E+04  0.00000000000E+00 0. -1.
         21   -1    0    0  502  503 -0.00000000000E+00 -0.00000000000E+00 -0.13368011626E+04  0.13368011626E+04  0.00000000000E+00 0. -1.
    9000010    2    1    2  501    0  0.14948812938E+03 -0.18184876502E+03  0.43536495509E+03  0.11130745369E+04  0.99698375438E+03 0.  0.
   -9000010    2    1    2    0  503 -0.14948812938E+03  0.18184876502E+03 -0.74496291521E+03  0.12509298281E+04  0.97695445937E+03 0.  0.
        -13    1    3    3    0    0  0.24487400121E+03 -0.56982429361E+03  0.21259949079E+03  0.65563828191E+03  0.10566000000E+00 0.  1.
         13    1    4    4    0    0  0.31854827856E+03 -0.23040017674E+02 -0.65970173830E+03  0.73294627557E+03  0.10566000000E+00 0. -1.
          4    1    3    3  501    0 -0.95385871831E+02  0.38797552859E+03  0.22276546430E+03  0.45743625503E+03  0.00000000000E+00 0.  1.
         -4    1    4    4    0  503 -0.46803640794E+03  0.20488878269E+03 -0.85261176910E+02  0.51798355256E+03  0.00000000000E+00 0. -1.
</event>
<event>
 8    1  0.7572579E-006  0.1020882E+04  0.7818608E-02  0.8755468E-01
         21   -1    0    0  503  502  0.00000000000E+00  0.00000000000E+00  0.16814397916E+04  0.16814397916E+04  0.00000000000E+00 0. -1.
         21   -1    0    0  501  503 -0.00000000000E+00 -0.00000000000E+00 -0.62920888000E+03  0.62920888000E+03  0.00000000000E+00 0. -1.
    9000010    2    1    2  501    0 -0.14942993746E+03  0.15029164040E+03  0.67242593880E+03  0.12224389953E+04  0.99864086174E+03 0.  0.
   -9000010    2    1    2    0  502  0.14942993746E+03 -0.15029164040E+03  0.37980497277E+03  0.10882096763E+04  0.99751270607E+03 0.  0.
        -13    1    3    3    0    0  0.30312672277E+03 -0.13692735105E+03  0.59391626616E+03  0.68071392809E+03  0.10566000000E+00 0.  1.
         13    1    4    4    0    0  0.91627863068E+01  0.38437130914E+03  0.37260572007E+03  0.53540666202E+03  0.10566000000E+00 0. -1.
          4    1    3    3  501    0 -0.45255666023E+03  0.28721899145E+03  0.78509672632E+02  0.54172506723E+03  0.00000000000E+00 0.  1.
         -4    1    4    4    0  502  0.14026715115E+03 -0.53466294954E+03  0.71992526974E+01  0.55280301423E+03  0.00000000000E+00 0. -1.
</event>
<event>
 8    1  0.7572579E-006  0.1031391E+04  0.7818608E-02  0.8748810E-01
         21   -1    0    0  503  502  0.00000000000E+00  0.00000000000E+00  0.97815199594E+03  0.97815199594E+03  0.00000000000E+00 0.  1.
         21   -1    0    0  501  503 -0.00000000000E+00 -0.00000000000E+00 -0.16170889667E+04  0.16170889667E+04  0.00000000000E+00 0.  1.
    9000010    2    1    2  501    0 -0.67787432687E+02 -0.11581892404E+03 -0.10707588553E+04  0.14771007066E+04  0.10086093456E+04 0.  0.
   -9000010    2    1    2    0  502  0.67787432687E+02  0.11581892404E+03  0.43182188452E+03  0.11181402561E+04  0.10226232606E+04 0.  0.
        -13    1    3    3    0    0 -0.28854073770E+03  0.81020795647E+02  0.62273111043E+02  0.30610141810E+03  0.10566000000E+00 0.  1.
         13    1    4    4    0    0 -0.12466920890E+03 -0.52695153167E+02 -0.30741678508E+03  0.33589325943E+03  0.10566000000E+00 0. -1.
          4    1    3    3  501    0  0.22075330501E+03 -0.19683971969E+03 -0.11330319663E+04  0.11709992885E+04  0.00000000000E+00 0.  1.
         -4    1    4    4    0  502  0.19245664159E+03  0.16851407721E+03  0.73923866960E+03  0.78224699663E+03  0.00000000000E+00 0. -1.
</event>
<event>
 8    1  0.7572579E-006  0.1076246E+04  0.7818608E-02  0.8707368E-01
         21   -1    0    0  503  502  0.00000000000E+00  0.00000000000E+00  0.13895693336E+04  0.13895693336E+04  0.00000000000E+00 0.  1.
         21   -1    0    0  501  503 -0.00000000000E+00 -0.00000000000E+00 -0.84938724373E+03  0.84938724373E+03  0.00000000000E+00 0.  1.
    9000010    2    1    2  501    0 -0.31217508672E+03 -0.20834166598E+03  0.44307181979E+03  0.11583387632E+04  0.10022856471E+04 0.  0.
   -9000010    2    1    2    0  502  0.31217508672E+03  0.20834166598E+03  0.97110270033E+02  0.10806178140E+04  0.10086847480E+04 0.  0.
        -13    1    3    3    0    0 -0.45021401964E+02 -0.57398791886E+03  0.87036485307E+02  0.58229238237E+03  0.10566000000E+00 0.  1.
         13    1    4    4    0    0 -0.58532855679E+02 -0.33059698063E+03  0.23794041288E+03  0.41150469019E+03  0.10566000000E+00 0. -1.
          4    1    3    3  501    0 -0.26715368476E+03  0.36564625287E+03  0.35603533448E+03  0.57604638087E+03  0.00000000000E+00 0.  1.
         -4    1    4    4    0  502  0.37070794240E+03  0.53893864662E+03 -0.14083014285E+03  0.66911312386E+03  0.00000000000E+00 0. -1.
</event>
<event>
 8    1  0.7572579E-006  0.1020794E+04  0.7818608E-02  0.8757866E-01
         21   -1    0    0  503  502  0.00000000000E+00  0.00000000000E+00  0.76444891778E+03  0.76444891778E+03  0.00000000000E+00 0. -1.
         21   -1    0    0  501  503 -0.00000000000E+00 -0.00000000000E+00 -0.16189017662E+04  0.16189017662E+04  0.00000000000E+00 0. -1.
    9000010    2    1    2  501    0  0.68477802805E+02 -0.14869285582E+03 -0.91642651725E+03  0.13718081721E+04  0.10075819196E+04 0.  0.
   -9000010    2    1    2    0  502 -0.68477802805E+02  0.14869285582E+03  0.61973668815E+02  0.10115425119E+04  0.99628246137E+03 0.  0.
        -13    1    3    3    0    0  0.28053367233E+03 -0.52100979857E+03 -0.55442642399E+03  0.81088779883E+03  0.10566000000E+00 0.  1.
         13    1    4    4    0    0  0.72770592472E+02 -0.38891091721E+03 -0.14064538910E+03  0.41991475003E+03  0.10566000000E+00 0. -1.
          4    1    3    3  501    0 -0.21205586952E+03  0.37231694275E+03 -0.36200009326E+03  0.56092037329E+03  0.00000000000E+00 0.  1.
         -4    1    4    4    0  502 -0.14124839528E+03  0.53760377303E+03  0.20261905791E+03  0.59162776183E+03  0.00000000000E+00 0. -1.
</event>
<event>
 8    1  0.7572579E-006  0.1028225E+04  0.7818608E-02  0.8753521E-01
         21   -1    0    0  501  502  0.00000000000E+00  0.00000000000E+00  0.16748707103E+04  0.16748707103E+04  0.00000000000E+00 0.  1.
         21   -1    0    0  502  503 -0.00000000000E+00 -0.00000000000E+00 -0.63818134126E+03  0.63818134126E+03  0.00000000000E+00 0.  1.
    9000010    2    1    2  501    0  0.32191496740E+02 -0.21946405774E+03  0.71896354005E+03  0.12368567690E+04  0.98168494436E+03 0.  0.
   -9000010    2    1    2    0  503 -0.32191496740E+02  0.21946405774E+03  0.31772582903E+03  0.10761952826E+04  0.10040148499E+04 0.  0.
        -13    1    3    3    0    0  0.14298531615E+03 -0.19349455403E+03  0.94963732366E+03  0.97964075085E+03  0.10566000000E+00 0.  1.
         13    1    4    4    0    0  0.97582085401E+02  0.57312980027E+03 -0.30789728551E+01  0.58138586377E+03  0.10566000000E+00 0. -1.
          4    1    3    3  501    0 -0.11079381941E+03 -0.25969503707E+02 -0.23067378361E+03  0.25721601814E+03  0.00000000000E+00 0.  1.
         -4    1    4    4    0  503 -0.12977358214E+03 -0.35366574253E+03  0.32080480189E+03  0.49480941884E+03  0.00000000000E+00 0. -1.
</event>
<event>
 8    1  0.7572579E-006  0.1127865E+04  0.7818608E-02  0.8673185E-01
         21   -1    0    0  503  502  0.00000000000E+00  0.00000000000E+00  0.54695530140E+03  0.54695530140E+03  0.00000000000E+00 0. -1.
         21   -1    0    0  501  503 -0.00000000000E+00 -0.00000000000E+00 -0.23983700566E+04  0.23983700566E+04  0.00000000000E+00 0. -1.
    9000010    2    1    2  501    0 -0.76093872571E+02  0.53863442770E+03 -0.51108280122E+03  0.11935922231E+04  0.93141797338E+03 0.  0.
   -9000010    2    1    2    0  502  0.76093872571E+02 -0.53863442770E+03 -0.13403319540E+04  0.17517331350E+04  0.98800906121E+03 0.  0.
        -13    1    3    3    0    0 -0.38789735073E+03  0.20902290339E+03 -0.58656751388E+03  0.73363232504E+03  0.10566000000E+00 0.  1.
         13    1    4    4    0    0 -0.14074407166E+03 -0.59486570069E+03 -0.13933407963E+04  0.15215362899E+04  0.10566000000E+00 0. -1.
          4    1    3    3  501    0  0.31180347816E+03  0.32961152431E+03  0.75484712662E+02  0.45995989803E+03  0.00000000000E+00 0.  1.
         -4    1    4    4    0  502  0.21683794423E+03  0.56231272998E+02  0.53008842308E+02  0.23019684508E+03  0.00000000000E+00 0. -1.
</event>
<event>
 8    1  0.7572579E-006  0.1038495E+04  0.7818608E-02  0.8743022E-01
         21   -1    0    0  503  502  0.00000000000E+00  0.00000000000E+00  0.83688838518E+03  0.83688838518E+03  0.00000000000E+00 0. -1.
         21   -1    0    0  501  503 -0.00000000000E+00 -0.00000000000E+00 -0.12850971111E+04  0.12850971111E+04  0.00000000000E+00 0. -1.
    9000010    2    1    2  501    0  0.63740893150E+02 -0.23731276824E+03 -0.34820731941E+03  0.10953172918E+04  0.10090051442E+04 0.  0.
   -9000010    2    1    2    0  502 -0.63740893150E+02  0.23731276824E+03 -0.10000140652E+03  0.10266682045E+04  0.99179991395E+03 0.  0.
        -13    1    3    3    0    0  0.29077093916E+03  0.26498988864E+03  0.74846026642E+02  0.40046138267E+03  0.10566000000E+00 0.  1.
         13    1    4    4    0    0  0.25305619639E+03 -0.25555499315E+03  0.14998174732E+03  0.38966694593E+03  0.10566000000E+00 0. -1.
          4    1    3    3  501    0 -0.22703004601E+03 -0.50230265689E+03 -0.42305334605E+03  0.69485590917E+03  0.00000000000E+00 0.  1.
         -4    1    4    4    0  502 -0.31679708954E+03  0.49286776139E+03 -0.24998315385E+03  0.63700125853E+03  0.00000000000E+00 0. -1.
</event>
<event>
 8    1  0.7572579E-006  0.1012380E+04  0.7818608E-02  0.8764811E-01
         21   -1    0    0  501  502  0.00000000000E+00  0.00000000000E+00  0.11732413325E+04  0.11732413325E+04  0.00000000000E+00 0.  1.
         21   -1    0    0  502  503 -0.00000000000E+00 -0.00000000000E+00 -0.92298784758E+03  0.92298784758E+03  0.00000000000E+00 0.  1.
    9000010    2    1    2  501    0  0.29837523776E+02 -0.12806843116E+03  0.38363508624E+03  0.10826303772E+04  0.10038031945E+04 0.  0.
   -9000010    2    1    2    0  503 -0.29837523776E+02  0.12806843116E+03 -0.13338160134E+03  0.10135988029E+04  0.99614260061E+03 0.  0.
        -13    1    3    3    0    0 -0.40092186849E+03 -0.13597570133E+03 -0.99922472628E+02  0.43498534192E+03  0.10566000000E+00 0.  1.
         13    1    4    4    0    0  0.10301702484E+03  0.48058646625E+03  0.18014627454E+03  0.52347736374E+03  0.10566000000E+00 0. -1.
          4    1    3    3  501    0  0.43075939226E+03  0.79072701723E+01  0.48355755887E+03  0.64764503525E+03  0.00000000000E+00 0.  1.
         -4    1    4    4    0  503 -0.13285454862E+03 -0.35251803509E+03 -0.31352787588E+03  0.49012143914E+03  0.00000000000E+00 0. -1.
</event>
<event>
 8    1  0.7572579E-006  0.1045740E+04  0.7818608E-02  0.8736875E-01
         21   -1    0    0  501  502  0.00000000000E+00  0.00000000000E+00  0.99204446699E+03  0.99204446699E+03  0.00000000000E+00 0.  1.
         21   -1    0    0  502  503 -0.00000000000E+00 -0.00000000000E+00 -0.12226745375E+04  0.12226745375E+04  0.00000000000E+00 0.  1.
    9000010    2    1    2  501    0 -0.76528199053E+02 -0.15118808415E+03  0.25967607945E+03  0.10597416551E+04  0.10133638573E+04 0.  0.
   -9000010    2    1    2    0  503  0.76528199053E+02  0.15118808415E+03 -0.49030614999E+03  0.11549773494E+04  0.10319196455E+04 0.  0.
        -13    1    3    3    0    0  0.39072333472E+03 -0.19661411728E+03 -0.12267778117E+03  0.45428150366E+03  0.10566000000E+00 0.  1.
         13    1    4    4    0    0 -0.38262926230E+03 -0.11527878500E+03 -0.47923167052E+03  0.62398506058E+03  0.10566000000E+00 0. -1.
          4    1    3    3  501    0 -0.46725153378E+03  0.45426033125E+02  0.38235386061E+03  0.60546015148E+03  0.00000000000E+00 0.  1.
         -4    1    4    4    0  503  0.45915746135E+03  0.26646686915E+03 -0.11074479470E+02  0.53099228880E+03  0.00000000000E+00 0. -1.
</event>
<event>
 8    1  0.7572579E-006  0.1019332E+04  0.7818608E-02  0.8757185E-01
         21   -1    0    0  503  502  0.00000000000E+00  0.00000000000E+00  0.17166159127E+04  0.17166159127E+04  0.00000000000E+00 0.  1.
         21   -1    0    0  501  503 -0.00000000000E+00 -0.00000000000E+00 -0.60871239214E+03  0.60871239214E+03  0.00000000000E+00 0.  1.
    9000010    2    1    2  501    0 -0.71643075750E+02  0.13773964292E+03  0.44955935229E+03  0.11118805213E+04  0.10050222599E+04 0.  0.
   -9000010    2    1    2    0  502  0.71643075750E+02 -0.13773964292E+03  0.65834416827E+03  0.12134477835E+04  0.10074390998E+04 0.  0.
        -13    1    3    3    0    0  0.45740604386E+03  0.16601515751E+03  0.19717415727E+03  0.52503236181E+03  0.10566000000E+00 0.  1.
         13    1    4    4    0    0  0.10160577494E+03 -0.54311084902E+03  0.17004923872E+03  0.57810888471E+03  0.10566000000E+00 0. -1.
          4    1    3    3  501    0 -0.52904911961E+03 -0.28275514596E+02  0.25238519502E+03  0.58684815954E+03  0.00000000000E+00 0.  1.
         -4    1    4    4    0  502 -0.29962699194E+02  0.40537120611E+03  0.48829492956E+03  0.63533889879E+03  0.00000000000E+00 0. -1.
</event>
<event>
 8    1  0.7572579E-006  0.1041970E+04  0.7818608E-02  0.8737192E-01
         21   -1    0    0  503  502  0.00000000000E+00  0.00000000000E+00  0.15976357195E+04  0.15976357195E+04  0.00000000000E+00 0.  1.
         21   -1    0    0  501  503 -0.00000000000E+00 -0.00000000000E+00 -0.14495076091E+04  0.14495076091E+04  0.00000000000E+00 0.  1.
    9000010    2    1    2  501    0  0.11739673484E+03 -0.28027876363E+03 -0.10384929007E+04  0.14711117307E+04  0.99667649753E+03 0.  0.
   -9000010    2    1    2    0  502 -0.11739673484E+03  0.28027876363E+03  0.11866210112E+04  0.15760315979E+04  0.99169954857E+03 0.  0.
        -13    1    3    3    0    0 -0.13743832056E+03  0.30010107744E+03 -0.11204242958E+03  0.34857347264E+03  0.10566000000E+00 0.  1.
         13    1    4    4    0    0  0.13962077668E+03  0.59488859051E+03  0.85884686710E+03  0.10540419103E+04  0.10566000000E+00 0. -1.
          4    1    3    3  501    0  0.25483505541E+03 -0.58037984107E+03 -0.92645047113E+03  0.11225382581E+04  0.00000000000E+00 0.  1.
         -4    1    4    4    0  502 -0.25701751152E+03 -0.31460982688E+03  0.32777414408E+03  0.52198968757E+03  0.00000000000E+00 0. -1.
</event>
<event>
 8    1  0.7572579E-006  0.1140179E+04  0.7818608E-02  0.8662355E-01
         21   -1    0    0  501  502  0.00000000000E+00  0.00000000000E+00  0.14129601608E+04  0.14129601608E+04  0.00000000000E+00 0.  1.
         21   -1    0    0  502  503 -0.00000000000E+00 -0.00000000000E+00 -0.96567791310E+03  0.96567791310E+03  0.00000000000E+00 0.  1.
    9000010    2    1    2  501    0 -0.26274200310E+03 -0.31904760171E+03 -0.12712813116E+03  0.11019406102E+04  0.10135515844E+04 0.  0.
   -9000010    2    1    2    0  503  0.26274200310E+03  0.31904760171E+03  0.57441037889E+03  0.12766974638E+04  0.10626308852E+04 0.  0.
        -13    1    3    3    0    0 -0.34278279135E+03 -0.66028942744E+03 -0.78933168512E+02  0.74813944308E+03  0.10566000000E+00 0.  1.
         13    1    4    4    0    0  0.45100704226E+03  0.33558779918E+03 -0.10465735266E+03  0.57182138449E+03  0.10566000000E+00 0. -1.
          4    1    3    3  501    0  0.80040788242E+02  0.34124182573E+03 -0.48194962645E+02  0.35380116709E+03  0.00000000000E+00 0.  1.
         -4    1    4    4    0  503 -0.18826503916E+03 -0.16540197469E+02  0.67906773154E+03  0.70487607927E+03  0.00000000000E+00 0. -1.
</event>
<event>
 8    1  0.7572579E-006  0.1018823E+04  0.7818608E-02  0.8765594E-01
         21   -1    0    0  503  502  0.00000000000E+00  0.00000000000E+00  0.84581316586E+03  0.84581316586E+03  0.00000000000E+00 0. -1.
         21   -1    0    0  501  503 -0.00000000000E+00 -0.00000000000E+00 -0.25551201229E+04  0.25551201229E+04  0.00000000000E+00 0. -1.
    9000010    2    1    2  501    0  0.89360448011E+01  0.11105252073E+03 -0.20930794655E+04  0.23122268029E+04  0.97621648421E+03 0.  0.
   -9000010    2    1    2    0  502 -0.89360448011E+01 -0.11105252073E+03  0.38377250848E+03  0.10887064858E+04  0.10127131670E+04 0.  0.
        -13    1    3    3    0    0 -0.41473934975E+03 -0.18527897838E+03 -0.80606614785E+03  0.92524573705E+03  0.10566000000E+00 0.  1.
         13    1    4    4    0    0 -0.29797055410E+03 -0.39338498329E+02 -0.24839003802E+03  0.38991228593E+03  0.10566000000E+00 0. -1.
          4    1    3    3  501    0  0.42367539455E+03  0.29633149910E+03 -0.12870133177E+04  0.13869810659E+04  0.00000000000E+00 0.  1.
         -4    1    4    4    0  502  0.28903450930E+03 -0.71714022397E+02  0.63216254651E+03  0.69879419988E+03  0.00000000000E+00 0. -1.
</event>
<event>
 8    1  0.7572579E-006  0.1064522E+04  0.7818608E-02  0.8729472E-01
         21   -1    0    0  503  502  0.00000000000E+00  0.00000000000E+00  0.11724763582E+04  0.11724763582E+04  0.00000000000E+00 0.  1.
         21   -1    0    0  501  503 -0.00000000000E+00 -0.00000000000E+00 -0.97264424315E+03  0.97264424315E+03  0.00000000000E+00 0.  1.
    9000010    2    1    2  501    0 -0.92798434199E+02  0.13828114135E+03 -0.16682494775E+03  0.10192230451E+04  0.99159055518E+03 0.  0.
   -9000010    2    1    2    0  502  0.92798434199E+02 -0.13828114135E+03  0.36665706285E+03  0.11258975562E+04  0.10514155610E+04 0.  0.
        -13    1    3    3    0    0 -0.19907136853E+03  0.32800000360E+03  0.31122466744E+03  0.49403867957E+03  0.10566000000E+00 0.  1.
         13    1    4    4    0    0 -0.79697658961E+02 -0.50603547077E+03 -0.84087459066E+02  0.51912842964E+03  0.10566000000E+00 0. -1.
          4    1    3    3  501    0  0.10627293433E+03 -0.18971886225E+03 -0.47804961519E+03  0.52518436558E+03  0.00000000000E+00 0.  1.
         -4    1    4    4    0  502  0.17249609316E+03  0.36775432942E+03  0.45074452191E+03  0.60676912660E+03  0.00000000000E+00 0. -1.
</event>
<event>
 8    1  0.7572579E-006  0.1146531E+04  0.7818608E-02  0.8664558E-01
         21   -1    0    0  501  502  0.00000000000E+00  0.00000000000E+00  0.10179109077E+04  0.10179109077E+04  0.00000000000E+00 0. -1.
         21   -1    0    0  502  503 -0.00000000000E+00 -0.00000000000E+00 -0.13116978831E+04  0.13116978831E+04  0.00000000000E+00 0. -1.
    9000010    2    1    2  501    0  0.21617411027E+03 -0.30253543647E+03  0.18411218961E+03  0.11612193679E+04  0.10845617482E+04 0.  0.
   -9000010    2    1    2    0  503 -0.21617411027E+03  0.30253543647E+03 -0.47789916506E+03  0.11683894230E+04  0.99924336148E+03 0.  0.
        -13    1    3    3    0    0 -0.19491033603E+03 -0.60816533625E+02 -0.37461768114E+03  0.42664635008E+03  0.10566000000E+00 0.  1.
         13    1    4    4    0    0 -0.24693764372E+03 -0.26235440400E+03 -0.48307917310E+03  0.60263880711E+03  0.10566000000E+00 0. -1.
          4    1    3    3  501    0  0.41108444630E+03 -0.24171890285E+03  0.55872987074E+03  0.73457301778E+03  0.00000000000E+00 0.  1.
         -4    1    4    4    0  503  0.30763533443E+02  0.56488984048E+03  0.51800080383E+01  0.56575061586E+03  0.00000000000E+00 0. -1.
</event>
<event>
 8    1  0.7572579E-006  0.1032720E+04  0.7818608E-02  0.8750771E-01
         21   -1    0    0  501  502  0.00000000000E+00  0.00000000000E+00  0.15160457819E+04  0.15160457819E+04  0.00000000000E+00 0.  1.
         21   -1    0    0  502  503 -0.00000000000E+00 -0.00000000000E+00 -0.10496769510E+04  0.10496769510E+04  0.00000000000E+00 0.  1.
    9000010    2    1    2  501    0  0.15288089225E+03  0.21359792420E+03  0.98743613690E+03  0.14089941168E+04  0.97017403407E+03 0.  0.
   -9000010    2    1    2    0  503 -0.15288089225E+03 -0.21359792420E+03 -0.52106730602E+03  0.11567286161E+04  0.99875588279E+03 0.  0.
        -13    1    3    3    0    0 -0.22605955272E+03  0.40918213273E+03  0.83346080446E+03  0.95560968123E+03  0.10566000000E+00 0.  1.
         13    1    4    4    0    0 -0.44994455067E+02  0.15531487662E+03 -0.71018256946E+03  0.72835877493E+03  0.10566000000E+00 0. -1.
          4    1    3    3  501    0  0.37894044497E+03 -0.19558420852E+03  0.15397533244E+03  0.45338443561E+03  0.00000000000E+00 0.  1.
         -4    1    4    4    0  503 -0.10788643718E+03 -0.36891280082E+03  0.18911526344E+03  0.42836984115E+03  0.00000000000E+00 0. -1.
</event>
<event>
 8    1  0.7572579E-006  0.1077744E+04  0.7818608E-02  0.8706909E-01
         21   -1    0    0  501  502  0.00000000000E+00  0.00000000000E+00  0.19618016013E+04  0.19618016013E+04  0.00000000000E+00 0.  1.
         21   -1    0    0  502  503 -0.00000000000E+00 -0.00000000000E+00 -0.75628050109E+03  0.75628050109E+03  0.00000000000E+00 0.  1.
    9000010    2    1    2  501    0  0.36269234568E+03  0.14386049009E+03  0.12484712055E+04  0.16493064103E+04  0.10046341155E+04 0.  0.
   -9000010    2    1    2    0  503 -0.36269234568E+03 -0.14386049009E+03 -0.42950105284E+02  0.10687756921E+04  0.99408007231E+03 0.  0.
        -13    1    3    3    0    0 -0.29265350322E+03  0.22569645597E+03  0.22952898561E+03  0.43505003112E+03  0.10566000000E+00 0.  1.
         13    1    4    4    0    0  0.18528029209E+03 -0.35733763524E+03  0.17857408661E+03  0.44034950638E+03  0.10566000000E+00 0. -1.
          4    1    3    3  501    0  0.65534584890E+03 -0.81835965882E+02  0.10189422199E+04  0.12142563792E+04  0.00000000000E+00 0.  1.
         -4    1    4    4    0  503 -0.54797263777E+03  0.21347714515E+03 -0.22152419190E+03  0.62842618568E+03  0.00000000000E+00 0. -1.
</event>
<event>
 8    1  0.7572579E-006  0.1043219E+04  0.7818608E-02  0.8739924E-01
         21   -1    0    0  503  502  0.00000000000E+00  0.00000000000E+00  0.82104925939E+03  0.82104925939E+03  0.00000000000E+00 0.  1.
         21   -1    0    0  501  503 -0.00000000000E+00 -0.00000000000E+00 -0.13223699814E+04  0.13223699814E+04  0.00000000000E+00 0.  1.
    9000010    2    1    2  501    0 -0.18889119996E+03 -0.11673343668E+03 -0.10254570162E+03  0.10265815177E+04  0.99701926302E+03 0.  0.
   -9000010    2    1    2    0  502  0.18889119996E+03  0.11673343668E+03 -0.39877502038E+03  0.11168377231E+04  0.10193127107E+04 0.  0.
        -13    1    3    3    0    0 -0.14585626869E+03  0.22470632738E+03 -0.45877943751E+03  0.53126788735E+03  0.10566000000E+00 0.  1.
         13    1    4    4    0    0  0.37231626943E+03  0.41477309903E+03 -0.50395133647E+03  0.75141405953E+03  0.10566000000E+00 0. -1.
          4    1    3    3  501    0 -0.43034931268E+02 -0.34143976406E+03  0.35623373589E+03  0.49531363032E+03  0.00000000000E+00 0.  1.
         -4    1    4    4    0  502 -0.18342506947E+03 -0.29803966234E+03  0.10517631609E+03  0.36542366358E+03  0.00000000000E+00 0. -1.
</event>
<event>
 8    1  0.7572579E-006  0.1083515E+04  0.7818608E-02  0.8700546E-01
         21   -1    0    0  503  502  0.00000000000E+00  0.00000000000E+00  0.89338647818E+03  0.89338647818E+03  0.00000000000E+00 0. -1.
         21   -1    0    0  501  503 -0.00000000000E+00 -0.00000000000E+00 -0.13798805275E+04  0.13798805275E+04  0.00000000000E+00 0. -1.
    9000010    2    1    2  501    0  0.30768692082E+01 -0.44247727455E+03 -0.49837218045E+03  0.11896864663E+04  0.98548640390E+03 0.  0.
   -9000010    2    1    2    0  502 -0.30768692082E+01  0.44247727455E+03  0.11878131116E+02  0.10835805394E+04  0.98904503927E+03 0.  0.
        -13    1    3    3    0    0  0.32071625247E+03 -0.19976048675E+03 -0.65837911266E+03  0.75909566842E+03  0.10566000000E+00 0.  1.
         13    1    4    4    0    0  0.45807954726E+02  0.34856158929E+03 -0.47184032160E+03  0.58841044391E+03  0.10566000000E+00 0. -1.
          4    1    3    3  501    0 -0.31763938326E+03 -0.24271678780E+03  0.16000693221E+03  0.43059079790E+03  0.00000000000E+00 0.  1.
         -4    1    4    4    0  502 -0.48884823934E+02  0.93915685261E+02  0.48371845272E+03  0.49517009547E+03  0.00000000000E+00 0. -1.
</event>
<event>
 8    1  0.7572579E-006  0.1018180E+04  0.7818608E-02  0.8757784E-01
         21   -1    0    0  503  502  0.00000000000E+00  0.00000000000E+00  0.11380323629E+04  0.11380323629E+04  0.00000000000E+00 0. -1.
         21   -1    0    0  501  503 -0.00000000000E+00 -0.00000000000E+00 -0.11593756803E+04  0.11593756803E+04  0.00000000000E+00 0. -1.
    9000010    2    1    2  501    0 -0.18837301699E+03  0.10317007184E+03 -0.54277636744E+03  0.11538178735E+04  0.99526933181E+03 0.  0.
   -9000010    2    1    2    0  502  0.18837301699E+03 -0.10317007184E+03  0.52143305007E+03  0.11435901697E+04  0.99487566720E+03 0.  0.
        -13    1    3    3    0    0 -0.28422850624E+03  0.49854131806E+03 -0.46726427379E+03  0.74004405429E+03  0.10566000000E+00 0.  1.
         13    1    4    4    0    0 -0.31859331001E+03 -0.71959664895E+02  0.54471214114E+03  0.63513086717E+03  0.10566000000E+00 0. -1.
          4    1    3    3  501    0  0.95855489256E+02 -0.39537124621E+03 -0.75512093657E+02  0.41377381918E+03  0.00000000000E+00 0.  1.
         -4    1    4    4    0  502  0.50696632700E+03 -0.31210406949E+02 -0.23279091075E+02  0.50845930250E+03  0.00000000000E+00 0. -1.
</event>
<event>
 8    1  0.7572579E-006  0.1096195E+04  0.7818608E-02  0.8689516E-01
         21   -1    0    0  501  502  0.00000000000E+00  0.00000000000E+00  0.10862545228E+04  0.10862545228E+04  0.00000000000E+00 0. -1.
         21   -1    0    0  502  503 -0.00000000000E+00 -0.00000000000E+00 -0.11439865702E+04  0.11439865702E+04  0.00000000000E+00 0. -1.
    9000010    2    1    2  501    0  0.18889097218E+03  0.41669442767E+03 -0.23653233675E+03  0.11214233823E+04  0.99615702101E+03 0.  0.
   -9000010    2    1    2    0  503 -0.18889097218E+03 -0.41669442767E+03  0.17880028938E+03  0.11088177107E+04  0.99407903441E+03 0.  0.
        -13    1    3    3    0    0  0.29276386367E+03 -0.14396741073E+03  0.21786895201E+03  0.39230624088E+03  0.10566000000E+00 0.  1.
         13    1    4    4    0    0  0.14932470738E+03  0.28066822288E+03  0.76986317646E+02  0.32710766399E+03  0.10566000000E+00 0. -1.
          4    1    3    3  501    0 -0.10387289149E+03  0.56066183840E+03 -0.45440128875E+03  0.72911714137E+03  0.00000000000E+00 0.  1.
         -4    1    4    4    0  503 -0.33821567956E+03 -0.69736265055E+03  0.10181397173E+03  0.78171004671E+03  0.00000000000E+00 0. -1.
</event>
<event>
 8    1  0.7572579E-006  0.1108949E+04  0.7818608E-02  0.8683419E-01
         21   -1    0    0  501  502  0.00000000000E+00  0.00000000000E+00  0.15101473313E+04  0.15101473313E+04  0.00000000000E+00 0. -1.
         21   -1    0    0  502  503 -0.00000000000E+00 -0.00000000000E+00 -0.21397799856E+04  0.21397799856E+04  0.00000000000E+00 0. -1.
    9000010    2    1    2  501    0  0.45510097325E+03 -0.73612601263E+01  0.11320424441E+04  0.15682772500E+04  0.98529302929E+03 0.  0.
   -9000010    2    1    2    0  503 -0.45510097325E+03  0.73612601263E+01 -0.17616750985E+04  0.20816500668E+04  0.10112352665E+04 0.  0.
        -13    1    3    3    0    0  0.25253275781E+03  0.23434607683E+03  0.11975996660E+04  0.12461684672E+04  0.10566000000E+00 0.  1.
         13    1    4    4    0    0 -0.32596612695E+03  0.35729779086E+03 -0.29107360061E+03  0.56448160236E+03  0.10566000000E+00 0. -1.
          4    1    3    3  501    0  0.20256821544E+03 -0.24170733696E+03 -0.65557221828E+02  0.32210878283E+03  0.00000000000E+00 0.  1.
         -4    1    4    4    0  503 -0.12913484630E+03 -0.34993653073E+03 -0.14706014978E+04  0.15171684645E+04  0.00000000000E+00 0. -1.
</event>
<event>
 8    1  0.7572579E-006  0.1035363E+04  0.7818608E-02  0.8746694E-01
         21   -1    0    0  501  502  0.00000000000E+00  0.00000000000E+00  0.15472205561E+04  0.15472205561E+04  0.00000000000E+00 0. -1.
         21   -1    0    0  502  503 -0.00000000000E+00 -0.00000000000E+00 -0.87699992665E+03  0.87699992665E+03  0.00000000000E+00 0. -1.
    9000010    2    1    2  501    0 -0.11671466895E+03  0.19889422486E+03  0.91320729137E+03  0.13805517518E+04  0.10093534346E+04 0.  0.
   -9000010    2    1    2    0  503  0.11671466895E+03 -0.19889422486E+03 -0.24298666195E+03  0.10436687309E+04  0.98844356200E+03 0.  0.
        -13    1    3    3    0    0  0.56102206661E+02  0.29613635163E+03  0.10801032627E+04  0.11213684789E+04  0.10566000000E+00 0.  1.
         13    1    4    4    0    0 -0.43869492695E+03 -0.84315446000E+02 -0.13186119002E+03  0.46577861475E+03  0.10566000000E+00 0. -1.
          4    1    3    3  501    0 -0.17281687561E+03 -0.97242126769E+02 -0.16689597131E+03  0.25918327291E+03  0.00000000000E+00 0.  1.
         -4    1    4    4    0  503  0.55540959590E+03 -0.11457877886E+03 -0.11112547193E+03  0.57789011610E+03  0.00000000000E+00 0. -1.
</event>
<event>
 8    1  0.7572579E-006  0.1005752E+04  0.7818608E-02  0.8781777E-01
         21   -1    0    0  503  502  0.00000000000E+00  0.00000000000E+00  0.15502786242E+04  0.15502786242E+04  0.00000000000E+00 0. -1.
         21   -1    0    0  501  503 -0.00000000000E+00 -0.00000000000E+00 -0.94632072060E+03  0.94632072060E+03  0.00000000000E+00 0. -1.
    9000010    2    1    2  501    0 -0.17901865216E+03 -0.65554532870E+02 -0.43735872848E+03  0.10488844888E+04  0.93409364568E+03 0.  0.
   -9000010    2    1    2    0  502  0.17901865216E+03  0.65554532870E+02  0.10413166321E+04  0.14477148560E+04  0.98751855749E+03 0.  0.
        -13    1    3    3    0    0 -0.50428755339E+03  0.14855190558E+03 -0.39419694493E+03  0.65708815825E+03  0.10566000000E+00 0.  1.
         13    1    4    4    0    0 -0.82017046114E+02 -0.25664784288E+03 -0.55532055548E+02  0.27509767623E+03  0.10566000000E+00 0. -1.
          4    1    3    3  501    0  0.32526890122E+03 -0.21410643845E+03 -0.43161783546E+02  0.39179633057E+03  0.00000000000E+00 0.  1.
         -4    1    4    4    0  502  0.26103569828E+03  0.32220237575E+03  0.10968486876E+04  0.11726171797E+04  0.00000000000E+00 0. -1.
</event>
<event>
 8    1  0.7572579E-006  0.1039737E+04  0.7818608E-02  0.8744204E-01
         21   -1    0    0  501  502  0.00000000000E+00  0.00000000000E+00  0.31937959915E+04  0.31937959915E+04  0.00000000000E+00 0. -1.
         21   -1    0    0  502  503 -0.00000000000E+00 -0.00000000000E+00 -0.34279618681E+03  0.34279618681E+03  0.00000000000E+00 0. -1.
    9000010    2    1    2  501    0 -0.16812596845E+03 -0.36989431021E+02  0.10637589459E+04  0.14689166132E+04  0.99824764581E+03 0.  0.
   -9000010    2    1    2    0  503  0.16812596845E+03  0.36989431021E+02  0.17872408589E+04  0.20676755651E+04  0.10253866567E+04 0.  0.
        -13    1    3    3    0    0  0.31995934213E+03  0.74545961795E+02  0.87363754753E+03  0.93336683927E+03  0.10566000000E+00 0.  1.
         13    1    4    4    0    0 -0.97946910240E+02  0.38930560003E+03  0.26091425243E+03  0.47877834718E+03  0.10566000000E+00 0. -1.
          4    1    3    3  501    0 -0.48808531058E+03 -0.11153539282E+03  0.19012139832E+03  0.53554977393E+03  0.00000000000E+00 0.  1.
         -4    1    4    4    0  503  0.26607287869E+03 -0.35231616901E+03  0.15263266064E+04  0.15888972179E+04  0.00000000000E+00 0. -1.
</event>
<event>
 8    1  0.7572579E-006  0.1068456E+04  0.7818608E-02  0.8714910E-01
         21   -1    0    0  501  502  0.00000000000E+00  0.00000000000E+00  0.17195274103E+04  0.17195274103E+04  0.00000000000E+00 0.  1.
         21   -1    0    0  502  503 -0.00000000000E+00 -0.00000000000E+00 -0.10204996229E+04  0.10204996229E+04  0.00000000000E+00 0.  1.
    9000010    2    1    2  501    0  0.26908814271E+03  0.20419321870E+03  0.11651213446E+04  0.15743333955E+04  0.10034513409E+04 0.  0.
   -9000010    2    1    2    0  503 -0.26908814271E+03 -0.20419321870E+03 -0.46609355723E+03  0.11656936377E+04  0.10136543562E+04 0.  0.
        -13    1    3    3    0    0 -0.31543341852E+03 -0.14964385135E+03  0.23760512788E+03  0.42231236274E+03  0.10566000000E+00 0.  1.
         13    1    4    4    0    0 -0.55674990845E+03  0.18295809194E+03 -0.24805139044E+03  0.63637538249E+03  0.10566000000E+00 0. -1.
          4    1    3    3  501    0  0.58452156123E+03  0.35383707005E+03  0.92751621676E+03  0.11520210328E+04  0.00000000000E+00 0.  1.
         -4    1    4    4    0  503  0.28766176575E+03 -0.38715131064E+03 -0.21804216679E+03  0.52931825521E+03  0.00000000000E+00 0. -1.
</event>
<event>
 8    1  0.7572579E-006  0.1033739E+04  0.7818608E-02  0.8748527E-01
         21   -1    0    0  503  502  0.00000000000E+00  0.00000000000E+00  0.14401348114E+04  0.14401348114E+04  0.00000000000E+00 0.  1.
         21   -1    0    0  501  503 -0.00000000000E+00 -0.00000000000E+00 -0.81319635212E+03  0.81319635212E+03  0.00000000000E+00 0.  1.
    9000010    2    1    2  501    0  0.13622698857E+03  0.70299449887E+02 -0.57674355499E+02  0.10134477263E+04  0.10001250710E+04 0.  0.
   -9000010    2    1    2    0  502 -0.13622698857E+03 -0.70299449887E+02  0.68461281480E+03  0.12398834372E+04  0.10223093595E+04 0.  0.
        -13    1    3    3    0    0  0.79498416020E+02  0.15118170684E+03 -0.51654954261E+03  0.54405822093E+03  0.10566000000E+00 0.  1.
         13    1    4    4    0    0  0.83525652049E+02  0.14564027827E+03  0.86615861097E+03  0.88228021383E+03  0.10566000000E+00 0. -1.
          4    1    3    3  501    0  0.56728572553E+02 -0.80882256950E+02  0.45887518711E+03  0.46938950540E+03  0.00000000000E+00 0.  1.
         -4    1    4    4    0  502 -0.21975264062E+03 -0.21593972815E+03 -0.18154579617E+03  0.35760322337E+03  0.00000000000E+00 0. -1.
</event>
<event>
 8    1  0.7572579E-006  0.1055990E+04  0.7818608E-02  0.8724311E-01
         21   -1    0    0  503  502  0.00000000000E+00  0.00000000000E+00  0.11169895287E+04  0.11169895287E+04  0.00000000000E+00 0.  1.
         21   -1    0    0  501  503 -0.00000000000E+00 -0.00000000000E+00 -0.10437251500E+04  0.10437251500E+04  0.00000000000E+00 0.  1.
    9000010    2    1    2  501    0 -0.31342106287E+03  0.11286578084E+03 -0.19515922398E+03  0.10738722163E+04  0.10020693424E+04 0.  0.
   -9000010    2    1    2    0  502  0.31342106287E+03 -0.11286578084E+03  0.26842360269E+03  0.10868424624E+04  0.99910152658E+03 0.  0.
        -13    1    3    3    0    0  0.26137668937E+03 -0.54477006093E+02  0.21949225708E+03  0.34563330282E+03  0.10566000000E+00 0.  1.
         13    1    4    4    0    0  0.33509869991E+03 -0.24372435404E+03 -0.29459629834E+03  0.50840897867E+03  0.10566000000E+00 0. -1.
          4    1    3    3  501    0 -0.57479775224E+03  0.16734278694E+03 -0.41465148105E+03  0.72823891345E+03  0.00000000000E+00 0.  1.
         -4    1    4    4    0  502 -0.21677637033E+02  0.13085857319E+03  0.56301990103E+03  0.57843348371E+03  0.00000000000E+00 0. -1.
</event>
<event>
 8    1  0.7572579E-006  0.1019417E+04  0.7818608E-02  0.8758006E-01
         21   -1    0    0  501  502  0.00000000000E+00  0.00000000000E+00  0.54807339680E+03  0.54807339680E+03  0.00000000000E+00 0.  1.
         21   -1    0    0  502  503 -0.00000000000E+00 -0.00000000000E+00 -0.21659091926E+04  0.21659091926E+04  0.00000000000E+00 0.  1.
    9000010    2    1    2  501    0 -0.13202359694E+03  0.11977784373E+03 -0.12959220408E+04  0.16449456991E+04  0.99732414746E+03 0.  0.
   -9000010    2    1    2    0  503  0.13202359694E+03 -0.11977784373E+03 -0.32191375495E+03  0.10690368903E+04  0.10037103393E+04 0.  0.
        -13    1    3    3    0    0  0.17438887412E+02  0.49348876904E+03 -0.31773421328E+03  0.58718848884E+03  0.10566000000E+00 0.  1.
         13    1    4    4    0    0  0.46133159509E+03  0.24664509432E+03 -0.12066723680E+03  0.53686239985E+03  0.10566000000E+00 0. -1.
          4    1    3    3  501    0 -0.14946248435E+03 -0.37371092531E+03 -0.97818782755E+03  0.10577572103E+04  0.00000000000E+00 0.  1.
         -4    1    4    4    0  503 -0.32930799815E+03 -0.36642293805E+03 -0.20124651815E+03  0.53217449041E+03  0.00000000000E+00 0. -1.
</event>
<event>
 8    1  0.7572579E-006  0.1032742E+04  0.7818608E-02  0.8748635E-01
         21   -1    0    0  501  502  0.00000000000E+00  0.00000000000E+00  0.58894149399E+03  0.58894149399E+03  0.00000000000E+00 0. -1.
         21   -1    0    0  502  503 -0.00000000000E+00 -0.00000000000E+00 -0.18233308043E+04  0.18233308043E+04  0.00000000000E+00 0. -1.
    9000010    2    1    2  501    0 -0.91178915245E+02 -0.21040318203E+03 -0.42310752827E+03  0.10989807757E+04  0.98800590654E+03 0.  0.
   -9000010    2    1    2    0  503  0.91178915245E+02  0.21040318203E+03 -0.81128178206E+03  0.13132915226E+04  0.10069624620E+04 0.  0.
        -13    1    3    3    0    0  0.42852544337E+03 -0.13730235197E+03 -0.45181322449E+02  0.45224700611E+03  0.10566000000E+00 0.  1.
         13    1    4    4    0    0  0.22157326675E+03 -0.30053891470E+03 -0.67057804671E+03  0.76752412319E+03  0.10566000000E+00 0. -1.
          4    1    3    3  501    0 -0.51970435862E+03 -0.73100830056E+02 -0.37792620583E+03  0.64673376962E+03  0.00000000000E+00 0.  1.
         -4    1    4    4    0  503 -0.13039435150E+03  0.51094209672E+03 -0.14070373535E+03  0.54576739940E+03  0.00000000000E+00 0. -1.
</event>
<event>
 8    1  0.7572579E-006  0.1053885E+04  0.7818608E-02  0.8729137E-01
         21   -1    0    0  503  502  0.00000000000E+00  0.00000000000E+00  0.22728360766E+04  0.22728360766E+04  0.00000000000E+00 0. -1.
         21   -1    0    0  501  503 -0.00000000000E+00 -0.00000000000E+00 -0.53001604700E+03  0.53001604700E+03  0.00000000000E+00 0. -1.
    9000010    2    1    2  501    0 -0.19194004414E+03 -0.20909278807E+03  0.45226432876E+03  0.11468289366E+04  0.10149447335E+04 0.  0.
   -9000010    2    1    2    0  502  0.19194004414E+03  0.20909278807E+03  0.12905557008E+04  0.16560231870E+04  0.99815730445E+03 0.  0.
        -13    1    3    3    0    0 -0.53997635145E+03  0.77821732821E+02  0.59596063374E+02  0.54880086020E+03  0.10566000000E+00 0.  1.
         13    1    4    4    0    0  0.44080274953E+03  0.33252602941E+03  0.12610897199E+04  0.13766727705E+04  0.10566000000E+00 0. -1.
          4    1    3    3  501    0  0.34803630731E+03 -0.28691452089E+03  0.39266826539E+03  0.59802807638E+03  0.00000000000E+00 0.  1.
         -4    1    4    4    0  502 -0.24886270539E+03 -0.12343324134E+03  0.29465980987E+02  0.27935041657E+03  0.00000000000E+00 0. -1.
</event>
<event>
 8    1  0.7572579E-006  0.1142352E+04  0.7818608E-02  0.8698289E-01
         21   -1    0    0  501  502  0.00000000000E+00  0.00000000000E+00  0.17464839908E+04  0.17464839908E+04  0.00000000000E+00 0. -1.
         21   -1    0    0  502  503 -0.00000000000E+00 -0.00000000000E+00 -0.12781316266E+04  0.12781316266E+04  0.00000000000E+00 0.  1.
    9000010    2    1    2  501    0 -0.27148269070E+03  0.48793115584E+03  0.13320426808E+04  0.17547950703E+04  0.99658836592E+03 0.  0.
   -9000010    2    1    2    0  503  0.27148269070E+03 -0.48793115584E+03 -0.86369031654E+03  0.12698205471E+04  0.74478426062E+03 0.  0.
        -13    1    3    3    0    0 -0.57887985797E+02  0.77898018254E+03  0.89533337462E+03  0.11881847527E+04  0.10566000000E+00 0.  1.
         13    1    4    4    0    0  0.88597077925E+02 -0.66133812409E+03 -0.53273268382E+03  0.85382766420E+03  0.10566000000E+00 0. -1.
          4    1    3    3  501    0 -0.21359470490E+03 -0.29104902670E+03  0.43670930615E+03  0.56661031758E+03  0.00000000000E+00 0.  1.
         -4    1    4    4    0  503  0.18288561277E+03  0.17340696825E+03 -0.33095763272E+03  0.41599288294E+03  0.00000000000E+00 0. -1.
</event>
<event>
 8    1  0.7572579E-006  0.1035733E+04  0.7818608E-02  0.8748905E-01
         21   -1    0    0  501  502  0.00000000000E+00  0.00000000000E+00  0.10328851297E+04  0.10328851297E+04  0.00000000000E+00 0. -1.
         21   -1    0    0  502  503 -0.00000000000E+00 -0.00000000000E+00 -0.10440566147E+04  0.10440566147E+04  0.00000000000E+00 0. -1.
    9000010    2    1    2  501    0  0.98999025737E+02  0.87333139921E+02  0.18901577581E+03  0.10528389821E+04  0.10272852935E+04 0.  0.
   -9000010    2    1    2    0  503 -0.98999025737E+02 -0.87333139921E+02 -0.20018726084E+03  0.10241027622E+04  0.99563228342E+03 0.  0.
        -13    1    3    3    0    0  0.13846820375E+03  0.48884250575E+03  0.35159637733E+03  0.61786767402E+03  0.10566000000E+00 0.  1.
         13    1    4    4    0    0 -0.44332188333E+03 -0.28785204357E+03 -0.30741646054E+03  0.61147198023E+03  0.10566000000E+00 0. -1.
          4    1    3    3  501    0 -0.39469178008E+02 -0.40150936583E+03 -0.16258060151E+03  0.43497130808E+03  0.00000000000E+00 0.  1.
         -4    1    4    4    0  503  0.34432285760E+03  0.20051890365E+03  0.10722919970E+03  0.41263078200E+03  0.00000000000E+00 0. -1.
</event>
<event>
 8    1  0.7572579E-006  0.1067966E+04  0.7818608E-02  0.8714322E-01
         21   -1    0    0  503  502  0.00000000000E+00  0.00000000000E+00  0.28382207962E+04  0.28382207962E+04  0.00000000000E+00 0. -1.
         21   -1    0    0  501  503 -0.00000000000E+00 -0.00000000000E+00 -0.63379737434E+03  0.63379737434E+03  0.00000000000E+00 0.  1.
    9000010    2    1    2  501    0  0.39699613348E+03 -0.23889220719E+02  0.21550319678E+04  0.24029101913E+04  0.98571698798E+03 0.  0.
   -9000010    2    1    2    0  502 -0.39699613348E+03  0.23889220719E+02  0.49391454052E+02  0.10691079792E+04  0.99114869249E+03 0.  0.
        -13    1    3    3    0    0 -0.75666023423E+02  0.41188656379E+03  0.90768142112E+03  0.99963066277E+03  0.10566000000E+00 0.  1.
         13    1    4    4    0    0 -0.29529238507E+03 -0.30633053044E+03 -0.34281781493E+03  0.54640648967E+03  0.10566000000E+00 0. -1.
          4    1    3    3  501    0  0.47266215691E+03 -0.43577578451E+03  0.12473505467E+04  0.14032795286E+04  0.00000000000E+00 0.  1.
         -4    1    4    4    0  502 -0.10170374841E+03  0.33021975116E+03  0.39220926899E+03  0.52270148955E+03  0.00000000000E+00 0. -1.
</event>
<event>
 8    1  0.7572579E-006  0.1128311E+04  0.7818608E-02  0.8667499E-01
         21   -1    0    0  503  502  0.00000000000E+00  0.00000000000E+00  0.18486175422E+04  0.18486175422E+04  0.00000000000E+00 0.  1.
         21   -1    0    0  501  503 -0.00000000000E+00 -0.00000000000E+00 -0.84667441806E+03  0.84667441806E+03  0.00000000000E+00 0.  1.
    9000010    2    1    2  501    0  0.43360792865E+03  0.19393827711E+03 -0.11159932653E+03  0.11100279774E+04  0.99703551076E+03 0.  0.
   -9000010    2    1    2    0  502 -0.43360792865E+03 -0.19393827711E+03  0.11135424507E+04  0.15852639829E+04  0.10234535724E+04 0.  0.
        -13    1    3    3    0    0  0.60441534263E+03  0.37031869433E+02 -0.41058949578E+03  0.73162354457E+03  0.10566000000E+00 0.  1.
         13    1    4    4    0    0 -0.65457437817E+03  0.19318028624E+03  0.68294102276E+03  0.96550229998E+03  0.10566000000E+00 0. -1.
          4    1    3    3  501    0 -0.17080741398E+03  0.15690640768E+03  0.29899016925E+03  0.37840443278E+03  0.00000000000E+00 0.  1.
         -4    1    4    4    0  502  0.22096644951E+03 -0.38711856335E+03  0.43060142790E+03  0.61976168292E+03  0.00000000000E+00 0. -1.
</event>
<event>
 8    1  0.7572579E-006  0.1046051E+04  0.7818608E-02  0.8740743E-01
         21   -1    0    0  501  502  0.00000000000E+00  0.00000000000E+00  0.60453402957E+03  0.60453402957E+03  0.00000000000E+00 0.  1.
         21   -1    0    0  502  503 -0.00000000000E+00 -0.00000000000E+00 -0.19893579588E+04  0.19893579588E+04  0.00000000000E+00 0.  1.
    9000010    2    1    2  501    0  0.61034974376E+02  0.13035457367E+03 -0.11553112002E+04  0.15585141407E+04  0.10361007550E+04 0.  0.
   -9000010    2    1    2    0  503 -0.61034974376E+02 -0.13035457367E+03 -0.22951272906E+03  0.10353778477E+04  0.99930656542E+03 0.  0.
        -13    1    3    3    0    0  0.26617047183E+03  0.21963197108E+03 -0.12636638088E+04  0.13099355540E+04  0.10566000000E+00 0.  1.
         13    1    4    4    0    0  0.10011411087E+03  0.37391261266E+03 -0.31509068395E+03  0.49911484387E+03  0.10566000000E+00 0. -1.
          4    1    3    3  501    0 -0.20513549746E+03 -0.89277397413E+02  0.10835260857E+03  0.24857858675E+03  0.00000000000E+00 0.  1.
         -4    1    4    4    0  503 -0.16114908525E+03 -0.50426718633E+03  0.85577954886E+02  0.53626300380E+03  0.00000000000E+00 0. -1.
</event>
<event>
 8    1  0.7572579E-006  0.1026827E+04  0.7818608E-02  0.8751970E-01
         21   -1    0    0  503  502  0.00000000000E+00  0.00000000000E+00  0.17520172792E+04  0.17520172792E+04  0.00000000000E+00 0. -1.
         21   -1    0    0  501  503 -0.00000000000E+00 -0.00000000000E+00 -0.90177867379E+03  0.90177867379E+03  0.00000000000E+00 0. -1.
    9000010    2    1    2  501    0  0.85235264528E+01 -0.20451309952E+03 -0.34594954731E+03  0.10835385091E+04  0.10062188395E+04 0.  0.
   -9000010    2    1    2    0  502 -0.85235264528E+01  0.20451309952E+03  0.11961881527E+04  0.15702574439E+04  0.99646579727E+03 0.  0.
        -13    1    3    3    0    0  0.50247082242E+03 -0.16757481434E+03 -0.14649678604E+03  0.54956306760E+03  0.10566000000E+00 0.  1.
         13    1    4    4    0    0 -0.12410467287E+03  0.28867158541E+03 -0.48015537262E+02  0.31786594192E+03  0.10566000000E+00 0. -1.
          4    1    3    3  501    0 -0.49394729597E+03 -0.36938285182E+02 -0.19945276127E+03  0.53397544146E+03  0.00000000000E+00 0.  1.
         -4    1    4    4    0  502  0.11558114641E+03 -0.84158485881E+02  0.12442036900E+04  0.12523915020E+04  0.00000000000E+00 0. -1.
</event>
<event>
 8    1  0.7572579E-006  0.1054156E+04  0.7818608E-02  0.8732710E-01
         21   -1    0    0  503  502  0.00000000000E+00  0.00000000000E+00  0.14194103406E+04  0.14194103406E+04  0.00000000000E+00 0. -1.
         21   -1    0    0  501  503 -0.00000000000E+00 -0.00000000000E+00 -0.84836930239E+03  0.84836930239E+03  0.00000000000E+00 0. -1.
    9000010    2    1    2  501    0 -0.30619097178E+03  0.93024911800E+02 -0.87447007857E+02  0.10248588448E+04  0.96968145657E+03 0.  0.
   -9000010    2    1    2    0  502  0.30619097178E+03 -0.93024911800E+02  0.65848804612E+03  0.12429207982E+04  0.10044098060E+04 0.  0.
        -13    1    3    3    0    0 -0.33976653629E+03  0.10836579503E+03  0.40006890652E+03  0.53594737227E+03  0.10566000000E+00 0.  1.
         13    1    4    4    0    0  0.51121994774E+03 -0.38724579581E+03  0.22348080519E+03  0.67915301869E+03  0.10566000000E+00 0. -1.
          4    1    3    3  501    0  0.33575564513E+02 -0.15340883234E+02 -0.48751591437E+03  0.48891147256E+03  0.00000000000E+00 0.  1.
         -4    1    4    4    0  502 -0.20502897596E+03  0.29422088401E+03  0.43500724093E+03  0.56376777952E+03  0.00000000000E+00 0. -1.
</event>
<event>
 8    1  0.7572579E-006  0.1015331E+04  0.7818608E-02  0.8763225E-01
         21   -1    0    0  501  502  0.00000000000E+00  0.00000000000E+00  0.11428088766E+04  0.11428088766E+04  0.00000000000E+00 0.  1.
         21   -1    0    0  502  503 -0.00000000000E+00 -0.00000000000E+00 -0.92518709472E+03  0.92518709472E+03  0.00000000000E+00 0.  1.
    9000010    2    1    2  501    0  0.17145934153E+03 -0.10397331359E+02 -0.90642381944E+02  0.10069007801E+04  0.98799125971E+03 0.  0.
   -9000010    2    1    2    0  503 -0.17145934153E+03  0.10397331359E+02  0.30826416381E+03  0.10610951912E+04  0.10006946586E+04 0.  0.
        -13    1    3    3    0    0  0.31817018761E+03 -0.43587792406E+03 -0.13009860439E+03  0.55511034128E+03  0.10566000000E+00 0.  1.
         13    1    4    4    0    0 -0.54908569361E+03 -0.19024721413E+03  0.11758400357E+03  0.59288709758E+03  0.10566000000E+00 0. -1.
          4    1    3    3  501    0 -0.14671084608E+03  0.42548059270E+03  0.39456222442E+02  0.45179043882E+03  0.00000000000E+00 0.  1.
         -4    1    4    4    0  503  0.37762635209E+03  0.20064454549E+03  0.19068016024E+03  0.46820809362E+03  0.00000000000E+00 0. -1.
</event>
<event>
 8    1  0.7572579E-006  0.1064791E+04  0.7818608E-02  0.8725263E-01
         21   -1    0    0  503  502  0.00000000000E+00  0.00000000000E+00  0.15969855334E+04  0.15969855334E+04  0.00000000000E+00 0.  1.
         21   -1    0    0  501  503 -0.00000000000E+00 -0.00000000000E+00 -0.83254962994E+03  0.83254962994E+03  0.00000000000E+00 0.  1.
    9000010    2    1    2  501    0 -0.28146586977E+03  0.22151050715E+03 -0.13982359709E+03  0.10325868917E+04  0.95832933271E+03 0.  0.
   -9000010    2    1    2    0  502  0.28146586977E+03 -0.22151050715E+03  0.90425950054E+03  0.13969482717E+04  0.10027408881E+04 0.  0.
        -13    1    3    3    0    0 -0.59376974423E+03  0.17225981239E+03  0.11209438337E+03  0.62833200943E+03  0.10566000000E+00 0.  1.
         13    1    4    4    0    0  0.29015608076E+02 -0.43745902311E+03  0.51752312903E+01  0.43845079154E+03  0.10566000000E+00 0. -1.
          4    1    3    3  501    0  0.31230387446E+03  0.49250694759E+02 -0.25191798046E+03  0.40425488224E+03  0.00000000000E+00 0.  1.
         -4    1    4    4    0  502  0.25245026170E+03  0.21594851596E+03  0.89908426925E+03  0.95849748012E+03  0.00000000000E+00 0. -1.
</event>
<event>
 8    1  0.7572579E-006  0.1112646E+04  0.7818608E-02  0.8677050E-01
         21   -1    0    0  501  502  0.00000000000E+00  0.00000000000E+00  0.13912700240E+04  0.13912700240E+04  0.00000000000E+00 0. -1.
         21   -1    0    0  502  503 -0.00000000000E+00 -0.00000000000E+00 -0.10384315690E+04  0.10384315690E+04  0.00000000000E+00 0. -1.
    9000010    2    1    2  501    0 -0.91306791676E+02  0.43352441254E+03  0.64510205703E+03  0.12793105571E+04  0.10120269221E+04 0.  0.
   -9000010    2    1    2    0  503  0.91306791676E+02 -0.43352441254E+03 -0.29226360205E+03  0.11503910360E+04  0.10206376321E+04 0.  0.
        -13    1    3    3    0    0 -0.23879482366E+03 -0.18065276440E+03 -0.87554091159E+02  0.31196813802E+03  0.10566000000E+00 0.  1.
         13    1    4    4    0    0  0.43550834530E+03 -0.31419011260E+03  0.16866644871E+03  0.56287772009E+03  0.10566000000E+00 0. -1.
          4    1    3    3  501    0  0.14748803199E+03  0.61417717694E+03  0.73265614819E+03  0.96734241907E+03  0.00000000000E+00 0.  1.
         -4    1    4    4    0  503 -0.34420155363E+03 -0.11933429993E+03 -0.46093005075E+03  0.58751331589E+03  0.00000000000E+00 0. -1.
</event>
<event>
 8    1  0.7572579E-006  0.1063813E+04  0.7818608E-02  0.8721935E-01
         21   -1    0    0  503  502  0.00000000000E+00  0.00000000000E+00  0.12631194886E+04  0.12631194886E+04  0.00000000000E+00 0.  1.
         21   -1    0    0  501  503 -0.00000000000E+00 -0.00000000000E+00 -0.90789397025E+03  0.90789397025E+03  0.00000000000E+00 0.  1.
    9000010    2    1    2  501    0  0.30735354013E+03  0.20647354691E+03 -0.22024960293E+02  0.10640409386E+04  0.99729659380E+03 0.  0.
   -9000010    2    1    2    0  502 -0.30735354013E+03 -0.20647354691E+03  0.37725047865E+03  0.11069725202E+04  0.97261128550E+03 0.  0.
        -13    1    3    3    0    0  0.51021783411E+03 -0.23877943669E+03 -0.88567607699E+02  0.57024739362E+03  0.10566000000E+00 0.  1.
         13    1    4    4    0    0 -0.56866441279E+03  0.15402976007E+03  0.27478801312E+03  0.65008679780E+03  0.10566000000E+00 0. -1.
          4    1    3    3  501    0 -0.20286429398E+03  0.44525298359E+03  0.66542647407E+02  0.49379354501E+03  0.00000000000E+00 0.  1.
         -4    1    4    4    0  502  0.26131087266E+03 -0.36050330697E+03  0.10246246553E+03  0.45688572242E+03  0.00000000000E+00 0. -1.
</event>
<event>
 8    1  0.7572579E-006  0.9911153E+03  0.7818608E-02  0.8786129E-01
         21   -1    0    0  501  502  0.00000000000E+00  0.00000000000E+00  0.22891149168E+04  0.22891149168E+04  0.00000000000E+00 0. -1.
         21   -1    0    0  502  503 -0.00000000000E+00 -0.00000000000E+00 -0.42437028671E+03  0.42437028671E+03  0.00000000000E+00 0. -1.
    9000010    2    1    2  501    0  0.34990911690E+02 -0.16052646057E+02  0.86284502415E+03  0.13041902303E+04  0.97720446672E+03 0.  0.
   -9000010    2    1    2    0  503 -0.34990911690E+02  0.16052646057E+02  0.10018996060E+04  0.14092949732E+04  0.99036733074E+03 0.  0.
        -13    1    3    3    0    0 -0.36115487531E+03 -0.11697100261E+03  0.35401986793E+02  0.38127204362E+03  0.10566000000E+00 0.  1.
         13    1    4    4    0    0 -0.26079895801E+03 -0.14828451793E+02  0.11217708414E+04  0.11517837520E+04  0.10566000000E+00 0. -1.
          4    1    3    3  501    0  0.39614578700E+03  0.10091835655E+03  0.82744303736E+03  0.92291818669E+03  0.00000000000E+00 0.  1.
         -4    1    4    4    0  503  0.22580804632E+03  0.30881097850E+02 -0.11987123545E+03  0.25751122126E+03  0.00000000000E+00 0. -1.
</event>
<event>
 8    1  0.7572579E-006  0.1003845E+04  0.7818608E-02  0.8773143E-01
         21   -1    0    0  501  502  0.00000000000E+00  0.00000000000E+00  0.73047723973E+03  0.73047723973E+03  0.00000000000E+00 0. -1.
         21   -1    0    0  502  503 -0.00000000000E+00 -0.00000000000E+00 -0.20373708334E+04  0.20373708334E+04  0.00000000000E+00 0. -1.
    9000010    2    1    2  501    0 -0.44671662981E+02 -0.99565712575E+02  0.13841586362E+03  0.10133425987E+04  0.99789547669E+03 0.  0.
   -9000010    2    1    2    0  503  0.44671662981E+02  0.99565712575E+02 -0.14453094573E+04  0.17545054745E+04  0.98866634615E+03 0.  0.
        -13    1    3    3    0    0 -0.45313827787E+03 -0.61787141880E+02  0.32664920473E+03  0.56200681837E+03  0.10566000000E+00 0.  1.
         13    1    4    4    0    0 -0.38502784866E+01 -0.44587133539E+03 -0.60614723370E+03  0.75248292502E+03  0.10566000000E+00 0. -1.
          4    1    3    3  501    0  0.40846661489E+03 -0.37778570696E+02 -0.18823334111E+03  0.45133578031E+03  0.00000000000E+00 0.  1.
         -4    1    4    4    0  503  0.48521941468E+02  0.54543704796E+03 -0.83916222362E+03  0.10020225495E+04  0.00000000000E+00 0. -1.
</event>
<event>
 8    1  0.7572579E-006  0.1065916E+04  0.7818608E-02  0.8733678E-01
         21   -1    0    0  503  502  0.00000000000E+00  0.00000000000E+00  0.29471819611E+04  0.29471819611E+04  0.00000000000E+00 0. -1.
         21   -1    0    0  501  503 -0.00000000000E+00 -0.00000000000E+00 -0.39456517418E+03  0.39456517418E+03  0.00000000000E+00 0. -1.
    9000010    2    1    2  501    0  0.11413361968E+03 -0.93529172254E+02  0.71016016862E+03  0.12131740883E+04  0.97246579081E+03 0.  0.
   -9000010    2    1    2    0  502 -0.11413361968E+03  0.93529172254E+02  0.18424566183E+04  0.21285730469E+04  0.10556527065E+04 0.  0.
        -13    1    3    3    0    0  0.46740130618E+02  0.16313073559E+03 -0.20164098662E+03  0.26354387748E+03  0.10566000000E+00 0.  1.
         13    1    4    4    0    0 -0.12839488680E+03 -0.45841301547E+03  0.57784822782E+03  0.74868973899E+03  0.10566000000E+00 0. -1.
          4    1    3    3  501    0  0.67393489065E+02 -0.25665990784E+03  0.91180115524E+03  0.94963021086E+03  0.00000000000E+00 0.  1.
         -4    1    4    4    0  502  0.14261267121E+02  0.55194218773E+03  0.12646083905E+04  0.13798833079E+04  0.00000000000E+00 0. -1.
</event>
<event>
 8    1  0.7572579E-006  0.1037405E+04  0.7818608E-02  0.8741189E-01
         21   -1    0    0  503  502  0.00000000000E+00  0.00000000000E+00  0.10919791389E+04  0.10919791389E+04  0.00000000000E+00 0.  1.
         21   -1    0    0  501  503 -0.00000000000E+00 -0.00000000000E+00 -0.18171588069E+04  0.18171588069E+04  0.00000000000E+00 0.  1.
    9000010    2    1    2  501    0  0.18838174301E+03  0.19648799629E+03 -0.13485980823E+04  0.16988244664E+04  0.99659047069E+03 0.  0.
   -9000010    2    1    2    0  502 -0.18838174301E+03 -0.19648799629E+03  0.62341841431E+03  0.12103134794E+04  0.10010559352E+04 0.  0.
        -13    1    3    3    0    0  0.71699107617E+02 -0.37427912329E+03 -0.25135120478E+03  0.45651184374E+03  0.10566000000E+00 0.  1.
         13    1    4    4    0    0 -0.58184855548E+03 -0.13052391314E+02  0.23451829466E+03  0.62746868298E+03  0.10566000000E+00 0. -1.
          4    1    3    3  501    0  0.11668263540E+03  0.57076711958E+03 -0.10972468775E+04  0.12423126227E+04  0.00000000000E+00 0.  1.
         -4    1    4    4    0  502  0.39346681246E+03 -0.18343560497E+03  0.38890011965E+03  0.58284479645E+03  0.00000000000E+00 0. -1.
</event>
<event>
 8    1  0.7572579E-006  0.1072716E+04  0.7818608E-02  0.8717290E-01
         21   -1    0    0  501  502  0.00000000000E+00  0.00000000000E+00  0.15015620558E+04  0.15015620558E+04  0.00000000000E+00 0.  1.
         21   -1    0    0  502  503 -0.00000000000E+00 -0.00000000000E+00 -0.15615493511E+04  0.15615493511E+04  0.00000000000E+00 0.  1.
    9000010    2    1    2  501    0 -0.58250036413E+02 -0.29311797797E+03  0.10805568461E+04  0.15226041885E+04  0.10302471555E+04 0.  0.
   -9000010    2    1    2    0  503  0.58250036413E+02  0.29311797797E+03 -0.11405441414E+04  0.15405072184E+04  0.99146877697E+03 0.  0.
        -13    1    3    3    0    0 -0.12061522649E+03 -0.67492094778E+03  0.67525852610E+03  0.96230993284E+03  0.10566000000E+00 0.  1.
         13    1    4    4    0    0 -0.20648480724E+02 -0.36857320224E+03 -0.40675436227E+03  0.54929198752E+03  0.10566000000E+00 0. -1.
          4    1    3    3  501    0  0.62365190081E+02  0.38180296981E+03  0.40529831999E+03  0.56029425562E+03  0.00000000000E+00 0.  1.
         -4    1    4    4    0  503  0.78898517137E+02  0.66169118021E+03 -0.73378977917E+03  0.99121523091E+03  0.00000000000E+00 0. -1.
</event>
<event>
 8    1  0.7572579E-006  0.1146564E+04  0.7818608E-02  0.8657976E-01
         21   -1    0    0  501  502  0.00000000000E+00  0.00000000000E+00  0.11424114215E+04  0.11424114215E+04  0.00000000000E+00 0.  1.
         21   -1    0    0  502  503 -0.00000000000E+00 -0.00000000000E+00 -0.13436397092E+04  0.13436397092E+04  0.00000000000E+00 0.  1.
    9000010    2    1    2  501    0 -0.23135813256E+03 -0.49279622445E+03  0.42490292089E+03  0.12227636318E+04  0.10090756675E+04 0.  0.
   -9000010    2    1    2    0  503  0.23135813256E+03  0.49279622445E+03 -0.62613120863E+03  0.12632874989E+04  0.95261760959E+03 0.  0.
        -13    1    3    3    0    0 -0.62026606411E+03 -0.42471575309E+03  0.27763191315E+03  0.80136942265E+03  0.10566000000E+00 0.  1.
         13    1    4    4    0    0  0.37637305395E+03 -0.13662133443E+03 -0.60942595766E+02  0.40501367373E+03  0.10566000000E+00 0. -1.
          4    1    3    3  501    0  0.38890793154E+03 -0.68080471367E+02  0.14727100774E+03  0.42139420917E+03  0.00000000000E+00 0.  1.
         -4    1    4    4    0  503 -0.14501492139E+03  0.62941755888E+03 -0.56518861286E+03  0.85827382517E+03  0.00000000000E+00 0. -1.
</event>
<event>
 8    1  0.7572579E-006  0.1088372E+04  0.7818608E-02  0.8698991E-01
         21   -1    0    0  503  502  0.00000000000E+00  0.00000000000E+00  0.13855603342E+04  0.13855603342E+04  0.00000000000E+00 0. -1.
         21   -1    0    0  501  503 -0.00000000000E+00 -0.00000000000E+00 -0.11215077592E+04  0.11215077592E+04  0.00000000000E+00 0. -1.
    9000010    2    1    2  501    0  0.22610963128E+03 -0.27214566819E+03 -0.49339607376E+03  0.11810660858E+04  0.10130590227E+04 0.  0.
   -9000010    2    1    2    0  502 -0.22610963128E+03  0.27214566819E+03  0.75744864875E+03  0.13260020076E+04  0.10292541176E+04 0.  0.
        -13    1    3    3    0    0  0.55578988888E+03 -0.31470609647E+02 -0.53333462902E+03  0.77093361422E+03  0.10566000000E+00 0.  1.
         13    1    4    4    0    0  0.18589920724E+02 -0.29576731065E+03  0.62771255553E+03  0.69415196516E+03  0.10566000000E+00 0. -1.
          4    1    3    3  501    0 -0.32968025760E+03 -0.24067505854E+03  0.39938555264E+02  0.41013247159E+03  0.00000000000E+00 0.  1.
         -4    1    4    4    0  502 -0.24469955200E+03  0.56791297884E+03  0.12973609322E+03  0.63185004247E+03  0.00000000000E+00 0. -1.
</event>
<event>
 8    1  0.7572579E-006  0.1132277E+04  0.7818608E-02  0.8674058E-01
         21   -1    0    0  501  502  0.00000000000E+00  0.00000000000E+00  0.18970392178E+04  0.18970392178E+04  0.00000000000E+00 0.  1.
         21   -1    0    0  502  503 -0.00000000000E+00 -0.00000000000E+00 -0.96388625262E+03  0.96388625262E+03  0.00000000000E+00 0.  1.
    9000010    2    1    2  501    0 -0.25843046516E+03 -0.42949528467E+03  0.12926241603E+04  0.16729564539E+04  0.93629780102E+03 0.  0.
   -9000010    2    1    2    0  503  0.25843046516E+03  0.42949528467E+03 -0.35947119510E+03  0.11879690165E+04  0.10152823938E+04 0.  0.
        -13    1    3    3    0    0 -0.30456419752E+03 -0.45391222585E+03  0.14273684127E+04  0.15284555133E+04  0.10566000000E+00 0.  1.
         13    1    4    4    0    0 -0.46358181028E+02  0.51384094660E+03  0.19344569203E+03  0.55100167539E+03  0.10566000000E+00 0. -1.
          4    1    3    3  501    0  0.46133732356E+02  0.24416941175E+02 -0.13474425248E+03  0.14450094067E+03  0.00000000000E+00 0.  1.
         -4    1    4    4    0  503  0.30478864619E+03 -0.84345661928E+02 -0.55291688712E+03  0.63696734108E+03  0.00000000000E+00 0. -1.
</event>
<event>
 8    1  0.7572579E-006  0.1051949E+04  0.7818608E-02  0.8728608E-01
         21   -1    0    0  501  502  0.00000000000E+00  0.00000000000E+00  0.14949801740E+04  0.14949801740E+04  0.00000000000E+00 0.  1.
         21   -1    0    0  502  503 -0.00000000000E+00 -0.00000000000E+00 -0.91888547565E+03  0.91888547565E+03  0.00000000000E+00 0.  1.
    9000010    2    1    2  501    0  0.24004896500E+03  0.19426931563E+03  0.82594077828E+03  0.13326535751E+04  0.99921134372E+03 0.  0.
   -9000010    2    1    2    0  503 -0.24004896500E+03 -0.19426931563E+03 -0.24984607989E+03  0.10812120746E+04  0.10056005241E+04 0.  0.
        -13    1    3    3    0    0  0.53511215937E+03  0.87631890379E+02  0.86041427127E+03  0.10170236480E+04  0.10566000000E+00 0.  1.
         13    1    4    4    0    0 -0.38603562619E+03 -0.44670084217E+03  0.12781697027E+03  0.60407146609E+03  0.10566000000E+00 0. -1.
          4    1    3    3  501    0 -0.29506319437E+03  0.10663742525E+03 -0.34473492996E+02  0.31562992705E+03  0.00000000000E+00 0.  1.
         -4    1    4    4    0  503  0.14598666119E+03  0.25243152655E+03 -0.37766305015E+03  0.47714060851E+03  0.00000000000E+00 0. -1.
</event>
<event>
 8    1  0.7572579E-006  0.1098950E+04  0.7818608E-02  0.8695181E-01
         21   -1    0    0  503  502  0.00000000000E+00  0.00000000000E+00  0.62728908044E+03  0.62728908044E+03  0.00000000000E+00 0.  1.
         21   -1    0    0  501  503 -0.00000000000E+00 -0.00000000000E+00 -0.21506503924E+04  0.21506503924E+04  0.00000000000E+00 0. -1.
    9000010    2    1    2  501    0 -0.20798771317E+03 -0.38606480901E+03 -0.26060047600E+03  0.11294262965E+04  0.10076637463E+04 0.  0.
   -9000010    2    1    2    0  502  0.20798771317E+03  0.38606480901E+03 -0.12627608359E+04  0.16485131764E+04  0.96474133228E+03 0.  0.
        -13    1    3    3    0    0  0.18878343431E+03 -0.51418512905E+03  0.12464626789E+03  0.56174926370E+03  0.10566000000E+00 0.  1.
         13    1    4    4    0    0  0.13010886262E+03 -0.28315752172E+03 -0.71585643203E+03  0.78074127641E+03  0.10566000000E+00 0. -1.
          4    1    3    3  501    0 -0.39677114747E+03  0.12812032004E+03 -0.38524674389E+03  0.56767703279E+03  0.00000000000E+00 0.  1.
         -4    1    4    4    0  502  0.77878850546E+02  0.66922233073E+03 -0.54690440392E+03  0.86777189994E+03  0.00000000000E+00 0. -1.
</event>
<event>
 8    1  0.7572579E-006  0.1104487E+04  0.7818608E-02  0.8683093E-01
         21   -1    0    0  503  502  0.00000000000E+00  0.00000000000E+00  0.89543602671E+03  0.89543602671E+03  0.00000000000E+00 0. -1.
         21   -1    0    0  501  503 -0.00000000000E+00 -0.00000000000E+00 -0.14143103315E+04  0.14143103315E+04  0.00000000000E+00 0. -1.
    9000010    2    1    2  501    0 -0.32051314608E+03  0.33438695108E+03 -0.49250516855E+03  0.12093193368E+04  0.10026707373E+04 0.  0.
   -9000010    2    1    2    0  502  0.32051314608E+03 -0.33438695108E+03 -0.26369136220E+02  0.11004270214E+04  0.99784817898E+03 0.  0.
        -13    1    3    3    0    0 -0.12908095117E+03  0.39061920616E+03  0.22200597970E+03  0.46747398041E+03  0.10566000000E+00 0.  1.
         13    1    4    4    0    0  0.59477548153E+03 -0.50232113308E+03 -0.20066140061E+02  0.77877278799E+03  0.10566000000E+00 0. -1.
          4    1    3    3  501    0 -0.19143219491E+03 -0.56232255084E+02 -0.71451114825E+03  0.74184535634E+03  0.00000000000E+00 0.  1.
         -4    1    4    4    0  502 -0.27426233545E+03  0.16793418200E+03 -0.63029961589E+01  0.32165423345E+03  0.00000000000E+00 0. -1.
</event>
<event>
 8    1  0.9255857E-006  0.1036145E+04  0.7818608E-02  0.8743767E-01
         21   -1    0    0  503  502  0.00000000000E+00  0.00000000000E+00  0.18369431567E+04  0.18369431567E+04  0.00000000000E+00 0.  1.
         21   -1    0    0  501  503 -0.00000000000E+00 -0.00000000000E+00 -0.66687475504E+03  0.66687475504E+03  0.00000000000E+00 0.  1.
    9000010    2    1    2  501    0 -0.17535629075E+03  0.66658484798E+02  0.13178318686E+03  0.10444919563E+04  0.10190208320E+04 0.  0.
   -9000010    2    1    2    0  502  0.17535629075E+03 -0.66658484798E+02  0.10382852148E+04  0.14593259554E+04  0.10081680786E+04 0.  0.
        -13    1    3    3    0    0  0.87819082747E+02  0.39855299333E+02 -0.42087574486E+03  0.43178355683E+03  0.10566000000E+00 0.  1.
         13    1    4    4    0    0  0.34785374050E+03  0.13612126523E+03 -0.14084676720E+02  0.37380424410E+03  0.10566000000E+00 0. -1.
          4    1    3    3  501    0 -0.26317537349E+03  0.26803185464E+02  0.55265893172E+03  0.61270839946E+03  0.00000000000E+00 0.  1.
         -4    1    4    4    0  502 -0.17249744976E+03 -0.20277975003E+03  0.10523698915E+04  0.10855217113E+04  0.00000000000E+00 0. -1.
</event>
<event>
 8    1  0.7572579E-006  0.1081972E+04  0.7818608E-02  0.8705368E-01
         21   -1    0    0  503  502  0.00000000000E+00  0.00000000000E+00  0.10340715216E+04  0.10340715216E+04  0.00000000000E+00 0. -1.
         21   -1    0    0  501  503 -0.00000000000E+00 -0.00000000000E+00 -0.13687850655E+04  0.13687850655E+04  0.00000000000E+00 0. -1.
    9000010    2    1    2  501    0  0.72457732068E+02 -0.33354834620E+03 -0.68667510323E+03  0.12650781629E+04  0.10061786316E+04 0.  0.
   -9000010    2    1    2    0  502 -0.72457732068E+02  0.33354834620E+03  0.35196155930E+03  0.11377784242E+04  0.10267220564E+04 0.  0.
        -13    1    3    3    0    0  0.11805236097E+03 -0.37551017950E+03  0.15358878165E+03  0.42253257845E+03  0.10566000000E+00 0.  1.
         13    1    4    4    0    0 -0.20407545275E+03  0.18428997232E+03  0.69153100152E+03  0.74419400799E+03  0.10566000000E+00 0. -1.
          4    1    3    3  501    0 -0.45594628898E+02  0.41961833300E+02 -0.84026388487E+03  0.84254558444E+03  0.00000000000E+00 0.  1.
         -4    1    4    4    0  502  0.13161772068E+03  0.14925837388E+03 -0.33956944221E+03  0.39358441617E+03  0.00000000000E+00 0. -1.
</event>
<event>
 8    1  0.7572579E-006  0.1093165E+04  0.7818608E-02  0.8696454E-01
         21   -1    0    0  501  502  0.00000000000E+00  0.00000000000E+00  0.80109075265E+03  0.80109075265E+03  0.00000000000E+00 0.  1.
         21   -1    0    0  502  503 -0.00000000000E+00 -0.00000000000E+00 -0.15006409463E+04  0.15006409463E+04  0.00000000000E+00 0.  1.
    9000010    2    1    2  501    0  0.32121027358E+03  0.31042176245E+03 -0.53973861102E+03  0.12191499312E+04  0.99773296832E+03 0.  0.
   -9000010    2    1    2    0  503 -0.32121027358E+03 -0.31042176245E+03 -0.15981158259E+03  0.10825817677E+04  0.97309086491E+03 0.  0.
        -13    1    3    3    0    0  0.17241891147E+03  0.42470380473E+03  0.16706862848E+03  0.48786631424E+03  0.10566000000E+00 0.  1.
         13    1    4    4    0    0 -0.23251540466E+03  0.17594825678E+03  0.29213168407E+03  0.41274948149E+03  0.10566000000E+00 0. -1.
          4    1    3    3  501    0  0.14879136210E+03 -0.11428204228E+03 -0.70680723950E+03  0.73128361696E+03  0.00000000000E+00 0.  1.
         -4    1    4    4    0  503 -0.88694868918E+02 -0.48637001922E+03 -0.45194326666E+03  0.66983228621E+03  0.00000000000E+00 0. -1.
</event>
<event>
 8    1  0.7572579E-006  0.1113270E+04  0.7818608E-02  0.8681505E-01
         21   -1    0    0  501  502  0.00000000000E+00  0.00000000000E+00  0.63720306049E+03  0.63720306049E+03  0.00000000000E+00 0.  1.
         21   -1    0    0  502  503 -0.00000000000E+00 -0.00000000000E+00 -0.19329002160E+04  0.19329002160E+04  0.00000000000E+00 0.  1.
    9000010    2    1    2  501    0 -0.35494500025E+03 -0.23872790904E+03 -0.46617484959E+03  0.12069337364E+04  0.10278098491E+04 0.  0.
   -9000010    2    1    2    0  503  0.35494500025E+03  0.23872790904E+03 -0.82952230596E+03  0.13631695401E+04  0.99355270179E+03 0.  0.
        -13    1    3    3    0    0 -0.53945528742E+03 -0.53523119414E+03 -0.36697371373E+03  0.84389226566E+03  0.10566000000E+00 0.  1.
         13    1    4    4    0    0 -0.19487934151E+03  0.40599047770E+03 -0.58586533628E+03  0.73894819112E+03  0.10566000000E+00 0. -1.
          4    1    3    3  501    0  0.18451028717E+03  0.29650328509E+03 -0.99201135855E+02  0.36304147077E+03  0.00000000000E+00 0.  1.
         -4    1    4    4    0  503  0.54982434176E+03 -0.16726256866E+03 -0.24365696968E+03  0.62422134899E+03  0.00000000000E+00 0. -1.
</event>
<event>
 8    1  0.7572579E-006  0.1004635E+04  0.7818608E-02  0.8772243E-01
         21   -1    0    0  501  502  0.00000000000E+00  0.00000000000E+00  0.13065494923E+04  0.13065494923E+04  0.00000000000E+00 0. -1.
         21   -1    0    0  502  503 -0.00000000000E+00 -0.00000000000E+00 -0.79585491278E+03  0.79585491278E+03  0.00000000000E+00 0. -1.
    9000010    2    1    2  501    0  0.23973049721E+02 -0.50683534562E+02  0.45802602919E+03  0.10963897998E+04  0.99455478573E+03 0.  0.
   -9000010    2    1    2    0  503 -0.23973049721E+02  0.50683534562E+02  0.52668550372E+02  0.10060146054E+04  0.10030692310E+04 0.  0.
        -13    1    3    3    0    0  0.26573030193E+03  0.36355727487E+03  0.41913019800E+03  0.61518827973E+03  0.10566000000E+00 0.  1.
         13    1    4    4    0    0 -0.29637332165E+03  0.57345564731E+02  0.43929605243E+03  0.53301659676E+03  0.10566000000E+00 0. -1.
          4    1    3    3  501    0 -0.24175725221E+03 -0.41424080943E+03  0.38895831188E+02  0.48120152003E+03  0.00000000000E+00 0.  1.
         -4    1    4    4    0  503  0.27240027193E+03 -0.66620301690E+01 -0.38662750206E+03  0.47299800860E+03  0.00000000000E+00 0. -1.
</event>
<event>
 8    1  0.7572579E-006  0.1123446E+04  0.7818608E-02  0.8674615E-01
         21   -1    0    0  501  502  0.00000000000E+00  0.00000000000E+00  0.64379565102E+03  0.64379565102E+03  0.00000000000E+00 0.  1.
         21   -1    0    0  502  503 -0.00000000000E+00 -0.00000000000E+00 -0.21495456752E+04  0.21495456752E+04  0.00000000000E+00 0.  1.
    9000010    2    1    2  501    0 -0.25855856569E+03 -0.29481187021E+03 -0.28238421732E+03  0.11583919964E+04  0.10527889629E+04 0.  0.
   -9000010    2    1    2    0  503  0.25855856569E+03  0.29481187021E+03 -0.12233658068E+04  0.16349493298E+04  0.10112709048E+04 0.  0.
        -13    1    3    3    0    0  0.22503056961E+03  0.24797241395E+03  0.82682453712E+02  0.34491372059E+03  0.10566000000E+00 0.  1.
         13    1    4    4    0    0  0.24110191703E+03 -0.35662276161E+03 -0.43301803652E+03  0.61058542368E+03  0.10566000000E+00 0. -1.
          4    1    3    3  501    0 -0.48358913530E+03 -0.54278428416E+03 -0.36506667103E+03  0.81347827581E+03  0.00000000000E+00 0.  1.
         -4    1    4    4    0  503  0.17456648666E+02  0.65143463182E+03 -0.79034777032E+03  0.10243639061E+04  0.00000000000E+00 0. -1.
</event>
<event>
 8    1  0.7572579E-006  0.1029498E+04  0.7818608E-02  0.8752147E-01
         21   -1    0    0  503  502  0.00000000000E+00  0.00000000000E+00  0.12499641879E+04  0.12499641879E+04  0.00000000000E+00 0.  1.
         21   -1    0    0  501  503 -0.00000000000E+00 -0.00000000000E+00 -0.86287842469E+03  0.86287842469E+03  0.00000000000E+00 0.  1.
    9000010    2    1    2  501    0 -0.26299803315E+02 -0.28574990958E+03 -0.82200714326E+01  0.10295312494E+04  0.98869729115E+03 0.  0.
   -9000010    2    1    2    0  502  0.26299803315E+02  0.28574990958E+03  0.39530583463E+03  0.10833113631E+04  0.96692921981E+03 0.  0.
        -13    1    3    3    0    0 -0.26503690660E+03  0.16490076713E+03  0.30058198001E+03  0.43334323893E+03  0.10566000000E+00 0.  1.
         13    1    4    4    0    0  0.44170445210E+03  0.37480700248E+03  0.17743535378E+03  0.60586007300E+03  0.10566000000E+00 0. -1.
          4    1    3    3  501    0  0.23873710329E+03 -0.45065067671E+03 -0.30880205144E+03  0.59618801051E+03  0.00000000000E+00 0.  1.
         -4    1    4    4    0  502 -0.41540464879E+03 -0.89057092897E+02  0.21787048085E+03  0.47745129014E+03  0.00000000000E+00 0. -1.
</event>
<event>
 8    1  0.7572579E-006  0.1030762E+04  0.7818608E-02  0.8746495E-01
         21   -1    0    0  501  502  0.00000000000E+00  0.00000000000E+00  0.13900308005E+04  0.13900308005E+04  0.00000000000E+00 0.  1.
         21   -1    0    0  502  503 -0.00000000000E+00 -0.00000000000E+00 -0.77905809310E+03  0.77905809310E+03  0.00000000000E+00 0.  1.
    9000010    2    1    2  501    0 -0.26099504406E+03 -0.13179267902E+02  0.45892197183E+03  0.11271721193E+04  0.99579892754E+03 0.  0.
   -9000010    2    1    2    0  503  0.26099504406E+03  0.13179267902E+02  0.15205073556E+03  0.10419167743E+04  0.99708526833E+03 0.  0.
        -13    1    3    3    0    0 -0.32153504832E+03 -0.20829634240E+03  0.70801387734E+03  0.80501913966E+03  0.10566000000E+00 0.  1.
         13    1    4    4    0    0  0.18603442137E+02 -0.18897511945E+03 -0.37913789516E+03  0.42403211971E+03  0.10566000000E+00 0. -1.
          4    1    3    3  501    0  0.60540004260E+02  0.19511707450E+03 -0.24909190551E+03  0.32215297960E+03  0.00000000000E+00 0.  1.
         -4    1    4    4    0  503  0.24239160192E+03  0.20215438735E+03  0.53118863072E+03  0.61788465462E+03  0.00000000000E+00 0. -1.
</event>
<event>
 8    1  0.7572579E-006  0.1042530E+04  0.7818608E-02  0.8742065E-01
         21   -1    0    0  501  502  0.00000000000E+00  0.00000000000E+00  0.21468719770E+04  0.21468719770E+04  0.00000000000E+00 0. -1.
         21   -1    0    0  502  503 -0.00000000000E+00 -0.00000000000E+00 -0.53543235598E+03  0.53543235598E+03  0.00000000000E+00 0. -1.
    9000010    2    1    2  501    0  0.22713395086E+03 -0.50677152566E+02  0.11954481276E+04  0.15861793667E+04  0.10162237707E+04 0.  0.
   -9000010    2    1    2    0  503 -0.22713395086E+03  0.50677152566E+02  0.41599149340E+03  0.10961249662E+04  0.98705775596E+03 0.  0.
        -13    1    3    3    0    0  0.33411650807E+03  0.42699937405E+03  0.74151917846E+03  0.91859295098E+03  0.10566000000E+00 0.  1.
         13    1    4    4    0    0 -0.64150817691E+02 -0.38864129376E+03 -0.92543235818E+02  0.40462531345E+03  0.10566000000E+00 0. -1.
          4    1    3    3  501    0 -0.10698255721E+03 -0.47767652662E+03  0.45392894913E+03  0.66758641575E+03  0.00000000000E+00 0.  1.
         -4    1    4    4    0  503 -0.16298313317E+03  0.43931844632E+03  0.50853472922E+03  0.69149965279E+03  0.00000000000E+00 0. -1.
</event>
<event>
 8    1  0.7572579E-006  0.1798917E+04  0.7818608E-02  0.8256600E-01
         21   -1    0    0  503  502  0.00000000000E+00  0.00000000000E+00  0.17814461708E+04  0.17814461708E+04  0.00000000000E+00 0. -1.
         21   -1    0    0  501  503 -0.00000000000E+00 -0.00000000000E+00 -0.22840682545E+04  0.22840682545E+04  0.00000000000E+00 0.  1.
    9000010    2    1    2  501    0 -0.10230848192E+04 -0.10802178323E+04 -0.11802220580E+04  0.21515175279E+04  0.10112024794E+04 0.  0.
   -9000010    2    1    2    0  502  0.10230848192E+04  0.10802178323E+04  0.67759997430E+03  0.19139968973E+04  0.99532370881E+03 0.  0.
        -13    1    3    3    0    0 -0.98339235621E+03 -0.38153901124E+03 -0.93629397409E+03  0.14104180091E+04  0.10566000000E+00 0.  1.
         13    1    4    4    0    0  0.10918620542E+04  0.10407314349E+04  0.84485578832E+03  0.17288915464E+04  0.10566000000E+00 0. -1.
          4    1    3    3  501    0 -0.39692462980E+02 -0.69867882111E+03 -0.24392808392E+03  0.74109951883E+03  0.00000000000E+00 0.  1.
         -4    1    4    4    0  502 -0.68777234986E+02  0.39486397470E+02 -0.16725581402E+03  0.18510535098E+03  0.00000000000E+00 0. -1.
</event>
<event>
 8    1  0.7572579E-006  0.1046322E+04  0.7818608E-02  0.8751047E-01
         21   -1    0    0  503  502  0.00000000000E+00  0.00000000000E+00  0.43819198731E+03  0.43819198731E+03  0.00000000000E+00 0. -1.
         21   -1    0    0  501  503 -0.00000000000E+00 -0.00000000000E+00 -0.26589999354E+04  0.26589999354E+04  0.00000000000E+00 0. -1.
    9000010    2    1    2  501    0 -0.10858882780E+03  0.18311146565E+03 -0.17109840159E+04  0.20055560549E+04  0.10244351832E+04 0.  0.
   -9000010    2    1    2    0  502  0.10858882780E+03 -0.18311146565E+03 -0.50982393221E+03  0.10916358678E+04  0.94150256695E+03 0.  0.
        -13    1    3    3    0    0  0.30374114560E+02  0.47218384041E+03 -0.15962704364E+04  0.16649202633E+04  0.10566000000E+00 0.  1.
         13    1    4    4    0    0  0.34644272974E+03 -0.41471158427E+03 -0.76512344294E+02  0.54576772817E+03  0.10566000000E+00 0. -1.
          4    1    3    3  501    0 -0.13896294236E+03 -0.28907237476E+03 -0.11471357949E+03  0.34063579160E+03  0.00000000000E+00 0.  1.
         -4    1    4    4    0  502 -0.23785390194E+03  0.23160011862E+03 -0.43331158792E+03  0.54586813961E+03  0.00000000000E+00 0. -1.
</event>
<event>
 8    1  0.7572579E-006  0.1067084E+04  0.7818608E-02  0.8717144E-01
         21   -1    0    0  501  502  0.00000000000E+00  0.00000000000E+00  0.10551781407E+04  0.10551781407E+04  0.00000000000E+00 0.  1.
         21   -1    0    0  502  503 -0.00000000000E+00 -0.00000000000E+00 -0.11655964465E+04  0.11655964465E+04  0.00000000000E+00 0.  1.
    9000010    2    1    2  501    0  0.32951785784E+03 -0.90148336462E+02  0.27128756587E+03  0.11010290937E+04  0.10109200664E+04 0.  0.
   -9000010    2    1    2    0  503 -0.32951785784E+03  0.90148336462E+02 -0.38170587168E+03  0.11197454935E+04  0.99570169054E+03 0.  0.
        -13    1    3    3    0    0  0.14135059436E+03 -0.37908710561E+03  0.53227693251E+03  0.66858489978E+03  0.10566000000E+00 0.  1.
         13    1    4    4    0    0  0.14398859939E+02 -0.87788742457E+02  0.31246288012E+03  0.32488036734E+03  0.10566000000E+00 0. -1.
          4    1    3    3  501    0  0.18816726347E+03  0.28893876915E+03 -0.26098936664E+03  0.43244419392E+03  0.00000000000E+00 0.  1.
         -4    1    4    4    0  503 -0.34391671778E+03  0.17793707892E+03 -0.69416875179E+03  0.79486512616E+03  0.00000000000E+00 0. -1.
</event>
<event>
 8    1  0.7572579E-006  0.1009692E+04  0.7818608E-02  0.8770641E-01
         21   -1    0    0  503  502  0.00000000000E+00  0.00000000000E+00  0.21061793203E+04  0.21061793203E+04  0.00000000000E+00 0. -1.
         21   -1    0    0  501  503 -0.00000000000E+00 -0.00000000000E+00 -0.56213775981E+03  0.56213775981E+03  0.00000000000E+00 0. -1.
    9000010    2    1    2  501    0  0.12483437495E+03  0.90598697311E+02  0.24988539108E+03  0.10401542062E+04  0.99784082838E+03 0.  0.
   -9000010    2    1    2    0  502 -0.12483437495E+03 -0.90598697311E+02  0.12941561694E+04  0.16281628740E+04  0.97584958276E+03 0.  0.
        -13    1    3    3    0    0 -0.55775552721E+02 -0.18650545207E+03 -0.32387713145E+03  0.37787776248E+03  0.10566000000E+00 0.  1.
         13    1    4    4    0    0 -0.19495961855E+01 -0.48142808596E+03  0.33888545740E+03  0.58874456879E+03  0.10566000000E+00 0. -1.
          4    1    3    3  501    0  0.18060992767E+03  0.27710414939E+03  0.57376252254E+03  0.66227644367E+03  0.00000000000E+00 0.  1.
         -4    1    4    4    0  502 -0.12288477876E+03  0.39082938865E+03  0.95527071201E+03  0.10394183052E+04  0.00000000000E+00 0. -1.
</event>
<event>
 8    1  0.7572579E-006  0.1209695E+04  0.7818608E-02  0.8599573E-01
         21   -1    0    0  503  502  0.00000000000E+00  0.00000000000E+00  0.20396549045E+04  0.20396549045E+04  0.00000000000E+00 0. -1.
         21   -1    0    0  501  503 -0.00000000000E+00 -0.00000000000E+00 -0.95002610392E+03  0.95002610392E+03  0.00000000000E+00 0.  1.
    9000010    2    1    2  501    0 -0.57815002291E+03 -0.38060170437E+03 -0.19593772043E+03  0.12254603129E+04  0.99209187162E+03 0.  0.
   -9000010    2    1    2    0  502  0.57815002291E+03  0.38060170437E+03  0.12855665210E+04  0.17642206955E+04  0.99029201570E+03 0.  0.
        -13    1    3    3    0    0 -0.46486583834E+03 -0.44018015943E+03  0.30448940444E+03  0.70892357063E+03  0.10566000000E+00 0.  1.
         13    1    4    4    0    0  0.20461075196E+03  0.43852384512E+03  0.67188916260E+02  0.48855202813E+03  0.10566000000E+00 0. -1.
          4    1    3    3  501    0 -0.11328418457E+03  0.59578455054E+02 -0.50042712486E+03  0.51653674223E+03  0.00000000000E+00 0.  1.
         -4    1    4    4    0  502  0.37353927095E+03 -0.57922140751E+02  0.12183776047E+04  0.12756686674E+04  0.00000000000E+00 0. -1.
</event>
<event>
 8    1  0.7572579E-006  0.1012940E+04  0.7818608E-02  0.8766743E-01
         21   -1    0    0  501  502  0.00000000000E+00  0.00000000000E+00  0.13590162162E+04  0.13590162162E+04  0.00000000000E+00 0. -1.
         21   -1    0    0  502  503 -0.00000000000E+00 -0.00000000000E+00 -0.10880639883E+04  0.10880639883E+04  0.00000000000E+00 0. -1.
    9000010    2    1    2  501    0  0.11210698539E+03 -0.93957792354E+02  0.82672245601E+03  0.13074850273E+04  0.10023228194E+04 0.  0.
   -9000010    2    1    2    0  503 -0.11210698539E+03  0.93957792354E+02 -0.55577022815E+03  0.11395951773E+04  0.98407346203E+03 0.  0.
        -13    1    3    3    0    0 -0.21077241924E+03 -0.34440355183E+03  0.80224345451E+03  0.89812771402E+03  0.10566000000E+00 0.  1.
         13    1    4    4    0    0 -0.24961008769E+03  0.50389826665E+03 -0.32447083699E+03  0.64923030909E+03  0.10566000000E+00 0. -1.
          4    1    3    3  501    0  0.32287940464E+03  0.25044575948E+03  0.24479001502E+02  0.40935731323E+03  0.00000000000E+00 0.  1.
         -4    1    4    4    0  503  0.13750310230E+03 -0.40994047430E+03 -0.23129939116E+03  0.49036486819E+03  0.00000000000E+00 0. -1.
</event>
<event>
 8    1  0.7572579E-006  0.1009723E+04  0.7818608E-02  0.8767351E-01
         21   -1    0    0  501  502  0.00000000000E+00  0.00000000000E+00  0.10800859049E+04  0.10800859049E+04  0.00000000000E+00 0.  1.
         21   -1    0    0  502  503 -0.00000000000E+00 -0.00000000000E+00 -0.10046272649E+04  0.10046272649E+04  0.00000000000E+00 0.  1.
    9000010    2    1    2  501    0  0.12611263923E+03  0.16185604027E+02  0.30916032265E+03  0.10559928760E+04  0.10016858178E+04 0.  0.
   -9000010    2    1    2    0  503 -0.12611263923E+03 -0.16185604027E+02 -0.23370168267E+03  0.10287202937E+04  0.99372158811E+03 0.  0.
        -13    1    3    3    0    0 -0.22129793014E+03  0.38690904857E+03  0.31852636302E+03  0.54784162022E+03  0.10566000000E+00 0.  1.
         13    1    4    4    0    0 -0.37473431628E+03  0.12663882148E+03  0.24891445298E+03  0.46735598313E+03  0.10566000000E+00 0. -1.
          4    1    3    3  501    0  0.34741056936E+03 -0.37072344454E+03 -0.93660403685E+01  0.50815125578E+03  0.00000000000E+00 0.  1.
         -4    1    4    4    0  503  0.24862167705E+03 -0.14282442551E+03 -0.48261613564E+03  0.56136431059E+03  0.00000000000E+00 0. -1.
</event>
<event>
 8    1  0.7572579E-006  0.1163930E+04  0.7818608E-02  0.8634810E-01
         21   -1    0    0  501  502  0.00000000000E+00  0.00000000000E+00  0.12284046747E+04  0.12284046747E+04  0.00000000000E+00 0.  1.
         21   -1    0    0  502  503 -0.00000000000E+00 -0.00000000000E+00 -0.13553200496E+04  0.13553200496E+04  0.00000000000E+00 0.  1.
    9000010    2    1    2  501    0  0.55249623555E+03  0.36040082337E+02  0.49714746207E+03  0.12656573725E+04  0.10238076029E+04 0.  0.
   -9000010    2    1    2    0  503 -0.55249623555E+03 -0.36040082337E+02 -0.62406283699E+03  0.13180673519E+04  0.10204391906E+04 0.  0.
        -13    1    3    3    0    0  0.31241737367E+03 -0.48472789577E+03  0.15209299640E+03  0.59640425806E+03  0.10566000000E+00 0.  1.
         13    1    4    4    0    0 -0.68810590114E+03 -0.26297870982E+03 -0.11652736653E+03  0.74580571955E+03  0.10566000000E+00 0. -1.
          4    1    3    3  501    0  0.24007886188E+03  0.52076797811E+03  0.34505446567E+03  0.66925311447E+03  0.00000000000E+00 0.  1.
         -4    1    4    4    0  503  0.13560966558E+03  0.22693862749E+03 -0.50753547045E+03  0.57226163231E+03  0.00000000000E+00 0. -1.
</event>
<event>
 8    1  0.7572579E-006  0.1031728E+04  0.7818608E-02  0.8750211E-01
         21   -1    0    0  503  502  0.00000000000E+00  0.00000000000E+00  0.11613340110E+04  0.11613340110E+04  0.00000000000E+00 0. -1.
         21   -1    0    0  501  503 -0.00000000000E+00 -0.00000000000E+00 -0.92293375945E+03  0.92293375945E+03  0.00000000000E+00 0. -1.
    9000010    2    1    2  501    0  0.45202336180E+02 -0.13842845136E+03  0.29011138096E+03  0.10512441891E+04  0.99987201400E+03 0.  0.
   -9000010    2    1    2    0  502 -0.45202336180E+02  0.13842845136E+03 -0.51711129424E+02  0.10330235814E+04  0.10214000154E+04 0.  0.
        -13    1    3    3    0    0  0.21962158551E+03 -0.38016385893E+03 -0.19616527948E+03  0.48087319378E+03  0.10566000000E+00 0.  1.
         13    1    4    4    0    0 -0.46902532458E+03  0.32296424705E+03 -0.30635488961E+02  0.57028870261E+03  0.10566000000E+00 0. -1.
          4    1    3    3  501    0 -0.17441924933E+03  0.24173540756E+03  0.48627666044E+03  0.57037099531E+03  0.00000000000E+00 0.  1.
         -4    1    4    4    0  502  0.42382298840E+03 -0.18453579569E+03 -0.21075640463E+02  0.46273487875E+03  0.00000000000E+00 0. -1.
</event>
<event>
 8    1  0.7572579E-006  0.1341401E+04  0.7818608E-02  0.8510090E-01
         21   -1    0    0  503  502  0.00000000000E+00  0.00000000000E+00  0.84527659176E+03  0.84527659176E+03  0.00000000000E+00 0. -1.
         21   -1    0    0  501  503 -0.00000000000E+00 -0.00000000000E+00 -0.26321956605E+04  0.26321956605E+04  0.00000000000E+00 0. -1.
    9000010    2    1    2  501    0  0.88384246782E+03  0.75524929506E+02 -0.16802245551E+04  0.21500026788E+04  0.10062183861E+04 0.  0.
   -9000010    2    1    2    0  502 -0.88384246782E+03 -0.75524929506E+02 -0.10669451363E+03  0.13274695734E+04  0.98178929830E+03 0.  0.
        -13    1    3    3    0    0  0.53186285429E+03  0.51727273996E+03 -0.70752621208E+03  0.10252036555E+04  0.10566000000E+00 0.  1.
         13    1    4    4    0    0 -0.45540404444E+03  0.94672334910E+01  0.43620141498E+03  0.63067753868E+03  0.10566000000E+00 0. -1.
          4    1    3    3  501    0  0.35197961353E+03 -0.44174781046E+03 -0.97269834303E+03  0.11247990233E+04  0.00000000000E+00 0.  1.
         -4    1    4    4    0  502 -0.42843842338E+03 -0.84992162997E+02 -0.54289592861E+03  0.69679203476E+03  0.00000000000E+00 0. -1.
</event>
<event>
 8    1  0.7572579E-006  0.1087783E+04  0.7818608E-02  0.8703812E-01
         21   -1    0    0  503  502  0.00000000000E+00  0.00000000000E+00  0.16799304449E+04  0.16799304449E+04  0.00000000000E+00 0. -1.
         21   -1    0    0  501  503 -0.00000000000E+00 -0.00000000000E+00 -0.83353712996E+03  0.83353712996E+03  0.00000000000E+00 0. -1.
    9000010    2    1    2  501    0 -0.79047044998E+02 -0.39581743059E+03 -0.10730777661E+03  0.10930633298E+04  0.10101250469E+04 0.  0.
   -9000010    2    1    2    0  502  0.79047044998E+02  0.39581743059E+03  0.95370109152E+03  0.14204042451E+04  0.97215357517E+03 0.  0.
        -13    1    3    3    0    0 -0.53278152902E+03 -0.15585202924E+03 -0.15834185009E+03  0.57725052216E+03  0.10566000000E+00 0.  1.
         13    1    4    4    0    0  0.44717365804E+03  0.39640702245E+03  0.29643060788E+03  0.66706365839E+03  0.10566000000E+00 0. -1.
          4    1    3    3  501    0  0.45373448402E+03 -0.23996540135E+03  0.51034073481E+02  0.51581280761E+03  0.00000000000E+00 0.  1.
         -4    1    4    4    0  502 -0.36812661304E+03 -0.58959185624E+00  0.65727048364E+03  0.75334058666E+03  0.00000000000E+00 0. -1.
</event>
<event>
 8    1  0.7572579E-006  0.1122146E+04  0.7818608E-02  0.8679765E-01
         21   -1    0    0  503  502  0.00000000000E+00  0.00000000000E+00  0.34760919368E+04  0.34760919368E+04  0.00000000000E+00 0. -1.
         21   -1    0    0  501  503 -0.00000000000E+00 -0.00000000000E+00 -0.40871571929E+03  0.40871571929E+03  0.00000000000E+00 0. -1.
    9000010    2    1    2  501    0  0.49815539601E+03 -0.12291935080E+03  0.79400933403E+03  0.13746497417E+04  0.99796950082E+03 0.  0.
   -9000010    2    1    2    0  502 -0.49815539601E+03  0.12291935080E+03  0.22733668834E+04  0.25101579143E+04  0.93243112490E+03 0.  0.
        -13    1    3    3    0    0  0.78652814416E+03  0.44096563946E+02  0.58591585743E+03  0.98176801316E+03  0.10566000000E+00 0.  1.
         13    1    4    4    0    0 -0.70254850923E+03  0.32699229913E+03  0.16909543208E+04  0.18600604554E+04  0.10566000000E+00 0. -1.
          4    1    3    3  501    0 -0.28837274815E+03 -0.16701591474E+03  0.20809347660E+03  0.39288172858E+03  0.00000000000E+00 0.  1.
         -4    1    4    4    0  502  0.20439311322E+03 -0.20407294833E+03  0.58241256266E+03  0.65009745894E+03  0.00000000000E+00 0. -1.
</event>
<event>
 8    1  0.7572579E-006  0.1033564E+04  0.7818608E-02  0.8744275E-01
         21   -1    0    0  503  502  0.00000000000E+00  0.00000000000E+00  0.58515008971E+03  0.58515008971E+03  0.00000000000E+00 0. -1.
         21   -1    0    0  501  503 -0.00000000000E+00 -0.00000000000E+00 -0.20225398654E+04  0.20225398654E+04  0.00000000000E+00 0. -1.
    9000010    2    1    2  501    0 -0.16659618075E+03  0.16950752699E+03 -0.11311555364E+04  0.15322429224E+04  0.10058670073E+04 0.  0.
   -9000010    2    1    2    0  502  0.16659618075E+03 -0.16950752699E+03 -0.30623423922E+03  0.10754470327E+04  0.10031549341E+04 0.  0.
        -13    1    3    3    0    0 -0.29410116561E+03 -0.33434911948E+03 -0.25392324695E+03  0.51260301971E+03  0.10566000000E+00 0.  1.
         13    1    4    4    0    0  0.38432414450E+02  0.41347242140E+03 -0.22717091311E+03  0.47333194343E+03  0.10566000000E+00 0. -1.
          4    1    3    3  501    0  0.12750498487E+03  0.50385664647E+03 -0.87723228947E+03  0.10196399026E+04  0.00000000000E+00 0.  1.
         -4    1    4    4    0  502  0.12816376630E+03 -0.58297994839E+03 -0.79063326107E+02  0.60211508929E+03  0.00000000000E+00 0. -1.
</event>
<event>
 8    1  0.7572579E-006  0.1035715E+04  0.7818608E-02  0.8745980E-01
         21   -1    0    0  501  502  0.00000000000E+00  0.00000000000E+00  0.10502266132E+04  0.10502266132E+04  0.00000000000E+00 0. -1.
         21   -1    0    0  502  503 -0.00000000000E+00 -0.00000000000E+00 -0.17300421556E+04  0.17300421556E+04  0.00000000000E+00 0. -1.
    9000010    2    1    2  501    0  0.24094037992E+03  0.84893138802E+02  0.56298006669E+03  0.11624782317E+04  0.98445414925E+03 0.  0.
   -9000010    2    1    2    0  503 -0.24094037992E+03 -0.84893138802E+02 -0.12427956091E+04  0.16177905371E+04  0.10037161871E+04 0.  0.
        -13    1    3    3    0    0  0.20995550415E+03  0.48828378228E+03  0.88331625946E+02  0.53879945534E+03  0.10566000000E+00 0.  1.
         13    1    4    4    0    0  0.19975376397E+03 -0.30180073496E+03 -0.10242018654E+03  0.37613183276E+03  0.10566000000E+00 0. -1.
          4    1    3    3  501    0  0.30984875764E+02 -0.40339064348E+03  0.47464844074E+03  0.62367877635E+03  0.00000000000E+00 0.  1.
         -4    1    4    4    0  503 -0.44069414388E+03  0.21690759616E+03 -0.11403754226E+04  0.12416587044E+04  0.00000000000E+00 0. -1.
</event>
<event>
 8    1  0.7572579E-006  0.1079054E+04  0.7818608E-02  0.8705679E-01
         21   -1    0    0  501  502  0.00000000000E+00  0.00000000000E+00  0.11659188515E+04  0.11659188515E+04  0.00000000000E+00 0. -1.
         21   -1    0    0  502  503 -0.00000000000E+00 -0.00000000000E+00 -0.12288942283E+04  0.12288942283E+04  0.00000000000E+00 0. -1.
    9000010    2    1    2  501    0  0.33356987733E+03  0.11073513573E+03  0.49631592247E+03  0.11877232149E+04  0.10202087075E+04 0.  0.
   -9000010    2    1    2    0  503 -0.33356987733E+03 -0.11073513573E+03 -0.55929129928E+03  0.12070898648E+04  0.10103108685E+04 0.  0.
        -13    1    3    3    0    0  0.15684625889E+03  0.37116174724E+03  0.70363999057E+03  0.81084587872E+03  0.10566000000E+00 0.  1.
         13    1    4    4    0    0 -0.66711678060E+03  0.56049893444E+02 -0.48539027864E+03  0.82691603158E+03  0.10566000000E+00 0. -1.
          4    1    3    3  501    0  0.17672361844E+03 -0.26042661151E+03 -0.20732406810E+03  0.37687733616E+03  0.00000000000E+00 0.  1.
         -4    1    4    4    0  503  0.33354690328E+03 -0.16678502918E+03 -0.73901020638E+02  0.38017383326E+03  0.00000000000E+00 0. -1.
</event>
<event>
 8    1  0.7572579E-006  0.1074209E+04  0.7818608E-02  0.8717400E-01
         21   -1    0    0  503  502  0.00000000000E+00  0.00000000000E+00  0.95496275463E+03  0.95496275463E+03  0.00000000000E+00 0.  1.
         21   -1    0    0  501  503 -0.00000000000E+00 -0.00000000000E+00 -0.12450071252E+04  0.12450071252E+04  0.00000000000E+00 0.  1.
    9000010    2    1    2  501    0 -0.27284959447E+03  0.70111559526E+02 -0.42971310742E+03  0.11167191273E+04  0.99148662251E+03 0.  0.
   -9000010    2    1    2    0  502  0.27284959447E+03 -0.70111559526E+02  0.13966873689E+03  0.10832507525E+04  0.10366109708E+04 0.  0.
        -13    1    3    3    0    0 -0.23881263693E+03  0.10978085759E+03  0.29214077049E+03  0.39297525774E+03  0.10566000000E+00 0.  1.
         13    1    4    4    0    0  0.40600045568E+03  0.36746292558E+03  0.26593384254E+03  0.60875790875E+03  0.10566000000E+00 0. -1.
          4    1    3    3  501    0 -0.34036957541E+02 -0.39669298066E+02 -0.72185387791E+03  0.72374386957E+03  0.00000000000E+00 0.  1.
         -4    1    4    4    0  502 -0.13315086121E+03 -0.43757448511E+03 -0.12626510565E+03  0.47449284374E+03  0.00000000000E+00 0. -1.
</event>
<event>
 8    1  0.7572579E-006  0.1075351E+04  0.7818608E-02  0.8711810E-01
         21   -1    0    0  501  502  0.00000000000E+00  0.00000000000E+00  0.23581431267E+04  0.23581431267E+04  0.00000000000E+00 0.  1.
         21   -1    0    0  502  503 -0.00000000000E+00 -0.00000000000E+00 -0.50175367413E+03  0.50175367413E+03  0.00000000000E+00 0.  1.
    9000010    2    1    2  501    0  0.15002878658E+03 -0.30715063345E+03  0.12352608254E+04  0.16377571095E+04  0.10195728981E+04 0.  0.
   -9000010    2    1    2    0  503 -0.15002878658E+03  0.30715063345E+03  0.62112862719E+03  0.12221396914E+04  0.99547702398E+03 0.  0.
        -13    1    3    3    0    0  0.49025011545E+03 -0.13698643895E+03  0.22179461935E+03  0.55525068616E+03  0.10566000000E+00 0.  1.
         13    1    4    4    0    0  0.14736129849E+03  0.15876324812E+03 -0.22545662350E+03  0.31265287699E+03  0.10566000000E+00 0. -1.
          4    1    3    3  501    0 -0.34022132886E+03 -0.17016419449E+03  0.10134662061E+04  0.10825064233E+04  0.00000000000E+00 0.  1.
         -4    1    4    4    0  503 -0.29739008507E+03  0.14838738532E+03  0.84658525070E+03  0.90948681437E+03  0.00000000000E+00 0. -1.
</event>
<event>
 8    1  0.7572579E-006  0.1090570E+04  0.7818608E-02  0.8701939E-01
         21   -1    0    0  501  502  0.00000000000E+00  0.00000000000E+00  0.14292910329E+04  0.14292910329E+04  0.00000000000E+00 0.  1.
         21   -1    0    0  502  503 -0.00000000000E+00 -0.00000000000E+00 -0.87204892249E+03  0.87204892249E+03  0.00000000000E+00 0.  1.
    9000010    2    1    2  501    0 -0.10252588119E+03 -0.42625420507E+03  0.60508582753E+03  0.12471851693E+04  0.99856786665E+03 0.  0.
   -9000010    2    1    2    0  503  0.10252588119E+03  0.42625420507E+03 -0.47843717100E+02  0.10541547861E+04  0.95747014997E+03 0.  0.
        -13    1    3    3    0    0  0.10039534832E+03 -0.57021888746E+03  0.75899837165E+03  0.95462419041E+03  0.10566000000E+00 0.  1.
         13    1    4    4    0    0  0.19791061508E+03  0.54280001904E+03  0.31731534570E+03  0.65915818436E+03  0.10566000000E+00 0. -1.
          4    1    3    3  501    0 -0.20292122951E+03  0.14396468239E+03 -0.15391254412E+03  0.29256097894E+03  0.00000000000E+00 0.  1.
         -4    1    4    4    0  503 -0.95384733893E+02 -0.11654581397E+03 -0.36515906280E+03  0.39499660171E+03  0.00000000000E+00 0. -1.
</event>
<event>
 8    1  0.7572579E-006  0.1060214E+04  0.7818608E-02  0.8720635E-01
         21   -1    0    0  501  502  0.00000000000E+00  0.00000000000E+00  0.20914259989E+04  0.20914259989E+04  0.00000000000E+00 0.  1.
         21   -1    0    0  502  503 -0.00000000000E+00 -0.00000000000E+00 -0.87405467450E+03  0.87405467450E+03  0.00000000000E+00 0.  1.
    9000010    2    1    2  501    0 -0.19420645677E+03 -0.30760953015E+03  0.15313984486E+04  0.18625882801E+04  0.99584844323E+03 0.  0.
   -9000010    2    1    2    0  503  0.19420645677E+03  0.30760953015E+03 -0.31402712425E+03  0.11028923933E+04  0.99268264085E+03 0.  0.
        -13    1    3    3    0    0  0.83838272448E+02 -0.45662473145E+03  0.14695283867E+04  0.15411192984E+04  0.10566000000E+00 0.  1.
         13    1    4    4    0    0  0.46638987684E+03  0.26970989789E+03  0.15383420289E+03  0.56029270866E+03  0.10566000000E+00 0. -1.
          4    1    3    3  501    0 -0.27804472922E+03  0.14901520130E+03  0.61870061921E+02  0.32146898175E+03  0.00000000000E+00 0.  1.
         -4    1    4    4    0  503 -0.27218342007E+03  0.37899632259E+02 -0.46786132714E+03  0.54259968459E+03  0.00000000000E+00 0. -1.
</event>
<event>
 8    1  0.7572579E-006  0.1039582E+04  0.7818608E-02  0.8742696E-01
         21   -1    0    0  503  502  0.00000000000E+00  0.00000000000E+00  0.45364006721E+03  0.45364006721E+03  0.00000000000E+00 0.  1.
         21   -1    0    0  501  503 -0.00000000000E+00 -0.00000000000E+00 -0.26866580893E+04  0.26866580893E+04  0.00000000000E+00 0.  1.
    9000010    2    1    2  501    0 -0.84510353302E+02 -0.16128789730E+03 -0.16915916687E+04  0.19855005403E+04  0.10235107407E+04 0.  0.
   -9000010    2    1    2    0  502  0.84510353302E+02  0.16128789730E+03 -0.54142635336E+03  0.11547976162E+04  0.10036230630E+04 0.  0.
        -13    1    3    3    0    0  0.40797348022E+03  0.17338111013E+03 -0.68219797823E+03  0.81357080981E+03  0.10566000000E+00 0.  1.
         13    1    4    4    0    0 -0.42550169361E+03  0.26152423426E+03 -0.28807198835E+03  0.57656924823E+03  0.10566000000E+00 0. -1.
          4    1    3    3  501    0 -0.49248383353E+03 -0.33466900743E+03 -0.10093936905E+04  0.11719297305E+04  0.00000000000E+00 0.  1.
         -4    1    4    4    0  502  0.51001204691E+03 -0.10023633696E+03 -0.25335436500E+03  0.57822836796E+03  0.00000000000E+00 0. -1.
</event>
<event>
 8    1  0.7572579E-006  0.1012660E+04  0.7818608E-02  0.8768093E-01
         21   -1    0    0  503  502  0.00000000000E+00  0.00000000000E+00  0.17944390532E+04  0.17944390532E+04  0.00000000000E+00 0.  1.
         21   -1    0    0  501  503 -0.00000000000E+00 -0.00000000000E+00 -0.63980902123E+03  0.63980902123E+03  0.00000000000E+00 0.  1.
    9000010    2    1    2  501    0 -0.82332717739E+02  0.96818745434E+02  0.14984391110E+03  0.10236865293E+04  0.10046533564E+04 0.  0.
   -9000010    2    1    2    0  502  0.82332717739E+02 -0.96818745434E+02  0.10047861208E+04  0.14105615451E+04  0.98180251483E+03 0.  0.
        -13    1    3    3    0    0  0.34552731357E+03 -0.27784718297E+03  0.82556307070E+02  0.45100303381E+03  0.10566000000E+00 0.  1.
         13    1    4    4    0    0 -0.39352042628E+03 -0.21449522773E+03  0.70676381551E+03  0.83688806342E+03  0.10566000000E+00 0. -1.
          4    1    3    3  501    0 -0.42786003131E+03  0.37466592840E+03  0.67287604034E+02  0.57268349544E+03  0.00000000000E+00 0.  1.
         -4    1    4    4    0  502  0.47585314402E+03  0.11767648230E+03  0.29802230534E+03  0.57367348173E+03  0.00000000000E+00 0. -1.
</event>
<event>
 8    1  0.7572579E-006  0.1007616E+04  0.7818608E-02  0.8767556E-01
         21   -1    0    0  503  502  0.00000000000E+00  0.00000000000E+00  0.24074032296E+04  0.24074032296E+04  0.00000000000E+00 0. -1.
         21   -1    0    0  501  503 -0.00000000000E+00 -0.00000000000E+00 -0.57107064427E+03  0.57107064427E+03  0.00000000000E+00 0. -1.
    9000010    2    1    2  501    0  0.83077785476E+02  0.14299285161E+03  0.15634148476E+03  0.10196723451E+04  0.99395178827E+03 0.  0.
   -9000010    2    1    2    0  502 -0.83077785476E+02 -0.14299285161E+03  0.16799911006E+04  0.19588015288E+04  0.99357156623E+03 0.  0.
        -13    1    3    3    0    0  0.33667425896E+03  0.47941250793E+03  0.75085442791E+02  0.59061302415E+03  0.10566000000E+00 0.  1.
         13    1    4    4    0    0  0.18691971872E+03 -0.50125250816E+03  0.11205949300E+04  0.12417431564E+04  0.10566000000E+00 0. -1.
          4    1    3    3  501    0 -0.25359647349E+03 -0.33641965632E+03  0.81256041970E+02  0.42905932093E+03  0.00000000000E+00 0.  1.
         -4    1    4    4    0  502 -0.26999750420E+03  0.35825965655E+03  0.55939617059E+03  0.71705837242E+03  0.00000000000E+00 0. -1.
</event>
<event>
 8    1  0.7572579E-006  0.1022533E+04  0.7818608E-02  0.8755487E-01
         21   -1    0    0  501  502  0.00000000000E+00  0.00000000000E+00  0.51974029360E+03  0.51974029360E+03  0.00000000000E+00 0.  1.
         21   -1    0    0  502  503 -0.00000000000E+00 -0.00000000000E+00 -0.20495914462E+04  0.20495914462E+04  0.00000000000E+00 0.  1.
    9000010    2    1    2  501    0 -0.10200533329E+03 -0.13361985887E+02 -0.97458677046E+03  0.14125841452E+04  0.10173450562E+04 0.  0.
   -9000010    2    1    2    0  503  0.10200533329E+03  0.13361985887E+02 -0.55526438213E+03  0.11567475946E+04  0.10095359493E+04 0.  0.
        -13    1    3    3    0    0  0.35827840185E+03 -0.12329230787E+03 -0.83856667462E+03  0.92019480838E+03  0.10566000000E+00 0.  1.
         13    1    4    4    0    0 -0.28797327653E+03  0.92649632618E+02 -0.67623147975E+03  0.74081143876E+03  0.10566000000E+00 0. -1.
          4    1    3    3  501    0 -0.46028373514E+03  0.10993032199E+03 -0.13602009584E+03  0.49238933681E+03  0.00000000000E+00 0.  1.
         -4    1    4    4    0  503  0.38997860982E+03 -0.79287646731E+02  0.12096709762E+03  0.41593615586E+03  0.00000000000E+00 0. -1.
</event>
<event>
 8    1  0.7572579E-006  0.1006563E+04  0.7818608E-02  0.8770141E-01
         21   -1    0    0  501  502  0.00000000000E+00  0.00000000000E+00  0.12074217347E+04  0.12074217347E+04  0.00000000000E+00 0. -1.
         21   -1    0    0  502  503 -0.00000000000E+00 -0.00000000000E+00 -0.10590053765E+04  0.10590053765E+04  0.00000000000E+00 0. -1.
    9000010    2    1    2  501    0  0.10095775356E+03  0.20916025733E+01 -0.44896919724E+03  0.11021537246E+04  0.10014852219E+04 0.  0.
   -9000010    2    1    2    0  503 -0.10095775356E+03 -0.20916025733E+01  0.59738555545E+03  0.11642733867E+04  0.99421636191E+03 0.  0.
        -13    1    3    3    0    0  0.52338139722E+03 -0.10840169114E+03 -0.38979257087E+03  0.66152647194E+03  0.10566000000E+00 0.  1.
         13    1    4    4    0    0  0.44032546058E+03  0.76985711782E+02  0.32851487647E+03  0.55473898932E+03  0.10566000000E+00 0. -1.
          4    1    3    3  501    0 -0.42242364366E+03  0.11049329371E+03 -0.59176626361E+02  0.44062725266E+03  0.00000000000E+00 0.  1.
         -4    1    4    4    0  503 -0.54128321414E+03 -0.79077314355E+02  0.26887067898E+03  0.60953439736E+03  0.00000000000E+00 0. -1.
</event>
<event>
 8    1  0.7572579E-006  0.1033394E+04  0.7818608E-02  0.8745636E-01
         21   -1    0    0  503  502  0.00000000000E+00  0.00000000000E+00  0.21497316883E+04  0.21497316883E+04  0.00000000000E+00 0.  1.
         21   -1    0    0  501  503 -0.00000000000E+00 -0.00000000000E+00 -0.70619513449E+03  0.70619513449E+03  0.00000000000E+00 0.  1.
    9000010    2    1    2  501    0 -0.22450067724E+03  0.76288755412E+02 -0.64868341579E+02  0.10274881594E+04  0.99764898023E+03 0.  0.
   -9000010    2    1    2    0  502  0.22450067724E+03 -0.76288755412E+02  0.15084048954E+04  0.18284386634E+04  0.10058240845E+04 0.  0.
        -13    1    3    3    0    0 -0.22621890255E+03  0.25888427124E+03 -0.47045734365E+03  0.58268875150E+03  0.10566000000E+00 0.  1.
         13    1    4    4    0    0 -0.29252447783E+03 -0.30923660912E+03  0.40358363539E+03  0.58658129229E+03  0.10566000000E+00 0. -1.
          4    1    3    3  501    0  0.17182253091E+01 -0.18259551583E+03  0.40558900207E+03  0.44479940794E+03  0.00000000000E+00 0.  1.
         -4    1    4    4    0  502  0.51702515507E+03  0.23294785371E+03  0.11048212600E+04  0.12418573711E+04  0.00000000000E+00 0. -1.
</event>
<event>
 8    1  0.7572579E-006  0.1059335E+04  0.7818608E-02  0.8746890E-01
         21   -1    0    0  503  502  0.00000000000E+00  0.00000000000E+00  0.85925734496E+03  0.85925734496E+03  0.00000000000E+00 0.  1.
         21   -1    0    0  501  503 -0.00000000000E+00 -0.00000000000E+00 -0.12293357279E+04  0.12293357279E+04  0.00000000000E+00 0.  1.
    9000010    2    1    2  501    0 -0.30744601833E+03 -0.17844590942E+03 -0.40232086944E+03  0.10287674293E+04  0.87757298552E+03 0.  0.
   -9000010    2    1    2    0  502  0.30744601833E+03  0.17844590942E+03  0.32242486536E+02  0.10598256435E+04  0.99791022637E+03 0.  0.
        -13    1    3    3    0    0  0.30314836498E+03 -0.13957155674E+03 -0.16762758814E+03  0.37346776315E+03  0.10566000000E+00 0.  1.
         13    1    4    4    0    0 -0.11842062057E+03 -0.35418154048E+03 -0.32193547733E+02  0.37483922243E+03  0.10566000000E+00 0. -1.
          4    1    3    3  501    0 -0.61059438331E+03 -0.38874352686E+02 -0.23469328130E+03  0.65529966619E+03  0.00000000000E+00 0.  1.
         -4    1    4    4    0  502  0.42586663889E+03  0.53262744991E+03  0.64436034269E+02  0.68498642105E+03  0.00000000000E+00 0. -1.
</event>
<event>
 8    1  0.7572579E-006  0.1108740E+04  0.7818608E-02  0.8683306E-01
         21   -1    0    0  503  502  0.00000000000E+00  0.00000000000E+00  0.18553394443E+04  0.18553394443E+04  0.00000000000E+00 0. -1.
         21   -1    0    0  501  503 -0.00000000000E+00 -0.00000000000E+00 -0.84870138832E+03  0.84870138832E+03  0.00000000000E+00 0. -1.
    9000010    2    1    2  501    0 -0.50604081590E+03  0.84788858202E+02 -0.15581994152E+03  0.10976124943E+04  0.95770918111E+03 0.  0.
   -9000010    2    1    2    0  502  0.50604081590E+03 -0.84788858202E+02  0.11624579975E+04  0.16064283383E+04  0.98287178841E+03 0.  0.
        -13    1    3    3    0    0 -0.55940322320E+03  0.40255991622E+03 -0.29109748013E+03  0.74814718229E+03  0.10566000000E+00 0.  1.
         13    1    4    4    0    0  0.75071489467E+03  0.14646500072E+03  0.71991980915E+03  0.10503853542E+04  0.10566000000E+00 0. -1.
          4    1    3    3  501    0  0.53362407299E+02 -0.31777105801E+03  0.13527753861E+03  0.34946531198E+03  0.00000000000E+00 0.  1.
         -4    1    4    4    0  502 -0.24467407877E+03 -0.23125385892E+03  0.44253818835E+03  0.55604298416E+03  0.00000000000E+00 0. -1.
</event>
<event>
 8    1  0.7572579E-006  0.1191007E+04  0.7818608E-02  0.8621061E-01
         21   -1    0    0  503  502  0.00000000000E+00  0.00000000000E+00  0.23580788378E+04  0.23580788378E+04  0.00000000000E+00 0.  1.
         21   -1    0    0  501  503 -0.00000000000E+00 -0.00000000000E+00 -0.13530420288E+04  0.13530420288E+04  0.00000000000E+00 0.  1.
    9000010    2    1    2  501    0 -0.60668766300E+03  0.18047668921E+03 -0.90215418750E+03  0.14625936993E+04  0.96159055499E+03 0.  0.
   -9000010    2    1    2    0  502  0.60668766300E+03 -0.18047668921E+03  0.19071909965E+04  0.22485271673E+04  0.10088880856E+04 0.  0.
        -13    1    3    3    0    0  0.22507843721E+03  0.22344305596E+03 -0.27888389803E+03  0.42233084412E+03  0.10566000000E+00 0.  1.
         13    1    4    4    0    0 -0.64890117071E+02 -0.44332224982E+03  0.53059533068E+03  0.69446148963E+03  0.10566000000E+00 0. -1.
          4    1    3    3  501    0 -0.83176610022E+03 -0.42966366744E+02 -0.62327028947E+03  0.10402628552E+04  0.00000000000E+00 0.  1.
         -4    1    4    4    0  502  0.67157778008E+03  0.26284556060E+03  0.13765956658E+04  0.15540656777E+04  0.00000000000E+00 0. -1.
</event>
<event>
 8    1  0.7572579E-006  0.1015542E+04  0.7818608E-02  0.8760241E-01
         21   -1    0    0  501  502  0.00000000000E+00  0.00000000000E+00  0.68391931636E+03  0.68391931636E+03  0.00000000000E+00 0. -1.
         21   -1    0    0  502  503 -0.00000000000E+00 -0.00000000000E+00 -0.17885831512E+04  0.17885831512E+04  0.00000000000E+00 0. -1.
    9000010    2    1    2  501    0  0.16035382163E+03 -0.56522950317E+01 -0.62114514265E+02  0.10174397996E+04  0.10027862367E+04 0.  0.
   -9000010    2    1    2    0  503 -0.16035382163E+03  0.56522950317E+01 -0.10425493206E+04  0.14550626679E+04  0.10022739073E+04 0.  0.
        -13    1    3    3    0    0  0.12678036767E+03 -0.35517969089E+03  0.32280919778E+03  0.49641883907E+03  0.10566000000E+00 0.  1.
         13    1    4    4    0    0 -0.52423875314E+03  0.20759440346E+03 -0.40704458165E+03  0.69541858564E+03  0.10566000000E+00 0. -1.
          4    1    3    3  501    0  0.33573453967E+02  0.34952739586E+03 -0.38492371204E+03  0.52102096058E+03  0.00000000000E+00 0.  1.
         -4    1    4    4    0  503  0.36388493151E+03 -0.20194210842E+03 -0.63550473892E+03  0.75964408227E+03  0.00000000000E+00 0. -1.
</event>
<event>
 8    1  0.7572579E-006  0.1015826E+04  0.7818608E-02  0.8762806E-01
         21   -1    0    0  501  502  0.00000000000E+00  0.00000000000E+00  0.20759427192E+04  0.20759427192E+04  0.00000000000E+00 0.  1.
         21   -1    0    0  502  503 -0.00000000000E+00 -0.00000000000E+00 -0.49430385076E+03  0.49430385076E+03  0.00000000000E+00 0.  1.
    9000010    2    1    2  501    0 -0.11986972914E+03 -0.95480102923E+02  0.90258545835E+03  0.13588828717E+04  0.10041996552E+04 0.  0.
   -9000010    2    1    2    0  503  0.11986972914E+03  0.95480102923E+02  0.67905341005E+03  0.12113636982E+04  0.99136434957E+03 0.  0.
        -13    1    3    3    0    0  0.24305589374E+03  0.26423739335E+03  0.74026015710E+03  0.82272880032E+03  0.10566000000E+00 0.  1.
         13    1    4    4    0    0  0.24270335940E+03 -0.33584932601E+03  0.63834470918E+03  0.76104117454E+03  0.10566000000E+00 0. -1.
          4    1    3    3  501    0 -0.36292562288E+03 -0.35971749627E+03  0.16232530126E+03  0.53615407142E+03  0.00000000000E+00 0.  1.
         -4    1    4    4    0  503 -0.12283363026E+03  0.43132942894E+03  0.40708700876E+02  0.45032252366E+03  0.00000000000E+00 0. -1.
</event>
<event>
 8    1  0.7572579E-006  0.1045242E+04  0.7818608E-02  0.8744571E-01
         21   -1    0    0  501  502  0.00000000000E+00  0.00000000000E+00  0.28264142406E+04  0.28264142406E+04  0.00000000000E+00 0. -1.
         21   -1    0    0  502  503 -0.00000000000E+00 -0.00000000000E+00 -0.38959999949E+03  0.38959999949E+03  0.00000000000E+00 0. -1.
    9000010    2    1    2  501    0  0.10901512471E+03  0.16466060702E+03  0.15656322488E+04  0.18553197102E+04  0.97570972926E+03 0.  0.
   -9000010    2    1    2    0  503 -0.10901512471E+03 -0.16466060702E+03  0.87118199234E+03  0.13606945299E+04  0.10264181053E+04 0.  0.
        -13    1    3    3    0    0  0.58941201062E+02  0.38004023592E+03  0.13483355804E+03  0.40753496247E+03  0.10566000000E+00 0.  1.
         13    1    4    4    0    0 -0.78025280861E+02 -0.50951029441E+03  0.11371389211E+03  0.52784424311E+03  0.10566000000E+00 0. -1.
          4    1    3    3  501    0  0.50073923647E+02 -0.21537962889E+03  0.14307986907E+04  0.14477847477E+04  0.00000000000E+00 0.  1.
         -4    1    4    4    0  503 -0.30989843848E+02  0.34484968739E+03  0.75746810023E+03  0.83285028678E+03  0.00000000000E+00 0. -1.
</event>
<event>
 7    1  0.7572579E-006  0.1057498E+04  0.7818608E-02  0.8897481E-01
         21   -1    0    0  501  502  0.00000000000E+00  0.00000000000E+00  0.99047550657E+03  0.99047550657E+03  0.00000000000E+00 0. -1.
         21   -1    0    0  502  503 -0.00000000000E+00 -0.00000000000E+00 -0.74429732286E+03  0.74429732286E+03  0.00000000000E+00 0. -1.
   -9000010    2    1    2    0  503 -0.86203890530E+02 -0.34987676089E+03  0.50011866803E+03  0.11697947023E+04  0.99421129786E+03 0.  0.
        -13    1    1    2    0    0 -0.28871556872E+02 -0.11123140080E+02  0.63527325796E+02  0.70661328378E+02  0.10566000000E+00 0.  1.
         13    1    3    3    0    0 -0.39748766884E+03 -0.49511245388E+03  0.52714337726E+03  0.82523508179E+03  0.10566000000E+00 0. -1.
          4    1    1    2  501    0  0.11507544740E+03  0.36099990097E+03 -0.31746781011E+03  0.49431679878E+03  0.00000000000E+00 0.  1.
         -4    1    3    3    0  503  0.31128377831E+03  0.14523569299E+03 -0.27024709227E+02  0.34455962048E+03  0.00000000000E+00 0. -1.
</event>
<event>
 8    1  0.7572579E-006  0.1042513E+04  0.7818608E-02  0.8736383E-01
         21   -1    0    0  503  502  0.00000000000E+00  0.00000000000E+00  0.23206222402E+04  0.23206222402E+04  0.00000000000E+00 0.  1.
         21   -1    0    0  501  503 -0.00000000000E+00 -0.00000000000E+00 -0.64131723908E+03  0.64131723908E+03  0.00000000000E+00 0.  1.
    9000010    2    1    2  501    0  0.26144011627E+03 -0.86279733329E+02  0.68179818971E+02  0.10447404959E+04  0.10055043954E+04 0.  0.
   -9000010    2    1    2    0  502 -0.26144011627E+03  0.86279733329E+02  0.16111251821E+04  0.19171989834E+04  0.10020641011E+04 0.  0.
        -13    1    3    3    0    0  0.60267490249E+02  0.34349660983E+03 -0.28728751322E+03  0.45183649450E+03  0.10566000000E+00 0.  1.
         13    1    4    4    0    0 -0.19704400463E+03  0.44338683921E+03  0.14331118880E+04  0.15130194724E+04  0.10566000000E+00 0. -1.
          4    1    3    3  501    0  0.20117262602E+03 -0.42977634316E+03  0.35546733219E+03  0.59290400138E+03  0.00000000000E+00 0.  1.
         -4    1    4    4    0  502 -0.64396111639E+02 -0.35710710588E+03  0.17801329410E+03  0.40417951104E+03  0.00000000000E+00 0. -1.
</event>
<event>
 8    1  0.7572579E-006  0.1000618E+04  0.7818608E-02  0.8778169E-01
         21   -1    0    0  501  502  0.00000000000E+00  0.00000000000E+00  0.86845903275E+03  0.86845903275E+03  0.00000000000E+00 0.  1.
         21   -1    0    0  502  503 -0.00000000000E+00 -0.00000000000E+00 -0.12408069141E+04  0.12408069141E+04  0.00000000000E+00 0.  1.
    9000010    2    1    2  501    0  0.65000238045E+02  0.58189581424E+01 -0.49888473330E+03  0.11180888399E+04  0.99848774936E+03 0.  0.
   -9000010    2    1    2    0  503 -0.65000238045E+02 -0.58189581424E+01  0.12653685191E+03  0.99117710697E+03  0.98089835929E+03 0.  0.
        -13    1    3    3    0    0  0.51197315543E+03  0.82793697596E+02 -0.39726327368E+03  0.65329122757E+03  0.10566000000E+00 0.  1.
         13    1    4    4    0    0 -0.33364028133E+03 -0.35187075341E+03  0.23650042878E+03  0.53950099945E+03  0.10566000000E+00 0. -1.
          4    1    3    3  501    0 -0.44697291739E+03 -0.76974739453E+02 -0.10162145962E+03  0.46479761235E+03  0.00000000000E+00 0.  1.
         -4    1    4    4    0  503  0.26864004329E+03  0.34605179526E+03 -0.10996357687E+03  0.45167610752E+03  0.00000000000E+00 0. -1.
</event>
<event>
 8    1  0.7572579E-006  0.1020172E+04  0.7818608E-02  0.8756327E-01
         21   -1    0    0  501  502  0.00000000000E+00  0.00000000000E+00  0.20299868483E+04  0.20299868483E+04  0.00000000000E+00 0. -1.
         21   -1    0    0  502  503 -0.00000000000E+00 -0.00000000000E+00 -0.73716441372E+03  0.73716441372E+03  0.00000000000E+00 0. -1.
    9000010    2    1    2  501    0 -0.22582846912E+03 -0.55353468704E+02  0.14120584196E+04  0.17420274412E+04  0.99332176136E+03 0.  0.
   -9000010    2    1    2    0  503  0.22582846912E+03  0.55353468704E+02 -0.11923598503E+03  0.10251238208E+04  0.99126138020E+03 0.  0.
        -13    1    3    3    0    0 -0.73905586197E+02 -0.14198168769E+02 -0.15224260985E+03  0.16982769823E+03  0.10566000000E+00 0.  1.
         13    1    4    4    0    0 -0.31698789838E+03  0.26963596676E+03 -0.14575299343E+03  0.44094084473E+03  0.10566000000E+00 0. -1.
          4    1    3    3  501    0 -0.15192288292E+03 -0.41155299936E+02  0.15643010294E+04  0.15721997430E+04  0.00000000000E+00 0.  1.
         -4    1    4    4    0  503  0.54281636750E+03 -0.21428249806E+03  0.26517008402E+02  0.58418297607E+03  0.00000000000E+00 0. -1.
</event>
<event>
 8    1  0.7572579E-006  0.1031884E+04  0.7818608E-02  0.8745387E-01
         21   -1    0    0  501  502  0.00000000000E+00  0.00000000000E+00  0.14932060315E+04  0.14932060315E+04  0.00000000000E+00 0. -1.
         21   -1    0    0  502  503 -0.00000000000E+00 -0.00000000000E+00 -0.77400882690E+03  0.77400882690E+03  0.00000000000E+00 0. -1.
    9000010    2    1    2  501    0 -0.20873523686E+03  0.68740439639E+02  0.67900968119E+03  0.12345484498E+04  0.10073530069E+04 0.  0.
   -9000010    2    1    2    0  503  0.20873523686E+03 -0.68740439639E+02  0.40187523358E+02  0.10326664086E+04  0.10082109041E+04 0.  0.
        -13    1    3    3    0    0 -0.87673851631E+02  0.53770250553E+03  0.32192105501E+03  0.63280634126E+03  0.10566000000E+00 0.  1.
         13    1    4    4    0    0  0.14176958783E+02 -0.15594215727E+03 -0.46161414243E+03  0.48744904372E+03  0.10566000000E+00 0. -1.
          4    1    3    3  501    0 -0.12106138522E+03 -0.46896206589E+03  0.35708862618E+03  0.60174210854E+03  0.00000000000E+00 0.  1.
         -4    1    4    4    0  503  0.19455827807E+03  0.87201717635E+02  0.50180166578E+03  0.54521736483E+03  0.00000000000E+00 0. -1.
</event>
<event>
 8    1  0.7572579E-006  0.1083755E+04  0.7818608E-02  0.8705136E-01
         21   -1    0    0  501  502  0.00000000000E+00  0.00000000000E+00  0.91322121439E+03  0.91322121439E+03  0.00000000000E+00 0.  1.
         21   -1    0    0  502  503 -0.00000000000E+00 -0.00000000000E+00 -0.13998684364E+04  0.13998684364E+04  0.00000000000E+00 0.  1.
    9000010    2    1    2  501    0 -0.29221187365E+02 -0.36853926827E+03  0.12984801977E+03  0.10662569608E+04  0.99164929700E+03 0.  0.
   -9000010    2    1    2    0  503  0.29221187365E+02  0.36853926827E+03 -0.61649524176E+03  0.12468326899E+04  0.10187493821E+04 0.  0.
        -13    1    3    3    0    0  0.78569260949E+02 -0.15674605116E+03 -0.42657855314E+03  0.46120681530E+03  0.10566000000E+00 0.  1.
         13    1    4    4    0    0 -0.29441635944E+03  0.31304065320E+03  0.11513497821E+03  0.44489495124E+03  0.10566000000E+00 0. -1.
          4    1    3    3  501    0 -0.10779044831E+03 -0.21179321711E+03  0.55642657291E+03  0.60505014553E+03  0.00000000000E+00 0.  1.
         -4    1    4    4    0  503  0.32363754681E+03  0.55498615067E+02 -0.73163021997E+03  0.80193773870E+03  0.00000000000E+00 0. -1.
</event>
<event>
 8    1  0.7572579E-006  0.1040382E+04  0.7818608E-02  0.8738908E-01
         21   -1    0    0  501  502  0.00000000000E+00  0.00000000000E+00  0.14321703174E+04  0.14321703174E+04  0.00000000000E+00 0.  1.
         21   -1    0    0  502  503 -0.00000000000E+00 -0.00000000000E+00 -0.10596643645E+04  0.10596643645E+04  0.00000000000E+00 0.  1.
    9000010    2    1    2  501    0 -0.37939592297E+02 -0.28421854601E+03  0.85865583589E+03  0.13489564548E+04  0.10000870351E+04 0.  0.
   -9000010    2    1    2    0  503  0.37939592297E+02  0.28421854601E+03 -0.48614988296E+03  0.11428782271E+04  0.99378535847E+03 0.  0.
        -13    1    3    3    0    0  0.12735837229E+03  0.24475151408E+03  0.72946899811E+03  0.77990287152E+03  0.10566000000E+00 0.  1.
         13    1    4    4    0    0 -0.39974760940E+03  0.10078614914E+03  0.63040523113E+02  0.41704929900E+03  0.10566000000E+00 0. -1.
          4    1    3    3  501    0 -0.16529796459E+03 -0.52897006009E+03  0.12918683778E+03  0.56905358327E+03  0.00000000000E+00 0.  1.
         -4    1    4    4    0  503  0.43768720169E+03  0.18343239688E+03 -0.54919040607E+03  0.72582892810E+03  0.00000000000E+00 0. -1.
</event>
<event>
 8    1  0.7572579E-006  0.1177174E+04  0.7818608E-02  0.8627794E-01
         21   -1    0    0  501  502  0.00000000000E+00  0.00000000000E+00  0.18654701343E+04  0.18654701343E+04  0.00000000000E+00 0. -1.
         21   -1    0    0  502  503 -0.00000000000E+00 -0.00000000000E+00 -0.88347668774E+03  0.88347668774E+03  0.00000000000E+00 0.  1.
    9000010    2    1    2  501    0  0.42959485254E+03  0.46382036419E+03 -0.84513367334E+02  0.11604964539E+04  0.96949906793E+03 0.  0.
   -9000010    2    1    2    0  503 -0.42959485254E+03 -0.46382036419E+03  0.10665068139E+04  0.15884503681E+04  0.99300388736E+03 0.  0.
        -13    1    3    3    0    0  0.43239118362E+03 -0.20413198870E+03  0.44401003351E+02  0.48021189568E+03  0.10566000000E+00 0.  1.
         13    1    4    4    0    0  0.17068198628E+03 -0.52698057114E+03  0.65551938608E+03  0.85822289616E+03  0.10566000000E+00 0. -1.
          4    1    3    3  501    0 -0.27963310829E+01  0.66795235289E+03 -0.12891437068E+03  0.68028455823E+03  0.00000000000E+00 0.  1.
         -4    1    4    4    0  503 -0.60027683882E+03  0.63160206957E+02  0.41098742778E+03  0.73022747193E+03  0.00000000000E+00 0. -1.
</event>
<event>
 8    1  0.7572579E-006  0.1000695E+04  0.7818608E-02  0.8779529E-01
         21   -1    0    0  501  502  0.00000000000E+00  0.00000000000E+00  0.12699881460E+04  0.12699881460E+04  0.00000000000E+00 0. -1.
         21   -1    0    0  502  503 -0.00000000000E+00 -0.00000000000E+00 -0.13700988407E+04  0.13700988407E+04  0.00000000000E+00 0. -1.
    9000010    2    1    2  501    0 -0.81626620921E+01  0.51619499094E+02  0.82381128610E+03  0.12780948048E+04  0.97577153745E+03 0.  0.
   -9000010    2    1    2    0  503  0.81626620921E+01 -0.51619499094E+02 -0.92392198082E+03  0.13619921819E+04  0.99932961288E+03 0.  0.
        -13    1    3    3    0    0  0.47486786999E+03  0.81293683236E+02  0.31345039222E+03  0.57476892438E+03  0.10566000000E+00 0.  1.
         13    1    4    4    0    0 -0.31531159035E+02 -0.35183355643E+03  0.36344071969E+02  0.35510838930E+03  0.10566000000E+00 0. -1.
          4    1    3    3  501    0 -0.48303053208E+03 -0.29674184142E+02  0.51036089387E+03  0.70332588046E+03  0.00000000000E+00 0.  1.
         -4    1    4    4    0  503  0.39693821127E+02  0.30021405734E+03 -0.96026605279E+03  0.10068837926E+04  0.00000000000E+00 0. -1.
</event>
<event>
 8    1  0.7572579E-006  0.1089143E+04  0.7818608E-02  0.8698937E-01
         21   -1    0    0  501  502  0.00000000000E+00  0.00000000000E+00  0.10018493689E+04  0.10018493689E+04  0.00000000000E+00 0. -1.
         21   -1    0    0  502  503 -0.00000000000E+00 -0.00000000000E+00 -0.16578004874E+04  0.16578004874E+04  0.00000000000E+00 0. -1.
    9000010    2    1    2  501    0 -0.14104403384E+03 -0.38190588863E+03  0.39938548381E+03  0.11430855944E+04  0.99065149481E+03 0.  0.
   -9000010    2    1    2    0  503  0.14104403384E+03  0.38190588863E+03 -0.10553366023E+04  0.15165642619E+04  0.10101912141E+04 0.  0.
        -13    1    3    3    0    0 -0.34278617562E+03 -0.63792594724E+03  0.37679516344E+03  0.81634948565E+03  0.10566000000E+00 0.  1.
         13    1    4    4    0    0  0.44935579407E+03  0.40087878546E+03 -0.10466843010E+04  0.12075481222E+04  0.10566000000E+00 0. -1.
          4    1    3    3  501    0  0.20174214178E+03  0.25602005861E+03  0.22590320366E+02  0.32673610874E+03  0.00000000000E+00 0.  1.
         -4    1    4    4    0  503 -0.30831176023E+03 -0.18972896827E+02 -0.86523013284E+01  0.30901613975E+03  0.00000000000E+00 0. -1.
</event>
<event>
 8    1  0.7572579E-006  0.1036431E+04  0.7818608E-02  0.8741461E-01
         21   -1    0    0  503  502  0.00000000000E+00  0.00000000000E+00  0.14840990508E+04  0.14840990508E+04  0.00000000000E+00 0. -1.
         21   -1    0    0  501  503 -0.00000000000E+00 -0.00000000000E+00 -0.81455756105E+03  0.81455756105E+03  0.00000000000E+00 0. -1.
    9000010    2    1    2  501    0 -0.25993872457E+03 -0.13870670845E+03  0.72057146377E+03  0.12609699234E+04  0.99197490986E+03 0.  0.
   -9000010    2    1    2    0  502  0.25993872457E+03  0.13870670845E+03 -0.51029974012E+02  0.10376866885E+04  0.99367092827E+03 0.  0.
        -13    1    3    3    0    0 -0.34622742585E+03 -0.49028832063E+03  0.66312934056E+03  0.89442529103E+03  0.10566000000E+00 0.  1.
         13    1    4    4    0    0 -0.31346270043E+03  0.28554877039E+03  0.79866444306E+02  0.43148073529E+03  0.10566000000E+00 0. -1.
          4    1    3    3  501    0  0.86288701281E+02  0.35158161218E+03  0.57442123211E+02  0.36654463236E+03  0.00000000000E+00 0.  1.
         -4    1    4    4    0  502  0.57340142500E+03 -0.14684206194E+03 -0.13089641832E+03  0.60620595318E+03  0.00000000000E+00 0. -1.
</event>
<event>
 8    1  0.7572579E-006  0.1056627E+04  0.7818608E-02  0.8725478E-01
         21   -1    0    0  503  502  0.00000000000E+00  0.00000000000E+00  0.11135045200E+04  0.11135045200E+04  0.00000000000E+00 0. -1.
         21   -1    0    0  501  503 -0.00000000000E+00 -0.00000000000E+00 -0.10208153710E+04  0.10208153710E+04  0.00000000000E+00 0. -1.
    9000010    2    1    2  501    0  0.10300036246E+03 -0.28095210484E+03 -0.13130158313E+03  0.10542124593E+04  0.10022877051E+04 0.  0.
   -9000010    2    1    2    0  502 -0.10300036246E+03  0.28095210484E+03  0.22399073214E+03  0.10801074316E+04  0.10133691607E+04 0.  0.
        -13    1    3    3    0    0  0.15057142252E+03 -0.42328118046E+03 -0.49036295214E+03  0.66505228893E+03  0.10566000000E+00 0.  1.
         13    1    4    4    0    0  0.31292676003E+03  0.25790190930E+03 -0.22818331257E+03  0.46530010452E+03  0.10566000000E+00 0. -1.
          4    1    3    3  501    0 -0.47571060062E+02  0.14232907562E+03  0.35906136901E+03  0.38916017042E+03  0.00000000000E+00 0.  1.
         -4    1    4    4    0  502 -0.41592712249E+03  0.23050195535E+02  0.45217404471E+03  0.61480732709E+03  0.00000000000E+00 0. -1.
</event>
<event>
 8    1  0.7572579E-006  0.1057969E+04  0.7818608E-02  0.8724176E-01
         21   -1    0    0  503  502  0.00000000000E+00  0.00000000000E+00  0.15970310295E+04  0.15970310295E+04  0.00000000000E+00 0. -1.
         21   -1    0    0  501  503 -0.00000000000E+00 -0.00000000000E+00 -0.70124499955E+03  0.70124499955E+03  0.00000000000E+00 0. -1.
    9000010    2    1    2  501    0  0.12004850514E+03  0.31238191060E+03  0.33057528812E+03  0.10987925374E+04  0.99301103598E+03 0.  0.
   -9000010    2    1    2    0  502 -0.12004850514E+03 -0.31238191060E+03  0.56521074185E+03  0.11994834916E+04  0.10036450380E+04 0.  0.
        -13    1    3    3    0    0  0.49702693684E+03 -0.19311541451E+02  0.32954162088E+03  0.59666272100E+03  0.10566000000E+00 0.  1.
         13    1    4    4    0    0  0.57192257404E+02  0.24898424342E+03  0.55470726734E+03  0.61070800828E+03  0.10566000000E+00 0. -1.
          4    1    3    3  501    0 -0.37697843170E+03  0.33169345205E+03  0.10336672404E+01  0.50212981645E+03  0.00000000000E+00 0.  1.
         -4    1    4    4    0  502 -0.17724076254E+03 -0.56136615402E+03  0.10503474507E+02  0.58877548332E+03  0.00000000000E+00 0. -1.
</event>
<event>
 8    1  0.7572579E-006  0.1038765E+04  0.7818608E-02  0.8740580E-01
         21   -1    0    0  503  502  0.00000000000E+00  0.00000000000E+00  0.59830662532E+03  0.59830662532E+03  0.00000000000E+00 0. -1.
         21   -1    0    0  501  503 -0.00000000000E+00 -0.00000000000E+00 -0.22553116519E+04  0.22553116519E+04  0.00000000000E+00 0. -1.
    9000010    2    1    2  501    0 -0.25270483313E+03 -0.64072491611E+02 -0.14779214361E+04  0.18064562690E+04  0.10055185049E+04 0.  0.
   -9000010    2    1    2    0  502  0.25270483313E+03  0.64072491611E+02 -0.17908359042E+03  0.10471620082E+04  0.99825463791E+03 0.  0.
        -13    1    3    3    0    0 -0.30807973996E+03 -0.32155538092E+02 -0.16206946241E+04  0.16500297514E+04  0.10566000000E+00 0.  1.
         13    1    4    4    0    0 -0.15220798432E+03 -0.70904733155E+02 -0.49073930134E+03  0.51867121061E+03  0.10566000000E+00 0. -1.
          4    1    3    3  501    0  0.55374906835E+02 -0.31916953519E+02  0.14277318794E+03  0.15642651765E+03  0.00000000000E+00 0.  1.
         -4    1    4    4    0  502  0.40491281745E+03  0.13497722477E+03  0.31165571092E+03  0.52849079754E+03  0.00000000000E+00 0. -1.
</event>
<event>
 8    1  0.7572579E-006  0.1091288E+04  0.7818608E-02  0.8696300E-01
         21   -1    0    0  503  502  0.00000000000E+00  0.00000000000E+00  0.85020281791E+03  0.85020281791E+03  0.00000000000E+00 0.  1.
         21   -1    0    0  501  503 -0.00000000000E+00 -0.00000000000E+00 -0.14297893327E+04  0.14297893327E+04  0.00000000000E+00 0.  1.
    9000010    2    1    2  501    0  0.19530508704E+03 -0.35864583988E+03 -0.84154563546E+02  0.10945282007E+04  0.10119975672E+04 0.  0.
   -9000010    2    1    2    0  502 -0.19530508704E+03  0.35864583988E+03 -0.49543195125E+03  0.11854639500E+04  0.99654455136E+03 0.  0.
        -13    1    3    3    0    0  0.79347128230E+02 -0.67536646235E+03 -0.24246071847E+03  0.72194392884E+03  0.10566000000E+00 0.  1.
         13    1    4    4    0    0 -0.58455126589E+03  0.32173580754E+03 -0.20374900692E+03  0.69765878572E+03  0.10566000000E+00 0. -1.
          4    1    3    3  501    0  0.11595795881E+03  0.31672062247E+03  0.15830615493E+03  0.37258427181E+03  0.00000000000E+00 0.  1.
         -4    1    4    4    0  502  0.38924617885E+03  0.36910032335E+02 -0.29168294433E+03  0.48780516423E+03  0.00000000000E+00 0. -1.
</event>
<event>
 8    1  0.7572579E-006  0.1011517E+04  0.7818608E-02  0.8823048E-01
         21   -1    0    0  503  502  0.00000000000E+00  0.00000000000E+00  0.86775920172E+03  0.86775920172E+03  0.00000000000E+00 0. -1.
         21   -1    0    0  501  503 -0.00000000000E+00 -0.00000000000E+00 -0.15300357883E+04  0.15300357883E+04  0.00000000000E+00 0. -1.
    9000010    2    1    2  501    0 -0.57421261788E+02  0.20079929042E+03 -0.10520049839E+04  0.13137957528E+04  0.75876691911E+03 0.  0.
   -9000010    2    1    2    0  502  0.57421261788E+02 -0.20079929042E+03  0.38972839729E+03  0.10839992373E+04  0.98972145899E+03 0.  0.
        -13    1    3    3    0    0  0.25645492153E+03 -0.13921030750E+03 -0.23424554028E+03  0.37419195715E+03  0.10566000000E+00 0.  1.
         13    1    4    4    0    0 -0.33055731172E+03 -0.34541455557E+02 -0.17762981465E+03  0.37684693272E+03  0.10566000000E+00 0. -1.
          4    1    3    3  501    0 -0.31387618332E+03  0.34000959792E+03 -0.81775944361E+03  0.93960379562E+03  0.00000000000E+00 0.  1.
         -4    1    4    4    0  502  0.38797857351E+03 -0.16625783486E+03  0.56735821194E+03  0.70715230454E+03  0.00000000000E+00 0. -1.
</event>
<event>
 8    1  0.7572579E-006  0.1018630E+04  0.7818608E-02  0.8758062E-01
         21   -1    0    0  503  502  0.00000000000E+00  0.00000000000E+00  0.27780922233E+04  0.27780922233E+04  0.00000000000E+00 0.  1.
         21   -1    0    0  501  503 -0.00000000000E+00 -0.00000000000E+00 -0.51097007165E+03  0.51097007165E+03  0.00000000000E+00 0.  1.
    9000010    2    1    2  501    0 -0.43937767639E+02  0.10075080511E+03  0.27808330527E+03  0.10559060601E+04  0.10126825914E+04 0.  0.
   -9000010    2    1    2    0  502  0.43937767639E+02 -0.10075080511E+03  0.19890388464E+04  0.22331562349E+04  0.10092720073E+04 0.  0.
        -13    1    3    3    0    0 -0.17427455187E+03  0.42982472869E+03  0.46403540102E+03  0.65608671789E+03  0.10566000000E+00 0.  1.
         13    1    4    4    0    0 -0.11860331241E+03  0.40516705000E+03  0.12750747139E+04  0.13431465376E+04  0.10566000000E+00 0. -1.
          4    1    3    3  501    0  0.13033678423E+03 -0.32907392358E+03 -0.18595209574E+03  0.39981934222E+03  0.00000000000E+00 0.  1.
         -4    1    4    4    0  502  0.16254108005E+03 -0.50591785512E+03  0.71396413248E+03  0.89000969730E+03  0.00000000000E+00 0. -1.
</event>
<event>
 8    1  0.7572579E-006  0.1039725E+04  0.7818608E-02  0.8738973E-01
         21   -1    0    0  503  502  0.00000000000E+00  0.00000000000E+00  0.24596422488E+04  0.24596422488E+04  0.00000000000E+00 0.  1.
         21   -1    0    0  501  503 -0.00000000000E+00 -0.00000000000E+00 -0.47885235790E+03  0.47885235790E+03  0.00000000000E+00 0.  1.
    9000010    2    1    2  501    0  0.25157051548E+03  0.11174708096E+03  0.55927387847E+03  0.11773200580E+04  0.99875928703E+03 0.  0.
   -9000010    2    1    2    0  502 -0.25157051548E+03 -0.11174708096E+03  0.14215160125E+04  0.17611745487E+04  0.10026230015E+04 0.  0.
        -13    1    3    3    0    0 -0.16224533694E+03  0.45146569704E+03  0.14753370273E+03  0.50190739143E+03  0.10566000000E+00 0.  1.
         13    1    4    4    0    0 -0.22602710034E+03 -0.54729755625E+03  0.94409698070E+03  0.11144245086E+04  0.10566000000E+00 0. -1.
          4    1    3    3  501    0  0.41381585242E+03 -0.33971861608E+03  0.41174017574E+03  0.67541266655E+03  0.00000000000E+00 0.  1.
         -4    1    4    4    0  502 -0.25543415141E+02  0.43555047529E+03  0.47741903176E+03  0.64675004018E+03  0.00000000000E+00 0. -1.
</event>
<event>
 8    1  0.7572579E-006  0.1035608E+04  0.7818608E-02  0.8746451E-01
         21   -1    0    0  501  502  0.00000000000E+00  0.00000000000E+00  0.19558299760E+04  0.19558299760E+04  0.00000000000E+00 0.  1.
         21   -1    0    0  502  503 -0.00000000000E+00 -0.00000000000E+00 -0.77109327603E+03  0.77109327603E+03  0.00000000000E+00 0.  1.
    9000010    2    1    2  501    0 -0.85714980375E+02  0.15607893399E+03  0.13384388055E+04  0.16799717855E+04  0.99958945200E+03 0.  0.
   -9000010    2    1    2    0  503  0.85714980375E+02 -0.15607893399E+03 -0.15370210553E+03  0.10469514665E+04  0.10201839758E+04 0.  0.
        -13    1    3    3    0    0 -0.23654527610E+03 -0.31957265904E+03  0.10024135169E+04  0.10783845428E+04  0.10566000000E+00 0.  1.
         13    1    4    4    0    0  0.31251126204E+03 -0.45153658098E+03  0.14675419857E+03  0.56840599823E+03  0.10566000000E+00 0. -1.
          4    1    3    3  501    0  0.15083029573E+03  0.47565159303E+03  0.33602528861E+03  0.60158724276E+03  0.00000000000E+00 0.  1.
         -4    1    4    4    0  503 -0.22679628167E+03  0.29545764699E+03 -0.30045630410E+03  0.47854546828E+03  0.00000000000E+00 0. -1.
</event>
<event>
 8    1  0.7572579E-006  0.1060418E+04  0.7818608E-02  0.8722478E-01
         21   -1    0    0  501  502  0.00000000000E+00  0.00000000000E+00  0.11370109992E+04  0.11370109992E+04  0.00000000000E+00 0. -1.
         21   -1    0    0  502  503 -0.00000000000E+00 -0.00000000000E+00 -0.14221901722E+04  0.14221901722E+04  0.00000000000E+00 0. -1.
    9000010    2    1    2  501    0 -0.32933679182E+03 -0.12423052033E+03  0.57333354676E+03  0.11948218708E+04  0.98741683324E+03 0.  0.
   -9000010    2    1    2    0  503  0.32933679182E+03  0.12423052033E+03 -0.85851271974E+03  0.13643793006E+04  0.10002953770E+04 0.  0.
        -13    1    3    3    0    0 -0.58701735827E+03 -0.22409768578E+03  0.85472885503E+02  0.63412520609E+03  0.10566000000E+00 0.  1.
         13    1    4    4    0    0 -0.13379849873E+03 -0.12123397047E+03 -0.81906970683E+03  0.83873411143E+03  0.10566000000E+00 0. -1.
          4    1    3    3  501    0  0.25768056645E+03  0.99867165443E+02  0.48786066126E+03  0.56069666475E+03  0.00000000000E+00 0.  1.
         -4    1    4    4    0  503  0.46313529055E+03  0.24546449080E+03 -0.39443012911E+02  0.52564518914E+03  0.00000000000E+00 0. -1.
</event>
<event>
 8    1  0.7572579E-006  0.1002608E+04  0.7818608E-02  0.8774470E-01
         21   -1    0    0  501  502  0.00000000000E+00  0.00000000000E+00  0.79109498294E+03  0.79109498294E+03  0.00000000000E+00 0.  1.
         21   -1    0    0  502  503 -0.00000000000E+00 -0.00000000000E+00 -0.13844001955E+04  0.13844001955E+04  0.00000000000E+00 0.  1.
    9000010    2    1    2  501    0 -0.40150818480E+02  0.63370559006E+02  0.30449301798E+02  0.10030707396E+04  0.99979789596E+03 0.  0.
   -9000010    2    1    2    0  503  0.40150818480E+02 -0.63370559006E+02 -0.62375451437E+03  0.11724244388E+04  0.98988961738E+03 0.  0.
        -13    1    3    3    0    0 -0.43168955314E+03  0.11455500685E+03  0.28818105693E+03  0.53153273900E+03  0.10566000000E+00 0.  1.
         13    1    4    4    0    0 -0.18619148095E+03  0.42471384783E+02 -0.82797763831E+03  0.84971646259E+03  0.10566000000E+00 0. -1.
          4    1    3    3  501    0  0.39153873466E+03 -0.51184447849E+02 -0.25773175513E+03  0.47153800064E+03  0.00000000000E+00 0.  1.
         -4    1    4    4    0  503  0.22634229943E+03 -0.10584194379E+03  0.20422312393E+03  0.32270797623E+03  0.00000000000E+00 0. -1.
</event>
<event>
 8    1  0.7572579E-006  0.1042915E+04  0.7818608E-02  0.8736524E-01
         21   -1    0    0  501  502  0.00000000000E+00  0.00000000000E+00  0.76449914387E+03  0.76449914387E+03  0.00000000000E+00 0. -1.
         21   -1    0    0  502  503 -0.00000000000E+00 -0.00000000000E+00 -0.15626701692E+04  0.15626701692E+04  0.00000000000E+00 0. -1.
    9000010    2    1    2  501    0 -0.29823989299E+03 -0.42457279147E+01 -0.42557328284E+02  0.10437830669E+04  0.99935324312E+03 0.  0.
   -9000010    2    1    2    0  503  0.29823989299E+03  0.42457279147E+01 -0.75561369703E+03  0.12833862462E+04  0.99356083747E+03 0.  0.
        -13    1    3    3    0    0  0.11601395279E+03  0.20723514009E+03 -0.39453283329E+03  0.46050169189E+03  0.10566000000E+00 0.  1.
         13    1    4    4    0    0  0.65980217418E+03 -0.63137090697E+02 -0.41442616619E+03  0.78171238934E+03  0.10566000000E+00 0. -1.
          4    1    3    3  501    0 -0.41425384578E+03 -0.21148086800E+03  0.35197550500E+03  0.58328137498E+03  0.00000000000E+00 0.  1.
         -4    1    4    4    0  503 -0.36156228119E+03  0.67382818611E+02 -0.34118753084E+03  0.50167385683E+03  0.00000000000E+00 0. -1.
</event>
<event>
 8    1  0.7572579E-006  0.1133039E+04  0.7818608E-02  0.8665014E-01
         21   -1    0    0  503  502  0.00000000000E+00  0.00000000000E+00  0.19065468276E+04  0.19065468276E+04  0.00000000000E+00 0. -1.
         21   -1    0    0  501  503 -0.00000000000E+00 -0.00000000000E+00 -0.78205795242E+03  0.78205795242E+03  0.00000000000E+00 0.  1.
    9000010    2    1    2  501    0 -0.21726067546E+03 -0.45831046504E+03  0.27598971830E+02  0.11333749283E+04  0.10131763624E+04 0.  0.
   -9000010    2    1    2    0  502  0.21726067546E+03  0.45831046504E+03  0.10968899033E+04  0.15552298517E+04  0.97893909321E+03 0.  0.
        -13    1    3    3    0    0 -0.86315016060E+02  0.31011245361E+03 -0.11327078711E+03  0.34124814763E+03  0.10566000000E+00 0.  1.
         13    1    4    4    0    0 -0.26060174703E+03  0.67393407488E+02 -0.29449262700E+02  0.27078111486E+03  0.10566000000E+00 0. -1.
          4    1    3    3  501    0 -0.13094565940E+03 -0.76842291865E+03  0.14086975894E+03  0.79212678064E+03  0.00000000000E+00 0.  1.
         -4    1    4    4    0  502  0.47786242249E+03  0.39091705755E+03  0.11263391660E+04  0.12844487369E+04  0.00000000000E+00 0. -1.
</event>
<event>
 8    1  0.7572579E-006  0.1043138E+04  0.7818608E-02  0.8736468E-01
         21   -1    0    0  501  502  0.00000000000E+00  0.00000000000E+00  0.76479533868E+03  0.76479533868E+03  0.00000000000E+00 0. -1.
         21   -1    0    0  502  503 -0.00000000000E+00 -0.00000000000E+00 -0.15632412259E+04  0.15632412259E+04  0.00000000000E+00 0. -1.
    9000010    2    1    2  501    0  0.19774592700E+03 -0.20744097279E+03 -0.41071202927E+02  0.10439460322E+04  0.10029961444E+04 0.  0.
   -9000010    2    1    2    0  503 -0.19774592700E+03  0.20744097279E+03 -0.75737468425E+03  0.12840905323E+04  0.99656252886E+03 0.  0.
        -13    1    3    3    0    0  0.11640957729E+03 -0.17337048177E+03  0.47579820711E+03  0.51960798558E+03  0.10566000000E+00 0.  1.
         13    1    4    4    0    0  0.14869298169E+03 -0.20341628018E+03  0.10091755582E+03  0.27142614112E+03  0.10566000000E+00 0. -1.
          4    1    3    3  501    0  0.81336349713E+02 -0.34070491018E+02 -0.51686941003E+03  0.52433804666E+03  0.00000000000E+00 0.  1.
         -4    1    4    4    0  503 -0.34643890869E+03  0.41085725296E+03 -0.85829224007E+03  0.10126643912E+04  0.00000000000E+00 0. -1.
</event>
<event>
 8    1  0.9927084E-006  0.1015464E+04  0.7818608E-02  0.8761823E-01
         21   -1    0    0  501  502  0.00000000000E+00  0.00000000000E+00  0.73282662594E+03  0.73282662594E+03  0.00000000000E+00 0. -1.
         21   -1    0    0  502  503 -0.00000000000E+00 -0.00000000000E+00 -0.19624688902E+04  0.19624688902E+04  0.00000000000E+00 0. -1.
    9000010    2    1    2  501    0 -0.18744346197E+02 -0.14389027599E+03  0.10680867139E+03  0.10210657334E+04  0.10050429730E+04 0.  0.
   -9000010    2    1    2    0  503  0.18744346197E+02  0.14389027599E+03 -0.13364509356E+04  0.16742297828E+04  0.99794213265E+03 0.  0.
        -13    1    3    3    0    0 -0.50509907295E+03 -0.28670921616E+02  0.12424528688E+03  0.52094529244E+03  0.10566000000E+00 0.  1.
         13    1    4    4    0    0  0.16521625069E+03  0.53044845452E+03 -0.98837574954E+03  0.11338247686E+04  0.10566000000E+00 0. -1.
          4    1    3    3  501    0  0.48635472675E+03 -0.11521935437E+03 -0.17436615482E+02  0.50012044091E+03  0.00000000000E+00 0.  1.
         -4    1    4    4    0  503 -0.14647190449E+03 -0.38655817853E+03 -0.34807518610E+03  0.54040501420E+03  0.00000000000E+00 0. -1.
</event>
<event>
 8    1  0.7572579E-006  0.1027817E+04  0.7818608E-02  0.8750233E-01
         21   -1    0    0  503  502  0.00000000000E+00  0.00000000000E+00  0.11136879266E+04  0.11136879266E+04  0.00000000000E+00 0.  1.
         21   -1    0    0  501  503 -0.00000000000E+00 -0.00000000000E+00 -0.15049773892E+04  0.15049773892E+04  0.00000000000E+00 0.  1.
    9000010    2    1    2  501    0 -0.28678980318E+02  0.14027233385E+03  0.60472414586E+03  0.11874240904E+04  0.10118230410E+04 0.  0.
   -9000010    2    1    2    0  502  0.28678980318E+02 -0.14027233385E+03 -0.99601360841E+03  0.14312412255E+04  0.10177964068E+04 0.  0.
        -13    1    3    3    0    0  0.32872806264E+03 -0.10583174953E+03 -0.10024797786E+03  0.35960000919E+03  0.10566000000E+00 0.  1.
         13    1    4    4    0    0 -0.26943559357E+03 -0.19052381932E+03  0.57715159866E+02  0.33500136664E+03  0.10566000000E+00 0. -1.
          4    1    3    3  501    0 -0.35740704296E+03  0.24610408338E+03  0.70497212372E+03  0.82782408121E+03  0.00000000000E+00 0.  1.
         -4    1    4    4    0  502  0.29811457389E+03  0.50251485470E+02 -0.10537287683E+04  0.10962398588E+04  0.00000000000E+00 0. -1.
</event>
<event>
 8    1  0.7572579E-006  0.1024381E+04  0.7818608E-02  0.8754460E-01
         21   -1    0    0  503  502  0.00000000000E+00  0.00000000000E+00  0.13698550964E+04  0.13698550964E+04  0.00000000000E+00 0.  1.
         21   -1    0    0  501  503 -0.00000000000E+00 -0.00000000000E+00 -0.83453824956E+03  0.83453824956E+03  0.00000000000E+00 0.  1.
    9000010    2    1    2  501    0  0.19882891149E+02  0.18190217031E+03 -0.64667540338E+02  0.10264202859E+04  0.10079052453E+04 0.  0.
   -9000010    2    1    2    0  502 -0.19882891149E+02 -0.18190217031E+03  0.59998438717E+03  0.11779730601E+04  0.99707348601E+03 0.  0.
        -13    1    3    3    0    0  0.25306875466E+03  0.18859603529E+03 -0.46564044688E+03  0.56252404042E+03  0.10566000000E+00 0.  1.
         13    1    4    4    0    0  0.22931903222E+03 -0.53401029247E+03  0.31608431935E+03  0.66156142504E+03  0.10566000000E+00 0. -1.
          4    1    3    3  501    0 -0.23318586352E+03 -0.66938649804E+01  0.40097290654E+03  0.46389624546E+03  0.00000000000E+00 0.  1.
         -4    1    4    4    0  502 -0.24920192337E+03  0.35210812215E+03  0.28390006782E+03  0.51641163504E+03  0.00000000000E+00 0. -1.
</event>
<event>
 8    1  0.7572579E-006  0.1057389E+04  0.7818608E-02  0.8725965E-01
         21   -1    0    0  501  502  0.00000000000E+00  0.00000000000E+00  0.14082879240E+04  0.14082879240E+04  0.00000000000E+00 0.  1.
         21   -1    0    0  502  503 -0.00000000000E+00 -0.00000000000E+00 -0.10098323197E+04  0.10098323197E+04  0.00000000000E+00 0.  1.
    9000010    2    1    2  501    0  0.12403787015E+03 -0.24395420132E+03  0.77456436298E+03  0.13107334730E+04  0.10213585263E+04 0.  0.
   -9000010    2    1    2    0  503 -0.12403787015E+03  0.24395420132E+03 -0.37610875865E+03  0.11073867706E+04  0.10049619972E+04 0.  0.
        -13    1    3    3    0    0  0.55917329099E+03 -0.44560936362E+02  0.53629653395E+03  0.77606341873E+03  0.10566000000E+00 0.  1.
         13    1    4    4    0    0  0.17983454418E+03  0.50730256482E+03  0.25811386064E+02  0.53885303596E+03  0.10566000000E+00 0. -1.
          4    1    3    3  501    0 -0.43513542084E+03 -0.19939326496E+03  0.23826782902E+03  0.53467005426E+03  0.00000000000E+00 0.  1.
         -4    1    4    4    0  503 -0.30387241433E+03 -0.26334836350E+03 -0.40192014471E+03  0.56853373468E+03  0.00000000000E+00 0. -1.
</event>
<event>
 8    1  0.7572579E-006  0.1073417E+04  0.7818608E-02  0.8715224E-01
         21   -1    0    0  503  502  0.00000000000E+00  0.00000000000E+00  0.89118651738E+03  0.89118651738E+03  0.00000000000E+00 0.  1.
         21   -1    0    0  501  503 -0.00000000000E+00 -0.00000000000E+00 -0.13595136945E+04  0.13595136945E+04  0.00000000000E+00 0.  1.
    9000010    2    1    2  501    0  0.82193100948E+02  0.29195843237E+03 -0.54116279076E+03  0.11748145629E+04  0.99766560486E+03 0.  0.
   -9000010    2    1    2    0  502 -0.82193100948E+02 -0.29195843237E+03  0.72835613663E+02  0.10758856489E+04  0.10296744490E+04 0.  0.
        -13    1    3    3    0    0  0.39810554250E+03 -0.17225787693E+03 -0.65058827613E+02  0.43862679051E+03  0.10566000000E+00 0.  1.
         13    1    4    4    0    0  0.19573861493E+03 -0.44456060097E+03  0.39335087353E+03  0.62503812218E+03  0.10566000000E+00 0. -1.
          4    1    3    3  501    0 -0.31591244155E+03  0.46421630931E+03 -0.47610396315E+03  0.73618777243E+03  0.00000000000E+00 0.  1.
         -4    1    4    4    0  502 -0.27793171588E+03  0.15260216860E+03 -0.32051525987E+03  0.45084752673E+03  0.00000000000E+00 0. -1.
</event>
<event>
 8    1  0.7572579E-006  0.1012911E+04  0.7818608E-02  0.8822881E-01
         21   -1    0    0  503  502  0.00000000000E+00  0.00000000000E+00  0.97017688316E+03  0.97017688316E+03  0.00000000000E+00 0.  1.
         21   -1    0    0  501  503 -0.00000000000E+00 -0.00000000000E+00 -0.83566046190E+03  0.83566046190E+03  0.00000000000E+00 0.  1.
    9000010    2    1    2  501    0  0.12054213238E+03 -0.11418133762E+03  0.20047110506E+01  0.78429562858E+03  0.76651668645E+03 0.  0.
   -9000010    2    1    2    0  502 -0.12054213238E+03  0.11418133762E+03  0.13251171021E+03  0.10215417165E+04  0.99920985865E+03 0.  0.
        -13    1    3    3    0    0 -0.26583847542E+03  0.11207827212E+03  0.13313308718E+03  0.31773584023E+03  0.10566000000E+00 0.  1.
         13    1    4    4    0    0  0.24609360488E+03  0.12248425561E+03  0.45605230581E+03  0.53249241500E+03  0.10566000000E+00 0. -1.
          4    1    3    3  501    0  0.38638060780E+03 -0.22625960974E+03 -0.13112837613E+03  0.46655978836E+03  0.00000000000E+00 0.  1.
         -4    1    4    4    0  502 -0.36663573726E+03 -0.83029179868E+01 -0.32354059559E+03  0.48904930148E+03  0.00000000000E+00 0. -1.
</event>
<event>
 8    1  0.7572579E-006  0.1059243E+04  0.7818608E-02  0.8723985E-01
         21   -1    0    0  501  502  0.00000000000E+00  0.00000000000E+00  0.24488650979E+04  0.24488650979E+04  0.00000000000E+00 0. -1.
         21   -1    0    0  502  503 -0.00000000000E+00 -0.00000000000E+00 -0.55900231759E+03  0.55900231759E+03  0.00000000000E+00 0. -1.
    9000010    2    1    2  501    0  0.28063282954E+03 -0.71602896905E+02  0.15976770345E+04  0.19090639672E+04  0.10040276713E+04 0.  0.
   -9000010    2    1    2    0  503 -0.28063282954E+03  0.71602896905E+02  0.29218574583E+03  0.10988034482E+04  0.10188791626E+04 0.  0.
        -13    1    3    3    0    0  0.65808264191E+03 -0.87636447632E+01  0.92633063519E+03  0.11363265472E+04  0.10566000000E+00 0.  1.
         13    1    4    4    0    0 -0.51495944527E+03  0.29662801135E+03  0.44240875015E+03  0.74087577958E+03  0.10566000000E+00 0. -1.
          4    1    3    3  501    0 -0.37744981236E+03 -0.62839252142E+02  0.67134639930E+03  0.77273742003E+03  0.00000000000E+00 0.  1.
         -4    1    4    4    0  503  0.23432661572E+03 -0.22502511445E+03 -0.15022300432E+03  0.35792766867E+03  0.00000000000E+00 0. -1.
</event>
<event>
 8    1  0.7572579E-006  0.1067618E+04  0.7818608E-02  0.8717739E-01
         21   -1    0    0  503  502  0.00000000000E+00  0.00000000000E+00  0.10630391960E+04  0.10630391960E+04  0.00000000000E+00 0.  1.
         21   -1    0    0  501  503 -0.00000000000E+00 -0.00000000000E+00 -0.11578214732E+04  0.11578214732E+04  0.00000000000E+00 0.  1.
    9000010    2    1    2  501    0  0.25888036280E+03  0.20529740299E+03  0.28708967596E+03  0.10870028040E+04  0.99498168224E+03 0.  0.
   -9000010    2    1    2    0  502 -0.25888036280E+03 -0.20529740299E+03 -0.38187195315E+03  0.11338578652E+04  0.10152051043E+04 0.  0.
        -13    1    3    3    0    0  0.32108318423E+03  0.45894923232E+03 -0.14818747079E+03  0.57938618098E+03  0.10566000000E+00 0.  1.
         13    1    4    4    0    0 -0.62162780090E+03 -0.12797267802E+03 -0.41993157420E+03  0.76101292193E+03  0.10566000000E+00 0. -1.
          4    1    3    3  501    0 -0.62202821430E+02 -0.25365182933E+03  0.43527714674E+03  0.50761662305E+03  0.00000000000E+00 0.  1.
         -4    1    4    4    0  502  0.36274743810E+03 -0.77324724974E+02  0.38059621052E+02  0.37284494323E+03  0.00000000000E+00 0. -1.
</event>
<event>
 8    1  0.7572579E-006  0.1026655E+04  0.7818608E-02  0.8757436E-01
         21   -1    0    0  503  502  0.00000000000E+00  0.00000000000E+00  0.15054690845E+04  0.15054690845E+04  0.00000000000E+00 0.  1.
         21   -1    0    0  501  503 -0.00000000000E+00 -0.00000000000E+00 -0.22218778995E+04  0.22218778995E+04  0.00000000000E+00 0.  1.
    9000010    2    1    2  501    0 -0.86010198207E+02  0.85086146919E+02 -0.19097997269E+04  0.21531161426E+04  0.98688232330E+03 0.  0.
   -9000010    2    1    2    0  502  0.86010198207E+02 -0.85086146919E+02  0.11933909118E+04  0.15742308414E+04  0.10195015777E+04 0.  0.
        -13    1    3    3    0    0 -0.18137434811E+03  0.39812737081E+03 -0.17200964534E+04  0.17748616503E+04  0.10566000000E+00 0.  1.
         13    1    4    4    0    0 -0.34077786289E+03  0.20914548594E+03  0.18534917719E+03  0.44071046592E+03  0.10566000000E+00 0. -1.
          4    1    3    3  501    0  0.95364149903E+02 -0.31304122389E+03 -0.18970327343E+03  0.37825449223E+03  0.00000000000E+00 0.  1.
         -4    1    4    4    0  502  0.42678806110E+03 -0.29423163286E+03  0.10080417346E+04  0.11335203755E+04  0.00000000000E+00 0. -1.
</event>
<event>
 8    1  0.7572579E-006  0.1040079E+04  0.7818608E-02  0.8737887E-01
         21   -1    0    0  503  502  0.00000000000E+00  0.00000000000E+00  0.20100093841E+04  0.20100093841E+04  0.00000000000E+00 0. -1.
         21   -1    0    0  501  503 -0.00000000000E+00 -0.00000000000E+00 -0.14883113279E+04  0.14883113279E+04  0.00000000000E+00 0. -1.
    9000010    2    1    2  501    0 -0.23177865798E+03  0.18012383529E+03 -0.11368477195E+04  0.15406338690E+04  0.99747884128E+03 0.  0.
   -9000010    2    1    2    0  502  0.23177865798E+03 -0.18012383529E+03  0.16585457757E+04  0.19576868429E+04  0.99779644339E+03 0.  0.
        -13    1    3    3    0    0 -0.51306687485E+03 -0.21371277174E+03 -0.60581354572E+03  0.82214404469E+03  0.10566000000E+00 0.  1.
         13    1    4    4    0    0 -0.33613302220E+03  0.15616970334E+02  0.22890199371E+03  0.40697104597E+03  0.10566000000E+00 0. -1.
          4    1    3    3  501    0  0.28128821688E+03  0.39383660703E+03 -0.53103417377E+03  0.71848982436E+03  0.00000000000E+00 0.  1.
         -4    1    4    4    0  502  0.56791168017E+03 -0.19574080563E+03  0.14296437820E+04  0.15507157969E+04  0.00000000000E+00 0. -1.
</event>
<event>
 8    1  0.7572579E-006  0.1048348E+04  0.7818608E-02  0.8732609E-01
         21   -1    0    0  501  502  0.00000000000E+00  0.00000000000E+00  0.88016470313E+03  0.88016470313E+03  0.00000000000E+00 0.  1.
         21   -1    0    0  502  503 -0.00000000000E+00 -0.00000000000E+00 -0.13336951698E+04  0.13336951698E+04  0.00000000000E+00 0.  1.
    9000010    2    1    2  501    0 -0.27576330834E+03  0.73464167174E+02 -0.52558935051E+03  0.11727221014E+04  0.10087569457E+04 0.  0.
   -9000010    2    1    2    0  503  0.27576330834E+03 -0.73464167174E+02  0.72058883841E+02  0.10411377716E+04  0.99866560496E+03 0.  0.
        -13    1    3    3    0    0 -0.22037467785E+03 -0.42941628398E+03 -0.45239727100E+03  0.66153355588E+03  0.10566000000E+00 0.  1.
         13    1    4    4    0    0  0.75164667865E+02  0.10194550514E+03 -0.44325841131E+03  0.46099961353E+03  0.10566000000E+00 0. -1.
          4    1    3    3  501    0 -0.55388630489E+02  0.50288045115E+03 -0.73192079514E+02  0.51118854549E+03  0.00000000000E+00 0.  1.
         -4    1    4    4    0  503  0.20059864048E+03 -0.17540967232E+03  0.51531729515E+03  0.58013815802E+03  0.00000000000E+00 0. -1.
</event>
<event>
 8    1  0.7572579E-006  0.1037953E+04  0.7818608E-02  0.8745536E-01
         21   -1    0    0  503  502  0.00000000000E+00  0.00000000000E+00  0.25299584101E+04  0.25299584101E+04  0.00000000000E+00 0.  1.
         21   -1    0    0  501  503 -0.00000000000E+00 -0.00000000000E+00 -0.71322021908E+03  0.71322021908E+03  0.00000000000E+00 0.  1.
    9000010    2    1    2  501    0 -0.41338195514E+01 -0.14556327663E+03 -0.13281848439E+03  0.10464167994E+04  0.10276875071E+04 0.  0.
   -9000010    2    1    2    0  502  0.41338195514E+01  0.14556327663E+03  0.19495566754E+04  0.21967618298E+04  0.10018909873E+04 0.  0.
        -13    1    3    3    0    0 -0.27970448372E+03  0.22077480861E+03 -0.38386427097E+03  0.52376321370E+03  0.10566000000E+00 0.  1.
         13    1    4    4    0    0  0.32625252099E+03  0.28928521323E+03  0.17235264081E+04  0.17778273067E+04  0.10566000000E+00 0. -1.
          4    1    3    3  501    0  0.27557066417E+03 -0.36633808524E+03  0.25104578658E+03  0.52265358566E+03  0.00000000000E+00 0.  1.
         -4    1    4    4    0  502 -0.32211870144E+03 -0.14372193660E+03  0.22603026732E+03  0.41893452307E+03  0.00000000000E+00 0. -1.
</event>
<event>
 8    1  0.7572579E-006  0.1032260E+04  0.7818608E-02  0.8745525E-01
         21   -1    0    0  501  502  0.00000000000E+00  0.00000000000E+00  0.21511613408E+04  0.21511613408E+04  0.00000000000E+00 0.  1.
         21   -1    0    0  502  503 -0.00000000000E+00 -0.00000000000E+00 -0.53489661088E+03  0.53489661088E+03  0.00000000000E+00 0.  1.
    9000010    2    1    2  501    0 -0.29600072704E+03 -0.47573843948E+02  0.11808821391E+04  0.15684527353E+04  0.98776599229E+03 0.  0.
   -9000010    2    1    2    0  503  0.29600072704E+03  0.47573843948E+02  0.43538259081E+03  0.11176052163E+04  0.98468457799E+03 0.  0.
        -13    1    3    3    0    0 -0.60070071122E+03  0.10200057920E+03  0.43402165598E+03  0.74807771765E+03  0.10566000000E+00 0.  1.
         13    1    4    4    0    0  0.72497568448E+02 -0.45340443896E+03  0.85797365115E+02  0.46711099508E+03  0.10566000000E+00 0. -1.
          4    1    3    3  501    0  0.30469998418E+03 -0.14957442315E+03  0.74686048309E+03  0.82037501768E+03  0.00000000000E+00 0.  1.
         -4    1    4    4    0  503  0.22350315859E+03  0.50097828291E+03  0.34958522569E+03  0.65049422124E+03  0.00000000000E+00 0. -1.
</event>
<event>
 8    1  0.7572579E-006  0.1001938E+04  0.7818608E-02  0.8775443E-01
         21   -1    0    0  501  502  0.00000000000E+00  0.00000000000E+00  0.12095826263E+04  0.12095826263E+04  0.00000000000E+00 0. -1.
         21   -1    0    0  502  503 -0.00000000000E+00 -0.00000000000E+00 -0.87295137540E+03  0.87295137540E+03  0.00000000000E+00 0. -1.
    9000010    2    1    2  501    0  0.75689005629E+02 -0.64787544506E+02  0.42425147694E+03  0.10880578159E+04  0.99697253899E+03 0.  0.
   -9000010    2    1    2    0  503 -0.75689005629E+02  0.64787544506E+02 -0.87620226004E+02  0.99447618586E+03  0.98558577950E+03 0.  0.
        -13    1    3    3    0    0  0.35972692866E+03  0.34250007011E+03  0.14065837386E+03  0.51623110186E+03  0.10566000000E+00 0.  1.
         13    1    4    4    0    0 -0.18873923291E+03 -0.30267428018E+03 -0.37267500987E+03  0.51586906484E+03  0.10566000000E+00 0. -1.
          4    1    3    3  501    0 -0.28403792303E+03 -0.40728761462E+03  0.28359310308E+03  0.57182671401E+03  0.00000000000E+00 0.  1.
         -4    1    4    4    0  503  0.11305022728E+03  0.36746182468E+03  0.28505478387E+03  0.47860712102E+03  0.00000000000E+00 0. -1.
</event>
<event>
 8    1  0.7572579E-006  0.1027020E+04  0.7818608E-02  0.8761173E-01
         21   -1    0    0  501  502  0.00000000000E+00  0.00000000000E+00  0.16347249552E+04  0.16347249552E+04  0.00000000000E+00 0.  1.
         21   -1    0    0  502  503 -0.00000000000E+00 -0.00000000000E+00 -0.17034251679E+04  0.17034251679E+04  0.00000000000E+00 0.  1.
    9000010    2    1    2  501    0 -0.15787529958E+03 -0.70035262189E+02  0.12996907736E+04  0.16564919004E+04  0.10123930861E+04 0.  0.
   -9000010    2    1    2    0  503  0.15787529958E+03  0.70035262189E+02 -0.13683909863E+04  0.16816582228E+04  0.96210755040E+03 0.  0.
        -13    1    3    3    0    0 -0.20738330919E+02 -0.35313938762E+03  0.37543680883E+02  0.35573451421E+03  0.10566000000E+00 0.  1.
         13    1    4    4    0    0  0.35589293873E+03  0.43504621836E+03 -0.80155000303E+03  0.97898284687E+03  0.10566000000E+00 0. -1.
          4    1    3    3  501    0 -0.13713696866E+03  0.28310412543E+03  0.12621470927E+04  0.13007573862E+04  0.00000000000E+00 0.  1.
         -4    1    4    4    0  503 -0.19801763914E+03 -0.36501095617E+03 -0.56684098330E+03  0.70267537589E+03  0.00000000000E+00 0. -1.
</event>
<event>
 8    1  0.7572579E-006  0.1033164E+04  0.7818608E-02  0.8749610E-01
         21   -1    0    0  503  502  0.00000000000E+00  0.00000000000E+00  0.11876591860E+04  0.11876591860E+04  0.00000000000E+00 0.  1.
         21   -1    0    0  501  503 -0.00000000000E+00 -0.00000000000E+00 -0.98831238986E+03  0.98831238986E+03  0.00000000000E+00 0.  1.
    9000010    2    1    2  501    0  0.10790499084E+03  0.13047018538E+03 -0.26533595196E+03  0.10431173857E+04  0.99449723815E+03 0.  0.
   -9000010    2    1    2    0  502 -0.10790499084E+03 -0.13047018538E+03  0.46468274809E+03  0.11328541901E+04  0.10191970385E+04 0.  0.
        -13    1    3    3    0    0  0.39400201084E+03  0.35410521736E+03 -0.39148120721E+03  0.65869995922E+03  0.10566000000E+00 0.  1.
         13    1    4    4    0    0  0.42301412575E+03 -0.10959002851E+02  0.40440124014E+03  0.58532164193E+03  0.10566000000E+00 0. -1.
          4    1    3    3  501    0 -0.28609702000E+03 -0.22363503198E+03  0.12614525526E+03  0.38441742651E+03  0.00000000000E+00 0.  1.
         -4    1    4    4    0  502 -0.53091911659E+03 -0.11951118253E+03  0.60281507950E+02  0.54753254818E+03  0.00000000000E+00 0. -1.
</event>
<event>
 8    1  0.7572579E-006  0.1062311E+04  0.7818608E-02  0.8731041E-01
         21   -1    0    0  503  502  0.00000000000E+00  0.00000000000E+00  0.28501808701E+04  0.28501808701E+04  0.00000000000E+00 0. -1.
         21   -1    0    0  501  503 -0.00000000000E+00 -0.00000000000E+00 -0.40533072453E+03  0.40533072453E+03  0.00000000000E+00 0. -1.
    9000010    2    1    2  501    0 -0.99699741375E+02  0.15832103866E+03  0.80762249387E+03  0.13344507410E+04  0.10457050721E+04 0.  0.
   -9000010    2    1    2    0  502  0.99699741375E+02 -0.15832103866E+03  0.16372276517E+04  0.19210608536E+04  0.98739801000E+03 0.  0.
        -13    1    3    3    0    0  0.43611286603E+03  0.42426355284E+02  0.11857535760E+03  0.45393232329E+03  0.10566000000E+00 0.  1.
         13    1    4    4    0    0 -0.19186579478E+03 -0.20467502971E+03  0.24586057973E+02  0.28161824587E+03  0.10566000000E+00 0. -1.
          4    1    3    3  501    0 -0.53581260740E+03  0.11589468337E+03  0.68904713628E+03  0.88051841769E+03  0.00000000000E+00 0.  1.
         -4    1    4    4    0  502  0.29156553615E+03  0.46353991057E+02  0.16126415937E+04  0.16394426077E+04  0.00000000000E+00 0. -1.
</event>
<event>
 8    1  0.7572579E-006  0.1057651E+04  0.7818608E-02  0.8730859E-01
         21   -1    0    0  501  502  0.00000000000E+00  0.00000000000E+00  0.93327379184E+03  0.93327379184E+03  0.00000000000E+00 0. -1.
         21   -1    0    0  502  503 -0.00000000000E+00 -0.00000000000E+00 -0.11582277403E+04  0.11582277403E+04  0.00000000000E+00 0. -1.
    9000010    2    1    2  501    0  0.49871430285E+01  0.16693061794E+03 -0.62213984346E+02  0.10594795118E+04  0.10443828577E+04 0.  0.
   -9000010    2    1    2    0  503 -0.49871430285E+01 -0.16693061794E+03 -0.16273996408E+03  0.10320220203E+04  0.10053330053E+04 0.  0.
        -13    1    3    3    0    0 -0.98495362680E+02 -0.11044047788E+03 -0.50533876348E+03  0.52656026499E+03  0.10566000000E+00 0.  1.
         13    1    4    4    0    0 -0.32346624878E+03 -0.29776330795E+03 -0.41548032802E+03  0.60491099825E+03  0.10566000000E+00 0. -1.
          4    1    3    3  501    0  0.10348250571E+03  0.27737109582E+03  0.44312477913E+03  0.53291924685E+03  0.00000000000E+00 0.  1.
         -4    1    4    4    0  503  0.31847910575E+03  0.13083269001E+03  0.25274036394E+03  0.42711102203E+03  0.00000000000E+00 0. -1.
</event>
<event>
 8    1  0.7572579E-006  0.1017560E+04  0.7818608E-02  0.8762531E-01
         21   -1    0    0  503  502  0.00000000000E+00  0.00000000000E+00  0.61751015462E+03  0.61751015462E+03  0.00000000000E+00 0. -1.
         21   -1    0    0  501  503 -0.00000000000E+00 -0.00000000000E+00 -0.16523863530E+04  0.16523863530E+04  0.00000000000E+00 0. -1.
    9000010    2    1    2  501    0 -0.92869432617E+02  0.97327730378E+02 -0.57961832175E+03  0.11551371724E+04  0.99009447505E+03 0.  0.
   -9000010    2    1    2    0  502  0.92869432617E+02 -0.97327730378E+02 -0.45525787661E+03  0.11147593352E+04  0.10086283868E+04 0.  0.
        -13    1    3    3    0    0 -0.27174254325E+03 -0.21301844575E+03 -0.69729293812E+03  0.77809917155E+03  0.10566000000E+00 0.  1.
         13    1    4    4    0    0 -0.17427941106E+03 -0.24963845725E+03  0.21809372481E+03  0.37450975478E+03  0.10566000000E+00 0. -1.
          4    1    3    3  501    0  0.17887311063E+03  0.31034617613E+03  0.11767461637E+03  0.37703800085E+03  0.00000000000E+00 0.  1.
         -4    1    4    4    0  502  0.26714884368E+03  0.15231072688E+03 -0.67335160142E+03  0.74024958044E+03  0.00000000000E+00 0. -1.
</event>
<event>
 8    1  0.7572579E-006  0.1006573E+04  0.7818608E-02  0.8771013E-01
         21   -1    0    0  501  502  0.00000000000E+00  0.00000000000E+00  0.13441070542E+04  0.13441070542E+04  0.00000000000E+00 0. -1.
         21   -1    0    0  502  503 -0.00000000000E+00 -0.00000000000E+00 -0.80519193333E+03  0.80519193333E+03  0.00000000000E+00 0. -1.
    9000010    2    1    2  501    0 -0.23660282516E+03  0.17262785478E+02 -0.21517556105E+02  0.10068033882E+04  0.97821835840E+03 0.  0.
   -9000010    2    1    2    0  503  0.23660282516E+03 -0.17262785478E+02  0.56043267694E+03  0.11424955992E+04  0.96691908052E+03 0.  0.
        -13    1    3    3    0    0 -0.60453847965E+03  0.35616100791E+02 -0.13669940803E+03  0.62082366203E+03  0.10566000000E+00 0.  1.
         13    1    4    4    0    0  0.43777478604E+03 -0.24168060120E+03  0.65732907746E+03  0.82591634172E+03  0.10566000000E+00 0. -1.
          4    1    3    3  501    0  0.36793565450E+03 -0.18353315313E+02  0.11518185193E+03  0.38597972621E+03  0.00000000000E+00 0.  1.
         -4    1    4    4    0  503 -0.20117196088E+03  0.22441781573E+03 -0.96896400523E+02  0.31657925752E+03  0.00000000000E+00 0. -1.
</event>
<event>
 8    1  0.7572579E-006  0.1031757E+04  0.7818608E-02  0.8748931E-01
         21   -1    0    0  501  502  0.00000000000E+00  0.00000000000E+00  0.22531128460E+04  0.22531128460E+04  0.00000000000E+00 0. -1.
         21   -1    0    0  502  503 -0.00000000000E+00 -0.00000000000E+00 -0.62372034150E+03  0.62372034150E+03  0.00000000000E+00 0. -1.
    9000010    2    1    2  501    0  0.17597885983E+03 -0.59685420570E+02  0.94331666581E+02  0.10360599133E+04  0.10148846102E+04 0.  0.
   -9000010    2    1    2    0  503 -0.17597885983E+03  0.59685420570E+02  0.15350608380E+04  0.18407732743E+04  0.99875100127E+03 0.  0.
        -13    1    3    3    0    0 -0.30286970988E+03 -0.33526273239E+03 -0.75474680135E+02  0.45806942640E+03  0.10566000000E+00 0.  1.
         13    1    4    4    0    0  0.38798850101E+03  0.15405303175E+03  0.44704697101E+03  0.61165220425E+03  0.10566000000E+00 0. -1.
          4    1    3    3  501    0  0.47884856971E+03  0.27557731182E+03  0.16980634672E+03  0.57799048686E+03  0.00000000000E+00 0.  1.
         -4    1    4    4    0  503 -0.56396736084E+03 -0.94367611176E+02  0.10880138670E+04  0.12291210700E+04  0.00000000000E+00 0. -1.
</event>
<event>
 8    1  0.7572579E-006  0.1064859E+04  0.7818608E-02  0.8715960E-01
         21   -1    0    0  501  502  0.00000000000E+00  0.00000000000E+00  0.33381479310E+04  0.33381479310E+04  0.00000000000E+00 0. -1.
         21   -1    0    0  502  503 -0.00000000000E+00 -0.00000000000E+00 -0.45307061485E+03  0.45307061485E+03  0.00000000000E+00 0. -1.
    9000010    2    1    2  501    0 -0.10952082144E+03 -0.35504281987E+03  0.49397650119E+03  0.11737220540E+04  0.99777776191E+03 0.  0.
   -9000010    2    1    2    0  503  0.10952082144E+03  0.35504281987E+03  0.23911008150E+04  0.26174964918E+04  0.99793514971E+03 0.  0.
        -13    1    3    3    0    0  0.12374431761E+03  0.80826339834E+02  0.64111153055E+03  0.65792823250E+03  0.10566000000E+00 0.  1.
         13    1    4    4    0    0  0.19309908002E+03  0.68741005774E+03  0.14579790043E+04  0.16234292810E+04  0.10566000000E+00 0. -1.
          4    1    3    3  501    0 -0.23326513905E+03 -0.43586915971E+03 -0.14713502936E+03  0.51579382155E+03  0.00000000000E+00 0.  1.
         -4    1    4    4    0  503 -0.83578258582E+02 -0.33236723786E+03  0.93312181066E+03  0.99406721083E+03  0.00000000000E+00 0. -1.
</event>
<event>
 8    1  0.7572579E-006  0.1066574E+04  0.7818608E-02  0.8714881E-01
         21   -1    0    0  503  502  0.00000000000E+00  0.00000000000E+00  0.16087707566E+04  0.16087707566E+04  0.00000000000E+00 0. -1.
         21   -1    0    0  501  503 -0.00000000000E+00 -0.00000000000E+00 -0.11248082589E+04  0.11248082589E+04  0.00000000000E+00 0. -1.
    9000010    2    1    2  501    0  0.17027356306E+02  0.35885479331E+03 -0.59241639324E+03  0.12182663631E+04  0.10020723800E+04 0.  0.
   -9000010    2    1    2    0  502 -0.17027356306E+02 -0.35885479331E+03  0.10763788909E+04  0.15153126524E+04  0.10042480889E+04 0.  0.
        -13    1    3    3    0    0  0.33250269123E+03  0.29986539580E+03  0.96707387135E+02  0.45807163759E+03  0.10566000000E+00 0.  1.
         13    1    4    4    0    0  0.31700995789E+03 -0.22078518767E+03  0.68709028517E+01  0.38637887231E+03  0.10566000000E+00 0. -1.
          4    1    3    3  501    0 -0.31547533492E+03  0.58989397506E+02 -0.68912378038E+03  0.76019472547E+03  0.00000000000E+00 0.  1.
         -4    1    4    4    0  502 -0.33403731419E+03 -0.13806960564E+03  0.10695079881E+04  0.11289337801E+04  0.00000000000E+00 0. -1.
</event>
<event>
 8    1  0.7572579E-006  0.1077061E+04  0.7818608E-02  0.8712020E-01
         21   -1    0    0  503  502  0.00000000000E+00  0.00000000000E+00  0.19610714747E+04  0.19610714747E+04  0.00000000000E+00 0. -1.
         21   -1    0    0  501  503 -0.00000000000E+00 -0.00000000000E+00 -0.60698331514E+03  0.60698331514E+03  0.00000000000E+00 0. -1.
    9000010    2    1    2  501    0  0.37950464902E+03  0.17272258331E+03  0.39116495135E+03  0.11458924685E+04  0.99307736895E+03 0.  0.
   -9000010    2    1    2    0  502 -0.37950464902E+03 -0.17272258331E+03  0.96292320818E+03  0.14221623213E+04  0.95993108815E+03 0.  0.
        -13    1    3    3    0    0  0.32670509900E+03  0.41050608437E+03 -0.15567927076E+03  0.54725452353E+03  0.10566000000E+00 0.  1.
         13    1    4    4    0    0  0.28478507452E+03 -0.12214787241E+02  0.56116792858E+03  0.62941337365E+03  0.10566000000E+00 0. -1.
          4    1    3    3  501    0  0.52799550019E+02 -0.23778350106E+03  0.54684422212E+03  0.59863794494E+03  0.00000000000E+00 0.  1.
         -4    1    4    4    0  502 -0.66428972354E+03 -0.16050779607E+03  0.40175527960E+03  0.79274894770E+03  0.00000000000E+00 0. -1.
</event>
<event>
 8    1  0.9536167E-006  0.1047633E+04  0.7818608E-02  0.8737629E-01
         21   -1    0    0  503  502  0.00000000000E+00  0.00000000000E+00  0.67396062703E+03  0.67396062703E+03  0.00000000000E+00 0. -1.
         21   -1    0    0  501  503 -0.00000000000E+00 -0.00000000000E+00 -0.18837571350E+04  0.18837571350E+04  0.00000000000E+00 0. -1.
    9000010    2    1    2  501    0  0.16359874785E+03 -0.23468881693E+03 -0.11224771742E+04  0.15354122138E+04  0.10078155926E+04 0.  0.
   -9000010    2    1    2    0  502 -0.16359874785E+03  0.23468881693E+03 -0.87319333775E+02  0.10223055482E+04  0.97756870690E+03 0.  0.
        -13    1    3    3    0    0 -0.23253909169E+02 -0.27847688547E+03  0.10087675248E+03  0.29709636549E+03  0.10566000000E+00 0.  1.
         13    1    4    4    0    0 -0.20811435498E+02  0.47578380521E+03 -0.38580730785E+03  0.61290344680E+03  0.10566000000E+00 0. -1.
          4    1    3    3  501    0  0.18685265702E+03  0.43788068545E+02 -0.12233539267E+04  0.12383158484E+04  0.00000000000E+00 0.  1.
         -4    1    4    4    0  502 -0.14278731235E+03 -0.24109498828E+03  0.29848797408E+03  0.40940210138E+03  0.00000000000E+00 0. -1.
</event>
<event>
 8    1  0.1021790E-005  0.1020146E+04  0.7818608E-02  0.8758827E-01
         21   -1    0    0  501  502  0.00000000000E+00  0.00000000000E+00  0.13924138311E+04  0.13924138311E+04  0.00000000000E+00 0. -1.
         21   -1    0    0  502  503 -0.00000000000E+00 -0.00000000000E+00 -0.13769402734E+04  0.13769402734E+04  0.00000000000E+00 0. -1.
    9000010    2    1    2  501    0  0.15323208497E+03  0.90259326298E+02  0.95085511260E+03  0.13852891282E+04  0.99160158616E+03 0.  0.
   -9000010    2    1    2    0  503 -0.15323208497E+03 -0.90259326298E+02 -0.93538155485E+03  0.13840649763E+04  0.10045249562E+04 0.  0.
        -13    1    3    3    0    0 -0.33107654391E+03 -0.13846122543E+03  0.87638774969E+02  0.36941000923E+03  0.10566000000E+00 0.  1.
         13    1    4    4    0    0 -0.81334604560E+02 -0.50116637697E+03 -0.21447165022E+03  0.55116345599E+03  0.10566000000E+00 0. -1.
          4    1    3    3  501    0  0.48430862889E+03  0.22872055173E+03  0.86321633763E+03  0.10158791190E+04  0.00000000000E+00 0.  1.
         -4    1    4    4    0  503 -0.71897480415E+02  0.41090705067E+03 -0.72090990463E+03  0.83290152034E+03  0.00000000000E+00 0. -1.
</event>
<event>
 8    1  0.7572579E-006  0.1053835E+04  0.7818608E-02  0.8725952E-01
         21   -1    0    0  503  502  0.00000000000E+00  0.00000000000E+00  0.61423670297E+03  0.61423670297E+03  0.00000000000E+00 0.  1.
         21   -1    0    0  501  503 -0.00000000000E+00 -0.00000000000E+00 -0.19615963184E+04  0.19615963184E+04  0.00000000000E+00 0.  1.
    9000010    2    1    2  501    0  0.24228175777E+03 -0.20316777226E+03 -0.31053632121E+03  0.10986359603E+04  0.10052813401E+04 0.  0.
   -9000010    2    1    2    0  502 -0.24228175777E+03  0.20316777226E+03 -0.10368232942E+04  0.14771970610E+04  0.10035591760E+04 0.  0.
        -13    1    3    3    0    0  0.20993166168E+03 -0.32294478934E+03  0.29206769767E+03  0.48339237760E+03  0.10566000000E+00 0.  1.
         13    1    4    4    0    0 -0.51760370270E+03 -0.55855444610E+02 -0.19774412371E+03  0.55689871015E+03  0.10566000000E+00 0. -1.
          4    1    3    3  501    0  0.32350096097E+02  0.11977701709E+03 -0.60260401888E+03  0.61524358274E+03  0.00000000000E+00 0.  1.
         -4    1    4    4    0  502  0.27532194493E+03  0.25902321687E+03 -0.83907917050E+03  0.92029835087E+03  0.00000000000E+00 0. -1.
</event>
<event>
 8    1  0.7572579E-006  0.1044075E+04  0.7818608E-02  0.8734323E-01
         21   -1    0    0  501  502  0.00000000000E+00  0.00000000000E+00  0.82091116393E+03  0.82091116393E+03  0.00000000000E+00 0. -1.
         21   -1    0    0  502  503 -0.00000000000E+00 -0.00000000000E+00 -0.14176869535E+04  0.14176869535E+04  0.00000000000E+00 0. -1.
    9000010    2    1    2  501    0 -0.28384481826E+03  0.93173358154E+02 -0.16073390638E+02  0.10441989285E+04  0.10004218575E+04 0.  0.
   -9000010    2    1    2    0  503  0.28384481826E+03 -0.93173358154E+02 -0.58070239895E+03  0.11943991889E+04  0.10000624934E+04 0.  0.
        -13    1    3    3    0    0 -0.39741304809E+03  0.26738261799E+03 -0.38910487655E+03  0.61711685386E+03  0.10566000000E+00 0.  1.
         13    1    4    4    0    0  0.43700674306E+03 -0.21786306109E+03 -0.77586739361E+03  0.91673847443E+03  0.10566000000E+00 0. -1.
          4    1    3    3  501    0  0.11356822983E+03 -0.17420925984E+03  0.37303148591E+03  0.42708207469E+03  0.00000000000E+00 0.  1.
         -4    1    4    4    0  503 -0.15316192480E+03  0.12468970293E+03  0.19516499465E+03  0.27766071448E+03  0.00000000000E+00 0. -1.
</event>
<event>
 8    1  0.7572579E-006  0.1259250E+04  0.7818608E-02  0.8566102E-01
         21   -1    0    0  501  502  0.00000000000E+00  0.00000000000E+00  0.21764788457E+04  0.21764788457E+04  0.00000000000E+00 0.  1.
         21   -1    0    0  502  503 -0.00000000000E+00 -0.00000000000E+00 -0.72298668967E+03  0.72298668967E+03  0.00000000000E+00 0.  1.
    9000010    2    1    2  501    0 -0.32881929018E+02 -0.73433979614E+03  0.83471947077E+03  0.15107836629E+04  0.10224355842E+04 0.  0.
   -9000010    2    1    2    0  503  0.32881929018E+02  0.73433979614E+03  0.61877268531E+03  0.13886818725E+04  0.10026073756E+04 0.  0.
        -13    1    3    3    0    0  0.43343977846E+03 -0.11882974355E+03  0.13646747604E+03  0.46969557447E+03  0.10566000000E+00 0.  1.
         13    1    4    4    0    0  0.43638846263E+03  0.35298718234E+03  0.61615455918E+03  0.83347543046E+03  0.10566000000E+00 0. -1.
          4    1    3    3  501    0 -0.46632170748E+03 -0.61551005259E+03  0.69825199473E+03  0.10410880884E+04  0.00000000000E+00 0.  1.
         -4    1    4    4    0  503 -0.40350653361E+03  0.38135261380E+03  0.26181261339E+01  0.55520644206E+03  0.00000000000E+00 0. -1.
</event>
<event>
 8    1  0.7572579E-006  0.1048836E+04  0.7818608E-02  0.8734390E-01
         21   -1    0    0  503  502  0.00000000000E+00  0.00000000000E+00  0.76344186578E+03  0.76344186578E+03  0.00000000000E+00 0.  1.
         21   -1    0    0  501  503 -0.00000000000E+00 -0.00000000000E+00 -0.14485295348E+04  0.14485295348E+04  0.00000000000E+00 0.  1.
    9000010    2    1    2  501    0 -0.36397153937E+03  0.57344116199E+02 -0.51598782718E+03  0.11688888792E+04  0.98198479872E+03 0.  0.
   -9000010    2    1    2    0  502  0.36397153937E+03 -0.57344116199E+02 -0.16909984185E+03  0.10430825214E+04  0.96107375410E+03 0.  0.
        -13    1    3    3    0    0 -0.45604659010E+03  0.43137702021E+03 -0.16813925002E+03  0.64987340649E+03  0.10566000000E+00 0.  1.
         13    1    4    4    0    0 -0.12307654586E+03 -0.68949472178E+02  0.32186244844E+03  0.35142184442E+03  0.10566000000E+00 0. -1.
          4    1    3    3  501    0  0.92075050726E+02 -0.37403290401E+03 -0.34784857716E+03  0.51901547268E+03  0.00000000000E+00 0.  1.
         -4    1    4    4    0  502  0.48704808524E+03  0.11605355980E+02 -0.49096229028E+03  0.69166067699E+03  0.00000000000E+00 0. -1.
</event>
<event>
 8    1  0.7572579E-006  0.1083075E+04  0.7818608E-02  0.8707463E-01
         21   -1    0    0  501  502  0.00000000000E+00  0.00000000000E+00  0.15180114518E+04  0.15180114518E+04  0.00000000000E+00 0.  1.
         21   -1    0    0  502  503 -0.00000000000E+00 -0.00000000000E+00 -0.85667089374E+03  0.85667089374E+03  0.00000000000E+00 0.  1.
    9000010    2    1    2  501    0  0.34385256549E+02  0.26179716850E+03  0.74679094252E+03  0.12882418124E+04  0.10159479081E+04 0.  0.
   -9000010    2    1    2    0  503 -0.34385256549E+02 -0.26179716850E+03 -0.85450384504E+02  0.10864405331E+04  0.10503957161E+04 0.  0.
        -13    1    3    3    0    0 -0.39486907263E+03  0.24870962132E+03  0.71992915483E+03  0.85794875103E+03  0.10566000000E+00 0.  1.
         13    1    4    4    0    0  0.23043720249E+03 -0.56045062522E+03 -0.24892004374E+03  0.65510869856E+03  0.10566000000E+00 0. -1.
          4    1    3    3  501    0  0.42925432918E+03  0.13087547185E+02  0.26861787694E+02  0.43029306135E+03  0.00000000000E+00 0.  1.
         -4    1    4    4    0  503 -0.26482245904E+03  0.29865345671E+03  0.16346965923E+03  0.43133183456E+03  0.00000000000E+00 0. -1.
</event>
<event>
 8    1  0.7572579E-006  0.1105556E+04  0.7818608E-02  0.8687358E-01
         21   -1    0    0  503  502  0.00000000000E+00  0.00000000000E+00  0.22316805454E+04  0.22316805454E+04  0.00000000000E+00 0.  1.
         21   -1    0    0  501  503 -0.00000000000E+00 -0.00000000000E+00 -0.60698717616E+03  0.60698717616E+03  0.00000000000E+00 0.  1.
    9000010    2    1    2  501    0 -0.25245771664E+03 -0.27286999646E+03  0.12966736612E+04  0.16854762078E+04  0.10105812831E+04 0.  0.
   -9000010    2    1    2    0  502  0.25245771664E+03  0.27286999646E+03  0.32801970806E+03  0.11531915138E+04  0.10411824071E+04 0.  0.
        -13    1    3    3    0    0 -0.46331772958E+03  0.22237467518E+03  0.81307836037E+03  0.96187849855E+03  0.10566000000E+00 0.  1.
         13    1    4    4    0    0 -0.16639533339E+03 -0.28271134630E+03 -0.91699417681E+02  0.34061988589E+03  0.10566000000E+00 0. -1.
          4    1    3    3  501    0  0.21086001294E+03 -0.49524467164E+03  0.48359530081E+03  0.72359770924E+03  0.00000000000E+00 0.  1.
         -4    1    4    4    0  502  0.41885305003E+03  0.55558134276E+03  0.41971912574E+03  0.81257162789E+03  0.00000000000E+00 0. -1.
</event>
<event>
 8    1  0.8216147E-006  0.1021551E+04  0.7818608E-02  0.8758152E-01
         21   -1    0    0  501  502  0.00000000000E+00  0.00000000000E+00  0.21705195486E+04  0.21705195486E+04  0.00000000000E+00 0.  1.
         21   -1    0    0  502  503 -0.00000000000E+00 -0.00000000000E+00 -0.69398961247E+03  0.69398961247E+03  0.00000000000E+00 0.  1.
    9000010    2    1    2  501    0  0.14540055339E+03 -0.70197702346E+02  0.15415880667E+04  0.18408889990E+04  0.99313116004E+03 0.  0.
   -9000010    2    1    2    0  503 -0.14540055339E+03  0.70197702346E+02 -0.65058130548E+02  0.10236201620E+04  0.10087103833E+04 0.  0.
        -13    1    3    3    0    0  0.19632980137E+03 -0.33957626258E+03  0.15155702359E+04  0.15655064932E+04  0.10566000000E+00 0.  1.
         13    1    4    4    0    0 -0.43110433026E+03 -0.31633920653E+03  0.21852163388E+02  0.53516255976E+03  0.10566000000E+00 0. -1.
          4    1    3    3  501    0 -0.50929247982E+02  0.26937856023E+03  0.26017830780E+02  0.27538250586E+03  0.00000000000E+00 0.  1.
         -4    1    4    4    0  503  0.28570377687E+03  0.38653690888E+03 -0.86910293936E+02  0.48845760229E+03  0.00000000000E+00 0. -1.
</event>
<event>
 8    1  0.7572579E-006  0.1041983E+04  0.7818608E-02  0.8737515E-01
         21   -1    0    0  501  502  0.00000000000E+00  0.00000000000E+00  0.13117785672E+04  0.13117785672E+04  0.00000000000E+00 0. -1.
         21   -1    0    0  502  503 -0.00000000000E+00 -0.00000000000E+00 -0.91231198233E+03  0.91231198233E+03  0.00000000000E+00 0. -1.
    9000010    2    1    2  501    0  0.27627104246E+03 -0.39353742684E+02  0.54875479583E+03  0.11776505742E+04  0.10039196397E+04 0.  0.
   -9000010    2    1    2    0  503 -0.27627104246E+03  0.39353742684E+02 -0.14928821100E+03  0.10464399753E+04  0.99743433165E+03 0.  0.
        -13    1    3    3    0    0  0.24376342480E+03 -0.34567668348E+03 -0.12142576827E+03  0.44006500104E+03  0.10566000000E+00 0.  1.
         13    1    4    4    0    0  0.22862618920E+03 -0.31239052859E+03  0.69609276167E+02  0.39332332658E+03  0.10566000000E+00 0. -1.
          4    1    3    3  501    0  0.32507617664E+02  0.30632294080E+03  0.67018056410E+03  0.73758557318E+03  0.00000000000E+00 0.  1.
         -4    1    4    4    0  503 -0.50489723167E+03  0.35174427127E+03 -0.21889748717E+03  0.65311664870E+03  0.00000000000E+00 0. -1.
</event>
<event>
 8    1  0.7572579E-006  0.9974782E+03  0.7818608E-02  0.8777433E-01
         21   -1    0    0  503  502  0.00000000000E+00  0.00000000000E+00  0.11866771678E+04  0.11866771678E+04  0.00000000000E+00 0. -1.
         21   -1    0    0  501  503 -0.00000000000E+00 -0.00000000000E+00 -0.10746602158E+04  0.10746602158E+04  0.00000000000E+00 0. -1.
    9000010    2    1    2  501    0 -0.60305579816E+02  0.37548251091E+02 -0.47591219460E+03  0.11051946387E+04  0.99494529415E+03 0.  0.
   -9000010    2    1    2    0  502  0.60305579816E+02 -0.37548251091E+02  0.58792914662E+03  0.11561427449E+04  0.99295454631E+03 0.  0.
        -13    1    3    3    0    0 -0.56932616779E+02  0.42769886313E+03  0.66984094514E+02  0.43664003534E+03  0.10566000000E+00 0.  1.
         13    1    4    4    0    0  0.29518605331E+03  0.29692229480E+03 -0.25016854237E+02  0.41943236568E+03  0.10566000000E+00 0. -1.
          4    1    3    3  501    0 -0.33729630370E+01 -0.39015061204E+03 -0.54289628911E+03  0.66855460337E+03  0.00000000000E+00 0.  1.
         -4    1    4    4    0  502 -0.23488047350E+03 -0.33447054589E+03  0.61294600085E+03  0.73671037923E+03  0.00000000000E+00 0. -1.
</event>
<event>
 8    1  0.7572579E-006  0.1006513E+04  0.7818608E-02  0.8768499E-01
         21   -1    0    0  503  502  0.00000000000E+00  0.00000000000E+00  0.22259524785E+04  0.22259524785E+04  0.00000000000E+00 0. -1.
         21   -1    0    0  501  503 -0.00000000000E+00 -0.00000000000E+00 -0.12530812616E+04  0.12530812616E+04  0.00000000000E+00 0. -1.
    9000010    2    1    2  501    0 -0.10660069367E+03  0.66640501796E+02 -0.90170038636E+03  0.13513445020E+04  0.99863091880E+03 0.  0.
   -9000010    2    1    2    0  502  0.10660069367E+03 -0.66640501796E+02  0.18745716032E+04  0.21276892381E+04  0.99861811220E+03 0.  0.
        -13    1    3    3    0    0  0.12782034336E+03 -0.53280154345E+02  0.18618953639E+03  0.23204174118E+03  0.10566000000E+00 0.  1.
         13    1    4    4    0    0 -0.31241160662E+03 -0.40785355051E+02  0.14307559521E+03  0.34602759174E+03  0.10566000000E+00 0. -1.
          4    1    3    3  501    0 -0.23442103703E+03  0.11992065614E+03 -0.10878899228E+04  0.11193027608E+04  0.00000000000E+00 0.  1.
         -4    1    4    4    0  502  0.41901230029E+03 -0.25855146746E+02  0.17314960080E+04  0.17816616464E+04  0.00000000000E+00 0. -1.
</event>
<event>
 8    1  0.7572579E-006  0.1113554E+04  0.7818608E-02  0.8677013E-01
         21   -1    0    0  501  502  0.00000000000E+00  0.00000000000E+00  0.74689133064E+03  0.74689133064E+03  0.00000000000E+00 0.  1.
         21   -1    0    0  502  503 -0.00000000000E+00 -0.00000000000E+00 -0.16945886078E+04  0.16945886078E+04  0.00000000000E+00 0.  1.
    9000010    2    1    2  501    0  0.46464086634E+03  0.67751601502E+02 -0.68840725144E+03  0.13091625942E+04  0.10097131970E+04 0.  0.
   -9000010    2    1    2    0  503 -0.46464086634E+03 -0.67751601502E+02 -0.25929002572E+03  0.11323173442E+04  0.99721102901E+03 0.  0.
        -13    1    3    3    0    0  0.66510340804E+03 -0.26662524957E+03 -0.51526714729E+03  0.88258246716E+03  0.10566000000E+00 0.  1.
         13    1    4    4    0    0 -0.35469004719E+03  0.39814221355E+03  0.88643896810E+02  0.54053677340E+03  0.10566000000E+00 0. -1.
          4    1    3    3  501    0 -0.20046254170E+03  0.33437685108E+03 -0.17314010415E+03  0.42658012708E+03  0.00000000000E+00 0.  1.
         -4    1    4    4    0  503 -0.10995081915E+03 -0.46589381506E+03 -0.34793392253E+03  0.59178057081E+03  0.00000000000E+00 0. -1.
</event>
<event>
 8    1  0.7572579E-006  0.1035796E+04  0.7818608E-02  0.8742550E-01
         21   -1    0    0  501  502  0.00000000000E+00  0.00000000000E+00  0.10450741880E+04  0.10450741880E+04  0.00000000000E+00 0. -1.
         21   -1    0    0  502  503 -0.00000000000E+00 -0.00000000000E+00 -0.11666745299E+04  0.11666745299E+04  0.00000000000E+00 0. -1.
    9000010    2    1    2  501    0 -0.23046085522E+03 -0.11157439754E+03  0.32755145745E+03  0.10863531842E+04  0.10036494565E+04 0.  0.
   -9000010    2    1    2    0  503  0.23046085522E+03  0.11157439754E+03 -0.44915179941E+03  0.11253955337E+04  0.99960828147E+03 0.  0.
        -13    1    3    3    0    0 -0.54316783754E+03  0.20961141828E+03  0.23934531151E+03  0.62948743888E+03  0.10566000000E+00 0.  1.
         13    1    4    4    0    0 -0.19422497085E+03 -0.33494543535E+03 -0.48116688737E+02  0.39016280046E+03  0.10566000000E+00 0. -1.
          4    1    3    3  501    0  0.31270698232E+03 -0.32118581582E+03  0.88206145946E+02  0.45686574533E+03  0.00000000000E+00 0.  1.
         -4    1    4    4    0  503  0.42468582607E+03  0.44651983290E+03 -0.40103511067E+03  0.73523273324E+03  0.00000000000E+00 0. -1.
</event>
<event>
 8    1  0.7572579E-006  0.1038046E+04  0.7818608E-02  0.8741952E-01
         21   -1    0    0  503  502  0.00000000000E+00  0.00000000000E+00  0.91705731846E+03  0.91705731846E+03  0.00000000000E+00 0. -1.
         21   -1    0    0  501  503 -0.00000000000E+00 -0.00000000000E+00 -0.12047212088E+04  0.12047212088E+04  0.00000000000E+00 0. -1.
    9000010    2    1    2  501    0 -0.40682953364E+02  0.27675681849E+03 -0.33950780715E+03  0.10824391658E+04  0.98901949288E+03 0.  0.
   -9000010    2    1    2    0  502  0.40682953364E+02 -0.27675681849E+03  0.51843916789E+02  0.10393393615E+04  0.99964447545E+03 0.  0.
        -13    1    3    3    0    0  0.11979215092E+03 -0.57237296344E+02 -0.60960935240E+03  0.62389890304E+03  0.10566000000E+00 0.  1.
         13    1    4    4    0    0  0.21050140432E+03 -0.10792509719E+03 -0.43591772584E+03  0.49596667498E+03  0.10566000000E+00 0. -1.
          4    1    3    3  501    0 -0.16047510429E+03  0.33399411483E+03  0.27010154525E+03  0.45854026278E+03  0.00000000000E+00 0.  1.
         -4    1    4    4    0  502 -0.16981845095E+03 -0.16883172130E+03  0.48776164263E+03  0.54337268649E+03  0.00000000000E+00 0. -1.
</event>
<event>
 8    1  0.7572579E-006  0.1074015E+04  0.7818608E-02  0.8711269E-01
         21   -1    0    0  503  502  0.00000000000E+00  0.00000000000E+00  0.89871035826E+03  0.89871035826E+03  0.00000000000E+00 0.  1.
         21   -1    0    0  501  503 -0.00000000000E+00 -0.00000000000E+00 -0.15772968514E+04  0.15772968514E+04  0.00000000000E+00 0.  1.
    9000010    2    1    2  501    0 -0.23302528359E+03 -0.14336631995E+03 -0.89158542448E+03  0.13958627836E+04  0.10385825229E+04 0.  0.
   -9000010    2    1    2    0  502  0.23302528359E+03  0.14336631995E+03  0.21299893135E+03  0.10801444261E+04  0.10229803282E+04 0.  0.
        -13    1    3    3    0    0  0.50864642744E+02  0.42061010939E+03 -0.48913322712E+03  0.64711003781E+03  0.10566000000E+00 0.  1.
         13    1    4    4    0    0  0.63998019955E+03  0.69079746280E+02  0.15818355207E+03  0.66284893790E+03  0.10566000000E+00 0. -1.
          4    1    3    3  501    0 -0.28388992634E+03 -0.56397642934E+03 -0.40245219736E+03  0.74875274576E+03  0.00000000000E+00 0.  1.
         -4    1    4    4    0  502 -0.40695491596E+03  0.74286573672E+02  0.54815379279E+02  0.41729548818E+03  0.00000000000E+00 0. -1.
</event>
<event>
 8    1  0.7572579E-006  0.1136717E+04  0.7818608E-02  0.8657737E-01
         21   -1    0    0  503  502  0.00000000000E+00  0.00000000000E+00  0.11299593860E+04  0.11299593860E+04  0.00000000000E+00 0. -1.
         21   -1    0    0  501  503 -0.00000000000E+00 -0.00000000000E+00 -0.20134785617E+04  0.20134785617E+04  0.00000000000E+00 0. -1.
    9000010    2    1    2  501    0  0.50636168868E+03  0.18184505856E+03  0.59599941197E+03  0.12834881042E+04  0.10013274338E+04 0.  0.
   -9000010    2    1    2    0  502 -0.50636168868E+03 -0.18184505856E+03 -0.14795185877E+04  0.18599498435E+04  0.99043848052E+03 0.  0.
        -13    1    3    3    0    0  0.20112662408E+03 -0.26951900717E+03 -0.14291198932E+03  0.36539877120E+03  0.10566000000E+00 0.  1.
         13    1    4    4    0    0 -0.57386514663E+02 -0.36320755159E+03 -0.76317277461E+02  0.37554929850E+03  0.10566000000E+00 0. -1.
          4    1    3    3  501    0  0.30523506460E+03  0.45136406573E+03  0.73891140129E+03  0.91808933304E+03  0.00000000000E+00 0.  1.
         -4    1    4    4    0  502 -0.44897517401E+03  0.18136249303E+03 -0.14032013103E+04  0.14844005450E+04  0.00000000000E+00 0. -1.
</event>
<event>
 8    1  0.7572579E-006  0.9969748E+03  0.7818608E-02  0.8777857E-01
         21   -1    0    0  503  502  0.00000000000E+00  0.00000000000E+00  0.12684895864E+04  0.12684895864E+04  0.00000000000E+00 0. -1.
         21   -1    0    0  501  503 -0.00000000000E+00 -0.00000000000E+00 -0.16413659644E+04  0.16413659644E+04  0.00000000000E+00 0. -1.
    9000010    2    1    2  501    0  0.44772056876E+02 -0.24227493555E+03 -0.12390020587E+04  0.15891994682E+04  0.96422360834E+03 0.  0.
   -9000010    2    1    2    0  502 -0.44772056876E+02  0.24227493555E+03  0.86612568062E+03  0.13206560826E+04  0.96605233419E+03 0.  0.
        -13    1    3    3    0    0 -0.14739062141E+03 -0.24139147673E+03  0.48910463705E+02  0.28702976317E+03  0.10566000000E+00 0.  1.
         13    1    4    4    0    0 -0.41826130829E+03  0.25112775884E+03  0.14574869504E+03  0.50916634467E+03  0.10566000000E+00 0. -1.
          4    1    3    3  501    0  0.19216267829E+03 -0.88345881691E+00 -0.12879125224E+04  0.13021697051E+04  0.00000000000E+00 0.  1.
         -4    1    4    4    0  502  0.37348925141E+03 -0.88528232916E+01  0.72037698558E+03  0.81148973793E+03  0.00000000000E+00 0. -1.
</event>
<event>
 8    1  0.7572579E-006  0.1055659E+04  0.7818608E-02  0.8723999E-01
         21   -1    0    0  501  502  0.00000000000E+00  0.00000000000E+00  0.20072555888E+04  0.20072555888E+04  0.00000000000E+00 0. -1.
         21   -1    0    0  502  503 -0.00000000000E+00 -0.00000000000E+00 -0.86516360383E+03  0.86516360383E+03  0.00000000000E+00 0. -1.
    9000010    2    1    2  501    0 -0.38239781077E+02 -0.32781549135E+03  0.14307512435E+04  0.17780056362E+04  0.10026612810E+04 0.  0.
   -9000010    2    1    2    0  503  0.38239781077E+02  0.32781549135E+03 -0.28865925846E+03  0.10944135564E+04  0.10027420345E+04 0.  0.
        -13    1    3    3    0    0 -0.56229586450E+02 -0.26778794111E+03 -0.64756144198E+02  0.28118591211E+03  0.10566000000E+00 0.  1.
         13    1    4    4    0    0 -0.15517495285E+03  0.72549438905E+02  0.34457071924E+03  0.38480083004E+03  0.10566000000E+00 0. -1.
          4    1    3    3  501    0  0.17989805373E+02 -0.60027550241E+02  0.14955073877E+04  0.14968197241E+04  0.00000000000E+00 0.  1.
         -4    1    4    4    0  503  0.19341473393E+03  0.25526605244E+03 -0.63322997770E+03  0.70961272641E+03  0.00000000000E+00 0. -1.
</event>
<event>
 8    1  0.7572579E-006  0.1230128E+04  0.7818608E-02  0.8606533E-01
         21   -1    0    0  501  502  0.00000000000E+00  0.00000000000E+00  0.53973307965E+03  0.53973307965E+03  0.00000000000E+00 0.  1.
         21   -1    0    0  502  503 -0.00000000000E+00 -0.00000000000E+00 -0.27453941997E+04  0.27453941997E+04  0.00000000000E+00 0.  1.
    9000010    2    1    2  501    0  0.22867142903E+03  0.43618451147E+03 -0.14949885793E+04  0.18644691641E+04  0.99935322149E+03 0.  0.
   -9000010    2    1    2    0  503 -0.22867142903E+03 -0.43618451147E+03 -0.71067254074E+03  0.14206581152E+04  0.11272384262E+04 0.  0.
        -13    1    3    3    0    0  0.26025219298E+03  0.75078264748E+03 -0.11325375412E+04  0.13834909038E+04  0.10566000000E+00 0.  1.
         13    1    4    4    0    0  0.31237062514E+03 -0.58620847616E+03 -0.32489989376E+03  0.73944285588E+03  0.10566000000E+00 0. -1.
          4    1    3    3  501    0 -0.31580763949E+02 -0.31459813601E+03 -0.36245103814E+03  0.48097826030E+03  0.00000000000E+00 0.  1.
         -4    1    4    4    0  503 -0.54104205417E+03  0.15002396469E+03 -0.38577264698E+03  0.68121525931E+03  0.00000000000E+00 0. -1.
</event>
<event>
 8    1  0.7572579E-006  0.1012542E+04  0.7818608E-02  0.8764533E-01
         21   -1    0    0  503  502  0.00000000000E+00  0.00000000000E+00  0.69567722524E+03  0.69567722524E+03  0.00000000000E+00 0.  1.
         21   -1    0    0  501  503 -0.00000000000E+00 -0.00000000000E+00 -0.15282597616E+04  0.15282597616E+04  0.00000000000E+00 0.  1.
    9000010    2    1    2  501    0  0.86923118468E+01  0.12932896313E+03 -0.64381894820E+03  0.11939502237E+04  0.99710218218E+03 0.  0.
   -9000010    2    1    2    0  502 -0.86923118468E+01 -0.12932896313E+03 -0.18876358818E+03  0.10299867631E+04  0.10042108857E+04 0.  0.
        -13    1    3    3    0    0  0.28089700063E+03 -0.31460392796E+03 -0.49917354648E+03  0.65349292048E+03  0.10566000000E+00 0.  1.
         13    1    4    4    0    0  0.47655029170E+03 -0.41049621672E+01 -0.22604983864E+03  0.52746144119E+03  0.10566000000E+00 0. -1.
          4    1    3    3  501    0 -0.27220468879E+03  0.44393289110E+03 -0.14464540172E+03  0.54045730325E+03  0.00000000000E+00 0.  1.
         -4    1    4    4    0  502 -0.48524260355E+03 -0.12522400096E+03  0.37286250458E+02  0.50252532194E+03  0.00000000000E+00 0. -1.
</event>
<event>
 8    1  0.7572579E-006  0.1113003E+04  0.7818608E-02  0.8676461E-01
         21   -1    0    0  503  502  0.00000000000E+00  0.00000000000E+00  0.11504225122E+04  0.11504225122E+04  0.00000000000E+00 0.  1.
         21   -1    0    0  501  503 -0.00000000000E+00 -0.00000000000E+00 -0.16040443161E+04  0.16040443161E+04  0.00000000000E+00 0.  1.
    9000010    2    1    2  501    0  0.13143069073E+03  0.45698085979E+03 -0.10215203549E+04  0.15107214057E+04  0.10063149594E+04 0.  0.
   -9000010    2    1    2    0  502 -0.13143069073E+03 -0.45698085979E+03  0.56789855102E+03  0.12437454226E+04  0.99914382314E+03 0.  0.
        -13    1    3    3    0    0  0.21166516086E+03  0.76370926129E+03 -0.78204455620E+03  0.11133946628E+04  0.10566000000E+00 0.  1.
         13    1    4    4    0    0  0.20273645481E+03 -0.61666128230E+03  0.11590940422E+03  0.65939988501E+03  0.10566000000E+00 0. -1.
          4    1    3    3  501    0 -0.80234470136E+02 -0.30672840149E+03 -0.23947579868E+03  0.39732674291E+03  0.00000000000E+00 0.  1.
         -4    1    4    4    0  502 -0.33416714554E+03  0.15968042250E+03  0.45198914679E+03  0.58434553759E+03  0.00000000000E+00 0. -1.
</event>
<event>
 8    1  0.7572579E-006  0.1041095E+04  0.7818608E-02  0.8747004E-01
         21   -1    0    0  503  502  0.00000000000E+00  0.00000000000E+00  0.23695857934E+04  0.23695857934E+04  0.00000000000E+00 0. -1.
         21   -1    0    0  501  503 -0.00000000000E+00 -0.00000000000E+00 -0.45713088506E+03  0.45713088506E+03  0.00000000000E+00 0. -1.
    9000010    2    1    2  501    0  0.20079628092E+03 -0.12239226400E+03  0.64914773610E+03  0.11896998411E+04  0.96886217594E+03 0.  0.
   -9000010    2    1    2    0  502 -0.20079628092E+03  0.12239226400E+03  0.12633071722E+04  0.16370168373E+04  0.10141893815E+04 0.  0.
        -13    1    3    3    0    0 -0.19942516062E+03 -0.34519899958E+03  0.61165623915E+03  0.73010691687E+03  0.10566000000E+00 0.  1.
         13    1    4    4    0    0  0.56770005087E+01 -0.27304691529E+03  0.11427276709E+04  0.11749099486E+04  0.10566000000E+00 0. -1.
          4    1    3    3  501    0  0.40022144153E+03  0.22280673558E+03  0.37491496952E+02  0.45959292426E+03  0.00000000000E+00 0.  1.
         -4    1    4    4    0  502 -0.20647328143E+03  0.39543917929E+03  0.12057950129E+03  0.46210688871E+03  0.00000000000E+00 0. -1.
</event>
<event>
 8    1  0.7572579E-006  0.1032950E+04  0.7818608E-02  0.8756942E-01
         21   -1    0    0  503  502  0.00000000000E+00  0.00000000000E+00  0.95982990682E+03  0.95982990682E+03  0.00000000000E+00 0.  1.
         21   -1    0    0  501  503 -0.00000000000E+00 -0.00000000000E+00 -0.10779377983E+04  0.10779377983E+04  0.00000000000E+00 0.  1.
    9000010    2    1    2  501    0  0.19087923775E+03  0.21094769778E+03  0.95649263644E+02  0.98293245870E+03  0.93598804593E+03 0.  0.
   -9000010    2    1    2    0  502 -0.19087923775E+03 -0.21094769778E+03 -0.21375715509E+03  0.10548352464E+04  0.99300123921E+03 0.  0.
        -13    1    3    3    0    0 -0.10904759515E+03 -0.25240748453E+03  0.28823235824E+03  0.39834510133E+03  0.10566000000E+00 0.  1.
         13    1    4    4    0    0  0.54333565347E+02 -0.51789218705E+03  0.12562979975E+03  0.53567463211E+03  0.10566000000E+00 0. -1.
          4    1    3    3  501    0  0.29992683290E+03  0.46335518231E+03 -0.19258309460E+03  0.58458735737E+03  0.00000000000E+00 0.  1.
         -4    1    4    4    0  502 -0.24521280310E+03  0.30694448927E+03 -0.33938695485E+03  0.51916061428E+03  0.00000000000E+00 0. -1.
</event>
<event>
 8    1  0.7572579E-006  0.1121134E+04  0.7818608E-02  0.8678820E-01
         21   -1    0    0  503  502  0.00000000000E+00  0.00000000000E+00  0.67764528285E+03  0.67764528285E+03  0.00000000000E+00 0.  1.
         21   -1    0    0  501  503 -0.00000000000E+00 -0.00000000000E+00 -0.18303512953E+04  0.18303512953E+04  0.00000000000E+00 0.  1.
    9000010    2    1    2  501    0  0.23403578221E+03 -0.30416056033E+03 -0.78417187124E+03  0.13278448214E+04  0.10004798610E+04 0.  0.
   -9000010    2    1    2    0  502 -0.23403578221E+03  0.30416056033E+03 -0.36853414123E+03  0.11801517567E+04  0.10534013299E+04 0.  0.
        -13    1    3    3    0    0 -0.19305861267E+03 -0.40690597867E+03 -0.25411102618E+02  0.45109848005E+03  0.10566000000E+00 0.  1.
         13    1    4    4    0    0 -0.16620096168E+03  0.50628241233E+03  0.20294145997E+03  0.57020162051E+03  0.10566000000E+00 0. -1.
          4    1    3    3  501    0  0.42709439488E+03  0.10274541834E+03 -0.75876076862E+03  0.87674634138E+03  0.00000000000E+00 0.  1.
         -4    1    4    4    0  502 -0.67834820528E+02 -0.20212185200E+03 -0.57147560120E+03  0.60995013623E+03  0.00000000000E+00 0. -1.
</event>
<event>
 8    1  0.7572579E-006  0.1154055E+04  0.7818608E-02  0.8643980E-01
         21   -1    0    0  501  502  0.00000000000E+00  0.00000000000E+00  0.84746399451E+03  0.84746399451E+03  0.00000000000E+00 0.  1.
         21   -1    0    0  502  503 -0.00000000000E+00 -0.00000000000E+00 -0.18068274030E+04  0.18068274030E+04  0.00000000000E+00 0.  1.
    9000010    2    1    2  501    0  0.30658704630E+03 -0.48222450311E+03  0.11098721598E+02  0.11541080931E+04  0.10026496001E+04 0.  0.
   -9000010    2    1    2    0  503 -0.30658704630E+03  0.48222450311E+03 -0.97046213008E+03  0.15001833044E+04  0.99106867190E+03 0.  0.
        -13    1    3    3    0    0 -0.62781735055E+02  0.28926429952E+03  0.37391711959E+02  0.29835135750E+03  0.10566000000E+00 0.  1.
         13    1    4    4    0    0  0.17668248060E+03  0.29781551723E+03 -0.91695867665E+03  0.98016529581E+03  0.10566000000E+00 0. -1.
          4    1    3    3  501    0  0.36936878135E+03 -0.77148880263E+03 -0.26292990361E+02  0.85575673563E+03  0.00000000000E+00 0.  1.
         -4    1    4    4    0  503 -0.48326952690E+03  0.18440898589E+03 -0.53503453428E+02  0.52001800856E+03  0.00000000000E+00 0. -1.
</event>
<event>
 8    1  0.7572579E-006  0.1031032E+04  0.7818608E-02  0.8759901E-01
         21   -1    0    0  503  502  0.00000000000E+00  0.00000000000E+00  0.15993845389E+04  0.15993845389E+04  0.00000000000E+00 0. -1.
         21   -1    0    0  501  503 -0.00000000000E+00 -0.00000000000E+00 -0.73309603384E+03  0.73309603384E+03  0.00000000000E+00 0. -1.
    9000010    2    1    2  501    0  0.10781949428E+03  0.13652293068E+03 -0.21913300239E+02  0.97162412735E+03  0.95567238014E+03 0.  0.
   -9000010    2    1    2    0  502 -0.10781949428E+03 -0.13652293068E+03  0.88820180534E+03  0.13608564454E+04  0.10162500992E+04 0.  0.
        -13    1    3    3    0    0 -0.18355131777E+03  0.12226759187E+03  0.40112360814E+03  0.45775605998E+03  0.10566000000E+00 0.  1.
         13    1    4    4    0    0 -0.33672028284E+03 -0.33053266674E+03  0.94427957248E+03  0.10556023469E+04  0.10566000000E+00 0. -1.
          4    1    3    3  501    0  0.29137081206E+03  0.14255338807E+02 -0.42303690838E+03  0.51386806737E+03  0.00000000000E+00 0.  1.
         -4    1    4    4    0  502  0.22890078856E+03  0.19400973606E+03 -0.56077767148E+02  0.30525409851E+03  0.00000000000E+00 0. -1.
</event>
<event>
 8    1  0.7572579E-006  0.1049606E+04  0.7818608E-02  0.8761048E-01
         21   -1    0    0  503  502  0.00000000000E+00  0.00000000000E+00  0.20568722697E+04  0.20568722697E+04  0.00000000000E+00 0. -1.
         21   -1    0    0  501  503 -0.00000000000E+00 -0.00000000000E+00 -0.51750482523E+03  0.51750482523E+03  0.00000000000E+00 0. -1.
    9000010    2    1    2  501    0 -0.23086720987E+03 -0.10178533573E+02  0.42669345369E+03  0.11330224554E+04  0.10238502380E+04 0.  0.
   -9000010    2    1    2    0  502  0.23086720987E+03  0.10178533573E+02  0.11126739908E+04  0.14413546395E+04  0.88659828329E+03 0.  0.
        -13    1    3    3    0    0  0.34569933155E+03 -0.24457302297E+03  0.12608597229E+03  0.44183896950E+03  0.10566000000E+00 0.  1.
         13    1    4    4    0    0 -0.83104093673E+02  0.40941709062E+02 -0.12979194823E+03  0.15946308324E+03  0.10566000000E+00 0. -1.
          4    1    3    3  501    0 -0.57656654142E+03  0.23439448940E+03  0.30060748140E+03  0.69118348593E+03  0.00000000000E+00 0.  1.
         -4    1    4    4    0  502  0.31397130354E+03 -0.30763175488E+02  0.12424659390E+04  0.12818915563E+04  0.00000000000E+00 0. -1.
</event>
<event>
 8    1  0.7572579E-006  0.1056287E+04  0.7818608E-02  0.8729937E-01
         21   -1    0    0  503  502  0.00000000000E+00  0.00000000000E+00  0.72509620095E+03  0.72509620095E+03  0.00000000000E+00 0.  1.
         21   -1    0    0  501  503 -0.00000000000E+00 -0.00000000000E+00 -0.15573278516E+04  0.15573278516E+04  0.00000000000E+00 0.  1.
    9000010    2    1    2  501    0 -0.32331260882E+03 -0.16002528963E+03 -0.64711641480E+03  0.12387497308E+04  0.99277495182E+03 0.  0.
   -9000010    2    1    2    0  502  0.32331260882E+03  0.16002528963E+03 -0.18511523583E+03  0.10436743217E+04  0.96169085621E+03 0.  0.
        -13    1    3    3    0    0 -0.12637532764E+03  0.33334300719E+03  0.52466685416E+02  0.36033463353E+03  0.10566000000E+00 0.  1.
         13    1    4    4    0    0 -0.11983715577E+03 -0.72904542203E+02  0.30956699388E+03  0.33986431269E+03  0.10566000000E+00 0. -1.
          4    1    3    3  501    0 -0.19693728118E+03 -0.49336829682E+03 -0.69958310022E+03  0.87841509729E+03  0.00000000000E+00 0.  1.
         -4    1    4    4    0  502  0.44314976459E+03  0.23292983183E+03 -0.49468222971E+03  0.70381000902E+03  0.00000000000E+00 0. -1.
</event>
<event>
 8    1  0.7572579E-006  0.1107759E+04  0.7818608E-02  0.8684581E-01
         21   -1    0    0  501  502  0.00000000000E+00  0.00000000000E+00  0.18177109350E+04  0.18177109350E+04  0.00000000000E+00 0.  1.
         21   -1    0    0  502  503 -0.00000000000E+00 -0.00000000000E+00 -0.93793563895E+03  0.93793563895E+03  0.00000000000E+00 0.  1.
    9000010    2    1    2  501    0 -0.43180704111E+03  0.22120419584E+03 -0.30624123938E+03  0.11493097891E+04  0.99586177634E+03 0.  0.
   -9000010    2    1    2    0  503  0.43180704111E+03 -0.22120419584E+03  0.11860165355E+04  0.16063367849E+04  0.96865578361E+03 0.  0.
        -13    1    3    3    0    0  0.79541653500E+02  0.96144958107E+02  0.31276004883E+03  0.33673370327E+03  0.10566000000E+00 0.  1.
         13    1    4    4    0    0  0.39040550941E+03  0.34170953822E+03  0.55688819468E+03  0.76112176610E+03  0.10566000000E+00 0. -1.
          4    1    3    3  501    0 -0.51134869461E+03  0.12505923774E+03 -0.61900128821E+03  0.81257608581E+03  0.00000000000E+00 0.  1.
         -4    1    4    4    0  503  0.41401531704E+02 -0.56291373407E+03  0.62912834079E+03  0.84521501881E+03  0.00000000000E+00 0. -1.
</event>
<event>
 8    1  0.7572579E-006  0.1015540E+04  0.7818608E-02  0.8760263E-01
         21   -1    0    0  501  502  0.00000000000E+00  0.00000000000E+00  0.15628661104E+04  0.15628661104E+04  0.00000000000E+00 0. -1.
         21   -1    0    0  502  503 -0.00000000000E+00 -0.00000000000E+00 -0.71458192223E+03  0.71458192223E+03  0.00000000000E+00 0. -1.
    9000010    2    1    2  501    0  0.79677263015E+02  0.14672864057E+03  0.74016214292E+03  0.12561683036E+04  0.10011198974E+04 0.  0.
   -9000010    2    1    2    0  503 -0.79677263015E+02 -0.14672864057E+03  0.10812204526E+03  0.10212797290E+04  0.10017205938E+04 0.  0.
        -13    1    3    3    0    0 -0.20753981211E+03 -0.34790822600E+03  0.47914073856E+03  0.62744622546E+03  0.10566000000E+00 0.  1.
         13    1    4    4    0    0  0.35233132320E+03 -0.37892901759E+03  0.11807074451E+03  0.53072146513E+03  0.10566000000E+00 0. -1.
          4    1    3    3  501    0  0.28721707513E+03  0.49463686657E+03  0.26102140437E+03  0.62872207815E+03  0.00000000000E+00 0.  1.
         -4    1    4    4    0  503 -0.43200858622E+03  0.23220037702E+03 -0.99486992538E+01  0.49055826389E+03  0.00000000000E+00 0. -1.
</event>
<event>
 8    1  0.7572579E-006  0.1152556E+04  0.7818608E-02  0.8646288E-01
         21   -1    0    0  501  502  0.00000000000E+00  0.00000000000E+00  0.17329054056E+04  0.17329054056E+04  0.00000000000E+00 0. -1.
         21   -1    0    0  502  503 -0.00000000000E+00 -0.00000000000E+00 -0.82620785953E+03  0.82620785953E+03  0.00000000000E+00 0.  1.
    9000010    2    1    2  501    0 -0.38970872052E+03  0.45182768369E+03  0.82866449243E+03  0.14195320023E+04  0.98608575795E+03 0.  0.
   -9000010    2    1    2    0  503  0.38970872052E+03 -0.45182768369E+03  0.78033053647E+02  0.11395812628E+04  0.96774746420E+03 0.  0.
        -13    1    3    3    0    0  0.21992213348E+02  0.60698460781E+03  0.76214238283E+03  0.97456400223E+03  0.10566000000E+00 0.  1.
         13    1    4    4    0    0  0.55235473981E+03 -0.66722747970E+03  0.41203717633E+02  0.86717127822E+03  0.10566000000E+00 0. -1.
          4    1    3    3  501    0 -0.41170093387E+03 -0.15515692412E+03  0.66522109596E+02  0.44496800010E+03  0.00000000000E+00 0.  1.
         -4    1    4    4    0  503 -0.16264601929E+03  0.21539979600E+03  0.36829336014E+02  0.27240998458E+03  0.00000000000E+00 0. -1.
</event>
<event>
 8    1  0.7572579E-006  0.1031732E+04  0.7818608E-02  0.8748514E-01
         21   -1    0    0  501  502  0.00000000000E+00  0.00000000000E+00  0.47048506403E+03  0.47048506403E+03  0.00000000000E+00 0. -1.
         21   -1    0    0  502  503 -0.00000000000E+00 -0.00000000000E+00 -0.22485533512E+04  0.22485533512E+04  0.00000000000E+00 0. -1.
    9000010    2    1    2  501    0 -0.74338960217E+02 -0.12567077088E+03 -0.77841041649E+03  0.12924370960E+04  0.10213478580E+04 0.  0.
   -9000010    2    1    2    0  503  0.74338960217E+02  0.12567077088E+03 -0.99965787073E+03  0.14266013192E+04  0.10072517272E+04 0.  0.
        -13    1    3    3    0    0 -0.72110032492E+02  0.40999349772E+03 -0.10016121961E+03  0.42816679698E+03  0.10566000000E+00 0.  1.
         13    1    4    4    0    0  0.52912150488E+03  0.14548095678E+03 -0.66174999210E+03  0.85967862537E+03  0.10566000000E+00 0. -1.
          4    1    3    3  501    0 -0.22289277249E+01 -0.53566426859E+03 -0.67824919688E+03  0.86427029906E+03  0.00000000000E+00 0.  1.
         -4    1    4    4    0  503 -0.45478254466E+03 -0.19810185902E+02 -0.33790787862E+03  0.56692269387E+03  0.00000000000E+00 0. -1.
</event>
<event>
 8    1  0.7572579E-006  0.1022919E+04  0.7818608E-02  0.8758631E-01
         21   -1    0    0  503  502  0.00000000000E+00  0.00000000000E+00  0.18643337738E+04  0.18643337738E+04  0.00000000000E+00 0.  1.
         21   -1    0    0  501  503 -0.00000000000E+00 -0.00000000000E+00 -0.60254613612E+03  0.60254613612E+03  0.00000000000E+00 0.  1.
    9000010    2    1    2  501    0  0.44597436905E+02 -0.58594117138E+01  0.25603514369E+03  0.10323412764E+04  0.99907519843E+03 0.  0.
   -9000010    2    1    2    0  502 -0.44597436905E+02  0.58594117138E+01  0.10057524940E+04  0.14345386335E+04  0.10219294241E+04 0.  0.
        -13    1    3    3    0    0  0.30433118323E+03 -0.40377438354E+03  0.31006111892E+02  0.50656945430E+03  0.10566000000E+00 0.  1.
         13    1    4    4    0    0  0.19460196800E+03 -0.12033527346E+03  0.11184038023E+04  0.11415680358E+04  0.10566000000E+00 0. -1.
          4    1    3    3  501    0 -0.25973374633E+03  0.39791497183E+03  0.22502903180E+03  0.52577182212E+03  0.00000000000E+00 0.  1.
         -4    1    4    4    0  502 -0.23919940491E+03  0.12619468517E+03 -0.11265130836E+03  0.29297059775E+03  0.00000000000E+00 0. -1.
</event>
<event>
 8    1  0.7572579E-006  0.1020337E+04  0.7818608E-02  0.8757116E-01
         21   -1    0    0  503  502  0.00000000000E+00  0.00000000000E+00  0.21022691279E+04  0.21022691279E+04  0.00000000000E+00 0.  1.
         21   -1    0    0  501  503 -0.00000000000E+00 -0.00000000000E+00 -0.61323626232E+03  0.61323626232E+03  0.00000000000E+00 0.  1.
    9000010    2    1    2  501    0 -0.12817262184E+03 -0.10523342756E+03  0.13969372171E+03  0.10238184487E+04  0.10005936162E+04 0.  0.
   -9000010    2    1    2    0  502  0.12817262184E+03  0.10523342756E+03  0.13493391438E+04  0.16916869415E+04  0.10067702258E+04 0.  0.
        -13    1    3    3    0    0  0.32631175137E+03  0.54266228392E+02  0.36454740113E+03  0.49225907961E+03  0.10566000000E+00 0.  1.
         13    1    4    4    0    0  0.30843066601E+03 -0.30820819564E+03  0.10839745979E+04  0.11683846574E+04  0.10566000000E+00 0. -1.
          4    1    3    3  501    0 -0.45448437321E+03 -0.15949965595E+03 -0.22485367941E+03  0.53155936911E+03  0.00000000000E+00 0.  1.
         -4    1    4    4    0  502 -0.18025804417E+03  0.41344162320E+03  0.26536454596E+03  0.52330228409E+03  0.00000000000E+00 0. -1.
</event>
<event>
 8    1  0.7572579E-006  0.1044476E+04  0.7818608E-02  0.8735398E-01
         21   -1    0    0  501  502  0.00000000000E+00  0.00000000000E+00  0.59483889834E+03  0.59483889834E+03  0.00000000000E+00 0.  1.
         21   -1    0    0  502  503 -0.00000000000E+00 -0.00000000000E+00 -0.24867143690E+04  0.24867143690E+04  0.00000000000E+00 0.  1.
    9000010    2    1    2  501    0 -0.52918677267E+02 -0.27879789358E+03 -0.14718116247E+03  0.10481105549E+04  0.99817072130E+03 0.  0.
   -9000010    2    1    2    0  503  0.52918677267E+02  0.27879789358E+03 -0.17446943082E+04  0.20334427124E+04  0.10051877356E+04 0.  0.
        -13    1    3    3    0    0 -0.39324693358E+03 -0.72510375816E+02 -0.40879742218E+03  0.57185334564E+03  0.10566000000E+00 0.  1.
         13    1    4    4    0    0  0.71014637206E+02  0.59474833130E+03 -0.60786561495E+03  0.85338694230E+03  0.10566000000E+00 0. -1.
          4    1    3    3  501    0  0.34032825632E+03 -0.20628751776E+03  0.26161625971E+03  0.47625720927E+03  0.00000000000E+00 0.  1.
         -4    1    4    4    0  503 -0.18095959939E+02 -0.31595043772E+03 -0.11368286932E+04  0.11800557701E+04  0.00000000000E+00 0. -1.
</event>
<event>
 8    1  0.7572579E-006  0.1091669E+04  0.7818608E-02  0.8697741E-01
         21   -1    0    0  503  502  0.00000000000E+00  0.00000000000E+00  0.74709728770E+03  0.74709728770E+03  0.00000000000E+00 0.  1.
         21   -1    0    0  501  503 -0.00000000000E+00 -0.00000000000E+00 -0.22178821735E+04  0.22178821735E+04  0.00000000000E+00 0.  1.
    9000010    2    1    2  501    0  0.15508355989E+03  0.32826961654E+03 -0.15466845063E+04  0.18931389364E+04  0.10295291248E+04 0.  0.
   -9000010    2    1    2    0  502 -0.15508355989E+03 -0.32826961654E+03  0.75899620548E+02  0.10718405248E+04  0.10056189668E+04 0.  0.
        -13    1    3    3    0    0 -0.48002550443E+01  0.60729345095E+03 -0.14255020045E+04  0.15494787362E+04  0.10566000000E+00 0.  1.
         13    1    4    4    0    0 -0.27722581936E+03 -0.20192344723E+03 -0.42202625595E+03  0.54381375979E+03  0.10566000000E+00 0. -1.
          4    1    3    3  501    0  0.15988381494E+03 -0.27902383442E+03 -0.12118250185E+03  0.34366020021E+03  0.00000000000E+00 0.  1.
         -4    1    4    4    0  502  0.12214225947E+03 -0.12634616931E+03  0.49792587650E+03  0.52802676497E+03  0.00000000000E+00 0. -1.
</event>
<event>
 8    1  0.7572579E-006  0.1052730E+04  0.7818608E-02  0.8728152E-01
         21   -1    0    0  501  502  0.00000000000E+00  0.00000000000E+00  0.20543320140E+04  0.20543320140E+04  0.00000000000E+00 0.  1.
         21   -1    0    0  502  503 -0.00000000000E+00 -0.00000000000E+00 -0.61325251717E+03  0.61325251717E+03  0.00000000000E+00 0.  1.
    9000010    2    1    2  501    0  0.16288927718E+03  0.30588118516E+03  0.11966907913E+04  0.15938344724E+04  0.99405395189E+03 0.  0.
   -9000010    2    1    2    0  503 -0.16288927718E+03 -0.30588118516E+03  0.24438870550E+03  0.10737500588E+04  0.98646699554E+03 0.  0.
        -13    1    3    3    0    0 -0.18639571619E+03 -0.18824787653E+03  0.86313874576E+03  0.90287824850E+03  0.10566000000E+00 0.  1.
         13    1    4    4    0    0  0.38219805232E+03 -0.28775393288E+03  0.22328685055E+03  0.52795331790E+03  0.10566000000E+00 0. -1.
          4    1    3    3  501    0  0.34928499337E+03  0.49412906169E+03  0.33355204554E+03  0.69095622386E+03  0.00000000000E+00 0.  1.
         -4    1    4    4    0  503 -0.54508732951E+03 -0.18127252274E+02  0.21101854949E+02  0.54579674087E+03  0.00000000000E+00 0. -1.
</event>
<event>
 8    1  0.7572579E-006  0.1029449E+04  0.7818608E-02  0.8778241E-01
         21   -1    0    0  501  502  0.00000000000E+00  0.00000000000E+00  0.96568459680E+03  0.96568459680E+03  0.00000000000E+00 0. -1.
         21   -1    0    0  502  503 -0.00000000000E+00 -0.00000000000E+00 -0.13024356987E+04  0.13024356987E+04  0.00000000000E+00 0. -1.
    9000010    2    1    2  501    0  0.14167019731E+03  0.20684892699E+03  0.39865698838E+03  0.11039445729E+04  0.99845345518E+03 0.  0.
   -9000010    2    1    2    0  503 -0.14167019731E+03 -0.20684892699E+03 -0.73540809028E+03  0.11641757226E+04  0.86696201217E+03 0.  0.
        -13    1    3    3    0    0  0.26186873513E+03  0.53719774916E+03  0.45077095679E+03  0.74856604438E+03  0.10566000000E+00 0.  1.
         13    1    4    4    0    0 -0.41313103086E+03  0.69994474609E+02 -0.63985457261E+03  0.76484662540E+03  0.10566000000E+00 0. -1.
          4    1    3    3  501    0 -0.12019853782E+03 -0.33034882217E+03 -0.52113968407E+02  0.35537852848E+03  0.00000000000E+00 0.  1.
         -4    1    4    4    0  503  0.27146083355E+03 -0.27684340160E+03 -0.95553517665E+02  0.39932909724E+03  0.00000000000E+00 0. -1.
</event>
<event>
 8    1  0.7572579E-006  0.1142794E+04  0.7818608E-02  0.8651837E-01
         21   -1    0    0  503  502  0.00000000000E+00  0.00000000000E+00  0.14260275415E+04  0.14260275415E+04  0.00000000000E+00 0. -1.
         21   -1    0    0  501  503 -0.00000000000E+00 -0.00000000000E+00 -0.14939067672E+04  0.14939067672E+04  0.00000000000E+00 0. -1.
    9000010    2    1    2  501    0  0.13663311216E+03 -0.50718491215E+03 -0.94493293436E+03  0.14793782641E+04  0.10098300131E+04 0.  0.
   -9000010    2    1    2    0  502 -0.13663311216E+03  0.50718491215E+03  0.87705370871E+03  0.14405560447E+04  0.10149253014E+04 0.  0.
        -13    1    3    3    0    0  0.22215463386E+03 -0.45207671287E+03  0.24800551563E+02  0.50432243078E+03  0.10566000000E+00 0.  1.
         13    1    4    4    0    0  0.24363731249E+03  0.35348326797E+03 -0.44731463410E+02  0.43163697218E+03  0.10566000000E+00 0. -1.
          4    1    3    3  501    0 -0.85521521696E+02 -0.55108199284E+02 -0.96973348592E+03  0.97505583329E+03  0.00000000000E+00 0.  1.
         -4    1    4    4    0  502 -0.38027042465E+03  0.15370164418E+03  0.92178517212E+03  0.10089190725E+04  0.00000000000E+00 0. -1.
</event>
<event>
 8    1  0.7572579E-006  0.1071003E+04  0.7818608E-02  0.8721117E-01
         21   -1    0    0  503  502  0.00000000000E+00  0.00000000000E+00  0.97937456718E+03  0.97937456718E+03  0.00000000000E+00 0.  1.
         21   -1    0    0  501  503 -0.00000000000E+00 -0.00000000000E+00 -0.21587738892E+04  0.21587738892E+04  0.00000000000E+00 0.  1.
    9000010    2    1    2  501    0  0.36414195755E+03  0.23725397158E+03 -0.16711395417E+04  0.19596516139E+04  0.92662736179E+03 0.  0.
   -9000010    2    1    2    0  502 -0.36414195755E+03 -0.23725397158E+03  0.49174021967E+03  0.11784968425E+04  0.97885522523E+03 0.  0.
        -13    1    3    3    0    0  0.42209913402E+03 -0.32051886747E+02 -0.16263797344E+04  0.16805671823E+04  0.10566000000E+00 0.  1.
         13    1    4    4    0    0  0.14884261573E+03 -0.45841260545E+03  0.89723755128E+02  0.49025157265E+03  0.10566000000E+00 0. -1.
          4    1    3    3  501    0 -0.57957176468E+02  0.26930585833E+03 -0.44759807313E+02  0.27908443164E+03  0.00000000000E+00 0.  1.
         -4    1    4    4    0  502 -0.51298457328E+03  0.22115863387E+03  0.40201646454E+03  0.68824526988E+03  0.00000000000E+00 0. -1.
</event>
<event>
 8    1  0.7572579E-006  0.1086827E+04  0.7818608E-02  0.8704591E-01
         21   -1    0    0  503  502  0.00000000000E+00  0.00000000000E+00  0.82169270864E+03  0.82169270864E+03  0.00000000000E+00 0. -1.
         21   -1    0    0  501  503 -0.00000000000E+00 -0.00000000000E+00 -0.15916112145E+04  0.15916112145E+04  0.00000000000E+00 0. -1.
    9000010    2    1    2  501    0 -0.40227882821E+03  0.47889312949E+02 -0.81814328988E+03  0.13603498184E+04  0.10084996499E+04 0.  0.
   -9000010    2    1    2    0  502  0.40227882821E+03 -0.47889312949E+02  0.48224783997E+02  0.10529541047E+04  0.97070339186E+03 0.  0.
        -13    1    3    3    0    0 -0.45144000632E+03 -0.16683275789E+03 -0.97676784454E+03  0.10889015941E+04  0.10566000000E+00 0.  1.
         13    1    4    4    0    0 -0.75347152216E+02 -0.20237677404E+03 -0.35063378828E+03  0.41179802897E+03  0.10566000000E+00 0. -1.
          4    1    3    3  501    0  0.49161178109E+02  0.21472207084E+03  0.15862455465E+03  0.27144822431E+03  0.00000000000E+00 0.  1.
         -4    1    4    4    0  502  0.47762598043E+03  0.15448746109E+03  0.39885857228E+03  0.64115607577E+03  0.00000000000E+00 0. -1.
</event>
<event>
 8    1  0.7572579E-006  0.1128501E+04  0.7818608E-02  0.8667252E-01
         21   -1    0    0  501  502  0.00000000000E+00  0.00000000000E+00  0.86437016887E+03  0.86437016887E+03  0.00000000000E+00 0.  1.
         21   -1    0    0  502  503 -0.00000000000E+00 -0.00000000000E+00 -0.16414133570E+04  0.16414133570E+04  0.00000000000E+00 0. -1.
    9000010    2    1    2  501    0 -0.17307437390E+03  0.45597269459E+03  0.50786732234E+02  0.11062064735E+04  0.99158843923E+03 0.  0.
   -9000010    2    1    2    0  503  0.17307437390E+03 -0.45597269459E+03 -0.82782992034E+03  0.13995770523E+04  0.10176677804E+04 0.  0.
        -13    1    3    3    0    0  0.19784242956E+03  0.63325427153E+03  0.15666238882E+03  0.68168593544E+03  0.10566000000E+00 0.  1.
         13    1    4    4    0    0  0.24887047713E+03 -0.71138412369E+03 -0.30549887509E+03  0.81322411404E+03  0.10566000000E+00 0. -1.
          4    1    3    3  501    0 -0.37091680346E+03 -0.17728157694E+03 -0.10587565658E+03  0.42452053810E+03  0.00000000000E+00 0.  1.
         -4    1    4    4    0  503 -0.75796103224E+02  0.25541142910E+03 -0.52233104525E+03  0.58635293827E+03  0.00000000000E+00 0. -1.
</event>
<event>
 8    1  0.7572579E-006  0.1333935E+04  0.7818608E-02  0.8514914E-01
         21   -1    0    0  501  502  0.00000000000E+00  0.00000000000E+00  0.12040403914E+04  0.12040403914E+04  0.00000000000E+00 0. -1.
         21   -1    0    0  502  503 -0.00000000000E+00 -0.00000000000E+00 -0.31513132400E+04  0.31513132400E+04  0.00000000000E+00 0.  1.
    9000010    2    1    2  501    0  0.12292578801E+03  0.85778860682E+03  0.62536093996E+03  0.14574533247E+04  0.99105087917E+03 0.  0.
   -9000010    2    1    2    0  503 -0.12292578801E+03 -0.85778860682E+03 -0.25726337885E+04  0.28979003067E+04  0.10141348701E+04 0.  0.
        -13    1    3    3    0    0  0.27149699889E+03 -0.85096072967E+02 -0.49054616632E+02  0.28871842445E+03  0.10566000000E+00 0.  1.
         13    1    4    4    0    0 -0.14059099669E+03  0.53167235847E+02  0.18312524881E+02  0.15141975779E+03  0.10566000000E+00 0. -1.
          4    1    3    3  501    0 -0.14857121089E+03  0.94288467979E+03  0.67441555659E+03  0.11687349002E+04  0.00000000000E+00 0.  1.
         -4    1    4    4    0  503  0.17665208685E+02 -0.91095584267E+03 -0.25909463134E+04  0.27464805489E+04  0.00000000000E+00 0. -1.
</event>
<event>
 8    1  0.7572579E-006  0.1055713E+04  0.7818608E-02  0.8732118E-01
         21   -1    0    0  501  502  0.00000000000E+00  0.00000000000E+00  0.75707538289E+03  0.75707538289E+03  0.00000000000E+00 0.  1.
         21   -1    0    0  502  503 -0.00000000000E+00 -0.00000000000E+00 -0.15461450858E+04  0.15461450858E+04  0.00000000000E+00 0.  1.
    9000010    2    1    2  501    0 -0.15608403257E+03  0.11169697637E+03 -0.61453612743E+02  0.10210525782E+04  0.10009662238E+04 0.  0.
   -9000010    2    1    2    0  503  0.15608403257E+03 -0.11169697637E+03 -0.72761609020E+03  0.12821678905E+04  0.10381189166E+04 0.  0.
        -13    1    3    3    0    0 -0.58885949208E+02 -0.17780981615E+03  0.41489560178E+03  0.45521671462E+03  0.10566000000E+00 0.  1.
         13    1    4    4    0    0 -0.30756375970E+03 -0.40151642438E+03 -0.30020477857E+03  0.58816139415E+03  0.10566000000E+00 0. -1.
          4    1    3    3  501    0 -0.97198083364E+02  0.28950679251E+03 -0.47634921452E+03  0.56583586356E+03  0.00000000000E+00 0.  1.
         -4    1    4    4    0  503  0.46364779227E+03  0.28981944801E+03 -0.42741131163E+03  0.69400649639E+03  0.00000000000E+00 0. -1.
</event>
<event>
 8    1  0.7572579E-006  0.1058716E+04  0.7818608E-02  0.8725331E-01
         21   -1    0    0  501  502  0.00000000000E+00  0.00000000000E+00  0.17293194838E+04  0.17293194838E+04  0.00000000000E+00 0.  1.
         21   -1    0    0  502  503 -0.00000000000E+00 -0.00000000000E+00 -0.67097123664E+03  0.67097123664E+03  0.00000000000E+00 0.  1.
    9000010    2    1    2  501    0  0.14129358991E+03  0.27471497811E+03  0.80337787848E+03  0.13290202618E+04  0.10126433937E+04 0.  0.
   -9000010    2    1    2    0  503 -0.14129358991E+03 -0.27471497811E+03  0.25497036872E+03  0.10712704587E+04  0.99356847224E+03 0.  0.
        -13    1    3    3    0    0  0.42732353811E+03  0.37336544260E+03  0.85088670506E+03  0.10227489213E+04  0.10566000000E+00 0.  1.
         13    1    4    4    0    0 -0.46922665578E+03 -0.17839225145E+03  0.45307577177E+03  0.67622120346E+03  0.10566000000E+00 0. -1.
          4    1    3    3  501    0 -0.28602994820E+03 -0.98650464491E+02 -0.47508826578E+02  0.30627134051E+03  0.00000000000E+00 0.  1.
         -4    1    4    4    0  503  0.32793306587E+03 -0.96322726658E+02 -0.19810540305E+03  0.39504925526E+03  0.00000000000E+00 0. -1.
</event>
<event>
 8    1  0.7572579E-006  0.1100282E+04  0.7818608E-02  0.8691910E-01
         21   -1    0    0  503  502  0.00000000000E+00  0.00000000000E+00  0.17147297246E+04  0.17147297246E+04  0.00000000000E+00 0. -1.
         21   -1    0    0  501  503 -0.00000000000E+00 -0.00000000000E+00 -0.74076602888E+03  0.74076602888E+03  0.00000000000E+00 0. -1.
    9000010    2    1    2  501    0 -0.30673178618E+03  0.29127784277E+03  0.15116153443E+03  0.10815874773E+04  0.98389760197E+03 0.  0.
   -9000010    2    1    2    0  502  0.30673178618E+03 -0.29127784277E+03  0.82280216126E+03  0.13739082762E+04  0.10157230845E+04 0.  0.
        -13    1    3    3    0    0 -0.13909631832E+03 -0.30163182340E+03 -0.18447675353E+03  0.37994897870E+03  0.10566000000E+00 0.  1.
         13    1    4    4    0    0  0.53397383050E+03  0.19006965355E+03  0.45630917249E+03  0.72764867685E+03  0.10566000000E+00 0. -1.
          4    1    3    3  501    0 -0.16763546787E+03  0.59290966617E+03  0.33563828796E+03  0.70163849857E+03  0.00000000000E+00 0.  1.
         -4    1    4    4    0  502 -0.22724204432E+03 -0.48134749632E+03  0.36649298876E+03  0.64625959933E+03  0.00000000000E+00 0. -1.
</event>
<event>
 8    1  0.7572579E-006  0.1099531E+04  0.7818608E-02  0.8688209E-01
         21   -1    0    0  503  502  0.00000000000E+00  0.00000000000E+00  0.60508243037E+03  0.60508243037E+03  0.00000000000E+00 0.  1.
         21   -1    0    0  501  503 -0.00000000000E+00 -0.00000000000E+00 -0.24060062653E+04  0.24060062653E+04  0.00000000000E+00 0.  1.
    9000010    2    1    2  501    0 -0.37270845810E+03 -0.22210650168E+03 -0.27128680625E+03  0.11325038786E+04  0.10103096609E+04 0.  0.
   -9000010    2    1    2    0  502  0.37270845810E+03  0.22210650168E+03 -0.15296370287E+04  0.18785848171E+04  0.10005241539E+04 0.  0.
        -13    1    3    3    0    0 -0.38487942938E+03  0.66781225685E+02  0.29978445364E+03  0.49240495232E+03  0.10566000000E+00 0.  1.
         13    1    4    4    0    0 -0.55265142929E+02 -0.24961632985E+03 -0.40366053271E+02  0.25882808498E+03  0.10566000000E+00 0. -1.
          4    1    3    3  501    0  0.12170971278E+02 -0.28888772737E+03 -0.57107125989E+03  0.64009892629E+03  0.00000000000E+00 0.  1.
         -4    1    4    4    0  502  0.42797360103E+03  0.47172283154E+03 -0.14892709754E+04  0.16197567321E+04  0.00000000000E+00 0. -1.
</event>
<event>
 8    1  0.1273141E-005  0.1006751E+04  0.7818608E-02  0.8771793E-01
         21   -1    0    0  501  502  0.00000000000E+00  0.00000000000E+00  0.12265526064E+04  0.12265526064E+04  0.00000000000E+00 0.  1.
         21   -1    0    0  502  503 -0.00000000000E+00 -0.00000000000E+00 -0.15245323501E+04  0.15245323501E+04  0.00000000000E+00 0.  1.
    9000010    2    1    2  501    0 -0.14892132263E+03 -0.11310920139E+03  0.78941255934E+03  0.12793434460E+04  0.98923011085E+03 0.  0.
   -9000010    2    1    2    0  503  0.14892132263E+03  0.11310920139E+03 -0.10873923031E+04  0.14717415106E+04  0.97397628382E+03 0.  0.
        -13    1    3    3    0    0  0.36486383235E+03  0.12825281198E+03  0.12719837102E+03  0.40712877163E+03  0.10566000000E+00 0.  1.
         13    1    4    4    0    0  0.32748441794E+03 -0.25351874129E+02 -0.11819917786E+04  0.12267816991E+04  0.10566000000E+00 0. -1.
          4    1    3    3  501    0 -0.51378515498E+03 -0.24136201337E+03  0.66221418833E+03  0.87221467437E+03  0.00000000000E+00 0.  1.
         -4    1    4    4    0  503 -0.17856309531E+03  0.13846107552E+03  0.94599475553E+02  0.24495981143E+03  0.00000000000E+00 0. -1.
</event>
<event>
 8    1  0.7572579E-006  0.1073845E+04  0.7818608E-02  0.8710627E-01
         21   -1    0    0  503  502  0.00000000000E+00  0.00000000000E+00  0.11216335166E+04  0.11216335166E+04  0.00000000000E+00 0. -1.
         21   -1    0    0  501  503 -0.00000000000E+00 -0.00000000000E+00 -0.13703464865E+04  0.13703464865E+04  0.00000000000E+00 0. -1.
    9000010    2    1    2  501    0 -0.30311015553E+03 -0.19461506666E+03 -0.75642734113E+03  0.13041599864E+04  0.99944992733E+03 0.  0.
   -9000010    2    1    2    0  502  0.30311015553E+03  0.19461506666E+03  0.50771437124E+03  0.11878200167E+04  0.10116282513E+04 0.  0.
        -13    1    3    3    0    0  0.36322235794E+03  0.10662797068E+02 -0.29522498850E+03  0.46819011261E+03  0.10566000000E+00 0.  1.
         13    1    4    4    0    0  0.61498774145E+03  0.34175487102E+03  0.45776241544E+03  0.83937640791E+03  0.10566000000E+00 0. -1.
          4    1    3    3  501    0 -0.66633251348E+03 -0.20527786373E+03 -0.46120235263E+03  0.83596987382E+03  0.00000000000E+00 0.  1.
         -4    1    4    4    0  502 -0.31187758592E+03 -0.14713980436E+03  0.49951955801E+02  0.34844360880E+03  0.00000000000E+00 0. -1.
</event>
<event>
 8    1  0.7572579E-006  0.1086695E+04  0.7818608E-02  0.8697699E-01
         21   -1    0    0  503  502  0.00000000000E+00  0.00000000000E+00  0.89845817457E+03  0.89845817457E+03  0.00000000000E+00 0.  1.
         21   -1    0    0  501  503 -0.00000000000E+00 -0.00000000000E+00 -0.13234485927E+04  0.13234485927E+04  0.00000000000E+00 0.  1.
    9000010    2    1    2  501    0 -0.21467946442E+03 -0.35859246606E+03 -0.31949702724E+03  0.11326886292E+04  0.10031098400E+04 0.  0.
   -9000010    2    1    2    0  502  0.21467946442E+03  0.35859246606E+03 -0.10549339092E+03  0.10892181381E+04  0.10002956901E+04 0.  0.
        -13    1    3    3    0    0  0.13869631892E+02 -0.35337382450E+03  0.30541566828E+03  0.46727311941E+03  0.10566000000E+00 0.  1.
         13    1    4    4    0    0  0.57243642902E+03  0.35853295127E+03 -0.22514475192E+03  0.71198280379E+03  0.10566000000E+00 0. -1.
          4    1    3    3  501    0 -0.22854909631E+03 -0.52186415576E+01 -0.62491269552E+03  0.66541550979E+03  0.00000000000E+00 0.  1.
         -4    1    4    4    0  502 -0.35775696460E+03  0.59514782689E-01  0.11965136100E+03  0.37723533431E+03  0.00000000000E+00 0. -1.
</event>
<event>
 8    1  0.7572579E-006  0.1030469E+04  0.7818608E-02  0.8766293E-01
         21   -1    0    0  503  502  0.00000000000E+00  0.00000000000E+00  0.67787801561E+03  0.67787801561E+03  0.00000000000E+00 0.  1.
         21   -1    0    0  501  503 -0.00000000000E+00 -0.00000000000E+00 -0.16779337349E+04  0.16779337349E+04  0.00000000000E+00 0.  1.
    9000010    2    1    2  501    0  0.21434982643E+03 -0.27369949711E+03 -0.95972277154E+03  0.14081669735E+04  0.97005626860E+03 0.  0.
   -9000010    2    1    2    0  502 -0.21434982643E+03  0.27369949711E+03 -0.40332947751E+02  0.94764477700E+03  0.88065124418E+03 0.  0.
        -13    1    3    3    0    0  0.16456888329E+03  0.23339139904E+03 -0.83656466687E+03  0.88396544928E+03  0.10566000000E+00 0.  1.
         13    1    4    4    0    0 -0.48058813299E+03 -0.97063731243E+02 -0.16414895079E+02  0.49056679610E+03  0.10566000000E+00 0. -1.
          4    1    3    3  501    0  0.49780943139E+02 -0.50709089615E+03 -0.12315810467E+03  0.52420152423E+03  0.00000000000E+00 0.  1.
         -4    1    4    4    0  502  0.26623830655E+03  0.37076322835E+03 -0.23918052672E+02  0.45707798090E+03  0.00000000000E+00 0. -1.
</event>
<event>
 8    1  0.7572579E-006  0.1005248E+04  0.7818608E-02  0.8771199E-01
         21   -1    0    0  501  502  0.00000000000E+00  0.00000000000E+00  0.35496325073E+03  0.35496325073E+03  0.00000000000E+00 0. -1.
         21   -1    0    0  502  503 -0.00000000000E+00 -0.00000000000E+00 -0.28897856851E+04  0.28897856851E+04  0.00000000000E+00 0. -1.
    9000010    2    1    2  501    0 -0.83617896333E+02 -0.84762073366E+02 -0.10350991055E+04  0.14428977785E+04  0.99817196874E+03 0.  0.
   -9000010    2    1    2    0  503  0.83617896333E+02  0.84762073366E+02 -0.14997233288E+04  0.18018511573E+04  0.99162541744E+03 0.  0.
        -13    1    3    3    0    0  0.29828539985E+03  0.32752682795E+03 -0.47258612433E+03  0.64775431983E+03  0.10566000000E+00 0.  1.
         13    1    4    4    0    0  0.29665960338E+03 -0.36979979589E+03 -0.53866168771E+03  0.71757594322E+03  0.10566000000E+00 0. -1.
          4    1    3    3  501    0 -0.38190329618E+03 -0.41228890132E+03 -0.56251298120E+03  0.79514345863E+03  0.00000000000E+00 0.  1.
         -4    1    4    4    0  503 -0.21304170705E+03  0.45456186926E+03 -0.96106164110E+03  0.10842752141E+04  0.00000000000E+00 0. -1.
</event>
<event>
 8    1  0.7572579E-006  0.1050399E+04  0.7818608E-02  0.8735043E-01
         21   -1    0    0  503  502  0.00000000000E+00  0.00000000000E+00  0.14762800059E+04  0.14762800059E+04  0.00000000000E+00 0.  1.
         21   -1    0    0  501  503 -0.00000000000E+00 -0.00000000000E+00 -0.84293560166E+03  0.84293560166E+03  0.00000000000E+00 0.  1.
    9000010    2    1    2  501    0 -0.32648872044E+03 -0.69391594342E+02  0.75010761740E+03  0.12907359738E+04  0.99595574116E+03 0.  0.
   -9000010    2    1    2    0  502  0.32648872044E+03  0.69391594342E+02 -0.11676321316E+03  0.10284796338E+04  0.96577773387E+03 0.  0.
        -13    1    3    3    0    0 -0.46980456516E+03  0.34714671808E+03  0.28440137961E+03  0.64970095367E+03  0.10566000000E+00 0.  1.
         13    1    4    4    0    0 -0.70758177632E+02 -0.27995828984E+03 -0.34709097632E+03  0.45150362208E+03  0.10566000000E+00 0. -1.
          4    1    3    3  501    0  0.14331584473E+03 -0.41653831242E+03  0.46570623780E+03  0.64103502009E+03  0.00000000000E+00 0.  1.
         -4    1    4    4    0  502  0.39724689807E+03  0.34934988418E+03  0.23032776316E+03  0.57697601170E+03  0.00000000000E+00 0. -1.
</event>
<event>
 8    1  0.7572579E-006  0.1253997E+04  0.7818608E-02  0.8570855E-01
         21   -1    0    0  503  502  0.00000000000E+00  0.00000000000E+00  0.13647040393E+04  0.13647040393E+04  0.00000000000E+00 0.  1.
         21   -1    0    0  501  503 -0.00000000000E+00 -0.00000000000E+00 -0.13333640728E+04  0.13333640728E+04  0.00000000000E+00 0. -1.
    9000010    2    1    2  501    0 -0.37566987016E+03  0.61997438852E+03 -0.50795789823E+03  0.13330220060E+04  0.99670976133E+03 0.  0.
   -9000010    2    1    2    0  502  0.37566987016E+03 -0.61997438852E+03  0.53929786472E+03  0.13650461060E+04  0.10232363319E+04 0.  0.
        -13    1    3    3    0    0 -0.22809781175E+03  0.86500967708E+03 -0.54042182012E+03  0.10451440609E+04  0.10566000000E+00 0.  1.
         13    1    4    4    0    0  0.69413737085E+03 -0.49573667473E+03  0.56356346615E+03  0.10223430598E+04  0.10566000000E+00 0. -1.
          4    1    3    3  501    0 -0.14757205842E+03 -0.24503528855E+03  0.32463921894E+02  0.28787794512E+03  0.00000000000E+00 0.  1.
         -4    1    4    4    0  502 -0.31846750069E+03 -0.12423771379E+03 -0.24265601430E+02  0.34270304629E+03  0.00000000000E+00 0. -1.
</event>
<event>
 8    1  0.7572579E-006  0.1042587E+04  0.7818608E-02  0.8739196E-01
         21   -1    0    0  501  502  0.00000000000E+00  0.00000000000E+00  0.20404137168E+04  0.20404137168E+04  0.00000000000E+00 0. -1.
         21   -1    0    0  502  503 -0.00000000000E+00 -0.00000000000E+00 -0.64411134624E+03  0.64411134624E+03  0.00000000000E+00 0. -1.
    9000010    2    1    2  501    0  0.15630396517E+02 -0.23571819404E+03  0.12720322073E+04  0.16345575645E+04  0.99895201037E+03 0.  0.
   -9000010    2    1    2    0  503 -0.15630396517E+02  0.23571819404E+03  0.12427016320E+03  0.10499674985E+04  0.10154709735E+04 0.  0.
        -13    1    3    3    0    0 -0.30028138553E+03 -0.38312846294E+03  0.23507754699E+03  0.54057172871E+03  0.10566000000E+00 0.  1.
         13    1    4    4    0    0 -0.28890058234E+03 -0.10870749113E+03  0.41916934760E+03  0.52056106100E+03  0.10566000000E+00 0. -1.
          4    1    3    3  501    0  0.31591178205E+03  0.14741026890E+03  0.10369546603E+04  0.10939858358E+04  0.00000000000E+00 0.  1.
         -4    1    4    4    0  503  0.27327018582E+03  0.34442568517E+03 -0.29489918440E+03  0.52940643746E+03  0.00000000000E+00 0. -1.
</event>
<event>
 8    1  0.7572579E-006  0.1024139E+04  0.7818608E-02  0.8764103E-01
         21   -1    0    0  503  502  0.00000000000E+00  0.00000000000E+00  0.31748009581E+03  0.31748009581E+03  0.00000000000E+00 0. -1.
         21   -1    0    0  501  503 -0.00000000000E+00 -0.00000000000E+00 -0.31472317668E+04  0.31472317668E+04  0.00000000000E+00 0. -1.
    9000010    2    1    2  501    0 -0.21766180191E+03 -0.27315094242E+02 -0.15186050248E+04  0.18316717637E+04  0.10003686591E+04 0.  0.
   -9000010    2    1    2    0  502  0.21766180191E+03  0.27315094242E+02 -0.13111466462E+04  0.16330400990E+04  0.94846806088E+03 0.  0.
        -13    1    3    3    0    0  0.16935279350E+03 -0.24961167402E+03 -0.61631683141E+02  0.30787145370E+03  0.10566000000E+00 0.  1.
         13    1    4    4    0    0  0.17672665136E+03  0.47707885555E+03 -0.56014188672E+03  0.75670039523E+03  0.10566000000E+00 0. -1.
          4    1    3    3  501    0 -0.38701459541E+03  0.22229657978E+03 -0.14569733416E+04  0.15238003100E+04  0.00000000000E+00 0.  1.
         -4    1    4    4    0  502  0.40935150547E+02 -0.44976376131E+03 -0.75100475950E+03  0.87633970372E+03  0.00000000000E+00 0. -1.
</event>
<event>
 8    1  0.7572579E-006  0.1056930E+04  0.7818608E-02  0.8724600E-01
         21   -1    0    0  501  502  0.00000000000E+00  0.00000000000E+00  0.10195936018E+04  0.10195936018E+04  0.00000000000E+00 0. -1.
         21   -1    0    0  502  503 -0.00000000000E+00 -0.00000000000E+00 -0.13950296238E+04  0.13950296238E+04  0.00000000000E+00 0. -1.
    9000010    2    1    2  501    0 -0.14796806050E+02 -0.34221146649E+03  0.37859304165E+03  0.11226907903E+04  0.99988713670E+03 0.  0.
   -9000010    2    1    2    0  503  0.14796806050E+02  0.34221146649E+03 -0.75402906363E+03  0.12919324353E+04  0.99156540651E+03 0.  0.
        -13    1    3    3    0    0 -0.30671241207E+03 -0.69044439593E+02 -0.23349033236E+03  0.39160871393E+03  0.10566000000E+00 0.  1.
         13    1    4    4    0    0 -0.27369068905E+03  0.47978037275E+03 -0.79674236181E+03  0.96948140859E+03  0.10566000000E+00 0. -1.
          4    1    3    3  501    0  0.29191560602E+03 -0.27316702690E+03  0.61208337402E+03  0.73108207636E+03  0.00000000000E+00 0.  1.
         -4    1    4    4    0  503  0.28848749510E+03 -0.13756890626E+03  0.42713298181E+02  0.32245102673E+03  0.00000000000E+00 0. -1.
</event>
<event>
 8    1  0.7572579E-006  0.1125866E+04  0.7818608E-02  0.8688068E-01
         21   -1    0    0  501  502  0.00000000000E+00  0.00000000000E+00  0.13002965878E+04  0.13002965878E+04  0.00000000000E+00 0.  1.
         21   -1    0    0  502  503 -0.00000000000E+00 -0.00000000000E+00 -0.91952310640E+03  0.91952310640E+03  0.00000000000E+00 0. -1.
    9000010    2    1    2  501    0  0.14934011348E+03 -0.23513884213E+03  0.42254094423E+03  0.12025451778E+04  0.10908626451E+04 0.  0.
   -9000010    2    1    2    0  503 -0.14934011348E+03  0.23513884213E+03 -0.41767462860E+02  0.10172745164E+04  0.97750200829E+03 0.  0.
        -13    1    3    3    0    0 -0.42868104208E+03  0.84669334761E+02  0.39046459763E+02  0.43870373747E+03  0.10566000000E+00 0.  1.
         13    1    4    4    0    0  0.34685096377E+03 -0.15290580997E+03  0.43799800467E+02  0.38158119906E+03  0.10566000000E+00 0. -1.
          4    1    3    3  501    0  0.57802115556E+03 -0.31980817689E+03  0.38349448447E+03  0.76384144029E+03  0.00000000000E+00 0.  1.
         -4    1    4    4    0  503 -0.49619107725E+03  0.38804465210E+03 -0.85567263326E+02  0.63569331735E+03  0.00000000000E+00 0. -1.
</event>
<event>
 8    1  0.7572579E-006  0.1026149E+04  0.7818608E-02  0.8751706E-01
         21   -1    0    0  503  502  0.00000000000E+00  0.00000000000E+00  0.10375085768E+04  0.10375085768E+04  0.00000000000E+00 0. -1.
         21   -1    0    0  501  503 -0.00000000000E+00 -0.00000000000E+00 -0.10773931514E+04  0.10773931514E+04  0.00000000000E+00 0. -1.
    9000010    2    1    2  501    0 -0.18009682058E+03 -0.97588255291E+02 -0.28588083207E+03  0.10652275731E+04  0.10054966931E+04 0.  0.
   -9000010    2    1    2    0  502  0.18009682058E+03  0.97588255291E+02  0.24599625754E+03  0.10496741551E+04  0.99967161651E+03 0.  0.
        -13    1    3    3    0    0 -0.49549931721E+02  0.38611741108E+03  0.13382856406E+03  0.41164541367E+03  0.10566000000E+00 0.  1.
         13    1    4    4    0    0 -0.25856819908E+03  0.25694614601E+03  0.41586106602E+03  0.55300928827E+03  0.10566000000E+00 0. -1.
          4    1    3    3  501    0 -0.13054688886E+03 -0.48370566637E+03 -0.41970939613E+03  0.65358215939E+03  0.00000000000E+00 0.  1.
         -4    1    4    4    0  502  0.43866501966E+03 -0.15935789072E+03 -0.16986480847E+03  0.49666486685E+03  0.00000000000E+00 0. -1.
</event>
<event>
 8    1  0.7572579E-006  0.1063051E+04  0.7818608E-02  0.8718600E-01
         21   -1    0    0  501  502  0.00000000000E+00  0.00000000000E+00  0.77847545634E+03  0.77847545634E+03  0.00000000000E+00 0.  1.
         21   -1    0    0  502  503 -0.00000000000E+00 -0.00000000000E+00 -0.19997552236E+04  0.19997552236E+04  0.00000000000E+00 0.  1.
    9000010    2    1    2  501    0  0.29100371065E+03  0.15136003560E+03  0.12216149926E+03  0.10650725316E+04  0.10059140349E+04 0.  0.
   -9000010    2    1    2    0  503 -0.29100371065E+03 -0.15136003560E+03 -0.13434412665E+04  0.17131581483E+04  0.10111792050E+04 0.  0.
        -13    1    3    3    0    0  0.63473379391E+02  0.27202814573E+03  0.52050444922E+03  0.59072250235E+03  0.10566000000E+00 0.  1.
         13    1    4    4    0    0  0.14589282864E+02 -0.39641967610E+03 -0.12486333207E+04  0.13101322786E+04  0.10566000000E+00 0. -1.
          4    1    3    3  501    0  0.22753033126E+03 -0.12066811014E+03 -0.39834294996E+03  0.47435002923E+03  0.00000000000E+00 0.  1.
         -4    1    4    4    0  503 -0.30559299351E+03  0.24505964051E+03 -0.94807945846E+02  0.40302586975E+03  0.00000000000E+00 0. -1.
</event>
<event>
 8    1  0.7572579E-006  0.1068631E+04  0.7818608E-02  0.8723282E-01
         21   -1    0    0  501  502  0.00000000000E+00  0.00000000000E+00  0.13101499415E+04  0.13101499415E+04  0.00000000000E+00 0. -1.
         21   -1    0    0  502  503 -0.00000000000E+00 -0.00000000000E+00 -0.12818758520E+04  0.12818758520E+04  0.00000000000E+00 0. -1.
    9000010    2    1    2  501    0 -0.26999549407E+03  0.16113670872E+02  0.78111890845E+03  0.13236759307E+04  0.10338346111E+04 0.  0.
   -9000010    2    1    2    0  503  0.26999549407E+03 -0.16113670872E+02 -0.75284481899E+03  0.12683498627E+04  0.98426563265E+03 0.  0.
        -13    1    3    3    0    0  0.39900885899E+03  0.10605355494E+02  0.31062651052E+03  0.50577602090E+03  0.10566000000E+00 0.  1.
         13    1    4    4    0    0  0.63051440568E+03  0.27452686844E+02 -0.33414837059E+03  0.71411288359E+03  0.10566000000E+00 0. -1.
          4    1    3    3  501    0 -0.66900435306E+03  0.55083153778E+01  0.47049239793E+03  0.81789990980E+03  0.00000000000E+00 0.  1.
         -4    1    4    4    0  503 -0.36051891161E+03 -0.43566357717E+02 -0.41869644840E+03  0.55423697915E+03  0.00000000000E+00 0. -1.
</event>
<event>
 8    1  0.7572579E-006  0.1056021E+04  0.7818608E-02  0.8727013E-01
         21   -1    0    0  501  502  0.00000000000E+00  0.00000000000E+00  0.15695412455E+04  0.15695412455E+04  0.00000000000E+00 0.  1.
         21   -1    0    0  502  503 -0.00000000000E+00 -0.00000000000E+00 -0.74640503559E+03  0.74640503559E+03  0.00000000000E+00 0.  1.
    9000010    2    1    2  501    0  0.13778974031E+03  0.28913104067E+03  0.69631520913E+03  0.12523376937E+04  0.99041004513E+03 0.  0.
   -9000010    2    1    2    0  503 -0.13778974031E+03 -0.28913104067E+03  0.12682100082E+03  0.10636085874E+04  0.10062787336E+04 0.  0.
        -13    1    3    3    0    0  0.48481495982E+03  0.43047323310E+03  0.32668173653E+03  0.72599842826E+03  0.10566000000E+00 0.  1.
         13    1    4    4    0    0 -0.19992736694E+02  0.22043057024E+03  0.41216259922E+03  0.46783262517E+03  0.10566000000E+00 0. -1.
          4    1    3    3  501    0 -0.34702521951E+03 -0.14134219243E+03  0.36963347259E+03  0.52633926549E+03  0.00000000000E+00 0.  1.
         -4    1    4    4    0  503 -0.11779700362E+03 -0.50956161091E+03 -0.28534159840E+03  0.59577596221E+03  0.00000000000E+00 0. -1.
</event>
<event>
 8    1  0.7572579E-006  0.1067191E+04  0.7818608E-02  0.8717928E-01
         21   -1    0    0  503  502  0.00000000000E+00  0.00000000000E+00  0.22934546880E+04  0.22934546880E+04  0.00000000000E+00 0.  1.
         21   -1    0    0  501  503 -0.00000000000E+00 -0.00000000000E+00 -0.61955001764E+03  0.61955001764E+03  0.00000000000E+00 0.  1.
    9000010    2    1    2  501    0 -0.18142309479E+03  0.31098943393E+03  0.15136330591E+04  0.18520207739E+04  0.10046228855E+04 0.  0.
   -9000010    2    1    2    0  502  0.18142309479E+03 -0.31098943393E+03  0.16027161123E+03  0.10609839317E+04  0.98507418329E+03 0.  0.
        -13    1    3    3    0    0  0.55651284341E+02  0.39983381262E+03  0.15450380785E+04  0.15969053881E+04  0.10566000000E+00 0.  1.
         13    1    4    4    0    0  0.67454972362E+02 -0.57660295866E+03 -0.18631022656E+03  0.60969882476E+03  0.10566000000E+00 0. -1.
          4    1    3    3  501    0 -0.23707437913E+03 -0.88844378689E+02 -0.31405019420E+02  0.25511538587E+03  0.00000000000E+00 0.  1.
         -4    1    4    4    0  502  0.11396812242E+03  0.26561352472E+03  0.34658183779E+03  0.45128510692E+03  0.00000000000E+00 0. -1.
</event>
<event>
 8    1  0.7572579E-006  0.1097062E+04  0.7818608E-02  0.8693152E-01
         21   -1    0    0  503  502  0.00000000000E+00  0.00000000000E+00  0.17378314703E+04  0.17378314703E+04  0.00000000000E+00 0. -1.
         21   -1    0    0  501  503 -0.00000000000E+00 -0.00000000000E+00 -0.75973631209E+03  0.75973631209E+03  0.00000000000E+00 0. -1.
    9000010    2    1    2  501    0 -0.35741255506E+03  0.12048768763E+03  0.76114917287E+02  0.10773163871E+04  0.10062584658E+04 0.  0.
   -9000010    2    1    2    0  502  0.35741255506E+03 -0.12048768763E+03  0.90198024089E+03  0.14202513952E+04  0.10301867080E+04 0.  0.
        -13    1    3    3    0    0  0.28359517454E+03 -0.11427226171E+03 -0.17220334703E+03  0.35091078170E+03  0.10566000000E+00 0.  1.
         13    1    4    4    0    0 -0.19860297921E+03  0.16988713406E+03  0.72173235782E+03  0.76759519876E+03  0.10566000000E+00 0. -1.
          4    1    3    3  501    0 -0.64100772960E+03  0.23475994934E+03  0.24831826432E+03  0.72640560544E+03  0.00000000000E+00 0.  1.
         -4    1    4    4    0  502  0.55601553427E+03 -0.29037482169E+03  0.18024788307E+03  0.65265619646E+03  0.00000000000E+00 0. -1.
</event>
<event>
 8    1  0.7572579E-006  0.1049459E+04  0.7818608E-02  0.8736928E-01
         21   -1    0    0  503  502  0.00000000000E+00  0.00000000000E+00  0.10509732950E+04  0.10509732950E+04  0.00000000000E+00 0.  1.
         21   -1    0    0  501  503 -0.00000000000E+00 -0.00000000000E+00 -0.11625932538E+04  0.11625932538E+04  0.00000000000E+00 0.  1.
    9000010    2    1    2  501    0 -0.80644018960E+01  0.35740802959E+03 -0.44918066548E+03  0.11111549281E+04  0.95136558152E+03 0.  0.
   -9000010    2    1    2    0  502  0.80644018960E+01 -0.35740802959E+03  0.33756070663E+03  0.11024116208E+04  0.98669074021E+03 0.  0.
        -13    1    3    3    0    0  0.31736157280E+03  0.46282584451E+03 -0.18944895407E+02  0.56150249373E+03  0.10566000000E+00 0.  1.
         13    1    4    4    0    0 -0.13816305315E+03  0.27755281909E+03  0.32718371390E+03  0.45074803432E+03  0.10566000000E+00 0. -1.
          4    1    3    3  501    0 -0.32542597470E+03 -0.10541781492E+03 -0.43023577007E+03  0.54965243432E+03  0.00000000000E+00 0.  1.
         -4    1    4    4    0  502  0.14622745505E+03 -0.63496084867E+03  0.10376992732E+02  0.65166358648E+03  0.00000000000E+00 0. -1.
</event>
<event>
 8    1  0.7572579E-006  0.1094032E+04  0.7818608E-02  0.8692021E-01
         21   -1    0    0  503  502  0.00000000000E+00  0.00000000000E+00  0.21932062438E+04  0.21932062438E+04  0.00000000000E+00 0. -1.
         21   -1    0    0  501  503 -0.00000000000E+00 -0.00000000000E+00 -0.57568210531E+03  0.57568210531E+03  0.00000000000E+00 0. -1.
    9000010    2    1    2  501    0  0.33686235706E+03 -0.25815990558E+03  0.48159651698E+03  0.11953412366E+04  0.10083564262E+04 0.  0.
   -9000010    2    1    2    0  502 -0.33686235706E+03  0.25815990558E+03  0.11359276215E+04  0.15735471125E+04  0.10027941810E+04 0.  0.
        -13    1    3    3    0    0  0.11090421578E+03  0.11090585642E+03  0.69525514906E+03  0.71272686741E+03  0.10566000000E+00 0.  1.
         13    1    4    4    0    0 -0.46279251147E+03  0.54140737636E+03  0.10168461601E+04  0.12414809625E+04  0.10566000000E+00 0. -1.
          4    1    3    3  501    0  0.22595814128E+03 -0.36906576200E+03 -0.21365863208E+03  0.48261436919E+03  0.00000000000E+00 0.  1.
         -4    1    4    4    0  502  0.12593015441E+03 -0.28324747079E+03  0.11908146139E+03  0.33206614995E+03  0.00000000000E+00 0. -1.
</event>
<event>
 8    1  0.7572579E-006  0.1024251E+04  0.7818608E-02  0.8753824E-01
         21   -1    0    0  503  502  0.00000000000E+00  0.00000000000E+00  0.13417700927E+04  0.13417700927E+04  0.00000000000E+00 0. -1.
         21   -1    0    0  501  503 -0.00000000000E+00 -0.00000000000E+00 -0.89873911420E+03  0.89873911420E+03  0.00000000000E+00 0. -1.
    9000010    2    1    2  501    0 -0.13698384385E+03 -0.14313882723E+03 -0.19136313169E+03  0.10419745020E+04  0.10049068202E+04 0.  0.
   -9000010    2    1    2    0  502  0.13698384385E+03  0.14313882723E+03  0.63439411016E+03  0.11985347049E+04  0.99738470736E+03 0.  0.
        -13    1    3    3    0    0 -0.23445751431E+03  0.38705826910E+03 -0.21785729289E+03  0.50224121787E+03  0.10566000000E+00 0.  1.
         13    1    4    4    0    0 -0.36502143874E+03 -0.16285471408E+03  0.40042654917E+03  0.56577711255E+03  0.10566000000E+00 0. -1.
          4    1    3    3  501    0  0.97473670462E+02 -0.53019709634E+03  0.26494161199E+02  0.53973328411E+03  0.00000000000E+00 0.  1.
         -4    1    4    4    0  502  0.50200528259E+03  0.30599354132E+03  0.23396756100E+03  0.63275759235E+03  0.00000000000E+00 0. -1.
</event>
<event>
 8    1  0.7572579E-006  0.1055299E+04  0.7818608E-02  0.8728231E-01
         21   -1    0    0  503  502  0.00000000000E+00  0.00000000000E+00  0.72206421860E+03  0.72206421860E+03  0.00000000000E+00 0. -1.
         21   -1    0    0  501  503 -0.00000000000E+00 -0.00000000000E+00 -0.16204201277E+04  0.16204201277E+04  0.00000000000E+00 0. -1.
    9000010    2    1    2  501    0  0.66783627450E+02  0.31312804618E+03 -0.74213673007E+03  0.12756848203E+04  0.98696282013E+03 0.  0.
   -9000010    2    1    2    0  502 -0.66783627450E+02 -0.31312804618E+03 -0.15621917908E+03  0.10667995261E+04  0.10055583378E+04 0.  0.
        -13    1    3    3    0    0  0.39203588635E+03  0.50832887378E+03 -0.57252650666E+03  0.86016102684E+03  0.10566000000E+00 0.  1.
         13    1    4    4    0    0  0.11574643303E+01  0.25870961644E+03  0.25181729666E+03  0.36103180944E+03  0.10566000000E+00 0. -1.
          4    1    3    3  501    0 -0.32525225890E+03 -0.19520082760E+03 -0.16961022341E+03  0.41552379342E+03  0.00000000000E+00 0.  1.
         -4    1    4    4    0  502 -0.67941091780E+02 -0.57183766262E+03 -0.40803647574E+03  0.70576771666E+03  0.00000000000E+00 0. -1.
</event>
<event>
 8    1  0.7572579E-006  0.1004907E+04  0.7818608E-02  0.8782839E-01
         21   -1    0    0  501  502  0.00000000000E+00  0.00000000000E+00  0.24300777571E+04  0.24300777571E+04  0.00000000000E+00 0. -1.
         21   -1    0    0  502  503 -0.00000000000E+00 -0.00000000000E+00 -0.54708009177E+03  0.54708009177E+03  0.00000000000E+00 0. -1.
    9000010    2    1    2  501    0  0.15758399304E+03  0.63635412902E+01  0.17478700068E+04  0.20161566345E+04  0.99245393059E+03 0.  0.
   -9000010    2    1    2    0  503 -0.15758399304E+03 -0.63635412902E+01  0.13512765849E+03  0.96100121441E+03  0.93829134094E+03 0.  0.
        -13    1    3    3    0    0  0.29654168589E+03  0.11326966507E+03  0.64806213991E+02  0.32398587165E+03  0.10566000000E+00 0.  1.
         13    1    4    4    0    0  0.98503714384E+02  0.43110866017E+03  0.96434311343E+02  0.45261158424E+03  0.10566000000E+00 0. -1.
          4    1    3    3  501    0 -0.13895769285E+03 -0.10690612377E+03  0.16830637929E+04  0.16921707628E+04  0.00000000000E+00 0.  1.
         -4    1    4    4    0  503 -0.25608770743E+03 -0.43747220146E+03  0.38693347150E+02  0.50838963017E+03  0.00000000000E+00 0. -1.
</event>
<event>
 8    1  0.7572579E-006  0.1023757E+04  0.7818608E-02  0.8775064E-01
         21   -1    0    0  501  502  0.00000000000E+00  0.00000000000E+00  0.18717287278E+04  0.18717287278E+04  0.00000000000E+00 0. -1.
         21   -1    0    0  502  503 -0.00000000000E+00 -0.00000000000E+00 -0.60440753435E+03  0.60440753435E+03  0.00000000000E+00 0. -1.
    9000010    2    1    2  501    0  0.25320752209E+03 -0.13485755331E+03  0.11483674555E+04  0.15384495145E+04  0.98274029480E+03 0.  0.
   -9000010    2    1    2    0  503 -0.25320752209E+03  0.13485755331E+03  0.11895373795E+03  0.93768674760E+03  0.88476315245E+03 0.  0.
        -13    1    3    3    0    0  0.11640339845E+03 -0.20514487779E+03  0.13007370396E+04  0.13219497076E+04  0.10566000000E+00 0.  1.
         13    1    4    4    0    0  0.14740009485E+03  0.35094184472E+03 -0.14984622216E+03  0.40907318147E+03  0.10566000000E+00 0. -1.
          4    1    3    3  501    0  0.13680412365E+03  0.70287324482E+02 -0.15236958413E+03  0.21649980692E+03  0.00000000000E+00 0.  1.
         -4    1    4    4    0  503 -0.40060761694E+03 -0.21608429141E+03  0.26879996011E+03  0.52861356614E+03  0.00000000000E+00 0. -1.
</event>
<event>
 8    1  0.7572579E-006  0.1047187E+04  0.7818608E-02  0.8738442E-01
         21   -1    0    0  501  502  0.00000000000E+00  0.00000000000E+00  0.94610432636E+03  0.94610432636E+03  0.00000000000E+00 0. -1.
         21   -1    0    0  502  503 -0.00000000000E+00 -0.00000000000E+00 -0.11278053105E+04  0.11278053105E+04  0.00000000000E+00 0. -1.
    9000010    2    1    2  501    0  0.19109733577E+03  0.50904187680E+02 -0.13973126098E+03  0.10258823245E+04  0.99689532564E+03 0.  0.
   -9000010    2    1    2    0  503 -0.19109733577E+03 -0.50904187680E+02 -0.41969723152E+02  0.10480273124E+04  0.10283435038E+04 0.  0.
        -13    1    3    3    0    0  0.21159012353E+03  0.21851430380E+03 -0.52414941726E+03  0.60601279204E+03  0.10566000000E+00 0.  1.
         13    1    4    4    0    0  0.29821498739E+03 -0.28506778460E+03  0.19470685225E+03  0.45618701209E+03  0.10566000000E+00 0. -1.
          4    1    3    3  501    0 -0.20492787759E+02 -0.16761011612E+03  0.38441815628E+03  0.41986953242E+03  0.00000000000E+00 0.  1.
         -4    1    4    4    0  503 -0.48931232316E+03  0.23416359692E+03 -0.23667657540E+03  0.59184030030E+03  0.00000000000E+00 0. -1.
</event>
<event>
 8    1  0.7572579E-006  0.1032309E+04  0.7818608E-02  0.8749903E-01
         21   -1    0    0  501  502  0.00000000000E+00  0.00000000000E+00  0.80575581705E+03  0.80575581705E+03  0.00000000000E+00 0.  1.
         21   -1    0    0  502  503 -0.00000000000E+00 -0.00000000000E+00 -0.13342837247E+04  0.13342837247E+04  0.00000000000E+00 0.  1.
    9000010    2    1    2  501    0 -0.56436268149E+02 -0.11458022813E+03 -0.45252296075E+03  0.11271377269E+04  0.10243772471E+04 0.  0.
   -9000010    2    1    2    0  503  0.56436268149E+02  0.11458022813E+03 -0.76004946864E+02  0.10129018148E+04  0.10019379489E+04 0.  0.
        -13    1    3    3    0    0 -0.15957949920E+03 -0.29795822399E+03 -0.71492776865E+03  0.79080114147E+03  0.10566000000E+00 0.  1.
         13    1    4    4    0    0  0.37700550108E+02 -0.69091468271E+02  0.44927669718E+03  0.45611898037E+03  0.10566000000E+00 0. -1.
          4    1    3    3  501    0  0.10314323105E+03  0.18337799586E+03  0.26240480789E+03  0.33633658540E+03  0.00000000000E+00 0.  1.
         -4    1    4    4    0  503  0.18735718041E+02  0.18367169640E+03 -0.52528164404E+03  0.55678283447E+03  0.00000000000E+00 0. -1.
</event>
<event>
 8    1  0.7572579E-006  0.1091507E+04  0.7818608E-02  0.8697607E-01
         21   -1    0    0  501  502  0.00000000000E+00  0.00000000000E+00  0.15211834541E+04  0.15211834541E+04  0.00000000000E+00 0. -1.
         21   -1    0    0  502  503 -0.00000000000E+00 -0.00000000000E+00 -0.79004553584E+03  0.79004553584E+03  0.00000000000E+00 0. -1.
    9000010    2    1    2  501    0  0.22840875657E+03 -0.32148124627E+03  0.17611275494E+03  0.11056233658E+04  0.10177753056E+04 0.  0.
   -9000010    2    1    2    0  503 -0.22840875657E+03  0.32148124627E+03  0.55502516336E+03  0.12056056242E+04  0.99494283119E+03 0.  0.
        -13    1    3    3    0    0  0.40726624650E+03 -0.12324346079E+03  0.51894433357E+03  0.67108716176E+03  0.10566000000E+00 0.  1.
         13    1    4    4    0    0 -0.31159520686E+03 -0.40637050392E+02 -0.19413746611E+03  0.36936744539E+03  0.10566000000E+00 0. -1.
          4    1    3    3  501    0 -0.17885748994E+03 -0.19823778548E+03 -0.34283157863E+03  0.43453620402E+03  0.00000000000E+00 0.  1.
         -4    1    4    4    0  503  0.83186450296E+02  0.36211829666E+03  0.74916262947E+03  0.83623817880E+03  0.00000000000E+00 0. -1.
</event>
<event>
 8    1  0.7572579E-006  0.1067197E+04  0.7818608E-02  0.8741574E-01
         21   -1    0    0  503  502  0.00000000000E+00  0.00000000000E+00  0.92459037379E+03  0.92459037379E+03  0.00000000000E+00 0.  1.
         21   -1    0    0  501  503 -0.00000000000E+00 -0.00000000000E+00 -0.16531127664E+04  0.16531127664E+04  0.00000000000E+00 0.  1.
    9000010    2    1    2  501    0  0.24467113497E+03  0.27898715628E+03 -0.11250240193E+04  0.15506737187E+04  0.10006058866E+04 0.  0.
   -9000010    2    1    2    0  502 -0.24467113497E+03 -0.27898715628E+03  0.39650162668E+03  0.10270294215E+04  0.87170986857E+03 0.  0.
        -13    1    3    3    0    0  0.40939733148E+03  0.19639798496E+03 -0.46412027396E+02  0.45643447609E+03  0.10566000000E+00 0.  1.
         13    1    4    4    0    0 -0.35455106852E+03  0.49133510335E+02  0.54373777835E+03  0.65097722295E+03  0.10566000000E+00 0. -1.
          4    1    3    3  501    0 -0.16472619651E+03  0.82589171319E+02 -0.10786119919E+04  0.10942392426E+04  0.00000000000E+00 0.  1.
         -4    1    4    4    0  502  0.10987993355E+03 -0.32812066661E+03 -0.14723615168E+03  0.37605219852E+03  0.00000000000E+00 0. -1.
</event>
<event>
 8    1  0.7572579E-006  0.1057354E+04  0.7818608E-02  0.8728038E-01
         21   -1    0    0  503  502  0.00000000000E+00  0.00000000000E+00  0.67562475428E+03  0.67562475428E+03  0.00000000000E+00 0. -1.
         21   -1    0    0  501  503 -0.00000000000E+00 -0.00000000000E+00 -0.19048207490E+04  0.19048207490E+04  0.00000000000E+00 0. -1.
    9000010    2    1    2  501    0 -0.28344588729E+03  0.66190922074E+02 -0.11232289546E+04  0.15426087620E+04  0.10165016965E+04 0.  0.
   -9000010    2    1    2    0  502  0.28344588729E+03 -0.66190922074E+02 -0.10596704015E+03  0.10378367413E+04  0.99053181613E+03 0.  0.
        -13    1    3    3    0    0 -0.69032249551E+02 -0.44584224511E+03 -0.27336349068E+03  0.52751148633E+03  0.10566000000E+00 0.  1.
         13    1    4    4    0    0  0.13723373038E+03 -0.42408848609E+03 -0.36192641688E+03  0.57417321706E+03  0.10566000000E+00 0. -1.
          4    1    3    3  501    0 -0.21441363773E+03  0.51203316719E+03 -0.84986546389E+03  0.10150972757E+04  0.00000000000E+00 0.  1.
         -4    1    4    4    0  502  0.14621215691E+03  0.35789756402E+03  0.25595937673E+03  0.46366352422E+03  0.00000000000E+00 0. -1.
</event>
<event>
 8    1  0.7572579E-006  0.1047678E+04  0.7818608E-02  0.8733656E-01
         21   -1    0    0  503  502  0.00000000000E+00  0.00000000000E+00  0.12736097759E+04  0.12736097759E+04  0.00000000000E+00 0.  1.
         21   -1    0    0  501  503 -0.00000000000E+00 -0.00000000000E+00 -0.86110524632E+03  0.86110524632E+03  0.00000000000E+00 0.  1.
    9000010    2    1    2  501    0  0.16889382171E+03 -0.20780300545E+03  0.98961922058E+02  0.10523414768E+04  0.10128780329E+04 0.  0.
   -9000010    2    1    2    0  502 -0.16889382171E+03  0.20780300545E+03  0.31354260755E+03  0.10823735455E+04  0.10007578694E+04 0.  0.
        -13    1    3    3    0    0  0.29949679012E+03 -0.34141169238E+02 -0.40422416051E+03  0.50424312572E+03  0.10566000000E+00 0.  1.
         13    1    4    4    0    0  0.40920354518E+03  0.28140298975E+02  0.23282836333E+03  0.47164443785E+03  0.10566000000E+00 0. -1.
          4    1    3    3  501    0 -0.13060296842E+03 -0.17366183621E+03  0.50318608257E+03  0.54809835104E+03  0.00000000000E+00 0.  1.
         -4    1    4    4    0  502 -0.57809736689E+03  0.17966270648E+03  0.80714244213E+02  0.61072910764E+03  0.00000000000E+00 0. -1.
</event>
<event>
 8    1  0.7572579E-006  0.1035652E+04  0.7818608E-02  0.8750795E-01
         21   -1    0    0  501  502  0.00000000000E+00  0.00000000000E+00  0.17648320588E+04  0.17648320588E+04  0.00000000000E+00 0.  1.
         21   -1    0    0  502  503 -0.00000000000E+00 -0.00000000000E+00 -0.65171740919E+03  0.65171740919E+03  0.00000000000E+00 0.  1.
    9000010    2    1    2  501    0 -0.10141929070E+03  0.20599246774E+03  0.95275890865E+03  0.14072399746E+04  0.10098792199E+04 0.  0.
   -9000010    2    1    2    0  503  0.10141929070E+03 -0.20599246774E+03  0.16035574096E+03  0.10093094934E+04  0.96967670924E+03 0.  0.
        -13    1    3    3    0    0 -0.10067750596E+03 -0.37709940729E+03  0.15696357532E+03  0.42068693625E+03  0.10566000000E+00 0.  1.
         13    1    4    4    0    0 -0.35408975006E+03  0.14760476111E+03  0.19748414605E+03  0.43147041116E+03  0.10566000000E+00 0. -1.
          4    1    3    3  501    0 -0.74178474025E+00  0.58309187503E+03  0.79579533333E+03  0.98655303837E+03  0.00000000000E+00 0.  1.
         -4    1    4    4    0  503  0.45550904076E+03 -0.35359722884E+03 -0.37128405088E+02  0.57783908221E+03  0.00000000000E+00 0. -1.
</event>
<event>
 8    1  0.7572579E-006  0.9950998E+03  0.7818608E-02  0.8780021E-01
         21   -1    0    0  503  502  0.00000000000E+00  0.00000000000E+00  0.12483261775E+04  0.12483261775E+04  0.00000000000E+00 0. -1.
         21   -1    0    0  501  503 -0.00000000000E+00 -0.00000000000E+00 -0.87194281255E+03  0.87194281255E+03  0.00000000000E+00 0. -1.
    9000010    2    1    2  501    0  0.40005731589E+02  0.15860734408E+03  0.51246298235E+03  0.11193042276E+04  0.98156349639E+03 0.  0.
   -9000010    2    1    2    0  502 -0.40005731589E+02 -0.15860734408E+03 -0.13607961745E+03  0.10009647624E+04  0.97808795370E+03 0.  0.
        -13    1    3    3    0    0 -0.10340665657E+03  0.25090095095E+03  0.76661781195E+03  0.81323250339E+03  0.10566000000E+00 0.  1.
         13    1    4    4    0    0 -0.37487039203E+03  0.17821148253E+03 -0.28466619442E+03  0.50331103379E+03  0.10566000000E+00 0. -1.
          4    1    3    3  501    0  0.14341238816E+03 -0.92293606868E+02 -0.25415482959E+03  0.30607172419E+03  0.00000000000E+00 0.  1.
         -4    1    4    4    0  502  0.33486466044E+03 -0.33681882661E+03  0.14858657697E+03  0.49765372864E+03  0.00000000000E+00 0. -1.
</event>
<event>
 8    1  0.7572579E-006  0.1303380E+04  0.7818608E-02  0.8533302E-01
         21   -1    0    0  501  502  0.00000000000E+00  0.00000000000E+00  0.24588965392E+04  0.24588965392E+04  0.00000000000E+00 0.  1.
         21   -1    0    0  502  503 -0.00000000000E+00 -0.00000000000E+00 -0.70892810651E+03  0.70892810651E+03  0.00000000000E+00 0. -1.
    9000010    2    1    2  501    0  0.44437039199E+03 -0.70334592609E+03  0.11453970407E+04  0.17351462510E+04  0.10033133082E+04 0.  0.
   -9000010    2    1    2    0  503 -0.44437039199E+03  0.70334592609E+03  0.60457139197E+03  0.14326783947E+04  0.99744687962E+03 0.  0.
        -13    1    3    3    0    0  0.34468492618E+03 -0.49480368563E+03  0.13161858842E+04  0.14477512489E+04  0.10566000000E+00 0.  1.
         13    1    4    4    0    0 -0.15570878322E+03 -0.18294503912E+03 -0.10403679080E+03  0.26179720685E+03  0.10566000000E+00 0. -1.
          4    1    3    3  501    0  0.99685465813E+02 -0.20854224046E+03 -0.17078884353E+03  0.28739500209E+03  0.00000000000E+00 0.  1.
         -4    1    4    4    0  503 -0.28866160877E+03  0.88629096521E+03  0.70860818278E+03  0.11708811879E+04  0.00000000000E+00 0. -1.
</event>
<event>
 8    1  0.7572579E-006  0.1092550E+04  0.7818608E-02  0.8692321E-01
         21   -1    0    0  501  502  0.00000000000E+00  0.00000000000E+00  0.18468146530E+04  0.18468146530E+04  0.00000000000E+00 0. -1.
         21   -1    0    0  502  503 -0.00000000000E+00 -0.00000000000E+00 -0.85246337554E+03  0.85246337554E+03  0.00000000000E+00 0. -1.
    9000010    2    1    2  501    0 -0.24922680590E+02  0.44316869244E+03  0.11615440019E+04  0.15946316601E+04  0.99832160805E+03 0.  0.
   -9000010    2    1    2    0  503  0.24922680590E+02 -0.44316869244E+03 -0.16719272437E+03  0.11046463685E+04  0.99763247861E+03 0.  0.
        -13    1    3    3    0    0  0.30905459169E+03 -0.10576047871E+03  0.78412206793E+03  0.84943949054E+03  0.10566000000E+00 0.  1.
         13    1    4    4    0    0  0.21806220155E+03 -0.24268488194E+03 -0.54509611662E+03  0.63527699721E+03  0.10566000000E+00 0. -1.
          4    1    3    3  501    0 -0.33397727228E+03  0.54892917115E+03  0.37742193393E+03  0.74519216954E+03  0.00000000000E+00 0.  1.
         -4    1    4    4    0  503 -0.19313952096E+03 -0.20048381050E+03  0.37790339225E+03  0.46936937129E+03  0.00000000000E+00 0. -1.
</event>
<event>
 8    1  0.7572579E-006  0.1076029E+04  0.7818608E-02  0.8713888E-01
         21   -1    0    0  503  502  0.00000000000E+00  0.00000000000E+00  0.16378683397E+04  0.16378683397E+04  0.00000000000E+00 0. -1.
         21   -1    0    0  501  503 -0.00000000000E+00 -0.00000000000E+00 -0.11010263429E+04  0.11010263429E+04  0.00000000000E+00 0. -1.
    9000010    2    1    2  501    0  0.35245190244E+03 -0.15636215943E+03 -0.57136854306E+03  0.12183189309E+04  0.10045733109E+04 0.  0.
   -9000010    2    1    2    0  502 -0.35245190244E+03  0.15636215943E+03  0.11082105399E+04  0.15205757517E+04  0.96713419317E+03 0.  0.
        -13    1    3    3    0    0  0.55288098936E+03 -0.45114929376E+03 -0.31954145798E+03  0.78186944446E+03  0.10566000000E+00 0.  1.
         13    1    4    4    0    0 -0.54794393002E+03  0.10018551525E+03  0.20311193111E+03  0.59290315873E+03  0.10566000000E+00 0. -1.
          4    1    3    3  501    0 -0.20042908692E+03  0.29478713433E+03 -0.25182708507E+03  0.43644948645E+03  0.00000000000E+00 0.  1.
         -4    1    4    4    0  502  0.19549202758E+03  0.56176644181E+02  0.90509860876E+03  0.92767259299E+03  0.00000000000E+00 0. -1.
</event>
<event>
 8    1  0.7572579E-006  0.1024072E+04  0.7818608E-02  0.8754935E-01
         21   -1    0    0  501  502  0.00000000000E+00  0.00000000000E+00  0.15081733958E+04  0.15081733958E+04  0.00000000000E+00 0.  1.
         21   -1    0    0  502  503 -0.00000000000E+00 -0.00000000000E+00 -0.76095267654E+03  0.76095267654E+03  0.00000000000E+00 0.  1.
    9000010    2    1    2  501    0  0.59720193141E+02  0.18789327912E+03  0.72399854785E+03  0.12447912230E+04  0.99320738308E+03 0.  0.
   -9000010    2    1    2    0  503 -0.59720193141E+02 -0.18789327912E+03  0.23222171397E+02  0.10243348493E+04  0.10049140403E+04 0.  0.
        -13    1    3    3    0    0  0.59744540350E+02  0.47095897605E+03  0.81863296771E+03  0.94632537439E+03  0.10566000000E+00 0.  1.
         13    1    4    4    0    0  0.44861334668E+03 -0.24029660743E+03 -0.34348482737E+02  0.51007472374E+03  0.10566000000E+00 0. -1.
          4    1    3    3  501    0 -0.24347208962E-01 -0.28306569694E+03 -0.94634419864E+02  0.29846584863E+03  0.00000000000E+00 0.  1.
         -4    1    4    4    0  503 -0.50833353982E+03  0.52403328312E+02  0.57570654134E+02  0.51426012556E+03  0.00000000000E+00 0. -1.
</event>
<event>
 8    1  0.7572579E-006  0.1031675E+04  0.7818608E-02  0.8754494E-01
         21   -1    0    0  503  502  0.00000000000E+00  0.00000000000E+00  0.14502776712E+04  0.14502776712E+04  0.00000000000E+00 0. -1.
         21   -1    0    0  501  503 -0.00000000000E+00 -0.00000000000E+00 -0.79076824063E+03  0.79076824063E+03  0.00000000000E+00 0. -1.
    9000010    2    1    2  501    0 -0.11847698105E+03  0.19777245227E+03  0.69059839811E+03  0.12089030057E+04  0.96507491515E+03 0.  0.
   -9000010    2    1    2    0  502  0.11847698105E+03 -0.19777245227E+03 -0.31088967552E+02  0.10321429061E+04  0.10055852608E+04 0.  0.
        -13    1    3    3    0    0  0.37712379662E+03  0.26641416053E+03  0.18448143654E+03  0.49722457150E+03  0.10566000000E+00 0.  1.
         13    1    4    4    0    0 -0.94750244847E+02  0.19470465155E+03 -0.39866983610E+03  0.45367957813E+03  0.10566000000E+00 0. -1.
          4    1    3    3  501    0 -0.49560077768E+03 -0.68641708256E+02  0.50611696157E+03  0.71167843422E+03  0.00000000000E+00 0.  1.
         -4    1    4    4    0  502  0.21322722590E+03 -0.39247710382E+03  0.36758086855E+03  0.57846332798E+03  0.00000000000E+00 0. -1.
</event>
<event>
 8    1  0.7572579E-006  0.1059826E+04  0.7818608E-02  0.8730521E-01
         21   -1    0    0  501  502  0.00000000000E+00  0.00000000000E+00  0.62853632051E+03  0.62853632051E+03  0.00000000000E+00 0.  1.
         21   -1    0    0  502  503 -0.00000000000E+00 -0.00000000000E+00 -0.17702392248E+04  0.17702392248E+04  0.00000000000E+00 0.  1.
    9000010    2    1    2  501    0 -0.15661056330E+03 -0.21338024830E+03 -0.33966812026E+03  0.10696818639E+04  0.97917662304E+03 0.  0.
   -9000010    2    1    2    0  503  0.15661056330E+03  0.21338024830E+03 -0.80203478399E+03  0.13290936814E+04  0.10262417942E+04 0.  0.
        -13    1    3    3    0    0 -0.56767068190E+03 -0.44755944593E+02 -0.17274550442E+03  0.59505807963E+03  0.10566000000E+00 0.  1.
         13    1    4    4    0    0  0.43806070871E+03  0.49314100640E+03 -0.55148748291E+03  0.85978118825E+03  0.10566000000E+00 0. -1.
          4    1    3    3  501    0  0.41106011860E+03 -0.16862430370E+03 -0.16692261584E+03  0.47462378426E+03  0.00000000000E+00 0.  1.
         -4    1    4    4    0  503 -0.28145014541E+03 -0.27976075810E+03 -0.25054730108E+03  0.46931249312E+03  0.00000000000E+00 0. -1.
</event>
<event>
 8    1  0.7572579E-006  0.1145800E+04  0.7818608E-02  0.8648955E-01
         21   -1    0    0  501  502  0.00000000000E+00  0.00000000000E+00  0.31568052552E+04  0.31568052552E+04  0.00000000000E+00 0. -1.
         21   -1    0    0  502  503 -0.00000000000E+00 -0.00000000000E+00 -0.51633204079E+03  0.51633204079E+03  0.00000000000E+00 0. -1.
    9000010    2    1    2  501    0  0.24748712562E+03 -0.45621678555E+03  0.21324041394E+04  0.24197449966E+04  0.10191343396E+04 0.  0.
   -9000010    2    1    2    0  503 -0.24748712562E+03  0.45621678555E+03  0.50806907494E+03  0.12533922993E+04  0.10215059659E+04 0.  0.
        -13    1    3    3    0    0 -0.23749640387E+03 -0.39868037155E+03  0.17169485252E+04  0.17785563893E+04  0.10566000000E+00 0.  1.
         13    1    4    4    0    0  0.37481264136E+03  0.16779082877E+03  0.19189776615E+02  0.41110404648E+03  0.10566000000E+00 0. -1.
          4    1    3    3  501    0  0.48498352949E+03 -0.57536413993E+02  0.41545561424E+03  0.64118860737E+03  0.00000000000E+00 0.  1.
         -4    1    4    4    0  503 -0.62229976698E+03  0.28842595678E+03  0.48887929832E+03  0.84228825283E+03  0.00000000000E+00 0. -1.
</event>
<event>
 8    1  0.7572579E-006  0.1129757E+04  0.7818608E-02  0.8671927E-01
         21   -1    0    0  503  502  0.00000000000E+00  0.00000000000E+00  0.13845424089E+04  0.13845424089E+04  0.00000000000E+00 0.  1.
         21   -1    0    0  501  503 -0.00000000000E+00 -0.00000000000E+00 -0.11776608528E+04  0.11776608528E+04  0.00000000000E+00 0.  1.
    9000010    2    1    2  501    0 -0.19791172549E+03 -0.35937989444E+03 -0.54118792012E+03  0.12072277719E+04  0.99809396794E+03 0.  0.
   -9000010    2    1    2    0  502  0.19791172549E+03  0.35937989444E+03  0.74806947625E+03  0.13549754898E+04  0.10526289361E+04 0.  0.
        -13    1    3    3    0    0  0.41786388050E+02  0.24785830264E+03  0.11958215626E+03  0.27835183433E+03  0.10566000000E+00 0.  1.
         13    1    4    4    0    0  0.23877612939E+03  0.16993457270E+03 -0.22078337589E+03  0.36692929728E+03  0.10566000000E+00 0. -1.
          4    1    3    3  501    0 -0.23969811354E+03 -0.60723819708E+03 -0.66077007638E+03  0.92887593761E+03  0.00000000000E+00 0.  1.
         -4    1    4    4    0  502 -0.40864403900E+02  0.18944532174E+03  0.96885285215E+03  0.98804619252E+03  0.00000000000E+00 0. -1.
</event>
<event>
 8    1  0.7572579E-006  0.1022547E+04  0.7818608E-02  0.8754433E-01
         21   -1    0    0  503  502  0.00000000000E+00  0.00000000000E+00  0.89366438670E+03  0.89366438670E+03  0.00000000000E+00 0. -1.
         21   -1    0    0  501  503 -0.00000000000E+00 -0.00000000000E+00 -0.12839852612E+04  0.12839852612E+04  0.00000000000E+00 0. -1.
    9000010    2    1    2  501    0 -0.41897628520E+01 -0.18114271764E+03 -0.52450035030E+03  0.11463366985E+04  0.10030737613E+04 0.  0.
   -9000010    2    1    2    0  502  0.41897628520E+01  0.18114271764E+03  0.13417947582E+03  0.10313129494E+04  0.10063657534E+04 0.  0.
        -13    1    3    3    0    0 -0.46584982547E+03 -0.23456440117E+03 -0.42082644637E+03  0.67017268470E+03  0.10566000000E+00 0.  1.
         13    1    4    4    0    0  0.10832390297E+03 -0.10074134548E+03 -0.39553777824E+03  0.42229495832E+03  0.10566000000E+00 0. -1.
          4    1    3    3  501    0  0.46166006261E+03  0.53421683526E+02 -0.10367390393E+03  0.47616401380E+03  0.00000000000E+00 0.  1.
         -4    1    4    4    0  502 -0.10413414012E+03  0.28188406313E+03  0.52971725406E+03  0.60901799106E+03  0.00000000000E+00 0. -1.
</event>
<event>
 8    1  0.7572579E-006  0.1027316E+04  0.7818608E-02  0.8751864E-01
         21   -1    0    0  501  502  0.00000000000E+00  0.00000000000E+00  0.14828018907E+04  0.14828018907E+04  0.00000000000E+00 0. -1.
         21   -1    0    0  502  503 -0.00000000000E+00 -0.00000000000E+00 -0.10182928219E+04  0.10182928219E+04  0.00000000000E+00 0. -1.
    9000010    2    1    2  501    0 -0.16109826268E+03 -0.14666855628E+03  0.92773433275E+03  0.13842213690E+04  0.10039489482E+04 0.  0.
   -9000010    2    1    2    0  503  0.16109826268E+03  0.14666855628E+03 -0.46322526393E+03  0.11168733435E+04  0.99265507842E+03 0.  0.
        -13    1    3    3    0    0  0.24956211424E+03  0.79796223876E+02 -0.78964096539E+02  0.27364945809E+03  0.10566000000E+00 0.  1.
         13    1    4    4    0    0  0.34420383028E+03  0.12917832025E+03  0.20696614760E+03  0.42189846245E+03  0.10566000000E+00 0. -1.
          4    1    3    3  501    0 -0.41066037692E+03 -0.22646478015E+03  0.10066984293E+04  0.11105719109E+04  0.00000000000E+00 0.  1.
         -4    1    4    4    0  503 -0.18310556760E+03  0.17490236030E+02 -0.67019141153E+03  0.69497488108E+03  0.00000000000E+00 0. -1.
</event>
<event>
 8    1  0.7572579E-006  0.1028136E+04  0.7818608E-02  0.8751331E-01
         21   -1    0    0  501  502  0.00000000000E+00  0.00000000000E+00  0.16911628275E+04  0.16911628275E+04  0.00000000000E+00 0.  1.
         21   -1    0    0  502  503 -0.00000000000E+00 -0.00000000000E+00 -0.71729815301E+03  0.71729815301E+03  0.00000000000E+00 0.  1.
    9000010    2    1    2  501    0 -0.18373804999E+03 -0.12108400932E+03  0.93298346927E+03  0.13795124035E+04  0.99205610177E+03 0.  0.
   -9000010    2    1    2    0  503  0.18373804999E+03  0.12108400932E+03  0.40881205248E+02  0.10289485771E+04  0.10043121492E+04 0.  0.
        -13    1    3    3    0    0 -0.54729495019E+03  0.66685702313E+02  0.30528097548E+03  0.63021839909E+03  0.10566000000E+00 0.  1.
         13    1    4    4    0    0  0.27954419855E+03 -0.28675984781E+03 -0.29053968982E+03  0.49476205573E+03  0.10566000000E+00 0. -1.
          4    1    3    3  501    0  0.36355690019E+03 -0.18776971163E+03  0.62770249379E+03  0.74929400438E+03  0.00000000000E+00 0.  1.
         -4    1    4    4    0  503 -0.95806148556E+02  0.40784385713E+03  0.33142089507E+03  0.53418652135E+03  0.00000000000E+00 0. -1.
</event>
<event>
 8    1  0.7572579E-006  0.1043666E+04  0.7818608E-02  0.8738562E-01
         21   -1    0    0  501  502  0.00000000000E+00  0.00000000000E+00  0.76616244250E+03  0.76616244250E+03  0.00000000000E+00 0. -1.
         21   -1    0    0  502  503 -0.00000000000E+00 -0.00000000000E+00 -0.14849189443E+04  0.14849189443E+04  0.00000000000E+00 0. -1.
    9000010    2    1    2  501    0 -0.17995079842E+03 -0.19784157034E+03 -0.84007147761E+02  0.10295476504E+04  0.99065008293E+03 0.  0.
   -9000010    2    1    2    0  503  0.17995079842E+03  0.19784157034E+03 -0.63474935408E+03  0.12215337364E+04  0.10088182938E+04 0.  0.
        -13    1    3    3    0    0  0.11297849241E+03  0.31320000291E+02  0.40132474524E+03  0.41809884534E+03  0.10566000000E+00 0.  1.
         13    1    4    4    0    0  0.54574060695E+02 -0.95212442444E+02  0.25435477450E+03  0.27702003497E+03  0.10566000000E+00 0. -1.
          4    1    3    3  501    0 -0.29292929084E+03 -0.22916157063E+03 -0.48533189300E+03  0.61144880509E+03  0.00000000000E+00 0.  1.
         -4    1    4    4    0  503  0.12537673773E+03  0.29305401278E+03 -0.88910412858E+03  0.94451370145E+03  0.00000000000E+00 0. -1.
</event>
<event>
 8    1  0.7572579E-006  0.1101297E+04  0.7818608E-02  0.8690125E-01
         21   -1    0    0  503  502  0.00000000000E+00  0.00000000000E+00  0.13834494686E+04  0.13834494686E+04  0.00000000000E+00 0.  1.
         21   -1    0    0  501  503 -0.00000000000E+00 -0.00000000000E+00 -0.91280943152E+03  0.91280943152E+03  0.00000000000E+00 0.  1.
    9000010    2    1    2  501    0 -0.38004501068E+02 -0.41104155375E+03 -0.51303595584E+02  0.10775381506E+04  0.99401051603E+03 0.  0.
   -9000010    2    1    2    0  502  0.38004501068E+02  0.41104155375E+03  0.52194363267E+03  0.12187207496E+04  0.10210071541E+04 0.  0.
        -13    1    3    3    0    0  0.30293804369E+03 -0.59842360043E+03  0.58551159300E+02  0.67328338260E+03  0.10566000000E+00 0.  1.
         13    1    4    4    0    0 -0.80791980194E+02  0.63754844907E+02 -0.30074493252E+03  0.31786718911E+03  0.10566000000E+00 0. -1.
          4    1    3    3  501    0 -0.34094254476E+03  0.18738204668E+03 -0.10985475488E+03  0.40425476796E+03  0.00000000000E+00 0.  1.
         -4    1    4    4    0  502  0.11879648126E+03  0.34728670885E+03  0.82268856519E+03  0.90085356046E+03  0.00000000000E+00 0. -1.
</event>
<event>
 8    1  0.7572579E-006  0.1023509E+04  0.7818608E-02  0.8757803E-01
         21   -1    0    0  501  502  0.00000000000E+00  0.00000000000E+00  0.17348729990E+04  0.17348729990E+04  0.00000000000E+00 0.  1.
         21   -1    0    0  502  503 -0.00000000000E+00 -0.00000000000E+00 -0.20284422030E+04  0.20284422030E+04  0.00000000000E+00 0.  1.
    9000010    2    1    2  501    0  0.12243772144E+03  0.24498267682E+03  0.14375606061E+04  0.17522506534E+04  0.96373977228E+03 0.  0.
   -9000010    2    1    2    0  503 -0.12243772144E+03 -0.24498267682E+03 -0.17311298101E+04  0.20110645486E+04  0.98618593161E+03 0.  0.
        -13    1    3    3    0    0 -0.29315774933E+03 -0.15282521048E+03  0.92294611606E+03  0.98037062138E+03  0.10566000000E+00 0.  1.
         13    1    4    4    0    0  0.25528966745E+03  0.26489298320E+03 -0.84068185669E+03  0.91765304020E+03  0.10566000000E+00 0. -1.
          4    1    3    3  501    0  0.41559547077E+03  0.39780788730E+03  0.51461449005E+03  0.77188003206E+03  0.00000000000E+00 0.  1.
         -4    1    4    4    0  503 -0.37772738889E+03 -0.50987566002E+03 -0.89044795337E+03  0.10934115084E+04  0.00000000000E+00 0. -1.
</event>
<event>
 8    1  0.7572579E-006  0.1041544E+04  0.7818608E-02  0.8739954E-01
         21   -1    0    0  503  502  0.00000000000E+00  0.00000000000E+00  0.20322270820E+04  0.20322270820E+04  0.00000000000E+00 0.  1.
         21   -1    0    0  501  503 -0.00000000000E+00 -0.00000000000E+00 -0.76156738799E+03  0.76156738799E+03  0.00000000000E+00 0.  1.
    9000010    2    1    2  501    0  0.17018962150E+03  0.15457026635E+03 -0.13832120991E+03  0.10506882899E+04  0.10158526719E+04 0.  0.
   -9000010    2    1    2    0  502 -0.17018962150E+03 -0.15457026635E+03  0.14089809039E+04  0.17431061800E+04  0.10001677323E+04 0.  0.
        -13    1    3    3    0    0  0.50849218786E+03  0.30414055025E+03  0.11340981330E+03  0.60326410164E+03  0.10566000000E+00 0.  1.
         13    1    4    4    0    0 -0.39235559932E+03 -0.18952532712E+03  0.14503883732E+04  0.15144270238E+04  0.10566000000E+00 0. -1.
          4    1    3    3  501    0 -0.33830256636E+03 -0.14957028390E+03 -0.25173102321E+03  0.44742418830E+03  0.00000000000E+00 0.  1.
         -4    1    4    4    0  502  0.22216597782E+03  0.34955060778E+02 -0.41407469359E+02  0.22867915623E+03  0.00000000000E+00 0. -1.
</event>
<event>
 8    1  0.7572579E-006  0.1022168E+04  0.7818608E-02  0.8755366E-01
         21   -1    0    0  503  502  0.00000000000E+00  0.00000000000E+00  0.14408001297E+04  0.14408001297E+04  0.00000000000E+00 0.  1.
         21   -1    0    0  501  503 -0.00000000000E+00 -0.00000000000E+00 -0.73576841609E+03  0.73576841609E+03  0.00000000000E+00 0.  1.
    9000010    2    1    2  501    0 -0.19159201021E+03  0.21169614723E+02  0.19968395184E+03  0.10414894626E+04  0.10038281571E+04 0.  0.
   -9000010    2    1    2    0  502  0.19159201021E+03 -0.21169614723E+02  0.50534776177E+03  0.11350790833E+04  0.99793412305E+03 0.  0.
        -13    1    3    3    0    0 -0.94440553944E+02  0.50286034928E+03  0.20202831577E+03  0.55009362898E+03  0.10566000000E+00 0.  1.
         13    1    4    4    0    0 -0.33518245357E+03 -0.26928620166E+03  0.26556052995E+03  0.50535605449E+03  0.10566000000E+00 0. -1.
          4    1    3    3  501    0 -0.97151456264E+02 -0.48169073456E+03 -0.23443639260E+01  0.49139583357E+03  0.00000000000E+00 0.  1.
         -4    1    4    4    0  502  0.52677446378E+03  0.24811658693E+03  0.23978723183E+03  0.62972302876E+03  0.00000000000E+00 0. -1.
</event>
<event>
 8    1  0.7572579E-006  0.1203500E+04  0.7818608E-02  0.8611580E-01
         21   -1    0    0  501  502  0.00000000000E+00  0.00000000000E+00  0.18536572204E+04  0.18536572204E+04  0.00000000000E+00 0.  1.
         21   -1    0    0  502  503 -0.00000000000E+00 -0.00000000000E+00 -0.12715487987E+04  0.12715487987E+04  0.00000000000E+00 0.  1.
    9000010    2    1    2  501    0 -0.64457861875E+01  0.56058722011E+03  0.12892772020E+04  0.17637026082E+04  0.10649467625E+04 0.  0.
   -9000010    2    1    2    0  503  0.64457861875E+01 -0.56058722011E+03 -0.70716878026E+03  0.13615034108E+04  0.10194627381E+04 0.  0.
        -13    1    3    3    0    0  0.37616814627E+03  0.53065079106E+03  0.32764539016E+03  0.72831603661E+03  0.10566000000E+00 0.  1.
         13    1    4    4    0    0  0.28620285360E+03  0.13419514822E+03 -0.48741220899E+03  0.58093982808E+03  0.10566000000E+00 0. -1.
          4    1    3    3  501    0 -0.38261393246E+03  0.29936429048E+02  0.96163181180E+03  0.10353865716E+04  0.00000000000E+00 0.  1.
         -4    1    4    4    0  503 -0.27975706742E+03 -0.69478236833E+03 -0.21975657127E+03  0.78056358276E+03  0.00000000000E+00 0. -1.
</event>
<event>
 8    1  0.7572579E-006  0.1075104E+04  0.7818608E-02  0.8711138E-01
         21   -1    0    0  501  502  0.00000000000E+00  0.00000000000E+00  0.11016545931E+04  0.11016545931E+04  0.00000000000E+00 0.  1.
         21   -1    0    0  502  503 -0.00000000000E+00 -0.00000000000E+00 -0.13237635292E+04  0.13237635292E+04  0.00000000000E+00 0.  1.
    9000010    2    1    2  501    0 -0.38709287829E+03  0.48396443991E+02  0.45853405083E+03  0.11688036299E+04  0.10018309924E+04 0.  0.
   -9000010    2    1    2    0  503  0.38709287829E+03 -0.48396443991E+02 -0.68064298692E+03  0.12566144923E+04  0.98164249827E+03 0.  0.
        -13    1    3    3    0    0 -0.56790152723E+03  0.30326929278E+03  0.54615704356E+03  0.84425821641E+03  0.10566000000E+00 0.  1.
         13    1    4    4    0    0  0.18628185853E+03  0.46712614914E+03 -0.31302126488E+03  0.59235976692E+03  0.10566000000E+00 0. -1.
          4    1    3    3  501    0  0.18080864894E+03 -0.25487284879E+03 -0.87622992735E+02  0.32454541352E+03  0.00000000000E+00 0.  1.
         -4    1    4    4    0  503  0.20081101976E+03 -0.51552259313E+03 -0.36762172203E+03  0.66425472539E+03  0.00000000000E+00 0. -1.
</event>
<event>
 8    1  0.7572579E-006  0.1007868E+04  0.7818608E-02  0.8770930E-01
         21   -1    0    0  503  502  0.00000000000E+00  0.00000000000E+00  0.13546920036E+04  0.13546920036E+04  0.00000000000E+00 0. -1.
         21   -1    0    0  501  503 -0.00000000000E+00 -0.00000000000E+00 -0.74141040947E+03  0.74141040947E+03  0.00000000000E+00 0. -1.
    9000010    2    1    2  501    0  0.42429139286E+02  0.36120885043E+02  0.23967898048E+03  0.10359746001E+04  0.10063261937E+04 0.  0.
   -9000010    2    1    2    0  502 -0.42429139286E+02 -0.36120885043E+02  0.37360261365E+03  0.10601278130E+04  0.99054889667E+03 0.  0.
        -13    1    3    3    0    0  0.23040232679E+02  0.29735407246E+03  0.55256167202E+03  0.62791297906E+03  0.10566000000E+00 0.  1.
         13    1    4    4    0    0 -0.21923391123E+03  0.41883973486E+03  0.31599447116E+03  0.56863234897E+03  0.10566000000E+00 0. -1.
          4    1    3    3  501    0  0.19388906607E+02 -0.26123318742E+03 -0.31288269153E+03  0.40806162104E+03  0.00000000000E+00 0.  1.
         -4    1    4    4    0  502  0.17680477194E+03 -0.45496061990E+03  0.57608142489E+02  0.49149546399E+03  0.00000000000E+00 0. -1.
</event>
<event>
 8    1  0.7572579E-006  0.1045911E+04  0.7818608E-02  0.8734249E-01
         21   -1    0    0  503  502  0.00000000000E+00  0.00000000000E+00  0.11792419861E+04  0.11792419861E+04  0.00000000000E+00 0.  1.
         21   -1    0    0  501  503 -0.00000000000E+00 -0.00000000000E+00 -0.94727607340E+03  0.94727607340E+03  0.00000000000E+00 0.  1.
    9000010    2    1    2  501    0  0.18904284398E+03 -0.28706938342E+03 -0.60166667616E+02  0.10476397803E+04  0.98781731793E+03 0.  0.
   -9000010    2    1    2    0  502 -0.18904284398E+03  0.28706938342E+03  0.29213258028E+03  0.10788782792E+04  0.98004636065E+03 0.  0.
        -13    1    3    3    0    0  0.49018294027E+03 -0.20473245110E+03  0.26774568211E+03  0.59488020047E+03  0.10566000000E+00 0.  1.
         13    1    4    4    0    0 -0.35943656181E+03  0.55445735903E+03  0.20048765644E+02  0.66107455639E+03  0.10566000000E+00 0. -1.
          4    1    3    3  501    0 -0.30114009629E+03 -0.82336932323E+02 -0.32791234973E+03  0.45275957982E+03  0.00000000000E+00 0.  1.
         -4    1    4    4    0  502  0.17039371783E+03 -0.26738797561E+03  0.27208381464E+03  0.41780372277E+03  0.00000000000E+00 0. -1.
</event>
<event>
 8    1  0.7572579E-006  0.1082574E+04  0.7818608E-02  0.8701127E-01
         21   -1    0    0  503  502  0.00000000000E+00  0.00000000000E+00  0.13713046399E+04  0.13713046399E+04  0.00000000000E+00 0.  1.
         21   -1    0    0  501  503 -0.00000000000E+00 -0.00000000000E+00 -0.91591220776E+03  0.91591220776E+03  0.00000000000E+00 0.  1.
    9000010    2    1    2  501    0  0.17219545321E+03  0.38588424949E+03 -0.72064328006E+02  0.10849699624E+04  0.99669886316E+03 0.  0.
   -9000010    2    1    2    0  502 -0.17219545321E+03 -0.38588424949E+03  0.52745676019E+03  0.12022468853E+04  0.99429825066E+03 0.  0.
        -13    1    3    3    0    0  0.19775297543E+03 -0.30548049208E+03  0.89010079144E+02  0.37462965137E+03  0.10566000000E+00 0.  1.
         13    1    4    4    0    0  0.13946614382E+03 -0.58392103843E+03  0.57335043963E+03  0.83014777130E+03  0.10566000000E+00 0. -1.
          4    1    3    3  501    0 -0.25557522223E+02  0.69136474157E+03 -0.16107440715E+03  0.71034031102E+03  0.00000000000E+00 0.  1.
         -4    1    4    4    0  502 -0.31166159703E+03  0.19803678894E+03 -0.45893679445E+02  0.37209911402E+03  0.00000000000E+00 0. -1.
</event>
<event>
 8    1  0.7572579E-006  0.1144779E+04  0.7818608E-02  0.8676515E-01
         21   -1    0    0  501  502  0.00000000000E+00  0.00000000000E+00  0.57534322958E+03  0.57534322958E+03  0.00000000000E+00 0. -1.
         21   -1    0    0  502  503 -0.00000000000E+00 -0.00000000000E+00 -0.23942332353E+04  0.23942332353E+04  0.00000000000E+00 0. -1.
    9000010    2    1    2  501    0  0.19219983010E+03 -0.56899947936E+03 -0.14419704158E+04  0.17643433524E+04  0.82032164606E+03 0.  0.
   -9000010    2    1    2    0  503 -0.19219983010E+03  0.56899947936E+03 -0.37691958987E+03  0.12052331124E+04  0.97458570472E+03 0.  0.
        -13    1    3    3    0    0 -0.11374754472E+03 -0.28628926519E+03 -0.50894759692E+02  0.31223442318E+03  0.10566000000E+00 0.  1.
         13    1    4    4    0    0  0.34486547270E+02  0.66881530424E+03  0.90943606736E+02  0.67585056329E+03  0.10566000000E+00 0. -1.
          4    1    3    3  501    0  0.30594737482E+03 -0.28271021417E+03 -0.13910756561E+04  0.14521089293E+04  0.00000000000E+00 0.  1.
         -4    1    4    4    0  503 -0.22668637737E+03 -0.99815824883E+02 -0.46786319661E+03  0.52938254913E+03  0.00000000000E+00 0. -1.
</event>
<event>
 8    1  0.7572579E-006  0.9925243E+03  0.7818608E-02  0.8782954E-01
         21   -1    0    0  501  502  0.00000000000E+00  0.00000000000E+00  0.15253033141E+04  0.15253033141E+04  0.00000000000E+00 0. -1.
         21   -1    0    0  502  503 -0.00000000000E+00 -0.00000000000E+00 -0.11564135695E+04  0.11564135695E+04  0.00000000000E+00 0. -1.
    9000010    2    1    2  501    0 -0.83562534477E+00  0.15686431622E+01  0.10782220200E+04  0.14617756063E+04  0.98702686890E+03 0.  0.
   -9000010    2    1    2    0  503  0.83562534477E+00 -0.15686431622E+01 -0.70933227544E+03  0.12199412772E+04  0.99252268687E+03 0.  0.
        -13    1    3    3    0    0  0.28468453953E+03 -0.26009876980E+03  0.99296939627E+03  0.10652158890E+04  0.10566000000E+00 0.  1.
         13    1    4    4    0    0  0.38420030209E+03  0.13867619437E+03 -0.80963770768E+01  0.40854194582E+03  0.10566000000E+00 0. -1.
          4    1    3    3  501    0 -0.28552016487E+03  0.26166741296E+03  0.85252623738E+02  0.39655971733E+03  0.00000000000E+00 0.  1.
         -4    1    4    4    0  503 -0.38336467674E+03 -0.14024483753E+03 -0.70123589837E+03  0.81139933139E+03  0.00000000000E+00 0. -1.
</event>
<event>
 8    1  0.7572579E-006  0.1053857E+04  0.7818608E-02  0.8730024E-01
         21   -1    0    0  501  502  0.00000000000E+00  0.00000000000E+00  0.10189128385E+04  0.10189128385E+04  0.00000000000E+00 0.  1.
         21   -1    0    0  502  503 -0.00000000000E+00 -0.00000000000E+00 -0.13613407917E+04  0.13613407917E+04  0.00000000000E+00 0.  1.
    9000010    2    1    2  501    0 -0.49231104277E+02  0.32424952570E+03  0.37859915599E+03  0.11198003769E+04  0.10015258891E+04 0.  0.
   -9000010    2    1    2    0  503  0.49231104277E+02 -0.32424952570E+03 -0.72102710923E+03  0.12604532534E+04  0.98045951222E+03 0.  0.
        -13    1    3    3    0    0  0.25627746013E+03 -0.16425443442E+02 -0.23922762086E+03  0.35096694647E+03  0.10566000000E+00 0.  1.
         13    1    4    4    0    0 -0.20714761383E+03  0.25927661475E+03 -0.47017956135E+03  0.57550267414E+03  0.10566000000E+00 0. -1.
          4    1    3    3  501    0 -0.30550856441E+03  0.34067496914E+03  0.61782677685E+03  0.76883343041E+03  0.00000000000E+00 0.  1.
         -4    1    4    4    0  503  0.25637871811E+03 -0.58352614045E+03 -0.25084754788E+03  0.68495057921E+03  0.00000000000E+00 0. -1.
</event>
<event>
 8    1  0.7572579E-006  0.1131628E+04  0.7818608E-02  0.8663083E-01
         21   -1    0    0  501  502  0.00000000000E+00  0.00000000000E+00  0.64408439998E+03  0.64408439998E+03  0.00000000000E+00 0. -1.
         21   -1    0    0  502  503 -0.00000000000E+00 -0.00000000000E+00 -0.20840752181E+04  0.20840752181E+04  0.00000000000E+00 0. -1.
    9000010    2    1    2  501    0  0.49301526913E+03  0.17258204747E+03 -0.38369663104E+03  0.11801483556E+04  0.98624460342E+03 0.  0.
   -9000010    2    1    2    0  503 -0.49301526913E+03 -0.17258204747E+03 -0.10562941871E+04  0.15480112626E+04  0.10038589744E+04 0.  0.
        -13    1    3    3    0    0  0.54883030357E+03  0.44635547813E+03 -0.51142913305E+03  0.87293051515E+03  0.10566000000E+00 0.  1.
         13    1    4    4    0    0 -0.30580412355E+03 -0.42357170413E+03 -0.87284337338E+02  0.52966755350E+03  0.10566000000E+00 0. -1.
          4    1    3    3  501    0 -0.55815034448E+02 -0.27377343066E+03  0.12773250201E+03  0.30721784042E+03  0.00000000000E+00 0.  1.
         -4    1    4    4    0  503 -0.18721114557E+03  0.25098965667E+03 -0.96900984979E+03  0.10183437091E+04  0.00000000000E+00 0. -1.
</event>
<event>
 8    1  0.7572579E-006  0.1130533E+04  0.7818608E-02  0.8668310E-01
         21   -1    0    0  503  502  0.00000000000E+00  0.00000000000E+00  0.80854187222E+03  0.80854187222E+03  0.00000000000E+00 0. -1.
         21   -1    0    0  501  503 -0.00000000000E+00 -0.00000000000E+00 -0.15886342534E+04  0.15886342534E+04  0.00000000000E+00 0. -1.
    9000010    2    1    2  501    0 -0.39762960173E+03  0.18795978895E+03 -0.61388026672E+03  0.12544896424E+04  0.10017270579E+04 0.  0.
   -9000010    2    1    2    0  502  0.39762960173E+03 -0.18795978895E+03 -0.16621211449E+03  0.11426864833E+04  0.10414738353E+04 0.  0.
        -13    1    3    3    0    0  0.55145599893E+02  0.13810108883E+03  0.24252174741E+03  0.28448155838E+03  0.10566000000E+00 0.  1.
         13    1    4    4    0    0  0.21108757423E+01 -0.17490102150E+03 -0.55863010941E+03  0.58537375533E+03  0.10566000000E+00 0. -1.
          4    1    3    3  501    0 -0.45277520162E+03  0.49858700119E+02 -0.85640201414E+03  0.97000808399E+03  0.00000000000E+00 0.  1.
         -4    1    4    4    0  502  0.39551872599E+03 -0.13058767445E+02  0.39241799492E+03  0.55731272797E+03  0.00000000000E+00 0. -1.
</event>
<event>
 8    1  0.7572579E-006  0.1071658E+04  0.7818608E-02  0.8712497E-01
         21   -1    0    0  501  502  0.00000000000E+00  0.00000000000E+00  0.18813563313E+04  0.18813563313E+04  0.00000000000E+00 0.  1.
         21   -1    0    0  502  503 -0.00000000000E+00 -0.00000000000E+00 -0.69368186764E+03  0.69368186764E+03  0.00000000000E+00 0.  1.
    9000010    2    1    2  501    0  0.13411231474E+03 -0.38810294102E+03  0.12810691212E+03  0.10680097599E+04  0.97755995234E+03 0.  0.
   -9000010    2    1    2    0  503 -0.13411231474E+03  0.38810294102E+03  0.10595675516E+04  0.15070284391E+04  0.98986934197E+03 0.  0.
        -13    1    3    3    0    0  0.10301137938E+03  0.21996544528E+03 -0.25219059402E+03  0.35013747054E+03  0.10566000000E+00 0.  1.
         13    1    4    4    0    0 -0.39765614952E+02  0.72278168642E+03  0.72323178700E+03  0.10232589600E+04  0.10566000000E+00 0. -1.
          4    1    3    3  501    0  0.31100935367E+02 -0.60806838630E+03  0.38029750614E+03  0.71787228932E+03  0.00000000000E+00 0.  1.
         -4    1    4    4    0  503 -0.94346699791E+02 -0.33467874540E+03  0.33633576458E+03  0.48376947911E+03  0.00000000000E+00 0. -1.
</event>
<event>
 8    1  0.7572579E-006  0.1014232E+04  0.7818608E-02  0.8767443E-01
         21   -1    0    0  501  502  0.00000000000E+00  0.00000000000E+00  0.88034409884E+03  0.88034409884E+03  0.00000000000E+00 0.  1.
         21   -1    0    0  502  503 -0.00000000000E+00 -0.00000000000E+00 -0.13235844476E+04  0.13235844476E+04  0.00000000000E+00 0.  1.
    9000010    2    1    2  501    0 -0.49233781048E+02 -0.17496431581E+03  0.19279182358E+03  0.10067636118E+04  0.97127123185E+03 0.  0.
   -9000010    2    1    2    0  503  0.49233781048E+02  0.17496431581E+03 -0.63603217236E+03  0.11971649346E+04  0.99781284791E+03 0.  0.
        -13    1    3    3    0    0 -0.93853244057E+02 -0.11518317998E+03 -0.39097247071E+03  0.41825241229E+03  0.10566000000E+00 0.  1.
         13    1    4    4    0    0  0.12556871193E+03 -0.24002939525E+03 -0.71792848884E+03  0.76733495832E+03  0.10566000000E+00 0. -1.
          4    1    3    3  501    0  0.44619463009E+02 -0.59781135834E+02  0.58376429429E+03  0.58851119952E+03  0.00000000000E+00 0.  1.
         -4    1    4    4    0  503 -0.76334930880E+02  0.41499371106E+03  0.81896316485E+02  0.42982997632E+03  0.00000000000E+00 0. -1.
</event>
<event>
 8    1  0.7572579E-006  0.1041378E+04  0.7818608E-02  0.8747107E-01
         21   -1    0    0  503  502  0.00000000000E+00  0.00000000000E+00  0.73211114952E+03  0.73211114952E+03  0.00000000000E+00 0. -1.
         21   -1    0    0  501  503 -0.00000000000E+00 -0.00000000000E+00 -0.18260338590E+04  0.18260338590E+04  0.00000000000E+00 0. -1.
    9000010    2    1    2  501    0  0.11370073114E+03 -0.16734791315E+03 -0.11616613845E+04  0.15601039932E+04  0.10215351767E+04 0.  0.
   -9000010    2    1    2    0  502 -0.11370073114E+03  0.16734791315E+03  0.67738675055E+02  0.99804101525E+03  0.97496879936E+03 0.  0.
        -13    1    3    3    0    0  0.50475101119E+03 -0.30283601299E+03 -0.88286467718E+03  0.10611000346E+04  0.10566000000E+00 0.  1.
         13    1    4    4    0    0  0.11742291102E+03 -0.69662497335E+02 -0.40132966339E+03  0.42391805039E+03  0.10566000000E+00 0. -1.
          4    1    3    3  501    0 -0.39105028004E+03  0.13548809985E+03 -0.27879670733E+03  0.49900395864E+03  0.00000000000E+00 0.  1.
         -4    1    4    4    0  502 -0.23112364217E+03  0.23701041048E+03  0.46906833845E+03  0.57412296486E+03  0.00000000000E+00 0. -1.
</event>
<event>
 8    1  0.7572579E-006  0.1239521E+04  0.7818608E-02  0.8578473E-01
         21   -1    0    0  501  502  0.00000000000E+00  0.00000000000E+00  0.11216166590E+04  0.11216166590E+04  0.00000000000E+00 0. -1.
         21   -1    0    0  502  503 -0.00000000000E+00 -0.00000000000E+00 -0.14039328493E+04  0.14039328493E+04  0.00000000000E+00 0. -1.
    9000010    2    1    2  501    0  0.36261244337E+03  0.61722371688E+03 -0.35662393714E+03  0.12898031387E+04  0.10119083967E+04 0.  0.
   -9000010    2    1    2    0  503 -0.36261244337E+03 -0.61722371688E+03  0.74307746924E+02  0.12357463696E+04  0.10045369818E+04 0.  0.
        -13    1    3    3    0    0 -0.16179686766E+03  0.51699953575E+03  0.14119206741E+03  0.55982314833E+03  0.10566000000E+00 0.  1.
         13    1    4    4    0    0 -0.61431370570E+03 -0.29413308274E+03 -0.23715672538E+03  0.72120657438E+03  0.10566000000E+00 0. -1.
          4    1    3    3  501    0  0.52440931103E+03  0.10022418113E+03 -0.49781600455E+03  0.72997999039E+03  0.00000000000E+00 0.  1.
         -4    1    4    4    0  503  0.25170126233E+03 -0.32309063414E+03  0.31146447231E+03  0.51453979519E+03  0.00000000000E+00 0. -1.
</event>
<event>
 8    1  0.7572579E-006  0.1282837E+04  0.7818608E-02  0.8600719E-01
         21   -1    0    0  501  502  0.00000000000E+00  0.00000000000E+00  0.70173106618E+03  0.70173106618E+03  0.00000000000E+00 0. -1.
         21   -1    0    0  502  503 -0.00000000000E+00 -0.00000000000E+00 -0.18827459488E+04  0.18827459488E+04  0.00000000000E+00 0. -1.
    9000010    2    1    2  501    0 -0.52040385567E+02 -0.27454591211E+02 -0.76805501737E+03  0.14951854132E+04  0.12814870088E+04 0.  0.
   -9000010    2    1    2    0  503  0.52040385567E+02  0.27454591211E+02 -0.41295986526E+03  0.10892916018E+04  0.10062596023E+04 0.  0.
        -13    1    3    3    0    0  0.15342351938E+03  0.33721362136E+03  0.21386606817E+03  0.42777389940E+03  0.10566000000E+00 0.  1.
         13    1    4    4    0    0 -0.33397040580E+03  0.11671248519E+03  0.16356188199E+03  0.38975702246E+03  0.10566000000E+00 0. -1.
          4    1    3    3  501    0 -0.20546390494E+03 -0.36466821257E+03 -0.98192108554E+03  0.10674115138E+04  0.00000000000E+00 0.  1.
         -4    1    4    4    0  503  0.38601079136E+03 -0.89257893982E+02 -0.57652174725E+03  0.69953457938E+03  0.00000000000E+00 0. -1.
</event>
<event>
 8    1  0.7572579E-006  0.1012509E+04  0.7818608E-02  0.8764436E-01
         21   -1    0    0  503  502  0.00000000000E+00  0.00000000000E+00  0.94534235765E+03  0.94534235765E+03  0.00000000000E+00 0.  1.
         21   -1    0    0  501  503 -0.00000000000E+00 -0.00000000000E+00 -0.12092273440E+04  0.12092273440E+04  0.00000000000E+00 0.  1.
    9000010    2    1    2  501    0 -0.10237553135E+03  0.12468620442E+03 -0.48712790119E+03  0.11177418038E+04  0.99298829245E+03 0.  0.
   -9000010    2    1    2    0  502  0.10237553135E+03 -0.12468620442E+03  0.22324291486E+03  0.10368278978E+04  0.99957355488E+03 0.  0.
        -13    1    3    3    0    0 -0.38175308146E+03  0.11732529947E+03 -0.67266223640E+03  0.78228839729E+03  0.10566000000E+00 0.  1.
         13    1    4    4    0    0 -0.64947095388E+02 -0.47074753757E+03  0.39296311491E+03  0.61663716250E+03  0.10566000000E+00 0. -1.
          4    1    3    3  501    0  0.27937755011E+03  0.73609049522E+01  0.18553433521E+03  0.33545340655E+03  0.00000000000E+00 0.  1.
         -4    1    4    4    0  502  0.16732262674E+03  0.34606133315E+03 -0.16972020005E+03  0.42019073529E+03  0.00000000000E+00 0. -1.
</event>
<event>
 8    1  0.7572579E-006  0.9987675E+03  0.7818608E-02  0.8799984E-01
         21   -1    0    0  501  502  0.00000000000E+00  0.00000000000E+00  0.87565158108E+03  0.87565158108E+03  0.00000000000E+00 0.  1.
         21   -1    0    0  502  503 -0.00000000000E+00 -0.00000000000E+00 -0.14900746421E+04  0.14900746421E+04  0.00000000000E+00 0.  1.
    9000010    2    1    2  501    0 -0.16152185747E+03  0.56793344356E+02  0.33814577518E+03  0.10544567588E+04  0.98398256922E+03 0.  0.
   -9000010    2    1    2    0  503  0.16152185747E+03 -0.56793344356E+02 -0.95256883622E+03  0.13112694644E+04  0.88471770982E+03 0.  0.
        -13    1    3    3    0    0 -0.44960948697E+03  0.35365694841E+03  0.27945283026E+03  0.63664418904E+03  0.10566000000E+00 0.  1.
         13    1    4    4    0    0 -0.41159738834E+02 -0.44410329394E+03 -0.35053572126E+03  0.56727168345E+03  0.10566000000E+00 0. -1.
          4    1    3    3  501    0  0.28808762950E+03 -0.29686360405E+03  0.58692944918E+02  0.41781256977E+03  0.00000000000E+00 0.  1.
         -4    1    4    4    0  503  0.20268159631E+03  0.38730994959E+03 -0.60203311496E+03  0.74399778093E+03  0.00000000000E+00 0. -1.
</event>
<event>
 8    1  0.7572579E-006  0.1039238E+04  0.7818608E-02  0.8745031E-01
         21   -1    0    0  501  502  0.00000000000E+00  0.00000000000E+00  0.55326966128E+03  0.55326966128E+03  0.00000000000E+00 0. -1.
         21   -1    0    0  502  503 -0.00000000000E+00 -0.00000000000E+00 -0.19117698541E+04  0.19117698541E+04  0.00000000000E+00 0. -1.
    9000010    2    1    2  501    0 -0.18558968257E+03  0.50997927097E+02 -0.77019020706E+03  0.12708353435E+04  0.99236343967E+03 0.  0.
   -9000010    2    1    2    0  503  0.18558968257E+03 -0.50997927097E+02 -0.58830998571E+03  0.11942041718E+04  0.10212593431E+04 0.  0.
        -13    1    3    3    0    0  0.27362810182E+03  0.14088869869E+03 -0.74055781674E+03  0.80196499588E+03  0.10566000000E+00 0.  1.
         13    1    4    4    0    0 -0.25074113603E+03  0.32163495541E+03 -0.56239233587E+02  0.41168316021E+03  0.10566000000E+00 0. -1.
          4    1    3    3  501    0 -0.45921778439E+03 -0.89890771589E+02 -0.29632390324E+02  0.46887034762E+03  0.00000000000E+00 0.  1.
         -4    1    4    4    0  503  0.43633081860E+03 -0.37263288251E+03 -0.53207075212E+03  0.78252101163E+03  0.00000000000E+00 0. -1.
</event>
<event>
 8    1  0.7572579E-006  0.1025040E+04  0.7818608E-02  0.8753337E-01
         21   -1    0    0  503  502  0.00000000000E+00  0.00000000000E+00  0.21569685498E+04  0.21569685498E+04  0.00000000000E+00 0. -1.
         21   -1    0    0  501  503 -0.00000000000E+00 -0.00000000000E+00 -0.51764491419E+03  0.51764491419E+03  0.00000000000E+00 0. -1.
    9000010    2    1    2  501    0 -0.13113828928E+02 -0.20871360825E+03  0.11617843122E+04  0.15437945852E+04  0.99489978926E+03 0.  0.
   -9000010    2    1    2    0  502  0.13113828928E+02  0.20871360825E+03  0.47753932350E+03  0.11308188788E+04  0.10034810354E+04 0.  0.
        -13    1    3    3    0    0 -0.43175539790E+03  0.10427262147E+03  0.30037618218E+03  0.53620086273E+03  0.10566000000E+00 0.  1.
         13    1    4    4    0    0 -0.32278620976E+03 -0.23986528425E+03  0.39621345689E+03  0.56454530942E+03  0.10566000000E+00 0. -1.
          4    1    3    3  501    0  0.41864156897E+03 -0.31298622971E+03  0.86140812997E+03  0.10075937225E+04  0.00000000000E+00 0.  1.
         -4    1    4    4    0  502  0.33590003869E+03  0.44857889250E+03  0.81325866610E+02  0.56627356937E+03  0.00000000000E+00 0. -1.
</event>
<event>
 8    1  0.7572579E-006  0.1049942E+04  0.7818608E-02  0.8729142E-01
         21   -1    0    0  501  502  0.00000000000E+00  0.00000000000E+00  0.45193721590E+03  0.45193721590E+03  0.00000000000E+00 0. -1.
         21   -1    0    0  502  503 -0.00000000000E+00 -0.00000000000E+00 -0.30874879409E+04  0.30874879409E+04  0.00000000000E+00 0. -1.
    9000010    2    1    2  501    0  0.30266562460E+03 -0.11927326595E+03 -0.21296731203E+04  0.23744234669E+04  0.99827181107E+03 0.  0.
   -9000010    2    1    2    0  503 -0.30266562460E+03  0.11927326595E+03 -0.50587760475E+03  0.11650016899E+04  0.99773954226E+03 0.  0.
        -13    1    3    3    0    0  0.36230853025E+03  0.12982758109E+03 -0.20777216805E+04  0.21130665074E+04  0.10566000000E+00 0.  1.
         13    1    4    4    0    0 -0.16217865934E+03 -0.11869234586E+03 -0.76210023564E+03  0.78815390048E+03  0.10566000000E+00 0. -1.
          4    1    3    3  501    0 -0.59642905656E+02 -0.24910084704E+03 -0.51951439764E+02  0.26135695951E+03  0.00000000000E+00 0.  1.
         -4    1    4    4    0  503 -0.14048696526E+03  0.23796561181E+03  0.25622263089E+03  0.37684778942E+03  0.00000000000E+00 0. -1.
</event>
<event>
 8    1  0.7572579E-006  0.1168432E+04  0.7818608E-02  0.8634225E-01
         21   -1    0    0  501  502  0.00000000000E+00  0.00000000000E+00  0.10621222068E+04  0.10621222068E+04  0.00000000000E+00 0. -1.
         21   -1    0    0  502  503 -0.00000000000E+00 -0.00000000000E+00 -0.14503664737E+04  0.14503664737E+04  0.00000000000E+00 0. -1.
    9000010    2    1    2  501    0 -0.54779156960E+03 -0.24942877342E+03  0.25531959764E+03  0.11785445450E+04  0.98055536858E+03 0.  0.
   -9000010    2    1    2    0  503  0.54779156960E+03  0.24942877342E+03 -0.64356386459E+03  0.13339441355E+04  0.10014700155E+04 0.  0.
        -13    1    3    3    0    0 -0.81131436214E+03 -0.28340248671E+03  0.29768243574E+03  0.90948491324E+03  0.10566000000E+00 0.  1.
         13    1    4    4    0    0  0.48433114858E+03  0.27954424748E+03 -0.90466963897E+03  0.10635548010E+04  0.10566000000E+00 0. -1.
          4    1    3    3  501    0  0.26352279255E+03  0.33973713282E+02 -0.42362838103E+02  0.26905963175E+03  0.00000000000E+00 0.  1.
         -4    1    4    4    0  503  0.63460421014E+02 -0.30115474059E+02  0.26110577438E+03  0.27038933453E+03  0.00000000000E+00 0. -1.
</event>
<event>
 8    1  0.7572579E-006  0.1042737E+04  0.7818608E-02  0.8736000E-01
         21   -1    0    0  503  502  0.00000000000E+00  0.00000000000E+00  0.17659073932E+04  0.17659073932E+04  0.00000000000E+00 0. -1.
         21   -1    0    0  501  503 -0.00000000000E+00 -0.00000000000E+00 -0.70672650659E+03  0.70672650659E+03  0.00000000000E+00 0. -1.
    9000010    2    1    2  501    0 -0.17872636655E+02  0.30802158194E+03  0.82903757773E+02  0.10460271479E+04  0.99604369130E+03 0.  0.
   -9000010    2    1    2    0  502  0.17872636655E+02 -0.30802158194E+03  0.97627712880E+03  0.14266067519E+04  0.99342491724E+03 0.  0.
        -13    1    3    3    0    0  0.14506715109E+03  0.40522215466E+03 -0.36197274212E+03  0.56238221002E+03  0.10566000000E+00 0.  1.
         13    1    4    4    0    0 -0.22810225871E+02 -0.42362151643E+03 -0.18182355247E+02  0.42462466343E+03  0.10566000000E+00 0. -1.
          4    1    3    3  501    0 -0.16293978775E+03 -0.97200572719E+02  0.44487649989E+03  0.48364493787E+03  0.00000000000E+00 0.  1.
         -4    1    4    4    0  502  0.40682862527E+02  0.11559993449E+03  0.99445948404E+03  0.10019820884E+04  0.00000000000E+00 0. -1.
</event>
<event>
 8    1  0.7572579E-006  0.1072907E+04  0.7818608E-02  0.8709418E-01
         21   -1    0    0  501  502  0.00000000000E+00  0.00000000000E+00  0.18559359047E+04  0.18559359047E+04  0.00000000000E+00 0.  1.
         21   -1    0    0  502  503 -0.00000000000E+00 -0.00000000000E+00 -0.65162400669E+03  0.65162400669E+03  0.00000000000E+00 0.  1.
    9000010    2    1    2  501    0  0.37942359474E+03 -0.53497461691E+02  0.88329830753E+03  0.13897284716E+04  0.10021502293E+04 0.  0.
   -9000010    2    1    2    0  503 -0.37942359474E+03  0.53497461691E+02  0.32101359045E+03  0.11178314397E+04  0.99983656652E+03 0.  0.
        -13    1    3    3    0    0 -0.18135252688E+03 -0.23404405704E+03 -0.35580286129E+02  0.29821356034E+03  0.10566000000E+00 0.  1.
         13    1    4    4    0    0 -0.17759249147E+03 -0.13583224356E+03  0.65032331357E+03  0.68768445872E+03  0.10566000000E+00 0. -1.
          4    1    3    3  501    0  0.56077612163E+03  0.18054659535E+03  0.91887859366E+03  0.10915149113E+04  0.00000000000E+00 0.  1.
         -4    1    4    4    0  503 -0.20183110327E+03  0.18932970525E+03 -0.32930972312E+03  0.43014698102E+03  0.00000000000E+00 0. -1.
</event>
<event>
 8    1  0.7572579E-006  0.1033288E+04  0.7818608E-02  0.8746312E-01
         21   -1    0    0  501  502  0.00000000000E+00  0.00000000000E+00  0.83794425185E+03  0.83794425185E+03  0.00000000000E+00 0.  1.
         21   -1    0    0  502  503 -0.00000000000E+00 -0.00000000000E+00 -0.19220655589E+04  0.19220655589E+04  0.00000000000E+00 0.  1.
    9000010    2    1    2  501    0  0.18370701789E+02 -0.23014792530E+03  0.26890943594E+03  0.10575480485E+04  0.99638849849E+03 0.  0.
   -9000010    2    1    2    0  503 -0.18370701789E+02  0.23014792530E+03 -0.13530307430E+04  0.17024617623E+04  0.10071634973E+04 0.  0.
        -13    1    3    3    0    0  0.70877857178E+02 -0.55529579534E+03 -0.93808818794E+02  0.56760655088E+03  0.10566000000E+00 0.  1.
         13    1    4    4    0    0  0.47938139769E+03 -0.88471012335E+01 -0.58075273432E+03  0.75309929308E+03  0.10566000000E+00 0. -1.
          4    1    3    3  501    0 -0.52507155389E+02  0.32514787004E+03  0.36271825474E+03  0.48994149761E+03  0.00000000000E+00 0.  1.
         -4    1    4    4    0  503 -0.49775209947E+03  0.23899502653E+03 -0.77227800868E+03  0.94936246920E+03  0.00000000000E+00 0. -1.
</event>
<event>
 8    1  0.7572579E-006  0.1029705E+04  0.7818608E-02  0.8756371E-01
         21   -1    0    0  501  502  0.00000000000E+00  0.00000000000E+00  0.13671269196E+04  0.13671269196E+04  0.00000000000E+00 0. -1.
         21   -1    0    0  502  503 -0.00000000000E+00 -0.00000000000E+00 -0.11752276764E+04  0.11752276764E+04  0.00000000000E+00 0. -1.
    9000010    2    1    2  501    0 -0.17034543455E+03  0.22216125664E+03  0.86295819023E+03  0.13132845584E+04  0.94955057903E+03 0.  0.
   -9000010    2    1    2    0  503  0.17034543455E+03 -0.22216125664E+03 -0.67105894706E+03  0.12290700376E+04  0.99091869291E+03 0.  0.
        -13    1    3    3    0    0  0.18142567396E+03  0.37386602970E+03  0.55101183464E+02  0.41919832409E+03  0.10566000000E+00 0.  1.
         13    1    4    4    0    0  0.45343408483E+03  0.28393198960E+02 -0.71640298984E+03  0.84831709758E+03  0.10566000000E+00 0. -1.
          4    1    3    3  501    0 -0.35177110851E+03 -0.15170477305E+03  0.80785700677E+03  0.89408623428E+03  0.00000000000E+00 0.  1.
         -4    1    4    4    0  503 -0.28308865029E+03 -0.25055445560E+03  0.45344042776E+02  0.38075294005E+03  0.00000000000E+00 0. -1.
</event>
<event>
 8    1  0.7572579E-006  0.1094082E+04  0.7818608E-02  0.8692140E-01
         21   -1    0    0  503  502  0.00000000000E+00  0.00000000000E+00  0.13885473619E+04  0.13885473619E+04  0.00000000000E+00 0. -1.
         21   -1    0    0  501  503 -0.00000000000E+00 -0.00000000000E+00 -0.10017181221E+04  0.10017181221E+04  0.00000000000E+00 0. -1.
    9000010    2    1    2  501    0  0.93490062264E+02 -0.42506264296E+03 -0.26061544213E+03  0.11189668561E+04  0.99737042978E+03 0.  0.
   -9000010    2    1    2    0  502 -0.93490062264E+02  0.42506264296E+03  0.64744468188E+03  0.12712986279E+04  0.10037912846E+04 0.  0.
        -13    1    3    3    0    0 -0.32554119804E+03  0.91878389114E+02  0.11197986754E+03  0.35631195869E+03  0.10566000000E+00 0.  1.
         13    1    4    4    0    0 -0.36680139477E+03  0.15752829800E+03  0.77197142878E+03  0.86907901015E+03  0.10566000000E+00 0. -1.
          4    1    3    3  501    0  0.41903126031E+03 -0.51694103207E+03 -0.37259530967E+03  0.76265489741E+03  0.00000000000E+00 0.  1.
         -4    1    4    4    0  502  0.27331133250E+03  0.26753434496E+03 -0.12452674690E+03  0.40221961775E+03  0.00000000000E+00 0. -1.
</event>
<event>
 8    1  0.7572579E-006  0.1092619E+04  0.7818608E-02  0.8693505E-01
         21   -1    0    0  503  502  0.00000000000E+00  0.00000000000E+00  0.11113908555E+04  0.11113908555E+04  0.00000000000E+00 0. -1.
         21   -1    0    0  501  503 -0.00000000000E+00 -0.00000000000E+00 -0.12507656385E+04  0.12507656385E+04  0.00000000000E+00 0. -1.
    9000010    2    1    2  501    0  0.29909677550E+03 -0.32674442418E+03 -0.52160579310E+03  0.12107390802E+04  0.99879713509E+03 0.  0.
   -9000010    2    1    2    0  502 -0.29909677550E+03  0.32674442418E+03  0.38223101001E+03  0.11514174138E+04  0.99168579496E+03 0.  0.
        -13    1    3    3    0    0 -0.88570368915E+02  0.18509366966E+03  0.17041252949E+03  0.26672985992E+03  0.10566000000E+00 0.  1.
         13    1    4    4    0    0 -0.32704807937E+03 -0.21564000254E+03  0.45841379312E+03  0.60299608108E+03  0.10566000000E+00 0. -1.
          4    1    3    3  501    0  0.38766714442E+03 -0.51183809384E+03 -0.69201832259E+03  0.94400922028E+03  0.00000000000E+00 0.  1.
         -4    1    4    4    0  502  0.27951303869E+02  0.54238442672E+03 -0.76182783107E+02  0.54842133271E+03  0.00000000000E+00 0. -1.
</event>
<event>
 8    1  0.7572579E-006  0.1127402E+04  0.7818608E-02  0.8663932E-01
         21   -1    0    0  501  502  0.00000000000E+00  0.00000000000E+00  0.21124070672E+04  0.21124070672E+04  0.00000000000E+00 0.  1.
         21   -1    0    0  502  503 -0.00000000000E+00 -0.00000000000E+00 -0.61588186544E+03  0.61588186544E+03  0.00000000000E+00 0.  1.
    9000010    2    1    2  501    0  0.13505748684E+02  0.53072805770E+03  0.96741404545E+03  0.14855722642E+04  0.99457545732E+03 0.  0.
   -9000010    2    1    2    0  503 -0.13505748684E+02 -0.53072805770E+03  0.52911115629E+03  0.12427166684E+04  0.99122723217E+03 0.  0.
        -13    1    3    3    0    0 -0.77324870061E+02 -0.80777198643E+02 -0.16269653628E+03  0.19741900980E+03  0.10566000000E+00 0.  1.
         13    1    4    4    0    0  0.20937592232E+03 -0.11966993526E+03 -0.24152722225E+03  0.34131302423E+03  0.10566000000E+00 0. -1.
          4    1    3    3  501    0  0.90830618746E+02  0.61150525634E+03  0.11301105817E+04  0.12881532544E+04  0.00000000000E+00 0.  1.
         -4    1    4    4    0  503 -0.22288167101E+03 -0.41105812244E+03  0.77063837854E+03  0.90140364420E+03  0.00000000000E+00 0. -1.
</event>
<event>
 8    1  0.7572579E-006  0.1201715E+04  0.7818608E-02  0.8606788E-01
         21   -1    0    0  501  502  0.00000000000E+00  0.00000000000E+00  0.10155303916E+04  0.10155303916E+04  0.00000000000E+00 0. -1.
         21   -1    0    0  502  503 -0.00000000000E+00 -0.00000000000E+00 -0.19770378185E+04  0.19770378185E+04  0.00000000000E+00 0. -1.
    9000010    2    1    2  501    0  0.47064730591E+03 -0.45924381088E+03  0.31762836119E+03  0.12429834577E+04  0.10058361377E+04 0.  0.
   -9000010    2    1    2    0  503 -0.47064730591E+03  0.45924381088E+03 -0.12791357880E+04  0.17495847524E+04  0.99621517618E+03 0.  0.
        -13    1    3    3    0    0 -0.21386171179E+03  0.16342262430E+03  0.15646174058E+02  0.26960823398E+03  0.10566000000E+00 0.  1.
         13    1    4    4    0    0  0.25681464880E+03  0.21734693544E+03 -0.73842126000E+03  0.81145512665E+03  0.10566000000E+00 0. -1.
          4    1    3    3  501    0  0.68450901770E+03 -0.62266643518E+03  0.30198218713E+03  0.97337522372E+03  0.00000000000E+00 0.  1.
         -4    1    4    4    0  503 -0.72746195471E+03  0.24189687544E+03 -0.54071452802E+03  0.93812962575E+03  0.00000000000E+00 0. -1.
</event>
<event>
 8    1  0.7572579E-006  0.1072613E+04  0.7818608E-02  0.8724710E-01
         21   -1    0    0  503  502  0.00000000000E+00  0.00000000000E+00  0.19211245775E+04  0.19211245775E+04  0.00000000000E+00 0.  1.
         21   -1    0    0  501  503 -0.00000000000E+00 -0.00000000000E+00 -0.73754935372E+03  0.73754935372E+03  0.00000000000E+00 0.  1.
    9000010    2    1    2  501    0 -0.20219626477E+03  0.10054765524E+03 -0.43728156721E+02  0.10735039136E+04  0.10485730020E+04 0.  0.
   -9000010    2    1    2    0  502  0.20219626477E+03 -0.10054765524E+03  0.12273033805E+04  0.15851700176E+04  0.97749538946E+03 0.  0.
        -13    1    3    3    0    0  0.39332871408E+03 -0.15068647096E+03 -0.68198401697E+02  0.42669066431E+03  0.10566000000E+00 0.  1.
         13    1    4    4    0    0 -0.75604441237E+02  0.37604747211E+03  0.23499951831E+03  0.44983610081E+03  0.10566000000E+00 0. -1.
          4    1    3    3  501    0 -0.59552497885E+03  0.25123412620E+03  0.24470244976E+02  0.64681324932E+03  0.00000000000E+00 0.  1.
         -4    1    4    4    0  502  0.27780070600E+03 -0.47659512736E+03  0.99230386219E+03  0.11353339168E+04  0.00000000000E+00 0. -1.
</event>
<event>
 8    1  0.7572579E-006  0.1044759E+04  0.7818608E-02  0.8734513E-01
         21   -1    0    0  501  502  0.00000000000E+00  0.00000000000E+00  0.16564558263E+04  0.16564558263E+04  0.00000000000E+00 0.  1.
         21   -1    0    0  502  503 -0.00000000000E+00 -0.00000000000E+00 -0.68399835914E+03  0.68399835914E+03  0.00000000000E+00 0.  1.
    9000010    2    1    2  501    0 -0.42158266442E+02  0.22374034256E+03  0.72008197650E+03  0.12656454505E+04  0.10156295059E+04 0.  0.
   -9000010    2    1    2    0  503  0.42158266442E+02 -0.22374034256E+03  0.25237549070E+03  0.10748087350E+04  0.10196486494E+04 0.  0.
        -13    1    3    3    0    0  0.24747968502E+03 -0.21418278148E+03  0.66061759389E+03  0.73724899112E+03  0.10566000000E+00 0.  1.
         13    1    4    4    0    0 -0.17423165612E+02  0.37208472284E+03  0.29404172833E+03  0.47456417567E+03  0.10566000000E+00 0. -1.
          4    1    3    3  501    0 -0.28963795146E+03  0.43792312405E+03  0.59464382604E+02  0.52839645939E+03  0.00000000000E+00 0.  1.
         -4    1    4    4    0  503  0.59581432054E+02 -0.59582506540E+03 -0.41666237627E+02  0.60024455929E+03  0.00000000000E+00 0. -1.
</event>
<event>
 8    1  0.7572579E-006  0.1041109E+04  0.7818608E-02  0.8742461E-01
         21   -1    0    0  503  502  0.00000000000E+00  0.00000000000E+00  0.11288145247E+04  0.11288145247E+04  0.00000000000E+00 0.  1.
         21   -1    0    0  501  503 -0.00000000000E+00 -0.00000000000E+00 -0.10217490463E+04  0.10217490463E+04  0.00000000000E+00 0.  1.
    9000010    2    1    2  501    0  0.20830581579E+03 -0.20700460469E+03 -0.25426272349E+03  0.10717080159E+04  0.99883247826E+03 0.  0.
   -9000010    2    1    2    0  502 -0.20830581579E+03  0.20700460469E+03  0.36132820194E+03  0.10788555551E+04  0.97320553837E+03 0.  0.
        -13    1    3    3    0    0  0.37384530341E+03 -0.48314718454E+03  0.69836482448E+02  0.61487287975E+03  0.10566000000E+00 0.  1.
         13    1    4    4    0    0 -0.18562187061E+03  0.59725084388E+03  0.21160122325E+03  0.66025687290E+03  0.10566000000E+00 0. -1.
          4    1    3    3  501    0 -0.16553948761E+03  0.27614257985E+03 -0.32409920593E+03  0.45683513619E+03  0.00000000000E+00 0.  1.
         -4    1    4    4    0  502 -0.22683945178E+02 -0.39024623918E+03  0.14972697868E+03  0.41859868217E+03  0.00000000000E+00 0. -1.
</event>
<event>
 8    1  0.7572579E-006  0.1021829E+04  0.7818608E-02  0.8758096E-01
         21   -1    0    0  501  502  0.00000000000E+00  0.00000000000E+00  0.14415119023E+04  0.14415119023E+04  0.00000000000E+00 0.  1.
         21   -1    0    0  502  503 -0.00000000000E+00 -0.00000000000E+00 -0.71360608882E+03  0.71360608882E+03  0.00000000000E+00 0.  1.
    9000010    2    1    2  501    0  0.11169854020E+03  0.48517725460E+02  0.33213800467E+03  0.10744534647E+04  0.10145462336E+04 0.  0.
   -9000010    2    1    2    0  503 -0.11169854020E+03 -0.48517725460E+02  0.39576780885E+03  0.10806645265E+04  0.99818491608E+03 0.  0.
        -13    1    3    3    0    0 -0.38767683626E+03  0.73342957131E+02 -0.10720666775E+03  0.40885914385E+03  0.10566000000E+00 0.  1.
         13    1    4    4    0    0  0.30069529483E+03 -0.36441854550E+01 -0.19528772752E+03  0.35856414782E+03  0.10566000000E+00 0. -1.
          4    1    3    3  501    0  0.49937537647E+03 -0.24825231671E+02  0.43934467243E+03  0.66559432084E+03  0.00000000000E+00 0.  1.
         -4    1    4    4    0  503 -0.41239383503E+03 -0.44873540005E+02  0.59105553638E+03  0.72210037865E+03  0.00000000000E+00 0. -1.
</event>
<event>
 8    1  0.7572579E-006  0.1024404E+04  0.7818608E-02  0.8753750E-01
         21   -1    0    0  503  502  0.00000000000E+00  0.00000000000E+00  0.91660052995E+03  0.91660052995E+03  0.00000000000E+00 0. -1.
         21   -1    0    0  501  503 -0.00000000000E+00 -0.00000000000E+00 -0.11480039867E+04  0.11480039867E+04  0.00000000000E+00 0. -1.
    9000010    2    1    2  501    0 -0.20881616474E+03  0.86784170605E+02 -0.12056675197E+02  0.10244753378E+04  0.99913396071E+03 0.  0.
   -9000010    2    1    2    0  502  0.20881616474E+03 -0.86784170605E+02 -0.21934678155E+03  0.10401291788E+04  0.99127191787E+03 0.  0.
        -13    1    3    3    0    0  0.15263460781E+03  0.46399507612E+03 -0.88724466624E+02  0.49644818088E+03  0.10566000000E+00 0.  1.
         13    1    4    4    0    0 -0.39158700338E+03 -0.15528688451E+02 -0.18811763995E+03  0.43470654355E+03  0.10566000000E+00 0. -1.
          4    1    3    3  501    0 -0.36145077255E+03 -0.37721090551E+03  0.76667791427E+02  0.52802715693E+03  0.00000000000E+00 0.  1.
         -4    1    4    4    0  502  0.60040316812E+03 -0.71255482154E+02 -0.31229141595E+02  0.60542263528E+03  0.00000000000E+00 0. -1.
</event>
<event>
 8    1  0.7572579E-006  0.1065392E+04  0.7818608E-02  0.8716990E-01
         21   -1    0    0  503  502  0.00000000000E+00  0.00000000000E+00  0.18921351857E+04  0.18921351857E+04  0.00000000000E+00 0.  1.
         21   -1    0    0  501  503 -0.00000000000E+00 -0.00000000000E+00 -0.71644166693E+03  0.71644166693E+03  0.00000000000E+00 0.  1.
    9000010    2    1    2  501    0  0.22812915330E+03  0.27591729123E+03  0.54583660961E+02  0.10667888459E+04  0.10034369953E+04 0.  0.
   -9000010    2    1    2    0  502 -0.22812915330E+03 -0.27591729123E+03  0.11211098578E+04  0.15417880068E+04  0.99601690867E+03 0.  0.
        -13    1    3    3    0    0  0.39742976723E+03  0.12085624419E+03 -0.38786274349E+03  0.56832576098E+03  0.10566000000E+00 0.  1.
         13    1    4    4    0    0 -0.47627539654E+03  0.17070434577E+03  0.34418161190E+03  0.61191438956E+03  0.10566000000E+00 0. -1.
          4    1    3    3  501    0 -0.16930061393E+03  0.15506104703E+03  0.44244640445E+03  0.49846308489E+03  0.00000000000E+00 0.  1.
         -4    1    4    4    0  502  0.24814624325E+03 -0.44662163700E+03  0.77692824593E+03  0.92987361722E+03  0.00000000000E+00 0. -1.
</event>
<event>
 8    1  0.7572579E-006  0.1014549E+04  0.7818608E-02  0.8763657E-01
         21   -1    0    0  503  502  0.00000000000E+00  0.00000000000E+00  0.13317379339E+04  0.13317379339E+04  0.00000000000E+00 0. -1.
         21   -1    0    0  501  503 -0.00000000000E+00 -0.00000000000E+00 -0.77186328987E+03  0.77186328987E+03  0.00000000000E+00 0. -1.
    9000010    2    1    2  501    0 -0.20568871331E+03 -0.10576152716E+03  0.38528786352E+03  0.10852448557E+04  0.98783415186E+03 0.  0.
   -9000010    2    1    2    0  502  0.20568871331E+03  0.10576152716E+03  0.17458678047E+03  0.10183563681E+04  0.97625601203E+03 0.  0.
        -13    1    3    3    0    0 -0.29525070218E+03  0.45114794576E+02 -0.27259211429E+03  0.40436962517E+03  0.10566000000E+00 0.  1.
         13    1    4    4    0    0 -0.79342331441E+02  0.37214027140E+03 -0.23936815435E+03  0.44953388264E+03  0.10566000000E+00 0. -1.
          4    1    3    3  501    0  0.89561988862E+02 -0.15087632173E+03  0.65787997781E+03  0.68087523050E+03  0.00000000000E+00 0.  1.
         -4    1    4    4    0  502  0.28503104476E+03 -0.26637874425E+03  0.41395493482E+03  0.56882248542E+03  0.00000000000E+00 0. -1.
</event>
<event>
 8    1  0.7572579E-006  0.1106864E+04  0.7818608E-02  0.8687401E-01
         21   -1    0    0  501  502  0.00000000000E+00  0.00000000000E+00  0.63299420032E+03  0.63299420032E+03  0.00000000000E+00 0. -1.
         21   -1    0    0  502  503 -0.00000000000E+00 -0.00000000000E+00 -0.19274152639E+04  0.19274152639E+04  0.00000000000E+00 0. -1.
    9000010    2    1    2  501    0  0.24774321063E+03 -0.38551056997E+03 -0.42895380884E+03  0.11553540428E+04  0.96997242029E+03 0.  0.
   -9000010    2    1    2    0  503 -0.24774321063E+03  0.38551056997E+03 -0.86546725472E+03  0.14050554214E+04  0.10075475523E+04 0.  0.
        -13    1    3    3    0    0  0.43307548195E+03 -0.10082592009E+03  0.16239279532E+03  0.47338321724E+03  0.10566000000E+00 0.  1.
         13    1    4    4    0    0 -0.61565790453E+00  0.13100881717E+03  0.22388393539E+03  0.25939876040E+03  0.10566000000E+00 0. -1.
          4    1    3    3  501    0 -0.18533227132E+03 -0.28468464988E+03 -0.59134660416E+03  0.68197082556E+03  0.00000000000E+00 0.  1.
         -4    1    4    4    0  503 -0.24712755272E+03  0.25450175280E+03 -0.10893511901E+04  0.11456566610E+04  0.00000000000E+00 0. -1.
</event>
<event>
 8    1  0.7572579E-006  0.1052802E+04  0.7818608E-02  0.8732921E-01
         21   -1    0    0  501  502  0.00000000000E+00  0.00000000000E+00  0.14676719117E+04  0.14676719117E+04  0.00000000000E+00 0. -1.
         21   -1    0    0  502  503 -0.00000000000E+00 -0.00000000000E+00 -0.95437349136E+03  0.95437349136E+03  0.00000000000E+00 0. -1.
    9000010    2    1    2  501    0  0.32589651142E+03 -0.20498855092E+02  0.83477519929E+03  0.13212554291E+04  0.97068920689E+03 0.  0.
   -9000010    2    1    2    0  503 -0.32589651142E+03  0.20498855092E+02 -0.32147677899E+03  0.11007899739E+04  0.10008808660E+04 0.  0.
        -13    1    3    3    0    0  0.34333163823E+03 -0.11120152391E+03  0.10375030832E+04  0.10984785167E+04  0.10566000000E+00 0.  1.
         13    1    4    4    0    0  0.15401022184E+03  0.28314711206E+03 -0.43565026811E+03  0.54192490510E+03  0.10566000000E+00 0. -1.
          4    1    3    3  501    0 -0.17435126800E+02  0.90702668820E+02 -0.20272788395E+03  0.22277691242E+03  0.00000000000E+00 0.  1.
         -4    1    4    4    0  503 -0.47990673326E+03 -0.26264825697E+03  0.11417348912E+03  0.55886506881E+03  0.00000000000E+00 0. -1.
</event>
<event>
 8    1  0.7572579E-006  0.1038223E+04  0.7818608E-02  0.8745676E-01
         21   -1    0    0  503  502  0.00000000000E+00  0.00000000000E+00  0.18511817383E+04  0.18511817383E+04  0.00000000000E+00 0.  1.
         21   -1    0    0  501  503 -0.00000000000E+00 -0.00000000000E+00 -0.10536297416E+04  0.10536297416E+04  0.00000000000E+00 0.  1.
    9000010    2    1    2  501    0  0.12883265404E+03 -0.21797765489E+03 -0.59095841944E+03  0.11710676235E+04  0.97880305194E+03 0.  0.
   -9000010    2    1    2    0  502 -0.12883265404E+03  0.21797765489E+03  0.13885104161E+04  0.17337438564E+04  0.10068736134E+04 0.  0.
        -13    1    3    3    0    0 -0.24131206333E+03  0.26435323723E+03 -0.58091247267E+02  0.36261377541E+03  0.10566000000E+00 0.  1.
         13    1    4    4    0    0 -0.54120872293E+03  0.24002221339E+03  0.10244226925E+04  0.11831988035E+04  0.10566000000E+00 0. -1.
          4    1    3    3  501    0  0.37014471737E+03 -0.48233089213E+03 -0.53286717217E+03  0.80845384808E+03  0.00000000000E+00 0.  1.
         -4    1    4    4    0  502  0.41237606888E+03 -0.22044558491E+02  0.36408772359E+03  0.55054505285E+03  0.00000000000E+00 0. -1.
</event>
<event>
 8    1  0.7572579E-006  0.1066700E+04  0.7818608E-02  0.8717138E-01
         21   -1    0    0  501  502  0.00000000000E+00  0.00000000000E+00  0.24053526000E+04  0.24053526000E+04  0.00000000000E+00 0.  1.
         21   -1    0    0  502  503 -0.00000000000E+00 -0.00000000000E+00 -0.49355429353E+03  0.49355429353E+03  0.00000000000E+00 0.  1.
    9000010    2    1    2  501    0  0.85530694689E+02 -0.37702723014E+03  0.12843055839E+04  0.16613299100E+04  0.98036279247E+03 0.  0.
   -9000010    2    1    2    0  503 -0.85530694689E+02  0.37702723014E+03  0.62749272255E+03  0.12375769836E+04  0.99417535747E+03 0.  0.
        -13    1    3    3    0    0  0.32866781152E+03 -0.26186746855E+03  0.13242692006E+04  0.13893473390E+04  0.10566000000E+00 0.  1.
         13    1    4    4    0    0 -0.93175346665E+02 -0.16054156731E+03 -0.18580968099E+03  0.26264136912E+03  0.10566000000E+00 0. -1.
          4    1    3    3  501    0 -0.24313711683E+03 -0.11515976159E+03 -0.39963616694E+02  0.27198257100E+03  0.00000000000E+00 0.  1.
         -4    1    4    4    0  503  0.76446519758E+01  0.53756879745E+03  0.81330240354E+03  0.97493561444E+03  0.00000000000E+00 0. -1.
</event>
<event>
 8    1  0.7572579E-006  0.1139959E+04  0.7818608E-02  0.8656936E-01
         21   -1    0    0  503  502  0.00000000000E+00  0.00000000000E+00  0.21452448855E+04  0.21452448855E+04  0.00000000000E+00 0.  1.
         21   -1    0    0  501  503 -0.00000000000E+00 -0.00000000000E+00 -0.83442823714E+03  0.83442823714E+03  0.00000000000E+00 0.  1.
    9000010    2    1    2  501    0  0.53498421184E+03  0.13169856204E+03 -0.13716702707E+03  0.11481815310E+04  0.99797465729E+03 0.  0.
   -9000010    2    1    2    0  502 -0.53498421184E+03 -0.13169856204E+03  0.14479836754E+04  0.18314915917E+04  0.97680709860E+03 0.  0.
        -13    1    3    3    0    0  0.50076458559E+03 -0.65380570783E+02  0.35474345503E+03  0.61715696486E+03  0.10566000000E+00 0.  1.
         13    1    4    4    0    0  0.57343246270E+01 -0.43725635054E+03  0.91076307730E+03  0.10103046039E+04  0.10566000000E+00 0. -1.
          4    1    3    3  501    0  0.34219626251E+02  0.19707913283E+03 -0.49191048210E+03  0.53102456612E+03  0.00000000000E+00 0.  1.
         -4    1    4    4    0  502 -0.54071853647E+03  0.30555778849E+03  0.53722059813E+03  0.82118698775E+03  0.00000000000E+00 0. -1.
</event>
<event>
 8    1  0.7572579E-006  0.1059918E+04  0.7818608E-02  0.8721731E-01
         21   -1    0    0  503  502  0.00000000000E+00  0.00000000000E+00  0.10534980030E+04  0.10534980030E+04  0.00000000000E+00 0. -1.
         21   -1    0    0  501  503 -0.00000000000E+00 -0.00000000000E+00 -0.14487524438E+04  0.14487524438E+04  0.00000000000E+00 0. -1.
    9000010    2    1    2  501    0 -0.33658563659E+03 -0.32476302955E+02 -0.84654125223E+03  0.13564874129E+04  0.10045304418E+04 0.  0.
   -9000010    2    1    2    0  502  0.33658563659E+03  0.32476302955E+02  0.45128681140E+03  0.11457630339E+04  0.99738084137E+03 0.  0.
        -13    1    3    3    0    0  0.22464453210E+02  0.28209963220E+03 -0.83210083600E+03  0.87890651754E+03  0.10566000000E+00 0.  1.
         13    1    4    4    0    0  0.55331381294E+02 -0.12098444479E+03 -0.30045509942E+03  0.32859104609E+03  0.10566000000E+00 0. -1.
          4    1    3    3  501    0 -0.35905008980E+03 -0.31457593515E+03 -0.14440416237E+02  0.47758089533E+03  0.00000000000E+00 0.  1.
         -4    1    4    4    0  502  0.28125425530E+03  0.15346074775E+03  0.75174191082E+03  0.81717198783E+03  0.00000000000E+00 0. -1.
</event>
<event>
 8    1  0.9955160E-006  0.1018796E+04  0.7818608E-02  0.8761294E-01
         21   -1    0    0  501  502  0.00000000000E+00  0.00000000000E+00  0.12771174832E+04  0.12771174832E+04  0.00000000000E+00 0.  1.
         21   -1    0    0  502  503 -0.00000000000E+00 -0.00000000000E+00 -0.16291103747E+04  0.16291103747E+04  0.00000000000E+00 0.  1.
    9000010    2    1    2  501    0 -0.58020620115E+02 -0.32547773882E+02  0.86082629687E+03  0.13337794533E+04  0.10166218406E+04 0.  0.
   -9000010    2    1    2    0  503  0.58020620115E+02  0.32547773882E+02 -0.12128191884E+04  0.15724484046E+04  0.99861797064E+03 0.  0.
        -13    1    3    3    0    0 -0.43632489748E+03  0.14113546559E+03  0.10430546140E+03  0.47029594539E+03  0.10566000000E+00 0.  1.
         13    1    4    4    0    0 -0.33292540709E+03  0.20369847161E+03 -0.10421156223E+04  0.11128060817E+04  0.10566000000E+00 0. -1.
          4    1    3    3  501    0  0.37830427737E+03 -0.17368323947E+03  0.75652083547E+03  0.86348350792E+03  0.00000000000E+00 0.  1.
         -4    1    4    4    0  503  0.39094602720E+03 -0.17115069772E+03 -0.17070356614E+03  0.45964232291E+03  0.00000000000E+00 0. -1.
</event>
<event>
 8    1  0.7572579E-006  0.1007800E+04  0.7818608E-02  0.8768477E-01
         21   -1    0    0  503  502  0.00000000000E+00  0.00000000000E+00  0.74235915482E+03  0.74235915482E+03  0.00000000000E+00 0. -1.
         21   -1    0    0  501  503 -0.00000000000E+00 -0.00000000000E+00 -0.14184310237E+04  0.14184310237E+04  0.00000000000E+00 0. -1.
    9000010    2    1    2  501    0  0.79929756449E+02  0.27686196565E+02 -0.55568615661E+03  0.11508463891E+04  0.10042435040E+04 0.  0.
   -9000010    2    1    2    0  502 -0.79929756449E+02 -0.27686196565E+02 -0.12038571230E+03  0.10099437894E+04  0.99916887792E+03 0.  0.
        -13    1    3    3    0    0 -0.14185152682E+03  0.13253640039E+03 -0.78885810490E+03  0.81239453095E+03  0.10566000000E+00 0.  1.
         13    1    4    4    0    0 -0.34286072706E+03  0.30329975420E+03  0.17946466377E+03  0.49168261690E+03  0.10566000000E+00 0. -1.
          4    1    3    3  501    0  0.22178128327E+03 -0.10485020383E+03  0.23317194829E+03  0.33845185820E+03  0.00000000000E+00 0.  1.
         -4    1    4    4    0  502  0.26293097061E+03 -0.33098595076E+03 -0.29985037607E+03  0.51826117251E+03  0.00000000000E+00 0. -1.
</event>
<event>
 8    1  0.7572579E-006  0.1076944E+04  0.7818608E-02  0.8721196E-01
         21   -1    0    0  501  502  0.00000000000E+00  0.00000000000E+00  0.79742040815E+03  0.79742040815E+03  0.00000000000E+00 0.  1.
         21   -1    0    0  502  503 -0.00000000000E+00 -0.00000000000E+00 -0.17977742194E+04  0.17977742194E+04  0.00000000000E+00 0.  1.
    9000010    2    1    2  501    0  0.21218694471E+03  0.22911414635E+03  0.12658723549E+03  0.10843585029E+04  0.10306757216E+04 0.  0.
   -9000010    2    1    2    0  503 -0.21218694471E+03 -0.22911414635E+03 -0.11269410468E+04  0.15108361246E+04  0.95661543009E+03 0.  0.
        -13    1    3    3    0    0 -0.38298777874E+03  0.24247520724E+03 -0.67290070614E+02  0.45825956570E+03  0.10566000000E+00 0.  1.
         13    1    4    4    0    0  0.35967106860E+03 -0.57594137100E+02 -0.65631401893E+03  0.75061872134E+03  0.10566000000E+00 0. -1.
          4    1    3    3  501    0  0.59517472344E+03 -0.13361060891E+02  0.19387730611E+03  0.62609893723E+03  0.00000000000E+00 0.  1.
         -4    1    4    4    0  503 -0.57185801331E+03 -0.17152000925E+03 -0.47062702784E+03  0.76021740331E+03  0.00000000000E+00 0. -1.
</event>
<event>
 8    1  0.7572579E-006  0.9839568E+03  0.7818608E-02  0.8792865E-01
         21   -1    0    0  503  502  0.00000000000E+00  0.00000000000E+00  0.95294842584E+03  0.95294842584E+03  0.00000000000E+00 0.  1.
         21   -1    0    0  501  503 -0.00000000000E+00 -0.00000000000E+00 -0.15565318932E+04  0.15565318932E+04  0.00000000000E+00 0.  1.
    9000010    2    1    2  501    0 -0.42202759918E+02 -0.97838752763E+02 -0.10488078381E+04  0.14294822895E+04  0.96543681317E+03 0.  0.
   -9000010    2    1    2    0  502  0.42202759918E+02  0.97838752763E+02  0.44522437066E+03  0.10799980296E+04  0.97817049089E+03 0.  0.
        -13    1    3    3    0    0  0.18244680459E+03 -0.12061231275E+03 -0.11581359666E+04  0.11786064206E+04  0.10566000000E+00 0.  1.
         13    1    4    4    0    0 -0.30674701414E+03  0.32744783386E+03  0.48461442497E+03  0.66042938050E+03  0.10566000000E+00 0. -1.
          4    1    3    3  501    0 -0.22464956451E+03  0.22773559989E+02  0.10932812853E+03  0.25087586882E+03  0.00000000000E+00 0.  1.
         -4    1    4    4    0  502  0.34894977406E+03 -0.22960908109E+03 -0.39390054311E+02  0.41956864911E+03  0.00000000000E+00 0. -1.
</event>
<event>
 8    1  0.7572579E-006  0.1032542E+04  0.7818608E-02  0.8756759E-01
         21   -1    0    0  503  502  0.00000000000E+00  0.00000000000E+00  0.40072650913E+03  0.40072650913E+03  0.00000000000E+00 0. -1.
         21   -1    0    0  501  503 -0.00000000000E+00 -0.00000000000E+00 -0.28267367304E+04  0.28267367304E+04  0.00000000000E+00 0. -1.
    9000010    2    1    2  501    0 -0.27371394693E+03 -0.61177792932E+02 -0.65978128718E+03  0.11815628966E+04  0.93921109699E+03 0.  0.
   -9000010    2    1    2    0  502  0.27371394693E+03  0.61177792932E+02 -0.17662289341E+04  0.20459003429E+04  0.99372104655E+03 0.  0.
        -13    1    3    3    0    0 -0.23405804866E+03  0.39143561683E+03 -0.54933423905E+03  0.71398398415E+03  0.10566000000E+00 0.  1.
         13    1    4    4    0    0  0.48802018980E+03  0.38238732303E+03 -0.13019424414E+04  0.14420256248E+04  0.10566000000E+00 0. -1.
          4    1    3    3  501    0 -0.39655898269E+02 -0.45261340976E+03 -0.11044704813E+03  0.46757891249E+03  0.00000000000E+00 0.  1.
         -4    1    4    4    0  502 -0.21430624287E+03 -0.32120953009E+03 -0.46428649270E+03  0.60387471818E+03  0.00000000000E+00 0. -1.
</event>
<event>
 8    1  0.7572579E-006  0.1006130E+04  0.7818608E-02  0.8773123E-01
         21   -1    0    0  503  502  0.00000000000E+00  0.00000000000E+00  0.12611642663E+04  0.12611642663E+04  0.00000000000E+00 0.  1.
         21   -1    0    0  501  503 -0.00000000000E+00 -0.00000000000E+00 -0.80984387424E+03  0.80984387424E+03  0.00000000000E+00 0.  1.
    9000010    2    1    2  501    0 -0.82528225258E+02  0.17506713675E+02  0.39669330108E+03  0.10815100412E+04  0.10025871539E+04 0.  0.
   -9000010    2    1    2    0  502  0.82528225258E+02 -0.17506713675E+02  0.54627090958E+02  0.98949809928E+03  0.98438050388E+03 0.  0.
        -13    1    3    3    0    0  0.35821697137E+03 -0.30590908078E+02 -0.13960602407E+03  0.38567480518E+03  0.10566000000E+00 0.  1.
         13    1    4    4    0    0 -0.10200518243E+03  0.57477048806E+02 -0.44050652738E+03  0.45580114108E+03  0.10566000000E+00 0. -1.
          4    1    3    3  501    0 -0.44074519663E+03  0.48097621753E+02  0.53629932514E+03  0.69583523604E+03  0.00000000000E+00 0.  1.
         -4    1    4    4    0  502  0.18453340768E+03 -0.74983762480E+02  0.49513361834E+03  0.53369695820E+03  0.00000000000E+00 0. -1.
</event>
<event>
 8    1  0.7572579E-006  0.1046428E+04  0.7818608E-02  0.8734533E-01
         21   -1    0    0  501  502  0.00000000000E+00  0.00000000000E+00  0.20916969614E+04  0.20916969614E+04  0.00000000000E+00 0.  1.
         21   -1    0    0  502  503 -0.00000000000E+00 -0.00000000000E+00 -0.71801388248E+03  0.71801388248E+03  0.00000000000E+00 0.  1.
    9000010    2    1    2  501    0 -0.29007773034E+03  0.20202215920E+02  0.14254256186E+04  0.17620041224E+04  0.99411624784E+03 0.  0.
   -9000010    2    1    2    0  503  0.29007773034E+03 -0.20202215920E+02 -0.51742539662E+02  0.10477067214E+04  0.10052158298E+04 0.  0.
        -13    1    3    3    0    0 -0.49477203676E+02  0.24084553343E+03  0.14141393867E+04  0.14353552804E+04  0.10566000000E+00 0.  1.
         13    1    4    4    0    0  0.51515977957E+03  0.38360903399E+02 -0.38291330937E+03  0.64302703757E+03  0.10566000000E+00 0. -1.
          4    1    3    3  501    0 -0.24060052666E+03 -0.22064331751E+03  0.11286231855E+02  0.32664884206E+03  0.00000000000E+00 0.  1.
         -4    1    4    4    0  503 -0.22508204923E+03 -0.58563119319E+02  0.33117076970E+03  0.40467968387E+03  0.00000000000E+00 0. -1.
</event>
<event>
 8    1  0.7572579E-006  0.1033080E+04  0.7818608E-02  0.8745288E-01
         21   -1    0    0  503  502  0.00000000000E+00  0.00000000000E+00  0.10421206900E+04  0.10421206900E+04  0.00000000000E+00 0. -1.
         21   -1    0    0  501  503 -0.00000000000E+00 -0.00000000000E+00 -0.10364457410E+04  0.10364457410E+04  0.00000000000E+00 0. -1.
    9000010    2    1    2  501    0 -0.22048668042E+03 -0.26222999834E+02  0.13767770453E+03  0.10370873620E+04  0.10036398877E+04 0.  0.
   -9000010    2    1    2    0  502  0.22048668042E+03  0.26222999834E+02 -0.13200275550E+03  0.10414790690E+04  0.10089360246E+04 0.  0.
        -13    1    3    3    0    0 -0.57743015319E+03 -0.19318473687E+03  0.19393937269E+03  0.63902927618E+03  0.10566000000E+00 0.  1.
         13    1    4    4    0    0  0.37859981857E+03 -0.32966109357E+03 -0.33381555249E+03  0.60286573421E+03  0.10566000000E+00 0. -1.
          4    1    3    3  501    0  0.35694347277E+03  0.16696173704E+03 -0.56261668155E+02  0.39805808582E+03  0.00000000000E+00 0.  1.
         -4    1    4    4    0  502 -0.15811313815E+03  0.35588409341E+03  0.20181279698E+03  0.43861333475E+03  0.00000000000E+00 0. -1.
</event>
<event>
 8    1  0.7572579E-006  0.1022955E+04  0.7818608E-02  0.8757114E-01
         21   -1    0    0  501  502  0.00000000000E+00  0.00000000000E+00  0.10596549636E+04  0.10596549636E+04  0.00000000000E+00 0. -1.
         21   -1    0    0  502  503 -0.00000000000E+00 -0.00000000000E+00 -0.10295308920E+04  0.10295308920E+04  0.00000000000E+00 0. -1.
    9000010    2    1    2  501    0 -0.98291850956E+02  0.54007970772E+02  0.26276445740E+03  0.10561636019E+04  0.10167882007E+04 0.  0.
   -9000010    2    1    2    0  503  0.98291850956E+02 -0.54007970772E+02 -0.23264038582E+03  0.10330222537E+04  0.10002176157E+04 0.  0.
        -13    1    3    3    0    0 -0.10435257254E+03 -0.47668112948E+03  0.77804485443E+02  0.49413349180E+03  0.10566000000E+00 0.  1.
         13    1    4    4    0    0  0.50320906450E+03 -0.90779133316E+02 -0.33807768190E+03  0.61299000302E+03  0.10566000000E+00 0. -1.
          4    1    3    3  501    0  0.60607215801E+01  0.53068910026E+03  0.18495997195E+03  0.56203011014E+03  0.00000000000E+00 0.  1.
         -4    1    4    4    0  503 -0.40491721354E+03  0.36771162545E+02  0.10543729608E+03  0.42003225069E+03  0.00000000000E+00 0. -1.
</event>
<event>
 8    1  0.7572579E-006  0.1077388E+04  0.7818608E-02  0.8707016E-01
         21   -1    0    0  501  502  0.00000000000E+00  0.00000000000E+00  0.74926779665E+03  0.74926779665E+03  0.00000000000E+00 0. -1.
         21   -1    0    0  502  503 -0.00000000000E+00 -0.00000000000E+00 -0.15721373197E+04  0.15721373197E+04  0.00000000000E+00 0. -1.
    9000010    2    1    2  501    0 -0.23913096465E+03  0.31069422458E+03 -0.58808399770E+03  0.12274390865E+04  0.10035185117E+04 0.  0.
   -9000010    2    1    2    0  503  0.23913096465E+03 -0.31069422458E+03 -0.23478552531E+03  0.10939660298E+04  0.99394311306E+03 0.  0.
        -13    1    3    3    0    0  0.19975239507E+03  0.53145334600E+03 -0.20203358695E+03  0.60262862506E+03  0.10566000000E+00 0.  1.
         13    1    4    4    0    0  0.42035357042E+03 -0.59660928326E+03 -0.16869435233E+03  0.74906445431E+03  0.10566000000E+00 0. -1.
          4    1    3    3  501    0 -0.43888335972E+03 -0.22075912142E+03 -0.38605041075E+03  0.62481046147E+03  0.00000000000E+00 0.  1.
         -4    1    4    4    0  503 -0.18122260577E+03  0.28591505868E+03 -0.66091172978E+02  0.34490157548E+03  0.00000000000E+00 0. -1.
</event>
<event>
 8    1  0.7572579E-006  0.1018589E+04  0.7818608E-02  0.8764893E-01
         21   -1    0    0  501  502  0.00000000000E+00  0.00000000000E+00  0.76498878354E+03  0.76498878354E+03  0.00000000000E+00 0. -1.
         21   -1    0    0  502  503 -0.00000000000E+00 -0.00000000000E+00 -0.13755147217E+04  0.13755147217E+04  0.00000000000E+00 0. -1.
    9000010    2    1    2  501    0 -0.25690479661E+02 -0.73207978398E+02 -0.73229543698E+02  0.98889153013E+03  0.98311977065E+03 0.  0.
   -9000010    2    1    2    0  503  0.25690479661E+02  0.73207978398E+02 -0.53729639449E+03  0.11516119751E+04  0.10156295176E+04 0.  0.
        -13    1    3    3    0    0 -0.23936245167E+02 -0.19498158823E+03  0.42914254312E+03  0.47196832210E+03  0.10566000000E+00 0.  1.
         13    1    4    4    0    0  0.41252652345E+03 -0.64944299305E+02 -0.60517365086E+03  0.73527617493E+03  0.10566000000E+00 0. -1.
          4    1    3    3  501    0 -0.17542344941E+01  0.12177360983E+03 -0.50237208682E+03  0.51692320804E+03  0.00000000000E+00 0.  1.
         -4    1    4    4    0  503 -0.38683604379E+03  0.13815227770E+03  0.67877256373E+02  0.41633580021E+03  0.00000000000E+00 0. -1.
</event>
<event>
 8    1  0.7572579E-006  0.1074153E+04  0.7818608E-02  0.8708609E-01
         21   -1    0    0  503  502  0.00000000000E+00  0.00000000000E+00  0.87550795893E+03  0.87550795893E+03  0.00000000000E+00 0.  1.
         21   -1    0    0  501  503 -0.00000000000E+00 -0.00000000000E+00 -0.14426857983E+04  0.14426857983E+04  0.00000000000E+00 0.  1.
    9000010    2    1    2  501    0  0.28924489965E+03  0.21632859458E+03 -0.62974601082E+03  0.12422199612E+04  0.10080028378E+04 0.  0.
   -9000010    2    1    2    0  502 -0.28924489965E+03 -0.21632859458E+03  0.62568171473E+02  0.10759737960E+04  0.10116047453E+04 0.  0.
        -13    1    3    3    0    0 -0.21899258545E+03 -0.44564340745E+02  0.15469505190E+03  0.27179827666E+03  0.10566000000E+00 0.  1.
         13    1    4    4    0    0 -0.35433015431E+03  0.34867934958E+03  0.95775441018E+02  0.50626089454E+03  0.10566000000E+00 0. -1.
          4    1    3    3  501    0  0.50823748510E+03  0.26089293532E+03 -0.78444106271E+03  0.97042168454E+03  0.00000000000E+00 0.  1.
         -4    1    4    4    0  502  0.65085254655E+02 -0.56500794416E+03 -0.33207269545E+02  0.56971290146E+03  0.00000000000E+00 0. -1.
</event>
<event>
 8    1  0.7572579E-006  0.1081861E+04  0.7818608E-02  0.8702887E-01
         21   -1    0    0  503  502  0.00000000000E+00  0.00000000000E+00  0.46888684432E+03  0.46888684432E+03  0.00000000000E+00 0. -1.
         21   -1    0    0  501  503 -0.00000000000E+00 -0.00000000000E+00 -0.26984579682E+04  0.26984579682E+04  0.00000000000E+00 0. -1.
    9000010    2    1    2  501    0  0.14824100981E+03  0.35517598818E+03 -0.15702790179E+04  0.19068819413E+04  0.10110871202E+04 0.  0.
   -9000010    2    1    2    0  502 -0.14824100981E+03 -0.35517598818E+03 -0.65929210598E+03  0.12604628712E+04  0.10029831449E+04 0.  0.
        -13    1    3    3    0    0  0.46727528007E+03 -0.14405954572E+03 -0.73632390037E+03  0.88389605582E+03  0.10566000000E+00 0.  1.
         13    1    4    4    0    0 -0.28391997852E+03 -0.39550437468E+03 -0.87566188377E+03  0.10019071865E+04  0.10566000000E+00 0. -1.
          4    1    3    3  501    0 -0.31903427026E+03  0.49923553390E+03 -0.83395511748E+03  0.10229858855E+04  0.00000000000E+00 0.  1.
         -4    1    4    4    0  502  0.13567896871E+03  0.40328386502E+02  0.21636977779E+03  0.25855568462E+03  0.00000000000E+00 0. -1.
</event>
<event>
 8    1  0.7572579E-006  0.1036684E+04  0.7818608E-02  0.8757251E-01
         21   -1    0    0  501  502  0.00000000000E+00  0.00000000000E+00  0.17342220230E+04  0.17342220230E+04  0.00000000000E+00 0. -1.
         21   -1    0    0  502  503 -0.00000000000E+00 -0.00000000000E+00 -0.59279830117E+03  0.59279830117E+03  0.00000000000E+00 0. -1.
    9000010    2    1    2  501    0  0.80805691008E+02 -0.23869416768E+03  0.73214491628E+03  0.12124698118E+04  0.93302861736E+03 0.  0.
   -9000010    2    1    2    0  503 -0.80805691008E+02  0.23869416768E+03  0.40927880557E+03  0.11145505123E+04  0.10055890008E+04 0.  0.
        -13    1    3    3    0    0 -0.34051132409E+03  0.15333133601E+03  0.40331919981E+03  0.54965884741E+03  0.10566000000E+00 0.  1.
         13    1    4    4    0    0 -0.44744449083E+03  0.92115170560E+02 -0.10246957736E+03  0.46817924181E+03  0.10566000000E+00 0. -1.
          4    1    3    3  501    0  0.42131701510E+03 -0.39202550369E+03  0.32882571648E+03  0.66281096444E+03  0.00000000000E+00 0.  1.
         -4    1    4    4    0  503  0.36663879982E+03  0.14657899712E+03  0.51174838293E+03  0.64637127053E+03  0.00000000000E+00 0. -1.
</event>
<event>
 8    1  0.7572579E-006  0.1012105E+04  0.7818608E-02  0.8766708E-01
         21   -1    0    0  503  502  0.00000000000E+00  0.00000000000E+00  0.10166421622E+04  0.10166421622E+04  0.00000000000E+00 0. -1.
         21   -1    0    0  501  503 -0.00000000000E+00 -0.00000000000E+00 -0.10168440460E+04  0.10168440460E+04  0.00000000000E+00 0. -1.
    9000010    2    1    2  501    0  0.12012512769E+03  0.54656297811E+01 -0.15547770982E+03  0.10239777799E+04  0.10049364438E+04 0.  0.
   -9000010    2    1    2    0  502 -0.12012512769E+03 -0.54656297811E+01  0.15527582602E+03  0.10095084283E+04  0.99022056394E+03 0.  0.
        -13    1    3    3    0    0 -0.13384908597E+03  0.39698449385E+02 -0.54229101807E+03  0.55997419953E+03  0.10566000000E+00 0.  1.
         13    1    4    4    0    0  0.27676060995E+03  0.14786090057E+03  0.40794699787E+03  0.51466498362E+03  0.10566000000E+00 0. -1.
          4    1    3    3  501    0  0.25397421366E+03 -0.34232819604E+02  0.38681330825E+03  0.46400358036E+03  0.00000000000E+00 0.  1.
         -4    1    4    4    0  502 -0.39688573764E+03 -0.15332653035E+03 -0.25267117185E+03  0.49484344467E+03  0.00000000000E+00 0. -1.
</event>
<event>
 8    1  0.7572579E-006  0.1026516E+04  0.7818608E-02  0.8753766E-01
         21   -1    0    0  503  502  0.00000000000E+00  0.00000000000E+00  0.10203562682E+04  0.10203562682E+04  0.00000000000E+00 0.  1.
         21   -1    0    0  501  503 -0.00000000000E+00 -0.00000000000E+00 -0.10222282426E+04  0.10222282426E+04  0.00000000000E+00 0.  1.
    9000010    2    1    2  501    0 -0.18979811024E+03  0.80194166724E+02 -0.76938902320E+02  0.10293957402E+04  0.10056249640E+04 0.  0.
   -9000010    2    1    2    0  502  0.18979811024E+03 -0.80194166724E+02  0.75066927917E+02  0.10131887706E+04  0.98917238850E+03 0.  0.
        -13    1    3    3    0    0 -0.51556573196E+03  0.20206225955E+03  0.19585409893E+03  0.58736361816E+03  0.10566000000E+00 0.  1.
         13    1    4    4    0    0  0.45957900132E+03 -0.37570927102E+03 -0.45311878415E+02  0.59533477328E+03  0.10566000000E+00 0. -1.
          4    1    3    3  501    0  0.32576762172E+03 -0.12186809283E+03 -0.27279300125E+03  0.44203212206E+03  0.00000000000E+00 0.  1.
         -4    1    4    4    0  502 -0.26978089108E+03  0.29551510430E+03  0.12037880633E+03  0.41785399732E+03  0.00000000000E+00 0. -1.
</event>
<event>
 8    1  0.7572579E-006  0.1009443E+04  0.7818608E-02  0.8768558E-01
         21   -1    0    0  501  502  0.00000000000E+00  0.00000000000E+00  0.13214522855E+04  0.13214522855E+04  0.00000000000E+00 0.  1.
         21   -1    0    0  502  503 -0.00000000000E+00 -0.00000000000E+00 -0.88072814962E+03  0.88072814962E+03  0.00000000000E+00 0.  1.
    9000010    2    1    2  501    0 -0.17056711572E+03  0.15309921165E+02  0.62574425258E+03  0.11876580387E+04  0.99481064154E+03 0.  0.
   -9000010    2    1    2    0  503  0.17056711572E+03 -0.15309921165E+02 -0.18502011673E+03  0.10145223964E+04  0.98269818081E+03 0.  0.
        -13    1    3    3    0    0 -0.53939517327E+03  0.22015847006E+03  0.42043013656E+03  0.71845557676E+03  0.10566000000E+00 0.  1.
         13    1    4    4    0    0 -0.56995825262E+02  0.46076117550E+03 -0.14009786346E+03  0.48495031442E+03  0.10566000000E+00 0. -1.
          4    1    3    3  501    0  0.36882805755E+03 -0.20484854890E+03  0.20531411602E+03  0.46920246191E+03  0.00000000000E+00 0.  1.
         -4    1    4    4    0  503  0.22756294098E+03 -0.47607109666E+03 -0.44922253275E+02  0.52957208199E+03  0.00000000000E+00 0. -1.
</event>
<event>
 8    1  0.7572579E-006  0.1017211E+04  0.7818608E-02  0.8759371E-01
         21   -1    0    0  501  502  0.00000000000E+00  0.00000000000E+00  0.92886643833E+03  0.92886643833E+03  0.00000000000E+00 0. -1.
         21   -1    0    0  502  503 -0.00000000000E+00 -0.00000000000E+00 -0.14754104338E+04  0.14754104338E+04  0.00000000000E+00 0. -1.
    9000010    2    1    2  501    0 -0.14720446544E+03 -0.33338173379E+02 -0.87099321590E+03  0.13365754075E+04  0.10025088775E+04 0.  0.
   -9000010    2    1    2    0  503  0.14720446544E+03  0.33338173379E+02  0.32444922039E+03  0.10677014646E+04  0.10059515557E+04 0.  0.
        -13    1    3    3    0    0 -0.37827406451E+03  0.10942164639E+03 -0.97047041339E+03  0.10473190531E+04  0.10566000000E+00 0.  1.
         13    1    4    4    0    0 -0.42592052859E+03 -0.77257615526E+02  0.11942492814E+03  0.44904271563E+03  0.10566000000E+00 0. -1.
          4    1    3    3  501    0  0.23106959908E+03 -0.14275981977E+03  0.99477197489E+02  0.28925635443E+03  0.00000000000E+00 0.  1.
         -4    1    4    4    0  503  0.57312499403E+03  0.11059578890E+03  0.20502429225E+03  0.61865874900E+03  0.00000000000E+00 0. -1.
</event>
<event>
 8    1  0.7572579E-006  0.1087675E+04  0.7818608E-02  0.8701945E-01
         21   -1    0    0  501  502  0.00000000000E+00  0.00000000000E+00  0.67668493888E+03  0.67668493888E+03  0.00000000000E+00 0. -1.
         21   -1    0    0  502  503 -0.00000000000E+00 -0.00000000000E+00 -0.18965457574E+04  0.18965457574E+04  0.00000000000E+00 0. -1.
    9000010    2    1    2  501    0 -0.24564161438E+03  0.27370711001E+03 -0.19589812956E+03  0.10793977138E+04  0.99572484277E+03 0.  0.
   -9000010    2    1    2    0  503  0.24564161438E+03 -0.27370711001E+03 -0.10239626889E+04  0.14938329825E+04  0.10236122344E+04 0.  0.
        -13    1    3    3    0    0 -0.63304154289E+03  0.13043877723E+03 -0.86420168514E+02  0.65209226826E+03  0.10566000000E+00 0.  1.
         13    1    4    4    0    0 -0.29131608952E+03  0.12378054218E+03 -0.66253423017E+03  0.73426037884E+03  0.10566000000E+00 0. -1.
          4    1    3    3  501    0  0.38739992852E+03  0.14326833278E+03 -0.10947796104E+03  0.42730544549E+03  0.00000000000E+00 0.  1.
         -4    1    4    4    0  503  0.53695770389E+03 -0.39748765219E+03 -0.36142845876E+03  0.75957260365E+03  0.00000000000E+00 0. -1.
</event>
<event>
 8    1  0.7572579E-006  0.1008128E+04  0.7818608E-02  0.8771405E-01
         21   -1    0    0  503  502  0.00000000000E+00  0.00000000000E+00  0.18444368775E+04  0.18444368775E+04  0.00000000000E+00 0. -1.
         21   -1    0    0  501  503 -0.00000000000E+00 -0.00000000000E+00 -0.66994115665E+03  0.66994115665E+03  0.00000000000E+00 0. -1.
    9000010    2    1    2  501    0  0.10452577740E+03  0.51648049936E+02  0.39759352629E+02  0.10089118703E+04  0.10013636686E+04 0.  0.
   -9000010    2    1    2    0  502 -0.10452577740E+03 -0.51648049936E+02  0.11347363683E+04  0.15054661639E+04  0.98245029693E+03 0.  0.
        -13    1    3    3    0    0 -0.29518080981E+03  0.38330876854E+03  0.69054240946E+02  0.48869808867E+03  0.10566000000E+00 0.  1.
         13    1    4    4    0    0 -0.24890086901E+02 -0.16001540233E+03 -0.14579018310E+03  0.21789730164E+03  0.10566000000E+00 0. -1.
          4    1    3    3  501    0  0.39970658721E+03 -0.33166071860E+03 -0.29294888317E+02  0.52021378164E+03  0.00000000000E+00 0.  1.
         -4    1    4    4    0  502 -0.79635690501E+02  0.10836735240E+03  0.12805265514E+04  0.12875688622E+04  0.00000000000E+00 0. -1.
</event>
<event>
 8    1  0.7572579E-006  0.1009419E+04  0.7818608E-02  0.8785115E-01
         21   -1    0    0  503  502  0.00000000000E+00  0.00000000000E+00  0.57922577737E+03  0.57922577737E+03  0.00000000000E+00 0. -1.
         21   -1    0    0  501  503 -0.00000000000E+00 -0.00000000000E+00 -0.18424474936E+04  0.18424474936E+04  0.00000000000E+00 0. -1.
    9000010    2    1    2  501    0 -0.43602286771E+02 -0.67530656771E+02 -0.19113758093E+03  0.94916127573E+03  0.92623539313E+03 0.  0.
   -9000010    2    1    2    0  502  0.43602286771E+02  0.67530656771E+02 -0.10720841352E+04  0.14725119952E+04  0.10062135131E+04 0.  0.
        -13    1    3    3    0    0  0.12784224426E+03 -0.47007106154E+03 -0.14993077702E+03  0.50969568506E+03  0.10566000000E+00 0.  1.
         13    1    4    4    0    0 -0.30111378681E+03 -0.34364513443E+03 -0.62439863148E+03  0.77371516282E+03  0.10566000000E+00 0. -1.
          4    1    3    3  501    0 -0.17144453103E+03  0.40254040476E+03 -0.41206803906E+02  0.43946559066E+03  0.00000000000E+00 0.  1.
         -4    1    4    4    0  502  0.34471607358E+03  0.41117579120E+03 -0.44768550377E+03  0.69879683238E+03  0.00000000000E+00 0. -1.
</event>
<event>
 8    1  0.7572579E-006  0.1058043E+04  0.7818608E-02  0.8722252E-01
         21   -1    0    0  503  502  0.00000000000E+00  0.00000000000E+00  0.13617525289E+04  0.13617525289E+04  0.00000000000E+00 0.  1.
         21   -1    0    0  501  503 -0.00000000000E+00 -0.00000000000E+00 -0.12915877758E+04  0.12915877758E+04  0.00000000000E+00 0.  1.
    9000010    2    1    2  501    0 -0.33877513692E+03  0.31240245879E+02 -0.76591730647E+03  0.13048273486E+04  0.10001002664E+04 0.  0.
   -9000010    2    1    2    0  502  0.33877513692E+03 -0.31240245879E+02  0.83608205959E+03  0.13485129562E+04  0.10018530013E+04 0.  0.
        -13    1    3    3    0    0  0.33427884228E+03 -0.21230931501E+02 -0.84134571528E+02  0.34535740059E+03  0.10566000000E+00 0.  1.
         13    1    4    4    0    0  0.17161958855E+03 -0.30996751093E+03 -0.91256666872E+02  0.36587010184E+03  0.10566000000E+00 0. -1.
          4    1    3    3  501    0 -0.67305397920E+03  0.52471177380E+02 -0.68178273494E+03  0.95946994796E+03  0.00000000000E+00 0.  1.
         -4    1    4    4    0  502  0.16715554837E+03  0.27872726505E+03  0.92733872646E+03  0.98264285436E+03  0.00000000000E+00 0. -1.
</event>
<event>
 8    1  0.7572579E-006  0.9927409E+03  0.7818608E-02  0.8789640E-01
         21   -1    0    0  503  502  0.00000000000E+00  0.00000000000E+00  0.19357516851E+04  0.19357516851E+04  0.00000000000E+00 0. -1.
         21   -1    0    0  501  503 -0.00000000000E+00 -0.00000000000E+00 -0.51960633552E+03  0.51960633552E+03  0.00000000000E+00 0. -1.
    9000010    2    1    2  501    0 -0.97720728325E+02 -0.15222587666E+02  0.43603484744E+03  0.10842789457E+04  0.98780229598E+03 0.  0.
   -9000010    2    1    2    0  502  0.97720728325E+02  0.15222587666E+02  0.98011050210E+03  0.13710790749E+04  0.95365620921E+03 0.  0.
        -13    1    3    3    0    0  0.60915549482E+02  0.41058501229E+03 -0.50982224123E+02  0.41819846345E+03  0.10566000000E+00 0.  1.
         13    1    4    4    0    0  0.17668733961E+03  0.41781940462E+03  0.80704097625E+03  0.92580052893E+03  0.10566000000E+00 0. -1.
          4    1    3    3  501    0 -0.15863627781E+03 -0.42580759996E+03  0.48701707156E+03  0.66608048223E+03  0.00000000000E+00 0.  1.
         -4    1    4    4    0  502 -0.78966611282E+02 -0.40259681695E+03  0.17306952584E+03  0.44527854596E+03  0.00000000000E+00 0. -1.
</event>
<event>
 8    1  0.7572579E-006  0.1109810E+04  0.7818608E-02  0.8689764E-01
         21   -1    0    0  503  502  0.00000000000E+00  0.00000000000E+00  0.35855450557E+03  0.35855450557E+03  0.00000000000E+00 0. -1.
         21   -1    0    0  501  503 -0.00000000000E+00 -0.00000000000E+00 -0.33854267421E+04  0.33854267421E+04  0.00000000000E+00 0. -1.
    9000010    2    1    2  501    0 -0.30750810920E+03 -0.50115283552E+02 -0.19077913230E+04  0.22071124114E+04  0.10651782414E+04 0.  0.
   -9000010    2    1    2    0  502  0.30750810920E+03  0.50115283552E+02 -0.11190809135E+04  0.15368688362E+04  0.10062559067E+04 0.  0.
        -13    1    3    3    0    0 -0.26989430982E+02 -0.48687421442E+03 -0.13936856399E+04  0.14765278880E+04  0.10566000000E+00 0.  1.
         13    1    4    4    0    0  0.16174969045E+02  0.50553725564E+03 -0.45303162821E+03  0.67901930296E+03  0.10566000000E+00 0. -1.
          4    1    3    3  501    0 -0.28051867822E+03  0.43675893087E+03 -0.51410568310E+03  0.73058452346E+03  0.00000000000E+00 0.  1.
         -4    1    4    4    0  502  0.29133314016E+03 -0.45542197208E+03 -0.66604928531E+03  0.85784953324E+03  0.00000000000E+00 0. -1.
</event>
<event>
 8    1  0.7572579E-006  0.1113525E+04  0.7818608E-02  0.8677145E-01
         21   -1    0    0  501  502  0.00000000000E+00  0.00000000000E+00  0.81684930604E+03  0.81684930604E+03  0.00000000000E+00 0.  1.
         21   -1    0    0  502  503 -0.00000000000E+00 -0.00000000000E+00 -0.19907540224E+04  0.19907540224E+04  0.00000000000E+00 0.  1.
    9000010    2    1    2  501    0  0.39857403532E+03 -0.22249499562E+03  0.10635116412E+03  0.11185918950E+04  0.10156633166E+04 0.  0.
   -9000010    2    1    2    0  503 -0.39857403532E+03  0.22249499562E+03 -0.12802558805E+04  0.16890114335E+04  0.10026660552E+04 0.  0.
        -13    1    3    3    0    0  0.11642817896E+02 -0.46550905811E+03 -0.25965765665E+03  0.53315696395E+03  0.10566000000E+00 0.  1.
         13    1    4    4    0    0 -0.66408697821E+03  0.84473598915E+02 -0.12081199528E+04  0.13811955456E+04  0.10566000000E+00 0. -1.
          4    1    3    3  501    0  0.38693121742E+03  0.24301406249E+03  0.36600882077E+03  0.58543493103E+03  0.00000000000E+00 0.  1.
         -4    1    4    4    0  503  0.26551294289E+03  0.13802139670E+03 -0.72135927680E+02  0.30781588791E+03  0.00000000000E+00 0. -1.
</event>
<event>
 8    1  0.7572579E-006  0.1026155E+04  0.7818608E-02  0.8752387E-01
         21   -1    0    0  501  502  0.00000000000E+00  0.00000000000E+00  0.15766852697E+04  0.15766852697E+04  0.00000000000E+00 0.  1.
         21   -1    0    0  502  503 -0.00000000000E+00 -0.00000000000E+00 -0.74164589888E+03  0.74164589888E+03  0.00000000000E+00 0.  1.
    9000010    2    1    2  501    0 -0.10922846452E+03  0.24995907833E+03  0.79848233464E+03  0.13002188536E+04  0.98923436568E+03 0.  0.
   -9000010    2    1    2    0  503  0.10922846452E+03 -0.24995907833E+03  0.36557036154E+02  0.10181123149E+04  0.98020705499E+03 0.  0.
        -13    1    3    3    0    0  0.12783209008E+03 -0.33202058759E+03  0.47491442570E+03  0.59339905353E+03  0.10566000000E+00 0.  1.
         13    1    4    4    0    0  0.35055678625E+03 -0.43200522283E+03  0.28658479745E+03  0.62581900757E+03  0.10566000000E+00 0. -1.
          4    1    3    3  501    0 -0.23706055460E+03  0.58197966591E+03  0.32356790894E+03  0.70681980007E+03  0.00000000000E+00 0.  1.
         -4    1    4    4    0  503 -0.24132832174E+03  0.18204614450E+03 -0.25002776129E+03  0.39229330738E+03  0.00000000000E+00 0. -1.
</event>
<event>
 8    1  0.7572579E-006  0.1107065E+04  0.7818608E-02  0.8699205E-01
         21   -1    0    0  501  502  0.00000000000E+00  0.00000000000E+00  0.12652365879E+04  0.12652365879E+04  0.00000000000E+00 0. -1.
         21   -1    0    0  502  503 -0.00000000000E+00 -0.00000000000E+00 -0.11485830787E+04  0.11485830787E+04  0.00000000000E+00 0. -1.
    9000010    2    1    2  501    0 -0.29571814294E+02  0.22005653221E+02  0.62552074567E+03  0.11954029465E+04  0.10180143713E+04 0.  0.
   -9000010    2    1    2    0  503  0.29571814294E+02 -0.22005653221E+02 -0.50886723649E+03  0.12184167201E+04  0.11064513991E+04 0.  0.
        -13    1    3    3    0    0 -0.66799014748E+02 -0.43487939467E+03  0.58950114203E+03  0.73559078563E+03  0.10566000000E+00 0.  1.
         13    1    4    4    0    0  0.38579391499E+03  0.39842261388E+03 -0.28609735184E+03  0.62404265078E+03  0.10566000000E+00 0. -1.
          4    1    3    3  501    0  0.37227200454E+02  0.45688504789E+03  0.36019603635E+02  0.45981216087E+03  0.00000000000E+00 0.  1.
         -4    1    4    4    0  503 -0.35622210070E+03 -0.42042826710E+03 -0.22276988465E+03  0.59437406934E+03  0.00000000000E+00 0. -1.
</event>
<event>
 8    1  0.7572579E-006  0.1024573E+04  0.7818608E-02  0.8754689E-01
         21   -1    0    0  501  502  0.00000000000E+00  0.00000000000E+00  0.17407312318E+04  0.17407312318E+04  0.00000000000E+00 0. -1.
         21   -1    0    0  502  503 -0.00000000000E+00 -0.00000000000E+00 -0.66357775664E+03  0.66357775664E+03  0.00000000000E+00 0. -1.
    9000010    2    1    2  501    0 -0.35132057349E+02  0.17925832198E+03  0.92580544424E+03  0.13808929504E+04  0.10081576328E+04 0.  0.
   -9000010    2    1    2    0  503  0.35132057349E+02 -0.17925832198E+03  0.15134803091E+03  0.10234160380E+04  0.99554324515E+03 0.  0.
        -13    1    3    3    0    0 -0.32286572078E+03 -0.30782415231E+03  0.51741350831E+03  0.68316523048E+03  0.10566000000E+00 0.  1.
         13    1    4    4    0    0  0.46148259127E+03  0.43576219164E+02 -0.10933382471E+03  0.47625514728E+03  0.10566000000E+00 0. -1.
          4    1    3    3  501    0  0.28773366343E+03  0.48708247429E+03  0.40839193593E+03  0.69772771993E+03  0.00000000000E+00 0.  1.
         -4    1    4    4    0  503 -0.42635053392E+03 -0.22283454115E+03  0.26068185562E+03  0.54716089074E+03  0.00000000000E+00 0. -1.
</event>
<event>
 8    1  0.7572579E-006  0.1132052E+04  0.7818608E-02  0.8666345E-01
         21   -1    0    0  503  502  0.00000000000E+00  0.00000000000E+00  0.10276686275E+04  0.10276686275E+04  0.00000000000E+00 0.  1.
         21   -1    0    0  501  503 -0.00000000000E+00 -0.00000000000E+00 -0.20902350323E+04  0.20902350323E+04  0.00000000000E+00 0.  1.
    9000010    2    1    2  501    0 -0.53069507400E+03  0.36420401215E+02 -0.15377982978E+04  0.18901463039E+04  0.96169940109E+03 0.  0.
   -9000010    2    1    2    0  502  0.53069507400E+03 -0.36420401215E+02  0.47523189298E+03  0.12277573559E+04  0.99928928030E+03 0.  0.
        -13    1    3    3    0    0  0.17683324433E+03  0.28691777586E+03 -0.35670969760E+03  0.49074802693E+03  0.10566000000E+00 0.  1.
         13    1    4    4    0    0 -0.30010414188E+03 -0.22751720824E+02  0.11684818831E+03  0.32285236107E+03  0.10566000000E+00 0. -1.
          4    1    3    3  501    0 -0.70752831833E+03 -0.25049737465E+03 -0.11810886002E+04  0.13993982769E+04  0.00000000000E+00 0.  1.
         -4    1    4    4    0  502  0.83079921588E+03 -0.13668680391E+02  0.35838370467E+03  0.90490499485E+03  0.00000000000E+00 0. -1.
</event>
<event>
 8    1  0.7572579E-006  0.1222478E+04  0.7818608E-02  0.8591389E-01
         21   -1    0    0  501  502  0.00000000000E+00  0.00000000000E+00  0.65333327588E+03  0.65333327588E+03  0.00000000000E+00 0.  1.
         21   -1    0    0  502  503 -0.00000000000E+00 -0.00000000000E+00 -0.23012570238E+04  0.23012570238E+04  0.00000000000E+00 0.  1.
    9000010    2    1    2  501    0 -0.12024873140E+03  0.69068859103E+03 -0.98877698159E+03  0.15657322443E+04  0.99112413662E+03 0.  0.
   -9000010    2    1    2    0  503  0.12024873140E+03 -0.69068859103E+03 -0.65914676636E+03  0.13888580555E+04  0.10014697956E+04 0.  0.
        -13    1    3    3    0    0 -0.71296697097E+02 -0.24025822782E+03 -0.78080471108E+02  0.26249534507E+03  0.10566000000E+00 0.  1.
         13    1    4    4    0    0 -0.43773647439E+03 -0.35648633903E+03 -0.38334124730E+03  0.68238277672E+03  0.10566000000E+00 0. -1.
          4    1    3    3  501    0 -0.48952034303E+02  0.93094681885E+03 -0.91069651048E+03  0.13032368992E+04  0.00000000000E+00 0.  1.
         -4    1    4    4    0  503  0.55798520579E+03 -0.33420225201E+03 -0.27580551907E+03  0.70647527874E+03  0.00000000000E+00 0. -1.
</event>
<event>
 8    1  0.7572579E-006  0.1048555E+04  0.7818608E-02  0.8732310E-01
         21   -1    0    0  503  502  0.00000000000E+00  0.00000000000E+00  0.13732833821E+04  0.13732833821E+04  0.00000000000E+00 0.  1.
         21   -1    0    0  501  503 -0.00000000000E+00 -0.00000000000E+00 -0.14239654782E+04  0.14239654782E+04  0.00000000000E+00 0.  1.
    9000010    2    1    2  501    0 -0.47880826512E+01 -0.31171210318E+03 -0.95596031907E+03  0.14189181143E+04  0.10011399115E+04 0.  0.
   -9000010    2    1    2    0  502  0.47880826512E+01  0.31171210318E+03  0.90527822295E+03  0.13783307461E+04  0.99150371841E+03 0.  0.
        -13    1    3    3    0    0 -0.37337668858E+03  0.18044129461E+02 -0.82738546639E+03  0.90791104374E+03  0.10566000000E+00 0.  1.
         13    1    4    4    0    0 -0.62199129498E+02 -0.26527642232E+03  0.71809764074E+03  0.76805243620E+03  0.10566000000E+00 0. -1.
          4    1    3    3  501    0  0.36858860593E+03 -0.32975623265E+03 -0.12857485268E+03  0.51100707053E+03  0.00000000000E+00 0.  1.
         -4    1    4    4    0  502  0.66987212150E+02  0.57698852550E+03  0.18718058221E+03  0.61027830988E+03  0.00000000000E+00 0. -1.
</event>
<event>
 8    1  0.7572579E-006  0.1044218E+04  0.7818608E-02  0.8734976E-01
         21   -1    0    0  503  502  0.00000000000E+00  0.00000000000E+00  0.24513281972E+04  0.24513281972E+04  0.00000000000E+00 0. -1.
         21   -1    0    0  501  503 -0.00000000000E+00 -0.00000000000E+00 -0.45469734386E+03  0.45469734386E+03  0.00000000000E+00 0. -1.
    9000010    2    1    2  501    0 -0.25383084970E+03  0.89526999618E+02  0.76888691510E+03  0.12967570266E+04  0.10089333546E+04 0.  0.
   -9000010    2    1    2    0  502  0.25383084970E+03 -0.89526999618E+02  0.12277439382E+04  0.16092685144E+04  0.10049600936E+04 0.  0.
        -13    1    3    3    0    0  0.19579528118E+03 -0.27676718286E+03  0.60597747524E+03  0.69436631349E+03  0.10566000000E+00 0.  1.
         13    1    4    4    0    0  0.35804025699E+03  0.40166023049E+03  0.65027119534E+03  0.84402393629E+03  0.10566000000E+00 0. -1.
          4    1    3    3  501    0 -0.44962613088E+03  0.36629418248E+03  0.16290943986E+03  0.60239071314E+03  0.00000000000E+00 0.  1.
         -4    1    4    4    0  502 -0.10420940728E+03 -0.49118723011E+03  0.57747274291E+03  0.76524457815E+03  0.00000000000E+00 0. -1.
</event>
<event>
 8    1  0.7572579E-006  0.1077657E+04  0.7818608E-02  0.8709845E-01
         21   -1    0    0  501  502  0.00000000000E+00  0.00000000000E+00  0.44179560859E+03  0.44179560859E+03  0.00000000000E+00 0.  1.
         21   -1    0    0  502  503 -0.00000000000E+00 -0.00000000000E+00 -0.26965207566E+04  0.26965207566E+04  0.00000000000E+00 0.  1.
    9000010    2    1    2  501    0 -0.30543475190E+02  0.34533328723E+03 -0.80311813700E+03  0.13440027162E+04  0.10203708032E+04 0.  0.
   -9000010    2    1    2    0  503  0.30543475190E+02 -0.34533328723E+03 -0.14516070110E+04  0.17943136490E+04  0.99609767256E+03 0.  0.
        -13    1    3    3    0    0 -0.11893634326E+03  0.67559718012E+03 -0.71517340214E+03  0.99098456589E+03  0.10566000000E+00 0.  1.
         13    1    4    4    0    0 -0.53628919458E+02  0.26733081217E+03 -0.71334517883E+02  0.28183408017E+03  0.10566000000E+00 0. -1.
          4    1    3    3  501    0  0.88392868074E+02 -0.33026389289E+03 -0.87944734857E+02  0.35301815033E+03  0.00000000000E+00 0.  1.
         -4    1    4    4    0  503  0.84172394648E+02 -0.61266409941E+03 -0.13802724931E+04  0.15124795688E+04  0.00000000000E+00 0. -1.
</event>
<event>
 8    1  0.7572579E-006  0.1104743E+04  0.7818608E-02  0.8682019E-01
         21   -1    0    0  503  502  0.00000000000E+00  0.00000000000E+00  0.15107997661E+04  0.15107997661E+04  0.00000000000E+00 0. -1.
         21   -1    0    0  501  503 -0.00000000000E+00 -0.00000000000E+00 -0.90504982268E+03  0.90504982268E+03  0.00000000000E+00 0. -1.
    9000010    2    1    2  501    0  0.37338574642E+03 -0.27934870772E+03 -0.93377942585E+02  0.11086819166E+04  0.10015006420E+04 0.  0.
   -9000010    2    1    2    0  502 -0.37338574642E+03  0.27934870772E+03  0.69912788602E+03  0.13071676722E+04  0.10012267006E+04 0.  0.
        -13    1    3    3    0    0 -0.16545368366E+03 -0.16721105696E+03  0.33632241311E+03  0.41042323976E+03  0.10566000000E+00 0.  1.
         13    1    4    4    0    0  0.24873852174E+02 -0.24650542712E+03  0.58821262320E+03  0.63826149451E+03  0.10566000000E+00 0. -1.
          4    1    3    3  501    0  0.53883943008E+03 -0.11213765075E+03 -0.42970035570E+03  0.69825867686E+03  0.00000000000E+00 0.  1.
         -4    1    4    4    0  502 -0.39825959859E+03  0.52585413483E+03  0.11091526282E+03  0.66890617767E+03  0.00000000000E+00 0. -1.
</event>
<event>
 8    1  0.7572579E-006  0.1145480E+04  0.7818608E-02  0.8651012E-01
         21   -1    0    0  501  502  0.00000000000E+00  0.00000000000E+00  0.13122288421E+04  0.13122288421E+04  0.00000000000E+00 0.  1.
         21   -1    0    0  502  503 -0.00000000000E+00 -0.00000000000E+00 -0.10459248891E+04  0.10459248891E+04  0.00000000000E+00 0.  1.
    9000010    2    1    2  501    0  0.53189983883E+03 -0.22491241959E+01  0.40580419539E+03  0.12152372078E+04  0.10144958990E+04 0.  0.
   -9000010    2    1    2    0  503 -0.53189983883E+03  0.22491241959E+01 -0.13950024238E+03  0.11429165234E+04  0.10019358086E+04 0.  0.
        -13    1    3    3    0    0  0.22369483316E+03  0.15617002800E+03  0.70592345564E+03  0.75680670743E+03  0.10566000000E+00 0.  1.
         13    1    4    4    0    0 -0.58076315196E+03  0.41803936490E+03 -0.96911169879E+02  0.72210424129E+03  0.10566000000E+00 0. -1.
          4    1    3    3  501    0  0.30820500567E+03 -0.15841915220E+03 -0.30011926025E+03  0.45843050038E+03  0.00000000000E+00 0.  1.
         -4    1    4    4    0  503  0.48863313128E+02 -0.41579024071E+03 -0.42589072500E+02  0.42081228206E+03  0.00000000000E+00 0. -1.
</event>
<event>
 8    1  0.7572579E-006  0.1012574E+04  0.7818608E-02  0.8768871E-01
         21   -1    0    0  503  502  0.00000000000E+00  0.00000000000E+00  0.12301582510E+04  0.12301582510E+04  0.00000000000E+00 0. -1.
         21   -1    0    0  501  503 -0.00000000000E+00 -0.00000000000E+00 -0.84892393479E+03  0.84892393479E+03  0.00000000000E+00 0. -1.
    9000010    2    1    2  501    0 -0.96286198972E+01 -0.17219439867E+03 -0.26933517322E+02  0.98733699165E+03  0.97178459520E+03 0.  0.
   -9000010    2    1    2    0  502  0.96286198972E+01  0.17219439867E+03  0.40816783353E+03  0.10917451941E+04  0.99777901730E+03 0.  0.
        -13    1    3    3    0    0 -0.47156392237E+03  0.16250300896E+02 -0.10223277145E+03  0.48279204207E+03  0.10566000000E+00 0.  1.
         13    1    4    4    0    0  0.19253108692E+03 -0.32457938858E+03 -0.63542467386E+02  0.38269786418E+03  0.10566000000E+00 0. -1.
          4    1    3    3  501    0  0.46193530248E+03 -0.18844469957E+03  0.75299254131E+02  0.50454494958E+03  0.00000000000E+00 0.  1.
         -4    1    4    4    0  502 -0.18290246702E+03  0.49677378725E+03  0.47171030092E+03  0.70904732997E+03  0.00000000000E+00 0. -1.
</event>
<event>
 8    1  0.7572579E-006  0.1140254E+04  0.7818608E-02  0.8678991E-01
         21   -1    0    0  503  502  0.00000000000E+00  0.00000000000E+00  0.89903573999E+03  0.89903573999E+03  0.00000000000E+00 0. -1.
         21   -1    0    0  501  503 -0.00000000000E+00 -0.00000000000E+00 -0.15129086766E+04  0.15129086766E+04  0.00000000000E+00 0. -1.
    9000010    2    1    2  501    0  0.39336194269E+03 -0.33464652239E+03 -0.74902784644E+03  0.12637079644E+04  0.87703659659E+03 0.  0.
   -9000010    2    1    2    0  502 -0.39336194269E+03  0.33464652239E+03  0.13515490983E+03  0.11482364521E+04  0.10165914555E+04 0.  0.
        -13    1    3    3    0    0 -0.43745374973E+02  0.26104996399E+03 -0.10925784678E+03  0.28635298109E+03  0.10566000000E+00 0.  1.
         13    1    4    4    0    0  0.35067319772E+02  0.13640792935E+03 -0.40622310979E+03  0.42994658528E+03  0.10566000000E+00 0. -1.
          4    1    3    3  501    0  0.43710731766E+03 -0.59569648638E+03 -0.63976999965E+03  0.97735498336E+03  0.00000000000E+00 0.  1.
         -4    1    4    4    0  502 -0.42842926246E+03  0.19823859304E+03  0.54137801962E+03  0.71828986686E+03  0.00000000000E+00 0. -1.
</event>
<event>
 8    1  0.7572579E-006  0.1020728E+04  0.7818608E-02  0.8758316E-01
         21   -1    0    0  503  502  0.00000000000E+00  0.00000000000E+00  0.89752793345E+03  0.89752793345E+03  0.00000000000E+00 0. -1.
         21   -1    0    0  501  503 -0.00000000000E+00 -0.00000000000E+00 -0.16942172166E+04  0.16942172166E+04  0.00000000000E+00 0. -1.
    9000010    2    1    2  501    0  0.21337543229E+03 -0.71298569791E+02 -0.11369873337E+04  0.15279481306E+04  0.99562680343E+03 0.  0.
   -9000010    2    1    2    0  502 -0.21337543229E+03  0.71298569791E+02  0.34029805054E+03  0.10637970194E+04  0.98247074980E+03 0.  0.
        -13    1    3    3    0    0 -0.21114012167E+03 -0.41856523543E+03 -0.58698160471E+03  0.75121529718E+03  0.10566000000E+00 0.  1.
         13    1    4    4    0    0  0.15865505642E+03 -0.35024705646E+03 -0.37638718616E+02  0.38634325643E+03  0.10566000000E+00 0. -1.
          4    1    3    3  501    0  0.42451555396E+03  0.34726666564E+03 -0.55000572902E+03  0.77673283346E+03  0.00000000000E+00 0.  1.
         -4    1    4    4    0  502 -0.37203048870E+03  0.42154562625E+03  0.37793676916E+03  0.67745376301E+03  0.00000000000E+00 0. -1.
</event>
<event>
 8    1  0.7572579E-006  0.1287623E+04  0.7818608E-02  0.8544870E-01
         21   -1    0    0  501  502  0.00000000000E+00  0.00000000000E+00  0.70798761379E+03  0.70798761379E+03  0.00000000000E+00 0.  1.
         21   -1    0    0  502  503 -0.00000000000E+00 -0.00000000000E+00 -0.23354675203E+04  0.23354675203E+04  0.00000000000E+00 0. -1.
    9000010    2    1    2  501    0 -0.77331895616E+03  0.20959764246E+03 -0.90846791120E+03  0.15686837378E+04  0.99674537573E+03 0.  0.
   -9000010    2    1    2    0  503  0.77331895616E+03 -0.20959764246E+03 -0.71901199526E+03  0.14747713962E+04  0.10079776992E+04 0.  0.
        -13    1    3    3    0    0  0.60290911844E+02 -0.30702648708E+02  0.17094287191E+03  0.18384537881E+03  0.10566000000E+00 0.  1.
         13    1    4    4    0    0  0.27846687632E+03  0.40569419645E+03 -0.20788626850E+03  0.53418002025E+03  0.10566000000E+00 0. -1.
          4    1    3    3  501    0 -0.83360986800E+03  0.24030029116E+03 -0.10794107831E+04  0.13848383590E+04  0.00000000000E+00 0.  1.
         -4    1    4    4    0  503  0.49485207984E+03 -0.61529183890E+03 -0.51112572676E+03  0.94059137594E+03  0.00000000000E+00 0. -1.
</event>
<event>
 8    1  0.1822399E-005  0.1023048E+04  0.7818608E-02  0.8756155E-01
         21   -1    0    0  501  502  0.00000000000E+00  0.00000000000E+00  0.91759574479E+03  0.91759574479E+03  0.00000000000E+00 0. -1.
         21   -1    0    0  502  503 -0.00000000000E+00 -0.00000000000E+00 -0.11737742264E+04  0.11737742264E+04  0.00000000000E+00 0. -1.
    9000010    2    1    2  501    0 -0.94677544089E+02  0.16329305959E+03 -0.33717799957E+03  0.10651199745E+04  0.99255382525E+03 0.  0.
   -9000010    2    1    2    0  503  0.94677544089E+02 -0.16329305959E+03  0.80999517930E+02  0.10262499967E+04  0.10054847951E+04 0.  0.
        -13    1    3    3    0    0  0.42495200934E+03  0.64305134398E+02 -0.32005652638E+03  0.53586896886E+03  0.10566000000E+00 0.  1.
         13    1    4    4    0    0 -0.24642441591E+02 -0.44884753080E+03 -0.29620141991E+03  0.53833692810E+03  0.10566000000E+00 0. -1.
          4    1    3    3  501    0 -0.51962955342E+03  0.98987925196E+02 -0.17121473189E+02  0.52925100564E+03  0.00000000000E+00 0.  1.
         -4    1    4    4    0  503  0.11931998568E+03  0.28555447121E+03  0.37720093784E+03  0.48791306861E+03  0.00000000000E+00 0. -1.
</event>
<event>
 8    1  0.7572579E-006  0.1177479E+04  0.7818608E-02  0.8624696E-01
         21   -1    0    0  501  502  0.00000000000E+00  0.00000000000E+00  0.15675115497E+04  0.15675115497E+04  0.00000000000E+00 0.  1.
         21   -1    0    0  502  503 -0.00000000000E+00 -0.00000000000E+00 -0.11795736187E+04  0.11795736187E+04  0.00000000000E+00 0.  1.
    9000010    2    1    2  501    0 -0.58592357330E+03  0.45259808714E+02 -0.49712159943E+03  0.12781188158E+04  0.10203445195E+04 0.  0.
   -9000010    2    1    2    0  503  0.58592357330E+03 -0.45259808714E+02  0.88505953048E+03  0.14689663526E+04  0.10144835576E+04 0.  0.
        -13    1    3    3    0    0 -0.51083670113E+02 -0.25720987167E+03  0.21388616405E+03  0.33839882058E+03  0.10566000000E+00 0.  1.
         13    1    4    4    0    0  0.77615911119E+03  0.24683430612E+03  0.53197562107E+03  0.97280430362E+03  0.10566000000E+00 0. -1.
          4    1    3    3  501    0 -0.53483990319E+03  0.30246968038E+03 -0.71100776348E+03  0.93971999517E+03  0.00000000000E+00 0.  1.
         -4    1    4    4    0  503 -0.19023553789E+03 -0.29209411484E+03  0.35308390941E+03  0.49616204902E+03  0.00000000000E+00 0. -1.
</event>
<event>
 8    1  0.7572579E-006  0.1029574E+04  0.7818608E-02  0.8754110E-01
         21   -1    0    0  503  502  0.00000000000E+00  0.00000000000E+00  0.18428738884E+04  0.18428738884E+04  0.00000000000E+00 0.  1.
         21   -1    0    0  501  503 -0.00000000000E+00 -0.00000000000E+00 -0.56894265483E+03  0.56894265483E+03  0.00000000000E+00 0.  1.
    9000010    2    1    2  501    0 -0.39574354027E+02  0.98106018708E+02  0.48488382615E+03  0.11380400986E+04  0.10241250025E+04 0.  0.
   -9000010    2    1    2    0  502  0.39574354027E+02 -0.98106018708E+02  0.78904740743E+03  0.12737764446E+04  0.99434385367E+03 0.  0.
        -13    1    3    3    0    0 -0.33287951473E+02 -0.22870808109E+03 -0.24591114733E+03  0.33747263240E+03  0.10566000000E+00 0.  1.
         13    1    4    4    0    0  0.50753784404E+03 -0.19465761757E+02  0.52609425479E+03  0.73126517427E+03  0.10566000000E+00 0. -1.
          4    1    3    3  501    0 -0.62864025543E+01  0.32681409980E+03  0.73079497348E+03  0.80056746621E+03  0.00000000000E+00 0.  1.
         -4    1    4    4    0  502 -0.46796349001E+03 -0.78640256951E+02  0.26295315264E+03  0.54251127037E+03  0.00000000000E+00 0. -1.
</event>
<event>
 8    1  0.7572579E-006  0.1007613E+04  0.7818608E-02  0.8770945E-01
         21   -1    0    0  503  502  0.00000000000E+00  0.00000000000E+00  0.13361227837E+04  0.13361227837E+04  0.00000000000E+00 0.  1.
         21   -1    0    0  501  503 -0.00000000000E+00 -0.00000000000E+00 -0.93783458052E+03  0.93783458052E+03  0.00000000000E+00 0.  1.
    9000010    2    1    2  501    0  0.28503430773E+02  0.81939422814E+02 -0.31255268113E+03  0.10408399681E+04  0.98900563507E+03 0.  0.
   -9000010    2    1    2    0  502 -0.28503430773E+02 -0.81939422814E+02  0.71084088431E+03  0.12331173961E+04  0.10038711248E+04 0.  0.
        -13    1    3    3    0    0  0.19725102365E+03  0.21377773286E+03  0.28429795133E+03  0.40673605901E+03  0.10566000000E+00 0.  1.
         13    1    4    4    0    0 -0.32067138167E+03 -0.29869851469E+03  0.41168984237E+01  0.43825551647E+03  0.10566000000E+00 0. -1.
          4    1    3    3  501    0 -0.16874759288E+03 -0.13183831005E+03 -0.59685063246E+03  0.63410390913E+03  0.00000000000E+00 0.  1.
         -4    1    4    4    0  502  0.29216795090E+03  0.21675909187E+03  0.70672398589E+03  0.79486187962E+03  0.00000000000E+00 0. -1.
</event>
<event>
 8    1  0.7572579E-006  0.1012964E+04  0.7818608E-02  0.8773402E-01
         21   -1    0    0  503  502  0.00000000000E+00  0.00000000000E+00  0.10608210423E+04  0.10608210423E+04  0.00000000000E+00 0.  1.
         21   -1    0    0  501  503 -0.00000000000E+00 -0.00000000000E+00 -0.95283628450E+03  0.95283628450E+03  0.00000000000E+00 0.  1.
    9000010    2    1    2  501    0  0.92901037175E+02  0.56119790655E+02 -0.12276595260E+03  0.97474330733E+03  0.96087096035E+03 0.  0.
   -9000010    2    1    2    0  502 -0.92901037175E+02 -0.56119790655E+02  0.23075071042E+03  0.10389140195E+04  0.10071327698E+04 0.  0.
        -13    1    3    3    0    0 -0.70994048302E+01  0.43037084948E+03  0.19611089247E+03  0.47299996083E+03  0.10566000000E+00 0.  1.
         13    1    4    4    0    0 -0.44523054189E+03 -0.13594720902E+03  0.42359942954E+03  0.62940318314E+03  0.10566000000E+00 0. -1.
          4    1    3    3  501    0  0.10000044201E+03 -0.37425105883E+03 -0.31887684507E+03  0.50174334650E+03  0.00000000000E+00 0.  1.
         -4    1    4    4    0  502  0.35232950472E+03  0.79827418369E+02 -0.19284871913E+03  0.40951083635E+03  0.00000000000E+00 0. -1.
</event>
<event>
 8    1  0.7572579E-006  0.1281097E+04  0.7818608E-02  0.8557067E-01
         21   -1    0    0  501  502  0.00000000000E+00  0.00000000000E+00  0.11805953102E+04  0.11805953102E+04  0.00000000000E+00 0.  1.
         21   -1    0    0  502  503 -0.00000000000E+00 -0.00000000000E+00 -0.16213780449E+04  0.16213780449E+04  0.00000000000E+00 0.  1.
    9000010    2    1    2  501    0 -0.38247162294E+03  0.61338356515E+03  0.36497453002E+03  0.13320722955E+04  0.10576796549E+04 0.  0.
   -9000010    2    1    2    0  503  0.38247162294E+03 -0.61338356515E+03 -0.80575726472E+03  0.14699010596E+04  0.99440455296E+03 0.  0.
        -13    1    3    3    0    0 -0.11607877636E+03  0.29660128031E+03 -0.37021968655E+03  0.48837406696E+03  0.10566000000E+00 0.  1.
         13    1    4    4    0    0  0.21740375913E+03 -0.28170558593E+02  0.19861365772E+03  0.29581306775E+03  0.10566000000E+00 0. -1.
          4    1    3    3  501    0 -0.26639284658E+03  0.31678228483E+03  0.73519421657E+03  0.84369822850E+03  0.00000000000E+00 0.  1.
         -4    1    4    4    0  503  0.16506786381E+03 -0.58521300655E+03 -0.10043709224E+04  0.11740879918E+04  0.00000000000E+00 0. -1.
</event>
<event>
 8    1  0.7572579E-006  0.1074042E+04  0.7818608E-02  0.8708736E-01
         21   -1    0    0  501  502  0.00000000000E+00  0.00000000000E+00  0.20196318199E+04  0.20196318199E+04  0.00000000000E+00 0.  1.
         21   -1    0    0  502  503 -0.00000000000E+00 -0.00000000000E+00 -0.70960568394E+03  0.70960568394E+03  0.00000000000E+00 0.  1.
    9000010    2    1    2  501    0 -0.30618610394E+03  0.22622113199E+03  0.12626775737E+04  0.16576853228E+04  0.10043107304E+04 0.  0.
   -9000010    2    1    2    0  503  0.30618610394E+03 -0.22622113199E+03  0.47348562265E+02  0.10715521811E+04  0.10005279905E+04 0.  0.
        -13    1    3    3    0    0 -0.56686997411E+03  0.19533227366E+03  0.12597536945E+04  0.13951615128E+04  0.10566000000E+00 0.  1.
         13    1    4    4    0    0  0.86255202003E+01  0.15124520320E+03 -0.39206632861E+03  0.42031598624E+03  0.10566000000E+00 0. -1.
          4    1    3    3  501    0  0.26068387017E+03  0.30888858327E+02  0.29238792076E+01  0.26252380998E+03  0.00000000000E+00 0.  1.
         -4    1    4    4    0  503  0.29756058374E+03 -0.37746633519E+03  0.43941489088E+03  0.65123619488E+03  0.00000000000E+00 0. -1.
</event>
<event>
 8    1  0.7572579E-006  0.1049682E+04  0.7818608E-02  0.8734260E-01
         21   -1    0    0  503  502  0.00000000000E+00  0.00000000000E+00  0.17579706345E+04  0.17579706345E+04  0.00000000000E+00 0.  1.
         21   -1    0    0  501  503 -0.00000000000E+00 -0.00000000000E+00 -0.68296197101E+03  0.68296197101E+03  0.00000000000E+00 0.  1.
    9000010    2    1    2  501    0  0.17836510645E+03  0.76266249782E+02  0.14314832138E+03  0.10372959443E+04  0.10088908673E+04 0.  0.
   -9000010    2    1    2    0  502 -0.17836510645E+03 -0.76266249782E+02  0.93186034209E+03  0.14036366612E+04  0.10316014383E+04 0.  0.
        -13    1    3    3    0    0  0.42284870983E+03 -0.13071056343E+03  0.42279039130E+03  0.61207679986E+03  0.10566000000E+00 0.  1.
         13    1    4    4    0    0 -0.18449503578E+03 -0.54677792722E+03  0.55688840919E+03  0.80195338479E+03  0.10566000000E+00 0. -1.
          4    1    3    3  501    0 -0.24448360338E+03  0.20697681322E+03 -0.27964206991E+03  0.42521914444E+03  0.00000000000E+00 0.  1.
         -4    1    4    4    0  502  0.61299293327E+01  0.47051167744E+03  0.37497193290E+03  0.60168327640E+03  0.00000000000E+00 0. -1.
</event>
<event>
 8    1  0.7572579E-006  0.1014455E+04  0.7818608E-02  0.8762002E-01
         21   -1    0    0  501  502  0.00000000000E+00  0.00000000000E+00  0.11929796186E+04  0.11929796186E+04  0.00000000000E+00 0. -1.
         21   -1    0    0  502  503 -0.00000000000E+00 -0.00000000000E+00 -0.17699256430E+04  0.17699256430E+04  0.00000000000E+00 0. -1.
    9000010    2    1    2  501    0 -0.44929766944E+02 -0.16537920352E+03  0.77433474905E+03  0.12732074601E+04  0.99603913973E+03 0.  0.
   -9000010    2    1    2    0  503  0.44929766944E+02  0.16537920352E+03 -0.13512807735E+04  0.16896978015E+04  0.99987497549E+03 0.  0.
        -13    1    3    3    0    0 -0.15168534838E+02  0.42164797028E+03  0.29614723467E+03  0.51548064081E+03  0.10566000000E+00 0.  1.
         13    1    4    4    0    0 -0.21867377738E+03 -0.26455278472E+03 -0.12761637164E+03  0.36618621805E+03  0.10566000000E+00 0. -1.
          4    1    3    3  501    0 -0.29761232106E+02 -0.58702717380E+03  0.47818751438E+03  0.75772681926E+03  0.00000000000E+00 0.  1.
         -4    1    4    4    0  503  0.26360354432E+03  0.42993198824E+03 -0.12236644019E+04  0.13235115835E+04  0.00000000000E+00 0. -1.
</event>
<event>
 8    1  0.7572579E-006  0.1134147E+04  0.7818608E-02  0.8658872E-01
         21   -1    0    0  503  502  0.00000000000E+00  0.00000000000E+00  0.20271044173E+04  0.20271044173E+04  0.00000000000E+00 0.  1.
         21   -1    0    0  501  503 -0.00000000000E+00 -0.00000000000E+00 -0.73955566469E+03  0.73955566469E+03  0.00000000000E+00 0.  1.
    9000010    2    1    2  501    0 -0.49926255985E+03  0.17517504375E+03  0.11706482324E+04  0.16265044736E+04  0.99757211212E+03 0.  0.
   -9000010    2    1    2    0  502  0.49926255985E+03 -0.17517504375E+03  0.11690052017E+03  0.11401556084E+04  0.10031648320E+04 0.  0.
        -13    1    3    3    0    0  0.51270964751E+02  0.49001779139E+03  0.46056723209E+03  0.67443927388E+03  0.10566000000E+00 0.  1.
         13    1    4    4    0    0 -0.21208936223E+02 -0.47341408680E+03 -0.13010884414E+03  0.49142551729E+03  0.10566000000E+00 0. -1.
          4    1    3    3  501    0 -0.55053352460E+03 -0.31484274765E+03  0.71008100031E+03  0.95206519969E+03  0.00000000000E+00 0.  1.
         -4    1    4    4    0  502  0.52047149608E+03  0.29823904306E+03  0.24700936431E+03  0.64873009109E+03  0.00000000000E+00 0. -1.
</event>
<event>
 8    1  0.7572579E-006  0.1193135E+04  0.7818608E-02  0.8653423E-01
         21   -1    0    0  501  502  0.00000000000E+00  0.00000000000E+00  0.15882145743E+04  0.15882145743E+04  0.00000000000E+00 0. -1.
         21   -1    0    0  502  503 -0.00000000000E+00 -0.00000000000E+00 -0.77998686962E+03  0.77998686962E+03  0.00000000000E+00 0. -1.
    9000010    2    1    2  501    0  0.26704255458E+02 -0.12289185758E+03  0.58997590702E+03  0.11552689798E+04  0.98527119056E+03 0.  0.
   -9000010    2    1    2    0  503 -0.26704255458E+02  0.12289185758E+03  0.21825179765E+03  0.12129324641E+04  0.11864888492E+04 0.  0.
        -13    1    3    3    0    0 -0.42326603717E+03 -0.12807300950E+03  0.54674413059E+03  0.70319697773E+03  0.10566000000E+00 0.  1.
         13    1    4    4    0    0 -0.54122981675E+03  0.80959510950E+02 -0.16319108232E+03  0.57106523048E+03  0.10566000000E+00 0. -1.
          4    1    3    3  501    0  0.44997029263E+03  0.51811519178E+01  0.43231776422E+02  0.45207200209E+03  0.00000000000E+00 0.  1.
         -4    1    4    4    0  503  0.51452556129E+03  0.41932346633E+02  0.38144287997E+03  0.64186723362E+03  0.00000000000E+00 0. -1.
</event>
<event>
 8    1  0.7572579E-006  0.1040525E+04  0.7818608E-02  0.8748466E-01
         21   -1    0    0  503  502  0.00000000000E+00  0.00000000000E+00  0.89303017303E+03  0.89303017303E+03  0.00000000000E+00 0. -1.
         21   -1    0    0  501  503 -0.00000000000E+00 -0.00000000000E+00 -0.12317362069E+04  0.12317362069E+04  0.00000000000E+00 0. -1.
    9000010    2    1    2  501    0 -0.25505746607E+03  0.61235034362E+02 -0.43482035690E+03  0.11277239532E+04  0.10069203203E+04 0.  0.
   -9000010    2    1    2    0  502  0.25505746607E+03 -0.61235034362E+02  0.96114323015E+02  0.99704242674E+03  0.95710584430E+03 0.  0.
        -13    1    3    3    0    0 -0.86943626377E+02 -0.36163021241E+03  0.13750362365E+03  0.39653860137E+03  0.10566000000E+00 0.  1.
         13    1    4    4    0    0  0.60959835623E+03 -0.17839887153E+02  0.16825412037E+03  0.63264356290E+03  0.10566000000E+00 0. -1.
          4    1    3    3  501    0 -0.16811383969E+03  0.42286524677E+03 -0.57232398054E+03  0.73118535183E+03  0.00000000000E+00 0.  1.
         -4    1    4    4    0  502 -0.35454089017E+03 -0.43395147208E+02 -0.72139797359E+02  0.36439886384E+03  0.00000000000E+00 0. -1.
</event>
<event>
 8    1  0.7572579E-006  0.1202784E+04  0.7818608E-02  0.8606687E-01
         21   -1    0    0  501  502  0.00000000000E+00  0.00000000000E+00  0.89940324882E+03  0.89940324882E+03  0.00000000000E+00 0.  1.
         21   -1    0    0  502  503 -0.00000000000E+00 -0.00000000000E+00 -0.16415458480E+04  0.16415458480E+04  0.00000000000E+00 0.  1.
    9000010    2    1    2  501    0 -0.61456943398E+03  0.19593870039E+03 -0.59172079729E+03  0.13404560550E+04  0.10151853870E+04 0.  0.
   -9000010    2    1    2    0  503  0.61456943398E+03 -0.19593870039E+03 -0.15042180190E+03  0.12004930418E+04  0.10012338695E+04 0.  0.
        -13    1    3    3    0    0 -0.56716905670E+03  0.36259893930E+03  0.50701519465E+02  0.67507731772E+03  0.10566000000E+00 0.  1.
         13    1    4    4    0    0 -0.14630439214E+03 -0.32660123683E+03  0.12760718888E+03  0.37994334956E+03  0.10566000000E+00 0. -1.
          4    1    3    3  501    0 -0.47400377287E+02 -0.16666023891E+03 -0.64242231675E+03  0.66537873731E+03  0.00000000000E+00 0.  1.
         -4    1    4    4    0  503  0.76087382612E+03  0.13066253644E+03 -0.27802899078E+03  0.82054969223E+03  0.00000000000E+00 0. -1.
</event>
<event>
 8    1  0.7572579E-006  0.1014031E+04  0.7818608E-02  0.8765636E-01
         21   -1    0    0  503  502  0.00000000000E+00  0.00000000000E+00  0.80143502741E+03  0.80143502741E+03  0.00000000000E+00 0.  1.
         21   -1    0    0  501  503 -0.00000000000E+00 -0.00000000000E+00 -0.12747943273E+04  0.12747943273E+04  0.00000000000E+00 0.  1.
    9000010    2    1    2  501    0  0.11096441116E+03  0.91302426026E+02 -0.34349738806E+03  0.10539166892E+04  0.98595167155E+03 0.  0.
   -9000010    2    1    2    0  502 -0.11096441116E+03 -0.91302426026E+02 -0.12986191185E+03  0.10223126655E+04  0.10037977069E+04 0.  0.
        -13    1    3    3    0    0  0.12583972113E+03  0.46255786956E+03  0.84910547017E+02  0.48683182955E+03  0.10566000000E+00 0.  1.
         13    1    4    4    0    0 -0.34269955478E+03 -0.32738212350E+03 -0.38008734554E+03  0.60752649410E+03  0.10566000000E+00 0. -1.
          4    1    3    3  501    0 -0.14875309968E+02 -0.37125544354E+03 -0.42840793508E+03  0.56708485965E+03  0.00000000000E+00 0.  1.
         -4    1    4    4    0  502  0.23173514363E+03  0.23607969747E+03  0.25022543369E+03  0.41478617144E+03  0.00000000000E+00 0. -1.
</event>
<event>
 8    1  0.7572579E-006  0.1028718E+04  0.7818608E-02  0.8751519E-01
         21   -1    0    0  501  502  0.00000000000E+00  0.00000000000E+00  0.64651343058E+03  0.64651343058E+03  0.00000000000E+00 0. -1.
         21   -1    0    0  502  503 -0.00000000000E+00 -0.00000000000E+00 -0.17341100825E+04  0.17341100825E+04  0.00000000000E+00 0. -1.
    9000010    2    1    2  501    0 -0.12840950797E+02 -0.22206290297E+03 -0.22543642415E+03  0.10383933799E+04  0.98891981833E+03 0.  0.
   -9000010    2    1    2    0  503  0.12840950797E+02  0.22206290297E+03 -0.86216022773E+03  0.13422301332E+04  0.10043827205E+04 0.  0.
        -13    1    3    3    0    0 -0.32375754862E+03 -0.37474958283E+03  0.15975543148E+03  0.52036334342E+03  0.10566000000E+00 0.  1.
         13    1    4    4    0    0  0.32930073006E+03  0.48632848739E+03 -0.65853891480E+03  0.88239893582E+03  0.10566000000E+00 0. -1.
          4    1    3    3  501    0  0.31091659783E+03  0.15268667985E+03 -0.38519185563E+03  0.51803003644E+03  0.00000000000E+00 0.  1.
         -4    1    4    4    0  503 -0.31645977926E+03 -0.26426558441E+03 -0.20362131294E+03  0.45983119737E+03  0.00000000000E+00 0. -1.
</event>
<event>
 8    1  0.7572579E-006  0.1148888E+04  0.7818608E-02  0.8647628E-01
         21   -1    0    0  501  502  0.00000000000E+00  0.00000000000E+00  0.76553898684E+03  0.76553898684E+03  0.00000000000E+00 0. -1.
         21   -1    0    0  502  503 -0.00000000000E+00 -0.00000000000E+00 -0.20041778373E+04  0.20041778373E+04  0.00000000000E+00 0. -1.
    9000010    2    1    2  501    0  0.31081232991E+03  0.44143280063E+03 -0.11457897492E+04  0.16170834842E+04  0.10053146888E+04 0.  0.
   -9000010    2    1    2    0  503 -0.31081232991E+03 -0.44143280063E+03 -0.92849101213E+02  0.11526333399E+04  0.10141377810E+04 0.  0.
        -13    1    3    3    0    0 -0.25521893184E+03  0.47329253036E+03 -0.35601423747E+03  0.64489430987E+03  0.10566000000E+00 0.  1.
         13    1    4    4    0    0  0.72404534645E+02 -0.37381163660E+03 -0.47395719846E+03  0.60795805237E+03  0.10566000000E+00 0. -1.
          4    1    3    3  501    0  0.56603126175E+03 -0.31859729730E+02 -0.78977551173E+03  0.97218917428E+03  0.00000000000E+00 0.  1.
         -4    1    4    4    0  503 -0.38321686456E+03 -0.67621164025E+02  0.38110809725E+03  0.54467528758E+03  0.00000000000E+00 0. -1.
</event>
<event>
 8    1  0.7572579E-006  0.1005161E+04  0.7818608E-02  0.8771370E-01
         21   -1    0    0  503  502  0.00000000000E+00  0.00000000000E+00  0.13555860405E+04  0.13555860405E+04  0.00000000000E+00 0. -1.
         21   -1    0    0  501  503 -0.00000000000E+00 -0.00000000000E+00 -0.74055216664E+03  0.74055216664E+03  0.00000000000E+00 0. -1.
    9000010    2    1    2  501    0  0.13518016819E+02  0.12887313475E+02  0.32841868325E+03  0.10509129176E+04  0.99810335601E+03 0.  0.
   -9000010    2    1    2    0  502 -0.13518016819E+02 -0.12887313475E+02  0.28661519058E+03  0.10452252895E+04  0.10049869744E+04 0.  0.
        -13    1    3    3    0    0 -0.25657176824E+02 -0.32899994447E+03 -0.22487443539E+03  0.39933416713E+03  0.10566000000E+00 0.  1.
         13    1    4    4    0    0  0.43056086977E+03  0.11649610805E+03 -0.82309866973E+02  0.45357351238E+03  0.10566000000E+00 0. -1.
          4    1    3    3  501    0  0.39175193642E+02  0.34188725794E+03  0.55329311865E+03  0.65157875048E+03  0.00000000000E+00 0.  1.
         -4    1    4    4    0  502 -0.44407888659E+03 -0.12938342152E+03  0.36892505755E+03  0.59165177712E+03  0.00000000000E+00 0. -1.
</event>
<event>
 8    1  0.7572579E-006  0.1045634E+04  0.7818608E-02  0.8734027E-01
         21   -1    0    0  503  502  0.00000000000E+00  0.00000000000E+00  0.51450091519E+03  0.51450091519E+03  0.00000000000E+00 0. -1.
         21   -1    0    0  501  503 -0.00000000000E+00 -0.00000000000E+00 -0.25152271575E+04  0.25152271575E+04  0.00000000000E+00 0. -1.
    9000010    2    1    2  501    0  0.53812392313E+02  0.30379788276E+03 -0.16029607509E+04  0.19109931965E+04  0.99359091232E+03 0.  0.
   -9000010    2    1    2    0  502 -0.53812392313E+02 -0.30379788276E+03 -0.39776549142E+03  0.11187348762E+04  0.99908028202E+03 0.  0.
        -13    1    3    3    0    0  0.24143843522E+03 -0.23314411848E+03 -0.11056217729E+04  0.11554428649E+04  0.10566000000E+00 0.  1.
         13    1    4    4    0    0  0.47189748786E+03 -0.14228620623E+03 -0.14727227250E+03  0.51441397428E+03  0.10566000000E+00 0. -1.
          4    1    3    3  501    0 -0.18762604291E+03  0.53694200123E+03 -0.49733897797E+03  0.75555033166E+03  0.00000000000E+00 0.  1.
         -4    1    4    4    0  502 -0.52570988017E+03 -0.16151167653E+03 -0.25049321892E+03  0.60432090191E+03  0.00000000000E+00 0. -1.
</event>
<event>
 8    1  0.7572579E-006  0.1065758E+04  0.7818608E-02  0.8715763E-01
         21   -1    0    0  501  502  0.00000000000E+00  0.00000000000E+00  0.64698301087E+03  0.64698301087E+03  0.00000000000E+00 0. -1.
         21   -1    0    0  502  503 -0.00000000000E+00 -0.00000000000E+00 -0.19564502825E+04  0.19564502825E+04  0.00000000000E+00 0. -1.
    9000010    2    1    2  501    0 -0.32811465590E+03 -0.18175968160E+03 -0.23361054845E+03  0.10910606413E+04  0.99756885746E+03 0.  0.
   -9000010    2    1    2    0  503  0.32811465590E+03  0.18175968160E+03 -0.10758567232E+04  0.15123726521E+04  0.99453885829E+03 0.  0.
        -13    1    3    3    0    0 -0.10352181673E+03 -0.19564154536E+03 -0.61201203890E+03  0.65080805752E+03  0.10566000000E+00 0.  1.
         13    1    4    4    0    0  0.27557893578E+03  0.59072256263E+02 -0.12565301810E+04  0.12877505148E+04  0.10566000000E+00 0. -1.
          4    1    3    3  501    0 -0.22459283917E+03  0.13881863761E+02  0.37840149045E+03  0.44025258378E+03  0.00000000000E+00 0.  1.
         -4    1    4    4    0  503  0.52535720123E+02  0.12268742534E+03  0.18067345780E+03  0.22462213733E+03  0.00000000000E+00 0. -1.
</event>
<event>
 8    1  0.7572579E-006  0.1014007E+04  0.7818608E-02  0.8772270E-01
         21   -1    0    0  503  502  0.00000000000E+00  0.00000000000E+00  0.18283139816E+04  0.18283139816E+04  0.00000000000E+00 0. -1.
         21   -1    0    0  501  503 -0.00000000000E+00 -0.00000000000E+00 -0.69478357732E+03  0.69478357732E+03  0.00000000000E+00 0. -1.
    9000010    2    1    2  501    0 -0.10001714727E+03 -0.18287236614E+03  0.11768862974E+04  0.15534709697E+04  0.99235324583E+03 0.  0.
   -9000010    2    1    2    0  502  0.10001714727E+03  0.18287236614E+03 -0.43355893160E+02  0.96962658923E+03  0.94596525149E+03 0.  0.
        -13    1    3    3    0    0 -0.23014973278E+03 -0.20416376478E+03  0.13220398282E+04  0.13573654854E+04  0.10566000000E+00 0.  1.
         13    1    4    4    0    0  0.30050033257E+03 -0.30560317951E+03 -0.95294691497E+02  0.43906131986E+03  0.10566000000E+00 0. -1.
          4    1    3    3  501    0  0.13013258551E+03  0.21291398640E+02 -0.14515353079E+03  0.19610548429E+03  0.00000000000E+00 0.  1.
         -4    1    4    4    0  502 -0.20048318531E+03  0.48847554565E+03  0.51938798338E+02  0.53056526937E+03  0.00000000000E+00 0. -1.
</event>
<event>
 8    1  0.7572579E-006  0.1023102E+04  0.7818608E-02  0.8754756E-01
         21   -1    0    0  501  502  0.00000000000E+00  0.00000000000E+00  0.12515728005E+04  0.12515728005E+04  0.00000000000E+00 0. -1.
         21   -1    0    0  502  503 -0.00000000000E+00 -0.00000000000E+00 -0.87330082209E+03  0.87330082209E+03  0.00000000000E+00 0. -1.
    9000010    2    1    2  501    0 -0.64404629750E+02  0.19725636751E+03 -0.46005224777E+02  0.10172867756E+04  0.99483560062E+03 0.  0.
   -9000010    2    1    2    0  503  0.64404629750E+02 -0.19725636751E+03  0.42427720323E+03  0.11075868470E+04  0.10018380347E+04 0.  0.
        -13    1    3    3    0    0 -0.30818679250E+03  0.44406923823E+02 -0.43406198465E+03  0.53419181165E+03  0.10566000000E+00 0.  1.
         13    1    4    4    0    0  0.11863298196E+03  0.23417478356E+03 -0.21165487776E+03  0.33720826222E+03  0.10566000000E+00 0. -1.
          4    1    3    3  501    0  0.24378216275E+03  0.15284944369E+03  0.38805675987E+03  0.48309496395E+03  0.00000000000E+00 0.  1.
         -4    1    4    4    0  503 -0.54228352206E+02 -0.43143115107E+03  0.63593208100E+03  0.77037858481E+03  0.00000000000E+00 0. -1.
</event>
<event>
 8    1  0.7572579E-006  0.1042711E+04  0.7818608E-02  0.8737992E-01
         21   -1    0    0  501  502  0.00000000000E+00  0.00000000000E+00  0.14881392157E+04  0.14881392157E+04  0.00000000000E+00 0.  1.
         21   -1    0    0  502  503 -0.00000000000E+00 -0.00000000000E+00 -0.81217580438E+03  0.81217580438E+03  0.00000000000E+00 0.  1.
    9000010    2    1    2  501    0 -0.49231138228E+01  0.29642141603E+03  0.71801071721E+03  0.12567563168E+04  0.98793074502E+03 0.  0.
   -9000010    2    1    2    0  503  0.49231138228E+01 -0.29642141603E+03 -0.42047305896E+02  0.10435587032E+04  0.99967839740E+03 0.  0.
        -13    1    3    3    0    0 -0.26116145653E+03 -0.77261630004E+02 -0.12502326701E+03  0.29967564850E+03  0.10566000000E+00 0.  1.
         13    1    4    4    0    0  0.20840277291E+03  0.25313015084E+03 -0.25986586201E+03  0.41837407475E+03  0.10566000000E+00 0. -1.
          4    1    3    3  501    0  0.25623834270E+03  0.37368304603E+03  0.84303398422E+03  0.95708066834E+03  0.00000000000E+00 0.  1.
         -4    1    4    4    0  503 -0.20347965909E+03 -0.54955156687E+03  0.21781855611E+03  0.62518462849E+03  0.00000000000E+00 0. -1.
</event>
<event>
 8    1  0.7572579E-006  0.1595208E+04  0.7818608E-02  0.8360339E-01
         21   -1    0    0  503  502  0.00000000000E+00  0.00000000000E+00  0.11974119492E+04  0.11974119492E+04  0.00000000000E+00 0.  1.
         21   -1    0    0  501  503 -0.00000000000E+00 -0.00000000000E+00 -0.26455031932E+04  0.26455031932E+04  0.00000000000E+00 0. -1.
    9000010    2    1    2  501    0 -0.12109548348E+04 -0.17230479207E+02  0.15192898959E+03  0.16024270277E+04  0.10382588597E+04 0.  0.
   -9000010    2    1    2    0  502  0.12109548348E+04  0.17230479207E+02 -0.16000202336E+04  0.22404881148E+04  0.99650074918E+03 0.  0.
        -13    1    3    3    0    0 -0.94994521908E+02 -0.30262933990E+02  0.43890405377E+03  0.45008508523E+03  0.10566000000E+00 0.  1.
         13    1    4    4    0    0 -0.14704314316E+03 -0.11096666346E+03 -0.88115172352E+02  0.20420475291E+03  0.10566000000E+00 0. -1.
          4    1    3    3  501    0 -0.11159603129E+04  0.13032454784E+02 -0.28697506417E+03  0.11523419425E+04  0.00000000000E+00 0.  1.
         -4    1    4    4    0  502  0.13579979780E+04  0.12819714266E+03 -0.15119050612E+04  0.20362833619E+04  0.00000000000E+00 0. -1.
</event>
<event>
 8    1  0.7572579E-006  0.1014293E+04  0.7818608E-02  0.8766423E-01
         21   -1    0    0  501  502  0.00000000000E+00  0.00000000000E+00  0.15195016859E+04  0.15195016859E+04  0.00000000000E+00 0. -1.
         21   -1    0    0  502  503 -0.00000000000E+00 -0.00000000000E+00 -0.68501897663E+03  0.68501897663E+03  0.00000000000E+00 0. -1.
    9000010    2    1    2  501    0  0.94776601926E+02 -0.15792237297E+03  0.22152784723E+03  0.10382027536E+04  0.99743084484E+03 0.  0.
   -9000010    2    1    2    0  503 -0.94776601926E+02  0.15792237297E+03  0.61295486206E+03  0.11663179090E+04  0.97501883148E+03 0.  0.
        -13    1    3    3    0    0 -0.15553963406E+03 -0.44324573716E+03 -0.16365098606E+03  0.49743443555E+03  0.10566000000E+00 0.  1.
         13    1    4    4    0    0 -0.52839718564E+03 -0.50525861239E+01  0.34690828435E+03  0.63211904206E+03  0.10566000000E+00 0. -1.
          4    1    3    3  501    0  0.25031623598E+03  0.28532336419E+03  0.38517883329E+03  0.54076831801E+03  0.00000000000E+00 0.  1.
         -4    1    4    4    0  503  0.43362058372E+03  0.16297495909E+03  0.26604657771E+03  0.53419886693E+03  0.00000000000E+00 0. -1.
</event>
<event>
 8    1  0.7572579E-006  0.1051099E+04  0.7818608E-02  0.8730647E-01
         21   -1    0    0  503  502  0.00000000000E+00  0.00000000000E+00  0.14536279389E+04  0.14536279389E+04  0.00000000000E+00 0.  1.
         21   -1    0    0  501  503 -0.00000000000E+00 -0.00000000000E+00 -0.80782238118E+03  0.80782238118E+03  0.00000000000E+00 0.  1.
    9000010    2    1    2  501    0  0.26102083938E+03 -0.12298237410E+03  0.22584567776E+02  0.10394793476E+04  0.99837403233E+03 0.  0.
   -9000010    2    1    2    0  502 -0.26102083938E+03  0.12298237410E+03  0.62322098999E+03  0.12219709725E+04  0.10107186119E+04 0.  0.
        -13    1    3    3    0    0 -0.51143147755E+02 -0.44767396398E+03  0.27030007749E+03  0.52544242562E+03  0.10566000000E+00 0.  1.
         13    1    4    4    0    0 -0.89694503454E+02  0.33800731029E+03 -0.16536474384E+03  0.38683272280E+03  0.10566000000E+00 0. -1.
          4    1    3    3  501    0  0.31216398714E+03  0.32469158988E+03 -0.24771550971E+03  0.51403692198E+03  0.00000000000E+00 0.  1.
         -4    1    4    4    0  502 -0.17132633593E+03 -0.21502493619E+03  0.78858573383E+03  0.83513824973E+03  0.00000000000E+00 0. -1.
</event>
<event>
 8    1  0.7572579E-006  0.1046573E+04  0.7818608E-02  0.8741039E-01
         21   -1    0    0  503  502  0.00000000000E+00  0.00000000000E+00  0.79430805110E+03  0.79430805110E+03  0.00000000000E+00 0.  1.
         21   -1    0    0  501  503 -0.00000000000E+00 -0.00000000000E+00 -0.16468057485E+04  0.16468057485E+04  0.00000000000E+00 0.  1.
    9000010    2    1    2  501    0  0.12456161833E+03  0.13009009855E+03  0.11811587723E+03  0.10137367983E+04  0.99059169450E+03 0.  0.
   -9000010    2    1    2    0  502 -0.12456161833E+03 -0.13009009855E+03 -0.97061357461E+03  0.14273770013E+04  0.10309584677E+04 0.  0.
        -13    1    3    3    0    0  0.33921668185E+03 -0.34220031141E+03  0.73005418067E+00  0.48183976021E+03  0.10566000000E+00 0.  1.
         13    1    4    4    0    0  0.22678290643E+03  0.42705043569E+02 -0.10079820302E+04  0.10340609227E+04  0.10566000000E+00 0. -1.
          4    1    3    3  501    0 -0.21465506353E+03  0.47229040997E+03  0.11738582305E+03  0.53189703806E+03  0.00000000000E+00 0.  1.
         -4    1    4    4    0  502 -0.35134452476E+03 -0.17279514212E+03  0.37368455621E+02  0.39331607862E+03  0.00000000000E+00 0. -1.
</event>
<event>
 8    1  0.7572579E-006  0.1247306E+04  0.7818608E-02  0.8575897E-01
         21   -1    0    0  501  502  0.00000000000E+00  0.00000000000E+00  0.25841055699E+04  0.25841055699E+04  0.00000000000E+00 0.  1.
         21   -1    0    0  502  503 -0.00000000000E+00 -0.00000000000E+00 -0.68586502649E+03  0.68586502649E+03  0.00000000000E+00 0. -1.
    9000010    2    1    2  501    0  0.31323821004E+03  0.67806489324E+03  0.34898135261E+03  0.12952066689E+04  0.99894051630E+03 0.  0.
   -9000010    2    1    2    0  503 -0.31323821004E+03 -0.67806489324E+03  0.15492591908E+04  0.19747639275E+04  0.97035990911E+03 0.  0.
        -13    1    3    3    0    0 -0.27315747559E+03  0.46438798151E+03 -0.70296032849E+02  0.54333483897E+03  0.10566000000E+00 0.  1.
         13    1    4    4    0    0 -0.55367483285E+03 -0.12708840408E+03  0.46135937123E+03  0.73181948838E+03  0.10566000000E+00 0. -1.
          4    1    3    3  501    0  0.58639568563E+03  0.21367691172E+03  0.41927738546E+03  0.75187182996E+03  0.00000000000E+00 0.  1.
         -4    1    4    4    0  503  0.24043662281E+03 -0.55097648916E+03  0.10878998196E+04  0.12429444391E+04  0.00000000000E+00 0. -1.
</event>
<event>
 8    1  0.7572579E-006  0.1091239E+04  0.7818608E-02  0.8694884E-01
         21   -1    0    0  503  502  0.00000000000E+00  0.00000000000E+00  0.10165352887E+04  0.10165352887E+04  0.00000000000E+00 0.  1.
         21   -1    0    0  501  503 -0.00000000000E+00 -0.00000000000E+00 -0.13257331151E+04  0.13257331151E+04  0.00000000000E+00 0.  1.
    9000010    2    1    2  501    0 -0.28473883746E+03  0.29436230594E+03 -0.56486752420E+03  0.12287706536E+04  0.10114725041E+04 0.  0.
   -9000010    2    1    2    0  502  0.28473883746E+03 -0.29436230594E+03  0.25566969787E+03  0.11134977502E+04  0.10033867014E+04 0.  0.
        -13    1    3    3    0    0  0.31383077022E+03  0.20995473824E+02  0.61265911928E+02  0.32044357598E+03  0.10566000000E+00 0.  1.
         13    1    4    4    0    0  0.63781139991E+03 -0.26123850667E+03  0.23508010337E+02  0.68963872929E+03  0.10566000000E+00 0. -1.
          4    1    3    3  501    0 -0.59856960768E+03  0.27336683212E+03 -0.62613343613E+03  0.90832707764E+03  0.00000000000E+00 0.  1.
         -4    1    4    4    0  502 -0.35307256245E+03 -0.33123799273E+02  0.23216168753E+03  0.42385902089E+03  0.00000000000E+00 0. -1.
</event>
<event>
 8    1  0.7572579E-006  0.9911980E+03  0.7818608E-02  0.8784770E-01
         21   -1    0    0  501  502  0.00000000000E+00  0.00000000000E+00  0.59559465031E+03  0.59559465031E+03  0.00000000000E+00 0. -1.
         21   -1    0    0  502  503 -0.00000000000E+00 -0.00000000000E+00 -0.16812745055E+04  0.16812745055E+04  0.00000000000E+00 0. -1.
    9000010    2    1    2  501    0 -0.17391892916E+02  0.63550357123E+02 -0.72636101701E+03  0.12225525588E+04  0.98116935656E+03 0.  0.
   -9000010    2    1    2    0  503  0.17391892916E+02 -0.63550357123E+02 -0.35931883814E+03  0.10543165969E+04  0.98900572967E+03 0.  0.
        -13    1    3    3    0    0 -0.21733308745E+03  0.22746971316E+03  0.12066089284E+03  0.33694985314E+03  0.10566000000E+00 0.  1.
         13    1    4    4    0    0  0.36196086441E+03 -0.17363082110E+03  0.15090539677E+03  0.42887734766E+03  0.10566000000E+00 0. -1.
          4    1    3    3  501    0  0.19994119453E+03 -0.16391935604E+03 -0.84702190985E+03  0.88560270569E+03  0.00000000000E+00 0.  1.
         -4    1    4    4    0  503 -0.34456897149E+03  0.11008046397E+03 -0.51022423490E+03  0.62543924928E+03  0.00000000000E+00 0. -1.
</event>
<event>
 8    1  0.7572579E-006  0.1102246E+04  0.7818608E-02  0.8684760E-01
         21   -1    0    0  501  502  0.00000000000E+00  0.00000000000E+00  0.10019669434E+04  0.10019669434E+04  0.00000000000E+00 0.  1.
         21   -1    0    0  502  503 -0.00000000000E+00 -0.00000000000E+00 -0.12656458195E+04  0.12656458195E+04  0.00000000000E+00 0.  1.
    9000010    2    1    2  501    0 -0.38181104313E+03  0.82830001166E+02  0.10859479541E+03  0.11041982292E+04  0.10270445064E+04 0.  0.
   -9000010    2    1    2    0  503  0.38181104313E+03 -0.82830001166E+02 -0.37227367154E+03  0.11634145336E+04  0.10306819145E+04 0.  0.
        -13    1    3    3    0    0 -0.57610366282E+03  0.41683996571E+03  0.96404086824E+02  0.71759650672E+03  0.10566000000E+00 0.  1.
         13    1    4    4    0    0 -0.23179184388E+03 -0.33114765689E+03 -0.28758238517E+03  0.49607445910E+03  0.10566000000E+00 0. -1.
          4    1    3    3  501    0  0.19429261969E+03 -0.33400996454E+03  0.12190708587E+02  0.38660172252E+03  0.00000000000E+00 0.  1.
         -4    1    4    4    0  503  0.61360288701E+03  0.24831765572E+03 -0.84691286368E+02  0.66734007453E+03  0.00000000000E+00 0. -1.
</event>
<event>
 8    1  0.7572579E-006  0.1214793E+04  0.7818608E-02  0.8602826E-01
         21   -1    0    0  501  502  0.00000000000E+00  0.00000000000E+00  0.11551916685E+04  0.11551916685E+04  0.00000000000E+00 0. -1.
         21   -1    0    0  502  503 -0.00000000000E+00 -0.00000000000E+00 -0.17874674188E+04  0.17874674188E+04  0.00000000000E+00 0.  1.
    9000010    2    1    2  501    0  0.59777932629E+03 -0.22421836806E+03  0.50384624783E+03  0.12793805086E+04  0.98759275252E+03 0.  0.
   -9000010    2    1    2    0  503 -0.59777932629E+03  0.22421836806E+03 -0.11361219982E+04  0.16632785787E+04  0.10334933169E+04 0.  0.
        -13    1    3    3    0    0  0.26471272527E+03  0.15612616577E+03  0.67821065542E+03  0.74459244614E+03  0.10566000000E+00 0.  1.
         13    1    4    4    0    0 -0.54748334529E+03 -0.25850656449E+03 -0.98275717281E+03  0.11542856358E+04  0.10566000000E+00 0. -1.
          4    1    3    3  501    0  0.33306660101E+03 -0.38034453383E+03 -0.17436440759E+03  0.53478806246E+03  0.00000000000E+00 0.  1.
         -4    1    4    4    0  503 -0.50295981001E+02  0.48272493255E+03 -0.15336482539E+03  0.50899294286E+03  0.00000000000E+00 0. -1.
</event>
<event>
 8    1  0.7572579E-006  0.1092436E+04  0.7818608E-02  0.8696921E-01
         21   -1    0    0  503  502  0.00000000000E+00  0.00000000000E+00  0.26216347116E+04  0.26216347116E+04  0.00000000000E+00 0.  1.
         21   -1    0    0  501  503 -0.00000000000E+00 -0.00000000000E+00 -0.59867506958E+03  0.59867506958E+03  0.00000000000E+00 0.  1.
    9000010    2    1    2  501    0 -0.16777888433E+03 -0.41319130798E+03  0.20650883864E+03  0.11117835414E+04  0.99726622902E+03 0.  0.
   -9000010    2    1    2    0  502  0.16777888433E+03  0.41319130798E+03  0.18164508034E+04  0.21085262398E+04  0.97340257428E+03 0.  0.
        -13    1    3    3    0    0  0.28135078232E+03 -0.43227742064E+03  0.36856940136E+03  0.63392858107E+03  0.10566000000E+00 0.  1.
         13    1    4    4    0    0  0.20974361933E+02  0.60482758707E+03  0.17592542212E+04  0.18604385934E+04  0.10566000000E+00 0. -1.
          4    1    3    3  501    0 -0.44912966665E+03  0.19086112659E+02 -0.16206056272E+03  0.47785496037E+03  0.00000000000E+00 0.  1.
         -4    1    4    4    0  502  0.14680452240E+03 -0.19163627908E+03  0.57196582205E+02  0.24808764635E+03  0.00000000000E+00 0. -1.
</event>
<event>
 8    1  0.7572579E-006  0.1002050E+04  0.7818608E-02  0.8774414E-01
         21   -1    0    0  501  502  0.00000000000E+00  0.00000000000E+00  0.78013890951E+03  0.78013890951E+03  0.00000000000E+00 0. -1.
         21   -1    0    0  502  503 -0.00000000000E+00 -0.00000000000E+00 -0.13462493093E+04  0.13462493093E+04  0.00000000000E+00 0. -1.
    9000010    2    1    2  501    0 -0.10688899449E+02 -0.70965839676E+02 -0.43908602799E+02  0.10030117197E+04  0.99947693394E+03 0.  0.
   -9000010    2    1    2    0  503  0.10688899449E+02  0.70965839676E+02 -0.52220179701E+03  0.11233764991E+04  0.99203308362E+03 0.  0.
        -13    1    3    3    0    0  0.38455743678E+03  0.12448653599E+03 -0.29054065091E+03  0.49779031813E+03  0.10566000000E+00 0.  1.
         13    1    4    4    0    0  0.37374103971E+03  0.36853795060E+03 -0.28990773434E+03  0.59962412509E+03  0.10566000000E+00 0. -1.
          4    1    3    3  501    0 -0.39524633623E+03 -0.19545237566E+03  0.24663204811E+03  0.50522140157E+03  0.00000000000E+00 0.  1.
         -4    1    4    4    0  503 -0.36305214026E+03 -0.29757211092E+03 -0.23229406267E+03  0.52375237403E+03  0.00000000000E+00 0. -1.
</event>
<event>
 8    1  0.7572579E-006  0.1021476E+04  0.7818608E-02  0.8759961E-01
         21   -1    0    0  503  502  0.00000000000E+00  0.00000000000E+00  0.18322885771E+04  0.18322885771E+04  0.00000000000E+00 0. -1.
         21   -1    0    0  501  503 -0.00000000000E+00 -0.00000000000E+00 -0.56389516552E+03  0.56389516552E+03  0.00000000000E+00 0. -1.
    9000010    2    1    2  501    0 -0.15932640153E+01  0.20631718373E+02  0.77565391609E+03  0.12825958849E+04  0.10212663708E+04 0.  0.
   -9000010    2    1    2    0  502  0.15932640153E+01 -0.20631718373E+02  0.49273949550E+03  0.11135878577E+04  0.99842751374E+03 0.  0.
        -13    1    3    3    0    0 -0.79340687010E+02  0.15480750284E+03 -0.21687820537E+03  0.27802243557E+03  0.10566000000E+00 0.  1.
         13    1    4    4    0    0  0.66744654198E+02  0.35644947509E+03  0.61319948404E+03  0.71240767510E+03  0.10566000000E+00 0. -1.
          4    1    3    3  501    0  0.77747422994E+02 -0.13417578447E+03  0.99253212147E+03  0.10045734493E+04  0.00000000000E+00 0.  1.
         -4    1    4    4    0  502 -0.65151390182E+02 -0.37708119347E+03 -0.12045998853E+03  0.40118018264E+03  0.00000000000E+00 0. -1.
</event>
<event>
 8    1  0.7572579E-006  0.1022090E+04  0.7818608E-02  0.8755281E-01
         21   -1    0    0  503  502  0.00000000000E+00  0.00000000000E+00  0.10947210525E+04  0.10947210525E+04  0.00000000000E+00 0. -1.
         21   -1    0    0  501  503 -0.00000000000E+00 -0.00000000000E+00 -0.10579446094E+04  0.10579446094E+04  0.00000000000E+00 0. -1.
    9000010    2    1    2  501    0  0.14571190249E+03 -0.49478227373E+02  0.36293154987E+03  0.10797979417E+04  0.10052682386E+04 0.  0.
   -9000010    2    1    2    0  502 -0.14571190249E+03  0.49478227373E+02 -0.32615510680E+03  0.10728677201E+04  0.10104394775E+04 0.  0.
        -13    1    3    3    0    0 -0.33511210789E+03 -0.32124712440E+03  0.18166397138E+03  0.49849939765E+03  0.10566000000E+00 0.  1.
         13    1    4    4    0    0 -0.67104919295E+02 -0.30467382226E+03  0.24470173832E+03  0.39649484242E+03  0.10566000000E+00 0. -1.
          4    1    3    3  501    0  0.48082401038E+03  0.27176889703E+03  0.18126757849E+03  0.58129854409E+03  0.00000000000E+00 0.  1.
         -4    1    4    4    0  502 -0.78606983194E+02  0.35415204963E+03 -0.57085684512E+03  0.67637287769E+03  0.00000000000E+00 0. -1.
</event>
<event>
 8    1  0.7572579E-006  0.1037721E+04  0.7818608E-02  0.8743712E-01
         21   -1    0    0  501  502  0.00000000000E+00  0.00000000000E+00  0.10555799590E+04  0.10555799590E+04  0.00000000000E+00 0.  1.
         21   -1    0    0  502  503 -0.00000000000E+00 -0.00000000000E+00 -0.10866594288E+04  0.10866594288E+04  0.00000000000E+00 0.  1.
    9000010    2    1    2  501    0 -0.15930164393E+03  0.15401599747E+03  0.28003993354E+03  0.10748431147E+04  0.10137886445E+04 0.  0.
   -9000010    2    1    2    0  503  0.15930164393E+03 -0.15401599747E+03 -0.31111940339E+03  0.10673962731E+04  0.99671539542E+03 0.  0.
        -13    1    3    3    0    0 -0.22232368938E+03 -0.40451683314E+03  0.21439094561E+03  0.50894516392E+03  0.10566000000E+00 0.  1.
         13    1    4    4    0    0  0.32806921522E+03 -0.52128169565E+03 -0.21014624232E+03  0.65078834540E+03  0.10566000000E+00 0. -1.
          4    1    3    3  501    0  0.63022045450E+02  0.55853283062E+03  0.65648987928E+02  0.56589795079E+03  0.00000000000E+00 0.  1.
         -4    1    4    4    0  503 -0.16876757129E+03  0.36726569817E+03 -0.10097316108E+03  0.41660792771E+03  0.00000000000E+00 0. -1.
</event>
<event>
 8    1  0.7572579E-006  0.1049524E+04  0.7818608E-02  0.8734139E-01
         21   -1    0    0  503  502  0.00000000000E+00  0.00000000000E+00  0.26376799372E+04  0.26376799372E+04  0.00000000000E+00 0.  1.
         21   -1    0    0  501  503 -0.00000000000E+00 -0.00000000000E+00 -0.42967191489E+03  0.42967191489E+03  0.00000000000E+00 0.  1.
    9000010    2    1    2  501    0 -0.21497712061E+03  0.19052721049E+03  0.78018467325E+03  0.13077421762E+04  0.10094482130E+04 0.  0.
   -9000010    2    1    2    0  502  0.21497712061E+03 -0.19052721049E+03  0.14278233491E+04  0.17596096759E+04  0.98743653722E+03 0.  0.
        -13    1    3    3    0    0 -0.53789142214E+02  0.44209945610E+03 -0.27857987714E+02  0.44623007468E+03  0.10566000000E+00 0.  1.
         13    1    4    4    0    0  0.70250688075E+02  0.23219792294E+03 -0.20955187699E+02  0.24349571998E+03  0.10566000000E+00 0. -1.
          4    1    3    3  501    0 -0.16118797839E+03 -0.25157224561E+03  0.80804266097E+03  0.86151210153E+03  0.00000000000E+00 0.  1.
         -4    1    4    4    0  502  0.14472643253E+03 -0.42272513343E+03  0.14487785368E+04  0.15161139559E+04  0.00000000000E+00 0. -1.
</event>
<event>
 8    1  0.7572579E-006  0.1208825E+04  0.7818608E-02  0.8600825E-01
         21   -1    0    0  501  502  0.00000000000E+00  0.00000000000E+00  0.21259578455E+04  0.21259578455E+04  0.00000000000E+00 0. -1.
         21   -1    0    0  502  503 -0.00000000000E+00 -0.00000000000E+00 -0.82669035237E+03  0.82669035237E+03  0.00000000000E+00 0. -1.
    9000010    2    1    2  501    0  0.23512230307E+03 -0.63833064584E+03  0.12604864737E+04  0.17432016040E+04  0.99356789962E+03 0.  0.
   -9000010    2    1    2    0  503 -0.23512230307E+03  0.63833064584E+03  0.38781019434E+02  0.12094465938E+04  0.99925401424E+03 0.  0.
        -13    1    3    3    0    0  0.54353826323E+03 -0.95490307403E+02  0.40689245344E+03  0.68564839549E+03  0.10566000000E+00 0.  1.
         13    1    4    4    0    0  0.18378492174E+02  0.85952998428E+03  0.10637914642E+03  0.86628291961E+03  0.10566000000E+00 0. -1.
          4    1    3    3  501    0 -0.30841596016E+03 -0.54284033844E+03  0.85359402022E+03  0.10575532085E+04  0.00000000000E+00 0.  1.
         -4    1    4    4    0  503 -0.25350079525E+03 -0.22119933843E+03 -0.67598126989E+02  0.34316367420E+03  0.00000000000E+00 0. -1.
</event>
<event>
 8    1  0.7572579E-006  0.1092704E+04  0.7818608E-02  0.8696437E-01
         21   -1    0    0  501  502  0.00000000000E+00  0.00000000000E+00  0.87213759909E+03  0.87213759909E+03  0.00000000000E+00 0.  1.
         21   -1    0    0  502  503 -0.00000000000E+00 -0.00000000000E+00 -0.16321918854E+04  0.16321918854E+04  0.00000000000E+00 0.  1.
    9000010    2    1    2  501    0 -0.81813058439E+02 -0.41278829433E+03  0.14366512406E+03  0.11021077574E+04  0.10084216820E+04 0.  0.
   -9000010    2    1    2    0  503  0.81813058439E+02  0.41278829433E+03 -0.90371941032E+03  0.14022217270E+04  0.98611837354E+03 0.  0.
        -13    1    3    3    0    0 -0.86114864209E+02 -0.56722623169E+03 -0.28920264257E+03  0.64249478394E+03  0.10566000000E+00 0.  1.
         13    1    4    4    0    0 -0.33852129794E+03  0.53614497523E+03 -0.53880213762E+03  0.83207923799E+03  0.10566000000E+00 0. -1.
          4    1    3    3  501    0  0.43018057694E+01  0.15443793736E+03  0.43286776662E+03  0.45961297350E+03  0.00000000000E+00 0.  1.
         -4    1    4    4    0  503  0.42033435638E+03 -0.12335668089E+03 -0.36491727270E+03  0.57014248902E+03  0.00000000000E+00 0. -1.
</event>
<event>
 8    1  0.7572579E-006  0.1020980E+04  0.7818608E-02  0.8755298E-01
         21   -1    0    0  501  502  0.00000000000E+00  0.00000000000E+00  0.80871844356E+03  0.80871844356E+03  0.00000000000E+00 0.  1.
         21   -1    0    0  502  503 -0.00000000000E+00 -0.00000000000E+00 -0.13604020289E+04  0.13604020289E+04  0.00000000000E+00 0.  1.
    9000010    2    1    2  501    0 -0.25949973144E+03 -0.12932348356E+03 -0.25539370954E+02  0.10205438942E+04  0.97815791489E+03 0.  0.
   -9000010    2    1    2    0  503  0.25949973144E+03  0.12932348356E+03 -0.52614421442E+03  0.11485765783E+04  0.97894624359E+03 0.  0.
        -13    1    3    3    0    0  0.31875868697E+03 -0.12153527291E+03 -0.22516215931E+03  0.40874922902E+03  0.10566000000E+00 0.  1.
         13    1    4    4    0    0 -0.18334124203E+03 -0.13738329905E+03  0.16727133350E+03  0.28366863073E+03  0.10566000000E+00 0. -1.
          4    1    3    3  501    0 -0.57825841841E+03 -0.77882106520E+01  0.19962278836E+03  0.61179466516E+03  0.00000000000E+00 0.  1.
         -4    1    4    4    0  503  0.44284097347E+03  0.26670678261E+03 -0.69341554792E+03  0.86490794757E+03  0.00000000000E+00 0. -1.
</event>
<event>
 8    1  0.7572579E-006  0.1033159E+04  0.7818608E-02  0.8745021E-01
         21   -1    0    0  503  502  0.00000000000E+00  0.00000000000E+00  0.61058995357E+03  0.61058995357E+03  0.00000000000E+00 0. -1.
         21   -1    0    0  501  503 -0.00000000000E+00 -0.00000000000E+00 -0.22652670018E+04  0.22652670018E+04  0.00000000000E+00 0. -1.
    9000010    2    1    2  501    0  0.25414275420E+03 -0.12993190563E+03 -0.13417712268E+03  0.10375593924E+04  0.98846100216E+03 0.  0.
   -9000010    2    1    2    0  502 -0.25414275420E+03  0.12993190563E+03 -0.15204999256E+04  0.18382975630E+04  0.99294867287E+03 0.  0.
        -13    1    3    3    0    0  0.34576394258E+03  0.36727441730E+03 -0.16585450182E+03  0.53099051642E+03  0.10566000000E+00 0.  1.
         13    1    4    4    0    0 -0.42048847153E+03  0.29591990293E+03 -0.29982660896E+03  0.59521017317E+03  0.10566000000E+00 0. -1.
          4    1    3    3  501    0 -0.91621188375E+02 -0.49720632293E+03  0.31677379140E+02  0.50656887594E+03  0.00000000000E+00 0.  1.
         -4    1    4    4    0  502  0.16634571733E+03 -0.16598799731E+03 -0.12206733166E+04  0.12430873898E+04  0.00000000000E+00 0. -1.
</event>
<event>
 8    1  0.7572579E-006  0.1072937E+04  0.7818608E-02  0.8712329E-01
         21   -1    0    0  503  502  0.00000000000E+00  0.00000000000E+00  0.13909418869E+04  0.13909418869E+04  0.00000000000E+00 0.  1.
         21   -1    0    0  501  503 -0.00000000000E+00 -0.00000000000E+00 -0.94919521918E+03  0.94919521918E+03  0.00000000000E+00 0.  1.
    9000010    2    1    2  501    0 -0.34163560161E+03 -0.34919582575E+01 -0.21947245514E+03  0.10798178119E+04  0.10005554809E+04 0.  0.
   -9000010    2    1    2    0  502  0.34163560161E+03  0.34919582575E+01  0.66121912282E+03  0.12603192941E+04  0.10170874676E+04 0.  0.
        -13    1    3    3    0    0  0.11424079162E+02 -0.19027887647E+03  0.34154401471E+03  0.39113793675E+03  0.10566000000E+00 0.  1.
         13    1    4    4    0    0  0.24726026365E+03  0.35690881113E+03  0.76539629904E+03  0.87997331959E+03  0.10566000000E+00 0. -1.
          4    1    3    3  501    0 -0.35305968077E+03  0.18678691822E+03 -0.56101646985E+03  0.68867987516E+03  0.00000000000E+00 0.  1.
         -4    1    4    4    0  502  0.94375337959E+02 -0.35341685288E+03 -0.10417717622E+03  0.38034597455E+03  0.00000000000E+00 0. -1.
</event>
<event>
 8    1  0.7572579E-006  0.1098249E+04  0.7818608E-02  0.8688070E-01
         21   -1    0    0  503  502  0.00000000000E+00  0.00000000000E+00  0.17941843745E+04  0.17941843745E+04  0.00000000000E+00 0. -1.
         21   -1    0    0  501  503 -0.00000000000E+00 -0.00000000000E+00 -0.68228210226E+03  0.68228210226E+03  0.00000000000E+00 0. -1.
    9000010    2    1    2  501    0  0.41391436542E+03  0.15309864441E+03  0.39096926157E+03  0.11627334833E+04  0.10021616101E+04 0.  0.
   -9000010    2    1    2    0  502 -0.41391436542E+03 -0.15309864441E+03  0.72093301066E+03  0.13137329935E+04  0.10056767252E+04 0.  0.
        -13    1    3    3    0    0 -0.18858296549E+03 -0.26546299452E+03  0.26182194014E+03  0.41783355039E+03  0.10566000000E+00 0.  1.
         13    1    4    4    0    0 -0.14104087410E+03 -0.30252960556E+03  0.89641543667E+03  0.95654447710E+03  0.10566000000E+00 0. -1.
          4    1    3    3  501    0  0.60249733091E+03  0.41856163893E+03  0.12914732144E+03  0.74489993286E+03  0.00000000000E+00 0.  1.
         -4    1    4    4    0  502 -0.27287349132E+03  0.14943096114E+03 -0.17548242601E+03  0.35718851641E+03  0.00000000000E+00 0. -1.
</event>
<event>
 8    1  0.7572579E-006  0.1056419E+04  0.7818608E-02  0.8724239E-01
         21   -1    0    0  501  502  0.00000000000E+00  0.00000000000E+00  0.80040997824E+03  0.80040997824E+03  0.00000000000E+00 0. -1.
         21   -1    0    0  502  503 -0.00000000000E+00 -0.00000000000E+00 -0.15196302157E+04  0.15196302157E+04  0.00000000000E+00 0. -1.
    9000010    2    1    2  501    0  0.18355893311E+03 -0.27807607863E+03 -0.69935910155E+03  0.12634349055E+04  0.99807034824E+03 0.  0.
   -9000010    2    1    2    0  503 -0.18355893311E+03  0.27807607863E+03 -0.19861135873E+02  0.10566052884E+04  0.10024969244E+04 0.  0.
        -13    1    3    3    0    0 -0.40575565016E+03 -0.10511153622E+03 -0.16891280511E+03  0.45190444740E+03  0.10566000000E+00 0.  1.
         13    1    4    4    0    0 -0.37460848972E+03 -0.24478097028E+03  0.15427015332E+03  0.47333765469E+03  0.10566000000E+00 0. -1.
          4    1    3    3  501    0  0.58931458327E+03 -0.17296454241E+03 -0.53044629644E+03  0.81153045808E+03  0.00000000000E+00 0.  1.
         -4    1    4    4    0  503  0.19104955661E+03  0.52285704891E+03 -0.17413128919E+03  0.58326763372E+03  0.00000000000E+00 0. -1.
</event>
<event>
 8    1  0.7572579E-006  0.1021550E+04  0.7818608E-02  0.8776813E-01
         21   -1    0    0  503  502  0.00000000000E+00  0.00000000000E+00  0.60305912811E+03  0.60305912811E+03  0.00000000000E+00 0. -1.
         21   -1    0    0  501  503 -0.00000000000E+00 -0.00000000000E+00 -0.20200066515E+04  0.20200066515E+04  0.00000000000E+00 0. -1.
    9000010    2    1    2  501    0 -0.92475488258E+02  0.10774204618E+03 -0.12955492511E+04  0.15943277811E+04  0.91829905103E+03 0.  0.
   -9000010    2    1    2    0  502  0.92475488258E+02 -0.10774204618E+03 -0.12139827224E+03  0.10287379985E+04  0.10116344520E+04 0.  0.
        -13    1    3    3    0    0  0.35632499490E+03 -0.19947735992E+02 -0.94668165421E+03  0.10117171441E+04  0.10566000000E+00 0.  1.
         13    1    4    4    0    0  0.55057434212E+03 -0.14207692039E+00 -0.79971782058E+02  0.55635206792E+03  0.10566000000E+00 0. -1.
          4    1    3    3  501    0 -0.44880048316E+03  0.12768978218E+03 -0.34886759694E+03  0.58261063701E+03  0.00000000000E+00 0.  1.
         -4    1    4    4    0  502 -0.45809885386E+03 -0.10759996926E+03 -0.41426490185E+02  0.47238593055E+03  0.00000000000E+00 0. -1.
</event>
<event>
 8    1  0.7572579E-006  0.1009945E+04  0.7818608E-02  0.8777964E-01
         21   -1    0    0  501  502  0.00000000000E+00  0.00000000000E+00  0.10154711892E+04  0.10154711892E+04  0.00000000000E+00 0. -1.
         21   -1    0    0  502  503 -0.00000000000E+00 -0.00000000000E+00 -0.20244349800E+04  0.20244349800E+04  0.00000000000E+00 0. -1.
    9000010    2    1    2  501    0  0.10027257775E+03  0.14609446909E+02  0.59499991847E+03  0.11721833139E+04  0.10048486417E+04 0.  0.
   -9000010    2    1    2    0  503 -0.10027257775E+03 -0.14609446909E+02 -0.16039637093E+04  0.18677228553E+04  0.95153615687E+03 0.  0.
        -13    1    3    3    0    0  0.30016924503E+02  0.46715322391E+03  0.53406561009E+03  0.71018253809E+03  0.10566000000E+00 0.  1.
         13    1    4    4    0    0 -0.39807512975E+03  0.31514980267E+03 -0.76100426846E+03  0.91482824335E+03  0.10566000000E+00 0. -1.
          4    1    3    3  501    0  0.70255653244E+02 -0.45254377700E+03  0.60934308379E+02  0.46200077582E+03  0.00000000000E+00 0.  1.
         -4    1    4    4    0  503  0.29780255200E+03 -0.32975924958E+03 -0.84295944081E+03  0.95289461197E+03  0.00000000000E+00 0. -1.
</event>
<event>
 8    1  0.7572579E-006  0.1133505E+04  0.7818608E-02  0.8668475E-01
         21   -1    0    0  501  502  0.00000000000E+00  0.00000000000E+00  0.15975157675E+04  0.15975157675E+04  0.00000000000E+00 0. -1.
         21   -1    0    0  502  503 -0.00000000000E+00 -0.00000000000E+00 -0.94516036542E+03  0.94516036542E+03  0.00000000000E+00 0. -1.
    9000010    2    1    2  501    0 -0.41469481502E+03  0.15432655342E+03 -0.21518194508E+03  0.11537486960E+04  0.10435728577E+04 0.  0.
   -9000010    2    1    2    0  503  0.41469481502E+03 -0.15432655342E+03  0.86753734716E+03  0.13889274369E+04  0.99030798314E+03 0.  0.
        -13    1    3    3    0    0  0.26675352370E+03  0.15165796688E+03 -0.34320114005E+03  0.46037442916E+03  0.10566000000E+00 0.  1.
         13    1    4    4    0    0  0.48874797279E+02  0.37763268357E+03  0.11577719570E+03  0.39799442172E+03  0.10566000000E+00 0. -1.
          4    1    3    3  501    0 -0.68144833872E+03  0.26685865419E+01  0.12801919497E+03  0.69337426688E+03  0.00000000000E+00 0.  1.
         -4    1    4    4    0  503  0.36582001774E+03 -0.53195923699E+03  0.75176015146E+03  0.99093301515E+03  0.00000000000E+00 0. -1.
</event>
<event>
 8    1  0.7572579E-006  0.1007179E+04  0.7818608E-02  0.8768909E-01
         21   -1    0    0  503  502  0.00000000000E+00  0.00000000000E+00  0.88534109351E+03  0.88534109351E+03  0.00000000000E+00 0.  1.
         21   -1    0    0  501  503 -0.00000000000E+00 -0.00000000000E+00 -0.12930647323E+04  0.12930647323E+04  0.00000000000E+00 0.  1.
    9000010    2    1    2  501    0  0.13541209639E+03 -0.64992134134E+02 -0.57728790688E+03  0.11570525711E+04  0.99143780017E+03 0.  0.
   -9000010    2    1    2    0  502 -0.13541209639E+03  0.64992134134E+02  0.16956426807E+03  0.10213532547E+04  0.99591667146E+03 0.  0.
        -13    1    3    3    0    0 -0.33615168995E+03 -0.18590432171E+03 -0.54816961132E+03  0.66936410826E+03  0.10566000000E+00 0.  1.
         13    1    4    4    0    0 -0.36047834196E+03 -0.22731070289E+03  0.40156880497E+03  0.58555299244E+03  0.10566000000E+00 0. -1.
          4    1    3    3  501    0  0.47156378634E+03  0.12091218757E+03 -0.29118295563E+02  0.48768846288E+03  0.00000000000E+00 0.  1.
         -4    1    4    4    0  502  0.22506624557E+03  0.29230283702E+03 -0.23200453690E+03  0.43580026224E+03  0.00000000000E+00 0. -1.
</event>
<event>
 8    1  0.7572579E-006  0.1050324E+04  0.7818608E-02  0.8733237E-01
         21   -1    0    0  503  502  0.00000000000E+00  0.00000000000E+00  0.10552799815E+04  0.10552799815E+04  0.00000000000E+00 0. -1.
         21   -1    0    0  501  503 -0.00000000000E+00 -0.00000000000E+00 -0.15051740254E+04  0.15051740254E+04  0.00000000000E+00 0. -1.
    9000010    2    1    2  501    0 -0.34100224674E+03 -0.24479551180E+02 -0.94930988731E+03  0.14157577641E+04  0.99312587503E+03 0.  0.
   -9000010    2    1    2    0  502  0.34100224674E+03  0.24479551180E+02  0.49941584342E+03  0.11446962429E+04  0.97161284630E+03 0.  0.
        -13    1    3    3    0    0 -0.66640105544E+03  0.14709576901E+03 -0.62095829713E+03  0.92266827728E+03  0.10566000000E+00 0.  1.
         13    1    4    4    0    0  0.31322792425E+03 -0.35008174720E+03 -0.57189334879E+02  0.47322256227E+03  0.10566000000E+00 0. -1.
          4    1    3    3  501    0  0.32539880871E+03 -0.17157532019E+03 -0.32835159018E+03  0.49308948678E+03  0.00000000000E+00 0.  1.
         -4    1    4    4    0  502  0.27774322482E+02  0.37456129838E+03  0.55660517830E+03  0.67147368060E+03  0.00000000000E+00 0. -1.
</event>
<event>
 8    1  0.7572579E-006  0.1009950E+04  0.7818608E-02  0.8767944E-01
         21   -1    0    0  503  502  0.00000000000E+00  0.00000000000E+00  0.27103807734E+04  0.27103807734E+04  0.00000000000E+00 0. -1.
         21   -1    0    0  501  503 -0.00000000000E+00 -0.00000000000E+00 -0.59516814870E+03  0.59516814870E+03  0.00000000000E+00 0. -1.
    9000010    2    1    2  501    0  0.11986624850E+03 -0.81356010292E+02  0.42089180918E+02  0.99950461462E+03  0.98805427865E+03 0.  0.
   -9000010    2    1    2    0  502 -0.11986624850E+03  0.81356010292E+02  0.20731234438E+04  0.23060443075E+04  0.99950628658E+03 0.  0.
        -13    1    3    3    0    0 -0.24793425091E+03  0.24816222028E+03  0.28237740465E+03  0.45032531593E+03  0.10566000000E+00 0.  1.
         13    1    4    4    0    0 -0.41771124492E+02  0.39435719101E+03  0.28325204839E+03  0.48733372039E+03  0.10566000000E+00 0. -1.
          4    1    3    3  501    0  0.36780049941E+03 -0.32951823057E+03 -0.24028822373E+03  0.54917929869E+03  0.00000000000E+00 0.  1.
         -4    1    4    4    0  502 -0.78095124005E+02 -0.31300118072E+03  0.17898713954E+04  0.18187105871E+04  0.00000000000E+00 0. -1.
</event>
<event>
 8    1  0.7572579E-006  0.1094196E+04  0.7818608E-02  0.8694731E-01
         21   -1    0    0  501  502  0.00000000000E+00  0.00000000000E+00  0.24069839198E+04  0.24069839198E+04  0.00000000000E+00 0. -1.
         21   -1    0    0  502  503 -0.00000000000E+00 -0.00000000000E+00 -0.76190817893E+03  0.76190817893E+03  0.00000000000E+00 0. -1.
    9000010    2    1    2  501    0  0.12537319935E+03 -0.35552359917E+03  0.17662219358E+04  0.20680096002E+04  0.10074762089E+04 0.  0.
   -9000010    2    1    2    0  503 -0.12537319935E+03  0.35552359917E+03 -0.12114619489E+03  0.11008824985E+04  0.10272051433E+04 0.  0.
        -13    1    3    3    0    0 -0.39613998306E+03  0.64399453359E+01  0.98293092420E+03  0.10597743024E+04  0.10566000000E+00 0.  1.
         13    1    4    4    0    0  0.26036277004E+03 -0.25655661994E+03 -0.91411923609E+02  0.37678405248E+03  0.10566000000E+00 0. -1.
          4    1    3    3  501    0  0.52151318241E+03 -0.36196354451E+03  0.78329101159E+03  0.10082352978E+04  0.00000000000E+00 0.  1.
         -4    1    4    4    0  503 -0.38573596939E+03  0.61208021911E+03 -0.29734271281E+02  0.72409844607E+03  0.00000000000E+00 0. -1.
</event>
<event>
 8    1  0.7572579E-006  0.1030960E+04  0.7818608E-02  0.8750527E-01
         21   -1    0    0  503  502  0.00000000000E+00  0.00000000000E+00  0.97324833498E+03  0.97324833498E+03  0.00000000000E+00 0.  1.
         21   -1    0    0  501  503 -0.00000000000E+00 -0.00000000000E+00 -0.11535405164E+04  0.11535405164E+04  0.00000000000E+00 0.  1.
    9000010    2    1    2  501    0 -0.10656034593E+03  0.92320694940E+02 -0.37312687163E+03  0.10779494691E+04  0.10014355584E+04 0.  0.
   -9000010    2    1    2    0  502  0.10656034593E+03 -0.92320694940E+02  0.19283469024E+03  0.10488393822E+04  0.10212740151E+04 0.  0.
        -13    1    3    3    0    0 -0.31665009100E+03 -0.13561520683E+03 -0.60134134675E+03  0.69301528910E+03  0.10566000000E+00 0.  1.
         13    1    4    4    0    0  0.17386656101E+03  0.27761058439E+03 -0.28957187707E+03  0.43720601638E+03  0.10566000000E+00 0. -1.
          4    1    3    3  501    0  0.21008974507E+03  0.22793590176E+03  0.22821447512E+03  0.38493418003E+03  0.00000000000E+00 0.  1.
         -4    1    4    4    0  502 -0.67306215084E+02 -0.36993127933E+03  0.48240656732E+03  0.61163336583E+03  0.00000000000E+00 0. -1.
</event>
<event>
 8    1  0.7572579E-006  0.1060245E+04  0.7818608E-02  0.8724494E-01
         21   -1    0    0  501  502  0.00000000000E+00  0.00000000000E+00  0.84746628561E+03  0.84746628561E+03  0.00000000000E+00 0. -1.
         21   -1    0    0  502  503 -0.00000000000E+00 -0.00000000000E+00 -0.14439023666E+04  0.14439023666E+04  0.00000000000E+00 0. -1.
    9000010    2    1    2  501    0  0.30123549171E+03  0.95457297324E+02  0.64943850513E+02  0.10417514116E+04  0.99054196420E+03 0.  0.
   -9000010    2    1    2    0  503 -0.30123549171E+03 -0.95457297324E+02 -0.66137993154E+03  0.12496172406E+04  0.10120597399E+04 0.  0.
        -13    1    3    3    0    0  0.47764907131E+03  0.44082919615E+03  0.10007981424E+02  0.65006090973E+03  0.10566000000E+00 0.  1.
         13    1    4    4    0    0 -0.54322427185E+02  0.44690004350E+03 -0.18511266684E+03  0.48676204203E+03  0.10566000000E+00 0. -1.
          4    1    3    3  501    0 -0.17641357960E+03 -0.34537189883E+03  0.54935869088E+02  0.39169050190E+03  0.00000000000E+00 0.  1.
         -4    1    4    4    0  503 -0.24691306452E+03 -0.54235734083E+03 -0.47626726470E+03  0.76285519858E+03  0.00000000000E+00 0. -1.
</event>
<event>
 8    1  0.7572579E-006  0.1117742E+04  0.7818608E-02  0.8679512E-01
         21   -1    0    0  503  502  0.00000000000E+00  0.00000000000E+00  0.67499034880E+03  0.67499034880E+03  0.00000000000E+00 0.  1.
         21   -1    0    0  501  503 -0.00000000000E+00 -0.00000000000E+00 -0.20166369813E+04  0.20166369813E+04  0.00000000000E+00 0.  1.
    9000010    2    1    2  501    0  0.37013875388E+03 -0.37397757932E+02 -0.11153180409E+04  0.15512011326E+04  0.10118741681E+04 0.  0.
   -9000010    2    1    2    0  502 -0.37013875388E+03  0.37397757932E+02 -0.22632859169E+03  0.11404261975E+04  0.10540142272E+04 0.  0.
        -13    1    3    3    0    0  0.48047308857E+03  0.21788417731E+03 -0.15271065092E+03  0.54922532500E+03  0.10566000000E+00 0.  1.
         13    1    4    4    0    0  0.20225219669E+03  0.49658833272E+02 -0.47315813181E+03  0.51696284165E+03  0.10566000000E+00 0. -1.
          4    1    3    3  501    0 -0.11033433469E+03 -0.25528193524E+03 -0.96260738994E+03  0.10019758076E+04  0.00000000000E+00 0.  1.
         -4    1    4    4    0  502 -0.57239095057E+03 -0.12261075340E+02  0.24682954012E+03  0.62346335589E+03  0.00000000000E+00 0. -1.
</event>
<event>
 8    1  0.7572579E-006  0.1049587E+04  0.7818608E-02  0.8730393E-01
         21   -1    0    0  503  502  0.00000000000E+00  0.00000000000E+00  0.10016260725E+04  0.10016260725E+04  0.00000000000E+00 0.  1.
         21   -1    0    0  501  503 -0.00000000000E+00 -0.00000000000E+00 -0.11104648960E+04  0.11104648960E+04  0.00000000000E+00 0.  1.
    9000010    2    1    2  501    0  0.27119718196E+03  0.24240960022E+02 -0.17954938884E+03  0.10648341051E+04  0.10136558354E+04 0.  0.
   -9000010    2    1    2    0  502 -0.27119718196E+03 -0.24240960022E+02  0.70710565336E+02  0.10472568634E+04  0.10087672766E+04 0.  0.
        -13    1    3    3    0    0  0.35650205245E+03 -0.44230403861E+03 -0.35662175092E+02  0.56920855393E+03  0.10566000000E+00 0.  1.
         13    1    4    4    0    0 -0.13839985628E+03  0.21366506358E+03 -0.41702072896E+03  0.48858323667E+03  0.10566000000E+00 0. -1.
          4    1    3    3  501    0 -0.85304870483E+02  0.46654499863E+03 -0.14388721375E+03  0.49562555116E+03  0.00000000000E+00 0.  1.
         -4    1    4    4    0  502 -0.13279732568E+03 -0.23790602360E+03  0.48773129429E+03  0.55867362674E+03  0.00000000000E+00 0. -1.
</event>
<event>
 8    1  0.7572579E-006  0.1037460E+04  0.7818608E-02  0.8742529E-01
         21   -1    0    0  501  502  0.00000000000E+00  0.00000000000E+00  0.13619349096E+04  0.13619349096E+04  0.00000000000E+00 0. -1.
         21   -1    0    0  502  503 -0.00000000000E+00 -0.00000000000E+00 -0.80004251440E+03  0.80004251440E+03  0.00000000000E+00 0. -1.
    9000010    2    1    2  501    0  0.17733767080E+03 -0.10279373829E+03  0.44029123211E+03  0.11174154098E+04  0.10063526355E+04 0.  0.
   -9000010    2    1    2    0  503 -0.17733767080E+03  0.10279373829E+03  0.12160116311E+03  0.10445620142E+04  0.10170092215E+04 0.  0.
        -13    1    3    3    0    0  0.68505105835E+02 -0.51845218208E+03  0.44659190464E+03  0.68769902944E+03  0.10566000000E+00 0.  1.
         13    1    4    4    0    0  0.33474580733E+03  0.25888122022E+03  0.25339049529E+03  0.49323523391E+03  0.10566000000E+00 0. -1.
          4    1    3    3  501    0  0.10883256497E+03  0.41565844379E+03 -0.63006725267E+01  0.42971638038E+03  0.00000000000E+00 0.  1.
         -4    1    4    4    0  503 -0.51208347813E+03 -0.15608748193E+03 -0.13178933218E+03  0.55132678029E+03  0.00000000000E+00 0. -1.
</event>
<event>
 8    1  0.7572579E-006  0.1028253E+04  0.7818608E-02  0.8749525E-01
         21   -1    0    0  501  502  0.00000000000E+00  0.00000000000E+00  0.12243228046E+04  0.12243228046E+04  0.00000000000E+00 0. -1.
         21   -1    0    0  502  503 -0.00000000000E+00 -0.00000000000E+00 -0.86996476754E+03  0.86996476754E+03  0.00000000000E+00 0. -1.
    9000010    2    1    2  501    0 -0.47810522470E+02 -0.20928847691E+03  0.29017225514E+03  0.10640329008E+04  0.10009388411E+04 0.  0.
   -9000010    2    1    2    0  503  0.47810522470E+02  0.20928847691E+03  0.64185781958E+02  0.10302546714E+04  0.10055930393E+04 0.  0.
        -13    1    3    3    0    0 -0.53079920215E+02 -0.49342420468E+03  0.50481275934E+03  0.70789890299E+03  0.10566000000E+00 0.  1.
         13    1    4    4    0    0 -0.11930650902E+03  0.57703490041E+03 -0.93535101284E+02  0.59661725229E+03  0.10566000000E+00 0. -1.
          4    1    3    3  501    0  0.52693977447E+01  0.28413572777E+03 -0.21464050421E+03  0.35613399781E+03  0.00000000000E+00 0.  1.
         -4    1    4    4    0  503  0.16711703149E+03 -0.36774642350E+03  0.15772088324E+03  0.43363741908E+03  0.00000000000E+00 0. -1.
</event>
<event>
 8    1  0.7572579E-006  0.1140674E+04  0.7818608E-02  0.8655420E-01
         21   -1    0    0  501  502  0.00000000000E+00  0.00000000000E+00  0.68171116875E+03  0.68171116875E+03  0.00000000000E+00 0. -1.
         21   -1    0    0  502  503 -0.00000000000E+00 -0.00000000000E+00 -0.19714774366E+04  0.19714774366E+04  0.00000000000E+00 0. -1.
    9000010    2    1    2  501    0 -0.47958592007E+03  0.15432566096E+03 -0.37164409706E+03  0.11996897795E+04  0.10233851513E+04 0.  0.
   -9000010    2    1    2    0  503  0.47958592007E+03 -0.15432566096E+03 -0.91812217080E+03  0.14534988258E+04  0.10079144070E+04 0.  0.
        -13    1    3    3    0    0 -0.76488252116E+03 -0.67960708789E+02 -0.32938597404E+03  0.83555913027E+03  0.10566000000E+00 0.  1.
         13    1    4    4    0    0  0.43371143441E+03 -0.54653249798E+03 -0.40748232209E+03  0.80798838709E+03  0.10566000000E+00 0. -1.
          4    1    3    3  501    0  0.28529660109E+03  0.22228636975E+03 -0.42258123020E+02  0.36413064926E+03  0.00000000000E+00 0.  1.
         -4    1    4    4    0  503  0.45874485665E+02  0.39220683702E+03 -0.51063984871E+03  0.64551043874E+03  0.00000000000E+00 0. -1.
</event>
<event>
 8    1  0.7572579E-006  0.1071436E+04  0.7818608E-02  0.8718668E-01
         21   -1    0    0  501  502  0.00000000000E+00  0.00000000000E+00  0.24124285592E+04  0.24124285592E+04  0.00000000000E+00 0. -1.
         21   -1    0    0  502  503 -0.00000000000E+00 -0.00000000000E+00 -0.46292670599E+03  0.46292670599E+03  0.00000000000E+00 0. -1.
    9000010    2    1    2  501    0  0.15015555297E+03 -0.27785632086E+03  0.85966497953E+03  0.13736804788E+04  0.10238277960E+04 0.  0.
   -9000010    2    1    2    0  503 -0.15015555297E+03  0.27785632086E+03  0.10898368737E+04  0.15016747863E+04  0.98363200822E+03 0.  0.
        -13    1    3    3    0    0  0.43814049113E+03 -0.38652190938E+02  0.89540926435E+03  0.99760655756E+03  0.10566000000E+00 0.  1.
         13    1    4    4    0    0  0.23913902412E+01 -0.30130277880E+03  0.55390884581E+02  0.30636129736E+03  0.10566000000E+00 0. -1.
          4    1    3    3  501    0 -0.28798493816E+03 -0.23920412992E+03 -0.35744284821E+02  0.37607392129E+03  0.00000000000E+00 0.  1.
         -4    1    4    4    0  503 -0.15254694322E+03  0.57915909966E+03  0.10344459891E+04  0.11953134890E+04  0.00000000000E+00 0. -1.
</event>
<event>
 8    1  0.7572579E-006  0.1033768E+04  0.7818608E-02  0.8750600E-01
         21   -1    0    0  501  502  0.00000000000E+00  0.00000000000E+00  0.14720416942E+04  0.14720416942E+04  0.00000000000E+00 0. -1.
         21   -1    0    0  502  503 -0.00000000000E+00 -0.00000000000E+00 -0.72352686736E+03  0.72352686736E+03  0.00000000000E+00 0. -1.
    9000010    2    1    2  501    0  0.16506618744E+03 -0.21977564292E+02  0.20126555500E+03  0.10531778949E+04  0.10202676096E+04 0.  0.
   -9000010    2    1    2    0  503 -0.16506618744E+03  0.21977564292E+02  0.54724927184E+03  0.11423906666E+04  0.98886035922E+03 0.  0.
        -13    1    3    3    0    0 -0.35940513867E+03  0.24600941132E+03  0.16287749564E+02  0.43584169845E+03  0.10566000000E+00 0.  1.
         13    1    4    4    0    0  0.39197699233E+03  0.11724340182E+03  0.98665458079E+02  0.42086442183E+03  0.10566000000E+00 0. -1.
          4    1    3    3  501    0  0.52447132610E+03 -0.26798697561E+03  0.18497780543E+03  0.61733619650E+03  0.00000000000E+00 0.  1.
         -4    1    4    4    0  503 -0.55704317976E+03 -0.95265837529E+02  0.44858381376E+03  0.72152624477E+03  0.00000000000E+00 0. -1.
</event>
<event>
 8    1  0.7572579E-006  0.1153378E+04  0.7818608E-02  0.8642817E-01
         21   -1    0    0  503  502  0.00000000000E+00  0.00000000000E+00  0.14921193552E+04  0.14921193552E+04  0.00000000000E+00 0. -1.
         21   -1    0    0  501  503 -0.00000000000E+00 -0.00000000000E+00 -0.96689557498E+03  0.96689557498E+03  0.00000000000E+00 0. -1.
    9000010    2    1    2  501    0 -0.51287227600E+03  0.33098034693E+03 -0.83409827813E+02  0.11549002337E+04  0.97685791648E+03 0.  0.
   -9000010    2    1    2    0  502  0.51287227600E+03 -0.33098034693E+03  0.60863360804E+03  0.13041146964E+04  0.97861857282E+03 0.  0.
        -13    1    3    3    0    0 -0.40582887211E+03 -0.13490356519E+03  0.31618765099E+03  0.53185588945E+03  0.10566000000E+00 0.  1.
         13    1    4    4    0    0 -0.18824722226E+03 -0.33912616646E+03  0.19598955339E+02  0.38836542545E+03  0.10566000000E+00 0. -1.
          4    1    3    3  501    0 -0.10704340390E+03  0.46588391212E+03 -0.39959747881E+03  0.62304434430E+03  0.00000000000E+00 0.  1.
         -4    1    4    4    0  502  0.70111949827E+03  0.81458195293E+01  0.58903465271E+03  0.91574927099E+03  0.00000000000E+00 0. -1.
</event>
<event>
 8    1  0.7572579E-006  0.1051253E+04  0.7818608E-02  0.8728821E-01
         21   -1    0    0  501  502  0.00000000000E+00  0.00000000000E+00  0.17436349084E+04  0.17436349084E+04  0.00000000000E+00 0. -1.
         21   -1    0    0  502  503 -0.00000000000E+00 -0.00000000000E+00 -0.75308490596E+03  0.75308490596E+03  0.00000000000E+00 0. -1.
    9000010    2    1    2  501    0 -0.22631506348E+03  0.24353718277E+03  0.99659008411E+03  0.14454492542E+04  0.99277534392E+03 0.  0.
   -9000010    2    1    2    0  503  0.22631506348E+03 -0.24353718277E+03 -0.60400817184E+01  0.10512705601E+04  0.99729857141E+03 0.  0.
        -13    1    3    3    0    0  0.26265968058E+03 -0.19396556363E+03  0.11432787736E+03  0.34595320837E+03  0.10566000000E+00 0.  1.
         13    1    4    4    0    0 -0.26152416040E+02 -0.49820136352E+03 -0.30471029292E+03  0.58458268983E+03  0.10566000000E+00 0. -1.
          4    1    3    3  501    0 -0.48897474406E+03  0.43750274640E+03  0.88226220676E+03  0.10994960459E+04  0.00000000000E+00 0.  1.
         -4    1    4    4    0  503  0.25246747952E+03  0.25466418075E+03  0.29867021120E+03  0.46668787024E+03  0.00000000000E+00 0. -1.
</event>
<event>
 8    1  0.7572579E-006  0.1001862E+04  0.7818608E-02  0.8773161E-01
         21   -1    0    0  501  502  0.00000000000E+00  0.00000000000E+00  0.76324655925E+03  0.76324655925E+03  0.00000000000E+00 0.  1.
         21   -1    0    0  502  503 -0.00000000000E+00 -0.00000000000E+00 -0.15539635424E+04  0.15539635424E+04  0.00000000000E+00 0.  1.
    9000010    2    1    2  501    0 -0.96111741870E+02 -0.46104912405E+02  0.60816053960E+02  0.10023581070E+04  0.99481659228E+03 0.  0.
   -9000010    2    1    2    0  503  0.96111741870E+02  0.46104912405E+02 -0.85153303712E+03  0.13148519947E+04  0.99617474613E+03 0.  0.
        -13    1    3    3    0    0 -0.29550229533E+03  0.35622076812E+03  0.23702650188E+03  0.51999655378E+03  0.10566000000E+00 0.  1.
         13    1    4    4    0    0 -0.30090461853E+03 -0.21153836489E+03 -0.32949734855E+02  0.36929360334E+03  0.10566000000E+00 0. -1.
          4    1    3    3  501    0  0.19939055346E+03 -0.40232568053E+03 -0.17621044792E+03  0.48236155317E+03  0.00000000000E+00 0.  1.
         -4    1    4    4    0  503  0.39701636040E+03  0.25764327730E+03 -0.81858330227E+03  0.94555839138E+03  0.00000000000E+00 0. -1.
</event>
<event>
 8    1  0.7572579E-006  0.1046710E+04  0.7818608E-02  0.8744742E-01
         21   -1    0    0  503  502  0.00000000000E+00  0.00000000000E+00  0.21010377286E+04  0.21010377286E+04  0.00000000000E+00 0. -1.
         21   -1    0    0  501  503 -0.00000000000E+00 -0.00000000000E+00 -0.56308173245E+03  0.56308173245E+03  0.00000000000E+00 0. -1.
    9000010    2    1    2  501    0  0.19699986716E+03 -0.21331771331E+03  0.28355038021E+03  0.10303706939E+04  0.94707420732E+03 0.  0.
   -9000010    2    1    2    0  502 -0.19699986716E+03  0.21331771331E+03  0.12544056159E+04  0.16337487672E+04  0.10056282566E+04 0.  0.
        -13    1    3    3    0    0  0.23111243240E+03  0.34991649477E+03  0.60825929542E+02  0.42373849789E+03  0.10566000000E+00 0.  1.
         13    1    4    4    0    0  0.27498928476E+03  0.41134476691E+03  0.39356246577E+03  0.63223021885E+03  0.10566000000E+00 0. -1.
          4    1    3    3  501    0 -0.34112565244E+02 -0.56323420808E+03  0.22272445066E+03  0.60663219597E+03  0.00000000000E+00 0.  1.
         -4    1    4    4    0  502 -0.47198915192E+03 -0.19802705360E+03  0.86084315015E+03  0.10015185483E+04  0.00000000000E+00 0. -1.
</event>
<event>
 8    1  0.7572579E-006  0.1007731E+04  0.7818608E-02  0.8768450E-01
         21   -1    0    0  503  502  0.00000000000E+00  0.00000000000E+00  0.75553034071E+03  0.75553034071E+03  0.00000000000E+00 0. -1.
         21   -1    0    0  501  503 -0.00000000000E+00 -0.00000000000E+00 -0.13726122604E+04  0.13726122604E+04  0.00000000000E+00 0. -1.
    9000010    2    1    2  501    0  0.52300687979E+02 -0.54779868886E+02 -0.14002968093E+03  0.10174132431E+04  0.10048806893E+04 0.  0.
   -9000010    2    1    2    0  502 -0.52300687979E+02  0.54779868886E+02 -0.47705223874E+03  0.11107293580E+04  0.10002023156E+04 0.  0.
        -13    1    3    3    0    0 -0.37227622115E+03 -0.14458778257E+03 -0.35389375908E+03  0.53360661126E+03  0.10566000000E+00 0.  1.
         13    1    4    4    0    0  0.29604480830E+03 -0.26423918483E+03  0.53461625811E+02  0.40040358630E+03  0.10566000000E+00 0. -1.
          4    1    3    3  501    0  0.42457690913E+03  0.89807913682E+02  0.21386407815E+03  0.48380663188E+03  0.00000000000E+00 0.  1.
         -4    1    4    4    0  502 -0.34834549628E+03  0.31901905372E+03 -0.53051386455E+03  0.71032577167E+03  0.00000000000E+00 0. -1.
</event>
<event>
 8    1  0.7572579E-006  0.1069222E+04  0.7818608E-02  0.8714504E-01
         21   -1    0    0  503  502  0.00000000000E+00  0.00000000000E+00  0.88757526038E+03  0.88757526038E+03  0.00000000000E+00 0.  1.
         21   -1    0    0  501  503 -0.00000000000E+00 -0.00000000000E+00 -0.16382974799E+04  0.16382974799E+04  0.00000000000E+00 0.  1.
    9000010    2    1    2  501    0  0.30686090747E+03 -0.17382451975E+03 -0.96859848321E+03  0.14346785630E+04  0.99786821639E+03 0.  0.
   -9000010    2    1    2    0  502 -0.30686090747E+03  0.17382451975E+03  0.21787626367E+03  0.10911941773E+04  0.10093840132E+04 0.  0.
        -13    1    3    3    0    0  0.66639028191E+03 -0.19356227059E+03 -0.57476421880E+03  0.90105287237E+03  0.10566000000E+00 0.  1.
         13    1    4    4    0    0 -0.12287574062E+03  0.35352111662E+03  0.55362618436E+03  0.66826461129E+03  0.10566000000E+00 0. -1.
          4    1    3    3  501    0 -0.35952937444E+03  0.19737750849E+02 -0.39383426441E+03  0.53362569065E+03  0.00000000000E+00 0.  1.
         -4    1    4    4    0  502 -0.18398516686E+03 -0.17969659687E+03 -0.33574992069E+03  0.42292956600E+03  0.00000000000E+00 0. -1.
</event>
<event>
 8    1  0.7572579E-006  0.1082699E+04  0.7818608E-02  0.8704618E-01
         21   -1    0    0  501  502  0.00000000000E+00  0.00000000000E+00  0.73734660383E+03  0.73734660383E+03  0.00000000000E+00 0. -1.
         21   -1    0    0  502  503 -0.00000000000E+00 -0.00000000000E+00 -0.17500017813E+04  0.17500017813E+04  0.00000000000E+00 0. -1.
    9000010    2    1    2  501    0 -0.23682538444E+01 -0.38335736473E+03 -0.10288012639E+03  0.10875756391E+04  0.10125551702E+04 0.  0.
   -9000010    2    1    2    0  503  0.23682538444E+01  0.38335736473E+03 -0.90977505106E+03  0.13997727460E+04  0.99232284020E+03 0.  0.
        -13    1    3    3    0    0  0.22115917646E+03 -0.15621856520E+03  0.40548687703E+03  0.48758100871E+03  0.10566000000E+00 0.  1.
         13    1    4    4    0    0  0.59377433181E+02 -0.26842109045E+03 -0.63158050232E+03  0.68881746744E+03  0.10566000000E+00 0. -1.
          4    1    3    3  501    0 -0.22352743030E+03 -0.22713879953E+03 -0.50836700342E+03  0.59999463041E+03  0.00000000000E+00 0.  1.
         -4    1    4    4    0  503 -0.57009179336E+02  0.65177845518E+03 -0.27819454874E+03  0.71095527856E+03  0.00000000000E+00 0. -1.
</event>
<event>
 8    1  0.7572579E-006  0.1081656E+04  0.7818608E-02  0.8711771E-01
         21   -1    0    0  503  502  0.00000000000E+00  0.00000000000E+00  0.22360649972E+04  0.22360649972E+04  0.00000000000E+00 0. -1.
         21   -1    0    0  501  503 -0.00000000000E+00 -0.00000000000E+00 -0.60813882723E+03  0.60813882723E+03  0.00000000000E+00 0. -1.
    9000010    2    1    2  501    0 -0.72972839831E+02 -0.42311199632E+03  0.23110246540E+03  0.11060683917E+04  0.99278907170E+03 0.  0.
   -9000010    2    1    2    0  502  0.72972839831E+02  0.42311199632E+03  0.13968237045E+04  0.17381354327E+04  0.94108954087E+03 0.  0.
        -13    1    3    3    0    0 -0.21128875458E+03 -0.27374617492E+03  0.59552380860E+03  0.68864252255E+03  0.10566000000E+00 0.  1.
         13    1    4    4    0    0 -0.72821235062E+02  0.32232954991E+03  0.14980255014E+04  0.15340403140E+04  0.10566000000E+00 0. -1.
          4    1    3    3  501    0  0.13831591474E+03 -0.14936582140E+03 -0.36442134321E+03  0.41742586918E+03  0.00000000000E+00 0.  1.
         -4    1    4    4    0  502  0.14579407489E+03  0.10078244641E+03 -0.10120179684E+03  0.20409511866E+03  0.00000000000E+00 0. -1.
</event>
<event>
 8    1  0.7572579E-006  0.1088861E+04  0.7818608E-02  0.8700083E-01
         21   -1    0    0  501  502  0.00000000000E+00  0.00000000000E+00  0.79093005941E+03  0.79093005941E+03  0.00000000000E+00 0.  1.
         21   -1    0    0  502  503 -0.00000000000E+00 -0.00000000000E+00 -0.14705803467E+04  0.14705803467E+04  0.00000000000E+00 0.  1.
    9000010    2    1    2  501    0  0.24072053148E+03 -0.33732551491E+03 -0.38599226429E+03  0.11552528328E+04  0.10069181706E+04 0.  0.
   -9000010    2    1    2    0  503 -0.24072053148E+03  0.33732551491E+03 -0.29365802297E+03  0.11062575733E+04  0.98276950846E+03 0.  0.
        -13    1    3    3    0    0  0.19479719912E+03  0.31098811167E+03  0.53256980939E+02  0.37080435754E+03  0.10566000000E+00 0.  1.
         13    1    4    4    0    0 -0.21803235346E+03  0.58497927706E+03  0.10827282457E+03  0.63361019361E+03  0.10566000000E+00 0. -1.
          4    1    3    3  501    0  0.45923332363E+02 -0.64831362658E+03 -0.43924924523E+03  0.78444847523E+03  0.00000000000E+00 0.  1.
         -4    1    4    4    0  503 -0.22688178020E+02 -0.24765376215E+03 -0.40193084754E+03  0.47264737969E+03  0.00000000000E+00 0. -1.
</event>
<event>
 8    1  0.7572579E-006  0.1014381E+04  0.7818608E-02  0.8764368E-01
         21   -1    0    0  501  502  0.00000000000E+00  0.00000000000E+00  0.83738235652E+03  0.83738235652E+03  0.00000000000E+00 0.  1.
         21   -1    0    0  502  503 -0.00000000000E+00 -0.00000000000E+00 -0.13346031447E+04  0.13346031447E+04  0.00000000000E+00 0.  1.
    9000010    2    1    2  501    0  0.14042105334E+03  0.38608591172E+02  0.78578548155E+02  0.10174203699E+04  0.10038729627E+04 0.  0.
   -9000010    2    1    2    0  503 -0.14042105334E+03 -0.38608591172E+02 -0.57579933632E+03  0.11545651313E+04  0.99008437584E+03 0.  0.
        -13    1    3    3    0    0 -0.33860599381E+03  0.27250802577E+03  0.18743918955E+03  0.47333719915E+03  0.10566000000E+00 0.  1.
         13    1    4    4    0    0 -0.15694459064E+03  0.23500393734E+03 -0.76895361635E+03  0.81923630923E+03  0.10566000000E+00 0. -1.
          4    1    3    3  501    0  0.47902704714E+03 -0.23389943460E+03 -0.10886064139E+03  0.54408317071E+03  0.00000000000E+00 0.  1.
         -4    1    4    4    0  503  0.16523537302E+02 -0.27361252851E+03  0.19315428004E+03  0.33532882211E+03  0.00000000000E+00 0. -1.
</event>
<event>
 8    1  0.7572579E-006  0.1023098E+04  0.7818608E-02  0.8753547E-01
         21   -1    0    0  501  502  0.00000000000E+00  0.00000000000E+00  0.15552736801E+04  0.15552736801E+04  0.00000000000E+00 0. -1.
         21   -1    0    0  502  503 -0.00000000000E+00 -0.00000000000E+00 -0.68629685810E+03  0.68629685810E+03  0.00000000000E+00 0. -1.
    9000010    2    1    2  501    0 -0.17544198421E+03 -0.10128803475E+03  0.59602690217E+03  0.11826881055E+04  0.10012312076E+04 0.  0.
   -9000010    2    1    2    0  503  0.17544198421E+03  0.10128803475E+03  0.27294991979E+03  0.10588824326E+04  0.10028415586E+04 0.  0.
        -13    1    3    3    0    0  0.24695184024E+03 -0.40176734066E+03  0.43048605419E+03  0.63852992212E+03  0.10566000000E+00 0.  1.
         13    1    4    4    0    0  0.18434299637E+03  0.53837722495E+03  0.58866858837E+02  0.57209937501E+03  0.10566000000E+00 0. -1.
          4    1    3    3  501    0 -0.42239382445E+03  0.30047930591E+03  0.16554084798E+03  0.54415818340E+03  0.00000000000E+00 0.  1.
         -4    1    4    4    0  503 -0.89010121588E+01 -0.43708919021E+03  0.21408306095E+03  0.48678305763E+03  0.00000000000E+00 0. -1.
</event>
<event>
 8    1  0.7572579E-006  0.1014810E+04  0.7818608E-02  0.8765541E-01
         21   -1    0    0  501  502  0.00000000000E+00  0.00000000000E+00  0.72177247899E+03  0.72177247899E+03  0.00000000000E+00 0. -1.
         21   -1    0    0  502  503 -0.00000000000E+00 -0.00000000000E+00 -0.14581942915E+04  0.14581942915E+04  0.00000000000E+00 0. -1.
    9000010    2    1    2  501    0 -0.86708180839E+02 -0.15373319677E+03 -0.14388885564E+03  0.10048347264E+04  0.97869127932E+03 0.  0.
   -9000010    2    1    2    0  503  0.86708180839E+02  0.15373319677E+03 -0.59253295689E+03  0.11751320441E+04  0.99934369045E+03 0.  0.
        -13    1    3    3    0    0  0.35596119523E+03  0.19878457955E+03  0.40390617049E+02  0.40970122612E+03  0.10566000000E+00 0.  1.
         13    1    4    4    0    0 -0.15257866817E+03 -0.23096415169E+02 -0.79849225828E+03  0.81326723288E+03  0.10566000000E+00 0. -1.
          4    1    3    3  501    0 -0.44266937606E+03 -0.35251777631E+03 -0.18427947269E+03  0.59513350030E+03  0.00000000000E+00 0.  1.
         -4    1    4    4    0  503  0.23928684901E+03  0.17682961193E+03  0.20595930139E+03  0.36186481122E+03  0.00000000000E+00 0. -1.
</event>
<event>
 8    1  0.7572579E-006  0.1101779E+04  0.7818608E-02  0.8701902E-01
         21   -1    0    0  501  502  0.00000000000E+00  0.00000000000E+00  0.20199512380E+04  0.20199512380E+04  0.00000000000E+00 0. -1.
         21   -1    0    0  502  503 -0.00000000000E+00 -0.00000000000E+00 -0.69976312377E+03  0.69976312377E+03  0.00000000000E+00 0. -1.
    9000010    2    1    2  501    0 -0.19198307691E+03  0.34910758402E+03  0.12520420409E+04  0.16158303480E+04  0.94051306973E+03 0.  0.
   -9000010    2    1    2    0  503  0.19198307691E+03 -0.34910758402E+03  0.68146073370E+02  0.11038840138E+04  0.10272207268E+04 0.  0.
        -13    1    3    3    0    0  0.26605149961E+03  0.43815060746E+03  0.88266449500E+03  0.10207134648E+04  0.10566000000E+00 0.  1.
         13    1    4    4    0    0  0.48420926552E+03 -0.45829729688E+03  0.28384836139E+03  0.72461364090E+03  0.10566000000E+00 0. -1.
          4    1    3    3  501    0 -0.45803457651E+03 -0.89043023443E+02  0.36937754590E+03  0.59511688324E+03  0.00000000000E+00 0.  1.
         -4    1    4    4    0  503 -0.29222618861E+03  0.10918971286E+03 -0.21570228802E+03  0.37927037290E+03  0.00000000000E+00 0. -1.
</event>
<event>
 8    1  0.7572579E-006  0.1009909E+04  0.7818608E-02  0.8790558E-01
         21   -1    0    0  503  502  0.00000000000E+00  0.00000000000E+00  0.11805068303E+04  0.11805068303E+04  0.00000000000E+00 0. -1.
         21   -1    0    0  501  503 -0.00000000000E+00 -0.00000000000E+00 -0.10863541762E+04  0.10863541762E+04  0.00000000000E+00 0. -1.
    9000010    2    1    2  501    0  0.12757932075E+03 -0.30217190929E+02 -0.55767161904E+03  0.10648659944E+04  0.89763711471E+03 0.  0.
   -9000010    2    1    2    0  502 -0.12757932075E+03  0.30217190929E+02  0.65182427311E+03  0.12019950121E+04  0.10013628535E+04 0.  0.
        -13    1    3    3    0    0 -0.29184594492E+03  0.16277364545E+03  0.85392834465E+01  0.33427869472E+03  0.10566000000E+00 0.  1.
         13    1    4    4    0    0 -0.24111117609E+03  0.36280384038E+03 -0.28202573687E+02  0.43652791682E+03  0.10566000000E+00 0. -1.
          4    1    3    3  501    0  0.41942526567E+03 -0.19299083638E+03 -0.56621090249E+03  0.73058729971E+03  0.00000000000E+00 0.  1.
         -4    1    4    4    0  502  0.11353185534E+03 -0.33258664946E+03  0.68002684679E+03  0.76546709526E+03  0.00000000000E+00 0. -1.
</event>
<event>
 8    1  0.7572579E-006  0.1022446E+04  0.7818608E-02  0.8756374E-01
         21   -1    0    0  503  502  0.00000000000E+00  0.00000000000E+00  0.13542509496E+04  0.13542509496E+04  0.00000000000E+00 0. -1.
         21   -1    0    0  501  503 -0.00000000000E+00 -0.00000000000E+00 -0.10428275537E+04  0.10428275537E+04  0.00000000000E+00 0. -1.
    9000010    2    1    2  501    0  0.19510048376E+02 -0.17188094159E+03  0.77542342058E+03  0.12742729513E+04  0.99627625349E+03 0.  0.
   -9000010    2    1    2    0  502 -0.19510048376E+02  0.17188094159E+03 -0.46400002464E+03  0.11228055520E+04  0.10077065965E+04 0.  0.
        -13    1    3    3    0    0  0.54244265984E+02 -0.14103400112E+03 -0.22595108233E+03  0.27182150878E+03  0.10566000000E+00 0.  1.
         13    1    4    4    0    0  0.48419126510E+03 -0.16383171182E+02 -0.23214788229E+03  0.53721712548E+03  0.10566000000E+00 0. -1.
          4    1    3    3  501    0 -0.34734217608E+02 -0.30846940471E+02  0.10013745029E+04  0.10024514426E+04  0.00000000000E+00 0.  1.
         -4    1    4    4    0  502 -0.50370131348E+03  0.18826411277E+03 -0.23185214235E+03  0.58558842652E+03  0.00000000000E+00 0. -1.
</event>
<event>
 8    1  0.7572579E-006  0.1023392E+04  0.7818608E-02  0.8753327E-01
         21   -1    0    0  501  502  0.00000000000E+00  0.00000000000E+00  0.20195528874E+04  0.20195528874E+04  0.00000000000E+00 0.  1.
         21   -1    0    0  502  503 -0.00000000000E+00 -0.00000000000E+00 -0.63180658292E+03  0.63180658292E+03  0.00000000000E+00 0.  1.
    9000010    2    1    2  501    0  0.34348243514E+02 -0.20442185485E+03  0.12567801230E+04  0.16196211008E+04  0.10003540054E+04 0.  0.
   -9000010    2    1    2    0  503 -0.34348243514E+02  0.20442185485E+03  0.13096618143E+03  0.10317383695E+04  0.10021795377E+04 0.  0.
        -13    1    3    3    0    0 -0.67457442950E+02  0.22962918159E+03  0.11314836459E+04  0.11565186206E+04  0.10566000000E+00 0.  1.
         13    1    4    4    0    0  0.46054526583E+03  0.21845107206E+03  0.16422478506E+03  0.53553020825E+03  0.10566000000E+00 0. -1.
          4    1    3    3  501    0  0.10180568646E+03 -0.43405103644E+03  0.12529647711E+03  0.46310248024E+03  0.00000000000E+00 0.  1.
         -4    1    4    4    0  503 -0.49489350934E+03 -0.14029217211E+02 -0.33258603629E+02  0.49620816120E+03  0.00000000000E+00 0. -1.
</event>
<event>
 8    1  0.7572579E-006  0.1056452E+04  0.7818608E-02  0.8731691E-01
         21   -1    0    0  503  502  0.00000000000E+00  0.00000000000E+00  0.10777303545E+04  0.10777303545E+04  0.00000000000E+00 0.  1.
         21   -1    0    0  501  503 -0.00000000000E+00 -0.00000000000E+00 -0.16546706074E+04  0.16546706074E+04  0.00000000000E+00 0.  1.
    9000010    2    1    2  501    0  0.12835033859E+03  0.22583691074E+03 -0.11514485723E+04  0.15626661352E+04  0.10240192946E+04 0.  0.
   -9000010    2    1    2    0  502 -0.12835033859E+03 -0.22583691074E+03  0.57450831938E+03  0.11697348267E+04  0.98526323189E+03 0.  0.
        -13    1    3    3    0    0  0.38653602453E+03 -0.27910647876E+03 -0.40739279731E+03  0.62711994643E+03  0.10566000000E+00 0.  1.
         13    1    4    4    0    0 -0.54662959751E+03 -0.67821022573E+01  0.31605558514E+03  0.63145946651E+03  0.10566000000E+00 0. -1.
          4    1    3    3  501    0 -0.25818568594E+03  0.50494338950E+03 -0.74405577498E+03  0.93554618876E+03  0.00000000000E+00 0.  1.
         -4    1    4    4    0  502  0.41827925892E+03 -0.21905480848E+03  0.25845273424E+03  0.53827536020E+03  0.00000000000E+00 0. -1.
</event>
<event>
 8    1  0.7572579E-006  0.1036255E+04  0.7818608E-02  0.8741748E-01
         21   -1    0    0  503  502  0.00000000000E+00  0.00000000000E+00  0.46404999982E+03  0.46404999982E+03  0.00000000000E+00 0. -1.
         21   -1    0    0  501  503 -0.00000000000E+00 -0.00000000000E+00 -0.23799615749E+04  0.23799615749E+04  0.00000000000E+00 0. -1.
    9000010    2    1    2  501    0  0.24589440426E+03 -0.20456007857E+01 -0.12022976187E+04  0.15858111344E+04  0.10043949161E+04 0.  0.
   -9000010    2    1    2    0  502 -0.24589440426E+03  0.20456007857E+01 -0.71361395640E+03  0.12582004404E+04  0.10066554658E+04 0.  0.
        -13    1    3    3    0    0 -0.10064833213E+03 -0.39816335853E+03 -0.20695417149E+03  0.45988497159E+03  0.10566000000E+00 0.  1.
         13    1    4    4    0    0  0.56261024288E+02  0.40801493454E+03 -0.37378306571E+02  0.41356817893E+03  0.10566000000E+00 0. -1.
          4    1    3    3  501    0  0.34654273639E+03  0.39611775774E+03 -0.99534344721E+03  0.11259261628E+04  0.00000000000E+00 0.  1.
         -4    1    4    4    0  502 -0.30215542855E+03 -0.40596933375E+03 -0.67623564983E+03  0.84463226143E+03  0.00000000000E+00 0. -1.
</event>
<event>
 8    1  0.7572579E-006  0.1050522E+04  0.7818608E-02  0.8733727E-01
         21   -1    0    0  503  502  0.00000000000E+00  0.00000000000E+00  0.13135426541E+04  0.13135426541E+04  0.00000000000E+00 0.  1.
         21   -1    0    0  501  503 -0.00000000000E+00 -0.00000000000E+00 -0.10363085816E+04  0.10363085816E+04  0.00000000000E+00 0.  1.
    9000010    2    1    2  501    0  0.20408134422E+03 -0.26727214961E+03  0.67207627819E+03  0.12275786018E+04  0.97065910751E+03 0.  0.
   -9000010    2    1    2    0  502 -0.20408134422E+03  0.26727214961E+03 -0.39484220563E+03  0.11222726338E+04  0.99524464344E+03 0.  0.
        -13    1    3    3    0    0 -0.95585122113E+02  0.29883131406E+03  0.21310728086E+02  0.31446912110E+03  0.10566000000E+00 0.  1.
         13    1    4    4    0    0  0.38723974104E+03  0.24109557339E+03 -0.13390189363E+03  0.47540658476E+03  0.10566000000E+00 0. -1.
          4    1    3    3  501    0  0.29966646634E+03 -0.56610346367E+03  0.65076555011E+03  0.91310948075E+03  0.00000000000E+00 0.  1.
         -4    1    4    4    0  502 -0.59132108527E+03  0.26176576220E+02 -0.26094031200E+03  0.64686604908E+03  0.00000000000E+00 0. -1.
</event>
<event>
 8    1  0.7572579E-006  0.1016576E+04  0.7818608E-02  0.8760938E-01
         21   -1    0    0  501  502  0.00000000000E+00  0.00000000000E+00  0.22437970471E+04  0.22437970471E+04  0.00000000000E+00 0. -1.
         21   -1    0    0  502  503 -0.00000000000E+00 -0.00000000000E+00 -0.50431179815E+03  0.50431179815E+03  0.00000000000E+00 0. -1.
    9000010    2    1    2  501    0 -0.14902113698E+03  0.26068981278E+01  0.44641809693E+03  0.11032837403E+04  0.99786361751E+03 0.  0.
   -9000010    2    1    2    0  503  0.14902113698E+03 -0.26068981278E+01  0.12930671521E+04  0.16448251050E+04  0.10055908070E+04 0.  0.
        -13    1    3    3    0    0 -0.60100956597E+02 -0.45711066168E+03  0.69216675342E+01  0.46109673893E+03  0.10566000000E+00 0.  1.
         13    1    4    4    0    0  0.44260730401E+03 -0.34635511598E+03  0.65896908435E+03  0.86608507505E+03  0.10566000000E+00 0. -1.
          4    1    3    3  501    0 -0.88920180385E+02  0.45971755981E+03  0.43949642939E+03  0.64218700137E+03  0.00000000000E+00 0.  1.
         -4    1    4    4    0  503 -0.29358616703E+03  0.34374821785E+03  0.63409806771E+03  0.77874002994E+03  0.00000000000E+00 0. -1.
</event>
<event>
 8    1  0.7572579E-006  0.1042648E+04  0.7818608E-02  0.8737754E-01
         21   -1    0    0  501  502  0.00000000000E+00  0.00000000000E+00  0.80820459181E+03  0.80820459181E+03  0.00000000000E+00 0. -1.
         21   -1    0    0  502  503 -0.00000000000E+00 -0.00000000000E+00 -0.13480417242E+04  0.13480417242E+04  0.00000000000E+00 0. -1.
    9000010    2    1    2  501    0  0.28371674587E+03 -0.77241823021E+02 -0.38773204606E+03  0.11124074313E+04  0.10003262780E+04 0.  0.
   -9000010    2    1    2    0  503 -0.28371674587E+03  0.77241823021E+02 -0.15210508637E+03  0.10438388848E+04  0.98995058912E+03 0.  0.
        -13    1    3    3    0    0  0.22000903526E+03 -0.16596052270E+03 -0.71559676146E+03  0.76682827730E+03  0.10566000000E+00 0.  1.
         13    1    4    4    0    0  0.16549190925E+03 -0.36442859552E+03 -0.23907611710E+02  0.40095805057E+03  0.10566000000E+00 0. -1.
          4    1    3    3  501    0  0.63707710605E+02  0.88718699680E+02  0.32786471540E+03  0.34557915399E+03  0.00000000000E+00 0.  1.
         -4    1    4    4    0  503 -0.44920865512E+03  0.44167041854E+03 -0.12819747466E+03  0.64288083418E+03  0.00000000000E+00 0. -1.
</event>
<event>
 8    1  0.7572579E-006  0.1143018E+04  0.7818608E-02  0.8657311E-01
         21   -1    0    0  503  502  0.00000000000E+00  0.00000000000E+00  0.10619966496E+04  0.10619966496E+04  0.00000000000E+00 0. -1.
         21   -1    0    0  501  503 -0.00000000000E+00 -0.00000000000E+00 -0.17198948648E+04  0.17198948648E+04  0.00000000000E+00 0. -1.
    9000010    2    1    2  501    0 -0.49647191278E+03 -0.23976180053E+03 -0.10935511681E+04  0.15586646210E+04  0.96416345201E+03 0.  0.
   -9000010    2    1    2    0  502  0.49647191278E+03  0.23976180053E+03  0.43565295287E+03  0.12232268934E+04  0.10012594351E+04 0.  0.
        -13    1    3    3    0    0 -0.66016565245E+03 -0.96473791046E+01 -0.31706761201E+03  0.73242313068E+03  0.10566000000E+00 0.  1.
         13    1    4    4    0    0  0.14943439839E+03  0.51112917215E+03  0.55259768348E+03  0.76742939805E+03  0.10566000000E+00 0. -1.
          4    1    3    3  501    0  0.16369373968E+03 -0.23011442143E+03 -0.77648355613E+03  0.82624149030E+03  0.00000000000E+00 0.  1.
         -4    1    4    4    0  502  0.34703751439E+03 -0.27136737161E+03 -0.11694473062E+03  0.45579749537E+03  0.00000000000E+00 0. -1.
</event>
<event>
 8    1  0.7572579E-006  0.1011843E+04  0.7818608E-02  0.8771543E-01
         21   -1    0    0  501  502  0.00000000000E+00  0.00000000000E+00  0.10481336287E+04  0.10481336287E+04  0.00000000000E+00 0. -1.
         21   -1    0    0  502  503 -0.00000000000E+00 -0.00000000000E+00 -0.12213374535E+04  0.12213374535E+04  0.00000000000E+00 0. -1.
    9000010    2    1    2  501    0 -0.55271661695E+02  0.69335677313E+02  0.45489491356E+03  0.10785323072E+04  0.97387892602E+03 0.  0.
   -9000010    2    1    2    0  503  0.55271661695E+02 -0.69335677313E+02 -0.62809873840E+03  0.11909387750E+04  0.10079507666E+04 0.  0.
        -13    1    3    3    0    0 -0.75334593098E+02 -0.44644725946E+03  0.28557552643E+03  0.53529790664E+03  0.10566000000E+00 0.  1.
         13    1    4    4    0    0 -0.32023817015E+03 -0.25516241576E+03 -0.65351418293E+03  0.77119462037E+03  0.10566000000E+00 0. -1.
          4    1    3    3  501    0  0.20062931403E+02  0.51578293678E+03  0.16931938714E+03  0.54323440055E+03  0.00000000000E+00 0.  1.
         -4    1    4    4    0  503  0.37550983184E+03  0.18582673845E+03  0.25415444526E+02  0.41974415464E+03  0.00000000000E+00 0. -1.
</event>
<event>
 8    1  0.7572579E-006  0.1134355E+04  0.7818608E-02  0.8663278E-01
         21   -1    0    0  503  502  0.00000000000E+00  0.00000000000E+00  0.14226294559E+04  0.14226294559E+04  0.00000000000E+00 0.  1.
         21   -1    0    0  501  503 -0.00000000000E+00 -0.00000000000E+00 -0.93336181769E+03  0.93336181769E+03  0.00000000000E+00 0.  1.
    9000010    2    1    2  501    0  0.25134408603E+03 -0.42135103786E+03 -0.26539222367E+02  0.11346657729E+04  0.10227666104E+04 0.  0.
   -9000010    2    1    2    0  502 -0.25134408603E+03  0.42135103786E+03  0.51580686059E+03  0.12213255007E+04  0.99240551915E+03 0.  0.
        -13    1    3    3    0    0  0.21546976450E+02 -0.71781802938E+03 -0.16140838691E+03  0.73605684157E+03  0.10566000000E+00 0.  1.
         13    1    4    4    0    0 -0.36817608754E+03  0.39972490902E+03 -0.13483537637E+03  0.55992340924E+03  0.10566000000E+00 0. -1.
          4    1    3    3  501    0  0.22979710958E+03  0.29646699151E+03  0.13486916455E+03  0.39860893138E+03  0.00000000000E+00 0.  1.
         -4    1    4    4    0  502  0.11683200151E+03  0.21626128842E+02  0.65064223696E+03  0.66140209143E+03  0.00000000000E+00 0. -1.
</event>
<event>
 8    1  0.7572579E-006  0.1114793E+04  0.7818608E-02  0.8690072E-01
         21   -1    0    0  501  502  0.00000000000E+00  0.00000000000E+00  0.81663971275E+03  0.81663971275E+03  0.00000000000E+00 0. -1.
         21   -1    0    0  502  503 -0.00000000000E+00 -0.00000000000E+00 -0.14906157117E+04  0.14906157117E+04  0.00000000000E+00 0. -1.
    9000010    2    1    2  501    0 -0.37871938644E+02  0.28863762290E+03 -0.72283164250E+02  0.10404489717E+04  0.99627468387E+03 0.  0.
   -9000010    2    1    2    0  503  0.37871938644E+02 -0.28863762290E+03 -0.60169283472E+03  0.12668064528E+04  0.10761126151E+04 0.  0.
        -13    1    3    3    0    0  0.17869462444E+03  0.23406591897E+02  0.41064135740E+03  0.44844840608E+03  0.10566000000E+00 0.  1.
         13    1    4    4    0    0 -0.27274093340E+03 -0.34362099999E+03  0.14026007165E+03  0.46058213952E+03  0.10566000000E+00 0. -1.
          4    1    3    3  501    0 -0.21656656308E+03  0.26523103100E+03 -0.48292452165E+03  0.59200056559E+03  0.00000000000E+00 0.  1.
         -4    1    4    4    0  503  0.31061287204E+03  0.54983377092E+02 -0.74195290637E+03  0.80622431327E+03  0.00000000000E+00 0. -1.
</event>
<event>
 8    1  0.7572579E-006  0.1136105E+04  0.7818608E-02  0.8660629E-01
         21   -1    0    0  501  502  0.00000000000E+00  0.00000000000E+00  0.39248475822E+03  0.39248475822E+03  0.00000000000E+00 0. -1.
         21   -1    0    0  502  503 -0.00000000000E+00 -0.00000000000E+00 -0.34476002081E+04  0.34476002081E+04  0.00000000000E+00 0. -1.
    9000010    2    1    2  501    0 -0.20617633114E+03  0.47689785641E+03 -0.10285463427E+04  0.15167861436E+04  0.98630237825E+03 0.  0.
   -9000010    2    1    2    0  503  0.20617633114E+03 -0.47689785641E+03 -0.20265691072E+04  0.23232988227E+04  0.10103439160E+04 0.  0.
        -13    1    3    3    0    0  0.20446498384E+03  0.63953007985E+03 -0.66089650918E+03  0.94211934470E+03  0.10566000000E+00 0.  1.
         13    1    4    4    0    0  0.12763059429E+03 -0.75329209332E+03 -0.10071340764E+04  0.12641430320E+04  0.10566000000E+00 0. -1.
          4    1    3    3  501    0 -0.41064131497E+03 -0.16263222344E+03 -0.36764983355E+03  0.57466679891E+03  0.00000000000E+00 0.  1.
         -4    1    4    4    0  503  0.78545736845E+02  0.27639423691E+03 -0.10194350308E+04  0.10591557907E+04  0.00000000000E+00 0. -1.
</event>
<event>
 8    1  0.7572579E-006  0.1015667E+04  0.7818608E-02  0.8762283E-01
         21   -1    0    0  503  502  0.00000000000E+00  0.00000000000E+00  0.61454552616E+03  0.61454552616E+03  0.00000000000E+00 0. -1.
         21   -1    0    0  501  503 -0.00000000000E+00 -0.00000000000E+00 -0.16783249554E+04  0.16783249554E+04  0.00000000000E+00 0. -1.
    9000010    2    1    2  501    0  0.91770209631E+02 -0.62880698922E+01 -0.64092719105E+03  0.11926960302E+04  0.10016360842E+04 0.  0.
   -9000010    2    1    2    0  502 -0.91770209631E+02  0.62880698922E+01 -0.42285223814E+03  0.11001744513E+04  0.10114932015E+04 0.  0.
        -13    1    3    3    0    0  0.30557406326E+03  0.16310391004E+03  0.13382126544E+03  0.37133076341E+03  0.10566000000E+00 0.  1.
         13    1    4    4    0    0  0.76826209821E+02  0.48540214163E+03 -0.30622690622E+03  0.57904441528E+03  0.10566000000E+00 0. -1.
          4    1    3    3  501    0 -0.21380385363E+03 -0.16939197993E+03 -0.77474845650E+03  0.82136526682E+03  0.00000000000E+00 0.  1.
         -4    1    4    4    0  502 -0.16859641945E+03 -0.47911407174E+03 -0.11662533192E+03  0.52113003601E+03  0.00000000000E+00 0. -1.
</event>
<event>
 8    1  0.7572579E-006  0.1000495E+04  0.7818608E-02  0.8774295E-01
         21   -1    0    0  503  502  0.00000000000E+00  0.00000000000E+00  0.10883938143E+04  0.10883938143E+04  0.00000000000E+00 0.  1.
         21   -1    0    0  501  503 -0.00000000000E+00 -0.00000000000E+00 -0.92518982532E+03  0.92518982532E+03  0.00000000000E+00 0.  1.
    9000010    2    1    2  501    0  0.48778226306E+02 -0.25130624845E+01  0.16368999271E+03  0.10130890196E+04  0.99858365549E+03 0.  0.
   -9000010    2    1    2    0  502 -0.48778226306E+02  0.25130624845E+01 -0.48600369720E+00  0.10004946201E+04  0.99930156497E+03 0.  0.
        -13    1    3    3    0    0 -0.13184226187E+03  0.97813343210E+01 -0.39987334071E+03  0.42116119989E+03  0.10566000000E+00 0.  1.
         13    1    4    4    0    0  0.33367405347E+03  0.18083036151E+03 -0.29937372519E+03  0.48338662797E+03  0.10566000000E+00 0. -1.
          4    1    3    3  501    0  0.18062048818E+03 -0.12294396806E+02  0.56356333342E+03  0.59192781968E+03  0.00000000000E+00 0.  1.
         -4    1    4    4    0  502 -0.38245227978E+03 -0.17831729902E+03  0.29888772149E+03  0.51710799210E+03  0.00000000000E+00 0. -1.
</event>
<event>
 8    1  0.7572579E-006  0.1161281E+04  0.7818608E-02  0.8662255E-01
         21   -1    0    0  501  502  0.00000000000E+00  0.00000000000E+00  0.11325915303E+04  0.11325915303E+04  0.00000000000E+00 0. -1.
         21   -1    0    0  502  503 -0.00000000000E+00 -0.00000000000E+00 -0.12738425513E+04  0.12738425513E+04  0.00000000000E+00 0. -1.
    9000010    2    1    2  501    0  0.80564927349E+02 -0.23869116566E+03  0.41793382722E+03  0.11175345597E+04  0.10053609442E+04 0.  0.
   -9000010    2    1    2    0  503 -0.80564927349E+02  0.23869116566E+03 -0.55918484822E+03  0.12888995219E+04  0.11336269682E+04 0.  0.
        -13    1    3    3    0    0 -0.44055692464E+03 -0.15742656661E+03  0.35312180681E+03  0.58614720790E+03  0.10566000000E+00 0.  1.
         13    1    4    4    0    0  0.21947497826E+03 -0.35493220087E+03 -0.45199057674E+03  0.61517609342E+03  0.10566000000E+00 0. -1.
          4    1    3    3  501    0  0.52112185199E+03 -0.81264599051E+02  0.64812020409E+02  0.53138735182E+03  0.00000000000E+00 0.  1.
         -4    1    4    4    0  503 -0.30003990561E+03  0.59362336653E+03 -0.10719427148E+03  0.67372342848E+03  0.00000000000E+00 0. -1.
</event>
<event>
 8    1  0.7572579E-006  0.1105430E+04  0.7818608E-02  0.8681808E-01
         21   -1    0    0  503  502  0.00000000000E+00  0.00000000000E+00  0.11419935129E+04  0.11419935129E+04  0.00000000000E+00 0. -1.
         21   -1    0    0  501  503 -0.00000000000E+00 -0.00000000000E+00 -0.20645097263E+04  0.20645097263E+04  0.00000000000E+00 0. -1.
    9000010    2    1    2  501    0 -0.29662563576E+03 -0.34529219155E+03 -0.15748463805E+04  0.19229492833E+04  0.10051762823E+04 0.  0.
   -9000010    2    1    2    0  502  0.29662563576E+03  0.34529219155E+03  0.65233016707E+03  0.12835539560E+04  0.10073542801E+04 0.  0.
        -13    1    3    3    0    0 -0.28656765907E+03 -0.25271644699E+02 -0.15767359994E+04  0.16027651426E+04  0.10566000000E+00 0.  1.
         13    1    4    4    0    0  0.34141093687E+03  0.30415140805E+03  0.91020878101E+03  0.10186017588E+04  0.10566000000E+00 0. -1.
          4    1    3    3  501    0 -0.10057976692E+02 -0.32002054685E+03  0.18896188782E+01  0.32018414071E+03  0.00000000000E+00 0.  1.
         -4    1    4    4    0  502 -0.44785301106E+02  0.41140783495E+02 -0.25787861394E+03  0.26495219717E+03  0.00000000000E+00 0. -1.
</event>
<event>
 8    1  0.7572579E-006  0.1048383E+04  0.7818608E-02  0.8733768E-01
         21   -1    0    0  503  502  0.00000000000E+00  0.00000000000E+00  0.11861563259E+04  0.11861563259E+04  0.00000000000E+00 0. -1.
         21   -1    0    0  501  503 -0.00000000000E+00 -0.00000000000E+00 -0.11648887098E+04  0.11648887098E+04  0.00000000000E+00 0. -1.
    9000010    2    1    2  501    0  0.28482731260E+03 -0.14355143563E+03 -0.53549094196E+03  0.11772240418E+04  0.99868527728E+03 0.  0.
   -9000010    2    1    2    0  502 -0.28482731260E+03  0.14355143563E+03  0.55675855811E+03  0.11738209939E+04  0.98292523676E+03 0.  0.
        -13    1    3    3    0    0 -0.13100724923E+03 -0.88170052187E+02  0.24479900936E+03  0.29131327398E+03  0.10566000000E+00 0.  1.
         13    1    4    4    0    0 -0.15783418675E+03  0.22982384901E+03 -0.23664924660E+03  0.36569592445E+03  0.10566000000E+00 0. -1.
          4    1    3    3  501    0  0.41583456183E+03 -0.55381383439E+02 -0.78028995132E+03  0.88591076784E+03  0.00000000000E+00 0.  1.
         -4    1    4    4    0  502 -0.12699312584E+03 -0.86272413386E+02  0.79340780471E+03  0.80812506946E+03  0.00000000000E+00 0. -1.
</event>
<event>
 8    1  0.7572579E-006  0.1007555E+04  0.7818608E-02  0.8768826E-01
         21   -1    0    0  501  502  0.00000000000E+00  0.00000000000E+00  0.57381676269E+03  0.57381676269E+03  0.00000000000E+00 0. -1.
         21   -1    0    0  502  503 -0.00000000000E+00 -0.00000000000E+00 -0.20852992651E+04  0.20852992651E+04  0.00000000000E+00 0. -1.
    9000010    2    1    2  501    0  0.66596758403E+02  0.11025188706E+03 -0.23188401945E+03  0.10338940116E+04  0.99928775732E+03 0.  0.
   -9000010    2    1    2    0  503 -0.66596758403E+02 -0.11025188706E+03 -0.12795984829E+04  0.16252220162E+04  0.99367183591E+03 0.  0.
        -13    1    3    3    0    0  0.39009139644E+03  0.40637133623E+03 -0.18466528703E+03  0.59279865037E+03  0.10566000000E+00 0.  1.
         13    1    4    4    0    0  0.42787490035E+03  0.13364511653E+03 -0.62972677809E+03  0.77297721424E+03  0.10566000000E+00 0. -1.
          4    1    3    3  501    0 -0.32349463803E+03 -0.29611944916E+03 -0.47218732421E+02  0.44109536123E+03  0.00000000000E+00 0.  1.
         -4    1    4    4    0  503 -0.49447165875E+03 -0.24389700359E+03 -0.64987170483E+03  0.85224480192E+03  0.00000000000E+00 0. -1.
</event>
<event>
 8    1  0.7572579E-006  0.1116088E+04  0.7818608E-02  0.8677473E-01
         21   -1    0    0  501  502  0.00000000000E+00  0.00000000000E+00  0.11623512215E+04  0.11623512215E+04  0.00000000000E+00 0. -1.
         21   -1    0    0  502  503 -0.00000000000E+00 -0.00000000000E+00 -0.11089011554E+04  0.11089011554E+04  0.00000000000E+00 0. -1.
    9000010    2    1    2  501    0 -0.48456749731E+03  0.16904188938E+03  0.28997230828E+03  0.11303777563E+04  0.96451496238E+03 0.  0.
   -9000010    2    1    2    0  503  0.48456749731E+03 -0.16904188938E+03 -0.23652224218E+03  0.11408746205E+04  0.99109601391E+03 0.  0.
        -13    1    3    3    0    0 -0.50766747211E+03 -0.31579937720E+03  0.23292367931E+03  0.64164550994E+03  0.10566000000E+00 0.  1.
         13    1    4    4    0    0  0.60684571236E+03 -0.39864835879E+03  0.80796606083E+02  0.73055481334E+03  0.10566000000E+00 0. -1.
          4    1    3    3  501    0  0.23099974798E+02  0.48484126658E+03  0.57048628965E+02  0.48873224641E+03  0.00000000000E+00 0.  1.
         -4    1    4    4    0  503 -0.12227821505E+03  0.22960646940E+03 -0.31731884826E+03  0.41031980714E+03  0.00000000000E+00 0. -1.
</event>
<event>
 8    1  0.7572579E-006  0.1015476E+04  0.7818608E-02  0.8760897E-01
         21   -1    0    0  503  502  0.00000000000E+00  0.00000000000E+00  0.74004322170E+03  0.74004322170E+03  0.00000000000E+00 0. -1.
         21   -1    0    0  501  503 -0.00000000000E+00 -0.00000000000E+00 -0.15153493502E+04  0.15153493502E+04  0.00000000000E+00 0. -1.
    9000010    2    1    2  501    0 -0.51816428877E+02 -0.11320519754E+03 -0.71357175708E+03  0.12411186666E+04  0.10078147315E+04 0.  0.
   -9000010    2    1    2    0  502  0.51816428877E+02  0.11320519754E+03 -0.61734371467E+02  0.10142739053E+04  0.10047089446E+04 0.  0.
        -13    1    3    3    0    0  0.36167991531E+03  0.22024767594E+03 -0.11086642240E+03  0.43773596457E+03  0.10566000000E+00 0.  1.
         13    1    4    4    0    0  0.33515926137E+03  0.19335222669E+03  0.34074367269E+03  0.51558032904E+03  0.10566000000E+00 0. -1.
          4    1    3    3  501    0 -0.41349634419E+03 -0.33345287348E+03 -0.60270533468E+03  0.80338270205E+03  0.00000000000E+00 0.  1.
         -4    1    4    4    0  502 -0.28334283250E+03 -0.80147029152E+02 -0.40247804416E+03  0.49869357629E+03  0.00000000000E+00 0. -1.
</event>
<event>
 8    1  0.7572579E-006  0.9950646E+03  0.7818608E-02  0.8779500E-01
         21   -1    0    0  501  502  0.00000000000E+00  0.00000000000E+00  0.11045212434E+04  0.11045212434E+04  0.00000000000E+00 0. -1.
         21   -1    0    0  502  503 -0.00000000000E+00 -0.00000000000E+00 -0.92059917777E+03  0.92059917777E+03  0.00000000000E+00 0. -1.
    9000010    2    1    2  501    0  0.70111480602E+02 -0.24131212941E+02  0.25929256564E+03  0.10282928137E+04  0.99229811093E+03 0.  0.
   -9000010    2    1    2    0  503 -0.70111480602E+02  0.24131212941E+02 -0.75370500050E+02  0.99682760743E+03  0.99120463654E+03 0.  0.
        -13    1    3    3    0    0  0.11040067600E+03 -0.50253819955E+03  0.11881515269E+03  0.52806249909E+03  0.10566000000E+00 0.  1.
         13    1    4    4    0    0 -0.32862635742E+03  0.33093538432E+03  0.20286335281E+03  0.50859321905E+03  0.10566000000E+00 0. -1.
          4    1    3    3  501    0 -0.40289195394E+02  0.47840698661E+03  0.14047741296E+03  0.50023031461E+03  0.00000000000E+00 0.  1.
         -4    1    4    4    0  503  0.25851487682E+03 -0.30680417138E+03 -0.27823385286E+03  0.48823438838E+03  0.00000000000E+00 0. -1.
</event>
<event>
 8    1  0.7572579E-006  0.1053356E+04  0.7818608E-02  0.8735973E-01
         21   -1    0    0  503  502  0.00000000000E+00  0.00000000000E+00  0.94927921413E+03  0.94927921413E+03  0.00000000000E+00 0. -1.
         21   -1    0    0  501  503 -0.00000000000E+00 -0.00000000000E+00 -0.18705334608E+04  0.18705334608E+04  0.00000000000E+00 0. -1.
    9000010    2    1    2  501    0  0.20432477686E+03  0.10688016243E+03 -0.13474631688E+04  0.16834969912E+04  0.98251368680E+03 0.  0.
   -9000010    2    1    2    0  502 -0.20432477686E+03 -0.10688016243E+03  0.42620892209E+03  0.11363156837E+04  0.10278070365E+04 0.  0.
        -13    1    3    3    0    0 -0.35336760587E+03 -0.12959431872E+02 -0.21064032243E+03  0.41158956298E+03  0.10566000000E+00 0.  1.
         13    1    4    4    0    0 -0.80316824347E+02 -0.36286983040E+03 -0.21886788289E+03  0.43131017541E+03  0.10566000000E+00 0. -1.
          4    1    3    3  501    0  0.55769238273E+03  0.11983959430E+03 -0.11368228463E+04  0.12719074283E+04  0.00000000000E+00 0.  1.
         -4    1    4    4    0  502 -0.12400795251E+03  0.25598966797E+03  0.64507680499E+03  0.70500550829E+03  0.00000000000E+00 0. -1.
</event>
<event>
 8    1  0.7572579E-006  0.1036353E+04  0.7818608E-02  0.8742378E-01
         21   -1    0    0  503  502  0.00000000000E+00  0.00000000000E+00  0.18573619111E+04  0.18573619111E+04  0.00000000000E+00 0.  1.
         21   -1    0    0  501  503 -0.00000000000E+00 -0.00000000000E+00 -0.68288545258E+03  0.68288545258E+03  0.00000000000E+00 0.  1.
    9000010    2    1    2  501    0  0.21731862044E+03  0.74347708506E+02  0.81715722111E+02  0.10342081782E+04  0.10050642427E+04 0.  0.
   -9000010    2    1    2    0  502 -0.21731862044E+03 -0.74347708506E+02  0.10927607364E+04  0.15060391855E+04  0.10105805444E+04 0.  0.
        -13    1    3    3    0    0  0.20433979615E+03  0.20932343757E+03 -0.42148908499E+03  0.51305371428E+03  0.10566000000E+00 0.  1.
         13    1    4    4    0    0 -0.81337302995E+02 -0.26106186082E+03  0.12145258162E+04  0.12449265124E+04  0.10566000000E+00 0. -1.
          4    1    3    3  501    0  0.12978824293E+02 -0.13497572906E+03  0.50320480711E+03  0.52115446387E+03  0.00000000000E+00 0.  1.
         -4    1    4    4    0  502 -0.13598131745E+03  0.18671415231E+03 -0.12176507982E+03  0.26111267306E+03  0.00000000000E+00 0. -1.
</event>
<event>
 8    1  0.7572579E-006  0.1031228E+04  0.7818608E-02  0.8748854E-01
         21   -1    0    0  503  502  0.00000000000E+00  0.00000000000E+00  0.18174456652E+04  0.18174456652E+04  0.00000000000E+00 0. -1.
         21   -1    0    0  501  503 -0.00000000000E+00 -0.00000000000E+00 -0.60502207057E+03  0.60502207057E+03  0.00000000000E+00 0. -1.
    9000010    2    1    2  501    0  0.20849354047E+03  0.11303283522E+03  0.34419192565E+03  0.10744108975E+04  0.98977003224E+03 0.  0.
   -9000010    2    1    2    0  502 -0.20849354047E+03 -0.11303283522E+03  0.86823166897E+03  0.13480568382E+04  0.10035860849E+04 0.  0.
        -13    1    3    3    0    0 -0.15514773010E+03 -0.13520327689E+03 -0.25699578715E+03  0.32923789273E+03  0.10566000000E+00 0.  1.
         13    1    4    4    0    0  0.25657755505E+03 -0.40001032282E+03  0.49552813524E+03  0.68657734021E+03  0.10566000000E+00 0. -1.
          4    1    3    3  501    0  0.36364127057E+03  0.24823611211E+03  0.60118771279E+03  0.74517300476E+03  0.00000000000E+00 0.  1.
         -4    1    4    4    0  502 -0.46507109552E+03  0.28697748760E+03  0.37270353372E+03  0.66147949804E+03  0.00000000000E+00 0. -1.
</event>
<event>
 8    1  0.7572579E-006  0.1034163E+04  0.7818608E-02  0.8748054E-01
         21   -1    0    0  503  502  0.00000000000E+00  0.00000000000E+00  0.88754711862E+03  0.88754711862E+03  0.00000000000E+00 0. -1.
         21   -1    0    0  501  503 -0.00000000000E+00 -0.00000000000E+00 -0.13337675928E+04  0.13337675928E+04  0.00000000000E+00 0. -1.
    9000010    2    1    2  501    0 -0.11669750684E+03 -0.15019152105E+03 -0.59810512423E+03  0.11760573887E+04  0.99458807589E+03 0.  0.
   -9000010    2    1    2    0  502  0.11669750684E+03  0.15019152105E+03  0.15188465002E+03  0.10452573228E+04  0.10165225638E+04 0.  0.
        -13    1    3    3    0    0 -0.22015343616E+03  0.15335605412E+03  0.18762831845E+03  0.32739885742E+03  0.10566000000E+00 0.  1.
         13    1    4    4    0    0  0.46697274066E+03  0.25347694186E+03  0.34365443507E+03  0.63278154405E+03  0.10566000000E+00 0. -1.
          4    1    3    3  501    0  0.10345592932E+03 -0.30354757517E+03 -0.78573344268E+03  0.84865853124E+03  0.00000000000E+00 0.  1.
         -4    1    4    4    0  502 -0.35027523382E+03 -0.10328542081E+03 -0.19176978505E+03  0.41247577873E+03  0.00000000000E+00 0. -1.
</event>
<event>
 8    1  0.7572579E-006  0.1202718E+04  0.7818608E-02  0.8606060E-01
         21   -1    0    0  501  502  0.00000000000E+00  0.00000000000E+00  0.11875612466E+04  0.11875612466E+04  0.00000000000E+00 0.  1.
         21   -1    0    0  502  503 -0.00000000000E+00 -0.00000000000E+00 -0.15536327052E+04  0.15536327052E+04  0.00000000000E+00 0.  1.
    9000010    2    1    2  501    0  0.47228193972E+03 -0.44604480084E+03 -0.82732659149E+03  0.14530613035E+04  0.10024528257E+04 0.  0.
   -9000010    2    1    2    0  503 -0.47228193972E+03  0.44604480084E+03  0.46125513284E+03  0.12881326484E+04  0.10121873479E+04 0.  0.
        -13    1    3    3    0    0  0.45580397531E+03 -0.75546938101E+03 -0.65150997465E+03  0.10967937399E+04  0.10566000000E+00 0.  1.
         13    1    4    4    0    0 -0.68497718911E+03  0.11544735925E+03  0.54894839884E+03  0.88536218471E+03  0.10566000000E+00 0. -1.
          4    1    3    3  501    0  0.16477964401E+02  0.30942458017E+03 -0.17581661683E+03  0.35626756360E+03  0.00000000000E+00 0.  1.
         -4    1    4    4    0  503  0.21269524940E+03  0.33059744159E+03 -0.87693266001E+02  0.40277046367E+03  0.00000000000E+00 0. -1.
</event>
<event>
 8    1  0.7572579E-006  0.9917768E+03  0.7818608E-02  0.8786445E-01
         21   -1    0    0  503  502  0.00000000000E+00  0.00000000000E+00  0.10365545304E+04  0.10365545304E+04  0.00000000000E+00 0.  1.
         21   -1    0    0  501  503 -0.00000000000E+00 -0.00000000000E+00 -0.98845958153E+03  0.98845958153E+03  0.00000000000E+00 0.  1.
    9000010    2    1    2  501    0  0.32727565325E+02 -0.15042384836E+03 -0.21669780035E+03  0.99849742984E+03  0.96246597500E+03 0.  0.
   -9000010    2    1    2    0  502 -0.32727565325E+02  0.15042384836E+03  0.26479274917E+03  0.10265166820E+04  0.97975653650E+03 0.  0.
        -13    1    3    3    0    0  0.89366310721E+00  0.15215585469E+03 -0.53616156693E+03  0.55733422626E+03  0.10566000000E+00 0.  1.
         13    1    4    4    0    0  0.44551670483E+03  0.12529930732E+03  0.29135730178E+03  0.54687671295E+03  0.10566000000E+00 0. -1.
          4    1    3    3  501    0  0.31833902218E+02 -0.30257970305E+03  0.31946376658E+03  0.44116320357E+03  0.00000000000E+00 0.  1.
         -4    1    4    4    0  502 -0.47824427016E+03  0.25124541034E+02 -0.26564552607E+02  0.47963996910E+03  0.00000000000E+00 0. -1.
</event>
<event>
 8    1  0.7572579E-006  0.1023943E+04  0.7818608E-02  0.8757437E-01
         21   -1    0    0  501  502  0.00000000000E+00  0.00000000000E+00  0.13400233758E+04  0.13400233758E+04  0.00000000000E+00 0. -1.
         21   -1    0    0  502  503 -0.00000000000E+00 -0.00000000000E+00 -0.10139562182E+04  0.10139562182E+04  0.00000000000E+00 0. -1.
    9000010    2    1    2  501    0 -0.62210745401E+02  0.86088621239E+02  0.74385752841E+03  0.12480826166E+04  0.99654642024E+03 0.  0.
   -9000010    2    1    2    0  503  0.62210745401E+02 -0.86088621239E+02 -0.41779037078E+03  0.11058969774E+04  0.10184193160E+04 0.  0.
        -13    1    3    3    0    0 -0.31657308699E+03  0.26925931447E+03 -0.26456780984E+02  0.41643615388E+03  0.10566000000E+00 0.  1.
         13    1    4    4    0    0  0.11121099500E+03  0.23832628429E+03 -0.65182729241E+03  0.70288415367E+03  0.10566000000E+00 0. -1.
          4    1    3    3  501    0  0.25436234159E+03 -0.18317069323E+03  0.77031430940E+03  0.83164646271E+03  0.00000000000E+00 0.  1.
         -4    1    4    4    0  503 -0.49000249599E+02 -0.32441490553E+03  0.23403692162E+03  0.40301282371E+03  0.00000000000E+00 0. -1.
</event>
<event>
 8    1  0.7572579E-006  0.1061997E+04  0.7818608E-02  0.8724328E-01
         21   -1    0    0  501  502  0.00000000000E+00  0.00000000000E+00  0.18963793787E+04  0.18963793787E+04  0.00000000000E+00 0. -1.
         21   -1    0    0  502  503 -0.00000000000E+00 -0.00000000000E+00 -0.78204218128E+03  0.78204218128E+03  0.00000000000E+00 0. -1.
    9000010    2    1    2  501    0 -0.78481334270E+02  0.31332172381E+03 -0.11842014170E+03  0.10685791953E+04  0.10116858921E+04 0.  0.
   -9000010    2    1    2    0  503  0.78481334270E+02 -0.31332172381E+03  0.12327573391E+04  0.16098423647E+04  0.98365235706E+03 0.  0.
        -13    1    3    3    0    0  0.27561026566E+03  0.38722276310E+03  0.26275980746E+03  0.54308858797E+03  0.10566000000E+00 0.  1.
         13    1    4    4    0    0 -0.19965809929E+03 -0.37563995446E+03  0.93617940912E+02  0.43558358787E+03  0.10566000000E+00 0. -1.
          4    1    3    3  501    0 -0.35409159993E+03 -0.73901039292E+02 -0.38117994916E+03  0.52549060733E+03  0.00000000000E+00 0.  1.
         -4    1    4    4    0  503  0.27813943356E+03  0.62318230653E+02  0.11391393982E+04  0.11742587768E+04  0.00000000000E+00 0. -1.
</event>
<event>
 8    1  0.7572579E-006  0.1090373E+04  0.7818608E-02  0.8694915E-01
         21   -1    0    0  501  502  0.00000000000E+00  0.00000000000E+00  0.17260118413E+04  0.17260118413E+04  0.00000000000E+00 0.  1.
         21   -1    0    0  502  503 -0.00000000000E+00 -0.00000000000E+00 -0.75496555108E+03  0.75496555108E+03  0.00000000000E+00 0.  1.
    9000010    2    1    2  501    0  0.43660597660E+02 -0.41467309248E+03  0.86080658931E+03  0.13892088451E+04  0.10074984912E+04 0.  0.
   -9000010    2    1    2    0  503 -0.43660597660E+02  0.41467309248E+03  0.11023970093E+03  0.10917685473E+04  0.10029684680E+04 0.  0.
        -13    1    3    3    0    0 -0.51912341713E+01  0.21313593900E+03  0.71051933547E+03  0.74181642921E+03  0.10566000000E+00 0.  1.
         13    1    4    4    0    0  0.21377094223E+03  0.37655562263E+03  0.47561054942E+03  0.64319325134E+03  0.10566000000E+00 0. -1.
          4    1    3    3  501    0  0.48851831831E+02 -0.62780903148E+03  0.15028725384E+03  0.64739241588E+03  0.00000000000E+00 0.  1.
         -4    1    4    4    0  503 -0.25743153989E+03  0.38117469846E+02 -0.36537084849E+03  0.44857529598E+03  0.00000000000E+00 0. -1.
</event>
<event>
 8    1  0.7572579E-006  0.1057473E+04  0.7818608E-02  0.8723337E-01
         21   -1    0    0  501  502  0.00000000000E+00  0.00000000000E+00  0.75298629167E+03  0.75298629167E+03  0.00000000000E+00 0.  1.
         21   -1    0    0  502  503 -0.00000000000E+00 -0.00000000000E+00 -0.26593218713E+04  0.26593218713E+04  0.00000000000E+00 0.  1.
    9000010    2    1    2  501    0  0.83344372455E+02 -0.38556393543E+03  0.18239807607E+03  0.10730884895E+04  0.98114423779E+03 0.  0.
   -9000010    2    1    2    0  503 -0.83344372455E+02  0.38556393543E+03 -0.20887336557E+04  0.23392196735E+04  0.97649094401E+03 0.  0.
        -13    1    3    3    0    0 -0.28506487227E+02  0.17927673851E+03  0.41430879355E+03  0.45233235166E+03  0.10566000000E+00 0.  1.
         13    1    4    4    0    0 -0.24081469617E+03  0.52235842696E+03 -0.20472839612E+04  0.21265515919E+04  0.10566000000E+00 0. -1.
          4    1    3    3  501    0  0.11185085968E+03 -0.56484067394E+03 -0.23191071748E+03  0.62075613781E+03  0.00000000000E+00 0.  1.
         -4    1    4    4    0  503  0.15747032372E+03 -0.13679449153E+03 -0.41449694532E+02  0.21266808162E+03  0.00000000000E+00 0. -1.
</event>
<event>
 8    1  0.7572579E-006  0.1091128E+04  0.7818608E-02  0.8697340E-01
         21   -1    0    0  503  502  0.00000000000E+00  0.00000000000E+00  0.18694452167E+04  0.18694452167E+04  0.00000000000E+00 0.  1.
         21   -1    0    0  501  503 -0.00000000000E+00 -0.00000000000E+00 -0.10031856318E+04  0.10031856318E+04  0.00000000000E+00 0.  1.
    9000010    2    1    2  501    0  0.17189707937E+03 -0.39472012406E+03 -0.44978126885E+03  0.11630918916E+04  0.98240876231E+03 0.  0.
   -9000010    2    1    2    0  502 -0.17189707937E+03  0.39472012406E+03  0.13160408538E+04  0.17095389568E+04  0.10026002862E+04 0.  0.
        -13    1    3    3    0    0  0.21866250334E+03 -0.28882766121E+03  0.25874067949E+03  0.44517576151E+03  0.10566000000E+00 0.  1.
         13    1    4    4    0    0 -0.53090803415E+03  0.75450709066E+02  0.37946353671E+03  0.65692369198E+03  0.10566000000E+00 0. -1.
          4    1    3    3  501    0 -0.46765423972E+02 -0.10589246285E+03 -0.70852194834E+03  0.71791613009E+03  0.00000000000E+00 0.  1.
         -4    1    4    4    0  502  0.35901095478E+03  0.31926941499E+03  0.93657731706E+03  0.10526152649E+04  0.00000000000E+00 0. -1.
</event>
<event>
 8    1  0.7572579E-006  0.1009900E+04  0.7818608E-02  0.8768824E-01
         21   -1    0    0  503  502  0.00000000000E+00  0.00000000000E+00  0.98905865389E+03  0.98905865389E+03  0.00000000000E+00 0. -1.
         21   -1    0    0  501  503 -0.00000000000E+00 -0.00000000000E+00 -0.10539608371E+04  0.10539608371E+04  0.00000000000E+00 0. -1.
    9000010    2    1    2  501    0  0.88325627212E+02  0.18889611638E+02  0.16105078666E+03  0.10226611011E+04  0.10058529405E+04 0.  0.
   -9000010    2    1    2    0  502 -0.88325627212E+02 -0.18889611638E+02 -0.22595296983E+03  0.10203583899E+04  0.99091789033E+03 0.  0.
        -13    1    3    3    0    0  0.91930144263E+01 -0.29374954785E+03  0.48401229700E+03  0.56625190789E+03  0.10566000000E+00 0.  1.
         13    1    4    4    0    0  0.20328167898E+02  0.38820860506E+03  0.18612464023E+03  0.43100063610E+03  0.10566000000E+00 0. -1.
          4    1    3    3  501    0  0.79132612786E+02  0.31263915949E+03 -0.32296151034E+03  0.45640919317E+03  0.00000000000E+00 0.  1.
         -4    1    4    4    0  502 -0.10865379511E+03 -0.40709821670E+03 -0.41207761006E+03  0.58935775378E+03  0.00000000000E+00 0. -1.
</event>
<event>
 8    1  0.7572579E-006  0.1005278E+04  0.7818608E-02  0.8770997E-01
         21   -1    0    0  503  502  0.00000000000E+00  0.00000000000E+00  0.89186479676E+03  0.89186479676E+03  0.00000000000E+00 0.  1.
         21   -1    0    0  501  503 -0.00000000000E+00 -0.00000000000E+00 -0.19518565224E+04  0.19518565224E+04  0.00000000000E+00 0.  1.
    9000010    2    1    2  501    0 -0.39142297213E+02  0.12862084284E+03 -0.14536415556E+04  0.17641178870E+04  0.99043561449E+03 0.  0.
   -9000010    2    1    2    0  502  0.39142297213E+02 -0.12862084284E+03  0.39364982993E+03  0.10796034322E+04  0.99624692798E+03 0.  0.
        -13    1    3    3    0    0  0.46674852782E+03  0.25254013038E+02 -0.53605765298E+03  0.71123116627E+03  0.10566000000E+00 0.  1.
         13    1    4    4    0    0 -0.11662527092E+03 -0.32273781342E+03 -0.22663566824E+03  0.41124796329E+03  0.10566000000E+00 0. -1.
          4    1    3    3  501    0 -0.50589082503E+03  0.10336682981E+03 -0.91758390261E+03  0.10528867207E+04  0.00000000000E+00 0.  1.
         -4    1    4    4    0  502  0.15576756813E+03  0.19411697057E+03  0.62028549817E+03  0.66835546889E+03  0.00000000000E+00 0. -1.
</event>
<event>
 8    1  0.7572579E-006  0.1044858E+04  0.7818608E-02  0.8736598E-01
         21   -1    0    0  501  502  0.00000000000E+00  0.00000000000E+00  0.71177395786E+03  0.71177395786E+03  0.00000000000E+00 0.  1.
         21   -1    0    0  502  503 -0.00000000000E+00 -0.00000000000E+00 -0.15629344311E+04  0.15629344311E+04  0.00000000000E+00 0.  1.
    9000010    2    1    2  501    0  0.23550683718E+03  0.12696732495E+03 -0.22147031511E+03  0.10547747073E+04  0.99595000410E+03 0.  0.
   -9000010    2    1    2    0  503 -0.23550683718E+03 -0.12696732495E+03 -0.62969015813E+03  0.12199336817E+04  0.10100219406E+04 0.  0.
        -13    1    3    3    0    0  0.29301727119E+03  0.48313862204E+03 -0.35812039610E+03  0.66897853373E+03  0.10566000000E+00 0.  1.
         13    1    4    4    0    0 -0.55910108877E+03 -0.12620043533E+02 -0.70290279296E+02  0.56364352874E+03  0.10566000000E+00 0. -1.
          4    1    3    3  501    0 -0.57510434012E+02 -0.35617129708E+03  0.13665008099E+03  0.38579617354E+03  0.00000000000E+00 0.  1.
         -4    1    4    4    0  503  0.32359425159E+03 -0.11434728142E+03 -0.55939987884E+03  0.65629015296E+03  0.00000000000E+00 0. -1.
</event>
<event>
 8    1  0.7572579E-006  0.1081174E+04  0.7818608E-02  0.8710623E-01
         21   -1    0    0  503  502  0.00000000000E+00  0.00000000000E+00  0.57155134658E+03  0.57155134658E+03  0.00000000000E+00 0.  1.
         21   -1    0    0  501  503 -0.00000000000E+00 -0.00000000000E+00 -0.20551418628E+04  0.20551418628E+04  0.00000000000E+00 0.  1.
    9000010    2    1    2  501    0 -0.21759776170E+03 -0.19270607630E+03 -0.99589991937E+03  0.14406162861E+04  0.99953700111E+03 0.  0.
   -9000010    2    1    2    0  502  0.21759776170E+03  0.19270607630E+03 -0.48769059682E+03  0.11860769233E+04  0.10413702185E+04 0.  0.
        -13    1    3    3    0    0 -0.17051838677E+03  0.11248756325E+03 -0.10968657363E+04  0.11157259640E+04  0.10566000000E+00 0.  1.
         13    1    4    4    0    0 -0.18147074896E+03  0.25178881747E+03 -0.67376424121E+03  0.74181365937E+03  0.10566000000E+00 0. -1.
          4    1    3    3  501    0 -0.47079374926E+02 -0.30519363955E+03  0.10096581696E+03  0.32489032205E+03  0.00000000000E+00 0.  1.
         -4    1    4    4    0  502  0.39906851066E+03 -0.59082741178E+02  0.18607364439E+03  0.44426326390E+03  0.00000000000E+00 0. -1.
</event>
<event>
 8    1  0.7572579E-006  0.1014954E+04  0.7818608E-02  0.8761666E-01
         21   -1    0    0  501  502  0.00000000000E+00  0.00000000000E+00  0.16727225308E+04  0.16727225308E+04  0.00000000000E+00 0. -1.
         21   -1    0    0  502  503 -0.00000000000E+00 -0.00000000000E+00 -0.62171363447E+03  0.62171363447E+03  0.00000000000E+00 0. -1.
    9000010    2    1    2  501    0  0.98592942528E+02  0.19484352133E+03  0.66068856241E+03  0.12110492670E+04  0.99118433423E+03 0.  0.
   -9000010    2    1    2    0  503 -0.98592942528E+02 -0.19484352133E+03  0.39032033397E+03  0.10833868983E+04  0.98675865452E+03 0.  0.
        -13    1    3    3    0    0  0.71777886188E+02  0.38595417964E+03 -0.11710990503E+03  0.40966746851E+03  0.10566000000E+00 0.  1.
         13    1    4    4    0    0  0.34773688468E+03  0.15698164450E+03  0.34309221836E+03  0.51310472531E+03  0.10566000000E+00 0. -1.
          4    1    3    3  501    0  0.26815056340E+02 -0.19111065831E+03  0.77779846744E+03  0.80138179847E+03  0.00000000000E+00 0.  1.
         -4    1    4    4    0  503 -0.44632982721E+03 -0.35182516583E+03  0.47228115613E+02  0.57028217303E+03  0.00000000000E+00 0. -1.
</event>
<event>
 8    1  0.7572579E-006  0.1023259E+04  0.7818608E-02  0.8781699E-01
         21   -1    0    0  501  502  0.00000000000E+00  0.00000000000E+00  0.90391633179E+03  0.90391633179E+03  0.00000000000E+00 0. -1.
         21   -1    0    0  502  503 -0.00000000000E+00 -0.00000000000E+00 -0.10676328735E+04  0.10676328735E+04  0.00000000000E+00 0. -1.
    9000010    2    1    2  501    0  0.10019842804E+02 -0.21636847852E+03  0.11028011774E+03  0.91224124169E+03  0.87926484231E+03 0.  0.
   -9000010    2    1    2    0  503 -0.10019842804E+02  0.21636847852E+03 -0.27399665944E+03  0.10593079636E+04  0.10000717357E+04 0.  0.
        -13    1    3    3    0    0 -0.55338579170E+02  0.84202518781E+02 -0.34688862407E+03  0.36122590049E+03  0.10566000000E+00 0.  1.
         13    1    4    4    0    0  0.35936891044E+03 -0.15796465673E+03  0.11053421151E+03  0.40781940813E+03  0.10566000000E+00 0. -1.
          4    1    3    3  501    0  0.65358421974E+02 -0.30057099730E+03  0.45716874181E+03  0.55101534119E+03  0.00000000000E+00 0.  1.
         -4    1    4    4    0  503 -0.36938875324E+03  0.37433313525E+03 -0.38453087095E+03  0.65148855545E+03  0.00000000000E+00 0. -1.
</event>
<event>
 8    1  0.7572579E-006  0.1071697E+04  0.7818608E-02  0.8725484E-01
         21   -1    0    0  503  502  0.00000000000E+00  0.00000000000E+00  0.21089238421E+04  0.21089238421E+04  0.00000000000E+00 0. -1.
         21   -1    0    0  501  503 -0.00000000000E+00 -0.00000000000E+00 -0.54577325091E+03  0.54577325091E+03  0.00000000000E+00 0. -1.
    9000010    2    1    2  501    0 -0.86787851324E+02 -0.22826090527E+02  0.10968703124E+04  0.14859581340E+04  0.99844575835E+03 0.  0.
   -9000010    2    1    2    0  502  0.86787851324E+02  0.22826090527E+02  0.46628027887E+03  0.11687389590E+04  0.10679327200E+04 0.  0.
        -13    1    3    3    0    0  0.41812469304E+03 -0.58028017449E+02  0.22634154977E+03  0.47898436097E+03  0.10566000000E+00 0.  1.
         13    1    4    4    0    0 -0.41281921394E+03 -0.21609435852E+02 -0.86476915100E+02  0.42233273509E+03  0.10566000000E+00 0. -1.
          4    1    3    3  501    0 -0.50491254436E+03  0.35201926923E+02  0.87052876258E+03  0.10069737730E+04  0.00000000000E+00 0.  1.
         -4    1    4    4    0  502  0.49960706527E+03  0.44435526379E+02  0.55275719397E+03  0.74640622395E+03  0.00000000000E+00 0. -1.
</event>
<event>
 8    1  0.7572579E-006  0.1005521E+04  0.7818608E-02  0.8777456E-01
         21   -1    0    0  503  502  0.00000000000E+00  0.00000000000E+00  0.19476741649E+04  0.19476741649E+04  0.00000000000E+00 0. -1.
         21   -1    0    0  501  503 -0.00000000000E+00 -0.00000000000E+00 -0.62125140837E+03  0.62125140837E+03  0.00000000000E+00 0. -1.
    9000010    2    1    2  501    0 -0.64793850673E+02 -0.46291248130E+02  0.10922328899E+03  0.10114360144E+04  0.10023631885E+04 0.  0.
   -9000010    2    1    2    0  502  0.64793850673E+02  0.46291248130E+02  0.12171994676E+04  0.15574895589E+04  0.96843072001E+03 0.  0.
        -13    1    3    3    0    0  0.15407523160E+03 -0.27877852227E+02 -0.41473266189E+03  0.44330524883E+03  0.10566000000E+00 0.  1.
         13    1    4    4    0    0 -0.34223948836E+03 -0.26954209341E+03  0.39986775191E+03  0.59133327126E+03  0.10566000000E+00 0. -1.
          4    1    3    3  501    0 -0.21886908228E+03 -0.18413395902E+02  0.52395595089E+03  0.56813076558E+03  0.00000000000E+00 0.  1.
         -4    1    4    4    0  502  0.40703333903E+03  0.31583334154E+03  0.81733171565E+03  0.96615628763E+03  0.00000000000E+00 0. -1.
</event>
<event>
 8    1  0.7572579E-006  0.1047974E+04  0.7818608E-02  0.8733959E-01
         21   -1    0    0  503  502  0.00000000000E+00  0.00000000000E+00  0.70744469384E+03  0.70744469384E+03  0.00000000000E+00 0. -1.
         21   -1    0    0  501  503 -0.00000000000E+00 -0.00000000000E+00 -0.16368371482E+04  0.16368371482E+04  0.00000000000E+00 0. -1.
    9000010    2    1    2  501    0 -0.25445532710E+03 -0.18803450750E+03 -0.75920009825E+03  0.12825779645E+04  0.98413259082E+03 0.  0.
   -9000010    2    1    2    0  502  0.25445532710E+03  0.18803450750E+03 -0.17019235610E+03  0.10617038776E+04  0.99907216758E+03 0.  0.
        -13    1    3    3    0    0 -0.32771707005E+03 -0.52921571831E+03 -0.26251058666E+03  0.67555871231E+03  0.10566000000E+00 0.  1.
         13    1    4    4    0    0 -0.29601123161E+03  0.32574658514E+03 -0.22003808412E+03  0.49208765133E+03  0.10566000000E+00 0. -1.
          4    1    3    3  501    0  0.73261742953E+02  0.34118121081E+03 -0.49668951159E+03  0.60701925218E+03  0.00000000000E+00 0.  1.
         -4    1    4    4    0  502  0.55046655870E+03 -0.13771207764E+03  0.49845728014E+02  0.56961622622E+03  0.00000000000E+00 0. -1.
</event>
<event>
 8    1  0.7572579E-006  0.1287255E+04  0.7818608E-02  0.8544943E-01
         21   -1    0    0  501  502  0.00000000000E+00  0.00000000000E+00  0.22981396146E+04  0.22981396146E+04  0.00000000000E+00 0. -1.
         21   -1    0    0  502  503 -0.00000000000E+00 -0.00000000000E+00 -0.96259358270E+03  0.96259358270E+03  0.00000000000E+00 0. -1.
    9000010    2    1    2  501    0 -0.73808490531E+03 -0.29648210517E+03  0.14932697482E+04  0.19715169572E+04  0.10121035548E+04 0.  0.
   -9000010    2    1    2    0  503  0.73808490531E+03  0.29648210517E+03 -0.15772371629E+03  0.12892162401E+04  0.10022628282E+04 0.  0.
        -13    1    3    3    0    0 -0.73302024256E+03 -0.11316529387E+03  0.36172698771E+03  0.82520996392E+03  0.10566000000E+00 0.  1.
         13    1    4    4    0    0 -0.23134927464E+03 -0.13727853420E+02 -0.14088771676E+03  0.27122002273E+03  0.10566000000E+00 0. -1.
          4    1    3    3  501    0 -0.50646627502E+01 -0.18331681130E+03  0.11315427605E+04  0.11463069933E+04  0.00000000000E+00 0.  1.
         -4    1    4    4    0  503  0.96943417995E+03  0.31020995859E+03 -0.16835999533E+02  0.10179962174E+04  0.00000000000E+00 0. -1.
</event>
<event>
 8    1  0.7572579E-006  0.1085479E+04  0.7818608E-02  0.8698618E-01
         21   -1    0    0  503  502  0.00000000000E+00  0.00000000000E+00  0.20135528944E+04  0.20135528944E+04  0.00000000000E+00 0. -1.
         21   -1    0    0  501  503 -0.00000000000E+00 -0.00000000000E+00 -0.75536870293E+03  0.75536870293E+03  0.00000000000E+00 0. -1.
    9000010    2    1    2  501    0 -0.27150133007E+03  0.31601198884E+03 -0.30683931634E+02  0.10838559786E+04  0.10001128583E+04 0.  0.
   -9000010    2    1    2    0  502  0.27150133007E+03 -0.31601198884E+03  0.12888681231E+04  0.16850656187E+04  0.10023415344E+04 0.  0.
        -13    1    3    3    0    0  0.70790639451E+01  0.64881569277E+03 -0.35404922233E+02  0.64981954111E+03  0.10566000000E+00 0.  1.
         13    1    4    4    0    0  0.62473536389E+03 -0.10682926085E+03  0.99683541314E+03  0.11812652615E+04  0.10566000000E+00 0. -1.
          4    1    3    3  501    0 -0.27858039401E+03 -0.33280370393E+03  0.47209905991E+01  0.43403643744E+03  0.00000000000E+00 0.  1.
         -4    1    4    4    0  502 -0.35323403382E+03 -0.20918272798E+03  0.29203270993E+03  0.50380035729E+03  0.00000000000E+00 0. -1.
</event>
<event>
 8    1  0.7572579E-006  0.1048636E+04  0.7818608E-02  0.8736853E-01
         21   -1    0    0  503  502  0.00000000000E+00  0.00000000000E+00  0.11985205892E+04  0.11985205892E+04  0.00000000000E+00 0.  1.
         21   -1    0    0  501  503 -0.00000000000E+00 -0.00000000000E+00 -0.10824483490E+04  0.10824483490E+04  0.00000000000E+00 0.  1.
    9000010    2    1    2  501    0  0.27505999559E+03 -0.33898238104E+02 -0.42126074740E+03  0.11026801729E+04  0.98063033544E+03 0.  0.
   -9000010    2    1    2    0  502 -0.27505999559E+03  0.33898238104E+02  0.53733298759E+03  0.11782887653E+04  0.10113508705E+04 0.  0.
        -13    1    3    3    0    0 -0.56850929649E+02  0.42716483192E+03 -0.29054871571E+03  0.51973107392E+03  0.10566000000E+00 0.  1.
         13    1    4    4    0    0  0.66241347265E+02  0.44464202722E+02 -0.28071645993E+03  0.29183338303E+03  0.10566000000E+00 0. -1.
          4    1    3    3  501    0  0.33191092524E+03 -0.46106307002E+03 -0.13071203168E+03  0.58294909903E+03  0.00000000000E+00 0.  1.
         -4    1    4    4    0  502 -0.34130134286E+03 -0.10565964618E+02  0.81804944752E+03  0.88645538232E+03  0.00000000000E+00 0. -1.
</event>
<event>
 8    1  0.7572579E-006  0.1162550E+04  0.7818608E-02  0.8638370E-01
         21   -1    0    0  501  502  0.00000000000E+00  0.00000000000E+00  0.10524395120E+04  0.10524395120E+04  0.00000000000E+00 0. -1.
         21   -1    0    0  502  503 -0.00000000000E+00 -0.00000000000E+00 -0.13436054637E+04  0.13436054637E+04  0.00000000000E+00 0. -1.
    9000010    2    1    2  501    0  0.50624997409E+03 -0.30957562904E+03  0.14124263821E+03  0.11556826429E+04  0.98159400054E+03 0.  0.
   -9000010    2    1    2    0  503 -0.50624997409E+03  0.30957562904E+03 -0.43240858999E+03  0.12403623328E+04  0.99969766509E+03 0.  0.
        -13    1    3    3    0    0  0.68645074997E+03 -0.11053730256E+02  0.32717557788E+03  0.76051343644E+03  0.10566000000E+00 0.  1.
         13    1    4    4    0    0 -0.52962072791E+03 -0.25345606247E+03 -0.13210340073E+03  0.60182174328E+03  0.10566000000E+00 0. -1.
          4    1    3    3  501    0 -0.18020077588E+03 -0.29852189878E+03 -0.18593293966E+03  0.39516920646E+03  0.00000000000E+00 0.  1.
         -4    1    4    4    0  503  0.23370753828E+02  0.56303169151E+03 -0.30030518926E+03  0.63854058952E+03  0.00000000000E+00 0. -1.
</event>
<event>
 8    1  0.7572579E-006  0.1049748E+04  0.7818608E-02  0.8730463E-01
         21   -1    0    0  503  502  0.00000000000E+00  0.00000000000E+00  0.88603774353E+03  0.88603774353E+03  0.00000000000E+00 0. -1.
         21   -1    0    0  501  503 -0.00000000000E+00 -0.00000000000E+00 -0.12688511153E+04  0.12688511153E+04  0.00000000000E+00 0. -1.
    9000010    2    1    2  501    0  0.13553317327E+03 -0.26719875337E+03 -0.21197843155E+02  0.10499619676E+04  0.10060846734E+04 0.  0.
   -9000010    2    1    2    0  502 -0.13553317327E+03  0.26719875337E+03 -0.36161552862E+03  0.11049268912E+04  0.10001666009E+04 0.  0.
        -13    1    3    3    0    0  0.11579921432E+03  0.31812773366E+03  0.23355611712E+03  0.41129452218E+03  0.10566000000E+00 0.  1.
         13    1    4    4    0    0 -0.17942842464E+03  0.52667312284E+03  0.10783058591E+03  0.56675090147E+03  0.10566000000E+00 0. -1.
          4    1    3    3  501    0  0.19733958945E+02 -0.58532648704E+03 -0.25475396028E+03  0.63866744542E+03  0.00000000000E+00 0.  1.
         -4    1    4    4    0  502  0.43895251374E+02 -0.25947436947E+03 -0.46944611454E+03  0.53817598976E+03  0.00000000000E+00 0. -1.
</event>
<event>
 8    1  0.7572579E-006  0.1120455E+04  0.7818608E-02  0.8678845E-01
         21   -1    0    0  501  502  0.00000000000E+00  0.00000000000E+00  0.31747969414E+04  0.31747969414E+04  0.00000000000E+00 0.  1.
         21   -1    0    0  502  503 -0.00000000000E+00 -0.00000000000E+00 -0.10349906693E+04  0.10349906693E+04  0.00000000000E+00 0.  1.
    9000010    2    1    2  501    0  0.26862333848E+03  0.33021728773E+03  0.27371150251E+04  0.29400646488E+04  0.98538293226E+03 0.  0.
   -9000010    2    1    2    0  503 -0.26862333848E+03 -0.33021728773E+03 -0.59730875305E+03  0.12697229620E+04  0.10364442573E+04 0.  0.
        -13    1    3    3    0    0  0.45627251173E+03  0.15670451573E+03  0.52407980679E+03  0.71232054951E+03  0.10566000000E+00 0.  1.
         13    1    4    4    0    0 -0.17241148536E+03 -0.70226411303E+03 -0.29582765894E+03  0.78129035556E+03  0.10566000000E+00 0. -1.
          4    1    3    3  501    0 -0.18764917324E+03  0.17351277200E+03  0.22130352183E+04  0.22277440992E+04  0.00000000000E+00 0.  1.
         -4    1    4    4    0  503 -0.96211853118E+02  0.37204682530E+03 -0.30148109410E+03  0.48843260640E+03  0.00000000000E+00 0. -1.
</event>
<event>
 8    1  0.7572579E-006  0.1075117E+04  0.7818608E-02  0.8714849E-01
         21   -1    0    0  503  502  0.00000000000E+00  0.00000000000E+00  0.12488779590E+04  0.12488779590E+04  0.00000000000E+00 0. -1.
         21   -1    0    0  501  503 -0.00000000000E+00 -0.00000000000E+00 -0.99804475964E+03  0.99804475964E+03  0.00000000000E+00 0. -1.
    9000010    2    1    2  501    0 -0.22264252320E+03  0.19796219937E+03 -0.23342118511E+03  0.11001650028E+04  0.10330144521E+04 0.  0.
   -9000010    2    1    2    0  502  0.22264252320E+03 -0.19796219937E+03  0.48425438447E+03  0.11467577158E+04  0.99588765654E+03 0.  0.
        -13    1    3    3    0    0 -0.30906189857E+02  0.34643139422E+03 -0.58052528029E+03  0.67674183829E+03  0.10566000000E+00 0.  1.
         13    1    4    4    0    0  0.34845114718E+03 -0.12989521065E+03 -0.21734057037E+03  0.43072950028E+03  0.10566000000E+00 0. -1.
          4    1    3    3  501    0 -0.19173633335E+03 -0.14846919484E+03  0.34710409518E+03  0.42342316450E+03  0.00000000000E+00 0.  1.
         -4    1    4    4    0  502 -0.12580862397E+03 -0.68066988722E+02  0.70159495484E+03  0.71602821556E+03  0.00000000000E+00 0. -1.
</event>
<event>
 8    1  0.7572579E-006  0.1042208E+04  0.7818608E-02  0.8739149E-01
         21   -1    0    0  503  502  0.00000000000E+00  0.00000000000E+00  0.15878286277E+04  0.15878286277E+04  0.00000000000E+00 0.  1.
         21   -1    0    0  501  503 -0.00000000000E+00 -0.00000000000E+00 -0.82138751911E+03  0.82138751911E+03  0.00000000000E+00 0.  1.
    9000010    2    1    2  501    0  0.13122932198E+03 -0.14761348330E+03 -0.12805435693E+03  0.10357828530E+04  0.10086809826E+04 0.  0.
   -9000010    2    1    2    0  502 -0.13122932198E+03  0.14761348330E+03  0.89449546556E+03  0.13734332939E+04  0.10233210637E+04 0.  0.
        -13    1    3    3    0    0 -0.91819177220E+02 -0.20544609715E+03  0.40038546970E+03  0.45929009967E+03  0.10566000000E+00 0.  1.
         13    1    4    4    0    0  0.77931024657E+02 -0.39614721493E+03  0.15608122756E+03  0.43285935506E+03  0.10566000000E+00 0. -1.
          4    1    3    3  501    0  0.22304849920E+03  0.57832613848E+02 -0.52843982663E+03  0.57649275329E+03  0.00000000000E+00 0.  1.
         -4    1    4    4    0  502 -0.20916034663E+03  0.54376069823E+03  0.73841423799E+03  0.94057393883E+03  0.00000000000E+00 0. -1.
</event>
<event>
 8    1  0.7572579E-006  0.1033618E+04  0.7818608E-02  0.8748857E-01
         21   -1    0    0  503  502  0.00000000000E+00  0.00000000000E+00  0.19326407708E+04  0.19326407708E+04  0.00000000000E+00 0.  1.
         21   -1    0    0  501  503 -0.00000000000E+00 -0.00000000000E+00 -0.80549010612E+03  0.80549010612E+03  0.00000000000E+00 0.  1.
    9000010    2    1    2  501    0 -0.14095202604E+03  0.82883850899E+02 -0.22568841890E+03  0.10356210463E+04  0.99741590258E+03 0.  0.
   -9000010    2    1    2    0  502  0.14095202604E+03 -0.82883850899E+02  0.13528390836E+04  0.17025098306E+04  0.10206022393E+04 0.  0.
        -13    1    3    3    0    0 -0.45627677733E+03 -0.25236519043E+03 -0.24254994521E+03  0.57507145118E+03  0.10566000000E+00 0.  1.
         13    1    4    4    0    0 -0.17760662732E+03 -0.46088844883E+03  0.42676001301E+03  0.65275293657E+03  0.10566000000E+00 0. -1.
          4    1    3    3  501    0  0.31532475129E+03  0.33524904133E+03  0.16861526312E+02  0.46054959511E+03  0.00000000000E+00 0.  1.
         -4    1    4    4    0  502  0.31855865336E+03  0.37800459793E+03  0.92607907055E+03  0.10497568940E+04  0.00000000000E+00 0. -1.
</event>
<event>
 8    1  0.7572579E-006  0.1041055E+04  0.7818608E-02  0.8743338E-01
         21   -1    0    0  503  502  0.00000000000E+00  0.00000000000E+00  0.20455637334E+04  0.20455637334E+04  0.00000000000E+00 0. -1.
         21   -1    0    0  501  503 -0.00000000000E+00 -0.00000000000E+00 -0.76006364747E+03  0.76006364747E+03  0.00000000000E+00 0. -1.
    9000010    2    1    2  501    0  0.71644613049E+02 -0.16076890933E+03 -0.15877058898E+03  0.10252584007E+04  0.99748037345E+03 0.  0.
   -9000010    2    1    2    0  502 -0.71644613049E+02  0.16076890933E+03  0.14442706749E+04  0.17803689802E+04  0.10260683849E+04 0.  0.
        -13    1    3    3    0    0  0.67148700385E+02 -0.50214959187E+03 -0.36679798609E+03  0.62546297600E+03  0.10566000000E+00 0.  1.
         13    1    4    4    0    0 -0.33932730396E+03 -0.19678624173E+03  0.12181303994E+04  0.12797302549E+04  0.10566000000E+00 0. -1.
          4    1    3    3  501    0  0.44959126640E+01  0.34138068254E+03  0.20802739711E+03  0.39979542467E+03  0.00000000000E+00 0.  1.
         -4    1    4    4    0  502  0.26768269091E+03  0.35755515107E+03  0.22614027548E+03  0.50063872529E+03  0.00000000000E+00 0. -1.
</event>
<event>
 8    1  0.7572579E-006  0.1067731E+04  0.7818608E-02  0.8717090E-01
         21   -1    0    0  501  502  0.00000000000E+00  0.00000000000E+00  0.96229693299E+03  0.96229693299E+03  0.00000000000E+00 0.  1.
         21   -1    0    0  502  503 -0.00000000000E+00 -0.00000000000E+00 -0.13482772955E+04  0.13482772955E+04  0.00000000000E+00 0.  1.
    9000010    2    1    2  501    0 -0.34365623488E+03  0.44909532751E+02  0.23282506060E+03  0.10764874084E+04  0.99222031714E+03 0.  0.
   -9000010    2    1    2    0  503  0.34365623488E+03 -0.44909532751E+02 -0.61880542310E+03  0.12340868201E+04  0.10099176471E+04 0.  0.
        -13    1    3    3    0    0  0.33913939407E+03 -0.94966802217E+02  0.10842170653E+03  0.36849626829E+03  0.10566000000E+00 0.  1.
         13    1    4    4    0    0  0.42817774592E+03 -0.32267565192E+03  0.15624707850E+02  0.53637664109E+03  0.10566000000E+00 0. -1.
          4    1    3    3  501    0 -0.68279562895E+03  0.13987633497E+03  0.12440335407E+03  0.70799114013E+03  0.00000000000E+00 0.  1.
         -4    1    4    4    0  503 -0.84521511037E+02  0.27776611917E+03 -0.63443013095E+03  0.69771017897E+03  0.00000000000E+00 0. -1.
</event>
<event>
 8    1  0.7572579E-006  0.1078969E+04  0.7818608E-02  0.8705593E-01
         21   -1    0    0  501  502  0.00000000000E+00  0.00000000000E+00  0.16906484242E+04  0.16906484242E+04  0.00000000000E+00 0.  1.
         21   -1    0    0  502  503 -0.00000000000E+00 -0.00000000000E+00 -0.74736723840E+03  0.74736723840E+03  0.00000000000E+00 0.  1.
    9000010    2    1    2  501    0 -0.29074855602E+03  0.28786572360E+03  0.11592350073E+03  0.10851782152E+04  0.99838474702E+03 0.  0.
   -9000010    2    1    2    0  503  0.29074855602E+03 -0.28786572360E+03  0.82735768510E+03  0.13528374474E+04  0.98906370999E+03 0.  0.
        -13    1    3    3    0    0  0.34024266146E+03 -0.78651656476E+02  0.41784463909E+02  0.35170599132E+03  0.10566000000E+00 0.  1.
         13    1    4    4    0    0 -0.28237338336E+03 -0.39559182289E+03  0.34484459775E+03  0.59594079046E+03  0.10566000000E+00 0. -1.
          4    1    3    3  501    0 -0.63099121748E+03  0.36651738008E+03  0.74139036819E+02  0.73347222389E+03  0.00000000000E+00 0.  1.
         -4    1    4    4    0  503  0.57312193938E+03  0.10772609929E+03  0.48251308735E+03  0.75689665697E+03  0.00000000000E+00 0. -1.
</event>
<event>
 8    1  0.7572579E-006  0.1011561E+04  0.7818608E-02  0.8764554E-01
         21   -1    0    0  503  502  0.00000000000E+00  0.00000000000E+00  0.11136248768E+04  0.11136248768E+04  0.00000000000E+00 0.  1.
         21   -1    0    0  501  503 -0.00000000000E+00 -0.00000000000E+00 -0.92384259425E+03  0.92384259425E+03  0.00000000000E+00 0.  1.
    9000010    2    1    2  501    0 -0.14685671113E+03 -0.99390912138E+02  0.69243078904E+00  0.10115609926E+04  0.99589643805E+03 0.  0.
   -9000010    2    1    2    0  502  0.14685671113E+03  0.99390912138E+02  0.18908985181E+03  0.10259064785E+04  0.99261456945E+03 0.  0.
        -13    1    3    3    0    0  0.75089315667E+02 -0.11036110824E+03  0.47199017021E+03  0.49050250915E+03  0.10566000000E+00 0.  1.
         13    1    4    4    0    0  0.49810120702E+02 -0.43020971043E+03 -0.51583952584E+02  0.43614488235E+03  0.10566000000E+00 0. -1.
          4    1    3    3  501    0 -0.22194602680E+03  0.10970196105E+02 -0.47129773942E+03  0.52105848347E+03  0.00000000000E+00 0.  1.
         -4    1    4    4    0  502  0.97046590432E+02  0.52960062257E+03  0.24067380439E+03  0.58976159612E+03  0.00000000000E+00 0. -1.
</event>
<event>
 8    1  0.7572579E-006  0.1234816E+04  0.7818608E-02  0.8602873E-01
         21   -1    0    0  503  502  0.00000000000E+00  0.00000000000E+00  0.10639482776E+04  0.10639482776E+04  0.00000000000E+00 0.  1.
         21   -1    0    0  501  503 -0.00000000000E+00 -0.00000000000E+00 -0.16481345386E+04  0.16481345386E+04  0.00000000000E+00 0.  1.
    9000010    2    1    2  501    0  0.51334595159E+03  0.78073214372E+02 -0.92390794443E+03  0.15421984266E+04  0.11203350411E+04 0.  0.
   -9000010    2    1    2    0  502 -0.51334595159E+03 -0.78073214372E+02  0.33972168349E+03  0.11698843896E+04  0.99176568298E+03 0.  0.
        -13    1    3    3    0    0  0.15780808855E+03 -0.17858295207E+03  0.21551429121E+03  0.32131244056E+03  0.10566000000E+00 0.  1.
         13    1    4    4    0    0 -0.49633317606E+03 -0.45959976959E+03  0.28191949071E+02  0.67703276658E+03  0.10566000000E+00 0. -1.
          4    1    3    3  501    0  0.35553786305E+03  0.25665616644E+03 -0.11394222356E+04  0.12208859860E+04  0.00000000000E+00 0.  1.
         -4    1    4    4    0  502 -0.17012775534E+02  0.38152655522E+03  0.31152973441E+03  0.49285162300E+03  0.00000000000E+00 0. -1.
</event>
<event>
 8    1  0.7572579E-006  0.1247245E+04  0.7818608E-02  0.8576620E-01
         21   -1    0    0  503  502  0.00000000000E+00  0.00000000000E+00  0.19333181862E+04  0.19333181862E+04  0.00000000000E+00 0. -1.
         21   -1    0    0  501  503 -0.00000000000E+00 -0.00000000000E+00 -0.92018444517E+03  0.92018444517E+03  0.00000000000E+00 0. -1.
    9000010    2    1    2  501    0  0.38862074690E+03  0.66630750735E+03 -0.39530269196E+02  0.12214112632E+04  0.94619820993E+03 0.  0.
   -9000010    2    1    2    0  502 -0.38862074690E+03 -0.66630750735E+03  0.10526640102E+04  0.16320913682E+04  0.98011679726E+03 0.  0.
        -13    1    3    3    0    0  0.32657329299E+03  0.32759532027E+03 -0.47714741630E+03  0.66455885939E+03  0.10566000000E+00 0.  1.
         13    1    4    4    0    0 -0.53098408139E+03 -0.34358640449E+03  0.11072690192E+04  0.12751628932E+04  0.10566000000E+00 0. -1.
          4    1    3    3  501    0  0.62047453918E+02  0.33871218708E+03  0.43761714710E+03  0.55685240383E+03  0.00000000000E+00 0.  1.
         -4    1    4    4    0  502  0.14236333448E+03 -0.32272110286E+03 -0.54605008987E+02  0.35692847497E+03  0.00000000000E+00 0. -1.
</event>
<event>
 8    1  0.7572579E-006  0.1003592E+04  0.7818608E-02  0.8773170E-01
         21   -1    0    0  501  502  0.00000000000E+00  0.00000000000E+00  0.55761316106E+03  0.55761316106E+03  0.00000000000E+00 0.  1.
         21   -1    0    0  502  503 -0.00000000000E+00 -0.00000000000E+00 -0.17988453219E+04  0.17988453219E+04  0.00000000000E+00 0.  1.
    9000010    2    1    2  501    0 -0.47762329077E+02 -0.84566634471E+01 -0.69908558613E+03  0.12230774409E+04  0.10024195801E+04 0.  0.
   -9000010    2    1    2    0  503  0.47762329077E+02  0.84566634471E+01 -0.54214657466E+03  0.11333810420E+04  0.99412118111E+03 0.  0.
        -13    1    3    3    0    0  0.17604524519E+03  0.42422532381E+03 -0.13705465731E+03  0.47931518229E+03  0.10566000000E+00 0.  1.
         13    1    4    4    0    0 -0.26949681447E+03 -0.36903737719E+03 -0.92895946119E+02  0.46631189857E+03  0.10566000000E+00 0. -1.
          4    1    3    3  501    0 -0.22380757426E+03 -0.43268198726E+03 -0.56203092882E+03  0.74376225862E+03  0.00000000000E+00 0.  1.
         -4    1    4    4    0  503  0.31725914355E+03  0.37749404064E+03 -0.44925062854E+03  0.66706914344E+03  0.00000000000E+00 0. -1.
</event>
<event>
 8    1  0.7572579E-006  0.1007027E+04  0.7818608E-02  0.8774102E-01
         21   -1    0    0  503  502  0.00000000000E+00  0.00000000000E+00  0.15028888317E+04  0.15028888317E+04  0.00000000000E+00 0. -1.
         21   -1    0    0  501  503 -0.00000000000E+00 -0.00000000000E+00 -0.66022238109E+03  0.66022238109E+03  0.00000000000E+00 0. -1.
    9000010    2    1    2  501    0 -0.10920877038E+03 -0.62813239674E+02  0.34786707458E+03  0.10410904044E+04  0.97313188724E+03 0.  0.
   -9000010    2    1    2    0  502  0.10920877038E+03  0.62813239674E+02  0.49479937599E+03  0.11220208083E+04  0.99911571566E+03 0.  0.
        -13    1    3    3    0    0 -0.47555147400E+03 -0.24970861529E+03  0.63006599241E+02  0.54080813575E+03  0.10566000000E+00 0.  1.
         13    1    4    4    0    0  0.17708264047E+03 -0.14776793942E+03 -0.25289930784E+03  0.34227430016E+03  0.10566000000E+00 0. -1.
          4    1    3    3  501    0  0.36634270363E+03  0.18689537562E+03  0.28486047534E+03  0.50028226866E+03  0.00000000000E+00 0.  1.
         -4    1    4    4    0  502 -0.67873870095E+02  0.21058117909E+03  0.74769868383E+03  0.77974650819E+03  0.00000000000E+00 0. -1.
</event>
<event>
 8    1  0.7572579E-006  0.1002612E+04  0.7818608E-02  0.8774522E-01
         21   -1    0    0  503  502  0.00000000000E+00  0.00000000000E+00  0.54196417932E+03  0.54196417932E+03  0.00000000000E+00 0.  1.
         21   -1    0    0  501  503 -0.00000000000E+00 -0.00000000000E+00 -0.18450127691E+04  0.18450127691E+04  0.00000000000E+00 0.  1.
    9000010    2    1    2  501    0 -0.43274102263E+01  0.95778355622E+02 -0.57198440939E+03  0.11542953561E+04  0.99801772763E+03 0.  0.
   -9000010    2    1    2    0  502  0.43274102263E+01 -0.95778355622E+02 -0.73106418038E+03  0.12326815923E+04  0.98785467165E+03 0.  0.
        -13    1    3    3    0    0 -0.33808823899E+03  0.19668802316E+03  0.94248843466E+02  0.40233405455E+03  0.10566000000E+00 0.  1.
         13    1    4    4    0    0 -0.15284644383E+03  0.32495000740E+02  0.21462068443E+03  0.26548071458E+03  0.10566000000E+00 0. -1.
          4    1    3    3  501    0  0.33376082876E+03 -0.10090966753E+03 -0.66623325286E+03  0.75196130155E+03  0.00000000000E+00 0.  1.
         -4    1    4    4    0  502  0.15717385406E+03 -0.12827335636E+03 -0.94568486481E+03  0.96720087773E+03  0.00000000000E+00 0. -1.
</event>
<event>
 8    1  0.7572579E-006  0.1013139E+04  0.7818608E-02  0.8763874E-01
         21   -1    0    0  503  502  0.00000000000E+00  0.00000000000E+00  0.12930654148E+04  0.12930654148E+04  0.00000000000E+00 0.  1.
         21   -1    0    0  501  503 -0.00000000000E+00 -0.00000000000E+00 -0.94341263101E+03  0.94341263101E+03  0.00000000000E+00 0.  1.
    9000010    2    1    2  501    0 -0.10012841033E+03  0.49330735010E+02 -0.27760740219E+03  0.10504840977E+04  0.10069715735E+04 0.  0.
   -9000010    2    1    2    0  502  0.10012841033E+03 -0.49330735010E+02  0.62726018594E+03  0.11859939481E+04  0.10003334864E+04 0.  0.
        -13    1    3    3    0    0  0.25623525065E+03 -0.88462800749E+01 -0.54425290414E+03  0.60161947706E+03  0.10566000000E+00 0.  1.
         13    1    4    4    0    0  0.43117554184E+03 -0.51579821696E+02  0.72122166469E+03  0.84186312823E+03  0.10566000000E+00 0. -1.
          4    1    3    3  501    0 -0.35636366098E+03  0.58177015085E+02  0.26664550195E+03  0.44886462064E+03  0.00000000000E+00 0.  1.
         -4    1    4    4    0  502 -0.33104713151E+03  0.22490866866E+01 -0.93961478746E+02  0.34413081984E+03  0.00000000000E+00 0. -1.
</event>
<event>
 8    1  0.7572579E-006  0.1074793E+04  0.7818608E-02  0.8711965E-01
         21   -1    0    0  501  502  0.00000000000E+00  0.00000000000E+00  0.13709236957E+04  0.13709236957E+04  0.00000000000E+00 0.  1.
         21   -1    0    0  502  503 -0.00000000000E+00 -0.00000000000E+00 -0.86005202567E+03  0.86005202567E+03  0.00000000000E+00 0.  1.
    9000010    2    1    2  501    0 -0.46155205507E+02  0.32959463012E+03  0.31006342285E+02  0.10539242718E+04  0.99951590996E+03 0.  0.
   -9000010    2    1    2    0  503  0.46155205507E+02 -0.32959463012E+03  0.47986532773E+03  0.11770514495E+04  0.10219669559E+04 0.  0.
        -13    1    3    3    0    0  0.30706084242E+02  0.37446783471E+03 -0.43769855145E+03  0.57684404821E+03  0.10566000000E+00 0.  1.
         13    1    4    4    0    0 -0.22867293110E+03 -0.54640615807E+03  0.56306360010E+03  0.81724636917E+03  0.10566000000E+00 0. -1.
          4    1    3    3  501    0 -0.76861289749E+02 -0.44873204592E+02  0.46870489374E+03  0.47708022362E+03  0.00000000000E+00 0.  1.
         -4    1    4    4    0  503  0.27482813660E+03  0.21681152795E+03 -0.83198272376E+02  0.35980508035E+03  0.00000000000E+00 0. -1.
</event>
<event>
 8    1  0.7572579E-006  0.1144970E+04  0.7818608E-02  0.8668914E-01
         21   -1    0    0  503  502  0.00000000000E+00  0.00000000000E+00  0.22643742430E+04  0.22643742430E+04  0.00000000000E+00 0.  1.
         21   -1    0    0  501  503 -0.00000000000E+00 -0.00000000000E+00 -0.86352097937E+03  0.86352097937E+03  0.00000000000E+00 0.  1.
    9000010    2    1    2  501    0  0.52473706227E+03 -0.89571982831E+02 -0.24929936458E+03  0.11717961150E+04  0.10136980997E+04 0.  0.
   -9000010    2    1    2    0  502 -0.52473706227E+03  0.89571982831E+02  0.16501526282E+04  0.19560991074E+04  0.90550974421E+03 0.  0.
        -13    1    3    3    0    0 -0.61831975421E+02 -0.73706945462E+02  0.33210153675E+03  0.34575619860E+03  0.10566000000E+00 0.  1.
         13    1    4    4    0    0  0.17275737527E+03 -0.19375357780E+03  0.68167291817E+03  0.72942685593E+03  0.10566000000E+00 0. -1.
          4    1    3    3  501    0  0.58656903769E+03 -0.15865037369E+02 -0.58140090134E+03  0.82603991639E+03  0.00000000000E+00 0.  1.
         -4    1    4    4    0  502 -0.69749443755E+03  0.28332556063E+03  0.96847971008E+03  0.12266722515E+04  0.00000000000E+00 0. -1.
</event>
<event>
 8    1  0.7572579E-006  0.1048428E+04  0.7818608E-02  0.8732269E-01
         21   -1    0    0  501  502  0.00000000000E+00  0.00000000000E+00  0.17730118284E+04  0.17730118284E+04  0.00000000000E+00 0.  1.
         21   -1    0    0  502  503 -0.00000000000E+00 -0.00000000000E+00 -0.13280895156E+04  0.13280895156E+04  0.00000000000E+00 0.  1.
    9000010    2    1    2  501    0 -0.23042563966E+03 -0.15083362437E+03  0.13582562198E+04  0.17106407212E+04  0.10027885921E+04 0.  0.
   -9000010    2    1    2    0  503  0.23042563966E+03  0.15083362437E+03 -0.91333390700E+03  0.13904606228E+04  0.10116101820E+04 0.  0.
        -13    1    3    3    0    0 -0.51299247433E+03 -0.39465831288E+03  0.69585649038E+03  0.95033295692E+03  0.10566000000E+00 0.  1.
         13    1    4    4    0    0  0.62343926812E+03 -0.95608602254E+01 -0.52372112097E+03  0.81427989954E+03  0.10566000000E+00 0. -1.
          4    1    3    3  501    0  0.28256683466E+03  0.24382468852E+03  0.66239972946E+03  0.76030776424E+03  0.00000000000E+00 0.  1.
         -4    1    4    4    0  503 -0.39301362846E+03  0.16039448459E+03 -0.38961278604E+03  0.57618072328E+03  0.00000000000E+00 0. -1.
</event>
<event>
 8    1  0.7572579E-006  0.9954856E+03  0.7818608E-02  0.8781541E-01
         21   -1    0    0  501  502  0.00000000000E+00  0.00000000000E+00  0.11661844945E+04  0.11661844945E+04  0.00000000000E+00 0.  1.
         21   -1    0    0  502  503 -0.00000000000E+00 -0.00000000000E+00 -0.12466372800E+04  0.12466372800E+04  0.00000000000E+00 0.  1.
    9000010    2    1    2  501    0  0.47393169786E+01 -0.15689420560E+02  0.64852865235E+03  0.11880997273E+04  0.99535065687E+03 0.  0.
   -9000010    2    1    2    0  503 -0.47393169786E+01  0.15689420560E+02 -0.72898143783E+03  0.12247220472E+04  0.98400281359E+03 0.  0.
        -13    1    3    3    0    0  0.33942236543E+02 -0.46840937041E+03  0.10702867871E+03  0.48167890024E+03  0.10566000000E+00 0.  1.
         13    1    4    4    0    0 -0.39661222114E+03 -0.79206020669E+02 -0.14955281748E+02  0.40472029760E+03  0.10566000000E+00 0. -1.
          4    1    3    3  501    0 -0.29202919565E+02  0.45271994985E+03  0.54149997364E+03  0.70642082710E+03  0.00000000000E+00 0.  1.
         -4    1    4    4    0  503  0.39187290417E+03  0.94895441229E+02 -0.71402615608E+03  0.82000174961E+03  0.00000000000E+00 0. -1.
</event>
<event>
 8    1  0.7572579E-006  0.1050960E+04  0.7818608E-02  0.8730474E-01
         21   -1    0    0  501  502  0.00000000000E+00  0.00000000000E+00  0.19214739250E+04  0.19214739250E+04  0.00000000000E+00 0.  1.
         21   -1    0    0  502  503 -0.00000000000E+00 -0.00000000000E+00 -0.98777451005E+03  0.98777451005E+03  0.00000000000E+00 0.  1.
    9000010    2    1    2  501    0 -0.14989989544E+03 -0.31056461296E+03  0.14125371994E+04  0.17543443707E+04  0.98160199362E+03 0.  0.
   -9000010    2    1    2    0  503  0.14989989544E+03  0.31056461296E+03 -0.47883778441E+03  0.11549040644E+04  0.99277259059E+03 0.  0.
        -13    1    3    3    0    0  0.90831242841E+02 -0.37152094156E+03  0.69729536308E+02  0.38876772511E+03  0.10566000000E+00 0.  1.
         13    1    4    4    0    0  0.74999638443E+02  0.52056741806E+03  0.99325929139E+02  0.53523923051E+03  0.10566000000E+00 0. -1.
          4    1    3    3  501    0 -0.24073113828E+03  0.60956328597E+02  0.13428076631E+04  0.13655766456E+04  0.00000000000E+00 0.  1.
         -4    1    4    4    0  503  0.74900257001E+02 -0.21000280510E+03 -0.57816371355E+03  0.61966483386E+03  0.00000000000E+00 0. -1.
</event>
<event>
 8    1  0.7572579E-006  0.1024609E+04  0.7818608E-02  0.8754288E-01
         21   -1    0    0  501  502  0.00000000000E+00  0.00000000000E+00  0.17431798310E+04  0.17431798310E+04  0.00000000000E+00 0. -1.
         21   -1    0    0  502  503 -0.00000000000E+00 -0.00000000000E+00 -0.14300111182E+04  0.14300111182E+04  0.00000000000E+00 0. -1.
    9000010    2    1    2  501    0  0.16025763380E+03  0.11229742418E+03  0.13686575320E+04  0.17096923553E+04  0.10057491185E+04 0.  0.
   -9000010    2    1    2    0  503 -0.16025763380E+03 -0.11229742418E+03 -0.10554888192E+04  0.14634985939E+04  0.99472522142E+03 0.  0.
        -13    1    3    3    0    0  0.37831465675E+03  0.31082241478E+03  0.24407317448E+03  0.54708708512E+03  0.10566000000E+00 0.  1.
         13    1    4    4    0    0 -0.31812731073E+03 -0.12919544804E+03  0.49721738017E+02  0.34694194330E+03  0.10566000000E+00 0. -1.
          4    1    3    3  501    0 -0.21805702295E+03 -0.19852499060E+03  0.11245843575E+04  0.11626052702E+04  0.00000000000E+00 0.  1.
         -4    1    4    4    0  503  0.15786967693E+03  0.16898023860E+02 -0.11052105573E+04  0.11165566506E+04  0.00000000000E+00 0. -1.
</event>
<event>
 8    1  0.7572579E-006  0.1112477E+04  0.7818608E-02  0.8676312E-01
         21   -1    0    0  503  502  0.00000000000E+00  0.00000000000E+00  0.15141989518E+04  0.15141989518E+04  0.00000000000E+00 0.  1.
         21   -1    0    0  501  503 -0.00000000000E+00 -0.00000000000E+00 -0.89171809478E+03  0.89171809478E+03  0.00000000000E+00 0.  1.
    9000010    2    1    2  501    0 -0.24620381451E+03  0.40550988097E+03 -0.42896652025E+02  0.11096405387E+04  0.10022012874E+04 0.  0.
   -9000010    2    1    2    0  502  0.24620381451E+03 -0.40550988097E+03  0.66537750902E+03  0.12962765079E+04  0.10062559185E+04 0.  0.
        -13    1    3    3    0    0  0.23755022924E+03  0.55396675837E+03 -0.27923773666E+02  0.60339790279E+03  0.10566000000E+00 0.  1.
         13    1    4    4    0    0 -0.19759857938E+02 -0.51362592606E+03 -0.58710736321E+02  0.51734805077E+03  0.10566000000E+00 0. -1.
          4    1    3    3  501    0 -0.48375404375E+03 -0.14845687740E+03 -0.14972878359E+02  0.50624263588E+03  0.00000000000E+00 0.  1.
         -4    1    4    4    0  502  0.26596367245E+03  0.10811604509E+03  0.72408824534E+03  0.77892845712E+03  0.00000000000E+00 0. -1.
</event>
<event>
 8    1  0.7572579E-006  0.1063435E+04  0.7818608E-02  0.8720929E-01
         21   -1    0    0  503  502  0.00000000000E+00  0.00000000000E+00  0.48837616043E+03  0.48837616043E+03  0.00000000000E+00 0.  1.
         21   -1    0    0  501  503 -0.00000000000E+00 -0.00000000000E+00 -0.29403149914E+04  0.29403149914E+04  0.00000000000E+00 0.  1.
    9000010    2    1    2  501    0  0.15278250167E+03  0.26685963901E+03 -0.20315584324E+04  0.22851819814E+04  0.10001352229E+04 0.  0.
   -9000010    2    1    2    0  502 -0.15278250167E+03 -0.26685963901E+03 -0.42038039850E+03  0.11435091704E+04  0.10180063770E+04 0.  0.
        -13    1    3    3    0    0  0.55779500225E+03  0.51938130563E+02 -0.85231231302E+03  0.10199358431E+04  0.10566000000E+00 0.  1.
         13    1    4    4    0    0  0.45170394819E+02 -0.14542042648E+03  0.32708712712E+03  0.36079559988E+03  0.10566000000E+00 0. -1.
          4    1    3    3  501    0 -0.40501250058E+03  0.21492150845E+03 -0.11792461194E+04  0.12652461383E+04  0.00000000000E+00 0.  1.
         -4    1    4    4    0  502 -0.19795289649E+03 -0.12143921254E+03 -0.74746752562E+03  0.78271357049E+03  0.00000000000E+00 0. -1.
</event>
<event>
 8    1  0.7572579E-006  0.1097941E+04  0.7818608E-02  0.8699974E-01
         21   -1    0    0  501  502  0.00000000000E+00  0.00000000000E+00  0.15933288066E+04  0.15933288066E+04  0.00000000000E+00 0. -1.
         21   -1    0    0  502  503 -0.00000000000E+00 -0.00000000000E+00 -0.76594009886E+03  0.76594009886E+03  0.00000000000E+00 0. -1.
    9000010    2    1    2  501    0  0.19104419569E+03 -0.24827272074E+03  0.71991385442E+03  0.13129170010E+04  0.10523012235E+04 0.  0.
   -9000010    2    1    2    0  503 -0.19104419569E+03  0.24827272074E+03  0.10747485332E+03  0.10463519045E+04  0.99255439920E+03 0.  0.
        -13    1    3    3    0    0 -0.23836653319E+03 -0.36479248126E+03  0.74952428443E+03  0.86699413069E+03  0.10566000000E+00 0.  1.
         13    1    4    4    0    0  0.12281137231E+03 -0.34679265200E+03  0.29237200962E+02  0.36905636661E+03  0.10566000000E+00 0. -1.
          4    1    3    3  501    0  0.42941072888E+03  0.11651976051E+03 -0.29610430017E+02  0.44592287028E+03  0.00000000000E+00 0.  1.
         -4    1    4    4    0  503 -0.31385556800E+03  0.59506537274E+03  0.78237652357E+02  0.67729553789E+03  0.00000000000E+00 0. -1.
</event>
<event>
 8    1  0.7572579E-006  0.1037553E+04  0.7818608E-02  0.8741667E-01
         21   -1    0    0  503  502  0.00000000000E+00  0.00000000000E+00  0.17600802523E+04  0.17600802523E+04  0.00000000000E+00 0. -1.
         21   -1    0    0  501  503 -0.00000000000E+00 -0.00000000000E+00 -0.63407576751E+03  0.63407576751E+03  0.00000000000E+00 0. -1.
    9000010    2    1    2  501    0 -0.28386776236E+03  0.21478956453E+02  0.31976790971E+03  0.10857103871E+04  0.99773407100E+03 0.  0.
   -9000010    2    1    2    0  502  0.28386776236E+03 -0.21478956453E+02  0.80623657506E+03  0.13084456327E+04  0.99043945132E+03 0.  0.
        -13    1    3    3    0    0  0.30763787387E+03  0.18442049313E+03  0.30686594839E+03  0.47203675829E+03  0.10566000000E+00 0.  1.
         13    1    4    4    0    0 -0.32254667195E+03  0.20509315827E+03  0.32666263344E+03  0.50280020526E+03  0.10566000000E+00 0. -1.
          4    1    3    3  501    0 -0.59150563622E+03 -0.16294153668E+03  0.12901961320E+02  0.61367362879E+03  0.00000000000E+00 0.  1.
         -4    1    4    4    0  502  0.60641443431E+03 -0.22657211472E+03  0.47957394162E+03  0.80564542746E+03  0.00000000000E+00 0. -1.
</event>
<event>
 8    1  0.9883421E-006  0.9858681E+03  0.7818608E-02  0.8789885E-01
         21   -1    0    0  501  502  0.00000000000E+00  0.00000000000E+00  0.87157416677E+03  0.87157416677E+03  0.00000000000E+00 0. -1.
         21   -1    0    0  502  503 -0.00000000000E+00 -0.00000000000E+00 -0.11114432896E+04  0.11114432896E+04  0.00000000000E+00 0. -1.
    9000010    2    1    2  501    0  0.12686054544E+03  0.95927042885E+02 -0.51392336006E+02  0.97929468141E+03  0.96492554391E+03 0.  0.
   -9000010    2    1    2    0  503 -0.12686054544E+03 -0.95927042885E+02 -0.18847678686E+03  0.10037227750E+04  0.97295442561E+03 0.  0.
        -13    1    3    3    0    0  0.46242211129E+03 -0.20919407281E+03  0.63310363194E+02  0.51147295369E+03  0.10566000000E+00 0.  1.
         13    1    4    4    0    0  0.15559390410E+03  0.15678030737E+03 -0.47814650563E+03  0.52670069279E+03  0.10566000000E+00 0. -1.
          4    1    3    3  501    0 -0.33556156585E+03  0.30512111570E+03 -0.11470269920E+03  0.46782172772E+03  0.00000000000E+00 0.  1.
         -4    1    4    4    0  503 -0.28245444954E+03 -0.25270735025E+03  0.28966971878E+03  0.47702208221E+03  0.00000000000E+00 0. -1.
</event>
<event>
 8    1  0.2132255E-005  0.1125039E+04  0.7818608E-02  0.8702731E-01
         21   -1    0    0  503  502  0.00000000000E+00  0.00000000000E+00  0.12437192956E+04  0.12437192956E+04  0.00000000000E+00 0. -1.
         21   -1    0    0  501  503 -0.00000000000E+00 -0.00000000000E+00 -0.13653950251E+04  0.13653950251E+04  0.00000000000E+00 0. -1.
    9000010    2    1    2  501    0 -0.76602124356E+02 -0.48422027039E+03 -0.84146115596E+03  0.12735232387E+04  0.82065059970E+03 0.  0.
   -9000010    2    1    2    0  502  0.76602124356E+02  0.48422027039E+03  0.71978542646E+03  0.13355910819E+04  0.10126081781E+04 0.  0.
        -13    1    3    3    0    0  0.11912128528E+03 -0.20231963999E+03 -0.89580609325E+03  0.92606246291E+03  0.10566000000E+00 0.  1.
         13    1    4    4    0    0  0.52452161580E+02  0.17938323431E+03 -0.25375634159E+03  0.31515371815E+03  0.10566000000E+00 0. -1.
          4    1    3    3  501    0 -0.19572340964E+03 -0.28190063040E+03  0.54344937290E+02  0.34746077579E+03  0.00000000000E+00 0.  1.
         -4    1    4    4    0  502  0.24149962776E+02  0.30483703608E+03  0.97354176805E+03  0.10204373638E+04  0.00000000000E+00 0. -1.
</event>
<event>
 8    1  0.7572579E-006  0.1057952E+04  0.7818608E-02  0.8725754E-01
         21   -1    0    0  501  502  0.00000000000E+00  0.00000000000E+00  0.11937680917E+04  0.11937680917E+04  0.00000000000E+00 0.  1.
         21   -1    0    0  502  503 -0.00000000000E+00 -0.00000000000E+00 -0.10035673920E+04  0.10035673920E+04  0.00000000000E+00 0.  1.
    9000010    2    1    2  501    0 -0.17393355414E+03  0.23039845388E+03  0.40666526349E+03  0.11174659103E+04  0.10000085477E+04 0.  0.
   -9000010    2    1    2    0  503  0.17393355414E+03 -0.23039845388E+03 -0.21646456382E+03  0.10798695734E+04  0.10178040378E+04 0.  0.
        -13    1    3    3    0    0  0.11412775576E+03 -0.27423522820E+03 -0.13207930284E+03  0.32507700384E+03  0.10566000000E+00 0.  1.
         13    1    4    4    0    0 -0.10689554287E+03  0.33998979228E+02  0.36514520429E+03  0.38198641213E+03  0.10566000000E+00 0. -1.
          4    1    3    3  501    0 -0.28806130990E+03  0.50463368208E+03  0.53874456632E+03  0.79238890647E+03  0.00000000000E+00 0.  1.
         -4    1    4    4    0  503  0.28082909701E+03 -0.26439743310E+03 -0.58160976811E+03  0.69788316122E+03  0.00000000000E+00 0. -1.
</event>
<event>
 8    1  0.7572579E-006  0.1006176E+04  0.7818608E-02  0.8780577E-01
         21   -1    0    0  503  502  0.00000000000E+00  0.00000000000E+00  0.32385933346E+04  0.32385933346E+04  0.00000000000E+00 0. -1.
         21   -1    0    0  501  503 -0.00000000000E+00 -0.00000000000E+00 -0.35010316516E+03  0.35010316516E+03  0.00000000000E+00 0. -1.
    9000010    2    1    2  501    0 -0.16727225979E+03  0.14233411561E+02  0.71827297763E+03  0.11965776703E+04  0.94217803614E+03 0.  0.
   -9000010    2    1    2    0  502  0.16727225979E+03 -0.14233411561E+02  0.21702171918E+04  0.23921188295E+04  0.99207219279E+03 0.  0.
        -13    1    3    3    0    0  0.24330277810E+03 -0.33463635156E+03  0.25496162317E+03  0.48598680030E+03  0.10566000000E+00 0.  1.
         13    1    4    4    0    0  0.54495057870E+03  0.13343651443E+03  0.91795880510E+03  0.10758367979E+04  0.10566000000E+00 0. -1.
          4    1    3    3  501    0 -0.41057503789E+03  0.34886976312E+03  0.46331135447E+03  0.71059087001E+03  0.00000000000E+00 0.  1.
         -4    1    4    4    0  502 -0.37767831891E+03 -0.14766992599E+03  0.12522583867E+04  0.13162820316E+04  0.00000000000E+00 0. -1.
</event>
<event>
 8    1  0.7572579E-006  0.1042326E+04  0.7818608E-02  0.8742127E-01
         21   -1    0    0  503  502  0.00000000000E+00  0.00000000000E+00  0.10347511218E+04  0.10347511218E+04  0.00000000000E+00 0.  1.
         21   -1    0    0  501  503 -0.00000000000E+00 -0.00000000000E+00 -0.11138253268E+04  0.11138253268E+04  0.00000000000E+00 0.  1.
    9000010    2    1    2  501    0  0.13555769781E+03 -0.20017510084E+03  0.26928562989E+03  0.10495773328E+04  0.98521665972E+03 0.  0.
   -9000010    2    1    2    0  502 -0.13555769781E+03  0.20017510084E+03 -0.34835983490E+03  0.10989991158E+04  0.10139026194E+04 0.  0.
        -13    1    3    3    0    0  0.46022728039E+03  0.18960415152E+03  0.20468310740E+03  0.53819519647E+03  0.10566000000E+00 0.  1.
         13    1    4    4    0    0  0.66697980965E+02  0.46143734622E+03 -0.54286657874E+03  0.71559568097E+03  0.10566000000E+00 0. -1.
          4    1    3    3  501    0 -0.32466958258E+03 -0.38977925236E+03  0.64602522487E+02  0.51138213631E+03  0.00000000000E+00 0.  1.
         -4    1    4    4    0  502 -0.20225567877E+03 -0.26126224539E+03  0.19450674383E+03  0.38340343485E+03  0.00000000000E+00 0. -1.
</event>
<event>
 8    1  0.7572579E-006  0.1206734E+04  0.7818608E-02  0.8606255E-01
         21   -1    0    0  501  502  0.00000000000E+00  0.00000000000E+00  0.17034010814E+04  0.17034010814E+04  0.00000000000E+00 0. -1.
         21   -1    0    0  502  503 -0.00000000000E+00 -0.00000000000E+00 -0.96167774397E+03  0.96167774397E+03  0.00000000000E+00 0. -1.
    9000010    2    1    2  501    0  0.67352604448E+03 -0.69412811156E+02  0.84688284644E+03  0.14537710244E+04  0.96839256745E+03 0.  0.
   -9000010    2    1    2    0  503 -0.67352604448E+03  0.69412811156E+02 -0.10515950903E+03  0.12113078010E+04  0.99887566566E+03 0.  0.
        -13    1    3    3    0    0  0.47609857390E+03 -0.26919228793E+02  0.10586838984E+04  0.11611227777E+04  0.10566000000E+00 0.  1.
         13    1    4    4    0    0 -0.35031800212E+03 -0.15822253712E+03  0.40995696497E+03  0.56198024712E+03  0.10566000000E+00 0. -1.
          4    1    3    3  501    0  0.19742747058E+03 -0.42493582363E+02 -0.21180105195E+03  0.29264824668E+03  0.00000000000E+00 0.  1.
         -4    1    4    4    0  503 -0.32320804236E+03  0.22763534828E+03 -0.51511647400E+03  0.64932755387E+03  0.00000000000E+00 0. -1.
</event>
<event>
 8    1  0.7572579E-006  0.1024951E+04  0.7818608E-02  0.8760789E-01
         21   -1    0    0  501  502  0.00000000000E+00  0.00000000000E+00  0.11259732645E+04  0.11259732645E+04  0.00000000000E+00 0. -1.
         21   -1    0    0  502  503 -0.00000000000E+00 -0.00000000000E+00 -0.92258984839E+03  0.92258984839E+03  0.00000000000E+00 0. -1.
    9000010    2    1    2  501    0  0.10398630293E+03  0.29413924981E+02  0.27419077384E+03  0.10609925179E+04  0.10192380549E+04 0.  0.
   -9000010    2    1    2    0  503 -0.10398630293E+03 -0.29413924981E+02 -0.70807357685E+02  0.98757059499E+03  0.97908307513E+03 0.  0.
        -13    1    3    3    0    0  0.16401674988E+03 -0.47106340640E+03  0.24593858473E+03  0.55613669696E+03  0.10566000000E+00 0.  1.
         13    1    4    4    0    0 -0.51877890568E+03 -0.13762021124E+02 -0.19486532836E+03  0.55434055739E+03  0.10566000000E+00 0. -1.
          4    1    3    3  501    0 -0.60030446951E+02  0.50047733138E+03  0.28252189110E+02  0.50485582098E+03  0.00000000000E+00 0.  1.
         -4    1    4    4    0  503  0.41479260275E+03 -0.15651903857E+02  0.12405797068E+03  0.43323003760E+03  0.00000000000E+00 0. -1.
</event>
<event>
 8    1  0.7572579E-006  0.1013558E+04  0.7818608E-02  0.8764387E-01
         21   -1    0    0  501  502  0.00000000000E+00  0.00000000000E+00  0.10807706147E+04  0.10807706147E+04  0.00000000000E+00 0.  1.
         21   -1    0    0  502  503 -0.00000000000E+00 -0.00000000000E+00 -0.10347953944E+04  0.10347953944E+04  0.00000000000E+00 0.  1.
    9000010    2    1    2  501    0  0.12671990337E+03  0.10935607374E+02  0.34199270654E+03  0.10696999308E+04  0.10055453293E+04 0.  0.
   -9000010    2    1    2    0  503 -0.12671990337E+03 -0.10935607374E+02 -0.29601748617E+03  0.10458660783E+04  0.99500350765E+03 0.  0.
        -13    1    3    3    0    0  0.41248574976E+03 -0.35502021827E+03  0.23740038010E+03  0.59375314801E+03  0.10566000000E+00 0.  1.
         13    1    4    4    0    0  0.41346966250E+03  0.48769909751E+01  0.30232847875E+02  0.41460219862E+03  0.10566000000E+00 0. -1.
          4    1    3    3  501    0 -0.28576584640E+03  0.36595582564E+03  0.10459232644E+03  0.47594678278E+03  0.00000000000E+00 0.  1.
         -4    1    4    4    0  503 -0.54018956587E+03 -0.15812598349E+02 -0.32625033404E+03  0.63126387969E+03  0.00000000000E+00 0. -1.
</event>
<event>
 8    1  0.7572579E-006  0.1012576E+04  0.7818608E-02  0.8767635E-01
         21   -1    0    0  501  502  0.00000000000E+00  0.00000000000E+00  0.12471835714E+04  0.12471835714E+04  0.00000000000E+00 0.  1.
         21   -1    0    0  502  503 -0.00000000000E+00 -0.00000000000E+00 -0.97483663141E+03  0.97483663141E+03  0.00000000000E+00 0.  1.
    9000010    2    1    2  501    0 -0.13697553072E+03 -0.13333146270E+03  0.59789291664E+03  0.11583985901E+04  0.97358706791E+03 0.  0.
   -9000010    2    1    2    0  503  0.13697553072E+03  0.13333146270E+03 -0.32554597667E+03  0.10636216127E+04  0.99436973864E+03 0.  0.
        -13    1    3    3    0    0 -0.42332444352E+03  0.21747221409E+03  0.50916158427E+03  0.69695285238E+03  0.10566000000E+00 0.  1.
         13    1    4    4    0    0 -0.39175927343E+03 -0.71137729855E+02  0.21827225140E+02  0.39876351870E+03  0.10566000000E+00 0. -1.
          4    1    3    3  501    0  0.28634891280E+03 -0.35080367679E+03  0.88731332370E+02  0.46144573771E+03  0.00000000000E+00 0.  1.
         -4    1    4    4    0  503  0.52873480415E+03  0.20446919255E+03 -0.34737320181E+03  0.66485809400E+03  0.00000000000E+00 0. -1.
</event>
<event>
 8    1  0.7572579E-006  0.1017487E+04  0.7818608E-02  0.8760913E-01
         21   -1    0    0  501  502  0.00000000000E+00  0.00000000000E+00  0.10208205592E+04  0.10208205592E+04  0.00000000000E+00 0. -1.
         21   -1    0    0  502  503 -0.00000000000E+00 -0.00000000000E+00 -0.16466599365E+04  0.16466599365E+04  0.00000000000E+00 0. -1.
    9000010    2    1    2  501    0 -0.12273269573E+03 -0.15738706516E+03  0.52193958974E+03  0.11336371049E+04  0.98634585583E+03 0.  0.
   -9000010    2    1    2    0  503  0.12273269573E+03  0.15738706516E+03 -0.11477789670E+04  0.15338433908E+04  0.99771989432E+03 0.  0.
        -13    1    3    3    0    0  0.55770516510E+01 -0.55548823928E+03  0.43707431451E+03  0.70684669841E+03  0.10566000000E+00 0.  1.
         13    1    4    4    0    0  0.18727308483E+03  0.14100626447E+03  0.12066346586E+03  0.26365442928E+03  0.10566000000E+00 0. -1.
          4    1    3    3  501    0 -0.12830974738E+03  0.39810117412E+03  0.84865275231E+02  0.42679040646E+03  0.00000000000E+00 0.  1.
         -4    1    4    4    0  503 -0.64540389106E+02  0.16380800695E+02 -0.12684424329E+04  0.12701889615E+04  0.00000000000E+00 0. -1.
</event>
<event>
 8    1  0.7572579E-006  0.1073135E+04  0.7818608E-02  0.8718925E-01
         21   -1    0    0  501  502  0.00000000000E+00  0.00000000000E+00  0.10570946928E+04  0.10570946928E+04  0.00000000000E+00 0.  1.
         21   -1    0    0  502  503 -0.00000000000E+00 -0.00000000000E+00 -0.11368284782E+04  0.11368284782E+04  0.00000000000E+00 0.  1.
    9000010    2    1    2  501    0 -0.13321913849E+03  0.34504560191E+03 -0.35551305247E+03  0.11304907137E+04  0.10073807210E+04 0.  0.
   -9000010    2    1    2    0  503  0.13321913849E+03 -0.34504560191E+03  0.27577926705E+03  0.10634324574E+04  0.95813912403E+03 0.  0.
        -13    1    3    3    0    0  0.36329584633E+03  0.15048366146E+03 -0.44050483573E+03  0.59048600812E+03  0.10566000000E+00 0.  1.
         13    1    4    4    0    0 -0.40247836327E+03 -0.27254685596E+03  0.14527088641E+03  0.50732067097E+03  0.10566000000E+00 0. -1.
          4    1    3    3  501    0 -0.49651498482E+03  0.19456194044E+03  0.84991783252E+02  0.54000470557E+03  0.00000000000E+00 0.  1.
         -4    1    4    4    0  503  0.53569750176E+03 -0.72498745948E+02  0.13050838064E+03  0.55611178640E+03  0.00000000000E+00 0. -1.
</event>
<event>
 8    1  0.7572579E-006  0.1157474E+04  0.7818608E-02  0.8661909E-01
         21   -1    0    0  503  502  0.00000000000E+00  0.00000000000E+00  0.70866635553E+03  0.70866635553E+03  0.00000000000E+00 0.  1.
         21   -1    0    0  501  503 -0.00000000000E+00 -0.00000000000E+00 -0.17585709939E+04  0.17585709939E+04  0.00000000000E+00 0.  1.
    9000010    2    1    2  501    0 -0.17281462369E+02  0.28888472198E+03 -0.30876118018E+03  0.10928137205E+04  0.10075491699E+04 0.  0.
   -9000010    2    1    2    0  502  0.17281462369E+02 -0.28888472198E+03 -0.74114345817E+03  0.13744236289E+04  0.11207112271E+04 0.  0.
        -13    1    3    3    0    0  0.16117555035E+03 -0.24369925540E+03  0.18427511448E+03  0.34543337143E+03  0.10566000000E+00 0.  1.
         13    1    4    4    0    0  0.27445245178E+03 -0.36059610629E+02 -0.92789427214E+03  0.96830379285E+03  0.10566000000E+00 0. -1.
          4    1    3    3  501    0 -0.17845701272E+03  0.53258397737E+03 -0.49303629467E+03  0.74738034909E+03  0.00000000000E+00 0.  1.
         -4    1    4    4    0  502 -0.25717098941E+03 -0.25282511135E+03  0.18675081397E+03  0.40611983606E+03  0.00000000000E+00 0. -1.
</event>
<event>
 8    1  0.7572579E-006  0.1139333E+04  0.7818608E-02  0.8667518E-01
         21   -1    0    0  501  502  0.00000000000E+00  0.00000000000E+00  0.95122718575E+03  0.95122718575E+03  0.00000000000E+00 0.  1.
         21   -1    0    0  502  503 -0.00000000000E+00 -0.00000000000E+00 -0.16953025012E+04  0.16953025012E+04  0.00000000000E+00 0.  1.
    9000010    2    1    2  501    0 -0.25946895685E+03  0.21528673199E+03  0.28657388785E+03  0.11101973411E+04  0.10182048057E+04 0.  0.
   -9000010    2    1    2    0  503  0.25946895685E+03 -0.21528673199E+03 -0.10306492033E+04  0.15363323458E+04  0.10883045438E+04 0.  0.
        -13    1    3    3    0    0 -0.54518044191E+03 -0.62708955120E+02 -0.96659927665E+02  0.55722282803E+03  0.10566000000E+00 0.  1.
         13    1    4    4    0    0 -0.29909788800E+03 -0.16808426377E+03 -0.89655389457E+03  0.95995873004E+03  0.10566000000E+00 0. -1.
          4    1    3    3  501    0  0.28571148506E+03  0.27799568711E+03  0.38323381552E+03  0.55297451307E+03  0.00000000000E+00 0.  1.
         -4    1    4    4    0  503  0.55856684485E+03 -0.47202468213E+02 -0.13409530871E+03  0.57637361580E+03  0.00000000000E+00 0. -1.
</event>
<event>
 8    1  0.7572579E-006  0.1003669E+04  0.7818608E-02  0.8785229E-01
         21   -1    0    0  501  502  0.00000000000E+00  0.00000000000E+00  0.69385470867E+03  0.69385470867E+03  0.00000000000E+00 0.  1.
         21   -1    0    0  502  503 -0.00000000000E+00 -0.00000000000E+00 -0.22928845003E+04  0.22928845003E+04  0.00000000000E+00 0.  1.
    9000010    2    1    2  501    0 -0.11520486135E+03 -0.66952989409E+02  0.16264229415E+03  0.95921874121E+03  0.93589166829E+03 0.  0.
   -9000010    2    1    2    0  503  0.11520486135E+03  0.66952989409E+02 -0.17616720857E+04  0.20275204677E+04  0.99478432161E+03 0.  0.
        -13    1    3    3    0    0  0.18478742165E+03  0.18072321352E+03 -0.27246594715E+03  0.37555954870E+03  0.10566000000E+00 0.  1.
         13    1    4    4    0    0 -0.25013406217E+02  0.51562944217E+03 -0.11081629876E+04  0.12225075094E+04  0.10566000000E+00 0. -1.
          4    1    3    3  501    0 -0.29999228300E+03 -0.24767620293E+03  0.43510824129E+03  0.58365919251E+03  0.00000000000E+00 0.  1.
         -4    1    4    4    0  503  0.14021826757E+03 -0.44867645276E+03 -0.65350909810E+03  0.80501295836E+03  0.00000000000E+00 0. -1.
</event>
<event>
 8    1  0.7572579E-006  0.9908535E+03  0.7818608E-02  0.8784145E-01
         21   -1    0    0  501  502  0.00000000000E+00  0.00000000000E+00  0.75885325914E+03  0.75885325914E+03  0.00000000000E+00 0. -1.
         21   -1    0    0  502  503 -0.00000000000E+00 -0.00000000000E+00 -0.13188866988E+04  0.13188866988E+04  0.00000000000E+00 0. -1.
    9000010    2    1    2  501    0 -0.17062189849E+03  0.11014056513E+03 -0.43749200763E+03  0.10831389527E+04  0.96981851795E+03 0.  0.
   -9000010    2    1    2    0  503  0.17062189849E+03 -0.11014056513E+03 -0.12254143201E+03  0.99460100522E+03  0.96590474722E+03 0.  0.
        -13    1    3    3    0    0 -0.21153952767E+03  0.31757245643E+03 -0.66865349300E+03  0.76986930171E+03  0.10566000000E+00 0.  1.
         13    1    4    4    0    0  0.24473987968E+03 -0.30276094716E+03 -0.45777289874E+03  0.60093080951E+03  0.10566000000E+00 0. -1.
          4    1    3    3  501    0  0.40917629177E+02 -0.20743189130E+03  0.23116148537E+03  0.31326965098E+03  0.00000000000E+00 0.  1.
         -4    1    4    4    0  503 -0.74117981184E+02  0.19262038203E+03  0.33523146673E+03  0.39367019572E+03  0.00000000000E+00 0. -1.
</event>
<event>
 8    1  0.7572579E-006  0.1077494E+04  0.7818608E-02  0.8722144E-01
         21   -1    0    0  501  502  0.00000000000E+00  0.00000000000E+00  0.33905494416E+04  0.33905494416E+04  0.00000000000E+00 0. -1.
         21   -1    0    0  502  503 -0.00000000000E+00 -0.00000000000E+00 -0.59411695130E+03  0.59411695130E+03  0.00000000000E+00 0. -1.
    9000010    2    1    2  501    0  0.22634632867E+03 -0.10911902138E+02  0.27825746841E+04  0.29839094250E+04  0.10533953929E+04 0.  0.
   -9000010    2    1    2    0  503 -0.22634632867E+03  0.10911902138E+02  0.13857806168E+02  0.10007569679E+04  0.97466442425E+03 0.  0.
        -13    1    3    3    0    0 -0.16342245286E+03 -0.40482566467E+03  0.66860330971E+03  0.79851181193E+03  0.10566000000E+00 0.  1.
         13    1    4    4    0    0  0.28443903344E+02  0.13493838228E+03 -0.44254740639E+03  0.46353601879E+03  0.10566000000E+00 0. -1.
          4    1    3    3  501    0  0.38976878153E+03  0.39391376253E+03  0.21139713744E+04  0.21853976130E+04  0.00000000000E+00 0.  1.
         -4    1    4    4    0  503 -0.25479023201E+03 -0.12402648014E+03  0.45640521256E+03  0.53722094911E+03  0.00000000000E+00 0. -1.
</event>
<event>
 8    1  0.7572579E-006  0.1063532E+04  0.7818608E-02  0.8720719E-01
         21   -1    0    0  503  502  0.00000000000E+00  0.00000000000E+00  0.13056468664E+04  0.13056468664E+04  0.00000000000E+00 0.  1.
         21   -1    0    0  501  503 -0.00000000000E+00 -0.00000000000E+00 -0.14651703626E+04  0.14651703626E+04  0.00000000000E+00 0.  1.
    9000010    2    1    2  501    0 -0.33469701186E+02 -0.25493804650E+03 -0.97569272878E+03  0.14432867108E+04  0.10319818798E+04 0.  0.
   -9000010    2    1    2    0  502  0.33469701186E+02  0.25493804650E+03  0.81616923259E+03  0.13275305183E+04  0.10149342010E+04 0.  0.
        -13    1    3    3    0    0 -0.16273454708E+03 -0.57350345802E+03 -0.26214485052E+03  0.65123627278E+03  0.10566000000E+00 0.  1.
         13    1    4    4    0    0 -0.24177465237E+03  0.21551140702E+03  0.96093427001E+03  0.10140487323E+04  0.10566000000E+00 0. -1.
          4    1    3    3  501    0  0.12926484589E+03  0.31856541152E+03 -0.71354787827E+03  0.79205043803E+03  0.00000000000E+00 0.  1.
         -4    1    4    4    0  502  0.27524435356E+03  0.39426639474E+02 -0.14476503743E+03  0.31348178596E+03  0.00000000000E+00 0. -1.
</event>
<event>
 8    1  0.7572579E-006  0.1125874E+04  0.7818608E-02  0.8664721E-01
         21   -1    0    0  501  502  0.00000000000E+00  0.00000000000E+00  0.16812999143E+04  0.16812999143E+04  0.00000000000E+00 0.  1.
         21   -1    0    0  502  503 -0.00000000000E+00 -0.00000000000E+00 -0.78014203087E+03  0.78014203087E+03  0.00000000000E+00 0.  1.
    9000010    2    1    2  501    0 -0.22670889543E+03  0.48352288728E+03  0.67808013836E+03  0.13136811543E+04  0.99034044416E+03 0.  0.
   -9000010    2    1    2    0  503  0.22670889543E+03 -0.48352288728E+03  0.22307774506E+03  0.11477607909E+04  0.99116085825E+03 0.  0.
        -13    1    3    3    0    0  0.34660708291E+03 -0.39288873604E+02  0.19373811910E+03  0.39901698644E+03  0.10566000000E+00 0.  1.
         13    1    4    4    0    0  0.39132891032E+03  0.15795508827E+03  0.23962123119E+03  0.48529009011E+03  0.10566000000E+00 0. -1.
          4    1    3    3  501    0 -0.57331597834E+03  0.52281176088E+03  0.48434201926E+03  0.91466416786E+03  0.00000000000E+00 0.  1.
         -4    1    4    4    0  503 -0.16462001489E+03 -0.64147797555E+03 -0.16543486135E+02  0.66247070075E+03  0.00000000000E+00 0. -1.
</event>
<event>
 8    1  0.7572579E-006  0.1114326E+04  0.7818608E-02  0.8685326E-01
         21   -1    0    0  503  502  0.00000000000E+00  0.00000000000E+00  0.18164358502E+04  0.18164358502E+04  0.00000000000E+00 0. -1.
         21   -1    0    0  501  503 -0.00000000000E+00 -0.00000000000E+00 -0.70314879483E+03  0.70314879483E+03  0.00000000000E+00 0. -1.
    9000010    2    1    2  501    0  0.32818435043E+03 -0.33846926860E+03  0.88626944404E+03  0.13823685326E+04  0.95036983267E+03 0.  0.
   -9000010    2    1    2    0  502 -0.32818435043E+03  0.33846926860E+03  0.22701761136E+03  0.11372161124E+04  0.10096816711E+04 0.  0.
        -13    1    3    3    0    0 -0.11436769882E+03 -0.23484790109E+03  0.89029973798E+03  0.92782926327E+03  0.10566000000E+00 0.  1.
         13    1    4    4    0    0  0.10057134970E+03 -0.24107222248E+03 -0.17248333704E+03  0.31301904982E+03  0.10566000000E+00 0. -1.
          4    1    3    3  501    0  0.44255204925E+03 -0.10362136751E+03 -0.40302939348E+01  0.45453926934E+03  0.00000000000E+00 0.  1.
         -4    1    4    4    0  502 -0.42875570013E+03  0.57954149108E+03  0.39950094840E+03  0.82419706263E+03  0.00000000000E+00 0. -1.
</event>
<event>
 8    1  0.7572579E-006  0.1095340E+04  0.7818608E-02  0.8691031E-01
         21   -1    0    0  503  502  0.00000000000E+00  0.00000000000E+00  0.82870202970E+03  0.82870202970E+03  0.00000000000E+00 0.  1.
         21   -1    0    0  501  503 -0.00000000000E+00 -0.00000000000E+00 -0.17106832928E+04  0.17106832928E+04  0.00000000000E+00 0.  1.
    9000010    2    1    2  501    0 -0.40893379315E+03 -0.20867609422E+03 -0.94673434251E+03  0.14477829392E+04  0.99448326491E+03 0.  0.
   -9000010    2    1    2    0  502  0.40893379315E+03  0.20867609422E+03  0.64753079424E+02  0.10916023833E+04  0.98824604349E+03 0.  0.
        -13    1    3    3    0    0  0.17160013908E+03 -0.12182496629E+03  0.11111966322E+03  0.23798218602E+03  0.10566000000E+00 0.  1.
         13    1    4    4    0    0 -0.20443191026E+03  0.36584568424E+03  0.16525465220E+03  0.45049370900E+03  0.10566000000E+00 0. -1.
          4    1    3    3  501    0 -0.58053393223E+03 -0.86851127927E+02 -0.10578540057E+04  0.12098007531E+04  0.00000000000E+00 0.  1.
         -4    1    4    4    0  502  0.61336570341E+03 -0.15716959002E+03 -0.10050157277E+03  0.64110867431E+03  0.00000000000E+00 0. -1.
</event>
<event>
 8    1  0.7572579E-006  0.1035735E+04  0.7818608E-02  0.8744002E-01
         21   -1    0    0  501  502  0.00000000000E+00  0.00000000000E+00  0.11568946001E+04  0.11568946001E+04  0.00000000000E+00 0. -1.
         21   -1    0    0  502  503 -0.00000000000E+00 -0.00000000000E+00 -0.97883229968E+03  0.97883229968E+03  0.00000000000E+00 0. -1.
    9000010    2    1    2  501    0 -0.16220841201E+03  0.12323117577E+03  0.35425576882E+03  0.10851124350E+04  0.10052235349E+04 0.  0.
   -9000010    2    1    2    0  503  0.16220841201E+03 -0.12323117577E+03 -0.17619346840E+03  0.10506144648E+04  0.10155043691E+04 0.  0.
        -13    1    3    3    0    0 -0.44974257684E+03  0.41709631831E+03  0.18695811960E+03  0.64124182164E+03  0.10566000000E+00 0.  1.
         13    1    4    4    0    0 -0.20100967309E+02  0.41462224677E+03 -0.23940274044E+03  0.47919655643E+03  0.10566000000E+00 0. -1.
          4    1    3    3  501    0  0.28753416483E+03 -0.29386514254E+03  0.16729764923E+03  0.44387061334E+03  0.00000000000E+00 0.  1.
         -4    1    4    4    0  503  0.18230937932E+03 -0.53785342254E+03  0.63209272039E+02  0.57141790836E+03  0.00000000000E+00 0. -1.
</event>
<event>
 8    1  0.7572579E-006  0.1100556E+04  0.7818608E-02  0.8686380E-01
         21   -1    0    0  501  502  0.00000000000E+00  0.00000000000E+00  0.10189525087E+04  0.10189525087E+04  0.00000000000E+00 0.  1.
         21   -1    0    0  502  503 -0.00000000000E+00 -0.00000000000E+00 -0.13092190824E+04  0.13092190824E+04  0.00000000000E+00 0.  1.
    9000010    2    1    2  501    0 -0.14526136976E+03 -0.44722512573E+03  0.21518341594E+03  0.11170967423E+04  0.99019697559E+03 0.  0.
   -9000010    2    1    2    0  503  0.14526136976E+03  0.44722512573E+03 -0.50544998961E+03  0.12110748488E+04  0.99504342562E+03 0.  0.
        -13    1    3    3    0    0 -0.23426134254E+02  0.14345578703E+03  0.44770586459E+03  0.47071105675E+03  0.10566000000E+00 0.  1.
         13    1    4    4    0    0 -0.29953631168E+03  0.29473836862E+03  0.11206607432E+03  0.43491553677E+03  0.10566000000E+00 0. -1.
          4    1    3    3  501    0 -0.12183523550E+03 -0.59068091276E+03 -0.23252244866E+03  0.64638568551E+03  0.00000000000E+00 0.  1.
         -4    1    4    4    0  503  0.44479768143E+03  0.15248675711E+03 -0.61751606393E+03  0.77615931207E+03  0.00000000000E+00 0. -1.
</event>
<event>
 8    1  0.7572579E-006  0.1014219E+04  0.7818608E-02  0.8764702E-01
         21   -1    0    0  501  502  0.00000000000E+00  0.00000000000E+00  0.38148289581E+04  0.38148289581E+04  0.00000000000E+00 0. -1.
         21   -1    0    0  502  503 -0.00000000000E+00 -0.00000000000E+00 -0.28566297224E+03  0.28566297224E+03  0.00000000000E+00 0. -1.
    9000010    2    1    2  501    0  0.83596784767E+02  0.15750552448E+03  0.23166714983E+04  0.25289536174E+04  0.99842032976E+03 0.  0.
   -9000010    2    1    2    0  503 -0.83596784767E+02 -0.15750552448E+03  0.12124944876E+04  0.15715383130E+04  0.98376489785E+03 0.  0.
        -13    1    3    3    0    0 -0.38810658044E+03 -0.70387893922E+02  0.49212440917E+03  0.63068821033E+03  0.10566000000E+00 0.  1.
         13    1    4    4    0    0  0.20963753450E+03 -0.24168331358E+02  0.12309275138E+04  0.12488853268E+04  0.10566000000E+00 0. -1.
          4    1    3    3  501    0  0.47170336521E+03  0.22789341840E+03  0.18245470892E+04  0.18982654070E+04  0.00000000000E+00 0.  1.
         -4    1    4    4    0  503 -0.29323431927E+03 -0.13333719312E+03 -0.18433026220E+02  0.32265298623E+03  0.00000000000E+00 0. -1.
</event>
<event>
 8    1  0.7572579E-006  0.1070200E+04  0.7818608E-02  0.8713094E-01
         21   -1    0    0  503  502  0.00000000000E+00  0.00000000000E+00  0.10582622470E+04  0.10582622470E+04  0.00000000000E+00 0. -1.
         21   -1    0    0  501  503 -0.00000000000E+00 -0.00000000000E+00 -0.11294889563E+04  0.11294889563E+04  0.00000000000E+00 0. -1.
    9000010    2    1    2  501    0  0.21651965566E+03 -0.28971433677E+03 -0.27816435796E+03  0.10977273147E+04  0.99840607427E+03 0.  0.
   -9000010    2    1    2    0  502 -0.21651965566E+03  0.28971433677E+03  0.20693764863E+03  0.10900238885E+04  0.10072307228E+04 0.  0.
        -13    1    3    3    0    0  0.11266737619E+03 -0.46782521511E+03  0.24168494085E+03  0.53848490355E+03  0.10566000000E+00 0.  1.
         13    1    4    4    0    0  0.85382966655E+02  0.53364143344E+03  0.38445285029E+03  0.66322502647E+03  0.10566000000E+00 0. -1.
          4    1    3    3  501    0  0.10385227947E+03  0.17811087835E+03 -0.51984929881E+03  0.55924241113E+03  0.00000000000E+00 0.  1.
         -4    1    4    4    0  502 -0.30190262231E+03 -0.24392709667E+03 -0.17751520166E+03  0.42679886208E+03  0.00000000000E+00 0. -1.
</event>
<event>
 8    1  0.7572579E-006  0.1016039E+04  0.7818608E-02  0.8766116E-01
         21   -1    0    0  503  502  0.00000000000E+00  0.00000000000E+00  0.62603329246E+03  0.62603329246E+03  0.00000000000E+00 0.  1.
         21   -1    0    0  501  503 -0.00000000000E+00 -0.00000000000E+00 -0.16087153481E+04  0.16087153481E+04  0.00000000000E+00 0.  1.
    9000010    2    1    2  501    0  0.79729647690E+02 -0.13220606350E+03 -0.44115303763E+03  0.11076781983E+04  0.10042408717E+04 0.  0.
   -9000010    2    1    2    0  502 -0.79729647690E+02  0.13220606350E+03 -0.54152901798E+03  0.11270704422E+04  0.97631902804E+03 0.  0.
        -13    1    3    3    0    0  0.43046056916E+03 -0.27820859058E+03  0.16604159995E+02  0.51280798626E+03  0.10566000000E+00 0.  1.
         13    1    4    4    0    0  0.66296139032E+02 -0.41568736574E+03 -0.21321568438E+03  0.47186025825E+03  0.10566000000E+00 0. -1.
          4    1    3    3  501    0 -0.35073092147E+03  0.14600252708E+03 -0.45775719763E+03  0.59487021204E+03  0.00000000000E+00 0.  1.
         -4    1    4    4    0  502 -0.14602578672E+03  0.54789342924E+03 -0.32831333360E+03  0.65521018400E+03  0.00000000000E+00 0. -1.
</event>
<event>
 8    1  0.7572579E-006  0.1043233E+04  0.7818608E-02  0.8739457E-01
         21   -1    0    0  501  502  0.00000000000E+00  0.00000000000E+00  0.14128537432E+04  0.14128537432E+04  0.00000000000E+00 0. -1.
         21   -1    0    0  502  503 -0.00000000000E+00 -0.00000000000E+00 -0.82573804081E+03  0.82573804081E+03  0.00000000000E+00 0. -1.
    9000010    2    1    2  501    0 -0.20971669891E+03  0.60324243613E+02  0.62192523280E+03  0.12145479315E+04  0.10201546817E+04 0.  0.
   -9000010    2    1    2    0  503  0.20971669891E+03 -0.60324243613E+02 -0.34809530369E+02  0.10240438525E+04  0.99991699672E+03 0.  0.
        -13    1    3    3    0    0 -0.33707622001E+03 -0.11017703302E+03  0.83880772157E+03  0.91069081561E+03  0.10566000000E+00 0.  1.
         13    1    4    4    0    0  0.74434039752E+02 -0.10132400158E+03  0.47688646077E+03  0.49318119104E+03  0.10566000000E+00 0. -1.
          4    1    3    3  501    0  0.12735952109E+03  0.17050127663E+03 -0.21688248878E+03  0.30385711590E+03  0.00000000000E+00 0.  1.
         -4    1    4    4    0  503  0.13528265916E+03  0.40999757971E+02 -0.51169599113E+03  0.53086266149E+03  0.00000000000E+00 0. -1.
</event>
<event>
 8    1  0.7572579E-006  0.1160063E+04  0.7818608E-02  0.8637366E-01
         21   -1    0    0  501  502  0.00000000000E+00  0.00000000000E+00  0.62881675279E+03  0.62881675279E+03  0.00000000000E+00 0.  1.
         21   -1    0    0  502  503 -0.00000000000E+00 -0.00000000000E+00 -0.25398088946E+04  0.25398088946E+04  0.00000000000E+00 0.  1.
    9000010    2    1    2  501    0 -0.40222511487E+03 -0.43034782751E+03 -0.32639965835E+03  0.12051069768E+04  0.99938070473E+03 0.  0.
   -9000010    2    1    2    0  503  0.40222511487E+03  0.43034782751E+03 -0.15845924834E+04  0.19635186705E+04  0.99874317782E+03 0.  0.
        -13    1    3    3    0    0  0.17196782404E+03  0.38757074207E+02 -0.42216574749E+03  0.45749204673E+03  0.10566000000E+00 0.  1.
         13    1    4    4    0    0 -0.12676857935E+03  0.49833288494E+03 -0.12013222247E+04  0.13067444416E+04  0.10566000000E+00 0. -1.
          4    1    3    3  501    0 -0.57419293890E+03 -0.46910490172E+03  0.95766089137E+02  0.74761493011E+03  0.00000000000E+00 0.  1.
         -4    1    4    4    0  503  0.52899369421E+03 -0.67985057432E+02 -0.38327025874E+03  0.65677422893E+03  0.00000000000E+00 0. -1.
</event>
<event>
 8    1  0.7572579E-006  0.1045143E+04  0.7818608E-02  0.8739429E-01
         21   -1    0    0  501  502  0.00000000000E+00  0.00000000000E+00  0.89392785129E+03  0.89392785129E+03  0.00000000000E+00 0. -1.
         21   -1    0    0  502  503 -0.00000000000E+00 -0.00000000000E+00 -0.14702638145E+04  0.14702638145E+04  0.00000000000E+00 0. -1.
    9000010    2    1    2  501    0  0.18289873323E+03 -0.15063306705E+03  0.23062043042E+03  0.10437744175E+04  0.99001867871E+03 0.  0.
   -9000010    2    1    2    0  503 -0.18289873323E+03  0.15063306705E+03 -0.80695639363E+03  0.13204172483E+04  0.10179296738E+04 0.  0.
        -13    1    3    3    0    0  0.24799069173E+03  0.38017095666E+03 -0.17490954108E+02  0.45424143813E+03  0.10566000000E+00 0.  1.
         13    1    4    4    0    0 -0.49318468771E+03  0.18979862567E+02 -0.84769164061E+03  0.98090391991E+03  0.10566000000E+00 0. -1.
          4    1    3    3  501    0 -0.65091958500E+02 -0.53080402370E+03  0.24811138453E+03  0.58953297938E+03  0.00000000000E+00 0.  1.
         -4    1    4    4    0  503  0.31028595448E+03  0.13165320448E+03  0.40735246987E+02  0.33951332837E+03  0.00000000000E+00 0. -1.
</event>
<event>
 8    1  0.7572579E-006  0.1043964E+04  0.7818608E-02  0.8745287E-01
         21   -1    0    0  503  502  0.00000000000E+00  0.00000000000E+00  0.72728659408E+03  0.72728659408E+03  0.00000000000E+00 0. -1.
         21   -1    0    0  501  503 -0.00000000000E+00 -0.00000000000E+00 -0.16177594793E+04  0.16177594793E+04  0.00000000000E+00 0. -1.
    9000010    2    1    2  501    0  0.43860100071E+02  0.28377646261E+03 -0.83471017839E+03  0.12995942343E+04  0.95380883980E+03 0.  0.
   -9000010    2    1    2    0  502 -0.43860100071E+02 -0.28377646261E+03 -0.55762706775E+02  0.10454518390E+04  0.10036968064E+04 0.  0.
        -13    1    3    3    0    0  0.38999133408E+03  0.38091869248E+03 -0.22080852176E+03  0.58817404345E+03  0.10566000000E+00 0.  1.
         13    1    4    4    0    0 -0.37850895838E+03  0.21969753333E+03 -0.53460287532E+02  0.44090140761E+03  0.10566000000E+00 0. -1.
          4    1    3    3  501    0 -0.34613123401E+03 -0.97142229867E+02 -0.61390165663E+03  0.71142019088E+03  0.00000000000E+00 0.  1.
         -4    1    4    4    0  502  0.33464885831E+03 -0.50347399595E+03 -0.23024192428E+01  0.60455043139E+03  0.00000000000E+00 0. -1.
</event>
<event>
 8    1  0.7572579E-006  0.1007561E+04  0.7818608E-02  0.8768200E-01
         21   -1    0    0  501  502  0.00000000000E+00  0.00000000000E+00  0.22638914417E+04  0.22638914417E+04  0.00000000000E+00 0.  1.
         21   -1    0    0  502  503 -0.00000000000E+00 -0.00000000000E+00 -0.50242097518E+03  0.50242097518E+03  0.00000000000E+00 0.  1.
    9000010    2    1    2  501    0  0.18601643039E+03  0.52550832410E+02  0.13407388239E+04  0.16771286192E+04  0.98884584692E+03 0.  0.
   -9000010    2    1    2    0  503 -0.18601643039E+03 -0.52550832410E+02  0.42073164260E+03  0.10891837977E+04  0.98587145598E+03 0.  0.
        -13    1    3    3    0    0  0.13652408554E+03  0.87969954469E+02 -0.12821052784E+03  0.20691904077E+03  0.10566000000E+00 0.  1.
         13    1    4    4    0    0 -0.28432536930E+03 -0.26094397449E+03 -0.19454222415E+03  0.43217977925E+03  0.10566000000E+00 0. -1.
          4    1    3    3  501    0  0.49492344851E+02 -0.35419122059E+02  0.14689493518E+04  0.14702095784E+04  0.00000000000E+00 0.  1.
         -4    1    4    4    0  503  0.98308938914E+02  0.20839314208E+03  0.61527386675E+03  0.65700401844E+03  0.00000000000E+00 0. -1.
</event>
<event>
 8    1  0.7572579E-006  0.1083971E+04  0.7818608E-02  0.8704584E-01
         21   -1    0    0  503  502  0.00000000000E+00  0.00000000000E+00  0.14622994961E+04  0.14622994961E+04  0.00000000000E+00 0.  1.
         21   -1    0    0  501  503 -0.00000000000E+00 -0.00000000000E+00 -0.90029765780E+03  0.90029765780E+03  0.00000000000E+00 0.  1.
    9000010    2    1    2  501    0  0.34485797293E+03 -0.41772839681E+02 -0.13714177476E+03  0.10926115135E+04  0.10268008869E+04 0.  0.
   -9000010    2    1    2    0  502 -0.34485797293E+03  0.41772839681E+02  0.69914361309E+03  0.12699856405E+04  0.10016934379E+04 0.  0.
        -13    1    3    3    0    0  0.45449736248E+03  0.28718922701E+03  0.23253314080E+03  0.58576204840E+03  0.10566000000E+00 0.  1.
         13    1    4    4    0    0 -0.45498218671E+03 -0.20660000037E+02  0.91366875389E+03  0.10208948177E+04  0.10566000000E+00 0. -1.
          4    1    3    3  501    0 -0.10963938955E+03 -0.32896206669E+03 -0.36967491555E+03  0.50684946508E+03  0.00000000000E+00 0.  1.
         -4    1    4    4    0  502  0.11012421378E+03  0.62432839718E+02 -0.21452514080E+03  0.24909082274E+03  0.00000000000E+00 0. -1.
</event>
<event>
 8    1  0.7572579E-006  0.1020901E+04  0.7818608E-02  0.8755573E-01
         21   -1    0    0  503  502  0.00000000000E+00  0.00000000000E+00  0.63760043019E+03  0.63760043019E+03  0.00000000000E+00 0. -1.
         21   -1    0    0  501  503 -0.00000000000E+00 -0.00000000000E+00 -0.16427837503E+04  0.16427837503E+04  0.00000000000E+00 0. -1.
    9000010    2    1    2  501    0 -0.17012708503E+03  0.12703882559E+03 -0.59455479870E+03  0.11799955681E+04  0.99690122074E+03 0.  0.
   -9000010    2    1    2    0  502  0.17012708503E+03 -0.12703882559E+03 -0.41062852144E+03  0.11003886124E+04  0.99857760208E+03 0.  0.
        -13    1    3    3    0    0 -0.10054083054E+03  0.31769672013E+03 -0.81491372350E+03  0.88041129735E+03  0.10566000000E+00 0.  1.
         13    1    4    4    0    0  0.41111622527E+03 -0.26111867212E+03 -0.59480856547E+03  0.76876313149E+03  0.10566000000E+00 0. -1.
          4    1    3    3  501    0 -0.69586254495E+02 -0.19065789454E+03  0.22035892480E+03  0.29958427079E+03  0.00000000000E+00 0.  1.
         -4    1    4    4    0  502 -0.24098914024E+03  0.13407984653E+03  0.18418004403E+03  0.33162548089E+03  0.00000000000E+00 0. -1.
</event>
<event>
 8    1  0.7572579E-006  0.1035327E+04  0.7818608E-02  0.8760143E-01
         21   -1    0    0  503  502  0.00000000000E+00  0.00000000000E+00  0.23614448445E+04  0.23614448445E+04  0.00000000000E+00 0.  1.
         21   -1    0    0  501  503 -0.00000000000E+00 -0.00000000000E+00 -0.54194601513E+03  0.54194601513E+03  0.00000000000E+00 0.  1.
    9000010    2    1    2  501    0 -0.13052418554E+03  0.10237627686E+03  0.25104933677E+03  0.10653296353E+04  0.10219510738E+04 0.  0.
   -9000010    2    1    2    0  502  0.13052418554E+03 -0.10237627686E+03  0.15684494926E+04  0.18380612243E+04  0.94388441473E+03 0.  0.
        -13    1    3    3    0    0  0.37407922833E+03  0.28136844507E+03  0.24840587189E+03  0.52991410559E+03  0.10566000000E+00 0.  1.
         13    1    4    4    0    0  0.15215691528E+03  0.36404267153E+03  0.11324845679E+04  0.11992498077E+04  0.10566000000E+00 0. -1.
          4    1    3    3  501    0 -0.50460341388E+03 -0.17899216821E+03  0.26434648805E+01  0.53541552974E+03  0.00000000000E+00 0.  1.
         -4    1    4    4    0  502 -0.21632729735E+02 -0.46641894839E+03  0.43596492469E+03  0.63881141660E+03  0.00000000000E+00 0. -1.
</event>
<event>
 8    1  0.7572579E-006  0.1015916E+04  0.7818608E-02  0.8760246E-01
         21   -1    0    0  501  502  0.00000000000E+00  0.00000000000E+00  0.11777058453E+04  0.11777058453E+04  0.00000000000E+00 0.  1.
         21   -1    0    0  502  503 -0.00000000000E+00 -0.00000000000E+00 -0.92810964642E+03  0.92810964642E+03  0.00000000000E+00 0.  1.
    9000010    2    1    2  501    0  0.14684704386E+03 -0.12875357476E+03  0.37771177516E+03  0.10838591903E+04  0.99696691114E+03 0.  0.
   -9000010    2    1    2    0  503 -0.14684704386E+03  0.12875357476E+03 -0.12811557629E+03  0.10219563015E+04  0.99490680161E+03 0.  0.
        -13    1    3    3    0    0 -0.18001476980E+03 -0.96525380146E+02  0.63474047370E+03  0.66679678050E+03  0.10566000000E+00 0.  1.
         13    1    4    4    0    0 -0.45876888089E+03  0.39365045569E+03 -0.67466661733E+02  0.60826090532E+03  0.10566000000E+00 0. -1.
          4    1    3    3  501    0  0.32686181366E+03 -0.32228194616E+02 -0.25702869854E+03  0.41706240976E+03  0.00000000000E+00 0.  1.
         -4    1    4    4    0  503  0.31192183703E+03 -0.26489688092E+03 -0.60648914554E+02  0.41369539613E+03  0.00000000000E+00 0. -1.
</event>
<event>
 8    1  0.7572579E-006  0.1030864E+04  0.7818608E-02  0.8747791E-01
         21   -1    0    0  501  502  0.00000000000E+00  0.00000000000E+00  0.13479011363E+04  0.13479011363E+04  0.00000000000E+00 0.  1.
         21   -1    0    0  502  503 -0.00000000000E+00 -0.00000000000E+00 -0.81447918135E+03  0.81447918135E+03  0.00000000000E+00 0.  1.
    9000010    2    1    2  501    0 -0.21194724948E+03 -0.11494114274E+03  0.54354956488E+02  0.10322962674E+04  0.10022714301E+04 0.  0.
   -9000010    2    1    2    0  503  0.21194724948E+03  0.11494114274E+03  0.47906699850E+03  0.11300840503E+04  0.99471185212E+03 0.  0.
        -13    1    3    3    0    0 -0.14065768728E+03  0.37561978840E+03  0.27846117700E+03  0.48827804445E+03  0.10566000000E+00 0.  1.
         13    1    4    4    0    0 -0.30320439002E+03  0.29578214259E+03  0.32648268568E+02  0.42483631979E+03  0.10566000000E+00 0. -1.
          4    1    3    3  501    0 -0.71289562197E+02 -0.49056093115E+03 -0.22410622051E+03  0.54401822296E+03  0.00000000000E+00 0.  1.
         -4    1    4    4    0  503  0.51515163950E+03 -0.18084099985E+03  0.44641872993E+03  0.70524773048E+03  0.00000000000E+00 0. -1.
</event>
<event>
 8    1  0.7572579E-006  0.1029250E+04  0.7818608E-02  0.8748361E-01
         21   -1    0    0  501  502  0.00000000000E+00  0.00000000000E+00  0.80600812643E+03  0.80600812643E+03  0.00000000000E+00 0.  1.
         21   -1    0    0  502  503 -0.00000000000E+00 -0.00000000000E+00 -0.13108664688E+04  0.13108664688E+04  0.00000000000E+00 0.  1.
    9000010    2    1    2  501    0  0.19720025353E+03 -0.10792843687E+03 -0.22504540372E+03  0.10535658342E+04  0.10043998436E+04 0.  0.
   -9000010    2    1    2    0  503 -0.19720025353E+03  0.10792843687E+03 -0.27981293869E+03  0.10633087610E+04  0.10008964747E+04 0.  0.
        -13    1    3    3    0    0  0.27320877774E+03 -0.30510515375E+03 -0.53787577281E+03  0.67604922101E+03  0.10566000000E+00 0.  1.
         13    1    4    4    0    0 -0.56108302035E+03  0.19923231770E+03 -0.19465280820E+00  0.59540550988E+03  0.10566000000E+00 0. -1.
          4    1    3    3  501    0 -0.76008524213E+02  0.19717671688E+03  0.31283036909E+03  0.37751661323E+03  0.00000000000E+00 0.  1.
         -4    1    4    4    0  503  0.36388276682E+03 -0.91303880828E+02 -0.27961828589E+03  0.46790325116E+03  0.00000000000E+00 0. -1.
</event>
<event>
 8    1  0.7572579E-006  0.1147211E+04  0.7818608E-02  0.8647780E-01
         21   -1    0    0  501  502  0.00000000000E+00  0.00000000000E+00  0.19379853881E+04  0.19379853881E+04  0.00000000000E+00 0. -1.
         21   -1    0    0  502  503 -0.00000000000E+00 -0.00000000000E+00 -0.17224658652E+04  0.17224658652E+04  0.00000000000E+00 0. -1.
    9000010    2    1    2  501    0 -0.88833472880E+01  0.57372502755E+03  0.15329918800E+04  0.19147210046E+04  0.99340480168E+03 0.  0.
   -9000010    2    1    2    0  503  0.88833472880E+01 -0.57372502755E+03 -0.13174723572E+04  0.17457302487E+04  0.99126251226E+03 0.  0.
        -13    1    3    3    0    0 -0.36591207481E+03  0.40941103552E+03  0.31094368554E+03  0.63102696395E+03  0.10566000000E+00 0.  1.
         13    1    4    4    0    0  0.29488333584E+02  0.17339913689E+03 -0.84138067048E+03  0.85956865131E+03  0.10566000000E+00 0. -1.
          4    1    3    3  501    0  0.35702872752E+03  0.16431399203E+03  0.12220481945E+04  0.12836940406E+04  0.00000000000E+00 0.  1.
         -4    1    4    4    0  503 -0.20604986296E+02 -0.74712416444E+03 -0.47609168668E+03  0.88616159738E+03  0.00000000000E+00 0. -1.
</event>
<event>
 8    1  0.7719217E-006  0.1043803E+04  0.7818608E-02  0.8734653E-01
         21   -1    0    0  503  502  0.00000000000E+00  0.00000000000E+00  0.95724145868E+03  0.95724145868E+03  0.00000000000E+00 0. -1.
         21   -1    0    0  501  503 -0.00000000000E+00 -0.00000000000E+00 -0.11738285049E+04  0.11738285049E+04  0.00000000000E+00 0. -1.
    9000010    2    1    2  501    0  0.31402885982E+03  0.90478531522E+01 -0.29605588771E+03  0.10849760550E+04  0.99540341718E+03 0.  0.
   -9000010    2    1    2    0  502 -0.31402885982E+03 -0.90478531522E+01  0.79468841459E+02  0.10460939086E+04  0.99463620502E+03 0.  0.
        -13    1    3    3    0    0  0.47430576697E+01  0.30722291888E+03 -0.51735414721E+03  0.60171732839E+03  0.10566000000E+00 0.  1.
         13    1    4    4    0    0 -0.26538905316E+03 -0.30243753941E+03 -0.34349354718E+03  0.52904408408E+03  0.10566000000E+00 0. -1.
          4    1    3    3  501    0  0.30928580215E+03 -0.29817506573E+03  0.22129825950E+03  0.48325872665E+03  0.00000000000E+00 0.  1.
         -4    1    4    4    0  502 -0.48639806656E+02  0.29338968626E+03  0.42296238864E+03  0.51704982449E+03  0.00000000000E+00 0. -1.
</event>
<event>
 8    1  0.7572579E-006  0.1055182E+04  0.7818608E-02  0.8724703E-01
         21   -1    0    0  501  502  0.00000000000E+00  0.00000000000E+00  0.20681392785E+04  0.20681392785E+04  0.00000000000E+00 0. -1.
         21   -1    0    0  502  503 -0.00000000000E+00 -0.00000000000E+00 -0.58124093292E+03  0.58124093292E+03  0.00000000000E+00 0. -1.
    9000010    2    1    2  501    0 -0.20028590792E+03 -0.27004294165E+03  0.11057067141E+04  0.15274547361E+04  0.99874571242E+03 0.  0.
   -9000010    2    1    2    0  503  0.20028590792E+03  0.27004294165E+03  0.38119163154E+03  0.11219254753E+04  0.10001860212E+04 0.  0.
        -13    1    3    3    0    0 -0.21097133032E+03 -0.67988916414E+02  0.12559988889E+04  0.12754076270E+04  0.10566000000E+00 0.  1.
         13    1    4    4    0    0 -0.13441289937E+03  0.33880817464E+03  0.61006897019E+03  0.71066304694E+03  0.10566000000E+00 0. -1.
          4    1    3    3  501    0  0.10685422401E+02 -0.20205402524E+03 -0.15029217485E+03  0.25204710907E+03  0.00000000000E+00 0.  1.
         -4    1    4    4    0  503  0.33469880729E+03 -0.68765232986E+02 -0.22887733866E+03  0.41126242841E+03  0.00000000000E+00 0. -1.
</event>
<event>
 8    1  0.7572579E-006  0.1191615E+04  0.7818608E-02  0.8617980E-01
         21   -1    0    0  503  502  0.00000000000E+00  0.00000000000E+00  0.23506126375E+04  0.23506126375E+04  0.00000000000E+00 0.  1.
         21   -1    0    0  501  503 -0.00000000000E+00 -0.00000000000E+00 -0.80695356881E+03  0.80695356881E+03  0.00000000000E+00 0.  1.
    9000010    2    1    2  501    0  0.33922509571E+03 -0.49704885938E+03 -0.38991646693E+02  0.11922524902E+04  0.10285010538E+04 0.  0.
   -9000010    2    1    2    0  502 -0.33922509571E+03  0.49704885938E+03  0.15826507154E+04  0.19653137162E+04  0.99776925281E+03 0.  0.
        -13    1    3    3    0    0  0.94287893106E+02 -0.76896546480E+03  0.13604575611E+03  0.78657901813E+03  0.10566000000E+00 0.  1.
         13    1    4    4    0    0 -0.59257748310E+03  0.16218465009E+03  0.46236054756E+03  0.76891431337E+03  0.10566000000E+00 0. -1.
          4    1    3    3  501    0  0.24493720261E+03  0.27191660542E+03 -0.17503740281E+03  0.40567347203E+03  0.00000000000E+00 0.  1.
         -4    1    4    4    0  502  0.25335238739E+03  0.33486420930E+03  0.11202901679E+04  0.11963994028E+04  0.00000000000E+00 0. -1.
</event>
<event>
 8    1  0.7697008E-006  0.1017575E+04  0.7818608E-02  0.8760963E-01
         21   -1    0    0  501  502  0.00000000000E+00  0.00000000000E+00  0.70313173191E+03  0.70313173191E+03  0.00000000000E+00 0. -1.
         21   -1    0    0  502  503 -0.00000000000E+00 -0.00000000000E+00 -0.14594334590E+04  0.14594334590E+04  0.00000000000E+00 0. -1.
    9000010    2    1    2  501    0  0.11761831563E+03  0.86886366868E+02 -0.32151450889E+03  0.10559940081E+04  0.99517257643E+03 0.  0.
   -9000010    2    1    2    0  503 -0.11761831563E+03 -0.86886366868E+02 -0.43478721822E+03  0.11065711828E+04  0.10070136784E+04 0.  0.
        -13    1    3    3    0    0  0.33062822137E+03  0.24001099587E+03 -0.56555957785E+03  0.69769473709E+03  0.10566000000E+00 0.  1.
         13    1    4    4    0    0 -0.59591572954E+02  0.34035417841E+03 -0.55962228080E+03  0.65769995488E+03  0.10566000000E+00 0. -1.
          4    1    3    3  501    0 -0.21300990574E+03 -0.15312462900E+03  0.24404506896E+03  0.35829927105E+03  0.00000000000E+00 0.  1.
         -4    1    4    4    0  503 -0.58026742674E+02 -0.42724054527E+03  0.12483506258E+03  0.44887122790E+03  0.00000000000E+00 0. -1.
</event>
<event>
 8    1  0.7572579E-006  0.1026251E+04  0.7818608E-02  0.8756206E-01
         21   -1    0    0  503  502  0.00000000000E+00  0.00000000000E+00  0.71178887473E+03  0.71178887473E+03  0.00000000000E+00 0. -1.
         21   -1    0    0  501  503 -0.00000000000E+00 -0.00000000000E+00 -0.15088391796E+04  0.15088391796E+04  0.00000000000E+00 0. -1.
    9000010    2    1    2  501    0 -0.42739233933E+02 -0.70608305664E+02 -0.62559687584E+03  0.11801530137E+04  0.99728506945E+03 0.  0.
   -9000010    2    1    2    0  502  0.42739233933E+02  0.70608305664E+02 -0.17145342900E+03  0.10404750406E+04  0.10229271024E+04 0.  0.
        -13    1    3    3    0    0  0.41915204553E+03 -0.43866766471E+02 -0.25229922120E+02  0.42219579653E+03  0.10566000000E+00 0.  1.
         13    1    4    4    0    0 -0.27353375644E+02  0.37044966661E+03 -0.47841006624E+03  0.60568751456E+03  0.10566000000E+00 0. -1.
          4    1    3    3  501    0 -0.46189127946E+03 -0.26741539193E+02 -0.60036695372E+03  0.75795721718E+03  0.00000000000E+00 0.  1.
         -4    1    4    4    0  502  0.70092609577E+02 -0.29984136094E+03  0.30695663724E+03  0.43478752604E+03  0.00000000000E+00 0. -1.
</event>
<event>
 8    1  0.7572579E-006  0.1008612E+04  0.7818608E-02  0.8770700E-01
         21   -1    0    0  501  502  0.00000000000E+00  0.00000000000E+00  0.13158067138E+04  0.13158067138E+04  0.00000000000E+00 0.  1.
         21   -1    0    0  502  503 -0.00000000000E+00 -0.00000000000E+00 -0.78524242744E+03  0.78524242744E+03  0.00000000000E+00 0.  1.
    9000010    2    1    2  501    0  0.93646189886E+02  0.41202715832E+01  0.77768177649E+02  0.10116052434E+04  0.10042463311E+04 0.  0.
   -9000010    2    1    2    0  503 -0.93646189886E+02 -0.41202715832E+01  0.45279610874E+03  0.10894438979E+04  0.98644670661E+03 0.  0.
        -13    1    3    3    0    0 -0.41454887478E+03  0.18156611217E+03 -0.58523218011E+02  0.45633540393E+03  0.10566000000E+00 0.  1.
         13    1    4    4    0    0 -0.38923641594E+03 -0.27326195871E+03 -0.12826887224E+02  0.47575374489E+03  0.10566000000E+00 0. -1.
          4    1    3    3  501    0  0.50819506467E+03 -0.17744584058E+03  0.13629139566E+03  0.55526983947E+03  0.00000000000E+00 0.  1.
         -4    1    4    4    0  503  0.29559022606E+03  0.26914168712E+03  0.46562299596E+03  0.61369015297E+03  0.00000000000E+00 0. -1.
</event>
<event>
 8    1  0.7572579E-006  0.1090180E+04  0.7818608E-02  0.8696030E-01
         21   -1    0    0  501  502  0.00000000000E+00  0.00000000000E+00  0.31489895744E+04  0.31489895744E+04  0.00000000000E+00 0. -1.
         21   -1    0    0  502  503 -0.00000000000E+00 -0.00000000000E+00 -0.48285471386E+03  0.48285471386E+03  0.00000000000E+00 0. -1.
    9000010    2    1    2  501    0  0.42258296056E+03 -0.11254141242E+03  0.21976859803E+04  0.24532254834E+04  0.99862389132E+03 0.  0.
   -9000010    2    1    2    0  503 -0.42258296056E+03  0.11254141242E+03  0.46844888024E+03  0.11786188049E+04  0.98916935139E+03 0.  0.
        -13    1    3    3    0    0 -0.22498459064E+02  0.34874290591E+03  0.13256930380E+04  0.13709813410E+04  0.10566000000E+00 0.  1.
         13    1    4    4    0    0 -0.11909518057E+03 -0.40697060403E+03  0.38209019258E+03  0.57079038272E+03  0.10566000000E+00 0. -1.
          4    1    3    3  501    0  0.44508141962E+03 -0.46128431834E+03  0.87199294233E+03  0.10822441425E+04  0.00000000000E+00 0.  1.
         -4    1    4    4    0  503 -0.30348777998E+03  0.51951201645E+03  0.86358687662E+02  0.60782842215E+03  0.00000000000E+00 0. -1.
</event>
<event>
 8    1  0.7572579E-006  0.1135693E+04  0.7818608E-02  0.8663797E-01
         21   -1    0    0  501  502  0.00000000000E+00  0.00000000000E+00  0.23263153768E+04  0.23263153768E+04  0.00000000000E+00 0.  1.
         21   -1    0    0  502  503 -0.00000000000E+00 -0.00000000000E+00 -0.79334585478E+03  0.79334585478E+03  0.00000000000E+00 0.  1.
    9000010    2    1    2  501    0  0.45799212937E+03 -0.28198468311E+03  0.16441360383E+04  0.19785405979E+04  0.96029549257E+03 0.  0.
   -9000010    2    1    2    0  503 -0.45799212937E+03  0.28198468311E+03 -0.11116651624E+03  0.11411206337E+04  0.10002630425E+04 0.  0.
        -13    1    3    3    0    0  0.37667134742E+03  0.27338465856E+03  0.11103876365E+04  0.12039855439E+04  0.10566000000E+00 0.  1.
         13    1    4    4    0    0 -0.38551217093E+03  0.11882501085E+03  0.41903883833E+03  0.58166362817E+03  0.10566000000E+00 0. -1.
          4    1    3    3  501    0  0.81320781951E+02 -0.55536934167E+03  0.53374840181E+03  0.77455505400E+03  0.00000000000E+00 0.  1.
         -4    1    4    4    0  503 -0.72479958440E+02  0.16315967226E+03 -0.53020535457E+03  0.55945700554E+03  0.00000000000E+00 0. -1.
</event>
<event>
 8    1  0.7572579E-006  0.1038365E+04  0.7818608E-02  0.8761124E-01
         21   -1    0    0  501  502  0.00000000000E+00  0.00000000000E+00  0.50663800719E+03  0.50663800719E+03  0.00000000000E+00 0.  1.
         21   -1    0    0  502  503 -0.00000000000E+00 -0.00000000000E+00 -0.22296993063E+04  0.22296993063E+04  0.00000000000E+00 0.  1.
    9000010    2    1    2  501    0  0.24295828235E+02  0.21696706920E+03 -0.40637319887E+03  0.11150517803E+04  0.10151533380E+04 0.  0.
   -9000010    2    1    2    0  503 -0.24295828235E+02 -0.21696706920E+03 -0.13166881002E+04  0.16212855331E+04  0.92045327440E+03 0.  0.
        -13    1    3    3    0    0  0.51446295099E+03  0.63458765797E+02 -0.26571730345E+03  0.58249878920E+03  0.10566000000E+00 0.  1.
         13    1    4    4    0    0  0.19102579977E+03  0.27670077249E+03 -0.22677481217E+03  0.40556257257E+03  0.10566000000E+00 0. -1.
          4    1    3    3  501    0 -0.49016712275E+03  0.15350830341E+03 -0.14065589542E+03  0.53255299113E+03  0.00000000000E+00 0.  1.
         -4    1    4    4    0  503 -0.21532162800E+03 -0.49366784169E+03 -0.10899132880E+04  0.12157229606E+04  0.00000000000E+00 0. -1.
</event>
<event>
 8    1  0.7572579E-006  0.1018230E+04  0.7818608E-02  0.8761068E-01
         21   -1    0    0  501  502  0.00000000000E+00  0.00000000000E+00  0.70097688547E+03  0.70097688547E+03  0.00000000000E+00 0. -1.
         21   -1    0    0  502  503 -0.00000000000E+00 -0.00000000000E+00 -0.21323867221E+04  0.21323867221E+04  0.00000000000E+00 0. -1.
    9000010    2    1    2  501    0  0.95659309856E+02 -0.14872605613E+02  0.84728691687E+02  0.10070369265E+04  0.99878552361E+03 0.  0.
   -9000010    2    1    2    0  503 -0.95659309856E+02  0.14872605613E+02 -0.15161385283E+04  0.18263266811E+04  0.10136178822E+04 0.  0.
        -13    1    3    3    0    0 -0.42855993671E+03  0.11552712915E+03  0.13648538627E+03  0.46436882836E+03  0.10566000000E+00 0.  1.
         13    1    4    4    0    0  0.78753975276E+02 -0.26948690936E+03 -0.70912864171E+01  0.28084814481E+03  0.10566000000E+00 0. -1.
          4    1    3    3  501    0  0.52421924657E+03 -0.13039973476E+03 -0.51756694588E+02  0.54266809813E+03  0.00000000000E+00 0.  1.
         -4    1    4    4    0  503 -0.17441328513E+03  0.28435951497E+03 -0.15090472419E+04  0.15454785363E+04  0.00000000000E+00 0. -1.
</event>
<event>
 8    1  0.7572579E-006  0.1023280E+04  0.7818608E-02  0.8755318E-01
         21   -1    0    0  501  502  0.00000000000E+00  0.00000000000E+00  0.20873301462E+04  0.20873301462E+04  0.00000000000E+00 0. -1.
         21   -1    0    0  502  503 -0.00000000000E+00 -0.00000000000E+00 -0.72072753030E+03  0.72072753030E+03  0.00000000000E+00 0. -1.
    9000010    2    1    2  501    0  0.13585905314E+03  0.13490625028E+03  0.14682950697E+04  0.17896906820E+04  0.10052089070E+04 0.  0.
   -9000010    2    1    2    0  503 -0.13585905314E+03 -0.13490625028E+03 -0.10169245380E+03  0.10183669945E+04  0.99502392014E+03 0.  0.
        -13    1    3    3    0    0  0.30459083851E+03  0.23665855079E+03  0.88302224106E+02  0.39570208808E+03  0.10566000000E+00 0.  1.
         13    1    4    4    0    0  0.26702259318E+03 -0.14662004234E+03 -0.41009632192E+03  0.51085957610E+03  0.10566000000E+00 0. -1.
          4    1    3    3  501    0 -0.16873178537E+03 -0.10175230051E+03  0.13799928456E+04  0.13939885939E+04  0.00000000000E+00 0.  1.
         -4    1    4    4    0  503 -0.40288164632E+03  0.11713792056E+02  0.30840386812E+03  0.50750741840E+03  0.00000000000E+00 0. -1.
</event>
<event>
 8    1  0.7572579E-006  0.1108660E+04  0.7818608E-02  0.8682373E-01
         21   -1    0    0  503  502  0.00000000000E+00  0.00000000000E+00  0.78771685706E+03  0.78771685706E+03  0.00000000000E+00 0. -1.
         21   -1    0    0  501  503 -0.00000000000E+00 -0.00000000000E+00 -0.18754185623E+04  0.18754185623E+04  0.00000000000E+00 0. -1.
    9000010    2    1    2  501    0  0.42486435732E+03  0.49954032213E+02 -0.11069207174E+04  0.15543091209E+04  0.10037919312E+04 0.  0.
   -9000010    2    1    2    0  502 -0.42486435732E+03 -0.49954032213E+02  0.19219012178E+02  0.11088262985E+04  0.10228006953E+04 0.  0.
        -13    1    3    3    0    0  0.10727090452E+03  0.42618249265E+03 -0.93442349008E+03  0.10326111727E+04  0.10566000000E+00 0.  1.
         13    1    4    4    0    0 -0.74499558691E+03 -0.15345257070E+03  0.87083153437E+02  0.76560407702E+03  0.10566000000E+00 0. -1.
          4    1    3    3  501    0  0.31759345280E+03 -0.37622846044E+03 -0.17249722734E+03  0.52169794819E+03  0.00000000000E+00 0.  1.
         -4    1    4    4    0  502  0.32013122960E+03  0.10349853848E+03 -0.67864141259E+02  0.34322222145E+03  0.00000000000E+00 0. -1.
</event>
<event>
 8    1  0.7572579E-006  0.1017372E+04  0.7818608E-02  0.8761277E-01
         21   -1    0    0  501  502  0.00000000000E+00  0.00000000000E+00  0.12881258178E+04  0.12881258178E+04  0.00000000000E+00 0.  1.
         21   -1    0    0  502  503 -0.00000000000E+00 -0.00000000000E+00 -0.10195801198E+04  0.10195801198E+04  0.00000000000E+00 0.  1.
    9000010    2    1    2  501    0 -0.48340913381E+02 -0.20610645125E+03  0.67778933868E+03  0.12224749750E+04  0.99510299146E+03 0.  0.
   -9000010    2    1    2    0  503  0.48340913381E+02  0.20610645125E+03 -0.40924364071E+03  0.10852309627E+04  0.98256255364E+03 0.  0.
        -13    1    3    3    0    0  0.35125754604E+03  0.60834036713E+01 -0.60595949303E+02  0.35649789857E+03  0.10566000000E+00 0.  1.
         13    1    4    4    0    0  0.10603089645E+03 -0.22512581252E+03  0.21192010168E+03  0.32685520208E+03  0.10566000000E+00 0. -1.
          4    1    3    3  501    0 -0.39959845942E+03 -0.21218985492E+03  0.73838528799E+03  0.86597707638E+03  0.00000000000E+00 0.  1.
         -4    1    4    4    0  503 -0.57689983070E+02  0.43123226377E+03 -0.62116374239E+03  0.75837576064E+03  0.00000000000E+00 0. -1.
</event>
<event>
 8    1  0.7572579E-006  0.1144342E+04  0.7818608E-02  0.8650128E-01
         21   -1    0    0  503  502  0.00000000000E+00  0.00000000000E+00  0.17813916747E+04  0.17813916747E+04  0.00000000000E+00 0. -1.
         21   -1    0    0  501  503 -0.00000000000E+00 -0.00000000000E+00 -0.13588288042E+04  0.13588288042E+04  0.00000000000E+00 0. -1.
    9000010    2    1    2  501    0 -0.46392371314E+03  0.29548906402E+03 -0.85376710028E+03  0.14260046428E+04  0.10010154750E+04 0.  0.
   -9000010    2    1    2    0  502  0.46392371314E+03 -0.29548906402E+03  0.12763299708E+04  0.17142158361E+04  0.10034833032E+04 0.  0.
        -13    1    3    3    0    0 -0.20057227084E+03  0.59753176050E+03 -0.20378590427E+03  0.66242142672E+03  0.10566000000E+00 0.  1.
         13    1    4    4    0    0  0.74318804508E+03 -0.13523194215E+03  0.59833196665E+03  0.96364791392E+03  0.10566000000E+00 0. -1.
          4    1    3    3  501    0 -0.26335144230E+03 -0.30204269648E+03 -0.64998119600E+03  0.76358321604E+03  0.00000000000E+00 0.  1.
         -4    1    4    4    0  502 -0.27926433194E+03 -0.16025712187E+03  0.67799800414E+03  0.75056792219E+03  0.00000000000E+00 0. -1.
</event>
<event>
 8    1  0.7572579E-006  0.1002983E+04  0.7818608E-02  0.8777232E-01
         21   -1    0    0  501  502  0.00000000000E+00  0.00000000000E+00  0.17370210124E+04  0.17370210124E+04  0.00000000000E+00 0.  1.
         21   -1    0    0  502  503 -0.00000000000E+00 -0.00000000000E+00 -0.69945836695E+03  0.69945836695E+03  0.00000000000E+00 0.  1.
    9000010    2    1    2  501    0 -0.45431081504E+02  0.12244077255E+03  0.10558333865E+04  0.14562828727E+04  0.99444453803E+03 0.  0.
   -9000010    2    1    2    0  503  0.45431081504E+02 -0.12244077255E+03 -0.18270741089E+02  0.98019650665E+03  0.97128556343E+03 0.  0.
        -13    1    3    3    0    0 -0.15671375736E+03  0.52265750325E+03  0.38701914502E+03  0.66896479521E+03  0.10566000000E+00 0.  1.
         13    1    4    4    0    0 -0.40471703269E+03 -0.10406607443E+03 -0.23589349510E+03  0.47986599858E+03  0.10566000000E+00 0. -1.
          4    1    3    3  501    0  0.11128267585E+03 -0.40021673070E+03  0.66881424148E+03  0.78731807745E+03  0.00000000000E+00 0.  1.
         -4    1    4    4    0  503  0.45014811419E+03 -0.18374698115E+02  0.21762275401E+03  0.50033050807E+03  0.00000000000E+00 0. -1.
</event>
<event>
 8    1  0.7572579E-006  0.1093310E+04  0.7818608E-02  0.8691612E-01
         21   -1    0    0  501  502  0.00000000000E+00  0.00000000000E+00  0.17163684844E+04  0.17163684844E+04  0.00000000000E+00 0. -1.
         21   -1    0    0  502  503 -0.00000000000E+00 -0.00000000000E+00 -0.77982192519E+03  0.77982192519E+03  0.00000000000E+00 0. -1.
    9000010    2    1    2  501    0 -0.14698938316E+02 -0.44876914680E+03  0.87695292881E+03  0.14015606714E+04  0.99685308370E+03 0.  0.
   -9000010    2    1    2    0  503  0.14698938316E+02  0.44876914680E+03  0.59593630429E+02  0.10946297382E+04  0.99652047496E+03 0.  0.
        -13    1    3    3    0    0 -0.30388419675E+03 -0.42207172021E+03  0.46932195183E+02  0.52219994652E+03  0.10566000000E+00 0.  1.
         13    1    4    4    0    0 -0.26970747763E+03  0.58588524305E+03 -0.21119450080E+03  0.67868016757E+03  0.10566000000E+00 0. -1.
          4    1    3    3  501    0  0.28918525843E+03 -0.26697426588E+02  0.83002073363E+03  0.87936072492E+03  0.00000000000E+00 0.  1.
         -4    1    4    4    0  503  0.28440641595E+03 -0.13711609625E+03  0.27078813123E+03  0.41594957062E+03  0.00000000000E+00 0. -1.
</event>
<event>
 8    1  0.7572579E-006  0.1075769E+04  0.7818608E-02  0.8708252E-01
         21   -1    0    0  501  502  0.00000000000E+00  0.00000000000E+00  0.14147957083E+04  0.14147957083E+04  0.00000000000E+00 0.  1.
         21   -1    0    0  502  503 -0.00000000000E+00 -0.00000000000E+00 -0.85951839332E+03  0.85951839332E+03  0.00000000000E+00 0.  1.
    9000010    2    1    2  501    0 -0.42384125915E+03 -0.90991563233E+02  0.54464397773E+03  0.11984923392E+04  0.97561567590E+03 0.  0.
   -9000010    2    1    2    0  503  0.42384125915E+03  0.90991563233E+02  0.10633337276E+02  0.10758217625E+04  0.98456006380E+03 0.  0.
        -13    1    3    3    0    0 -0.17278534387E+03 -0.44107291516E+03 -0.36471206335E+02  0.47511077824E+03  0.10566000000E+00 0.  1.
         13    1    4    4    0    0 -0.21985015304E+01 -0.90125794833E+02 -0.42841394500E+03  0.43779676991E+03  0.10566000000E+00 0. -1.
          4    1    3    3  501    0 -0.25105591528E+03  0.35008135192E+03  0.58111518406E+03  0.72338156094E+03  0.00000000000E+00 0.  1.
         -4    1    4    4    0  503  0.42603976068E+03  0.18111735807E+03  0.43904728228E+03  0.63802499257E+03  0.00000000000E+00 0. -1.
</event>
<event>
 8    1  0.7572579E-006  0.9914353E+03  0.7818608E-02  0.8803643E-01
         21   -1    0    0  503  502  0.00000000000E+00  0.00000000000E+00  0.88566359709E+03  0.88566359709E+03  0.00000000000E+00 0.  1.
         21   -1    0    0  501  503 -0.00000000000E+00 -0.00000000000E+00 -0.10906570793E+04  0.10906570793E+04  0.00000000000E+00 0.  1.
    9000010    2    1    2  501    0  0.73492916181E+02 -0.11493542229E+02 -0.36249680571E+03  0.10556267614E+04  0.98864079167E+03 0.  0.
   -9000010    2    1    2    0  502 -0.73492916181E+02  0.11493542229E+02  0.15750332355E+03  0.92069391496E+03  0.90406674415E+03 0.  0.
        -13    1    3    3    0    0 -0.28972786672E+03  0.26209305160E+03  0.10387408004E+03  0.40425838287E+03  0.10566000000E+00 0.  1.
         13    1    4    4    0    0 -0.10908949361E+03 -0.18509601604E+03  0.48873467444E+03  0.53387512204E+03  0.10566000000E+00 0. -1.
          4    1    3    3  501    0  0.36322078290E+03 -0.27358659383E+03 -0.46637088575E+03  0.65136837852E+03  0.00000000000E+00 0.  1.
         -4    1    4    4    0  502  0.35596577428E+02  0.19658955827E+03 -0.33123135089E+03  0.38681879292E+03  0.00000000000E+00 0. -1.
</event>
<event>
 8    1  0.7572579E-006  0.1003072E+04  0.7818608E-02  0.8772784E-01
         21   -1    0    0  501  502  0.00000000000E+00  0.00000000000E+00  0.84742278445E+03  0.84742278445E+03  0.00000000000E+00 0. -1.
         21   -1    0    0  502  503 -0.00000000000E+00 -0.00000000000E+00 -0.13484256582E+04  0.13484256582E+04  0.00000000000E+00 0. -1.
    9000010    2    1    2  501    0  0.39663576851E+00  0.69480132504E+02  0.13583442931E+03  0.10076922730E+04  0.99607483587E+03 0.  0.
   -9000010    2    1    2    0  503 -0.39663576851E+00 -0.69480132504E+02 -0.63683730305E+03  0.11881561697E+04  0.10006626239E+04 0.  0.
        -13    1    3    3    0    0 -0.39715946723E+03 -0.26095243808E+03  0.12168339164E+03  0.49054936175E+03  0.10566000000E+00 0.  1.
         13    1    4    4    0    0  0.37074797284E+02 -0.32458534589E+03 -0.81279626752E+03  0.87599541724E+03  0.10566000000E+00 0. -1.
          4    1    3    3  501    0  0.39755610300E+03  0.33043257058E+03  0.14151037669E+02  0.51714291120E+03  0.00000000000E+00 0.  1.
         -4    1    4    4    0  503 -0.37471433052E+02  0.25510521338E+03  0.17595896447E+03  0.31216075245E+03  0.00000000000E+00 0. -1.
</event>
<event>
 8    1  0.7572579E-006  0.1035221E+04  0.7818608E-02  0.8744678E-01
         21   -1    0    0  503  502  0.00000000000E+00  0.00000000000E+00  0.98944785453E+03  0.98944785453E+03  0.00000000000E+00 0. -1.
         21   -1    0    0  501  503 -0.00000000000E+00 -0.00000000000E+00 -0.10915338143E+04  0.10915338143E+04  0.00000000000E+00 0. -1.
    9000010    2    1    2  501    0 -0.76947804386E+02 -0.23139119443E+03 -0.19182791463E+03  0.10528443340E+04  0.10060916426E+04 0.  0.
   -9000010    2    1    2    0  502  0.76947804386E+02  0.23139119443E+03  0.89741954891E+02  0.10281373348E+04  0.99476123332E+03 0.  0.
        -13    1    3    3    0    0  0.35605344352E+03  0.11814977337E+03  0.14519802904E+03  0.40226347385E+03  0.10566000000E+00 0.  1.
         13    1    4    4    0    0 -0.21890086242E+02 -0.22822573521E+03 -0.32735406443E+03  0.39965842510E+03  0.10566000000E+00 0. -1.
          4    1    3    3  501    0 -0.43300124791E+03 -0.34954096780E+03 -0.33702594366E+03  0.65058086013E+03  0.00000000000E+00 0.  1.
         -4    1    4    4    0  502  0.98837890627E+02  0.45961692963E+03  0.41709601932E+03  0.62847890972E+03  0.00000000000E+00 0. -1.
</event>
<event>
 8    1  0.7572579E-006  0.1057928E+04  0.7818608E-02  0.8722581E-01
         21   -1    0    0  503  502  0.00000000000E+00  0.00000000000E+00  0.24064493238E+04  0.24064493238E+04  0.00000000000E+00 0.  1.
         21   -1    0    0  501  503 -0.00000000000E+00 -0.00000000000E+00 -0.12587232550E+04  0.12587232550E+04  0.00000000000E+00 0. -1.
    9000010    2    1    2  501    0  0.29214328242E+03 -0.19655440204E+03 -0.88210962094E+03  0.13774357095E+04  0.99761235962E+03 0.  0.
   -9000010    2    1    2    0  502 -0.29214328242E+03  0.19655440204E+03  0.20298356897E+04  0.22877368693E+04  0.99474907663E+03 0.  0.
        -13    1    3    3    0    0  0.44188633648E+03  0.29431991459E+03 -0.55917433022E+03  0.77107956090E+03  0.10566000000E+00 0.  1.
         13    1    4    4    0    0 -0.44085232978E+03  0.14785893513E+03  0.20737267795E+04  0.21252190025E+04  0.10566000000E+00 0. -1.
          4    1    3    3  501    0 -0.14974305406E+03 -0.49087431663E+03 -0.32293529072E+03  0.60635614861E+03  0.00000000000E+00 0.  1.
         -4    1    4    4    0  502  0.14870904736E+03  0.48695466908E+02 -0.43891089789E+02  0.16251786680E+03  0.00000000000E+00 0. -1.
</event>
<event>
 8    1  0.7572579E-006  0.1179965E+04  0.7818608E-02  0.8622547E-01
         21   -1    0    0  501  502  0.00000000000E+00  0.00000000000E+00  0.15025964893E+04  0.15025964893E+04  0.00000000000E+00 0.  1.
         21   -1    0    0  502  503 -0.00000000000E+00 -0.00000000000E+00 -0.20309617987E+04  0.20309617987E+04  0.00000000000E+00 0. -1.
    9000010    2    1    2  501    0 -0.31920372783E+03  0.53849395681E+03  0.10402280033E+04  0.15730195709E+04  0.10002247299E+04 0.  0.
   -9000010    2    1    2    0  503  0.31920372783E+03 -0.53849395681E+03 -0.15685933126E+04  0.19605387171E+04  0.99567078871E+03 0.  0.
        -13    1    3    3    0    0  0.11396445042E+03  0.68071808004E+03  0.80373778867E+03  0.10594146707E+04  0.10566000000E+00 0.  1.
         13    1    4    4    0    0  0.18412046292E+03 -0.46690064989E+03 -0.16914928230E+04  0.17643821987E+04  0.10566000000E+00 0. -1.
          4    1    3    3  501    0 -0.43316817825E+03 -0.14222412324E+03  0.23649021463E+03  0.51360490019E+03  0.00000000000E+00 0.  1.
         -4    1    4    4    0  503  0.13508326492E+03 -0.71593306921E+02  0.12289951038E+03  0.19615651839E+03  0.00000000000E+00 0. -1.
</event>
<event>
 8    1  0.7572579E-006  0.1173494E+04  0.7818608E-02  0.8628456E-01
         21   -1    0    0  501  502  0.00000000000E+00  0.00000000000E+00  0.61448554974E+03  0.61448554974E+03  0.00000000000E+00 0. -1.
         21   -1    0    0  502  503 -0.00000000000E+00 -0.00000000000E+00 -0.24523729411E+04  0.24523729411E+04  0.00000000000E+00 0. -1.
    9000010    2    1    2  501    0 -0.31577978991E+03  0.51057913450E+03 -0.45479973632E+03  0.12585429795E+04  0.10083053619E+04 0.  0.
   -9000010    2    1    2    0  503  0.31577978991E+03 -0.51057913450E+03 -0.13830876551E+04  0.18083155114E+04  0.99833140727E+03 0.  0.
        -13    1    3    3    0    0 -0.26814282940E+03  0.52310824296E+03  0.18545999530E+03  0.61639129766E+03  0.10566000000E+00 0.  1.
         13    1    4    4    0    0  0.36292378732E+02  0.27985839783E+03 -0.59103215920E+03  0.65494800096E+03  0.10566000000E+00 0. -1.
          4    1    3    3  501    0 -0.47636960516E+02 -0.12529108454E+02 -0.64025973162E+03  0.64215168185E+03  0.00000000000E+00 0.  1.
         -4    1    4    4    0  503  0.27948741118E+03 -0.79043753233E+03 -0.79205549588E+03  0.11533675104E+04  0.00000000000E+00 0. -1.
</event>
<event>
 8    1  0.7572579E-006  0.1079188E+04  0.7818608E-02  0.8705286E-01
         21   -1    0    0  501  502  0.00000000000E+00  0.00000000000E+00  0.89318976974E+03  0.89318976974E+03  0.00000000000E+00 0. -1.
         21   -1    0    0  502  503 -0.00000000000E+00 -0.00000000000E+00 -0.15318755553E+04  0.15318755553E+04  0.00000000000E+00 0. -1.
    9000010    2    1    2  501    0  0.40971341442E+03  0.50936261520E+02  0.15929157996E+03  0.10828975450E+04  0.98834897721E+03 0.  0.
   -9000010    2    1    2    0  503 -0.40971341442E+03 -0.50936261520E+02 -0.79797736555E+03  0.13421677801E+04  0.99708920831E+03 0.  0.
        -13    1    3    3    0    0  0.31170795308E+03  0.41696337080E+03 -0.20288103131E+03  0.55873162129E+03  0.10566000000E+00 0.  1.
         13    1    4    4    0    0  0.25823849551E+03  0.23451681233E+03 -0.31374309432E+03  0.46916947496E+03  0.10566000000E+00 0. -1.
          4    1    3    3  501    0  0.98005461346E+02 -0.36602710928E+03  0.36217261128E+03  0.52416592367E+03  0.00000000000E+00 0.  1.
         -4    1    4    4    0  503 -0.66795190994E+03 -0.28545307385E+03 -0.48423427123E+03  0.87299830515E+03  0.00000000000E+00 0. -1.
</event>
<event>
 8    1  0.7681746E-006  0.1011256E+04  0.7818608E-02  0.8766221E-01
         21   -1    0    0  501  502  0.00000000000E+00  0.00000000000E+00  0.15996640698E+04  0.15996640698E+04  0.00000000000E+00 0.  1.
         21   -1    0    0  502  503 -0.00000000000E+00 -0.00000000000E+00 -0.75462309063E+03  0.75462309063E+03  0.00000000000E+00 0.  1.
    9000010    2    1    2  501    0 -0.86256821070E+02  0.55190241166E+02  0.89250169517E+03  0.13419183353E+04  0.99684469247E+03 0.  0.
   -9000010    2    1    2    0  503  0.86256821070E+02 -0.55190241166E+02 -0.47460715998E+02  0.10123688251E+04  0.10060576110E+04 0.  0.
        -13    1    3    3    0    0  0.94794789236E+02 -0.31833157832E+03 -0.26823590299E+02  0.33322749284E+03  0.10566000000E+00 0.  1.
         13    1    4    4    0    0  0.50243038400E+03  0.17812650750E+03 -0.48293896171E+02  0.53525475711E+03  0.10566000000E+00 0. -1.
          4    1    3    3  501    0 -0.18105161031E+03  0.37352181948E+03  0.91932528547E+03  0.10086908425E+04  0.00000000000E+00 0.  1.
         -4    1    4    4    0  503 -0.41617356293E+03 -0.23331674866E+03  0.83318017304E+00  0.47711406800E+03  0.00000000000E+00 0. -1.
</event>
<event>
 8    1  0.7572579E-006  0.1071785E+04  0.7818608E-02  0.8712345E-01
         21   -1    0    0  501  502  0.00000000000E+00  0.00000000000E+00  0.69809270993E+03  0.69809270993E+03  0.00000000000E+00 0.  1.
         21   -1    0    0  502  503 -0.00000000000E+00 -0.00000000000E+00 -0.22605975858E+04  0.22605975858E+04  0.00000000000E+00 0.  1.
    9000010    2    1    2  501    0 -0.32745370971E+03 -0.14807275114E+03 -0.18983821892E+01  0.10717863524E+04  0.10097380401E+04 0.  0.
   -9000010    2    1    2    0  503  0.32745370971E+03  0.14807275114E+03 -0.15606064937E+04  0.18869039434E+04  0.99787894644E+03 0.  0.
        -13    1    3    3    0    0 -0.57651331317E+03 -0.37416556926E+03  0.14877256922E+03  0.70320748147E+03  0.10566000000E+00 0.  1.
         13    1    4    4    0    0  0.36390947883E+03  0.17974229604E+02 -0.47106891644E+02  0.36738569939E+03  0.10566000000E+00 0. -1.
          4    1    3    3  501    0  0.24905960345E+03  0.22609281812E+03 -0.15067095140E+03  0.36857887090E+03  0.00000000000E+00 0.  1.
         -4    1    4    4    0  503 -0.36455769118E+02  0.13009852154E+03 -0.15134996021E+04  0.15195182440E+04  0.00000000000E+00 0. -1.
</event>
<event>
 8    1  0.7572579E-006  0.1015864E+04  0.7818608E-02  0.8760258E-01
         21   -1    0    0  503  502  0.00000000000E+00  0.00000000000E+00  0.60339526958E+03  0.60339526958E+03  0.00000000000E+00 0.  1.
         21   -1    0    0  501  503 -0.00000000000E+00 -0.00000000000E+00 -0.26335905539E+04  0.26335905539E+04  0.00000000000E+00 0.  1.
    9000010    2    1    2  501    0 -0.17226665027E+03  0.39509329161E+02 -0.19744374837E+04  0.22195929168E+04  0.99847511400E+03 0.  0.
   -9000010    2    1    2    0  502  0.17226665027E+03 -0.39509329161E+02 -0.55757800640E+02  0.10173929067E+04  0.10003712353E+04 0.  0.
        -13    1    3    3    0    0  0.29372832131E+03  0.16770082098E+03 -0.15166081070E+04  0.15538661633E+04  0.10566000000E+00 0.  1.
         13    1    4    4    0    0  0.35157174164E+03 -0.26562348322E+03 -0.38105043966E+03  0.58254439581E+03  0.10566000000E+00 0. -1.
          4    1    3    3  501    0 -0.46599497158E+03 -0.12819149182E+03 -0.45782937671E+03  0.66572675348E+03  0.00000000000E+00 0.  1.
         -4    1    4    4    0  502 -0.17930509137E+03  0.22611415406E+03  0.32529263902E+03  0.43484851093E+03  0.00000000000E+00 0. -1.
</event>
<event>
 8    1  0.7572579E-006  0.1027154E+04  0.7818608E-02  0.8753683E-01
         21   -1    0    0  503  502  0.00000000000E+00  0.00000000000E+00  0.42969374792E+03  0.42969374792E+03  0.00000000000E+00 0. -1.
         21   -1    0    0  501  503 -0.00000000000E+00 -0.00000000000E+00 -0.25327906103E+04  0.25327906103E+04  0.00000000000E+00 0. -1.
    9000010    2    1    2  501    0 -0.14642427772E+03 -0.16898615271E+02 -0.13841921975E+04  0.17236686791E+04  0.10165235086E+04 0.  0.
   -9000010    2    1    2    0  502  0.14642427772E+03  0.16898615271E+02 -0.71890466491E+03  0.12388156791E+04  0.99805547805E+03 0.  0.
        -13    1    3    3    0    0 -0.38871092130E+03  0.70853957640E+02 -0.91539109060E+02  0.40558092078E+03  0.10566000000E+00 0.  1.
         13    1    4    4    0    0  0.44330621709E+03 -0.16145197131E+03 -0.75533321993E+03  0.89057028103E+03  0.10566000000E+00 0. -1.
          4    1    3    3  501    0  0.24228664358E+03 -0.87752572911E+02 -0.12926530884E+04  0.13180877583E+04  0.00000000000E+00 0.  1.
         -4    1    4    4    0  502 -0.29688193937E+03  0.17835058658E+03  0.36428555020E+02  0.34824539808E+03  0.00000000000E+00 0. -1.
</event>
<event>
 8    1  0.7572579E-006  0.1016290E+04  0.7818608E-02  0.8762354E-01
         21   -1    0    0  501  502  0.00000000000E+00  0.00000000000E+00  0.52207450809E+03  0.52207450809E+03  0.00000000000E+00 0. -1.
         21   -1    0    0  502  503 -0.00000000000E+00 -0.00000000000E+00 -0.21934351644E+04  0.21934351644E+04  0.00000000000E+00 0. -1.
    9000010    2    1    2  501    0  0.68534605364E+02  0.19262239312E+03 -0.38237766504E+03  0.10740702933E+04  0.98265657163E+03 0.  0.
   -9000010    2    1    2    0  503 -0.68534605364E+02 -0.19262239312E+03 -0.12889829913E+04  0.16414393792E+04  0.99551278511E+03 0.  0.
        -13    1    3    3    0    0 -0.31612502628E+03  0.17882635291E+01  0.18210571034E+03  0.36482972882E+03  0.10566000000E+00 0.  1.
         13    1    4    4    0    0 -0.17813263697E+03  0.12543279500E+03 -0.12867091020E+04  0.13050229679E+04  0.10566000000E+00 0. -1.
          4    1    3    3  501    0  0.38465963165E+03  0.19083412959E+03 -0.56448337537E+03  0.70924056448E+03  0.00000000000E+00 0.  1.
         -4    1    4    4    0  503  0.10959803160E+03 -0.31805518812E+03 -0.22738892844E+01  0.33641641131E+03  0.00000000000E+00 0. -1.
</event>
<event>
 8    1  0.7572579E-006  0.1152252E+04  0.7818608E-02  0.8659009E-01
         21   -1    0    0  503  502  0.00000000000E+00  0.00000000000E+00  0.10726976277E+04  0.10726976277E+04  0.00000000000E+00 0. -1.
         21   -1    0    0  501  503 -0.00000000000E+00 -0.00000000000E+00 -0.12689252386E+04  0.12689252386E+04  0.00000000000E+00 0. -1.
    9000010    2    1    2  501    0  0.69609965669E+02  0.50084970389E+03 -0.44820879416E+03  0.12363562320E+04  0.10353693235E+04 0.  0.
   -9000010    2    1    2    0  502 -0.69609965669E+02 -0.50084970389E+03  0.25198118327E+03  0.11052666342E+04  0.94995991644E+03 0.  0.
        -13    1    3    3    0    0  0.50944871029E+03  0.34449749181E+03 -0.40081003561E+02  0.61629782434E+03  0.10566000000E+00 0.  1.
         13    1    4    4    0    0 -0.84143150428E+02  0.14585636032E+03 -0.23956776737E+03  0.29282567158E+03  0.10566000000E+00 0. -1.
          4    1    3    3  501    0 -0.43983874462E+03  0.15635221208E+03 -0.40812779060E+03  0.62005840770E+03  0.00000000000E+00 0.  1.
         -4    1    4    4    0  502  0.14533184759E+02 -0.64670606421E+03  0.49154895064E+03  0.81244096267E+03  0.00000000000E+00 0. -1.
</event>
<event>
 8    1  0.7572579E-006  0.1236369E+04  0.7818608E-02  0.8581805E-01
         21   -1    0    0  503  502  0.00000000000E+00  0.00000000000E+00  0.15980686139E+04  0.15980686139E+04  0.00000000000E+00 0.  1.
         21   -1    0    0  501  503 -0.00000000000E+00 -0.00000000000E+00 -0.10795406107E+04  0.10795406107E+04  0.00000000000E+00 0.  1.
    9000010    2    1    2  501    0  0.46665053939E+03  0.52691921162E+03 -0.20788369476E+03  0.12537241861E+04  0.10164655049E+04 0.  0.
   -9000010    2    1    2    0  502 -0.46665053939E+03 -0.52691921162E+03  0.72641169792E+03  0.14238850385E+04  0.10021816535E+04 0.  0.
        -13    1    3    3    0    0  0.63102792954E+03 -0.49688349677E+02 -0.57597867733E+02  0.63559633848E+03  0.10566000000E+00 0.  1.
         13    1    4    4    0    0 -0.44954258967E+03 -0.68648995847E+03  0.87895890111E+03  0.12024665334E+04  0.10566000000E+00 0. -1.
          4    1    3    3  501    0 -0.16437739015E+03  0.57660756130E+03 -0.15028582703E+03  0.61812784758E+03  0.00000000000E+00 0.  1.
         -4    1    4    4    0  502 -0.17107949718E+02  0.15957074685E+03 -0.15254720319E+03  0.22141850508E+03  0.00000000000E+00 0. -1.
</event>
<event>
 8    1  0.7572579E-006  0.1185573E+04  0.7818608E-02  0.8619942E-01
         21   -1    0    0  503  502  0.00000000000E+00  0.00000000000E+00  0.82600700855E+03  0.82600700855E+03  0.00000000000E+00 0. -1.
         21   -1    0    0  501  503 -0.00000000000E+00 -0.00000000000E+00 -0.17887238091E+04  0.17887238091E+04  0.00000000000E+00 0. -1.
    9000010    2    1    2  501    0 -0.39018753733E+03 -0.47605481907E+03 -0.16672222167E+03  0.11972387176E+04  0.10132668664E+04 0.  0.
   -9000010    2    1    2    0  502  0.39018753733E+03  0.47605481907E+03 -0.79599457890E+03  0.14174921001E+04  0.99839970909E+03 0.  0.
        -13    1    3    3    0    0 -0.43539164419E+03 -0.75110966451E+02  0.33423117512E+03  0.55400183276E+03  0.10566000000E+00 0.  1.
         13    1    4    4    0    0  0.24823769210E+03  0.54556563115E+03 -0.99607768173E+03  0.11625121801E+04  0.10566000000E+00 0. -1.
          4    1    3    3  501    0  0.45204106860E+02 -0.40094385262E+03 -0.50095339679E+03  0.64323688482E+03  0.00000000000E+00 0.  1.
         -4    1    4    4    0  502  0.14194984523E+03 -0.69510812072E+02  0.20008310283E+03  0.25497991999E+03  0.00000000000E+00 0. -1.
</event>
<event>
 8    1  0.7572579E-006  0.1170105E+04  0.7818608E-02  0.8631350E-01
         21   -1    0    0  501  502  0.00000000000E+00  0.00000000000E+00  0.17448948595E+04  0.17448948595E+04  0.00000000000E+00 0. -1.
         21   -1    0    0  502  503 -0.00000000000E+00 -0.00000000000E+00 -0.82498709183E+03  0.82498709183E+03  0.00000000000E+00 0. -1.
    9000010    2    1    2  501    0 -0.41980955768E+03  0.38618930546E+03  0.76465262429E+03  0.13895214938E+04  0.10102940668E+04 0.  0.
   -9000010    2    1    2    0  503  0.41980955768E+03 -0.38618930546E+03  0.15525514342E+03  0.11803604576E+04  0.10216478875E+04 0.  0.
        -13    1    3    3    0    0 -0.18469535624E+02 -0.27301079834E+03  0.50656695472E+03  0.57574830485E+03  0.10566000000E+00 0.  1.
         13    1    4    4    0    0  0.65572139304E+02 -0.54780153749E+03  0.43362518135E+03  0.70172433262E+03  0.10566000000E+00 0. -1.
          4    1    3    3  501    0 -0.40134002206E+03  0.65920010380E+03  0.25808566957E+03  0.81377318892E+03  0.00000000000E+00 0.  1.
         -4    1    4    4    0  503  0.35423741838E+03  0.16161223203E+03 -0.27837003793E+03  0.47863612498E+03  0.00000000000E+00 0. -1.
</event>
<event>
 8    1  0.7572579E-006  0.1000946E+04  0.7818608E-02  0.8791730E-01
         21   -1    0    0  503  502  0.00000000000E+00  0.00000000000E+00  0.62358272724E+03  0.62358272724E+03  0.00000000000E+00 0. -1.
         21   -1    0    0  501  503 -0.00000000000E+00 -0.00000000000E+00 -0.21042853869E+04  0.21042853869E+04  0.00000000000E+00 0. -1.
    9000010    2    1    2  501    0  0.10529507108E+03  0.64585013753E+02 -0.14566028863E+04  0.17266324852E+04  0.91886315338E+03 0.  0.
   -9000010    2    1    2    0  502 -0.10529507108E+03 -0.64585013753E+02 -0.24099773344E+02  0.10012356289E+04  0.99329437203E+03 0.  0.
        -13    1    3    3    0    0  0.40548971994E+01 -0.27313814700E+03 -0.13208945312E+04  0.13488451591E+04  0.10566000000E+00 0.  1.
         13    1    4    4    0    0 -0.53353114816E+03 -0.11023114816E+03 -0.12490243805E+03  0.55893382638E+03  0.10566000000E+00 0. -1.
          4    1    3    3  501    0  0.10124017388E+03  0.33772316075E+03 -0.13570835508E+03  0.37778732609E+03  0.00000000000E+00 0.  1.
         -4    1    4    4    0  502  0.42823607708E+03  0.45646134402E+02  0.10080266471E+03  0.44230180252E+03  0.00000000000E+00 0. -1.
</event>
<event>
 8    1  0.7572579E-006  0.1027491E+04  0.7818608E-02  0.8749805E-01
         21   -1    0    0  501  502  0.00000000000E+00  0.00000000000E+00  0.23340137969E+04  0.23340137969E+04  0.00000000000E+00 0.  1.
         21   -1    0    0  502  503 -0.00000000000E+00 -0.00000000000E+00 -0.51057132842E+03  0.51057132842E+03  0.00000000000E+00 0.  1.
    9000010    2    1    2  501    0  0.12385977709E+03  0.21642891151E+03  0.42747034091E+03  0.11128651920E+04  0.99677245399E+03 0.  0.
   -9000010    2    1    2    0  503 -0.12385977709E+03 -0.21642891151E+03  0.13959721276E+04  0.17317199333E+04  0.99394820210E+03 0.  0.
        -13    1    3    3    0    0  0.13465303509E+03  0.84214938902E+02 -0.31812245208E+03  0.35556363914E+03  0.10566000000E+00 0.  1.
         13    1    4    4    0    0 -0.20339888441E+03  0.11334329201E+03 -0.56959205868E+02  0.23971268285E+03  0.10566000000E+00 0. -1.
          4    1    3    3  501    0 -0.10793258005E+02  0.13221397260E+03  0.74559279299E+03  0.75730155284E+03  0.00000000000E+00 0.  1.
         -4    1    4    4    0  503  0.79539107323E+02 -0.32977220352E+03  0.14529313334E+04  0.14920072505E+04  0.00000000000E+00 0. -1.
</event>
<event>
 8    1  0.7572579E-006  0.1155469E+04  0.7818608E-02  0.8643530E-01
         21   -1    0    0  503  502  0.00000000000E+00  0.00000000000E+00  0.88187805066E+03  0.88187805066E+03  0.00000000000E+00 0.  1.
         21   -1    0    0  501  503 -0.00000000000E+00 -0.00000000000E+00 -0.17758475606E+04  0.17758475606E+04  0.00000000000E+00 0.  1.
    9000010    2    1    2  501    0  0.50185443419E+03  0.24535925741E+03 -0.97189793782E+03  0.14996318051E+04  0.99611792028E+03 0.  0.
   -9000010    2    1    2    0  502 -0.50185443419E+03 -0.24535925741E+03  0.77928427861E+02  0.11580938061E+04  0.10114590380E+04 0.  0.
        -13    1    3    3    0    0 -0.10107801325E+03  0.80263466556E+02  0.16061192636E+03  0.20604657454E+03  0.10566000000E+00 0.  1.
         13    1    4    4    0    0 -0.61960436434E+03 -0.41618181622E+03 -0.23509865418E+03  0.78255240132E+03  0.10566000000E+00 0. -1.
          4    1    3    3  501    0  0.60293244744E+03  0.16509579086E+03 -0.11325098642E+04  0.12935852306E+04  0.00000000000E+00 0.  1.
         -4    1    4    4    0  502  0.11774993014E+03  0.17082255880E+03  0.31302708204E+03  0.37554140482E+03  0.00000000000E+00 0. -1.
</event>
<event>
 8    1  0.7572579E-006  0.1179198E+04  0.7818608E-02  0.8632272E-01
         21   -1    0    0  501  502  0.00000000000E+00  0.00000000000E+00  0.22613469952E+04  0.22613469952E+04  0.00000000000E+00 0.  1.
         21   -1    0    0  502  503 -0.00000000000E+00 -0.00000000000E+00 -0.70474340250E+03  0.70474340250E+03  0.00000000000E+00 0.  1.
    9000010    2    1    2  501    0 -0.48807208193E+03  0.19596430033E+03  0.13650576265E+04  0.17714361923E+04  0.99899324099E+03 0.  0.
   -9000010    2    1    2    0  503  0.48807208193E+03 -0.19596430033E+03  0.19154596625E+03  0.11946542055E+04  0.10554110333E+04 0.  0.
        -13    1    3    3    0    0 -0.33383228121E+03 -0.17286539034E+03  0.13160159734E+04  0.13686579151E+04  0.10566000000E+00 0.  1.
         13    1    4    4    0    0 -0.33166629868E+03 -0.13106348253E+03  0.69735646870E+02  0.36337754711E+03  0.10566000000E+00 0. -1.
          4    1    3    3  501    0 -0.15423980072E+03  0.36882969067E+03  0.49041653096E+02  0.40277827720E+03  0.00000000000E+00 0.  1.
         -4    1    4    4    0  503  0.81973838061E+03 -0.64900817802E+02  0.12181031938E+03  0.83127665835E+03  0.00000000000E+00 0. -1.
</event>
<event>
 8    1  0.7572579E-006  0.1039126E+04  0.7818608E-02  0.8739938E-01
         21   -1    0    0  501  502  0.00000000000E+00  0.00000000000E+00  0.90298684605E+03  0.90298684605E+03  0.00000000000E+00 0.  1.
         21   -1    0    0  502  503 -0.00000000000E+00 -0.00000000000E+00 -0.13288182549E+04  0.13288182549E+04  0.00000000000E+00 0.  1.
    9000010    2    1    2  501    0 -0.26338674858E+03  0.71081857606E+02  0.14811078399E+03  0.10496283431E+04  0.10026752438E+04 0.  0.
   -9000010    2    1    2    0  503  0.26338674858E+03 -0.71081857606E+02 -0.57394219287E+03  0.11821767578E+04  0.99684855230E+03 0.  0.
        -13    1    3    3    0    0 -0.58265303054E+03  0.96416898427E+02  0.33484336304E+03  0.67889679719E+03  0.10566000000E+00 0.  1.
         13    1    4    4    0    0 -0.30271439776E+03 -0.25955902883E+03 -0.39010968706E+03  0.55784628274E+03  0.10566000000E+00 0. -1.
          4    1    3    3  501    0  0.31926628196E+03 -0.25335040821E+02 -0.18673257905E+03  0.37073154596E+03  0.00000000000E+00 0.  1.
         -4    1    4    4    0  503  0.56610114634E+03  0.18847717122E+03 -0.18383250581E+03  0.62433047511E+03  0.00000000000E+00 0. -1.
</event>
<event>
 8    1  0.7572579E-006  0.1137269E+04  0.7818608E-02  0.8664700E-01
         21   -1    0    0  501  502  0.00000000000E+00  0.00000000000E+00  0.10171224234E+04  0.10171224234E+04  0.00000000000E+00 0. -1.
         21   -1    0    0  502  503 -0.00000000000E+00 -0.00000000000E+00 -0.12916493379E+04  0.12916493379E+04  0.00000000000E+00 0. -1.
    9000010    2    1    2  501    0 -0.53112744595E+02  0.41762196782E+03  0.12955601265E+03  0.11446246670E+04  0.10564808546E+04 0.  0.
   -9000010    2    1    2    0  503  0.53112744595E+02 -0.41762196782E+03 -0.40408292711E+03  0.11641470944E+04  0.10073362764E+04 0.  0.
        -13    1    3    3    0    0  0.56345044732E+02  0.73555698426E+03 -0.89791113694E+02  0.74315630686E+03  0.10566000000E+00 0.  1.
         13    1    4    4    0    0  0.45921494095E+03 -0.44227164511E+03 -0.40862993629E+03  0.75727208192E+03  0.10566000000E+00 0. -1.
          4    1    3    3  501    0 -0.10945778933E+03 -0.31793501644E+03  0.21934712635E+03  0.40146836010E+03  0.00000000000E+00 0.  1.
         -4    1    4    4    0  503 -0.40610219635E+03  0.24649677292E+02  0.45470091821E+01  0.40687501246E+03  0.00000000000E+00 0. -1.
</event>
<event>
 8    1  0.7572579E-006  0.1127493E+04  0.7818608E-02  0.8663820E-01
         21   -1    0    0  501  502  0.00000000000E+00  0.00000000000E+00  0.18735130155E+04  0.18735130155E+04  0.00000000000E+00 0.  1.
         21   -1    0    0  502  503 -0.00000000000E+00 -0.00000000000E+00 -0.77084820655E+03  0.77084820655E+03  0.00000000000E+00 0.  1.
    9000010    2    1    2  501    0  0.82460751966E+02 -0.50970051472E+03  0.10135836875E+04  0.15161111205E+04  0.10023206312E+04 0.  0.
   -9000010    2    1    2    0  503 -0.82460751966E+02  0.50970051472E+03  0.89081121427E+02  0.11282501015E+04  0.99920891466E+03 0.  0.
        -13    1    3    3    0    0  0.45805876870E+03 -0.51373966741E+03  0.88052987304E+03  0.11176220962E+04  0.10566000000E+00 0.  1.
         13    1    4    4    0    0 -0.11170534302E+03  0.80558819948E+03 -0.14412258785E+02  0.81342372424E+03  0.10566000000E+00 0. -1.
          4    1    3    3  501    0 -0.37559801674E+03  0.40391526958E+01  0.13305381449E+03  0.39848902429E+03  0.00000000000E+00 0.  1.
         -4    1    4    4    0  503  0.29244591059E+02 -0.29588768476E+03  0.10349338021E+03  0.31482637730E+03  0.00000000000E+00 0. -1.
</event>
<event>
 8    1  0.7572579E-006  0.1012751E+04  0.7818608E-02  0.8765903E-01
         21   -1    0    0  503  502  0.00000000000E+00  0.00000000000E+00  0.93923127666E+03  0.93923127666E+03  0.00000000000E+00 0. -1.
         21   -1    0    0  501  503 -0.00000000000E+00 -0.00000000000E+00 -0.12123301350E+04  0.12123301350E+04  0.00000000000E+00 0. -1.
    9000010    2    1    2  501    0  0.16691968122E+03 -0.24946824318E+02 -0.49479015407E+03  0.11148305835E+04  0.98465496970E+03 0.  0.
   -9000010    2    1    2    0  502 -0.16691968122E+03  0.24946824318E+02  0.22169129576E+03  0.10367308281E+04  0.99858863169E+03 0.  0.
        -13    1    3    3    0    0 -0.17209792641E+03  0.20915933653E+03 -0.62629636383E+03  0.68235802249E+03  0.10566000000E+00 0.  1.
         13    1    4    4    0    0  0.57396771038E+02  0.37923357557E+03  0.42349642973E+03  0.57136829744E+03  0.10566000000E+00 0. -1.
          4    1    3    3  501    0  0.33901760764E+03 -0.23410616085E+03  0.13150620977E+03  0.43247256103E+03  0.00000000000E+00 0.  1.
         -4    1    4    4    0  502 -0.22431645226E+03 -0.35428675125E+03 -0.20180513397E+03  0.46536253068E+03  0.00000000000E+00 0. -1.
</event>
<event>
 8    1  0.7572579E-006  0.1024359E+04  0.7818608E-02  0.8757128E-01
         21   -1    0    0  503  502  0.00000000000E+00  0.00000000000E+00  0.92540734338E+03  0.92540734338E+03  0.00000000000E+00 0.  1.
         21   -1    0    0  501  503 -0.00000000000E+00 -0.00000000000E+00 -0.11152960285E+04  0.11152960285E+04  0.00000000000E+00 0.  1.
    9000010    2    1    2  501    0  0.17061936083E+03  0.24574329627E+02 -0.16890595191E+03  0.10381908597E+04  0.10097505517E+04 0.  0.
   -9000010    2    1    2    0  502 -0.17061936083E+03 -0.24574329627E+02 -0.20982733257E+02  0.10025125122E+04  0.98735819138E+03 0.  0.
        -13    1    3    3    0    0  0.44268304245E+03  0.42460757522E+02  0.27089972058E+03  0.52072820336E+03  0.10566000000E+00 0.  1.
         13    1    4    4    0    0  0.29279887322E+03 -0.29060906845E+03  0.15384669186E+03  0.44028811769E+03  0.10566000000E+00 0. -1.
          4    1    3    3  501    0 -0.27206368162E+03 -0.17886427896E+02 -0.43980567249E+03  0.51746265635E+03  0.00000000000E+00 0.  1.
         -4    1    4    4    0  502 -0.46341823405E+03  0.26603473883E+03 -0.17482942512E+03  0.56222439452E+03  0.00000000000E+00 0. -1.
</event>
<event>
 8    1  0.7572579E-006  0.1113930E+04  0.7818608E-02  0.8679949E-01
         21   -1    0    0  501  502  0.00000000000E+00  0.00000000000E+00  0.11321005408E+04  0.11321005408E+04  0.00000000000E+00 0. -1.
         21   -1    0    0  502  503 -0.00000000000E+00 -0.00000000000E+00 -0.10795007157E+04  0.10795007157E+04  0.00000000000E+00 0. -1.
    9000010    2    1    2  501    0  0.41547219731E+03 -0.10816884372E+03  0.13055923190E+03  0.10949464482E+04  0.99877142829E+03 0.  0.
   -9000010    2    1    2    0  503 -0.41547219731E+03  0.10816884372E+03 -0.77959406749E+02  0.11166548082E+04  0.10278728745E+04 0.  0.
        -13    1    3    3    0    0  0.36705312275E+03 -0.22748593209E+03 -0.37581047341E+03  0.57246079980E+03  0.10566000000E+00 0.  1.
         13    1    4    4    0    0 -0.36612023915E+03  0.54851843937E+03  0.31482185996E+02  0.66023302481E+03  0.10566000000E+00 0. -1.
          4    1    3    3  501    0  0.48419074559E+02  0.11931708837E+03  0.50636970531E+03  0.52248564843E+03  0.00000000000E+00 0.  1.
         -4    1    4    4    0  503 -0.49351958160E+02 -0.44034959566E+03 -0.10944159274E+03  0.45642178343E+03  0.00000000000E+00 0. -1.
</event>
<event>
 8    1  0.7572579E-006  0.1030725E+04  0.7818608E-02  0.8749870E-01
         21   -1    0    0  503  502  0.00000000000E+00  0.00000000000E+00  0.12811200562E+04  0.12811200562E+04  0.00000000000E+00 0. -1.
         21   -1    0    0  501  503 -0.00000000000E+00 -0.00000000000E+00 -0.93664112959E+03  0.93664112959E+03  0.00000000000E+00 0. -1.
    9000010    2    1    2  501    0 -0.16970673866E+03  0.15655036438E+03 -0.22597388753E+03  0.10397072458E+04  0.98824013552E+03 0.  0.
   -9000010    2    1    2    0  502  0.16970673866E+03 -0.15655036438E+03  0.57045281417E+03  0.11780539400E+04  0.10045328659E+04 0.  0.
        -13    1    3    3    0    0 -0.35032341692E+03 -0.52461457956E+02  0.28778127452E+03  0.45639541424E+03  0.10566000000E+00 0.  1.
         13    1    4    4    0    0 -0.25825669870E+03 -0.18018358340E+02  0.66918781780E+03  0.71751901042E+03  0.10566000000E+00 0. -1.
          4    1    3    3  501    0  0.18061667826E+03  0.20901182233E+03 -0.51375516205E+03  0.58331183159E+03  0.00000000000E+00 0.  1.
         -4    1    4    4    0  502  0.42796343736E+03 -0.13853200604E+03 -0.98735003622E+02  0.46053492957E+03  0.00000000000E+00 0. -1.
</event>
<event>
 8    1  0.7572579E-006  0.1118953E+04  0.7818608E-02  0.8683212E-01
         21   -1    0    0  501  502  0.00000000000E+00  0.00000000000E+00  0.14384195433E+04  0.14384195433E+04  0.00000000000E+00 0. -1.
         21   -1    0    0  502  503 -0.00000000000E+00 -0.00000000000E+00 -0.93133328616E+03  0.93133328616E+03  0.00000000000E+00 0. -1.
    9000010    2    1    2  501    0  0.23287426478E+03  0.21374546727E+03  0.65071401004E+03  0.12416197242E+04  0.10090952723E+04 0.  0.
   -9000010    2    1    2    0  503 -0.23287426478E+03 -0.21374546727E+03 -0.14362775289E+03  0.11281331053E+04  0.10733768322E+04 0.  0.
        -13    1    3    3    0    0  0.44947217497E+03  0.48808959624E+03  0.24795849860E+03  0.70833616188E+03  0.10566000000E+00 0.  1.
         13    1    4    4    0    0  0.33617761455E+03 -0.34686727183E+03 -0.23405582883E+03  0.53676292249E+03  0.10566000000E+00 0. -1.
          4    1    3    3  501    0 -0.21659791020E+03 -0.27434412897E+03  0.40275551144E+03  0.53328356228E+03  0.00000000000E+00 0.  1.
         -4    1    4    4    0  503 -0.56905187933E+03  0.13312180455E+03  0.90428075933E+02  0.59137018282E+03  0.00000000000E+00 0. -1.
</event>
<event>
 8    1  0.7572579E-006  0.1027017E+04  0.7818608E-02  0.8756474E-01
         21   -1    0    0  503  502  0.00000000000E+00  0.00000000000E+00  0.62148839730E+03  0.62148839730E+03  0.00000000000E+00 0.  1.
         21   -1    0    0  501  503 -0.00000000000E+00 -0.00000000000E+00 -0.20447243854E+04  0.20447243854E+04  0.00000000000E+00 0.  1.
    9000010    2    1    2  501    0 -0.86126462224E+02 -0.30102750430E+01 -0.13319466465E+03  0.10356178112E+04  0.10233946467E+04 0.  0.
   -9000010    2    1    2    0  502  0.86126462224E+02  0.30102750430E+01 -0.12900413235E+04  0.16305949716E+04  0.99358266676E+03 0.  0.
        -13    1    3    3    0    0 -0.29811006165E+03  0.43775594581E+03 -0.13485716113E+03  0.54652204166E+03  0.10566000000E+00 0.  1.
         13    1    4    4    0    0 -0.24432080991E+03 -0.37012900890E+03 -0.34394303901E+03  0.56123521507E+03  0.10566000000E+00 0. -1.
          4    1    3    3  501    0  0.21198359942E+03 -0.44076622086E+03  0.16624964807E+01  0.48909576953E+03  0.00000000000E+00 0.  1.
         -4    1    4    4    0  502  0.33044727214E+03  0.37313928394E+03 -0.94609828449E+03  0.10693597565E+04  0.00000000000E+00 0. -1.
</event>
<event>
 8    1  0.7572579E-006  0.1131248E+04  0.7818608E-02  0.8661736E-01
         21   -1    0    0  503  502  0.00000000000E+00  0.00000000000E+00  0.11192905880E+04  0.11192905880E+04  0.00000000000E+00 0. -1.
         21   -1    0    0  501  503 -0.00000000000E+00 -0.00000000000E+00 -0.11925184968E+04  0.11925184968E+04  0.00000000000E+00 0. -1.
    9000010    2    1    2  501    0  0.89288749900E+02 -0.52313862109E+03 -0.28865846561E+03  0.11602313640E+04  0.99053854569E+03 0.  0.
   -9000010    2    1    2    0  502 -0.89288749900E+02  0.52313862109E+03  0.21543055683E+03  0.11515777209E+04  0.99903674840E+03 0.  0.
        -13    1    3    3    0    0 -0.33771312356E+03 -0.60028002996E+03 -0.20177618246E+03  0.71770460997E+03  0.10566000000E+00 0.  1.
         13    1    4    4    0    0 -0.48931079472E+03  0.19602971412E+03 -0.11327621836E+03  0.53915138455E+03  0.10566000000E+00 0. -1.
          4    1    3    3  501    0  0.42700187346E+03  0.77141408871E+02 -0.86882283155E+02  0.44252675403E+03  0.00000000000E+00 0.  1.
         -4    1    4    4    0  502  0.40002204482E+03  0.32710890697E+03  0.32870677520E+03  0.61242633632E+03  0.00000000000E+00 0. -1.
</event>
<event>
 8    1  0.7572579E-006  0.1054732E+04  0.7818608E-02  0.8729484E-01
         21   -1    0    0  501  502  0.00000000000E+00  0.00000000000E+00  0.88932223710E+03  0.88932223710E+03  0.00000000000E+00 0. -1.
         21   -1    0    0  502  503 -0.00000000000E+00 -0.00000000000E+00 -0.12451596002E+04  0.12451596002E+04  0.00000000000E+00 0. -1.
    9000010    2    1    2  501    0 -0.25395695671E+02  0.20984773610E+03 -0.44016685457E+02  0.10346220070E+04  0.10118419912E+04 0.  0.
   -9000010    2    1    2    0  503  0.25395695671E+02 -0.20984773610E+03 -0.31182067766E+03  0.10998598303E+04  0.10333336816E+04 0.  0.
        -13    1    3    3    0    0 -0.15340584634E+03 -0.39063091044E+03 -0.22345421264E+02  0.42026799890E+03  0.10566000000E+00 0.  1.
         13    1    4    4    0    0 -0.47663823419E+03  0.50802350753E+02 -0.68994633540E+02  0.48427797365E+03  0.10566000000E+00 0. -1.
          4    1    3    3  501    0  0.12801015067E+03  0.60047864654E+03 -0.21671264193E+02  0.61435400814E+03  0.00000000000E+00 0.  1.
         -4    1    4    4    0  503  0.50203392987E+03 -0.26065008685E+03 -0.24282604412E+03  0.61558185663E+03  0.00000000000E+00 0. -1.
</event>
<event>
 8    1  0.7572579E-006  0.1020360E+04  0.7818608E-02  0.8776137E-01
         21   -1    0    0  501  502  0.00000000000E+00  0.00000000000E+00  0.12525201364E+04  0.12525201364E+04  0.00000000000E+00 0.  1.
         21   -1    0    0  502  503 -0.00000000000E+00 -0.00000000000E+00 -0.10753573638E+04  0.10753573638E+04  0.00000000000E+00 0.  1.
    9000010    2    1    2  501    0 -0.13836697817E+03  0.13168936419E+03  0.71793482712E+03  0.12476235652E+04  0.10023206249E+04 0.  0.
   -9000010    2    1    2    0  503  0.13836697817E+03 -0.13168936419E+03 -0.54077205451E+03  0.10802539350E+04  0.91543794974E+03 0.  0.
        -13    1    3    3    0    0  0.36279867929E+03  0.30511013038E+03  0.44933556104E+03  0.65315965195E+03  0.10566000000E+00 0.  1.
         13    1    4    4    0    0  0.40281703195E+03 -0.30002464976E+03 -0.59351065631E+02  0.50576566891E+03  0.10566000000E+00 0. -1.
          4    1    3    3  501    0 -0.50116565746E+03 -0.17342076619E+03  0.26859926608E+03  0.59446391320E+03  0.00000000000E+00 0.  1.
         -4    1    4    4    0  503 -0.26445005379E+03  0.16833528558E+03 -0.48142098888E+03  0.57448826607E+03  0.00000000000E+00 0. -1.
</event>
<event>
 8    1  0.7572579E-006  0.1055096E+04  0.7818608E-02  0.8725219E-01
         21   -1    0    0  503  502  0.00000000000E+00  0.00000000000E+00  0.30289638690E+04  0.30289638690E+04  0.00000000000E+00 0.  1.
         21   -1    0    0  501  503 -0.00000000000E+00 -0.00000000000E+00 -0.51356798957E+03  0.51356798957E+03  0.00000000000E+00 0.  1.
    9000010    2    1    2  501    0 -0.19279084959E+03  0.14948340505E+03  0.31081490677E+03  0.10999238971E+04  0.10265052718E+04 0.  0.
   -9000010    2    1    2    0  502  0.19279084959E+03 -0.14948340505E+03  0.22045809726E+04  0.24426079614E+04  0.10230556135E+04 0.  0.
        -13    1    3    3    0    0 -0.28360365316E+03  0.10757920231E+03  0.66552268737E+03  0.73138551765E+03  0.10566000000E+00 0.  1.
         13    1    4    4    0    0 -0.14891595780E+03  0.31627723167E+03  0.14542052803E+04  0.14956337313E+04  0.10566000000E+00 0. -1.
          4    1    3    3  501    0  0.90812803566E+02  0.41904202740E+02 -0.35470778060E+03  0.36853837944E+03  0.00000000000E+00 0.  1.
         -4    1    4    4    0  502  0.34170680740E+03 -0.46576063672E+03  0.75037569235E+03  0.94697423017E+03  0.00000000000E+00 0. -1.
</event>
<event>
 8    1  0.7572579E-006  0.1018325E+04  0.7818608E-02  0.8802124E-01
         21   -1    0    0  501  502  0.00000000000E+00  0.00000000000E+00  0.14581545052E+04  0.14581545052E+04  0.00000000000E+00 0.  1.
         21   -1    0    0  502  503 -0.00000000000E+00 -0.00000000000E+00 -0.89985262502E+03  0.89985262502E+03  0.00000000000E+00 0.  1.
    9000010    2    1    2  501    0 -0.11214970174E+03  0.19648974250E+03  0.94742616175E+03  0.12678680867E+04  0.81159557586E+03 0.  0.
   -9000010    2    1    2    0  503  0.11214970174E+03 -0.19648974250E+03 -0.38912428153E+03  0.10901390436E+04  0.99287443986E+03 0.  0.
        -13    1    3    3    0    0 -0.13730606859E+03 -0.12260170748E+03  0.92921139827E+03  0.94726868891E+03  0.10566000000E+00 0.  1.
         13    1    4    4    0    0 -0.32267994683E+03 -0.31567728209E+03  0.58038423283E+02  0.45512961259E+03  0.10566000000E+00 0. -1.
          4    1    3    3  501    0  0.25156366854E+02  0.31909144997E+03  0.18214763472E+02  0.32059939777E+03  0.00000000000E+00 0.  1.
         -4    1    4    4    0  503  0.43482964856E+03  0.11918753959E+03 -0.44716270481E+03  0.63500943098E+03  0.00000000000E+00 0. -1.
</event>
<event>
 8    1  0.7572579E-006  0.1122994E+04  0.7818608E-02  0.8671940E-01
         21   -1    0    0  501  502  0.00000000000E+00  0.00000000000E+00  0.50887201881E+03  0.50887201881E+03  0.00000000000E+00 0.  1.
         21   -1    0    0  502  503 -0.00000000000E+00 -0.00000000000E+00 -0.26700740720E+04  0.26700740720E+04  0.00000000000E+00 0.  1.
    9000010    2    1    2  501    0  0.53854529825E+02 -0.45839096363E+03 -0.60971441736E+03  0.12778366845E+04  0.10237638085E+04 0.  0.
   -9000010    2    1    2    0  503 -0.53854529825E+02  0.45839096363E+03 -0.15514876359E+04  0.19011094063E+04  0.99703585930E+03 0.  0.
        -13    1    3    3    0    0  0.52039489620E+03 -0.39208987763E+03 -0.34207324351E+03  0.73590721916E+03  0.10566000000E+00 0.  1.
         13    1    4    4    0    0  0.36827853887E+03  0.54773477168E+03 -0.83004344517E+03  0.10604784742E+04  0.10566000000E+00 0. -1.
          4    1    3    3  501    0 -0.46654036637E+03 -0.66301086007E+02 -0.26764117385E+03  0.54192946534E+03  0.00000000000E+00 0.  1.
         -4    1    4    4    0  503 -0.42213306869E+03 -0.89343808042E+02 -0.72144419070E+03  0.84063093211E+03  0.00000000000E+00 0. -1.
</event>
<event>
 8    1  0.7572579E-006  0.1061221E+04  0.7818608E-02  0.8728695E-01
         21   -1    0    0  501  502  0.00000000000E+00  0.00000000000E+00  0.15164823415E+04  0.15164823415E+04  0.00000000000E+00 0. -1.
         21   -1    0    0  502  503 -0.00000000000E+00 -0.00000000000E+00 -0.74388485468E+03  0.74388485468E+03  0.00000000000E+00 0. -1.
    9000010    2    1    2  501    0 -0.19454324735E+03 -0.14234728532E+03  0.14802512212E+03  0.10289941438E+04  0.98934710113E+03 0.  0.
   -9000010    2    1    2    0  503  0.19454324735E+03  0.14234728532E+03  0.62457236467E+03  0.12313730523E+04  0.10334791389E+04 0.  0.
        -13    1    3    3    0    0  0.34859377375E+03 -0.24237270943E+03 -0.79038255590E+02  0.43186711659E+03  0.10566000000E+00 0.  1.
         13    1    4    4    0    0  0.30962057971E+03 -0.30768172733E+03  0.63046780605E+03  0.76682632606E+03  0.10566000000E+00 0. -1.
          4    1    3    3  501    0 -0.54313702110E+03  0.10002542411E+03  0.22706337771E+03  0.59712702724E+03  0.00000000000E+00 0.  1.
         -4    1    4    4    0  503 -0.11507733236E+03  0.45002901265E+03 -0.58954413710E+01  0.46454672626E+03  0.00000000000E+00 0. -1.
</event>
<event>
 8    1  0.7572579E-006  0.1049016E+04  0.7818608E-02  0.8738151E-01
         21   -1    0    0  501  502  0.00000000000E+00  0.00000000000E+00  0.18712349811E+04  0.18712349811E+04  0.00000000000E+00 0.  1.
         21   -1    0    0  502  503 -0.00000000000E+00 -0.00000000000E+00 -0.59011603120E+03  0.59011603120E+03  0.00000000000E+00 0.  1.
    9000010    2    1    2  501    0 -0.16234041609E+03 -0.25558779016E+03  0.89155361219E+03  0.13766994753E+04  0.10043674988E+04 0.  0.
   -9000010    2    1    2    0  503  0.16234041609E+03  0.25558779016E+03  0.38956533773E+03  0.10846515370E+04  0.96593388760E+03 0.  0.
        -13    1    3    3    0    0  0.56624388782E+02  0.12607571019E+03 -0.17497125144E+03  0.22297164864E+03  0.10566000000E+00 0.  1.
         13    1    4    4    0    0  0.24000318930E+02  0.30341030979E+03  0.68796626387E+03  0.75228413701E+03  0.10566000000E+00 0. -1.
          4    1    3    3  501    0 -0.21896480488E+03 -0.38166350035E+03  0.10665248636E+04  0.11537278267E+04  0.00000000000E+00 0.  1.
         -4    1    4    4    0  503  0.13834009716E+03 -0.47822519636E+02 -0.29840092614E+03  0.33236740001E+03  0.00000000000E+00 0. -1.
</event>
<event>
 8    1  0.7572579E-006  0.1072675E+04  0.7818608E-02  0.8711252E-01
         21   -1    0    0  503  502  0.00000000000E+00  0.00000000000E+00  0.88609832706E+03  0.88609832706E+03  0.00000000000E+00 0.  1.
         21   -1    0    0  501  503 -0.00000000000E+00 -0.00000000000E+00 -0.14502752615E+04  0.14502752615E+04  0.00000000000E+00 0.  1.
    9000010    2    1    2  501    0  0.33387149232E+03  0.19393840595E+03 -0.67538661738E+03  0.12675881077E+04  0.10007748244E+04 0.  0.
   -9000010    2    1    2    0  502 -0.33387149232E+03 -0.19393840595E+03  0.11120968295E+03  0.10687854809E+04  0.99037999366E+03 0.  0.
        -13    1    3    3    0    0  0.38309335622E+03 -0.31788258182E+03 -0.54296423076E+03  0.73662746517E+03  0.10566000000E+00 0.  1.
         13    1    4    4    0    0 -0.62260279489E+03  0.11213411795E+03 -0.36162084201E+01  0.63263053099E+03  0.10566000000E+00 0. -1.
          4    1    3    3  501    0 -0.49221863893E+02  0.51182098777E+03 -0.13242238663E+03  0.53096064250E+03  0.00000000000E+00 0.  1.
         -4    1    4    4    0  502  0.28873130257E+03 -0.30607252390E+03  0.11482589137E+03  0.43615494987E+03  0.00000000000E+00 0. -1.
</event>
<event>
 8    1  0.7572579E-006  0.1120567E+04  0.7818608E-02  0.8672319E-01
         21   -1    0    0  501  502  0.00000000000E+00  0.00000000000E+00  0.16862907500E+04  0.16862907500E+04  0.00000000000E+00 0.  1.
         21   -1    0    0  502  503 -0.00000000000E+00 -0.00000000000E+00 -0.84753879202E+03  0.84753879202E+03  0.00000000000E+00 0.  1.
    9000010    2    1    2  501    0 -0.47627905499E+03  0.13793389575E+03  0.88643701436E+03  0.14287901217E+04  0.10048896127E+04 0.  0.
   -9000010    2    1    2    0  503  0.47627905499E+03 -0.13793389575E+03 -0.47685056386E+02  0.11050394203E+04  0.98639280103E+03 0.  0.
        -13    1    3    3    0    0 -0.73588953654E+03  0.36084839077E+02  0.33190161931E+03  0.80808057869E+03  0.10566000000E+00 0.  1.
         13    1    4    4    0    0  0.45990597905E+03 -0.30339528119E+03 -0.42295252106E+03  0.69458696537E+03  0.10566000000E+00 0. -1.
          4    1    3    3  501    0  0.25961048155E+03  0.10184905668E+03  0.55453539505E+03  0.62070954305E+03  0.00000000000E+00 0.  1.
         -4    1    4    4    0  503  0.16373075939E+02  0.16546138544E+03  0.37526746468E+03  0.41045245490E+03  0.00000000000E+00 0. -1.
</event>
<event>
 8    1  0.7572579E-006  0.9957195E+03  0.7818608E-02  0.8780455E-01
         21   -1    0    0  501  502  0.00000000000E+00  0.00000000000E+00  0.56232926136E+03  0.56232926136E+03  0.00000000000E+00 0.  1.
         21   -1    0    0  502  503 -0.00000000000E+00 -0.00000000000E+00 -0.22803980629E+04  0.22803980629E+04  0.00000000000E+00 0.  1.
    9000010    2    1    2  501    0  0.10535196612E+03  0.20061639689E+03 -0.17577689660E+03  0.10111156384E+04  0.96959338972E+03 0.  0.
   -9000010    2    1    2    0  503 -0.10535196612E+03 -0.20061639689E+03 -0.15422919049E+04  0.18316116858E+04  0.96166058056E+03 0.  0.
        -13    1    3    3    0    0 -0.37839479499E+03 -0.72254077437E+01 -0.28453654154E+03  0.47349327559E+03  0.10566000000E+00 0.  1.
         13    1    4    4    0    0 -0.40611699487E+03 -0.41297962861E+03 -0.11829416333E+04  0.13171310133E+04  0.10566000000E+00 0. -1.
          4    1    3    3  501    0  0.48374676111E+03  0.20784180463E+03  0.10875964494E+03  0.53762236282E+03  0.00000000000E+00 0.  1.
         -4    1    4    4    0  503  0.30076502874E+03  0.21236323173E+03 -0.35935027156E+03  0.51448067250E+03  0.00000000000E+00 0. -1.
</event>
<event>
 8    1  0.7572579E-006  0.1042093E+04  0.7818608E-02  0.8739879E-01
         21   -1    0    0  503  502  0.00000000000E+00  0.00000000000E+00  0.71710903310E+03  0.71710903310E+03  0.00000000000E+00 0. -1.
         21   -1    0    0  501  503 -0.00000000000E+00 -0.00000000000E+00 -0.16733384527E+04  0.16733384527E+04  0.00000000000E+00 0. -1.
    9000010    2    1    2  501    0 -0.25695798641E+03 -0.14079581961E+03 -0.87772613258E+03  0.13624832527E+04  0.10000532888E+04 0.  0.
   -9000010    2    1    2    0  502  0.25695798641E+03  0.14079581961E+03 -0.78503287030E+02  0.10279642331E+04  0.98218981309E+03 0.  0.
        -13    1    3    3    0    0  0.26470999643E+02  0.37160476544E+03 -0.61865673358E+03  0.72216824957E+03  0.10566000000E+00 0.  1.
         13    1    4    4    0    0  0.56388823237E+03 -0.16378063744E+03 -0.97075103769E+02  0.59516184584E+03  0.10566000000E+00 0. -1.
          4    1    3    3  501    0 -0.28342898605E+03 -0.51240058505E+03 -0.25906939901E+03  0.64031500311E+03  0.00000000000E+00 0.  1.
         -4    1    4    4    0  502 -0.30693024596E+03  0.30457645705E+03  0.18571816740E+02  0.43280238730E+03  0.00000000000E+00 0. -1.
</event>
<event>
 8    1  0.7572579E-006  0.1087100E+04  0.7818608E-02  0.8700725E-01
         21   -1    0    0  501  502  0.00000000000E+00  0.00000000000E+00  0.20206398282E+04  0.20206398282E+04  0.00000000000E+00 0.  1.
         21   -1    0    0  502  503 -0.00000000000E+00 -0.00000000000E+00 -0.14317580743E+04  0.14317580743E+04  0.00000000000E+00 0.  1.
    9000010    2    1    2  501    0 -0.26222002066E+03 -0.31477250586E+03  0.16287008628E+04  0.19480673525E+04  0.98714681766E+03 0.  0.
   -9000010    2    1    2    0  503  0.26222002066E+03  0.31477250586E+03 -0.10398191089E+04  0.15043305500E+04  0.10069486357E+04 0.  0.
        -13    1    3    3    0    0 -0.23463971687E+03 -0.44315157378E+03  0.17177298212E+04  0.17894230533E+04  0.10566000000E+00 0.  1.
         13    1    4    4    0    0  0.17866844885E+02  0.45578095606E+03 -0.11214287870E+04  0.12106436468E+04  0.10566000000E+00 0. -1.
          4    1    3    3  501    0 -0.27580303782E+02  0.12837906792E+03 -0.89028958342E+02  0.15864429917E+03  0.00000000000E+00 0.  1.
         -4    1    4    4    0  503  0.24435317577E+03 -0.14100845019E+03  0.81609678165E+02  0.29368690319E+03  0.00000000000E+00 0. -1.
</event>
<event>
 8    1  0.7572579E-006  0.1037036E+04  0.7818608E-02  0.8748257E-01
         21   -1    0    0  501  502  0.00000000000E+00  0.00000000000E+00  0.18690196395E+04  0.18690196395E+04  0.00000000000E+00 0. -1.
         21   -1    0    0  502  503 -0.00000000000E+00 -0.00000000000E+00 -0.72261933163E+03  0.72261933163E+03  0.00000000000E+00 0. -1.
    9000010    2    1    2  501    0  0.14402971655E+03 -0.37387492635E+02  0.11864576025E+04  0.15538293687E+04  0.99225081535E+03 0.  0.
   -9000010    2    1    2    0  503 -0.14402971655E+03  0.37387492635E+02 -0.40057294597E+02  0.10378096025E+04  0.10263049256E+04 0.  0.
        -13    1    3    3    0    0  0.29467115727E+03  0.35883177017E+03  0.97545730696E+03  0.10803278665E+04  0.10566000000E+00 0.  1.
         13    1    4    4    0    0 -0.50572527540E+03  0.30183085763E+03 -0.26808771395E+02  0.58955800578E+03  0.10566000000E+00 0. -1.
          4    1    3    3  501    0 -0.15064144072E+03 -0.39621926280E+03  0.21100029556E+03  0.47350150222E+03  0.00000000000E+00 0.  1.
         -4    1    4    4    0  503  0.36169555885E+03 -0.26444336499E+03 -0.13248523202E+02  0.44825159670E+03  0.00000000000E+00 0. -1.
</event>
<event>
 8    1  0.7572579E-006  0.1061596E+04  0.7818608E-02  0.8724642E-01
         21   -1    0    0  501  502  0.00000000000E+00  0.00000000000E+00  0.13248215263E+04  0.13248215263E+04  0.00000000000E+00 0.  1.
         21   -1    0    0  502  503 -0.00000000000E+00 -0.00000000000E+00 -0.10814801603E+04  0.10814801603E+04  0.00000000000E+00 0.  1.
    9000010    2    1    2  501    0 -0.20319422580E+03  0.20419527523E+03 -0.45778859477E+03  0.11560957828E+04  0.10217648740E+04 0.  0.
   -9000010    2    1    2    0  503  0.20319422580E+03 -0.20419527523E+03  0.70112996072E+03  0.12502059038E+04  0.99420720986E+03 0.  0.
        -13    1    3    3    0    0 -0.22636713219E+03  0.46681221670E+03  0.10977587226E+03  0.53028905088E+03  0.10566000000E+00 0.  1.
         13    1    4    4    0    0  0.58168744860E+03 -0.23310079715E+03  0.28958803897E+03  0.69033145153E+03  0.10566000000E+00 0. -1.
          4    1    3    3  501    0  0.23172906382E+02 -0.26261694146E+03 -0.56756446703E+03  0.62580673196E+03  0.00000000000E+00 0.  1.
         -4    1    4    4    0  503 -0.37849322280E+03  0.28905521919E+02  0.41154192176E+03  0.55987445223E+03  0.00000000000E+00 0. -1.
</event>
<event>
 8    1  0.7572579E-006  0.1051470E+04  0.7818608E-02  0.8736208E-01
         21   -1    0    0  501  502  0.00000000000E+00  0.00000000000E+00  0.11566236886E+04  0.11566236886E+04  0.00000000000E+00 0.  1.
         21   -1    0    0  502  503 -0.00000000000E+00 -0.00000000000E+00 -0.97973562773E+03  0.97973562773E+03  0.00000000000E+00 0.  1.
    9000010    2    1    2  501    0 -0.19431786958E+03  0.27292077148E+03 -0.17283086400E+03  0.10282558772E+04  0.95665796366E+03 0.  0.
   -9000010    2    1    2    0  503  0.19431786958E+03 -0.27292077148E+03  0.34971892491E+03  0.11081034392E+04  0.99666680671E+03 0.  0.
        -13    1    3    3    0    0  0.25119349593E+03  0.71821884359E+02  0.26493519448E+03  0.37208496867E+03  0.10566000000E+00 0.  1.
         13    1    4    4    0    0 -0.24961597238E+03  0.24387293512E+03  0.22575656689E+03  0.41562986034E+03  0.10566000000E+00 0. -1.
          4    1    3    3  501    0 -0.44551136551E+03  0.20109888713E+03 -0.43776605848E+03  0.65617090850E+03  0.00000000000E+00 0.  1.
         -4    1    4    4    0  503  0.44393384196E+03 -0.51679370660E+03  0.12396235802E+03  0.69247357887E+03  0.00000000000E+00 0. -1.
</event>
<event>
 8    1  0.7572579E-006  0.1168989E+04  0.7818608E-02  0.8632459E-01
         21   -1    0    0  503  502  0.00000000000E+00  0.00000000000E+00  0.20713241293E+04  0.20713241293E+04  0.00000000000E+00 0. -1.
         21   -1    0    0  501  503 -0.00000000000E+00 -0.00000000000E+00 -0.87156552167E+03  0.87156552167E+03  0.00000000000E+00 0.  1.
    9000010    2    1    2  501    0 -0.40501492354E+03 -0.42274487338E+03 -0.13831324242E+03  0.11661027558E+04  0.99895683976E+03 0.  0.
   -9000010    2    1    2    0  502  0.40501492354E+03  0.42274487338E+03  0.13380718501E+04  0.17767868952E+04  0.10118226519E+04 0.  0.
        -13    1    3    3    0    0 -0.56192815863E+03 -0.76453456457E+02 -0.40916685929E+03  0.69930387985E+03  0.10566000000E+00 0.  1.
         13    1    4    4    0    0 -0.44688815101E+02  0.27577154409E+02 -0.15740609004E+03  0.16593455934E+03  0.10566000000E+00 0. -1.
          4    1    3    3  501    0  0.15691323510E+03 -0.34629141693E+03  0.27085361687E+03  0.46679887591E+03  0.00000000000E+00 0.  1.
         -4    1    4    4    0  502  0.44970373864E+03  0.39516771897E+03  0.14954779401E+04  0.16108523359E+04  0.00000000000E+00 0. -1.
</event>
<event>
 8    1  0.7572579E-006  0.1045261E+04  0.7818608E-02  0.8745785E-01
         21   -1    0    0  503  502  0.00000000000E+00  0.00000000000E+00  0.29527322054E+04  0.29527322054E+04  0.00000000000E+00 0. -1.
         21   -1    0    0  501  503 -0.00000000000E+00 -0.00000000000E+00 -0.37886088235E+03  0.37886088235E+03  0.00000000000E+00 0. -1.
    9000010    2    1    2  501    0 -0.13635626094E+03 -0.29532529015E+03  0.80164709423E+03  0.12740826441E+04  0.93532799782E+03 0.  0.
   -9000010    2    1    2    0  502  0.13635626094E+03  0.29532529015E+03  0.17722242288E+04  0.20575104436E+04  0.99335816878E+03 0.  0.
        -13    1    3    3    0    0  0.21791696289E+03 -0.51725666660E+03  0.55161431255E+03  0.78696926423E+03  0.10566000000E+00 0.  1.
         13    1    4    4    0    0  0.32842359296E+03 -0.26680386985E+03  0.51143845275E+03  0.66378886967E+03  0.10566000000E+00 0. -1.
          4    1    3    3  501    0 -0.35427322383E+03  0.22193137645E+03  0.25003278168E+03  0.48711337991E+03  0.00000000000E+00 0.  1.
         -4    1    4    4    0  502 -0.19206733202E+03  0.56212916000E+03  0.12607857760E+04  0.13937215739E+04  0.00000000000E+00 0. -1.
</event>
<event>
 8    1  0.7572579E-006  0.1050290E+04  0.7818608E-02  0.8733162E-01
         21   -1    0    0  501  502  0.00000000000E+00  0.00000000000E+00  0.55357917687E+03  0.55357917687E+03  0.00000000000E+00 0. -1.
         21   -1    0    0  502  503 -0.00000000000E+00 -0.00000000000E+00 -0.28777718493E+04  0.28777718493E+04  0.00000000000E+00 0. -1.
    9000010    2    1    2  501    0 -0.31246495126E+03  0.28483549445E+02 -0.19823772067E+03  0.10688347981E+04  0.10023292739E+04 0.  0.
   -9000010    2    1    2    0  503  0.31246495126E+03 -0.28483549445E+02 -0.21259549517E+04  0.23625162281E+04  0.98150538098E+03 0.  0.
        -13    1    3    3    0    0  0.35646336193E+03  0.40632497940E+02  0.34603981481E+02  0.36043664490E+03  0.10566000000E+00 0.  1.
         13    1    4    4    0    0 -0.35779564941E+03  0.14162233649E+00 -0.67465625756E+03  0.76366145891E+03  0.10566000000E+00 0. -1.
          4    1    3    3  501    0 -0.66892831319E+03 -0.12148948495E+02 -0.23284170215E+03  0.70839815316E+03  0.00000000000E+00 0.  1.
         -4    1    4    4    0  503  0.67026060066E+03 -0.28625171781E+02 -0.14512986942E+04  0.15988547692E+04  0.00000000000E+00 0. -1.
</event>
<event>
 8    1  0.9479446E-006  0.1069147E+04  0.7818608E-02  0.8726447E-01
         21   -1    0    0  501  502  0.00000000000E+00  0.00000000000E+00  0.14241876293E+04  0.14241876293E+04  0.00000000000E+00 0. -1.
         21   -1    0    0  502  503 -0.00000000000E+00 -0.00000000000E+00 -0.12216780684E+04  0.12216780684E+04  0.00000000000E+00 0. -1.
    9000010    2    1    2  501    0 -0.95240648758E+02  0.11370581680E+03  0.91627699452E+03  0.13603543907E+04  0.99448516512E+03 0.  0.
   -9000010    2    1    2    0  503  0.95240648758E+02 -0.11370581680E+03 -0.71376743355E+03  0.12855113070E+04  0.10588085650E+04 0.  0.
        -13    1    3    3    0    0  0.85955421189E+02 -0.32240173741E+03  0.46821041716E+01  0.33369619114E+03  0.10566000000E+00 0.  1.
         13    1    4    4    0    0  0.15944764921E+03 -0.57705534009E+03 -0.35523600877E+03  0.69613867258E+03  0.10566000000E+00 0. -1.
          4    1    3    3  501    0 -0.18119606995E+03  0.43610755421E+03  0.91159489034E+03  0.10266581996E+04  0.00000000000E+00 0.  1.
         -4    1    4    4    0  503 -0.64207000457E+02  0.46334952329E+03 -0.35853142477E+03  0.58937263441E+03  0.00000000000E+00 0. -1.
</event>
<event>
 8    1  0.7572579E-006  0.1010562E+04  0.7818608E-02  0.8765963E-01
         21   -1    0    0  501  502  0.00000000000E+00  0.00000000000E+00  0.13130013519E+04  0.13130013519E+04  0.00000000000E+00 0. -1.
         21   -1    0    0  502  503 -0.00000000000E+00 -0.00000000000E+00 -0.79202065112E+03  0.79202065112E+03  0.00000000000E+00 0. -1.
    9000010    2    1    2  501    0 -0.11555155870E+03  0.27117802936E+02  0.41982794725E+03  0.10894103285E+04  0.99823435156E+03 0.  0.
   -9000010    2    1    2    0  503  0.11555155870E+03 -0.27117802936E+02  0.10115275355E+03  0.10156116745E+04  0.10035674645E+04 0.  0.
        -13    1    3    3    0    0  0.21628865256E+03 -0.39409172759E+03  0.85797425286E+02  0.45765738313E+03  0.10566000000E+00 0.  1.
         13    1    4    4    0    0  0.18682847905E+03  0.37671891892E+03 -0.23824182022E+03  0.48330239036E+03  0.10566000000E+00 0. -1.
          4    1    3    3  501    0 -0.33184021126E+03  0.42120953052E+03  0.33403052197E+03  0.63175294540E+03  0.00000000000E+00 0.  1.
         -4    1    4    4    0  503 -0.71276920356E+02 -0.40383672186E+03  0.33939457377E+03  0.53230928416E+03  0.00000000000E+00 0. -1.
</event>
<event>
 8    1  0.1079330E-005  0.1009609E+04  0.7818608E-02  0.8770696E-01
         21   -1    0    0  501  502  0.00000000000E+00  0.00000000000E+00  0.17252421627E+04  0.17252421627E+04  0.00000000000E+00 0. -1.
         21   -1    0    0  502  503 -0.00000000000E+00 -0.00000000000E+00 -0.58681717003E+03  0.58681717003E+03  0.00000000000E+00 0. -1.
    9000010    2    1    2  501    0 -0.18789766803E+03 -0.75739656909E+02  0.42328600573E+03  0.10748306304E+04  0.96697870301E+03 0.  0.
   -9000010    2    1    2    0  503  0.18789766803E+03  0.75739656909E+02  0.71513898692E+03  0.12372287023E+04  0.98907485156E+03 0.  0.
        -13    1    3    3    0    0  0.12128931230E+03 -0.12994837860E+02 -0.27923729846E+03  0.30471862940E+03  0.10566000000E+00 0.  1.
         13    1    4    4    0    0  0.14460032795E+03  0.44542527848E+03  0.44751164356E+02  0.47044193204E+03  0.10566000000E+00 0. -1.
          4    1    3    3  501    0 -0.30918698033E+03 -0.62744819049E+02  0.70252330419E+03  0.77011200098E+03  0.00000000000E+00 0.  1.
         -4    1    4    4    0  503  0.43297340080E+02 -0.36968562157E+03  0.67038782256E+03  0.76678677029E+03  0.00000000000E+00 0. -1.
</event>
<event>
 8    1  0.7572579E-006  0.1065871E+04  0.7818608E-02  0.8723999E-01
         21   -1    0    0  503  502  0.00000000000E+00  0.00000000000E+00  0.76786044992E+03  0.76786044992E+03  0.00000000000E+00 0. -1.
         21   -1    0    0  501  503 -0.00000000000E+00 -0.00000000000E+00 -0.14619058103E+04  0.14619058103E+04  0.00000000000E+00 0. -1.
    9000010    2    1    2  501    0  0.97744954104E+02  0.20360773292E+03 -0.51981692777E+03  0.11497488568E+04  0.10003512435E+04 0.  0.
   -9000010    2    1    2    0  502 -0.97744954104E+02 -0.20360773292E+03 -0.17422843262E+03  0.10800174034E+04  0.10416678262E+04 0.  0.
        -13    1    3    3    0    0  0.16516575422E+03  0.57048921305E+03 -0.49972245197E+03  0.77618310259E+03  0.10566000000E+00 0.  1.
         13    1    4    4    0    0  0.39207992464E+03  0.16348949743E+03  0.50842055390E+02  0.42783222043E+03  0.10566000000E+00 0. -1.
          4    1    3    3  501    0 -0.67420800119E+02 -0.36688148013E+03 -0.20094475802E+02  0.37356575420E+03  0.00000000000E+00 0.  1.
         -4    1    4    4    0  502 -0.48982487875E+03 -0.36709723036E+03 -0.22507048801E+03  0.65218518302E+03  0.00000000000E+00 0. -1.
</event>
<event>
 8    1  0.7572579E-006  0.1036686E+04  0.7818608E-02  0.8743163E-01
         21   -1    0    0  503  502  0.00000000000E+00  0.00000000000E+00  0.13247679717E+04  0.13247679717E+04  0.00000000000E+00 0.  1.
         21   -1    0    0  501  503 -0.00000000000E+00 -0.00000000000E+00 -0.97250561594E+03  0.97250561594E+03  0.00000000000E+00 0.  1.
    9000010    2    1    2  501    0 -0.12470047556E+03  0.22073740018E+03 -0.30224130747E+03  0.10798456663E+04  0.10052072655E+04 0.  0.
   -9000010    2    1    2    0  502  0.12470047556E+03 -0.22073740018E+03  0.65450366321E+03  0.12174279213E+04  0.99472633929E+03 0.  0.
        -13    1    3    3    0    0  0.11753455029E+03 -0.37508675987E+03 -0.99550020272E+02  0.40548078332E+03  0.10566000000E+00 0.  1.
         13    1    4    4    0    0 -0.22719331172E+02 -0.78301463710E+02 -0.26401284879E+03  0.27631518728E+03  0.10566000000E+00 0. -1.
          4    1    3    3  501    0 -0.24223502586E+03  0.59582416005E+03 -0.20269128720E+03  0.67436488295E+03  0.00000000000E+00 0.  1.
         -4    1    4    4    0  502  0.14741980673E+03 -0.14243593647E+03  0.91851651200E+03  0.94111273407E+03  0.00000000000E+00 0. -1.
</event>
<event>
 8    1  0.7572579E-006  0.1036353E+04  0.7818608E-02  0.8745234E-01
         21   -1    0    0  501  502  0.00000000000E+00  0.00000000000E+00  0.97997737714E+03  0.97997737714E+03  0.00000000000E+00 0. -1.
         21   -1    0    0  502  503 -0.00000000000E+00 -0.00000000000E+00 -0.10941271996E+04  0.10941271996E+04  0.00000000000E+00 0. -1.
    9000010    2    1    2  501    0  0.67107570211E+02  0.16701903991E+03  0.71798189750E+02  0.10388372923E+04  0.10206023487E+04 0.  0.
   -9000010    2    1    2    0  503 -0.67107570211E+02 -0.16701903991E+03 -0.18594801224E+03  0.10352672844E+04  0.10023985741E+04 0.  0.
        -13    1    3    3    0    0 -0.43047392621E+03  0.27484784117E+03 -0.56331236820E+02  0.51383105818E+03  0.10566000000E+00 0.  1.
         13    1    4    4    0    0 -0.29735043171E+03 -0.46486801268E+03 -0.31729166352E+03  0.63654815949E+03  0.10566000000E+00 0. -1.
          4    1    3    3  501    0  0.49758149642E+03 -0.10782880127E+03  0.12812942657E+03  0.52500623417E+03  0.00000000000E+00 0.  1.
         -4    1    4    4    0  503  0.23024286150E+03  0.29784897277E+03  0.13134365128E+03  0.39871912493E+03  0.00000000000E+00 0. -1.
</event>
<event>
 8    1  0.7572579E-006  0.1096639E+04  0.7818608E-02  0.8741173E-01
         21   -1    0    0  501  502  0.00000000000E+00  0.00000000000E+00  0.10593377425E+04  0.10593377425E+04  0.00000000000E+00 0. -1.
         21   -1    0    0  502  503 -0.00000000000E+00 -0.00000000000E+00 -0.10029118469E+04  0.10029118469E+04  0.00000000000E+00 0. -1.
    9000010    2    1    2  501    0  0.40933604038E+02 -0.19603571883E+03 -0.27462474479E+03  0.91673156801E+03  0.85139441761E+03 0.  0.
   -9000010    2    1    2    0  503 -0.40933604038E+02  0.19603571883E+03  0.33105064046E+03  0.11455180214E+04  0.10781982414E+04 0.  0.
        -13    1    3    3    0    0  0.14166776517E+03 -0.45209644981E+03 -0.39457245264E+03  0.61656174643E+03  0.10566000000E+00 0.  1.
         13    1    4    4    0    0  0.94160120948E+02  0.60160772006E+03  0.67897200829E+01  0.60896969438E+03  0.10566000000E+00 0. -1.
          4    1    3    3  501    0 -0.10073416113E+03  0.25606073098E+03  0.11994770785E+03  0.30016982158E+03  0.00000000000E+00 0.  1.
         -4    1    4    4    0  503 -0.13509372499E+03 -0.40557200123E+03  0.32426092037E+03  0.53654832699E+03  0.00000000000E+00 0. -1.
</event>
<event>
 8    1  0.7572579E-006  0.1218659E+04  0.7818608E-02  0.8614187E-01
         21   -1    0    0  503  502  0.00000000000E+00  0.00000000000E+00  0.15211953278E+04  0.15211953278E+04  0.00000000000E+00 0. -1.
         21   -1    0    0  501  503 -0.00000000000E+00 -0.00000000000E+00 -0.10574956613E+04  0.10574956613E+04  0.00000000000E+00 0. -1.
    9000010    2    1    2  501    0 -0.40569022505E+03  0.19016431504E+03 -0.29094354752E+03  0.11452978817E+04  0.10130706119E+04 0.  0.
   -9000010    2    1    2    0  502  0.40569022505E+03 -0.19016431504E+03  0.75464321404E+03  0.14333931074E+04  0.11333059580E+04 0.  0.
        -13    1    3    3    0    0  0.29323422051E+03  0.26916781255E+03 -0.16427048995E+03  0.43060704177E+03  0.10566000000E+00 0.  1.
         13    1    4    4    0    0  0.18332927157E+03  0.18225738648E+03 -0.23720527020E+03  0.35084715777E+03  0.10566000000E+00 0. -1.
          4    1    3    3  501    0 -0.69892444556E+03 -0.79003497511E+02 -0.12667305757E+03  0.71469083997E+03  0.00000000000E+00 0.  1.
         -4    1    4    4    0  502  0.22236095348E+03 -0.37242170152E+03  0.99184848424E+03  0.10825459496E+04  0.00000000000E+00 0. -1.
</event>
