<event>
 8    1  0.2939692E-006  0.1058091E+04  0.7818608E-02  0.8763690E-01
          4   -1    0    0  502    0  0.00000000000E+00  0.00000000000E+00  0.40793983720E+03  0.40793983720E+03  0.00000000000E+00 0.  1.
         -4   -1    0    0    0  501 -0.00000000000E+00 -0.00000000000E+00 -0.44206458306E+04  0.44206458306E+04  0.00000000000E+00 0. -1.
   -9000010    2    1    2    0  501 -0.31284764329E+03 -0.14869031050E+03 -0.36421381644E+04  0.37927202373E+04  0.99978694431E+03 0.  0.
    9000010    2    1    2  502    0  0.31284764329E+03  0.14869031050E+03 -0.37056782900E+03  0.10358654304E+04  0.90316898624E+03 0.  0.
        -13    1    4    4    0    0 -0.20028426204E+03 -0.10882852296E+03 -0.40064888278E+03  0.46095224423E+03  0.10566000000E+00 0.  1.
          4    1    4    4  502    0  0.51313190533E+03  0.25751883346E+03  0.30081053775E+02  0.57491318619E+03  0.00000000000E+00 0.  1.
         13    1    3    3    0    0  0.25830134680E+03 -0.17597502174E+02 -0.28588550543E+03  0.38569390872E+03  0.10566000000E+00 0. -1.
         -4    1    3    3    0  501 -0.57114899009E+03 -0.13109280833E+03 -0.33562526590E+04  0.34070263286E+04  0.00000000000E+00 0. -1.
<mgrwt>
<rscale>  0 0.10116849E+04</rscale>
<asrwt>0</asrwt>
<pdfrwt beam="1">  1        4 0.62759977E-01 0.96731415E+03</pdfrwt>
<pdfrwt beam="2">  1       -4 0.68009934E+00 0.10580909E+04</pdfrwt>
<totfact> 0.14926192E-02</totfact>
</mgrwt>
</event>
<event>
 8    1  0.2939692E-006  0.1143038E+04  0.7818608E-02  0.8659084E-01
         -4   -1    0    0    0  501 -0.00000000000E+00  0.00000000000E+00  0.24829543192E+04  0.24829543192E+04  0.00000000000E+00 0. -1.
          4   -1    0    0  502    0  0.00000000000E+00 -0.00000000000E+00 -0.80990074102E+03  0.80990074102E+03  0.00000000000E+00 0.  1.
   -9000010    2    1    2    0  501 -0.44292141881E+03  0.21226941858E+03  0.18319645430E+04  0.21593123303E+04  0.10321327258E+04 0.  0.
    9000010    2    1    2  502    0  0.44292141881E+03 -0.21226941858E+03 -0.15891096481E+03  0.11335427299E+04  0.10091723027E+04 0.  0.
        -13    1    4    4    0    0 -0.32235535311E+02 -0.48690382574E+03  0.14125675264E+03  0.50800388442E+03  0.10566000000E+00 0.  1.
          4    1    4    4  502    0  0.47515695412E+03  0.27463440716E+03 -0.30016771745E+03  0.62553884551E+03  0.00000000000E+00 0.  1.
         13    1    3    3    0    0 -0.16707851920E+03  0.58914923046E+03  0.13782434031E+04  0.15081667470E+04  0.10566000000E+00 0. -1.
         -4    1    3    3    0  501 -0.27584289961E+03 -0.37687981188E+03  0.45372113986E+03  0.65114558328E+03  0.00000000000E+00 0. -1.
<mgrwt>
<rscale>  0 0.11326460E+04</rscale>
<asrwt>0</asrwt>
<pdfrwt beam="2">  1        4 0.12460012E+00 0.11223486E+04</pdfrwt>
<pdfrwt beam="1">  1       -4 0.38199297E+00 0.11430379E+04</pdfrwt>
<totfact> 0.11083514E-01</totfact>
</mgrwt>
</event>
<event>
 8    1  0.2939692E-006  0.1263643E+04  0.7818608E-02  0.8581327E-01
         -4   -1    0    0    0  501 -0.00000000000E+00  0.00000000000E+00  0.15114023180E+04  0.15114023180E+04  0.00000000000E+00 0. -1.
          4   -1    0    0  502    0  0.00000000000E+00 -0.00000000000E+00 -0.19651838967E+04  0.19651838967E+04  0.00000000000E+00 0.  1.
   -9000010    2    1    2    0  501 -0.17622178791E+03  0.75399017724E+03  0.98320491691E+03  0.16010887948E+04  0.99861810226E+03 0.  0.
    9000010    2    1    2  502    0  0.17622178791E+03 -0.75399017724E+03 -0.14369864956E+04  0.18754974200E+04  0.92358274007E+03 0.  0.
        -13    1    4    4    0    0  0.37764609695E+02  0.64401882920E+02  0.10232444954E+03  0.12666519809E+03  0.10566000000E+00 0.  1.
          4    1    4    4  502    0  0.13845717821E+03 -0.81839206016E+03 -0.15393109452E+04  0.17488322219E+04  0.00000000000E+00 0.  1.
         13    1    3    3    0    0 -0.43782400053E+03  0.87220465068E+03  0.73801018084E+03  0.12235562293E+04  0.10566000000E+00 0. -1.
         -4    1    3    3    0  501  0.26160221262E+03 -0.11821447344E+03  0.24519473607E+03  0.37753256545E+03  0.00000000000E+00 0. -1.
<mgrwt>
<rscale>  0 0.12340869E+04</rscale>
<asrwt>0</asrwt>
<pdfrwt beam="2">  1        4 0.30233598E+00 0.12052221E+04</pdfrwt>
<pdfrwt beam="1">  1       -4 0.23252343E+00 0.12636429E+04</pdfrwt>
<totfact> 0.81999406E-02</totfact>
</mgrwt>
</event>
<event>
 8    1  0.2939692E-006  0.1157264E+04  0.7818608E-02  0.8648889E-01
         -4   -1    0    0    0  501 -0.00000000000E+00  0.00000000000E+00  0.13955939056E+04  0.13955939056E+04  0.00000000000E+00 0. -1.
          4   -1    0    0  502    0  0.00000000000E+00 -0.00000000000E+00 -0.26111141318E+04  0.26111141318E+04  0.00000000000E+00 0.  1.
   -9000010    2    1    2    0  501  0.56505516439E+03 -0.18994421594E+03  0.99258898157E+03  0.15246284348E+04  0.99191372297E+03 0.  0.
    9000010    2    1    2  502    0 -0.56505516439E+03  0.18994421594E+03 -0.22081092077E+04  0.24820796027E+04  0.96416115703E+03 0.  0.
        -13    1    4    4    0    0  0.17199319375E+03  0.33219142383E+03 -0.59423428808E+03  0.70217319876E+03  0.10566000000E+00 0.  1.
          4    1    4    4  502    0 -0.73704835814E+03 -0.14224720789E+03 -0.16138749197E+04  0.17799064039E+04  0.00000000000E+00 0.  1.
         13    1    3    3    0    0  0.39243604093E+03 -0.33535800897E+03  0.11424791191E+04  0.12536863998E+04  0.10566000000E+00 0. -1.
         -4    1    3    3    0  501  0.17261912346E+03  0.14541379303E+03 -0.14989013750E+03  0.27094203496E+03  0.00000000000E+00 0. -1.
<mgrwt>
<rscale>  0 0.11453537E+04</rscale>
<asrwt>0</asrwt>
<pdfrwt beam="2">  1        4 0.40170986E+00 0.11335664E+04</pdfrwt>
<pdfrwt beam="1">  1       -4 0.21470676E+00 0.11572636E+04</pdfrwt>
<totfact> 0.42738693E-02</totfact>
</mgrwt>
</event>
<event>
 8    1  0.2939692E-006  0.1835634E+04  0.7818608E-02  0.8248351E-01
         -4   -1    0    0    0  501 -0.00000000000E+00  0.00000000000E+00  0.19947512116E+04  0.19947512116E+04  0.00000000000E+00 0. -1.
          4   -1    0    0  502    0  0.00000000000E+00 -0.00000000000E+00 -0.23406885001E+04  0.23406885001E+04  0.00000000000E+00 0.  1.
   -9000010    2    1    2    0  501  0.86862233316E+03  0.12047782764E+04  0.10050779250E+04  0.20562306434E+04  0.10059360669E+04 0.  0.
    9000010    2    1    2  502    0 -0.86862233316E+03 -0.12047782764E+04 -0.13510152136E+04  0.22792090683E+04  0.10786827230E+04 0.  0.
        -13    1    4    4    0    0 -0.89142129081E+03 -0.13615866807E+04 -0.13594441277E+04  0.21205278951E+04  0.10566000000E+00 0.  1.
          4    1    4    4  502    0  0.22798957646E+02  0.15680840428E+03  0.84289141240E+01  0.15868117316E+03  0.00000000000E+00 0.  1.
         13    1    3    3    0    0  0.10659962618E+04  0.89270731547E+03  0.94738476534E+03  0.16825017938E+04  0.10566000000E+00 0. -1.
         -4    1    3    3    0  501 -0.19737392867E+03  0.31207096090E+03  0.57693159646E+02  0.37372884961E+03  0.00000000000E+00 0. -1.
<mgrwt>
<rscale>  0 0.18146224E+04</rscale>
<asrwt>0</asrwt>
<pdfrwt beam="2">  1        4 0.36010592E+00 0.18356339E+04</pdfrwt>
<pdfrwt beam="1">  1       -4 0.30688480E+00 0.17938514E+04</pdfrwt>
<totfact> 0.33620352E-02</totfact>
</mgrwt>
</event>
<event>
 8    1  0.2939692E-006  0.1187710E+04  0.7818608E-02  0.8629550E-01
         -4   -1    0    0    0  501 -0.00000000000E+00  0.00000000000E+00  0.25271851062E+04  0.25271851062E+04  0.00000000000E+00 0. -1.
          4   -1    0    0  502    0  0.00000000000E+00 -0.00000000000E+00 -0.94776803997E+03  0.94776803997E+03  0.00000000000E+00 0.  1.
   -9000010    2    1    2    0  501 -0.16737622338E+03  0.56053486229E+03  0.19200601080E+04  0.22393593590E+04  0.99291761417E+03 0.  0.
    9000010    2    1    2  502    0  0.16737622338E+03 -0.56053486229E+03 -0.34064304174E+03  0.12355937872E+04  0.10336538071E+04 0.  0.
        -13    1    4    4    0    0  0.59384165393E+03 -0.21017377395E+03 -0.24252839995E+03  0.67501182296E+03  0.10566000000E+00 0.  1.
          4    1    4    4  502    0 -0.42646543054E+03 -0.35036108834E+03 -0.98114641785E+02  0.56058196421E+03  0.00000000000E+00 0.  1.
         13    1    3    3    0    0 -0.11763045239E+03  0.80356587263E+03  0.17750537548E+04  0.19520171307E+04  0.10566000000E+00 0. -1.
         -4    1    3    3    0  501 -0.49745770992E+02 -0.24303101034E+03  0.14500635325E+03  0.28734222836E+03  0.00000000000E+00 0. -1.
<mgrwt>
<rscale>  0 0.11699379E+04</rscale>
<asrwt>0</asrwt>
<pdfrwt beam="2">  1        4 0.14581047E+00 0.11877097E+04</pdfrwt>
<pdfrwt beam="1">  1       -4 0.38879771E+00 0.11524320E+04</pdfrwt>
<totfact> 0.81539519E-02</totfact>
</mgrwt>
</event>
<event>
 8    1  0.2939692E-006  0.1103201E+04  0.7818608E-02  0.8689710E-01
          4   -1    0    0  502    0  0.00000000000E+00  0.00000000000E+00  0.87645065091E+03  0.87645065091E+03  0.00000000000E+00 0.  1.
         -4   -1    0    0    0  501 -0.00000000000E+00 -0.00000000000E+00 -0.24384588384E+04  0.24384588384E+04  0.00000000000E+00 0. -1.
   -9000010    2    1    2    0  501 -0.32436715825E+03 -0.30797307577E+03 -0.18753932490E+04  0.21680603299E+04  0.99162709052E+03 0.  0.
    9000010    2    1    2  502    0  0.32436715825E+03  0.30797307577E+03  0.31338506158E+03  0.11468491594E+04  0.10084598797E+04 0.  0.
        -13    1    4    4    0    0 -0.77874054937E+02  0.40858415505E+03  0.53423927823E+03  0.67706498783E+03  0.10566000000E+00 0.  1.
          4    1    4    4  502    0  0.40224121319E+03 -0.10061107928E+03 -0.22085421664E+03  0.46978417158E+03  0.00000000000E+00 0.  1.
         13    1    3    3    0    0 -0.44100527319E+03 -0.60570436402E+03 -0.11169811293E+04  0.13449945286E+04  0.10566000000E+00 0. -1.
         -4    1    3    3    0  501  0.11663811494E+03  0.29773128825E+03 -0.75841211970E+03  0.82306580123E+03  0.00000000000E+00 0. -1.
<mgrwt>
<rscale>  0 0.10954913E+04</rscale>
<asrwt>0</asrwt>
<pdfrwt beam="1">  1        4 0.13483856E+00 0.11032012E+04</pdfrwt>
<pdfrwt beam="2">  1       -4 0.37514751E+00 0.10878354E+04</pdfrwt>
<totfact> 0.10403568E-01</totfact>
</mgrwt>
</event>
<event>
 8    1  0.2939692E-006  0.1158441E+04  0.7818608E-02  0.8646259E-01
          4   -1    0    0  502    0  0.00000000000E+00  0.00000000000E+00  0.14400924003E+04  0.14400924003E+04  0.00000000000E+00 0.  1.
         -4   -1    0    0    0  501 -0.00000000000E+00 -0.00000000000E+00 -0.24398107175E+04  0.24398107175E+04  0.00000000000E+00 0. -1.
   -9000010    2    1    2    0  501 -0.52091717557E+03 -0.27931845470E+03 -0.20312385291E+04  0.23287681394E+04  0.97357977701E+03 0.  0.
    9000010    2    1    2  502    0  0.52091717557E+03  0.27931845470E+03  0.10315202118E+04  0.15511349784E+04  0.99629928784E+03 0.  0.
        -13    1    4    4    0    0  0.69109034822E+03 -0.81182087609E+02  0.88639134000E+03  0.11268921952E+04  0.10566000000E+00 0.  1.
          4    1    4    4  502    0 -0.17017317265E+03  0.36050054231E+03  0.14512887178E+03  0.42424278322E+03  0.00000000000E+00 0.  1.
         13    1    3    3    0    0  0.12126743730E+03  0.45642238519E+02 -0.12867830487E+04  0.12932902346E+04  0.10566000000E+00 0. -1.
         -4    1    3    3    0  501 -0.64218461287E+03 -0.32496069322E+03 -0.74445548039E+03  0.10354779048E+04  0.00000000000E+00 0. -1.
<mgrwt>
<rscale>  0 0.11486595E+04</rscale>
<asrwt>0</asrwt>
<pdfrwt beam="1">  1        4 0.22155268E+00 0.11584411E+04</pdfrwt>
<pdfrwt beam="2">  1       -4 0.37535549E+00 0.11389605E+04</pdfrwt>
<totfact> 0.51851763E-02</totfact>
</mgrwt>
</event>
<event>
 8    1  0.2939692E-006  0.1250350E+04  0.7818608E-02  0.8571179E-01
          4   -1    0    0  502    0  0.00000000000E+00  0.00000000000E+00  0.18632950023E+04  0.18632950023E+04  0.00000000000E+00 0.  1.
         -4   -1    0    0    0  501 -0.00000000000E+00 -0.00000000000E+00 -0.89181339635E+03  0.89181339635E+03  0.00000000000E+00 0. -1.
   -9000010    2    1    2    0  501  0.90673291107E+02  0.73217044711E+03  0.14210535878E+03  0.12583996705E+04  0.10094952146E+04 0.  0.
    9000010    2    1    2  502    0 -0.90673291107E+02 -0.73217044711E+03  0.82937624718E+03  0.14967087282E+04  0.10039805019E+04 0.  0.
        -13    1    4    4    0    0  0.23523213179E+03 -0.84988902496E+03  0.47734891092E+03  0.10027499711E+04  0.10566000000E+00 0.  1.
          4    1    4    4  502    0 -0.32590542290E+03  0.11771857785E+03  0.35202733626E+03  0.49395875711E+03  0.00000000000E+00 0.  1.
         13    1    3    3    0    0  0.10514380030E+03  0.66609429948E+03  0.53433617650E+03  0.86037898348E+03  0.10566000000E+00 0. -1.
         -4    1    3    3    0  501 -0.14470509197E+02  0.66076147629E+02 -0.39223081771E+03  0.39802068701E+03  0.00000000000E+00 0. -1.
<mgrwt>
<rscale>  0 0.12481242E+04</rscale>
<asrwt>0</asrwt>
<pdfrwt beam="1">  1        4 0.28666077E+00 0.12459021E+04</pdfrwt>
<pdfrwt beam="2">  1       -4 0.13720206E+00 0.12503503E+04</pdfrwt>
<totfact> 0.18742171E-01</totfact>
</mgrwt>
</event>
<event>
 8    1  0.2939692E-006  0.1042810E+04  0.7818608E-02  0.8758219E-01
         -4   -1    0    0    0  501 -0.00000000000E+00  0.00000000000E+00  0.19417288061E+04  0.19417288061E+04  0.00000000000E+00 0. -1.
          4   -1    0    0  502    0  0.00000000000E+00 -0.00000000000E+00 -0.70506921002E+03  0.70506921002E+03  0.00000000000E+00 0.  1.
   -9000010    2    1    2    0  501 -0.23812286813E+03  0.20249175297E+03  0.12593246062E+04  0.16037420881E+04  0.94254167600E+03 0.  0.
    9000010    2    1    2  502    0  0.23812286813E+03 -0.20249175297E+03 -0.22665010166E+02  0.10430559280E+04  0.99486006849E+03 0.  0.
        -13    1    4    4    0    0 -0.86551634199E+01  0.44527895477E+01 -0.48198010683E+03  0.48207838962E+03  0.10566000000E+00 0.  1.
          4    1    4    4  502    0  0.24677803155E+03 -0.20694454252E+03  0.45931509667E+03  0.56097753838E+03  0.00000000000E+00 0.  1.
         13    1    3    3    0    0 -0.59565213036E+03  0.80011583981E+02  0.90027543257E+03  0.10824505437E+04  0.10566000000E+00 0. -1.
         -4    1    3    3    0  501  0.35752926223E+03  0.12248016899E+03  0.35904917368E+03  0.52129154440E+03  0.00000000000E+00 0. -1.
<mgrwt>
<rscale>  0 0.10176107E+04</rscale>
<asrwt>0</asrwt>
<pdfrwt beam="2">  1        4 0.10847219E+00 0.10428097E+04</pdfrwt>
<pdfrwt beam="1">  1       -4 0.29872751E+00 0.99302076E+03</pdfrwt>
<totfact> 0.26115018E-01</totfact>
</mgrwt>
</event>
<event>
 8    1  0.2939692E-006  0.1093405E+04  0.7818608E-02  0.8733918E-01
         -4   -1    0    0    0  501 -0.00000000000E+00  0.00000000000E+00  0.14357062067E+04  0.14357062067E+04  0.00000000000E+00 0. -1.
          4   -1    0    0  502    0  0.00000000000E+00 -0.00000000000E+00 -0.11059673835E+04  0.11059673835E+04  0.00000000000E+00 0.  1.
   -9000010    2    1    2    0  501  0.45076347583E+02  0.41417249741E+03  0.86849869367E+03  0.13227405949E+04  0.90652190587E+03 0.  0.
    9000010    2    1    2  502    0 -0.45076347583E+02 -0.41417249741E+03 -0.53875987051E+03  0.12189329953E+04  0.10109227044E+04 0.  0.
        -13    1    4    4    0    0  0.12946393563E+03 -0.29819980340E+03  0.24536217869E+03  0.40729184042E+03  0.10566000000E+00 0.  1.
          4    1    4    4  502    0 -0.17454028322E+03 -0.11597269401E+03 -0.78412204920E+03  0.81164115486E+03  0.00000000000E+00 0.  1.
         13    1    3    3    0    0 -0.42757119434E+03  0.23735476353E+03  0.36832171687E+03  0.61222161697E+03  0.10566000000E+00 0. -1.
         -4    1    3    3    0  501  0.47264754193E+03  0.17681773388E+03  0.50017697681E+03  0.71051897795E+03  0.00000000000E+00 0. -1.
<mgrwt>
<rscale>  0 0.10444433E+04</rscale>
<asrwt>0</asrwt>
<pdfrwt beam="2">  1        4 0.17014883E+00 0.10934054E+04</pdfrwt>
<pdfrwt beam="1">  1       -4 0.22087788E+00 0.99767364E+03</pdfrwt>
<totfact> 0.19999717E-01</totfact>
</mgrwt>
</event>
<event>
 8    1  0.2939692E-006  0.1054646E+04  0.7818608E-02  0.8732592E-01
         -4   -1    0    0    0  501 -0.00000000000E+00  0.00000000000E+00  0.14887225444E+04  0.14887225444E+04  0.00000000000E+00 0. -1.
          4   -1    0    0  502    0  0.00000000000E+00 -0.00000000000E+00 -0.10064773833E+04  0.10064773833E+04  0.00000000000E+00 0.  1.
   -9000010    2    1    2    0  501  0.33158940210E+03 -0.17601692883E+02  0.88772342628E+03  0.13652925447E+04  0.98270519482E+03 0.  0.
    9000010    2    1    2  502    0 -0.33158940210E+03  0.17601692883E+02 -0.40547826526E+03  0.11299073830E+04  0.10010078518E+04 0.  0.
        -13    1    4    4    0    0  0.28200293679E+03  0.56050324250E+02 -0.42695036738E+03  0.51473675075E+03  0.10566000000E+00 0.  1.
          4    1    4    4  502    0 -0.61359233889E+03 -0.38448631367E+02  0.21472102123E+02  0.61517063224E+03  0.00000000000E+00 0.  1.
         13    1    3    3    0    0  0.27841385716E+03  0.32323098403E+03  0.92469783862E+03  0.10183607655E+04  0.10566000000E+00 0. -1.
         -4    1    3    3    0  501  0.53175544940E+02 -0.34083267691E+03 -0.36974412346E+02  0.34693177917E+03  0.00000000000E+00 0. -1.
<mgrwt>
<rscale>  0 0.10459320E+04</rscale>
<asrwt>0</asrwt>
<pdfrwt beam="2">  1        4 0.15484267E+00 0.10546459E+04</pdfrwt>
<pdfrwt beam="1">  1       -4 0.22903424E+00 0.10372901E+04</pdfrwt>
<totfact> 0.21741906E-01</totfact>
</mgrwt>
</event>
<event>
 8    1  0.2939692E-006  0.1111928E+04  0.7818608E-02  0.8680807E-01
          4   -1    0    0  502    0  0.00000000000E+00  0.00000000000E+00  0.30580049547E+04  0.30580049547E+04  0.00000000000E+00 0.  1.
         -4   -1    0    0    0  501 -0.00000000000E+00 -0.00000000000E+00 -0.21981852151E+04  0.21981852151E+04  0.00000000000E+00 0. -1.
   -9000010    2    1    2    0  501 -0.34947110174E+02  0.46348635982E+03 -0.19473959371E+04  0.22367790651E+04  0.99739096853E+03 0.  0.
    9000010    2    1    2  502    0  0.34947110174E+02 -0.46348635982E+03  0.28072156767E+04  0.30194111046E+04  0.10101201201E+04 0.  0.
        -13    1    4    4    0    0  0.71954696852E+02 -0.75394158452E+03  0.15067106839E+04  0.16863518279E+04  0.10566000000E+00 0.  1.
          4    1    4    4  502    0 -0.37007586678E+02  0.29045522470E+03  0.13005049928E+04  0.13330592767E+04  0.00000000000E+00 0.  1.
         13    1    3    3    0    0 -0.11727482439E+03 -0.17629045721E+03 -0.30078509425E+02  0.21386079031E+03  0.10566000000E+00 0. -1.
         -4    1    3    3    0  501  0.82327714211E+02  0.63977681703E+03 -0.19173174276E+04  0.20229182748E+04  0.00000000000E+00 0. -1.
<mgrwt>
<rscale>  0 0.11061374E+04</rscale>
<asrwt>0</asrwt>
<pdfrwt beam="1">  1        4 0.47046230E+00 0.11119279E+04</pdfrwt>
<pdfrwt beam="2">  1       -4 0.33818234E+00 0.11003770E+04</pdfrwt>
<totfact> 0.10194553E-02</totfact>
</mgrwt>
</event>
<event>
 8    1  0.2939692E-006  0.1257472E+04  0.7818608E-02  0.8565072E-01
          4   -1    0    0  502    0  0.00000000000E+00  0.00000000000E+00  0.29318097894E+04  0.29318097894E+04  0.00000000000E+00 0.  1.
         -4   -1    0    0    0  501 -0.00000000000E+00 -0.00000000000E+00 -0.54353353673E+03  0.54353353673E+03  0.00000000000E+00 0. -1.
   -9000010    2    1    2    0  501 -0.71066425002E+03 -0.28556655889E+03  0.13581576850E+04  0.18498030643E+04  0.99528244416E+03 0.  0.
    9000010    2    1    2  502    0  0.71066425002E+03  0.28556655889E+03  0.10301185677E+04  0.16255402618E+04  0.99731887754E+03 0.  0.
        -13    1    4    4    0    0 -0.30917346302E+02 -0.29918218526E+03  0.15656934338E+03  0.33908676283E+03  0.10566000000E+00 0.  1.
          4    1    4    4  502    0  0.74158159632E+03  0.58474874414E+03  0.87354922429E+03  0.12864534990E+04  0.00000000000E+00 0.  1.
         13    1    3    3    0    0 -0.96090385915E+03 -0.15433440090E+03  0.10440140061E+04  0.14272773346E+04  0.10566000000E+00 0. -1.
         -4    1    3    3    0  501  0.25023960913E+03 -0.13123215799E+03  0.31414367892E+03  0.42252572972E+03  0.00000000000E+00 0. -1.
<mgrwt>
<rscale>  0 0.12566649E+04</rscale>
<asrwt>0</asrwt>
<pdfrwt beam="1">  1        4 0.45104765E+00 0.12574724E+04</pdfrwt>
<pdfrwt beam="2">  1       -4 0.83620546E-01 0.12558579E+04</pdfrwt>
<totfact> 0.11902801E-01</totfact>
</mgrwt>
</event>
<event>
 8    1  0.2939692E-006  0.1090402E+04  0.7818608E-02  0.8761182E-01
         -4   -1    0    0    0  501 -0.00000000000E+00  0.00000000000E+00  0.29799175943E+04  0.29799175943E+04  0.00000000000E+00 0. -1.
          4   -1    0    0  502    0  0.00000000000E+00 -0.00000000000E+00 -0.22516567794E+04  0.22516567794E+04  0.00000000000E+00 0.  1.
   -9000010    2    1    2    0  501  0.21880445191E+03 -0.30839810713E+03  0.27729412049E+04  0.29796273689E+04  0.10227372835E+04 0.  0.
    9000010    2    1    2  502    0 -0.21880445191E+03  0.30839810713E+03 -0.20446803900E+04  0.22519470048E+04  0.86461704501E+03 0.  0.
        -13    1    4    4    0    0 -0.49991144612E+03  0.40719040513E+03 -0.14450439676E+04  0.15823613871E+04  0.10566000000E+00 0.  1.
          4    1    4    4  502    0  0.28110699421E+03 -0.98792297993E+02 -0.59963642236E+03  0.66958561764E+03  0.00000000000E+00 0.  1.
         13    1    3    3    0    0 -0.30424720771E+03 -0.15697670038E+03  0.32568938162E+03  0.47252685884E+03  0.10566000000E+00 0. -1.
         -4    1    3    3    0  501  0.52305165963E+03 -0.15142140676E+03  0.24472518232E+04  0.25071005100E+04  0.00000000000E+00 0. -1.
<mgrwt>
<rscale>  0 0.10143961E+04</rscale>
<asrwt>0</asrwt>
<pdfrwt beam="2">  1        4 0.34640874E+00 0.94368820E+03</pdfrwt>
<pdfrwt beam="1">  1       -4 0.45844886E+00 0.10904019E+04</pdfrwt>
<totfact> 0.11145119E-02</totfact>
</mgrwt>
</event>
<event>
 8    1  0.2939692E-006  0.1245087E+04  0.7818608E-02  0.8619106E-01
         -4   -1    0    0    0  501 -0.00000000000E+00  0.00000000000E+00  0.83337522440E+03  0.83337522440E+03  0.00000000000E+00 0. -1.
          4   -1    0    0  502    0  0.00000000000E+00 -0.00000000000E+00 -0.20534053687E+04  0.20534053687E+04  0.00000000000E+00 0.  1.
   -9000010    2    1    2    0  501  0.48911732642E+03 -0.93740760736E+02  0.26094388403E+02  0.11252281279E+04  0.10086794999E+04 0.  0.
    9000010    2    1    2  502    0 -0.48911732642E+03  0.93740760736E+02 -0.12461245327E+04  0.17615524652E+04  0.11411475135E+04 0.  0.
        -13    1    4    4    0    0 -0.70392715535E+03  0.29670133535E+03 -0.39376839811E+03  0.85941764291E+03  0.10566000000E+00 0.  1.
          4    1    4    4  502    0  0.21480982893E+03 -0.20296057462E+03 -0.85235613457E+03  0.90213482229E+03  0.00000000000E+00 0.  1.
         13    1    3    3    0    0  0.13070164623E+02 -0.35450862754E+03 -0.32308461101E+03  0.47982379395E+03  0.10566000000E+00 0. -1.
         -4    1    3    3    0  501  0.47604716180E+03  0.26076786680E+03  0.34917899942E+03  0.64540433392E+03  0.00000000000E+00 0. -1.
<mgrwt>
<rscale>  0 0.11834820E+04</rscale>
<asrwt>0</asrwt>
<pdfrwt beam="2">  1        4 0.31590851E+00 0.12450866E+04</pdfrwt>
<pdfrwt beam="1">  1       -4 0.12821157E+00 0.11249255E+04</pdfrwt>
<totfact> 0.17356511E-01</totfact>
</mgrwt>
</event>
<event>
 8    1  0.2939692E-006  0.1016217E+04  0.7818608E-02  0.8764984E-01
          4   -1    0    0  502    0  0.00000000000E+00  0.00000000000E+00  0.32284012516E+04  0.32284012516E+04  0.00000000000E+00 0.  1.
         -4   -1    0    0    0  501 -0.00000000000E+00 -0.00000000000E+00 -0.36828871598E+03  0.36828871598E+03  0.00000000000E+00 0. -1.
   -9000010    2    1    2    0  501  0.18722569360E+03  0.12331761310E+01  0.74636177967E+03  0.12513459537E+04  0.98679066099E+03 0.  0.
    9000010    2    1    2  502    0 -0.18722569360E+03 -0.12331761310E+01  0.21137507559E+04  0.23453440139E+04  0.99881995581E+03 0.  0.
        -13    1    4    4    0    0  0.13299347312E+03  0.34907950362E+03  0.32644388763E+03  0.49609413086E+03  0.10566000000E+00 0.  1.
          4    1    4    4  502    0 -0.32021916672E+03 -0.35031267975E+03  0.17873068683E+04  0.18492498830E+04  0.00000000000E+00 0.  1.
         13    1    3    3    0    0  0.51038171509E+02 -0.45591521600E+03  0.13959486691E+03  0.47953135159E+03  0.10566000000E+00 0. -1.
         -4    1    3    3    0  501  0.13618752210E+03  0.45714839213E+03  0.60676691276E+03  0.77181460211E+03  0.00000000000E+00 0. -1.
<mgrwt>
<rscale>  0 0.10102889E+04</rscale>
<asrwt>0</asrwt>
<pdfrwt beam="1">  1        4 0.49667710E+00 0.10162167E+04</pdfrwt>
<pdfrwt beam="2">  1       -4 0.56659805E-01 0.10043957E+04</pdfrwt>
<totfact> 0.16723819E-01</totfact>
</mgrwt>
</event>
<event>
 8    1  0.2939692E-006  0.1235307E+04  0.7818608E-02  0.8585142E-01
         -4   -1    0    0    0  501 -0.00000000000E+00  0.00000000000E+00  0.23966601225E+04  0.23966601225E+04  0.00000000000E+00 0. -1.
          4   -1    0    0  502    0  0.00000000000E+00 -0.00000000000E+00 -0.12252112481E+04  0.12252112481E+04  0.00000000000E+00 0.  1.
   -9000010    2    1    2    0  501  0.59869274396E+03  0.38729820479E+03  0.18494002957E+04  0.22240197990E+04  0.10087366909E+04 0.  0.
    9000010    2    1    2  502    0 -0.59869274396E+03 -0.38729820479E+03 -0.67795142132E+03  0.13978515716E+04  0.99294409981E+03 0.  0.
        -13    1    4    4    0    0  0.14315772694E+03 -0.38178029398E+03 -0.48044254701E+03  0.63013917494E+03  0.10566000000E+00 0.  1.
          4    1    4    4  502    0 -0.74185047089E+03 -0.55179108195E+01 -0.19750887431E+03  0.76771239662E+03  0.00000000000E+00 0.  1.
         13    1    3    3    0    0  0.48698941462E+03  0.12692990497E+03  0.18579263624E+03  0.53645950972E+03  0.10566000000E+00 0. -1.
         -4    1    3    3    0  501  0.11170332934E+03  0.26036829983E+03  0.16636076595E+04  0.16875602893E+04  0.00000000000E+00 0. -1.
<mgrwt>
<rscale>  0 0.12288588E+04</rscale>
<asrwt>0</asrwt>
<pdfrwt beam="2">  1        4 0.18849404E+00 0.12224446E+04</pdfrwt>
<pdfrwt beam="1">  1       -4 0.36871694E+00 0.12353067E+04</pdfrwt>
<totfact> 0.67021219E-02</totfact>
</mgrwt>
</event>
<event>
 8    1  0.2939692E-006  0.1365052E+04  0.7818608E-02  0.8510455E-01
         -4   -1    0    0    0  501 -0.00000000000E+00  0.00000000000E+00  0.86742503416E+03  0.86742503416E+03  0.00000000000E+00 0. -1.
          4   -1    0    0  502    0  0.00000000000E+00 -0.00000000000E+00 -0.28791396337E+04  0.28791396337E+04  0.00000000000E+00 0.  1.
   -9000010    2    1    2    0  501 -0.65213282478E+03 -0.57323823837E+03  0.88347330802E+01  0.13081253086E+04  0.97838360131E+03 0.  0.
    9000010    2    1    2  502    0  0.65213282478E+03  0.57323823837E+03 -0.20205493327E+04  0.24384393593E+04  0.10533221750E+04 0.  0.
        -13    1    4    4    0    0  0.62885087006E+02 -0.21104145356E+02  0.12164699455E+03  0.13855656450E+03  0.10566000000E+00 0.  1.
          4    1    4    4  502    0  0.58924773778E+03  0.59434238373E+03 -0.21421963272E+04  0.22998827948E+04  0.00000000000E+00 0.  1.
         13    1    3    3    0    0 -0.22699344012E+02 -0.13250994323E+03 -0.41106159203E+03  0.43248790605E+03  0.10566000000E+00 0. -1.
         -4    1    3    3    0  501 -0.62943348077E+03 -0.44072829514E+03  0.41989632511E+03  0.87563740252E+03  0.00000000000E+00 0. -1.
<mgrwt>
<rscale>  0 0.13362703E+04</rscale>
<asrwt>0</asrwt>
<pdfrwt beam="2">  1        4 0.44294457E+00 0.13650520E+04</pdfrwt>
<pdfrwt beam="1">  1       -4 0.13345000E+00 0.13080955E+04</pdfrwt>
<totfact> 0.54512655E-02</totfact>
</mgrwt>
</event>
<event>
 8    1  0.2939692E-006  0.1174283E+04  0.7818608E-02  0.8628163E-01
          4   -1    0    0  502    0  0.00000000000E+00  0.00000000000E+00  0.64392868479E+03  0.64392868479E+03  0.00000000000E+00 0.  1.
         -4   -1    0    0    0  501 -0.00000000000E+00 -0.00000000000E+00 -0.23231866974E+04  0.23231866974E+04  0.00000000000E+00 0. -1.
   -9000010    2    1    2    0  501 -0.47442057936E+02  0.59759535857E+03 -0.12667408709E+04  0.17273019789E+04  0.10097369613E+04 0.  0.
    9000010    2    1    2  502    0  0.47442057936E+02 -0.59759535857E+03 -0.41251714173E+03  0.12398134033E+04  0.10037907756E+04 0.  0.
        -13    1    4    4    0    0  0.12149441940E+03  0.20389893574E+03 -0.36257863097E+03  0.43335775606E+03  0.10566000000E+00 0.  1.
          4    1    4    4  502    0 -0.74052361465E+02 -0.80149429431E+03 -0.49938510764E+02  0.80645564720E+03  0.00000000000E+00 0.  1.
         13    1    3    3    0    0 -0.16150132364E+03 -0.20682294792E+03 -0.54548846465E+02  0.26801865073E+03  0.10566000000E+00 0. -1.
         -4    1    3    3    0  501  0.11405926570E+03  0.80441830649E+03 -0.12121920244E+04  0.14592833282E+04  0.00000000000E+00 0. -1.
<mgrwt>
<rscale>  0 0.11717253E+04</rscale>
<asrwt>0</asrwt>
<pdfrwt beam="1">  1        4 0.99065951E-01 0.11691736E+04</pdfrwt>
<pdfrwt beam="2">  1       -4 0.35741334E+00 0.11742826E+04</pdfrwt>
<totfact> 0.20502596E-01</totfact>
</mgrwt>
</event>
<event>
 8    1  0.2939692E-006  0.1191653E+04  0.7818608E-02  0.8654783E-01
          4   -1    0    0  502    0  0.00000000000E+00  0.00000000000E+00  0.85155755175E+03  0.85155755175E+03  0.00000000000E+00 0.  1.
         -4   -1    0    0    0  501 -0.00000000000E+00 -0.00000000000E+00 -0.23451184900E+04  0.23451184900E+04  0.00000000000E+00 0. -1.
   -9000010    2    1    2    0  501  0.53811488691E+03 -0.41936097590E+03 -0.16695659160E+04  0.19920952813E+04  0.84590897998E+03 0.  0.
    9000010    2    1    2  502    0 -0.53811488691E+03  0.41936097590E+03  0.17600497774E+03  0.12045807604E+04  0.97703930145E+03 0.  0.
        -13    1    4    4    0    0 -0.41212721867E+03  0.28876098948E+03 -0.37298445433E+03  0.62637781550E+03  0.10566000000E+00 0.  1.
          4    1    4    4  502    0 -0.12598766824E+03  0.13059998642E+03  0.54898943207E+03  0.57820294493E+03  0.00000000000E+00 0.  1.
         13    1    3    3    0    0 -0.12258691889E+03 -0.20410604598E+03 -0.70084302093E+02  0.24819075577E+03  0.10566000000E+00 0. -1.
         -4    1    3    3    0  501  0.66070180580E+03 -0.21525492992E+03 -0.15994816139E+04  0.17439045255E+04  0.00000000000E+00 0. -1.
<mgrwt>
<rscale>  0 0.11379856E+04</rscale>
<asrwt>0</asrwt>
<pdfrwt beam="1">  1        4 0.13100886E+00 0.11916531E+04</pdfrwt>
<pdfrwt beam="2">  1       -4 0.36078745E+00 0.10867351E+04</pdfrwt>
<totfact> 0.12295880E-01</totfact>
</mgrwt>
</event>
<event>
 8    1  0.2939692E-006  0.1570015E+04  0.7818608E-02  0.8370575E-01
          4   -1    0    0  502    0  0.00000000000E+00  0.00000000000E+00  0.11600378538E+04  0.11600378538E+04  0.00000000000E+00 0.  1.
         -4   -1    0    0    0  501 -0.00000000000E+00 -0.00000000000E+00 -0.21318156858E+04  0.21318156858E+04  0.00000000000E+00 0. -1.
   -9000010    2    1    2    0  501 -0.22751127240E+03  0.11796948207E+04 -0.58820742592E+03  0.16756621651E+04  0.10091652325E+04 0.  0.
    9000010    2    1    2  502    0  0.22751127240E+03 -0.11796948207E+04 -0.38357040602E+03  0.16161913746E+04  0.10106963213E+04 0.  0.
        -13    1    4    4    0    0  0.52212821481E+03 -0.26234066491E+03 -0.14765526732E+02  0.58451563633E+03  0.10566000000E+00 0.  1.
          4    1    4    4  502    0 -0.29461694241E+03 -0.91735415578E+03 -0.36880487929E+03  0.10316757382E+04  0.00000000000E+00 0.  1.
         13    1    3    3    0    0 -0.48647002462E+02  0.12272973846E+04 -0.74202454484E+03  0.14350002918E+04  0.10566000000E+00 0. -1.
         -4    1    3    3    0  501 -0.17886426994E+03 -0.47602563956E+02  0.15381711892E+03  0.24066187324E+03  0.00000000000E+00 0. -1.
<mgrwt>
<rscale>  0 0.15695227E+04</rscale>
<asrwt>0</asrwt>
<pdfrwt beam="1">  1        4 0.17846736E+00 0.15700154E+04</pdfrwt>
<pdfrwt beam="2">  1       -4 0.32797164E+00 0.15690302E+04</pdfrwt>
<totfact> 0.96379164E-02</totfact>
</mgrwt>
</event>
<event>
 8    1  0.2939692E-006  0.1233083E+04  0.7818608E-02  0.8586811E-01
          4   -1    0    0  502    0  0.00000000000E+00  0.00000000000E+00  0.19373222925E+04  0.19373222925E+04  0.00000000000E+00 0.  1.
         -4   -1    0    0    0  501 -0.00000000000E+00 -0.00000000000E+00 -0.14407111936E+04  0.14407111936E+04  0.00000000000E+00 0. -1.
   -9000010    2    1    2    0  501  0.59273184412E+03 -0.36455374896E+03 -0.89771344630E+03  0.15252485907E+04  0.10179702141E+04 0.  0.
    9000010    2    1    2  502    0 -0.59273184412E+03  0.36455374896E+03  0.13943245452E+04  0.18527848953E+04  0.10022177689E+04 0.  0.
        -13    1    4    4    0    0 -0.10706644419E+03  0.18173603846E+03 -0.12643702079E+03  0.24592182200E+03  0.10566000000E+00 0.  1.
          4    1    4    4  502    0 -0.48566539993E+03  0.18281771050E+03  0.15207615660E+04  0.16068630733E+04  0.00000000000E+00 0.  1.
         13    1    3    3    0    0  0.95664872807E+02  0.20448038347E+03 -0.71236962186E+03  0.74728474120E+03  0.10566000000E+00 0. -1.
         -4    1    3    3    0  501  0.49706697131E+03 -0.56903413243E+03 -0.18534382444E+03  0.77796384948E+03  0.00000000000E+00 0. -1.
<mgrwt>
<rscale>  0 0.12265799E+04</rscale>
<asrwt>0</asrwt>
<pdfrwt beam="1">  1        4 0.29804958E+00 0.12201110E+04</pdfrwt>
<pdfrwt beam="2">  1       -4 0.22164788E+00 0.12330831E+04</pdfrwt>
<totfact> 0.89843246E-02</totfact>
</mgrwt>
</event>
<event>
 8    1  0.2939692E-006  0.1183326E+04  0.7818608E-02  0.8623107E-01
         -4   -1    0    0    0  501 -0.00000000000E+00  0.00000000000E+00  0.17919598890E+04  0.17919598890E+04  0.00000000000E+00 0. -1.
          4   -1    0    0  502    0  0.00000000000E+00 -0.00000000000E+00 -0.18959518691E+04  0.18959518691E+04  0.00000000000E+00 0.  1.
   -9000010    2    1    2    0  501 -0.57438664812E+03 -0.26806800849E+03  0.13659064925E+04  0.18071968564E+04  0.99923943715E+03 0.  0.
    9000010    2    1    2  502    0  0.57438664812E+03  0.26806800849E+03 -0.14698984726E+04  0.18807149017E+04  0.98727227398E+03 0.  0.
        -13    1    4    4    0    0  0.18606226566E+03 -0.10598403937E+03  0.88486199641E+02  0.23169290450E+03  0.10566000000E+00 0.  1.
          4    1    4    4  502    0  0.38832438246E+03  0.37405204786E+03 -0.15583846723E+04  0.16490219972E+04  0.00000000000E+00 0.  1.
         13    1    3    3    0    0  0.24229122496E+03  0.50744622042E+02  0.99179631322E+02  0.26667707962E+03  0.10566000000E+00 0. -1.
         -4    1    3    3    0  501 -0.81667787308E+03 -0.31881263053E+03  0.12667268612E+04  0.15405197768E+04  0.00000000000E+00 0. -1.
<mgrwt>
<rscale>  0 0.11782710E+04</rscale>
<asrwt>0</asrwt>
<pdfrwt beam="2">  1        4 0.29168490E+00 0.11732378E+04</pdfrwt>
<pdfrwt beam="1">  1       -4 0.27568614E+00 0.11833258E+04</pdfrwt>
<totfact> 0.69525872E-02</totfact>
</mgrwt>
</event>
<event>
 8    1  0.2939692E-006  0.1146074E+04  0.7818608E-02  0.8659096E-01
          4   -1    0    0  502    0  0.00000000000E+00  0.00000000000E+00  0.12034769331E+04  0.12034769331E+04  0.00000000000E+00 0.  1.
         -4   -1    0    0    0  501 -0.00000000000E+00 -0.00000000000E+00 -0.15145691820E+04  0.15145691820E+04  0.00000000000E+00 0. -1.
   -9000010    2    1    2    0  501  0.48522311423E+03  0.25116243486E+03 -0.89373196440E+03  0.14323734018E+04  0.97694047861E+03 0.  0.
    9000010    2    1    2  502    0 -0.48522311423E+03 -0.25116243486E+03  0.58263971550E+03  0.12856727133E+04  0.10074528517E+04 0.  0.
        -13    1    4    4    0    0 -0.67080859326E+02 -0.52564615593E+03  0.57980671625E+03  0.78548046590E+03  0.10566000000E+00 0.  1.
          4    1    4    4  502    0 -0.41814225491E+03  0.27448372108E+03  0.28329992469E+01  0.50019224740E+03  0.00000000000E+00 0.  1.
         13    1    3    3    0    0  0.16378844152E+03  0.60104667368E+03 -0.64247956333E+03  0.89490991612E+03  0.10566000000E+00 0. -1.
         -4    1    3    3    0  501  0.32143467272E+03 -0.34988423882E+03 -0.25125240107E+03  0.53746348568E+03  0.00000000000E+00 0. -1.
<mgrwt>
<rscale>  0 0.11326314E+04</rscale>
<asrwt>0</asrwt>
<pdfrwt beam="1">  1        4 0.18515030E+00 0.11460739E+04</pdfrwt>
<pdfrwt beam="2">  1       -4 0.23301064E+00 0.11193466E+04</pdfrwt>
<totfact> 0.16499989E-01</totfact>
</mgrwt>
</event>
<event>
 8    1  0.2939692E-006  0.1066783E+04  0.7818608E-02  0.8715537E-01
          4   -1    0    0  502    0  0.00000000000E+00  0.00000000000E+00  0.15301475554E+04  0.15301475554E+04  0.00000000000E+00 0.  1.
         -4   -1    0    0    0  501 -0.00000000000E+00 -0.00000000000E+00 -0.12559363831E+04  0.12559363831E+04  0.00000000000E+00 0. -1.
   -9000010    2    1    2    0  501  0.27085810183E+03 -0.25418062344E+03 -0.75417475353E+03  0.13064474967E+04  0.10000268007E+04 0.  0.
    9000010    2    1    2  502    0 -0.27085810183E+03  0.25418062344E+03  0.10283859259E+04  0.14796364417E+04  0.99688238346E+03 0.  0.
        -13    1    4    4    0    0 -0.47077926618E+03  0.51448100321E+03  0.50181723255E+03  0.85915328445E+03  0.10566000000E+00 0.  1.
          4    1    4    4  502    0  0.19992116435E+03 -0.26030037977E+03  0.52656869335E+03  0.62048315729E+03  0.00000000000E+00 0.  1.
         13    1    3    3    0    0  0.59320280271E+03 -0.22643484896E+03 -0.20171297997E+03  0.66622101694E+03  0.10566000000E+00 0. -1.
         -4    1    3    3    0  501 -0.32234470087E+03 -0.27745774479E+02 -0.55246177356E+03  0.64022647980E+03  0.00000000000E+00 0. -1.
<mgrwt>
<rscale>  0 0.10653082E+04</rscale>
<asrwt>0</asrwt>
<pdfrwt beam="1">  1        4 0.23540732E+00 0.10638357E+04</pdfrwt>
<pdfrwt beam="2">  1       -4 0.19322098E+00 0.10667828E+04</pdfrwt>
<totfact> 0.15435797E-01</totfact>
</mgrwt>
</event>
<event>
 8    1  0.2939692E-006  0.1322908E+04  0.7818608E-02  0.8524549E-01
         -4   -1    0    0    0  501 -0.00000000000E+00  0.00000000000E+00  0.22160191936E+04  0.22160191936E+04  0.00000000000E+00 0. -1.
          4   -1    0    0  502    0  0.00000000000E+00 -0.00000000000E+00 -0.12192267119E+04  0.12192267119E+04  0.00000000000E+00 0.  1.
   -9000010    2    1    2    0  501  0.85556170695E+03 -0.72515391467E+02  0.15305500975E+04  0.20230347618E+04  0.10064003827E+04 0.  0.
    9000010    2    1    2  502    0 -0.85556170695E+03  0.72515391467E+02 -0.53375761579E+03  0.14122111437E+04  0.98600142274E+03 0.  0.
        -13    1    4    4    0    0  0.57358123750E+02  0.12353827103E+03 -0.47704612762E+03  0.49610954215E+03  0.10566000000E+00 0.  1.
          4    1    4    4  502    0 -0.91291983070E+03 -0.51022879560E+02 -0.56711488176E+02  0.91610160158E+03  0.00000000000E+00 0.  1.
         13    1    3    3    0    0  0.86485648770E+03  0.38837598275E+02  0.52749133640E+03  0.10137712881E+04  0.10566000000E+00 0. -1.
         -4    1    3    3    0  501 -0.92947807499E+01 -0.11135298974E+03  0.10030587611E+04  0.10092634738E+04  0.00000000000E+00 0. -1.
<mgrwt>
<rscale>  0 0.13151598E+04</rscale>
<asrwt>0</asrwt>
<pdfrwt beam="2">  1        4 0.18757334E+00 0.13074567E+04</pdfrwt>
<pdfrwt beam="1">  1       -4 0.34092603E+00 0.13229082E+04</pdfrwt>
<totfact> 0.83724276E-02</totfact>
</mgrwt>
</event>
<event>
 8    1  0.2939692E-006  0.1518117E+04  0.7818608E-02  0.8402906E-01
          4   -1    0    0  502    0  0.00000000000E+00  0.00000000000E+00  0.21769724186E+04  0.21769724186E+04  0.00000000000E+00 0.  1.
         -4   -1    0    0    0  501 -0.00000000000E+00 -0.00000000000E+00 -0.20290835633E+04  0.20290835633E+04  0.00000000000E+00 0. -1.
   -9000010    2    1    2    0  501 -0.63858935303E+03 -0.93512508020E+03 -0.13874467118E+04  0.20469046147E+04  0.99123904595E+03 0.  0.
    9000010    2    1    2  502    0  0.63858935303E+03  0.93512508020E+03  0.15353355671E+04  0.21591513671E+04  0.10111498627E+04 0.  0.
        -13    1    4    4    0    0  0.71563080006E+03  0.46025373671E+03  0.14341314687E+04  0.16675413113E+04  0.10566000000E+00 0.  1.
          4    1    4    4  502    0 -0.77041447030E+02  0.47487134349E+03  0.10120409841E+03  0.49161005579E+03  0.00000000000E+00 0.  1.
         13    1    3    3    0    0 -0.42691264663E+03 -0.82457703618E+02 -0.37720875637E+02  0.43643619964E+03  0.10566000000E+00 0. -1.
         -4    1    3    3    0  501 -0.21167670641E+03 -0.85266737658E+03 -0.13497258362E+04  0.16104684151E+04  0.00000000000E+00 0. -1.
<mgrwt>
<rscale>  0 0.15115084E+04</rscale>
<asrwt>0</asrwt>
<pdfrwt beam="1">  1        4 0.33491883E+00 0.15181170E+04</pdfrwt>
<pdfrwt beam="2">  1       -4 0.31216670E+00 0.15049286E+04</pdfrwt>
<totfact> 0.40533247E-02</totfact>
</mgrwt>
</event>
<event>
 8    1  0.2939692E-006  0.1038567E+04  0.7818608E-02  0.8797915E-01
          4   -1    0    0  502    0  0.00000000000E+00  0.00000000000E+00  0.40762661906E+04  0.40762661906E+04  0.00000000000E+00 0.  1.
         -4   -1    0    0    0  501 -0.00000000000E+00 -0.00000000000E+00 -0.31807512229E+04  0.31807512229E+04  0.00000000000E+00 0. -1.
   -9000010    2    1    2    0  501 -0.23827201433E+03  0.21915273449E+02 -0.30419369369E+04  0.32143432136E+04  0.10106275945E+04 0.  0.
    9000010    2    1    2  502    0  0.23827201433E+03 -0.21915273449E+02  0.39374519046E+04  0.40426741998E+04  0.88455262841E+03 0.  0.
        -13    1    4    4    0    0 -0.15491427736E+03 -0.23742726161E+03  0.48931993030E+03  0.56551228389E+03  0.10566000000E+00 0.  1.
          4    1    4    4  502    0  0.39318629169E+03  0.21551198816E+03  0.34481319743E+04  0.34771619159E+04  0.00000000000E+00 0.  1.
         13    1    3    3    0    0  0.25515238894E+03  0.35711614628E+03 -0.11671608956E+04  0.12469559940E+04  0.10566000000E+00 0. -1.
         -4    1    3    3    0  501 -0.49342440327E+03 -0.33520087284E+03 -0.18747760413E+04  0.19673872196E+04  0.00000000000E+00 0. -1.
<mgrwt>
<rscale>  0 0.97554363E+03</rscale>
<asrwt>0</asrwt>
<pdfrwt beam="1">  1        4 0.62711787E+00 0.91634447E+03</pdfrwt>
<pdfrwt beam="2">  1       -4 0.48934634E+00 0.10385673E+04</pdfrwt>
<totfact> 0.40788480E-04</totfact>
</mgrwt>
</event>
<event>
 8    1  0.2939692E-006  0.1445929E+04  0.7818608E-02  0.8457686E-01
          4   -1    0    0  502    0  0.00000000000E+00  0.00000000000E+00  0.20904890986E+04  0.20904890986E+04  0.00000000000E+00 0.  1.
         -4   -1    0    0    0  501 -0.00000000000E+00 -0.00000000000E+00 -0.19091387972E+04  0.19091387972E+04  0.00000000000E+00 0. -1.
   -9000010    2    1    2    0  501  0.37885190532E+03  0.89071913675E+03 -0.13174640870E+04  0.19170440577E+04  0.10012177345E+04 0.  0.
    9000010    2    1    2  502    0 -0.37885190532E+03 -0.89071913675E+03  0.14988143885E+04  0.20825838381E+04  0.10741515371E+04 0.  0.
        -13    1    4    4    0    0 -0.36587258194E+03  0.14334099062E+03  0.27125127215E+03  0.47747947560E+03  0.10566000000E+00 0.  1.
          4    1    4    4  502    0 -0.12979323377E+02 -0.10340601274E+04  0.12275631163E+04  0.16051043625E+04  0.00000000000E+00 0.  1.
         13    1    3    3    0    0  0.33592962499E+02  0.25424587006E+03 -0.11441024834E+04  0.11724930505E+04  0.10566000000E+00 0. -1.
         -4    1    3    3    0  501  0.34525894282E+03  0.63647326669E+03 -0.17336160358E+03  0.74455100725E+03  0.00000000000E+00 0. -1.
<mgrwt>
<rscale>  0 0.14190161E+04</rscale>
<asrwt>0</asrwt>
<pdfrwt beam="1">  1        4 0.32161371E+00 0.14459291E+04</pdfrwt>
<pdfrwt beam="2">  1       -4 0.29371366E+00 0.13926041E+04</pdfrwt>
<totfact> 0.50317115E-02</totfact>
</mgrwt>
</event>
<event>
 8    1  0.2939692E-006  0.1084156E+04  0.7818608E-02  0.8700245E-01
         -4   -1    0    0    0  501 -0.00000000000E+00  0.00000000000E+00  0.24184183381E+04  0.24184183381E+04  0.00000000000E+00 0. -1.
          4   -1    0    0  502    0  0.00000000000E+00 -0.00000000000E+00 -0.19859013094E+04  0.19859013094E+04  0.00000000000E+00 0.  1.
   -9000010    2    1    2    0  501  0.20708019958E+03  0.31458932067E+03  0.21307507130E+04  0.23907098683E+04  0.10166348528E+04 0.  0.
    9000010    2    1    2  502    0 -0.20708019958E+03 -0.31458932067E+03 -0.16982336842E+04  0.20136097792E+04  0.10142869648E+04 0.  0.
        -13    1    4    4    0    0 -0.40895064376E+03  0.16499147990E+03 -0.33302411556E+03  0.55260102260E+03  0.10566000000E+00 0.  1.
          4    1    4    4  502    0  0.20187044418E+03 -0.47958080056E+03 -0.13652095687E+04  0.14610087566E+04  0.00000000000E+00 0.  1.
         13    1    3    3    0    0  0.56687283082E+03  0.30921780042E+03  0.89491884697E+03  0.11035579768E+04  0.10566000000E+00 0. -1.
         -4    1    3    3    0  501 -0.35979263125E+03  0.53715202444E+01  0.12358318660E+04  0.12871518915E+04  0.00000000000E+00 0. -1.
<mgrwt>
<rscale>  0 0.10830552E+04</rscale>
<asrwt>0</asrwt>
<pdfrwt beam="2">  1        4 0.30552328E+00 0.10819550E+04</pdfrwt>
<pdfrwt beam="1">  1       -4 0.37206436E+00 0.10841564E+04</pdfrwt>
<totfact> 0.33212222E-02</totfact>
</mgrwt>
</event>
<event>
 8    1  0.2939692E-006  0.1115547E+04  0.7818608E-02  0.8673934E-01
          4   -1    0    0  502    0  0.00000000000E+00  0.00000000000E+00  0.20837068267E+04  0.20837068267E+04  0.00000000000E+00 0.  1.
         -4   -1    0    0    0  501 -0.00000000000E+00 -0.00000000000E+00 -0.27268656428E+04  0.27268656428E+04  0.00000000000E+00 0. -1.
   -9000010    2    1    2    0  501  0.44612349173E+03  0.20523282218E+03 -0.24477305769E+04  0.26890341396E+04  0.99918614159E+03 0.  0.
    9000010    2    1    2  502    0 -0.44612349173E+03 -0.20523282218E+03  0.18045717609E+04  0.21215383299E+04  0.10016481237E+04 0.  0.
        -13    1    4    4    0    0  0.65337760944E+02  0.13688987304E+03 -0.56125003785E+02  0.16173400249E+03  0.10566000000E+00 0.  1.
          4    1    4    4  502    0 -0.51146125267E+03 -0.34212269522E+03  0.18606967647E+04  0.19598043274E+04  0.00000000000E+00 0.  1.
         13    1    3    3    0    0 -0.22568060948E+03  0.35874284908E+03 -0.96697216492E+03  0.10557761828E+04  0.10566000000E+00 0. -1.
         -4    1    3    3    0  501  0.67180410120E+03 -0.15351002690E+03 -0.14807584120E+04  0.16332579568E+04  0.00000000000E+00 0. -1.
<mgrwt>
<rscale>  0 0.11144417E+04</rscale>
<asrwt>0</asrwt>
<pdfrwt beam="1">  1        4 0.32057028E+00 0.11155472E+04</pdfrwt>
<pdfrwt beam="2">  1       -4 0.41951779E+00 0.11133372E+04</pdfrwt>
<totfact> 0.19568618E-02</totfact>
</mgrwt>
</event>
<event>
 8    1  0.2939692E-006  0.1101024E+04  0.7818608E-02  0.8693576E-01
          4   -1    0    0  502    0  0.00000000000E+00  0.00000000000E+00  0.11080142127E+04  0.11080142127E+04  0.00000000000E+00 0.  1.
         -4   -1    0    0    0  501 -0.00000000000E+00 -0.00000000000E+00 -0.24422647846E+04  0.24422647846E+04  0.00000000000E+00 0. -1.
   -9000010    2    1    2    0  501  0.36488070449E+03 -0.19927024280E+03 -0.19929983264E+04  0.22672343789E+04  0.99772884176E+03 0.  0.
    9000010    2    1    2  502    0 -0.36488070449E+03  0.19927024280E+03  0.65874775449E+03  0.12830446184E+04  0.10195137716E+04 0.  0.
        -13    1    4    4    0    0  0.23659209305E+03 -0.20155971756E+03  0.86924590095E+01  0.31093039131E+03  0.10566000000E+00 0.  1.
          4    1    4    4  502    0 -0.60147279755E+03  0.40082996035E+03  0.65005529548E+03  0.97211422708E+03  0.00000000000E+00 0.  1.
         13    1    3    3    0    0 -0.22901181634E+03 -0.92535525682E+02 -0.77393929443E+02  0.25884177989E+03  0.10566000000E+00 0. -1.
         -4    1    3    3    0  501  0.59389252084E+03 -0.10673471712E+03 -0.19156043969E+04  0.20083925990E+04  0.00000000000E+00 0. -1.
<mgrwt>
<rscale>  0 0.10909076E+04</rscale>
<asrwt>0</asrwt>
<pdfrwt beam="1">  1        4 0.17046373E+00 0.11010245E+04</pdfrwt>
<pdfrwt beam="2">  1       -4 0.37573304E+00 0.10808836E+04</pdfrwt>
<totfact> 0.73560379E-02</totfact>
</mgrwt>
</event>
<event>
 8    1  0.2939692E-006  0.1386631E+04  0.7818608E-02  0.8479474E-01
         -4   -1    0    0    0  501 -0.00000000000E+00  0.00000000000E+00  0.21606449940E+04  0.21606449940E+04  0.00000000000E+00 0. -1.
          4   -1    0    0  502    0  0.00000000000E+00 -0.00000000000E+00 -0.10641383509E+04  0.10641383509E+04  0.00000000000E+00 0.  1.
   -9000010    2    1    2    0  501 -0.75385756218E+03 -0.58836276653E+03  0.12058633058E+04  0.18338465130E+04  0.99720346563E+03 0.  0.
    9000010    2    1    2  502    0  0.75385756218E+03  0.58836276653E+03 -0.10935666276E+03  0.13909368318E+04  0.10041286877E+04 0.  0.
        -13    1    4    4    0    0  0.80000710345E+02  0.31090932232E+03  0.39178107625E+03  0.50651470189E+03  0.10566000000E+00 0.  1.
          4    1    4    4  502    0  0.67385685184E+03  0.27745344421E+03 -0.50113773901E+03  0.88442212994E+03  0.00000000000E+00 0.  1.
         13    1    3    3    0    0 -0.24202542367E+03 -0.86754600334E+02 -0.15185420068E+03  0.29860069626E+03  0.10566000000E+00 0. -1.
         -4    1    3    3    0  501 -0.51183213852E+03 -0.50160816619E+03  0.13577175065E+04  0.15352458167E+04  0.00000000000E+00 0. -1.
<mgrwt>
<rscale>  0 0.13841257E+04</rscale>
<asrwt>0</asrwt>
<pdfrwt beam="2">  1        4 0.16371359E+00 0.13866313E+04</pdfrwt>
<pdfrwt beam="1">  1       -4 0.33240692E+00 0.13816247E+04</pdfrwt>
<totfact> 0.10674555E-01</totfact>
</mgrwt>
</event>
<event>
 8    1  0.2939692E-006  0.1330376E+04  0.7818608E-02  0.8534137E-01
         -4   -1    0    0    0  501 -0.00000000000E+00  0.00000000000E+00  0.14751925738E+04  0.14751925738E+04  0.00000000000E+00 0. -1.
          4   -1    0    0  502    0  0.00000000000E+00 -0.00000000000E+00 -0.17044524911E+04  0.17044524911E+04  0.00000000000E+00 0.  1.
   -9000010    2    1    2    0  501  0.71159419887E+03  0.48128724182E+03  0.79188457687E+03  0.15482187121E+04  0.10158229592E+04 0.  0.
    9000010    2    1    2  502    0 -0.71159419887E+03 -0.48128724182E+03 -0.10211444941E+04  0.16314263528E+04  0.93851593152E+03 0.  0.
        -13    1    4    4    0    0 -0.33038746929E+03  0.19181662971E+03 -0.69263265112E+03  0.79100537284E+03  0.10566000000E+00 0.  1.
          4    1    4    4  502    0 -0.38120672958E+03 -0.67310387154E+03 -0.32851184298E+03  0.84042097995E+03  0.00000000000E+00 0.  1.
         13    1    3    3    0    0  0.17723366581E+03  0.65408917259E+03  0.14767418972E+03  0.69357919192E+03  0.10566000000E+00 0. -1.
         -4    1    3    3    0  501  0.53436053306E+03 -0.17280193077E+03  0.64421038716E+03  0.85463952020E+03  0.00000000000E+00 0. -1.
<mgrwt>
<rscale>  0 0.13010277E+04</rscale>
<asrwt>0</asrwt>
<pdfrwt beam="2">  1        4 0.26222346E+00 0.12723269E+04</pdfrwt>
<pdfrwt beam="1">  1       -4 0.22695270E+00 0.13303759E+04</pdfrwt>
<totfact> 0.10686228E-01</totfact>
</mgrwt>
</event>
<event>
 8    1  0.2939692E-006  0.1097318E+04  0.7818608E-02  0.8757745E-01
          4   -1    0    0  502    0  0.00000000000E+00  0.00000000000E+00  0.63113299265E+03  0.63113299265E+03  0.00000000000E+00 0.  1.
         -4   -1    0    0    0  501 -0.00000000000E+00 -0.00000000000E+00 -0.20498453385E+04  0.20498453385E+04  0.00000000000E+00 0. -1.
   -9000010    2    1    2    0  501 -0.37480720352E+03  0.15389234912E+03 -0.12561100846E+04  0.15716782280E+04  0.85334436940E+03 0.  0.
    9000010    2    1    2  502    0  0.37480720352E+03 -0.15389234912E+03 -0.16260226124E+03  0.11093001031E+04  0.10197764111E+04 0.  0.
        -13    1    4    4    0    0 -0.10282513296E+03 -0.47422818895E+03  0.67399968330E+02  0.48990626661E+03  0.10566000000E+00 0.  1.
          4    1    4    4  502    0  0.47763233648E+03  0.32033583983E+03 -0.23000222957E+03  0.61939383654E+03  0.00000000000E+00 0.  1.
         13    1    3    3    0    0 -0.49156303245E+03 -0.40335189033E+02 -0.12513137585E+04  0.13450082809E+04  0.10566000000E+00 0. -1.
         -4    1    3    3    0  501  0.11675582894E+03  0.19422753815E+03 -0.47963261075E+01  0.22666994708E+03  0.00000000000E+00 0. -1.
<mgrwt>
<rscale>  0 0.10181255E+04</rscale>
<asrwt>0</asrwt>
<pdfrwt beam="1">  1        4 0.97097382E-01 0.10973182E+04</pdfrwt>
<pdfrwt beam="2">  1       -4 0.31536082E+00 0.94464803E+03</pdfrwt>
<totfact> 0.29090891E-01</totfact>
</mgrwt>
</event>
<event>
 8    1  0.2939692E-006  0.1063263E+04  0.7818608E-02  0.8720211E-01
          4   -1    0    0  502    0  0.00000000000E+00  0.00000000000E+00  0.63300811783E+03  0.63300811783E+03  0.00000000000E+00 0.  1.
         -4   -1    0    0    0  501 -0.00000000000E+00 -0.00000000000E+00 -0.30739714381E+04  0.30739714381E+04  0.00000000000E+00 0. -1.
   -9000010    2    1    2    0  501  0.29311833928E+03 -0.16516333854E+03 -0.24232066860E+04  0.26435684382E+04  0.10016616969E+04 0.  0.
    9000010    2    1    2  502    0 -0.29311833928E+03  0.16516333854E+03 -0.17756634228E+02  0.10634111177E+04  0.10086280870E+04 0.  0.
        -13    1    4    4    0    0  0.56337490458E+02  0.53617505240E+03  0.78239000034E+02  0.54477422107E+03  0.10566000000E+00 0.  1.
          4    1    4    4  502    0 -0.34945582974E+03 -0.37101171386E+03 -0.95995634261E+02  0.51863689664E+03  0.00000000000E+00 0.  1.
         13    1    3    3    0    0  0.17818100358E+03 -0.99142759210E+02  0.12470508410E+02  0.20428725238E+03  0.10566000000E+00 0. -1.
         -4    1    3    3    0  501  0.11493733570E+03 -0.66020579333E+02 -0.24356771944E+04  0.24392811858E+04  0.00000000000E+00 0. -1.
<mgrwt>
<rscale>  0 0.10599546E+04</rscale>
<asrwt>0</asrwt>
<pdfrwt beam="1">  1        4 0.97385865E-01 0.10632629E+04</pdfrwt>
<pdfrwt beam="2">  1       -4 0.47291868E+00 0.10566567E+04</pdfrwt>
<totfact> 0.70138665E-02</totfact>
</mgrwt>
</event>
<event>
 8    1  0.2939692E-006  0.1099700E+04  0.7818608E-02  0.8690110E-01
         -4   -1    0    0    0  501 -0.00000000000E+00  0.00000000000E+00  0.32784732522E+04  0.32784732522E+04  0.00000000000E+00 0. -1.
          4   -1    0    0  502    0  0.00000000000E+00 -0.00000000000E+00 -0.15830526490E+04  0.15830526490E+04  0.00000000000E+00 0.  1.
   -9000010    2    1    2    0  501 -0.22285935764E+03  0.40886901249E+03  0.29800905171E+04  0.31765198996E+04  0.99624245039E+03 0.  0.
    9000010    2    1    2  502    0  0.22285935764E+03 -0.40886901249E+03 -0.12846699139E+04  0.16850060016E+04  0.98591494320E+03 0.  0.
        -13    1    4    4    0    0  0.19095564453E+03  0.14466096829E+03  0.45554845770E+02  0.24385673880E+03  0.10566000000E+00 0.  1.
          4    1    4    4  502    0  0.31903713111E+02 -0.55352998078E+03 -0.13302247597E+04  0.14411492628E+04  0.00000000000E+00 0.  1.
         13    1    3    3    0    0 -0.29416145239E+03  0.28743100710E+03  0.30054259506E+04  0.30334357913E+04  0.10566000000E+00 0. -1.
         -4    1    3    3    0  501  0.71302094758E+02  0.12143800540E+03 -0.25335433527E+02  0.14308410836E+03  0.00000000000E+00 0. -1.
<mgrwt>
<rscale>  0 0.10950160E+04</rscale>
<asrwt>0</asrwt>
<pdfrwt beam="2">  1        4 0.24354656E+00 0.10903524E+04</pdfrwt>
<pdfrwt beam="1">  1       -4 0.50438050E+00 0.10996996E+04</pdfrwt>
<totfact> 0.12539646E-02</totfact>
</mgrwt>
</event>
<event>
 8    1  0.2939692E-006  0.1090434E+04  0.7818608E-02  0.8703801E-01
          4   -1    0    0  502    0  0.00000000000E+00  0.00000000000E+00  0.96769378871E+03  0.96769378871E+03  0.00000000000E+00 0.  1.
         -4   -1    0    0    0  501 -0.00000000000E+00 -0.00000000000E+00 -0.26450255128E+04  0.26450255128E+04  0.00000000000E+00 0. -1.
   -9000010    2    1    2    0  501 -0.36657994495E+03  0.11721538786E+03 -0.21683222909E+04  0.24168440653E+04  0.99568738854E+03 0.  0.
    9000010    2    1    2  502    0  0.36657994495E+03 -0.11721538786E+03  0.49099056682E+03  0.11958752362E+04  0.10202575854E+04 0.  0.
        -13    1    4    4    0    0  0.71265113006E+03 -0.22703023646E+02  0.21967336649E+03  0.74608542378E+03  0.10566000000E+00 0.  1.
          4    1    4    4  502    0 -0.34607118511E+03 -0.94512364210E+02  0.27131720032E+03  0.44978981241E+03  0.00000000000E+00 0.  1.
         13    1    3    3    0    0  0.25228829361E+03  0.32507047614E+03 -0.93017153140E+03  0.10171230440E+04  0.10566000000E+00 0. -1.
         -4    1    3    3    0  501 -0.61886823856E+03 -0.20785508829E+03 -0.12381507595E+04  0.13997210214E+04  0.00000000000E+00 0. -1.
<mgrwt>
<rscale>  0 0.10788959E+04</rscale>
<asrwt>0</asrwt>
<pdfrwt beam="1">  1        4 0.14887597E+00 0.10904338E+04</pdfrwt>
<pdfrwt beam="2">  1       -4 0.40692700E+00 0.10674801E+04</pdfrwt>
<totfact> 0.67604782E-02</totfact>
</mgrwt>
</event>
<event>
 8    1  0.2939692E-006  0.1212972E+04  0.7818608E-02  0.8600910E-01
          4   -1    0    0  502    0  0.00000000000E+00  0.00000000000E+00  0.36961382331E+03  0.36961382331E+03  0.00000000000E+00 0.  1.
         -4   -1    0    0    0  501 -0.00000000000E+00 -0.00000000000E+00 -0.44729504235E+04  0.44729504235E+04  0.00000000000E+00 0. -1.
   -9000010    2    1    2    0  501 -0.65000523901E+03  0.23984451956E+03 -0.28752876453E+04  0.31164688477E+04  0.98237815078E+03 0.  0.
    9000010    2    1    2  502    0  0.65000523901E+03 -0.23984451956E+03 -0.12280489549E+04  0.17260953991E+04  0.99562487258E+03 0.  0.
        -13    1    4    4    0    0  0.90071180327E+03 -0.18840527687E+03 -0.11166911120E+04  0.14469890641E+04  0.10566000000E+00 0.  1.
          4    1    4    4  502    0 -0.25070656427E+03 -0.51439242695E+02 -0.11135784289E+03  0.27910633498E+03  0.00000000000E+00 0.  1.
         13    1    3    3    0    0 -0.52410970701E+03  0.11651150525E+03 -0.28901550262E+04  0.29396023545E+04  0.10566000000E+00 0. -1.
         -4    1    3    3    0  501 -0.12589553200E+03  0.12333301431E+03  0.14867380931E+02  0.17686649318E+03  0.00000000000E+00 0. -1.
<mgrwt>
<rscale>  0 0.12075352E+04</rscale>
<asrwt>0</asrwt>
<pdfrwt beam="1">  1        4 0.56863669E-01 0.12129720E+04</pdfrwt>
<pdfrwt beam="2">  1       -4 0.68814618E+00 0.12021227E+04</pdfrwt>
<totfact> 0.16633385E-02</totfact>
</mgrwt>
</event>
<event>
 8    1  0.2939692E-006  0.1292765E+04  0.7818608E-02  0.8542973E-01
         -4   -1    0    0    0  501 -0.00000000000E+00  0.00000000000E+00  0.10126683282E+04  0.10126683282E+04  0.00000000000E+00 0. -1.
          4   -1    0    0  502    0  0.00000000000E+00 -0.00000000000E+00 -0.32878770181E+04  0.32878770181E+04  0.00000000000E+00 0.  1.
   -9000010    2    1    2    0  501  0.33792484584E+03  0.72720623727E+03  0.38733433955E+03  0.13407522031E+04  0.10022806326E+04 0.  0.
    9000010    2    1    2  502    0 -0.33792484584E+03 -0.72720623727E+03 -0.26625430295E+04  0.29597931432E+04  0.10140108254E+04 0.  0.
        -13    1    4    4    0    0 -0.25758215609E+03 -0.97470289061E+03 -0.18536098744E+04  0.21100388313E+04  0.10566000000E+00 0.  1.
          4    1    4    4  502    0 -0.80342689748E+02  0.24749665335E+03 -0.80893315508E+03  0.84975431190E+03  0.00000000000E+00 0.  1.
         13    1    3    3    0    0  0.56470833181E+03  0.72382097635E+03  0.54211606225E+03  0.10661623431E+04  0.10566000000E+00 0. -1.
         -4    1    3    3    0  501 -0.22678348597E+03  0.33852609144E+01 -0.15478172270E+03  0.27458985994E+03  0.00000000000E+00 0. -1.
<mgrwt>
<rscale>  0 0.12881662E+04</rscale>
<asrwt>0</asrwt>
<pdfrwt beam="2">  1        4 0.50582723E+00 0.12927645E+04</pdfrwt>
<pdfrwt beam="1">  1       -4 0.15579513E+00 0.12835843E+04</pdfrwt>
<totfact> 0.21945231E-02</totfact>
</mgrwt>
</event>
<event>
 8    1  0.2939692E-006  0.1216990E+04  0.7818608E-02  0.8595100E-01
         -4   -1    0    0    0  501 -0.00000000000E+00  0.00000000000E+00  0.22282399539E+04  0.22282399539E+04  0.00000000000E+00 0. -1.
          4   -1    0    0  502    0  0.00000000000E+00 -0.00000000000E+00 -0.72851282166E+03  0.72851282166E+03  0.00000000000E+00 0.  1.
   -9000010    2    1    2    0  501  0.14104567423E+03  0.67333864859E+03  0.11945346584E+04  0.17052795144E+04  0.10038856281E+04 0.  0.
    9000010    2    1    2  502    0 -0.14104567423E+03 -0.67333864859E+03  0.30519247384E+03  0.12514732611E+04  0.99988202272E+03 0.  0.
        -13    1    4    4    0    0 -0.54299920640E+03 -0.32561240027E+03 -0.10624579287E+02  0.63323334263E+03  0.10566000000E+00 0.  1.
          4    1    4    4  502    0  0.40195353217E+03 -0.34772624832E+03  0.31581705313E+03  0.61823991851E+03  0.00000000000E+00 0.  1.
         13    1    3    3    0    0 -0.41547603005E+03  0.25554673915E+03  0.69316493232E+03  0.84758604401E+03  0.10566000000E+00 0. -1.
         -4    1    3    3    0  501  0.55652170428E+03  0.41779190944E+03  0.50136972605E+03  0.85769347037E+03  0.00000000000E+00 0. -1.
<mgrwt>
<rscale>  0 0.12153389E+04</rscale>
<asrwt>0</asrwt>
<pdfrwt beam="2">  1        4 0.11207890E+00 0.12136898E+04</pdfrwt>
<pdfrwt beam="1">  1       -4 0.34280615E+00 0.12169902E+04</pdfrwt>
<totfact> 0.18252624E-01</totfact>
</mgrwt>
</event>
<event>
 8    1  0.2939692E-006  0.1411346E+04  0.7818608E-02  0.8470736E-01
          4   -1    0    0  502    0  0.00000000000E+00  0.00000000000E+00  0.15041289381E+04  0.15041289381E+04  0.00000000000E+00 0.  1.
         -4   -1    0    0    0  501 -0.00000000000E+00 -0.00000000000E+00 -0.23744403909E+04  0.23744403909E+04  0.00000000000E+00 0. -1.
   -9000010    2    1    2    0  501 -0.97066742038E+03  0.63152796364E+01 -0.17422373337E+04  0.22421613064E+04  0.10245297815E+04 0.  0.
    9000010    2    1    2  502    0  0.97066742038E+03 -0.63152796364E+01  0.87192588095E+03  0.16364080226E+04  0.98759371753E+03 0.  0.
        -13    1    4    4    0    0  0.66225923067E+03  0.42180480013E+03  0.76859452777E+03  0.10987466211E+04  0.10566000000E+00 0.  1.
          4    1    4    4  502    0  0.30840818972E+03 -0.42812007977E+03  0.10333135318E+03  0.53766140157E+03  0.00000000000E+00 0.  1.
         13    1    3    3    0    0 -0.79428435008E+03  0.38370124621E+03 -0.72116423835E+03  0.11393823524E+04  0.10566000000E+00 0. -1.
         -4    1    3    3    0  501 -0.17638307030E+03 -0.37738596657E+03 -0.10210730954E+04  0.11027789540E+04  0.00000000000E+00 0. -1.
<mgrwt>
<rscale>  0 0.13979926E+04</rscale>
<asrwt>0</asrwt>
<pdfrwt beam="1">  1        4 0.23140445E+00 0.13847659E+04</pdfrwt>
<pdfrwt beam="2">  1       -4 0.36529852E+00 0.14113456E+04</pdfrwt>
<totfact> 0.51942952E-02</totfact>
</mgrwt>
</event>
<event>
 8    1  0.2939692E-006  0.1147033E+04  0.7818608E-02  0.8662240E-01
         -4   -1    0    0    0  501 -0.00000000000E+00  0.00000000000E+00  0.11180160218E+04  0.11180160218E+04  0.00000000000E+00 0. -1.
          4   -1    0    0  502    0  0.00000000000E+00 -0.00000000000E+00 -0.20803583343E+04  0.20803583343E+04  0.00000000000E+00 0.  1.
   -9000010    2    1    2    0  501  0.46749747175E+02  0.48484642313E+03  0.59823035437E+03  0.12616061798E+04  0.99825297552E+03 0.  0.
    9000010    2    1    2  502    0 -0.46749747175E+02 -0.48484642313E+03 -0.15605726668E+04  0.19367681763E+04  0.10384711491E+04 0.  0.
        -13    1    4    4    0    0 -0.19846454152E+03  0.19142422518E+03 -0.10233861509E+04  0.10598823676E+04  0.10566000000E+00 0.  1.
          4    1    4    4  502    0  0.15171479435E+03 -0.67627064831E+03 -0.53718651596E+03  0.87688580871E+03  0.00000000000E+00 0.  1.
         13    1    3    3    0    0  0.81394515858E+02  0.75840284366E+03  0.62286794402E+03  0.98476617902E+03  0.10566000000E+00 0. -1.
         -4    1    3    3    0  501 -0.34644768683E+02 -0.27355642053E+03 -0.24637589644E+02  0.27684000079E+03  0.00000000000E+00 0. -1.
<mgrwt>
<rscale>  0 0.11287467E+04</rscale>
<asrwt>0</asrwt>
<pdfrwt beam="2">  1        4 0.32005512E+00 0.11470327E+04</pdfrwt>
<pdfrwt beam="1">  1       -4 0.17200247E+00 0.11107523E+04</pdfrwt>
<totfact> 0.11001004E-01</totfact>
</mgrwt>
</event>
<event>
 8    1  0.2939692E-006  0.1213576E+04  0.7818608E-02  0.8611454E-01
         -4   -1    0    0    0  501 -0.00000000000E+00  0.00000000000E+00  0.85427400864E+03  0.85427400864E+03  0.00000000000E+00 0. -1.
          4   -1    0    0  502    0  0.00000000000E+00 -0.00000000000E+00 -0.25125102818E+04  0.25125102818E+04  0.00000000000E+00 0.  1.
   -9000010    2    1    2    0  501 -0.60557947284E+03 -0.87144209612E+02  0.13760779944E+03  0.12213526296E+04  0.10480676162E+04 0.  0.
    9000010    2    1    2  502    0  0.60557947284E+03  0.87144209612E+02 -0.17958440726E+04  0.21454316608E+04  0.10017487045E+04 0.  0.
        -13    1    4    4    0    0  0.36328103855E+03  0.51894984499E+03 -0.70691270276E+03  0.94921421980E+03  0.10566000000E+00 0.  1.
          4    1    4    4  502    0  0.24229843429E+03 -0.43180563538E+03 -0.10889313699E+04  0.11962174410E+04  0.00000000000E+00 0.  1.
         13    1    3    3    0    0  0.29760310553E+03 -0.86130044974E+02  0.18759336866E+02  0.31038349981E+03  0.10566000000E+00 0. -1.
         -4    1    3    3    0  501 -0.90318257837E+03 -0.10141646384E+01  0.11884846257E+03  0.91096912980E+03  0.00000000000E+00 0. -1.
<mgrwt>
<rscale>  0 0.11935254E+04</rscale>
<asrwt>0</asrwt>
<pdfrwt beam="2">  1        4 0.38654004E+00 0.11738062E+04</pdfrwt>
<pdfrwt beam="1">  1       -4 0.13142677E+00 0.12135758E+04</pdfrwt>
<totfact> 0.97448281E-02</totfact>
</mgrwt>
</event>
<event>
 8    1  0.2939692E-006  0.1199434E+04  0.7818608E-02  0.8615973E-01
         -4   -1    0    0    0  501 -0.00000000000E+00  0.00000000000E+00  0.51596291140E+03  0.51596291140E+03  0.00000000000E+00 0. -1.
          4   -1    0    0  502    0  0.00000000000E+00 -0.00000000000E+00 -0.27470705862E+04  0.27470705862E+04  0.00000000000E+00 0.  1.
   -9000010    2    1    2    0  501  0.47270299665E+03  0.46073143531E+03 -0.10127626157E+04  0.15698187221E+04  0.10014594979E+04 0.  0.
    9000010    2    1    2  502    0 -0.47270299665E+03 -0.46073143531E+03 -0.12183450590E+04  0.16932147754E+04  0.97308273771E+03 0.  0.
        -13    1    4    4    0    0 -0.36294623630E+03  0.22892379529E+03 -0.24142581370E+03  0.49236420380E+03  0.10566000000E+00 0.  1.
          4    1    4    4  502    0 -0.10975676035E+03 -0.68965523060E+03 -0.97691924532E+03  0.12008505716E+04  0.00000000000E+00 0.  1.
         13    1    3    3    0    0  0.43795400445E+03 -0.17019025624E+03 -0.13611302011E+03  0.48917808489E+03  0.10566000000E+00 0. -1.
         -4    1    3    3    0  501  0.34748992203E+02  0.63092169155E+03 -0.87664959563E+03  0.10806406372E+04  0.00000000000E+00 0. -1.
<mgrwt>
<rscale>  0 0.11875811E+04</rscale>
<asrwt>0</asrwt>
<pdfrwt beam="2">  1        4 0.42262624E+00 0.11758451E+04</pdfrwt>
<pdfrwt beam="1">  1       -4 0.79378910E-01 0.11994343E+04</pdfrwt>
<totfact> 0.17868702E-01</totfact>
</mgrwt>
</event>
<event>
 8    1  0.2939692E-006  0.1021945E+04  0.7818608E-02  0.8754663E-01
          4   -1    0    0  502    0  0.00000000000E+00  0.00000000000E+00  0.21840856229E+04  0.21840856229E+04  0.00000000000E+00 0.  1.
         -4   -1    0    0    0  501 -0.00000000000E+00 -0.00000000000E+00 -0.11052580930E+04  0.11052580930E+04  0.00000000000E+00 0. -1.
   -9000010    2    1    2    0  501 -0.22160261471E+03 -0.18464480917E+02 -0.69994260906E+03  0.12379066691E+04  0.99651623647E+03 0.  0.
    9000010    2    1    2  502    0  0.22160261471E+03  0.18464480917E+02  0.17787701390E+04  0.20514370467E+04  0.99745781539E+03 0.  0.
        -13    1    4    4    0    0  0.35151254087E+02  0.44855954273E+03  0.42546575308E+03  0.61924340307E+03  0.10566000000E+00 0.  1.
          4    1    4    4  502    0  0.18645136062E+03 -0.43009506181E+03  0.13533043859E+04  0.14321936437E+04  0.00000000000E+00 0.  1.
         13    1    3    3    0    0 -0.50491371225E+02  0.19085546902E+03  0.21024989286E+03  0.28840980780E+03  0.10566000000E+00 0. -1.
         -4    1    3    3    0  501 -0.17111124349E+03 -0.20931994993E+03 -0.91019250192E+03  0.94949686131E+03  0.00000000000E+00 0. -1.
<mgrwt>
<rscale>  0 0.10214850E+04</rscale>
<asrwt>0</asrwt>
<pdfrwt beam="1">  1        4 0.33601317E+00 0.10219446E+04</pdfrwt>
<pdfrwt beam="2">  1       -4 0.17003971E+00 0.10210256E+04</pdfrwt>
<totfact> 0.10156058E-01</totfact>
</mgrwt>
</event>
<event>
 8    1  0.2939692E-006  0.1043681E+04  0.7818608E-02  0.8737951E-01
         -4   -1    0    0    0  501 -0.00000000000E+00  0.00000000000E+00  0.27735195302E+04  0.27735195302E+04  0.00000000000E+00 0. -1.
          4   -1    0    0  502    0  0.00000000000E+00 -0.00000000000E+00 -0.62565246472E+03  0.62565246472E+03  0.00000000000E+00 0.  1.
   -9000010    2    1    2    0  501 -0.25086460463E+03 -0.78028994012E+02  0.21147488969E+04  0.23549654598E+04  0.10023361943E+04 0.  0.
    9000010    2    1    2  502    0  0.25086460463E+03  0.78028994012E+02  0.33118168541E+02  0.10442065351E+04  0.10100737107E+04 0.  0.
        -13    1    4    4    0    0  0.31269703233E+03  0.50457760988E+03  0.11720343851E+03  0.60507409098E+03  0.10566000000E+00 0.  1.
          4    1    4    4  502    0 -0.61832427702E+02 -0.42654861586E+03 -0.84085269969E+02  0.43913244407E+03  0.00000000000E+00 0.  1.
         13    1    3    3    0    0 -0.57715107217E+03  0.18997108789E+03  0.13733578208E+04  0.15017669891E+04  0.10566000000E+00 0. -1.
         -4    1    3    3    0  501  0.32628646754E+03 -0.26800008190E+03  0.74139107608E+03  0.85319847075E+03  0.00000000000E+00 0. -1.
<mgrwt>
<rscale>  0 0.10399312E+04</rscale>
<asrwt>0</asrwt>
<pdfrwt beam="2">  1        4 0.96254227E-01 0.10436812E+04</pdfrwt>
<pdfrwt beam="1">  1       -4 0.42669531E+00 0.10361947E+04</pdfrwt>
<totfact> 0.11763906E-01</totfact>
</mgrwt>
</event>
<event>
 8    1  0.2939692E-006  0.1359601E+04  0.7818608E-02  0.8495725E-01
         -4   -1    0    0    0  501 -0.00000000000E+00  0.00000000000E+00  0.44157230869E+03  0.44157230869E+03  0.00000000000E+00 0. -1.
          4   -1    0    0  502    0  0.00000000000E+00 -0.00000000000E+00 -0.49634471417E+04  0.49634471417E+04  0.00000000000E+00 0.  1.
   -9000010    2    1    2    0  501  0.76113968653E+03  0.50386840382E+03 -0.11868339342E+04  0.18034901933E+04  0.10053780876E+04 0.  0.
    9000010    2    1    2  502    0 -0.76113968653E+03 -0.50386840382E+03 -0.33350408988E+04  0.36015292572E+04  0.10076200686E+04 0.  0.
        -13    1    4    4    0    0 -0.68357100995E+03  0.14745446341E+02 -0.26615415729E+04  0.27479611186E+04  0.10566000000E+00 0.  1.
          4    1    4    4  502    0 -0.77568676579E+02 -0.51861385016E+03 -0.67349932591E+03  0.85356813856E+03  0.00000000000E+00 0.  1.
         13    1    3    3    0    0  0.45080642705E+03  0.78370441292E+03 -0.60780435429E+03  0.10894242451E+04  0.10566000000E+00 0. -1.
         -4    1    3    3    0  501  0.31033325948E+03 -0.27983600911E+03 -0.57902957992E+03  0.71406594818E+03  0.00000000000E+00 0. -1.
<mgrwt>
<rscale>  0 0.13587705E+04</rscale>
<asrwt>0</asrwt>
<pdfrwt beam="2">  1        4 0.76360723E+00 0.13596011E+04</pdfrwt>
<pdfrwt beam="1">  1       -4 0.67934203E-01 0.13579404E+04</pdfrwt>
<totfact> 0.42161931E-03</totfact>
</mgrwt>
</event>
<event>
 8    1  0.2939692E-006  0.1099686E+04  0.7818608E-02  0.8691758E-01
          4   -1    0    0  502    0  0.00000000000E+00  0.00000000000E+00  0.66349913052E+03  0.66349913052E+03  0.00000000000E+00 0.  1.
         -4   -1    0    0    0  501 -0.00000000000E+00 -0.00000000000E+00 -0.26472155574E+04  0.26472155574E+04  0.00000000000E+00 0. -1.
   -9000010    2    1    2    0  501  0.42475045071E+03 -0.13587841148E+03 -0.19319583002E+04  0.22230099523E+04  0.10052037040E+04 0.  0.
    9000010    2    1    2  502    0 -0.42475045071E+03  0.13587841148E+03 -0.51758126683E+02  0.10877047356E+04  0.99073043762E+03 0.  0.
        -13    1    4    4    0    0 -0.41890844444E+03 -0.22348372821E+03  0.31847482316E+03  0.57171276507E+03  0.10566000000E+00 0.  1.
          4    1    4    4  502    0 -0.58420062717E+01  0.35936213968E+03 -0.37023294984E+03  0.51599197050E+03  0.00000000000E+00 0.  1.
         13    1    3    3    0    0  0.29002753770E+02 -0.13998589859E+03 -0.18002255265E+04  0.18058929007E+04  0.10566000000E+00 0. -1.
         -4    1    3    3    0  501  0.39574769694E+03  0.41074871094E+01 -0.13173277371E+03  0.41711705162E+03  0.00000000000E+00 0. -1.
<mgrwt>
<rscale>  0 0.10930596E+04</rscale>
<asrwt>0</asrwt>
<pdfrwt beam="1">  1        4 0.10207679E+00 0.10864726E+04</pdfrwt>
<pdfrwt beam="2">  1       -4 0.40726394E+00 0.10996865E+04</pdfrwt>
<totfact> 0.12589185E-01</totfact>
</mgrwt>
</event>
<event>
 8    1  0.2939692E-006  0.1049152E+04  0.7818608E-02  0.8738235E-01
         -4   -1    0    0    0  501 -0.00000000000E+00  0.00000000000E+00  0.13275803696E+04  0.13275803696E+04  0.00000000000E+00 0. -1.
          4   -1    0    0  502    0  0.00000000000E+00 -0.00000000000E+00 -0.98381390468E+03  0.98381390468E+03  0.00000000000E+00 0.  1.
   -9000010    2    1    2    0  501  0.25065639771E+03  0.75774286698E+01  0.65046032087E+03  0.12183340228E+04  0.99917621814E+03 0.  0.
    9000010    2    1    2  502    0 -0.25065639771E+03 -0.75774286698E+01 -0.30669385593E+03  0.10930602515E+04  0.10187411570E+04 0.  0.
        -13    1    4    4    0    0  0.32337116892E+03  0.79252287856E+02 -0.38303011194E+03  0.50750558207E+03  0.10566000000E+00 0.  1.
          4    1    4    4  502    0 -0.57402756664E+03 -0.86829716526E+02  0.76336256010E+02  0.58555466945E+03  0.00000000000E+00 0.  1.
         13    1    3    3    0    0  0.44679740928E+03 -0.36970393611E+03  0.24094971832E+03  0.62798543234E+03  0.10566000000E+00 0. -1.
         -4    1    3    3    0  501 -0.19614101157E+03  0.37728136478E+03  0.40951060255E+03  0.59034859044E+03  0.00000000000E+00 0. -1.
<mgrwt>
<rscale>  0 0.10396149E+04</rscale>
<asrwt>0</asrwt>
<pdfrwt beam="2">  1        4 0.15135599E+00 0.10491518E+04</pdfrwt>
<pdfrwt beam="1">  1       -4 0.20424313E+00 0.10301646E+04</pdfrwt>
<totfact> 0.26029458E-01</totfact>
</mgrwt>
</event>
<event>
 8    1  0.2939692E-006  0.1503267E+04  0.7818608E-02  0.8409770E-01
          4   -1    0    0  502    0  0.00000000000E+00  0.00000000000E+00  0.98979755203E+03  0.98979755203E+03  0.00000000000E+00 0.  1.
         -4   -1    0    0    0  501 -0.00000000000E+00 -0.00000000000E+00 -0.27180297448E+04  0.27180297448E+04  0.00000000000E+00 0. -1.
   -9000010    2    1    2    0  501  0.67123444817E+03 -0.88065312441E+03 -0.16135108601E+04  0.22001887404E+04  0.10056379010E+04 0.  0.
    9000010    2    1    2  502    0 -0.67123444817E+03  0.88065312441E+03 -0.11472133271E+03  0.15076385564E+04  0.10167140319E+04 0.  0.
        -13    1    4    4    0    0  0.96594412177E+02  0.47594759461E+03  0.27288575037E+03  0.55706663623E+03  0.10566000000E+00 0.  1.
          4    1    4    4  502    0 -0.76782886035E+03  0.40470552980E+03 -0.38760708308E+03  0.95057192021E+03  0.00000000000E+00 0.  1.
         13    1    3    3    0    0  0.41402504183E+03  0.14392170057E+03 -0.43515668320E+03  0.61765001518E+03  0.10566000000E+00 0. -1.
         -4    1    3    3    0  501  0.25720940634E+03 -0.10245748250E+04 -0.11783541769E+04  0.15825387253E+04  0.00000000000E+00 0. -1.
<mgrwt>
<rscale>  0 0.14995283E+04</rscale>
<asrwt>0</asrwt>
<pdfrwt beam="1">  1        4 0.15227654E+00 0.15032675E+04</pdfrwt>
<pdfrwt beam="2">  1       -4 0.41815843E+00 0.14957985E+04</pdfrwt>
<totfact> 0.56664347E-02</totfact>
</mgrwt>
</event>
<event>
 8    1  0.2939692E-006  0.1095120E+04  0.7818608E-02  0.8692071E-01
         -4   -1    0    0    0  501 -0.00000000000E+00  0.00000000000E+00  0.95399929364E+03  0.95399929364E+03  0.00000000000E+00 0. -1.
          4   -1    0    0  502    0  0.00000000000E+00 -0.00000000000E+00 -0.12946506486E+04  0.12946506486E+04  0.00000000000E+00 0.  1.
   -9000010    2    1    2    0  501  0.18784086642E+03  0.39487133755E+03 -0.37511091004E+03  0.11529878708E+04  0.99873183136E+03 0.  0.
    9000010    2    1    2  502    0 -0.18784086642E+03 -0.39487133755E+03  0.34459555054E+02  0.10956620715E+04  0.10040320462E+04 0.  0.
        -13    1    4    4    0    0  0.17384666717E+03 -0.45250604122E+02  0.42331015921E+03  0.45984973949E+03  0.10566000000E+00 0.  1.
          4    1    4    4  502    0 -0.36168753359E+03 -0.34962073343E+03 -0.38885060415E+03  0.63581233202E+03  0.00000000000E+00 0.  1.
         13    1    3    3    0    0 -0.68651012742E+02  0.41731141427E+03 -0.65055809540E+03  0.77594305506E+03  0.10566000000E+00 0. -1.
         -4    1    3    3    0  501  0.25649187917E+03 -0.22440076725E+02  0.27544718536E+03  0.37704481570E+03  0.00000000000E+00 0. -1.
<mgrwt>
<rscale>  0 0.10926887E+04</rscale>
<asrwt>0</asrwt>
<pdfrwt beam="2">  1        4 0.19917702E+00 0.10951200E+04</pdfrwt>
<pdfrwt beam="1">  1       -4 0.14676912E+00 0.10902627E+04</pdfrwt>
<totfact> 0.28097590E-01</totfact>
</mgrwt>
</event>
<event>
 8    1  0.2939692E-006  0.1213329E+04  0.7818608E-02  0.8647580E-01
         -4   -1    0    0    0  501 -0.00000000000E+00  0.00000000000E+00  0.79812948441E+03  0.79812948441E+03  0.00000000000E+00 0. -1.
          4   -1    0    0  502    0  0.00000000000E+00 -0.00000000000E+00 -0.23955711250E+04  0.23955711250E+04  0.00000000000E+00 0.  1.
   -9000010    2    1    2    0  501 -0.63516838797E+03 -0.53349500442E+02  0.58059841150E+02  0.12147170541E+04  0.10324153844E+04 0.  0.
    9000010    2    1    2  502    0  0.63516838797E+03  0.53349500442E+02 -0.16555014817E+04  0.19789835553E+04  0.87715774291E+03 0.  0.
        -13    1    4    4    0    0 -0.96166914852E+02  0.29326119821E+03 -0.57169424216E+03  0.64968032414E+03  0.10566000000E+00 0.  1.
          4    1    4    4  502    0  0.73133530282E+03 -0.23991169777E+03 -0.10838072396E+04  0.13293032312E+04  0.00000000000E+00 0.  1.
         13    1    3    3    0    0 -0.77638314658E+03  0.24602364474E+03  0.22367732387E+03  0.84458864570E+03  0.10566000000E+00 0. -1.
         -4    1    3    3    0  501  0.14121475861E+03 -0.29937314518E+03 -0.16561748272E+03  0.37012840838E+03  0.00000000000E+00 0. -1.
<mgrwt>
<rscale>  0 0.11469976E+04</rscale>
<asrwt>0</asrwt>
<pdfrwt beam="2">  1        4 0.36854940E+00 0.10842927E+04</pdfrwt>
<pdfrwt beam="1">  1       -4 0.12278915E+00 0.12133287E+04</pdfrwt>
<totfact> 0.12814241E-01</totfact>
</mgrwt>
</event>
<event>
 8    1  0.2939692E-006  0.1768482E+04  0.7818608E-02  0.8276137E-01
          4   -1    0    0  502    0  0.00000000000E+00  0.00000000000E+00  0.22007090107E+04  0.22007090107E+04  0.00000000000E+00 0.  1.
         -4   -1    0    0    0  501 -0.00000000000E+00 -0.00000000000E+00 -0.21926051557E+04  0.21926051557E+04  0.00000000000E+00 0. -1.
   -9000010    2    1    2    0  501  0.64202883526E+03 -0.13131723096E+04 -0.13168240678E+04  0.22048934383E+04  0.99544307158E+03 0.  0.
    9000010    2    1    2  502    0 -0.64202883526E+03  0.13131723096E+04  0.13249279227E+04  0.21884207282E+04  0.94716880388E+03 0.  0.
        -13    1    4    4    0    0 -0.93006356437E+02  0.43523061761E+03  0.10138407266E+04  0.11072257687E+04  0.10566000000E+00 0.  1.
          4    1    4    4  502    0 -0.54902247882E+03  0.87794169194E+03  0.31108719616E+03  0.10811949594E+04  0.00000000000E+00 0.  1.
         13    1    3    3    0    0  0.10326916367E+03 -0.77925841025E+03 -0.13052558072E+03  0.79683444234E+03  0.10566000000E+00 0. -1.
         -4    1    3    3    0  501  0.53875967159E+03 -0.53391389930E+03 -0.11862984871E+04  0.14080589959E+04  0.00000000000E+00 0. -1.
<mgrwt>
<rscale>  0 0.17550736E+04</rscale>
<asrwt>0</asrwt>
<pdfrwt beam="1">  1        4 0.33857062E+00 0.17417667E+04</pdfrwt>
<pdfrwt beam="2">  1       -4 0.33732387E+00 0.17684822E+04</pdfrwt>
<totfact> 0.32659952E-02</totfact>
</mgrwt>
</event>
<event>
 8    1  0.2939692E-006  0.1578544E+04  0.7818608E-02  0.8384392E-01
         -4   -1    0    0    0  501 -0.00000000000E+00  0.00000000000E+00  0.23041638199E+04  0.23041638199E+04  0.00000000000E+00 0. -1.
          4   -1    0    0  502    0  0.00000000000E+00 -0.00000000000E+00 -0.11274895287E+04  0.11274895287E+04  0.00000000000E+00 0.  1.
   -9000010    2    1    2    0  501 -0.37357431951E+03  0.11463750395E+04  0.10660913214E+04  0.18492408092E+04  0.91071804710E+03 0.  0.
    9000010    2    1    2  502    0  0.37357431951E+03 -0.11463750395E+04  0.11058296982E+03  0.15824125394E+04  0.10188559015E+04 0.  0.
        -13    1    4    4    0    0 -0.31774499206E+03 -0.19149314507E+03  0.15651882561E+03  0.40265327333E+03  0.10566000000E+00 0.  1.
          4    1    4    4  502    0  0.69131931157E+03 -0.95488189446E+03 -0.45935855789E+02  0.11797592660E+04  0.00000000000E+00 0.  1.
         13    1    3    3    0    0 -0.17062534054E+03 -0.96140297002E+02 -0.55517638570E+01  0.19592548784E+03  0.10566000000E+00 0. -1.
         -4    1    3    3    0  501 -0.20294897898E+03  0.12425153365E+04  0.10716430853E+04  0.16533153213E+04  0.00000000000E+00 0. -1.
<mgrwt>
<rscale>  0 0.15444061E+04</rscale>
<asrwt>0</asrwt>
<pdfrwt beam="2">  1        4 0.17345993E+00 0.15785439E+04</pdfrwt>
<pdfrwt beam="1">  1       -4 0.35448674E+00 0.15110066E+04</pdfrwt>
<totfact> 0.82923133E-02</totfact>
</mgrwt>
</event>
<event>
 8    1  0.2939692E-006  0.1179373E+04  0.7818608E-02  0.8630014E-01
         -4   -1    0    0    0  501 -0.00000000000E+00  0.00000000000E+00  0.18961411531E+04  0.18961411531E+04  0.00000000000E+00 0. -1.
          4   -1    0    0  502    0  0.00000000000E+00 -0.00000000000E+00 -0.21233162525E+04  0.21233162525E+04  0.00000000000E+00 0.  1.
   -9000010    2    1    2    0  501  0.96694645322E+02  0.57808058120E+03  0.15198688199E+04  0.19115952451E+04  0.10003340134E+04 0.  0.
    9000010    2    1    2  502    0 -0.96694645322E+02 -0.57808058120E+03 -0.17470439193E+04  0.21078621606E+04  0.10234224051E+04 0.  0.
        -13    1    4    4    0    0 -0.53507331708E+02  0.14926799198E+02 -0.14355622153E+04  0.14366366030E+04  0.10566000000E+00 0.  1.
          4    1    4    4  502    0 -0.43187313614E+02 -0.59300738040E+03 -0.31148170400E+03  0.67122555762E+03  0.00000000000E+00 0.  1.
         13    1    3    3    0    0  0.37912915562E+03 -0.11461922537E+03  0.67948688782E+03  0.78649788642E+03  0.10566000000E+00 0. -1.
         -4    1    3    3    0  501 -0.28243451030E+03  0.69269980657E+03  0.84038193209E+03  0.11250973586E+04  0.00000000000E+00 0. -1.
<mgrwt>
<rscale>  0 0.11693409E+04</rscale>
<asrwt>0</asrwt>
<pdfrwt beam="2">  1        4 0.32666404E+00 0.11793729E+04</pdfrwt>
<pdfrwt beam="1">  1       -4 0.29171402E+00 0.11593943E+04</pdfrwt>
<totfact> 0.50561056E-02</totfact>
</mgrwt>
</event>
<event>
 8    1  0.2939692E-006  0.1194650E+04  0.7818608E-02  0.8619350E-01
          4   -1    0    0  502    0  0.00000000000E+00  0.00000000000E+00  0.33055112694E+04  0.33055112694E+04  0.00000000000E+00 0.  1.
         -4   -1    0    0    0  501 -0.00000000000E+00 -0.00000000000E+00 -0.51912082770E+03  0.51912082770E+03  0.00000000000E+00 0. -1.
   -9000010    2    1    2    0  501 -0.28904982120E+03  0.54039657513E+03  0.56167108951E+03  0.12994458246E+04  0.99875261235E+03 0.  0.
    9000010    2    1    2  502    0  0.28904982120E+03 -0.54039657513E+03  0.22247193522E+04  0.25251862726E+04  0.10254809883E+04 0.  0.
        -13    1    4    4    0    0 -0.21540536378E+01 -0.11369573839E+03  0.19241581991E+04  0.19275155375E+04  0.10566000000E+00 0.  1.
          4    1    4    4  502    0  0.29120387484E+03 -0.42670083674E+03  0.30056115311E+03  0.59767073507E+03  0.00000000000E+00 0.  1.
         13    1    3    3    0    0 -0.26540809703E+03  0.68240337902E+03  0.75937772529E+03  0.10548793156E+04  0.10566000000E+00 0. -1.
         -4    1    3    3    0  501 -0.23641724178E+02 -0.14200680389E+03 -0.19770663579E+03  0.24456650897E+03  0.00000000000E+00 0. -1.
<mgrwt>
<rscale>  0 0.11831635E+04</rscale>
<asrwt>0</asrwt>
<pdfrwt beam="1">  1        4 0.50854018E+00 0.11946504E+04</pdfrwt>
<pdfrwt beam="2">  1       -4 0.79864745E-01 0.11717871E+04</pdfrwt>
<totfact> 0.70489840E-02</totfact>
</mgrwt>
</event>
<event>
 8    1  0.2939692E-006  0.1326058E+04  0.7818608E-02  0.8518546E-01
          4   -1    0    0  502    0  0.00000000000E+00  0.00000000000E+00  0.23306350613E+04  0.23306350613E+04  0.00000000000E+00 0. -1.
         -4   -1    0    0    0  501 -0.00000000000E+00 -0.00000000000E+00 -0.76329511477E+03  0.76329511477E+03  0.00000000000E+00 0.  1.
   -9000010    2    1    2    0  501  0.57146020953E+03 -0.65853640603E+03  0.59653578924E+03  0.14504917542E+04  0.99389859235E+03 0.  0.
    9000010    2    1    2  502    0 -0.57146020953E+03  0.65853640603E+03  0.97080415725E+03  0.16434384219E+04  0.99909567390E+03 0.  0.
        -13    1    4    4    0    0  0.95217474517E+02 -0.16942882012E+03  0.38114978401E+03  0.42784069647E+03  0.10566000000E+00 0.  1.
          4    1    4    4  502    0 -0.66667768405E+03  0.82796522615E+03  0.58965437324E+03  0.12155977254E+04  0.00000000000E+00 0.  1.
         13    1    3    3    0    0  0.77473904012E+03 -0.39559857933E+03  0.13282546864E+03  0.87997808639E+03  0.10566000000E+00 0. -1.
         -4    1    3    3    0  501 -0.20327883058E+03 -0.26293782670E+03  0.46371032060E+03  0.57051366776E+03  0.00000000000E+00 0. -1.
<mgrwt>
<rscale>  0 0.13241007E+04</rscale>
<asrwt>0</asrwt>
<pdfrwt beam="1">  1        4 0.35855924E+00 0.13260577E+04</pdfrwt>
<pdfrwt beam="2">  1       -4 0.11743002E+00 0.13221465E+04</pdfrwt>
<totfact> 0.14763994E-01</totfact>
</mgrwt>
</event>
<event>
 8    1  0.2939692E-006  0.1676646E+04  0.7818608E-02  0.8320337E-01
         -4   -1    0    0    0  501 -0.00000000000E+00  0.00000000000E+00  0.23775716287E+04  0.23775716287E+04  0.00000000000E+00 0. -1.
          4   -1    0    0  502    0  0.00000000000E+00 -0.00000000000E+00 -0.13594413123E+04  0.13594413123E+04  0.00000000000E+00 0.  1.
   -9000010    2    1    2    0  501 -0.83983558782E+03 -0.10421745919E+04  0.12105052493E+04  0.20493670575E+04  0.97114915607E+03 0.  0.
    9000010    2    1    2  502    0  0.83983558782E+03  0.10421745919E+04 -0.19237493288E+03  0.16876458834E+04  0.10097964243E+04 0.  0.
        -13    1    4    4    0    0  0.88631903696E+03  0.30485877137E+03 -0.12965639365E+03  0.94620880219E+03  0.10566000000E+00 0.  1.
          4    1    4    4  502    0 -0.46483449150E+02  0.73731582054E+03 -0.62718539226E+02  0.74143708123E+03  0.00000000000E+00 0.  1.
         13    1    3    3    0    0 -0.52136968379E+02 -0.11686042603E+03 -0.16834581759E+03  0.21145909322E+03  0.10566000000E+00 0. -1.
         -4    1    3    3    0  501 -0.78769861944E+03 -0.92531416588E+03  0.13788510668E+04  0.18379079643E+04  0.00000000000E+00 0. -1.
<mgrwt>
<rscale>  0 0.16651118E+04</rscale>
<asrwt>0</asrwt>
<pdfrwt beam="2">  1        4 0.20914482E+00 0.16766456E+04</pdfrwt>
<pdfrwt beam="1">  1       -4 0.36578025E+00 0.16536573E+04</pdfrwt>
<totfact> 0.57955632E-02</totfact>
</mgrwt>
</event>
<event>
 8    1  0.2939692E-006  0.1055199E+04  0.7818608E-02  0.8732979E-01
         -4   -1    0    0    0  501 -0.00000000000E+00  0.00000000000E+00  0.20270320594E+04  0.20270320594E+04  0.00000000000E+00 0. -1.
          4   -1    0    0  502    0  0.00000000000E+00 -0.00000000000E+00 -0.13207245569E+04  0.13207245569E+04  0.00000000000E+00 0.  1.
   -9000010    2    1    2    0  501 -0.43860583984E+02 -0.27001959899E+03  0.16393496263E+04  0.19392071029E+04  0.99911093273E+03 0.  0.
    9000010    2    1    2  502    0  0.43860583984E+02  0.27001959899E+03 -0.93304212383E+03  0.14085495134E+04  0.10191220693E+04 0.  0.
        -13    1    4    4    0    0  0.99312008370E+02 -0.20163587967E+03  0.11897147353E+03  0.25431108048E+03  0.10566000000E+00 0.  1.
          4    1    4    4  502    0 -0.55451424386E+02  0.47165547866E+03 -0.10520135974E+04  0.11542384329E+04  0.00000000000E+00 0.  1.
         13    1    3    3    0    0 -0.11451733955E+03  0.98676918046E+02 -0.85708483507E+02  0.17377373369E+03  0.10566000000E+00 0. -1.
         -4    1    3    3    0  501  0.70656755562E+02 -0.36869651704E+03  0.17250581098E+04  0.17654333692E+04  0.00000000000E+00 0. -1.
<mgrwt>
<rscale>  0 0.10454970E+04</rscale>
<asrwt>0</asrwt>
<pdfrwt beam="2">  1        4 0.20318839E+00 0.10551986E+04</pdfrwt>
<pdfrwt beam="1">  1       -4 0.31185109E+00 0.10358846E+04</pdfrwt>
<totfact> 0.93401965E-02</totfact>
</mgrwt>
</event>
<event>
 8    1  0.2939692E-006  0.1169258E+04  0.7818608E-02  0.8640973E-01
         -4   -1    0    0    0  501 -0.00000000000E+00  0.00000000000E+00  0.84651692816E+03  0.84651692816E+03  0.00000000000E+00 0. -1.
          4   -1    0    0  502    0  0.00000000000E+00 -0.00000000000E+00 -0.31569692384E+04  0.31569692384E+04  0.00000000000E+00 0.  1.
   -9000010    2    1    2    0  501 -0.38842462008E+03 -0.45766133531E+03  0.26772185731E+03  0.11725594605E+04  0.97102683390E+03 0.  0.
    9000010    2    1    2  502    0  0.38842462008E+03  0.45766133531E+03 -0.25781741676E+04  0.28309267061E+04  0.10034123747E+04 0.  0.
        -13    1    4    4    0    0  0.29203462553E+03  0.55959337999E+03 -0.68088336383E+03  0.92845632086E+03  0.10566000000E+00 0.  1.
          4    1    4    4  502    0  0.96389994544E+02 -0.10193204469E+03 -0.18972908037E+04  0.19024703852E+04  0.00000000000E+00 0.  1.
         13    1    3    3    0    0 -0.61059103544E+03 -0.49209581096E+03 -0.47197638658E+02  0.78562543746E+03  0.10566000000E+00 0. -1.
         -4    1    3    3    0  501  0.22216641536E+03  0.34434475650E+02  0.31491949597E+03  0.38693402302E+03  0.00000000000E+00 0. -1.
<mgrwt>
<rscale>  0 0.11553396E+04</rscale>
<asrwt>0</asrwt>
<pdfrwt beam="2">  1        4 0.48568758E+00 0.11692579E+04</pdfrwt>
<pdfrwt beam="1">  1       -4 0.13023337E+00 0.11415869E+04</pdfrwt>
<totfact> 0.36230495E-02</totfact>
</mgrwt>
</event>
<event>
 8    1  0.2939692E-006  0.1127936E+04  0.7818608E-02  0.8667171E-01
         -4   -1    0    0    0  501 -0.00000000000E+00  0.00000000000E+00  0.10963049261E+04  0.10963049261E+04  0.00000000000E+00 0. -1.
          4   -1    0    0  502    0  0.00000000000E+00 -0.00000000000E+00 -0.14589598272E+04  0.14589598272E+04  0.00000000000E+00 0.  1.
   -9000010    2    1    2    0  501  0.49529057799E+03 -0.51035144484E+01  0.40620027961E+03  0.11988488376E+04  0.10133612711E+04 0.  0.
    9000010    2    1    2  502    0 -0.49529057799E+03  0.51035144484E+01 -0.76885518070E+03  0.13564159157E+04  0.10016920910E+04 0.  0.
        -13    1    4    4    0    0 -0.24210932674E+03  0.48797170945E+03 -0.53383563239E+03  0.76270165129E+03  0.10566000000E+00 0.  1.
          4    1    4    4  502    0 -0.25318125125E+03 -0.48286819500E+03 -0.23501954831E+03  0.59371426445E+03  0.00000000000E+00 0.  1.
         13    1    3    3    0    0  0.67420819583E+03  0.14456190229E+03  0.58554660687E+03  0.90461023369E+03  0.10566000000E+00 0. -1.
         -4    1    3    3    0  501 -0.17891761784E+03 -0.14966541673E+03 -0.17934632726E+03  0.29423860393E+03  0.00000000000E+00 0. -1.
<mgrwt>
<rscale>  0 0.11226879E+04</rscale>
<asrwt>0</asrwt>
<pdfrwt beam="2">  1        4 0.22445536E+00 0.11174640E+04</pdfrwt>
<pdfrwt beam="1">  1       -4 0.16866230E+00 0.11279361E+04</pdfrwt>
<totfact> 0.19747968E-01</totfact>
</mgrwt>
</event>
<event>
 8    1  0.2939692E-006  0.1181204E+04  0.7818608E-02  0.8624667E-01
         -4   -1    0    0    0  501 -0.00000000000E+00  0.00000000000E+00  0.25095654630E+04  0.25095654630E+04  0.00000000000E+00 0. -1.
          4   -1    0    0  502    0  0.00000000000E+00 -0.00000000000E+00 -0.12670273067E+04  0.12670273067E+04  0.00000000000E+00 0.  1.
   -9000010    2    1    2    0  501 -0.36343459311E+03 -0.49290883430E+03  0.20416025908E+04  0.23586826604E+04  0.10100489746E+04 0.  0.
    9000010    2    1    2  502    0  0.36343459311E+03  0.49290883430E+03 -0.79906443447E+03  0.14179101094E+04  0.99845945605E+03 0.  0.
        -13    1    4    4    0    0  0.12152860567E+03  0.41144314808E+03  0.13487445002E+03  0.44971746078E+03  0.10566000000E+00 0.  1.
          4    1    4    4  502    0  0.24190598744E+03  0.81465686223E+02 -0.93393888449E+03  0.96819264857E+03  0.00000000000E+00 0.  1.
         13    1    3    3    0    0 -0.72907145082E+02 -0.22563407259E+02  0.17147536921E+04  0.17164512213E+04  0.10566000000E+00 0. -1.
         -4    1    3    3    0  501 -0.29052744803E+03 -0.47034542704E+03  0.32684889867E+03  0.64223143910E+03  0.00000000000E+00 0. -1.
<mgrwt>
<rscale>  0 0.11762461E+04</rscale>
<asrwt>0</asrwt>
<pdfrwt beam="2">  1        4 0.19492728E+00 0.11713091E+04</pdfrwt>
<pdfrwt beam="1">  1       -4 0.38608699E+00 0.11812039E+04</pdfrwt>
<totfact> 0.55471160E-02</totfact>
</mgrwt>
</event>
<event>
 8    1  0.2939692E-006  0.2005106E+04  0.7818608E-02  0.8168459E-01
         -4   -1    0    0    0  501 -0.00000000000E+00  0.00000000000E+00  0.19624052208E+04  0.19624052208E+04  0.00000000000E+00 0. -1.
          4   -1    0    0  502    0  0.00000000000E+00 -0.00000000000E+00 -0.25922467383E+04  0.25922467383E+04  0.00000000000E+00 0.  1.
   -9000010    2    1    2    0  501 -0.45373657201E+03  0.16675188983E+04  0.73745330093E+03  0.21364192507E+04  0.10168351345E+04 0.  0.
    9000010    2    1    2  502    0  0.45373657201E+03 -0.16675188983E+04 -0.13672948185E+04  0.24182327084E+04  0.99592075907E+03 0.  0.
        -13    1    4    4    0    0  0.50896563123E+03 -0.24583687838E+03 -0.30196850787E+03  0.64083287638E+03  0.10566000000E+00 0.  1.
          4    1    4    4  502    0 -0.55229059220E+02 -0.14216820199E+04 -0.10653263106E+04  0.17773998320E+04  0.00000000000E+00 0.  1.
         13    1    3    3    0    0 -0.32453562295E+02  0.28059756401E+03  0.62103853248E+03  0.68225881938E+03  0.10566000000E+00 0. -1.
         -4    1    3    3    0  501 -0.42128300971E+03  0.13869213343E+04  0.11641476845E+03  0.14541604314E+04  0.00000000000E+00 0. -1.
<mgrwt>
<rscale>  0 0.19998367E+04</rscale>
<asrwt>0</asrwt>
<pdfrwt beam="2">  1        4 0.39880719E+00 0.19945812E+04</pdfrwt>
<pdfrwt beam="1">  1       -4 0.30190850E+00 0.20051059E+04</pdfrwt>
<totfact> 0.24309633E-02</totfact>
</mgrwt>
</event>
<event>
 8    1  0.2939692E-006  0.1303297E+04  0.7818608E-02  0.8540168E-01
         -4   -1    0    0    0  501 -0.00000000000E+00  0.00000000000E+00  0.37385360013E+04  0.37385360013E+04  0.00000000000E+00 0. -1.
          4   -1    0    0  502    0  0.00000000000E+00 -0.00000000000E+00 -0.95037416510E+03  0.95037416510E+03  0.00000000000E+00 0.  1.
   -9000010    2    1    2    0  501 -0.50591907998E+03  0.65809635623E+03  0.30952219599E+04  0.33499292080E+04  0.97600296510E+03 0.  0.
    9000010    2    1    2  502    0  0.50591907998E+03 -0.65809635623E+03 -0.30706012364E+03  0.13389809585E+04  0.10047582585E+04 0.  0.
        -13    1    4    4    0    0  0.50969054096E+03 -0.46304886298E+03 -0.64838841256E+03  0.94583626582E+03  0.10566000000E+00 0.  1.
          4    1    4    4  502    0 -0.37714609782E+01 -0.19504749325E+03  0.34132828891E+03  0.39314469264E+03  0.00000000000E+00 0.  1.
         13    1    3    3    0    0 -0.36786361869E+03  0.80904980925E+01  0.22238955728E+04  0.22541296830E+04  0.10566000000E+00 0. -1.
         -4    1    3    3    0  501 -0.13805546130E+03  0.65000585814E+03  0.87132638713E+03  0.10957995250E+04  0.00000000000E+00 0. -1.
<mgrwt>
<rscale>  0 0.12922316E+04</rscale>
<asrwt>0</asrwt>
<pdfrwt beam="2">  1        4 0.14621141E+00 0.13032974E+04</pdfrwt>
<pdfrwt beam="1">  1       -4 0.57515938E+00 0.12812598E+04</pdfrwt>
<totfact> 0.10767796E-02</totfact>
</mgrwt>
</event>
<event>
 8    1  0.2939692E-006  0.1039368E+04  0.7818608E-02  0.8742228E-01
          4   -1    0    0  502    0  0.00000000000E+00  0.00000000000E+00  0.24295611075E+04  0.24295611075E+04  0.00000000000E+00 0.  1.
         -4   -1    0    0    0  501 -0.00000000000E+00 -0.00000000000E+00 -0.14693550677E+04  0.14693550677E+04  0.00000000000E+00 0. -1.
   -9000010    2    1    2    0  501 -0.21214761836E+03 -0.20955660483E+03 -0.11501369122E+04  0.15501937285E+04  0.99567318758E+03 0.  0.
    9000010    2    1    2  502    0  0.21214761836E+03  0.20955660483E+03  0.21103429520E+04  0.23487224467E+04  0.98692916354E+03 0.  0.
        -13    1    4    4    0    0  0.18238843855E+03 -0.31749723101E+02 -0.36045077976E+02  0.18860765160E+03  0.10566000000E+00 0.  1.
          4    1    4    4  502    0  0.29759179818E+02  0.24130632793E+03  0.21463880300E+04  0.21601147951E+04  0.00000000000E+00 0.  1.
         13    1    3    3    0    0  0.29450752715E+03  0.19190502750E+03 -0.62613750434E+03  0.71806017062E+03  0.10566000000E+00 0. -1.
         -4    1    3    3    0  501 -0.50665514551E+03 -0.40146163233E+03 -0.52399940785E+03  0.83213355787E+03  0.00000000000E+00 0. -1.
<mgrwt>
<rscale>  0 0.10351728E+04</rscale>
<asrwt>0</asrwt>
<pdfrwt beam="1">  1        4 0.37377863E+00 0.10309945E+04</pdfrwt>
<pdfrwt beam="2">  1       -4 0.22605463E+00 0.10393679E+04</pdfrwt>
<totfact> 0.51838434E-02</totfact>
</mgrwt>
</event>
<event>
 8    1  0.2939692E-006  0.1222375E+04  0.7818608E-02  0.8602268E-01
         -4   -1    0    0    0  501 -0.00000000000E+00  0.00000000000E+00  0.45495297601E+03  0.45495297601E+03  0.00000000000E+00 0. -1.
          4   -1    0    0  502    0  0.00000000000E+00 -0.00000000000E+00 -0.34616954457E+04  0.34616954457E+04  0.00000000000E+00 0.  1.
   -9000010    2    1    2    0  501  0.58442930089E+03 -0.39205764010E+03 -0.97992407078E+03  0.15666693769E+04  0.99946733367E+03 0.  0.
    9000010    2    1    2  502    0 -0.58442930089E+03  0.39205764010E+03 -0.20268183990E+04  0.23499790449E+04  0.95871887852E+03 0.  0.
        -13    1    4    4    0    0 -0.95448857811E+01 -0.22448317704E+03 -0.98256756400E+02  0.24523091763E+03  0.10566000000E+00 0.  1.
          4    1    4    4  502    0 -0.57488441511E+03  0.61654081714E+03 -0.19285616426E+04  0.21047481272E+04  0.00000000000E+00 0.  1.
         13    1    3    3    0    0 -0.13072667565E+03 -0.73346687476E+01 -0.69321457589E+03  0.70547127544E+03  0.10566000000E+00 0. -1.
         -4    1    3    3    0  501  0.71515597654E+03 -0.38472297135E+03 -0.28670949489E+03  0.86119810144E+03  0.00000000000E+00 0. -1.
<mgrwt>
<rscale>  0 0.12057188E+04</rscale>
<asrwt>0</asrwt>
<pdfrwt beam="2">  1        4 0.53256854E+00 0.11892892E+04</pdfrwt>
<pdfrwt beam="1">  1       -4 0.69992764E-01 0.12223755E+04</pdfrwt>
<totfact> 0.71601989E-02</totfact>
</mgrwt>
</event>
<event>
 8    1  0.2939692E-006  0.1786512E+04  0.7818608E-02  0.8263198E-01
          4   -1    0    0  502    0  0.00000000000E+00  0.00000000000E+00  0.17044699924E+04  0.17044699924E+04  0.00000000000E+00 0. -1.
         -4   -1    0    0    0  501 -0.00000000000E+00 -0.00000000000E+00 -0.18815642949E+04  0.18815642949E+04  0.00000000000E+00 0.  1.
   -9000010    2    1    2    0  501 -0.14345235398E+04 -0.32639736301E+03  0.84259607499E+02  0.17805068788E+04  0.99935581198E+03 0.  0.
    9000010    2    1    2  502    0  0.14345235398E+04  0.32639736301E+03 -0.26135390997E+03  0.18055274086E+04  0.10135237204E+04 0.  0.
        -13    1    4    4    0    0  0.69909035936E+03 -0.26975690670E+03  0.16493435637E+03  0.76726753635E+03  0.10566000000E+00 0.  1.
          4    1    4    4  502    0  0.73543318048E+03  0.59615426970E+03 -0.42628826633E+03  0.10382598722E+04  0.00000000000E+00 0.  1.
         13    1    3    3    0    0 -0.14041015556E+04 -0.22909836497E+03 -0.23806058802E+03  0.14424493384E+04  0.10566000000E+00 0. -1.
         -4    1    3    3    0  501 -0.30421984272E+02 -0.97298998040E+02  0.32232019552E+03  0.33805754034E+03  0.00000000000E+00 0. -1.
<mgrwt>
<rscale>  0 0.17825073E+04</rscale>
<asrwt>0</asrwt>
<pdfrwt beam="1">  1        4 0.26222615E+00 0.17865115E+04</pdfrwt>
<pdfrwt beam="2">  1       -4 0.28947143E+00 0.17785120E+04</pdfrwt>
<totfact> 0.72551803E-02</totfact>
</mgrwt>
</event>
<event>
 8    1  0.2939692E-006  0.1429352E+04  0.7818608E-02  0.8461591E-01
         -4   -1    0    0    0  501 -0.00000000000E+00  0.00000000000E+00  0.33236323704E+04  0.33236323704E+04  0.00000000000E+00 0. -1.
          4   -1    0    0  502    0  0.00000000000E+00 -0.00000000000E+00 -0.20921899484E+04  0.20921899484E+04  0.00000000000E+00 0.  1.
   -9000010    2    1    2    0  501 -0.74822965208E+03 -0.68335688503E+03  0.29000875464E+04  0.32186822579E+04  0.96051207990E+03 0.  0.
    9000010    2    1    2  502    0  0.74822965208E+03  0.68335688503E+03 -0.16686451245E+04  0.21971400609E+04  0.10080791889E+04 0.  0.
        -13    1    4    4    0    0 -0.11853564274E+03 -0.11822426637E+03 -0.18901534574E+02  0.16847835152E+03  0.10566000000E+00 0.  1.
          4    1    4    4  502    0  0.86676529482E+03  0.80158115140E+03 -0.16497435899E+04  0.20286617094E+04  0.00000000000E+00 0.  1.
         13    1    3    3    0    0 -0.31470072387E+03  0.21640223124E+03  0.60180902924E+03  0.71276966134E+03  0.10566000000E+00 0. -1.
         -4    1    3    3    0  501 -0.43352892821E+03 -0.89975911627E+03  0.22982785172E+04  0.25059125965E+04  0.00000000000E+00 0. -1.
<mgrwt>
<rscale>  0 0.14126849E+04</rscale>
<asrwt>0</asrwt>
<pdfrwt beam="2">  1        4 0.32187538E+00 0.14293523E+04</pdfrwt>
<pdfrwt beam="1">  1       -4 0.51132806E+00 0.13962119E+04</pdfrwt>
<totfact> 0.69941005E-03</totfact>
</mgrwt>
</event>
<event>
 8    1  0.2939692E-006  0.1480467E+04  0.7818608E-02  0.8423897E-01
          4   -1    0    0  502    0  0.00000000000E+00  0.00000000000E+00  0.32116282943E+04  0.32116282943E+04  0.00000000000E+00 0.  1.
         -4   -1    0    0    0  501 -0.00000000000E+00 -0.00000000000E+00 -0.12334477065E+04  0.12334477065E+04  0.00000000000E+00 0. -1.
   -9000010    2    1    2    0  501 -0.10703941093E+03  0.10776778396E+04 -0.50476269618E+03  0.15542646361E+04  0.99403532027E+03 0.  0.
    9000010    2    1    2  502    0  0.10703941093E+03 -0.10776778396E+04  0.24829432840E+04  0.28908113647E+04  0.10094236142E+04 0.  0.
        -13    1    4    4    0    0  0.15643842355E+03 -0.36666836211E+03  0.19769394250E+04  0.20167320520E+04  0.10566000000E+00 0.  1.
          4    1    4    4  502    0 -0.49399012624E+02 -0.71100947753E+03  0.50600385902E+03  0.87407931272E+03  0.00000000000E+00 0.  1.
         13    1    3    3    0    0  0.14679659999E+03  0.51125122862E+03  0.24102585506E+03  0.58396963492E+03  0.10566000000E+00 0. -1.
         -4    1    3    3    0  501 -0.25383601092E+03  0.56642661102E+03 -0.74578855124E+03  0.97029500116E+03  0.00000000000E+00 0. -1.
<mgrwt>
<rscale>  0 0.14752334E+04</rscale>
<asrwt>0</asrwt>
<pdfrwt beam="1">  1        4 0.49409666E+00 0.14804672E+04</pdfrwt>
<pdfrwt beam="2">  1       -4 0.18976119E+00 0.14700181E+04</pdfrwt>
<totfact> 0.18554101E-02</totfact>
</mgrwt>
</event>
<event>
 8    1  0.2939692E-006  0.1115245E+04  0.7818608E-02  0.8680200E-01
         -4   -1    0    0    0  501 -0.00000000000E+00  0.00000000000E+00  0.10365254036E+04  0.10365254036E+04  0.00000000000E+00 0. -1.
          4   -1    0    0  502    0  0.00000000000E+00 -0.00000000000E+00 -0.17128175561E+04  0.17128175561E+04  0.00000000000E+00 0.  1.
   -9000010    2    1    2    0  501 -0.23896855147E+03  0.34283057778E+03  0.42531544545E+03  0.11935929860E+04  0.10339884982E+04 0.  0.
    9000010    2    1    2  502    0  0.23896855147E+03 -0.34283057778E+03 -0.11016075979E+04  0.15557499737E+04  0.10159625521E+04 0.  0.
        -13    1    4    4    0    0  0.56094159445E+03 -0.30095749810E+02 -0.90623576372E+03  0.10662197227E+04  0.10566000000E+00 0.  1.
          4    1    4    4  502    0 -0.32197304298E+03 -0.31273482797E+03 -0.19537183417E+03  0.48953025097E+03  0.00000000000E+00 0.  1.
         13    1    3    3    0    0 -0.19406900441E+03  0.70168250217E+03  0.16090841019E+03  0.74559549352E+03  0.10566000000E+00 0. -1.
         -4    1    3    3    0  501 -0.44899547058E+02 -0.35885192439E+03  0.26440703526E+03  0.44799749247E+03  0.00000000000E+00 0. -1.
<mgrwt>
<rscale>  0 0.11068674E+04</rscale>
<asrwt>0</asrwt>
<pdfrwt beam="2">  1        4 0.26351039E+00 0.10985530E+04</pdfrwt>
<pdfrwt beam="1">  1       -4 0.15946545E+00 0.11152448E+04</pdfrwt>
<totfact> 0.17226819E-01</totfact>
</mgrwt>
</event>
<event>
 8    1  0.2939692E-006  0.1063263E+04  0.7818608E-02  0.8730020E-01
         -4   -1    0    0    0  501 -0.00000000000E+00  0.00000000000E+00  0.19277192485E+04  0.19277192485E+04  0.00000000000E+00 0. -1.
          4   -1    0    0  502    0  0.00000000000E+00 -0.00000000000E+00 -0.85481277427E+03  0.85481277427E+03  0.00000000000E+00 0.  1.
   -9000010    2    1    2    0  501 -0.35116895851E+03 -0.99018821972E+02  0.13433166093E+04  0.17131920140E+04  0.99870065556E+03 0.  0.
    9000010    2    1    2  502    0  0.35116895851E+03  0.99018821972E+02 -0.27041013510E+03  0.10693400088E+04  0.96811262189E+03 0.  0.
        -13    1    4    4    0    0 -0.52473109134E+02  0.25570542434E+03  0.27087621564E+03  0.37618164041E+03  0.10566000000E+00 0.  1.
          4    1    4    4  502    0  0.40364206764E+03 -0.15668660237E+03 -0.54128635074E+03  0.69315836836E+03  0.00000000000E+00 0.  1.
         13    1    3    3    0    0  0.24649772279E+03  0.26234699886E+03  0.53640122100E+03  0.64599795371E+03  0.10566000000E+00 0. -1.
         -4    1    3    3    0  501 -0.59766668129E+03 -0.36136582083E+03  0.80691538833E+03  0.10671940603E+04  0.00000000000E+00 0. -1.
<mgrwt>
<rscale>  0 0.10488259E+04</rscale>
<asrwt>0</asrwt>
<pdfrwt beam="2">  1        4 0.13150966E+00 0.10345851E+04</pdfrwt>
<pdfrwt beam="1">  1       -4 0.29657219E+00 0.10632626E+04</pdfrwt>
<totfact> 0.19015223E-01</totfact>
</mgrwt>
</event>
<event>
 8    1  0.2939692E-006  0.1938206E+04  0.7818608E-02  0.8194626E-01
         -4   -1    0    0    0  501 -0.00000000000E+00  0.00000000000E+00  0.21559868530E+04  0.21559868530E+04  0.00000000000E+00 0.  1.
          4   -1    0    0  502    0  0.00000000000E+00 -0.00000000000E+00 -0.17443022205E+04  0.17443022205E+04  0.00000000000E+00 0. -1.
   -9000010    2    1    2    0  501 -0.16402626209E+04 -0.24557420754E+03  0.10740853444E+03  0.19383444414E+04  0.99743391925E+03 0.  0.
    9000010    2    1    2  502    0  0.16402626209E+04  0.24557420754E+03  0.30427609808E+03  0.19619446321E+04  0.10029330179E+04 0.  0.
        -13    1    4    4    0    0  0.71331018193E+03 -0.37583402963E+03  0.39684471131E+01  0.80627439077E+03  0.10566000000E+00 0.  1.
          4    1    4    4  502    0  0.92695243901E+03  0.62140823717E+03  0.30030765097E+03  0.11556702413E+04  0.00000000000E+00 0.  1.
         13    1    3    3    0    0 -0.13214933627E+04  0.24021733137E+03 -0.20877512907E+02  0.13433111909E+04  0.10566000000E+00 0. -1.
         -4    1    3    3    0  501 -0.31876925827E+03 -0.48579153891E+03  0.12828604734E+03  0.59503325053E+03  0.00000000000E+00 0. -1.
<mgrwt>
<rscale>  0 0.19367857E+04</rscale>
<asrwt>0</asrwt>
<pdfrwt beam="2">  1        4 0.26835419E+00 0.19382061E+04</pdfrwt>
<pdfrwt beam="1">  1       -4 0.33169028E+00 0.19353663E+04</pdfrwt>
<totfact> 0.52642322E-02</totfact>
</mgrwt>
</event>
<event>
 8    1  0.2939692E-006  0.1058277E+04  0.7818608E-02  0.8724546E-01
          4   -1    0    0  502    0  0.00000000000E+00  0.00000000000E+00  0.26062520684E+04  0.26062520684E+04  0.00000000000E+00 0.  1.
         -4   -1    0    0    0  501 -0.00000000000E+00 -0.00000000000E+00 -0.58091475008E+03  0.58091475008E+03  0.00000000000E+00 0. -1.
   -9000010    2    1    2    0  501  0.34194602395E+03  0.34376875087E+02  0.19490349374E+03  0.10760746315E+04  0.10009197710E+04 0.  0.
    9000010    2    1    2  502    0 -0.34194602395E+03 -0.34376875087E+02  0.18304338246E+04  0.21110921869E+04  0.99403892417E+03 0.  0.
        -13    1    4    4    0    0 -0.58421938698E+02 -0.40976268178E+03  0.30328029200E+03  0.51312525272E+03  0.10566000000E+00 0.  1.
          4    1    4    4  502    0 -0.28352408525E+03  0.37538580670E+03  0.15271535326E+04  0.15979669342E+04  0.00000000000E+00 0.  1.
         13    1    3    3    0    0 -0.23374053769E+03  0.27949550578E+03 -0.10923544517E+03  0.38037451329E+03  0.10566000000E+00 0. -1.
         -4    1    3    3    0  501  0.57568656164E+03 -0.24511863069E+03  0.30413893892E+03  0.69570011825E+03  0.00000000000E+00 0. -1.
<mgrwt>
<rscale>  0 0.10550188E+04</rscale>
<asrwt>0</asrwt>
<pdfrwt beam="1">  1        4 0.40096185E+00 0.10517710E+04</pdfrwt>
<pdfrwt beam="2">  1       -4 0.89371501E-01 0.10582765E+04</pdfrwt>
<totfact> 0.17356010E-01</totfact>
</mgrwt>
</event>
<event>
 8    1  0.2939692E-006  0.1232794E+04  0.7818608E-02  0.8588132E-01
         -4   -1    0    0    0  501 -0.00000000000E+00  0.00000000000E+00  0.12849492123E+04  0.12849492123E+04  0.00000000000E+00 0. -1.
          4   -1    0    0  502    0  0.00000000000E+00 -0.00000000000E+00 -0.18218594509E+04  0.18218594509E+04  0.00000000000E+00 0.  1.
   -9000010    2    1    2    0  501 -0.51179785732E+03 -0.50453428763E+03  0.66363748598E+03  0.13860249124E+04  0.98191570461E+03 0.  0.
    9000010    2    1    2  502    0  0.51179785732E+03  0.50453428763E+03 -0.12005477245E+04  0.17207837508E+04  0.10016436412E+04 0.  0.
        -13    1    4    4    0    0  0.50586051749E+03 -0.44007605053E+02 -0.13993355088E+03  0.52670004963E+03  0.10566000000E+00 0.  1.
          4    1    4    4  502    0  0.59373398283E+01  0.54854189268E+03 -0.10606141736E+04  0.11940837012E+04  0.00000000000E+00 0.  1.
         13    1    3    3    0    0 -0.57223254090E+02  0.14431840954E+03 -0.17392349565E+03  0.23313450547E+03  0.10566000000E+00 0. -1.
         -4    1    3    3    0  501 -0.45457460323E+03 -0.64885269717E+03  0.83756098163E+03  0.11528904070E+04  0.00000000000E+00 0. -1.
<mgrwt>
<rscale>  0 0.12247810E+04</rscale>
<asrwt>0</asrwt>
<pdfrwt beam="2">  1        4 0.28028607E+00 0.12327943E+04</pdfrwt>
<pdfrwt beam="1">  1       -4 0.19768449E+00 0.12168198E+04</pdfrwt>
<totfact> 0.11605968E-01</totfact>
</mgrwt>
</event>
<event>
 8    1  0.2939692E-006  0.1048301E+04  0.7818608E-02  0.8731887E-01
          4   -1    0    0  502    0  0.00000000000E+00  0.00000000000E+00  0.12755775577E+04  0.12755775577E+04  0.00000000000E+00 0.  1.
         -4   -1    0    0    0  501 -0.00000000000E+00 -0.00000000000E+00 -0.18345822765E+04  0.18345822765E+04  0.00000000000E+00 0. -1.
   -9000010    2    1    2    0  501  0.14744982025E+03  0.26102906282E+03 -0.14137459489E+04  0.17600035652E+04  0.10045184520E+04 0.  0.
    9000010    2    1    2  502    0 -0.14744982025E+03 -0.26102906282E+03  0.85474123008E+03  0.13501562689E+04  0.10012301229E+04 0.  0.
        -13    1    4    4    0    0 -0.42908975375E+03 -0.50109200105E+03  0.65491468337E+03  0.92958295162E+03  0.10566000000E+00 0.  1.
          4    1    4    4  502    0  0.28163993350E+03  0.24006293822E+03  0.19982654671E+03  0.42057331729E+03  0.00000000000E+00 0.  1.
         13    1    3    3    0    0  0.36306667514E+03  0.48186399093E+03 -0.12962026983E+04  0.14297383546E+04  0.10566000000E+00 0. -1.
         -4    1    3    3    0  501 -0.21561685489E+03 -0.22083492811E+03 -0.11754325056E+03  0.33026521061E+03  0.00000000000E+00 0. -1.
<mgrwt>
<rscale>  0 0.10467245E+04</rscale>
<asrwt>0</asrwt>
<pdfrwt beam="1">  1        4 0.19624270E+00 0.10451504E+04</pdfrwt>
<pdfrwt beam="2">  1       -4 0.28224343E+00 0.10483010E+04</pdfrwt>
<totfact> 0.11724979E-01</totfact>
</mgrwt>
</event>
<event>
 8    1  0.2939692E-006  0.1056840E+04  0.7818608E-02  0.8728536E-01
         -4   -1    0    0    0  501 -0.00000000000E+00  0.00000000000E+00  0.23868604261E+04  0.23868604261E+04  0.00000000000E+00 0. -1.
          4   -1    0    0  502    0  0.00000000000E+00 -0.00000000000E+00 -0.73610033406E+03  0.73610033406E+03  0.00000000000E+00 0.  1.
   -9000010    2    1    2    0  501  0.32153312041E+03 -0.11278823911E+03  0.17744686906E+04  0.20589054300E+04  0.98703986818E+03 0.  0.
    9000010    2    1    2  502    0 -0.32153312041E+03  0.11278823911E+03 -0.12370859854E+03  0.10640553302E+04  0.10004025159E+04 0.  0.
        -13    1    4    4    0    0 -0.57642607014E+03  0.22500468418E+03 -0.34489023644E+03  0.70840906868E+03  0.10566000000E+00 0.  1.
          4    1    4    4  502    0  0.25489294973E+03 -0.11221644507E+03  0.22118163790E+03  0.35564626149E+03  0.00000000000E+00 0.  1.
         13    1    3    3    0    0 -0.15781109732E+03 -0.20686790292E+03  0.47897588286E+02  0.26456164088E+03  0.10566000000E+00 0. -1.
         -4    1    3    3    0  501  0.47934421773E+03  0.94079663814E+02  0.17265711023E+04  0.17943437891E+04  0.00000000000E+00 0. -1.
<mgrwt>
<rscale>  0 0.10505005E+04</rscale>
<asrwt>0</asrwt>
<pdfrwt beam="2">  1        4 0.11324621E+00 0.10568396E+04</pdfrwt>
<pdfrwt beam="1">  1       -4 0.36720929E+00 0.10441994E+04</pdfrwt>
<totfact> 0.14906896E-01</totfact>
</mgrwt>
</event>
<event>
 8    1  0.2939692E-006  0.1159716E+04  0.7818608E-02  0.8641188E-01
          4   -1    0    0  502    0  0.00000000000E+00  0.00000000000E+00  0.13765845865E+04  0.13765845865E+04  0.00000000000E+00 0.  1.
         -4   -1    0    0    0  501 -0.00000000000E+00 -0.00000000000E+00 -0.10800829070E+04  0.10800829070E+04  0.00000000000E+00 0. -1.
   -9000010    2    1    2    0  501 -0.52859406535E+03  0.25070791216E+03 -0.24476052382E+03  0.11852629546E+04  0.10013363143E+04 0.  0.
    9000010    2    1    2  502    0  0.52859406535E+03 -0.25070791216E+03  0.54126220337E+03  0.12714045390E+04  0.99057487640E+03 0.  0.
        -13    1    4    4    0    0  0.22512929466E+03 -0.25318583119E+03 -0.25188889020E+03  0.42217802951E+03  0.10566000000E+00 0.  1.
          4    1    4    4  502    0  0.30346477068E+03  0.24779190301E+01  0.79315109357E+03  0.84922650946E+03  0.00000000000E+00 0.  1.
         13    1    3    3    0    0 -0.54075457651E+03 -0.22615548625E+03  0.10275732823E+03  0.59508057912E+03  0.10566000000E+00 0. -1.
         -4    1    3    3    0  501  0.12160511162E+02  0.47686339841E+03 -0.34751785205E+03  0.59018237543E+03  0.00000000000E+00 0. -1.
<mgrwt>
<rscale>  0 0.11550669E+04</rscale>
<asrwt>0</asrwt>
<pdfrwt beam="1">  1        4 0.21178224E+00 0.11504368E+04</pdfrwt>
<pdfrwt beam="2">  1       -4 0.16616660E+00 0.11597157E+04</pdfrwt>
<totfact> 0.21684434E-01</totfact>
</mgrwt>
</event>
<event>
 8    1  0.2939692E-006  0.1103805E+04  0.7818608E-02  0.8701120E-01
          4   -1    0    0  502    0  0.00000000000E+00  0.00000000000E+00  0.12911679696E+04  0.12911679696E+04  0.00000000000E+00 0.  1.
         -4   -1    0    0    0  501 -0.00000000000E+00 -0.00000000000E+00 -0.13610449683E+04  0.13610449683E+04  0.00000000000E+00 0. -1.
   -9000010    2    1    2    0  501  0.31759544083E+03 -0.25318009208E+03 -0.80020132499E+03  0.13286729193E+04  0.97983801871E+03 0.  0.
    9000010    2    1    2  502    0 -0.31759544083E+03  0.25318009208E+03  0.73032432633E+03  0.13235400185E+04  0.10263613087E+04 0.  0.
        -13    1    4    4    0    0 -0.94812585311E+02  0.53298921343E+03  0.79325927789E+03  0.96037868629E+03  0.10566000000E+00 0.  1.
          4    1    4    4  502    0 -0.22278285552E+03 -0.27980912135E+03 -0.62934951560E+02  0.36316133224E+03  0.00000000000E+00 0.  1.
         13    1    3    3    0    0 -0.86212267583E+02 -0.13648272791E+03  0.19215594199E+03  0.25096614773E+03  0.10566000000E+00 0. -1.
         -4    1    3    3    0  501  0.40380770842E+03 -0.11669736417E+03 -0.99235726698E+03  0.10777067716E+04  0.00000000000E+00 0. -1.
<mgrwt>
<rscale>  0 0.10820293E+04</rscale>
<asrwt>0</asrwt>
<pdfrwt beam="1">  1        4 0.19864123E+00 0.11038046E+04</pdfrwt>
<pdfrwt beam="2">  1       -4 0.20939153E+00 0.10606835E+04</pdfrwt>
<totfact> 0.17310336E-01</totfact>
</mgrwt>
</event>
<event>
 8    1  0.2939692E-006  0.1357669E+04  0.7818608E-02  0.8503149E-01
          4   -1    0    0  502    0  0.00000000000E+00  0.00000000000E+00  0.32586679076E+04  0.32586679076E+04  0.00000000000E+00 0.  1.
         -4   -1    0    0    0  501 -0.00000000000E+00 -0.00000000000E+00 -0.98869116046E+03  0.98869116046E+03  0.00000000000E+00 0. -1.
   -9000010    2    1    2    0  501 -0.23927495939E+03 -0.88694678739E+03 -0.26318330860E+03  0.13829426591E+04  0.99966886252E+03 0.  0.
    9000010    2    1    2  502    0  0.23927495939E+03  0.88694678739E+03  0.25331600558E+04  0.28644164089E+04  0.97162461157E+03 0.  0.
        -13    1    4    4    0    0 -0.29045334430E+03  0.72541916730E+03  0.14058614923E+04  0.16084286308E+04  0.10566000000E+00 0.  1.
          4    1    4    4  502    0  0.52972830369E+03  0.16152762009E+03  0.11272985634E+04  0.12559877782E+04  0.00000000000E+00 0.  1.
         13    1    3    3    0    0 -0.56548087713E+03 -0.46510818984E+03 -0.39737169615E+03  0.83306573973E+03  0.10566000000E+00 0. -1.
         -4    1    3    3    0  501  0.32620591774E+03 -0.42183859755E+03  0.13418838755E+03  0.54987691941E+03  0.00000000000E+00 0. -1.
<mgrwt>
<rscale>  0 0.13473726E+04</rscale>
<asrwt>0</asrwt>
<pdfrwt beam="1">  1        4 0.50133352E+00 0.13371543E+04</pdfrwt>
<pdfrwt beam="2">  1       -4 0.15210633E+00 0.13576689E+04</pdfrwt>
<totfact> 0.23738954E-02</totfact>
</mgrwt>
</event>
<event>
 8    1  0.2939692E-006  0.1099792E+04  0.7818608E-02  0.8696645E-01
          4   -1    0    0  502    0  0.00000000000E+00  0.00000000000E+00  0.19191910101E+04  0.19191910101E+04  0.00000000000E+00 0.  1.
         -4   -1    0    0    0  501 -0.00000000000E+00 -0.00000000000E+00 -0.26534521493E+04  0.26534521493E+04  0.00000000000E+00 0. -1.
   -9000010    2    1    2    0  501  0.37307989270E+03  0.22055701317E+03 -0.23695296397E+04  0.26019463326E+04  0.98367677715E+03 0.  0.
    9000010    2    1    2  502    0 -0.37307989270E+03 -0.22055701317E+03  0.16352685005E+04  0.19706968267E+04  0.10107961772E+04 0.  0.
        -13    1    4    4    0    0 -0.66275977792E+03 -0.35976398179E+03  0.13215673729E+04  0.15215850217E+04  0.10566000000E+00 0.  1.
          4    1    4    4  502    0  0.28967988523E+03  0.13920696862E+03  0.31370112757E+03  0.44911180507E+03  0.00000000000E+00 0.  1.
         13    1    3    3    0    0  0.23541451314E+03 -0.26421983075E+03 -0.18290713686E+04  0.18629906587E+04  0.10566000000E+00 0. -1.
         -4    1    3    3    0  501  0.13766537955E+03  0.48477684392E+03 -0.54045827111E+03  0.73895567387E+03  0.00000000000E+00 0. -1.
<mgrwt>
<rscale>  0 0.10872852E+04</rscale>
<asrwt>0</asrwt>
<pdfrwt beam="1">  1        4 0.29526016E+00 0.10997922E+04</pdfrwt>
<pdfrwt beam="2">  1       -4 0.40822341E+00 0.10749205E+04</pdfrwt>
<totfact> 0.25679643E-02</totfact>
</mgrwt>
</event>
<event>
 8    1  0.2939692E-006  0.1103059E+04  0.7818608E-02  0.8693105E-01
          4   -1    0    0  502    0  0.00000000000E+00  0.00000000000E+00  0.21695436695E+04  0.21695436695E+04  0.00000000000E+00 0.  1.
         -4   -1    0    0    0  501 -0.00000000000E+00 -0.00000000000E+00 -0.92966166587E+03  0.92966166587E+03  0.00000000000E+00 0. -1.
   -9000010    2    1    2    0  501 -0.25977253593E+03  0.36373004970E+03 -0.36752753506E+03  0.11626757585E+04  0.10084429141E+04 0.  0.
    9000010    2    1    2  502    0  0.25977253593E+03 -0.36373004970E+03  0.16074095387E+04  0.19365295768E+04  0.98315820568E+03 0.  0.
        -13    1    4    4    0    0 -0.14812606636E+03  0.15907368762E+03  0.22533574426E+02  0.21852584005E+03  0.10566000000E+00 0.  1.
          4    1    4    4  502    0  0.40789860229E+03 -0.52280373732E+03  0.15848759642E+04  0.17180037368E+04  0.00000000000E+00 0.  1.
         13    1    3    3    0    0  0.49266493750E+02 -0.32148681461E+03  0.16132239032E+01  0.32524386701E+03  0.10566000000E+00 0. -1.
         -4    1    3    3    0  501 -0.30903902968E+03  0.68521686431E+03 -0.36914075897E+03  0.83743189152E+03  0.00000000000E+00 0. -1.
<mgrwt>
<rscale>  0 0.10914641E+04</rscale>
<asrwt>0</asrwt>
<pdfrwt beam="1">  1        4 0.33377595E+00 0.10799914E+04</pdfrwt>
<pdfrwt beam="2">  1       -4 0.14302487E+00 0.11030587E+04</pdfrwt>
<totfact> 0.13144790E-01</totfact>
</mgrwt>
</event>
<event>
 8    1  0.2939692E-006  0.1962053E+04  0.7818608E-02  0.8203642E-01
          4   -1    0    0  502    0  0.00000000000E+00  0.00000000000E+00  0.28162313175E+04  0.28162313175E+04  0.00000000000E+00 0.  1.
         -4   -1    0    0    0  501 -0.00000000000E+00 -0.00000000000E+00 -0.15347445196E+04  0.15347445196E+04  0.00000000000E+00 0. -1.
   -9000010    2    1    2    0  501  0.14293280934E+04  0.59777497495E+03 -0.21607153020E+03  0.18827107934E+04  0.10476637373E+04 0.  0.
    9000010    2    1    2  502    0 -0.14293280934E+04 -0.59777497495E+03  0.14975583281E+04  0.24682650437E+04  0.12038844050E+04 0.  0.
        -13    1    4    4    0    0 -0.67408601941E+03  0.32396206459E+03  0.76302284629E+03  0.10684321485E+04  0.10566000000E+00 0.  1.
          4    1    4    4  502    0 -0.75524207397E+03 -0.92173703954E+03  0.73453548180E+03  0.13998328952E+04  0.00000000000E+00 0.  1.
         13    1    3    3    0    0 -0.46824848526E+02  0.37057563478E+03  0.72527816409E+00  0.37352296412E+03  0.10566000000E+00 0. -1.
         -4    1    3    3    0  501  0.14761529419E+04  0.22719934016E+03 -0.21679680836E+03  0.15091878293E+04  0.00000000000E+00 0. -1.
<mgrwt>
<rscale>  0 0.19156122E+04</rscale>
<asrwt>0</asrwt>
<pdfrwt beam="1">  1        4 0.43326636E+00 0.19620528E+04</pdfrwt>
<pdfrwt beam="2">  1       -4 0.23611454E+00 0.18702708E+04</pdfrwt>
<totfact> 0.25803748E-02</totfact>
</mgrwt>
</event>
<event>
 8    1  0.2939692E-006  0.1023166E+04  0.7818608E-02  0.8761444E-01
          4   -1    0    0  502    0  0.00000000000E+00  0.00000000000E+00  0.25841006284E+04  0.25841006284E+04  0.00000000000E+00 0.  1.
         -4   -1    0    0    0  501 -0.00000000000E+00 -0.00000000000E+00 -0.14249681452E+04  0.14249681452E+04  0.00000000000E+00 0. -1.
   -9000010    2    1    2    0  501  0.64445455183E+02  0.19133318865E+03 -0.11235684387E+04  0.15075508661E+04  0.98465322397E+03 0.  0.
    9000010    2    1    2  502    0 -0.64445455183E+02 -0.19133318865E+03  0.22827009219E+04  0.25015179076E+04  0.10030487213E+04 0.  0.
        -13    1    4    4    0    0  0.41123573918E+03 -0.20146691406E+03  0.61182636426E+03  0.76422199773E+03  0.10566000000E+00 0.  1.
          4    1    4    4  502    0 -0.47568119436E+03  0.10133725412E+02  0.16708745576E+04  0.17372959098E+04  0.00000000000E+00 0.  1.
         13    1    3    3    0    0 -0.25471603511E+03  0.60892543453E+02 -0.11327595966E+04  0.11626403035E+04  0.10566000000E+00 0. -1.
         -4    1    3    3    0  501  0.31916149030E+03  0.13044064520E+03  0.91911578638E+01  0.34491056260E+03  0.00000000000E+00 0. -1.
<mgrwt>
<rscale>  0 0.10141122E+04</rscale>
<asrwt>0</asrwt>
<pdfrwt beam="1">  1        4 0.39755394E+00 0.10231658E+04</pdfrwt>
<pdfrwt beam="2">  1       -4 0.21922587E+00 0.10051386E+04</pdfrwt>
<totfact> 0.43871938E-02</totfact>
</mgrwt>
</event>
<event>
 8    1  0.2939692E-006  0.1360838E+04  0.7818608E-02  0.8495489E-01
          4   -1    0    0  502    0  0.00000000000E+00  0.00000000000E+00  0.23921434217E+04  0.23921434217E+04  0.00000000000E+00 0.  1.
         -4   -1    0    0    0  501 -0.00000000000E+00 -0.00000000000E+00 -0.16901595014E+04  0.16901595014E+04  0.00000000000E+00 0. -1.
   -9000010    2    1    2    0  501  0.46334559266E+03 -0.81107386587E+03 -0.11530551495E+04  0.17836526228E+04  0.98962141597E+03 0.  0.
    9000010    2    1    2  502    0 -0.46334559266E+03  0.81107386587E+03  0.18550390698E+04  0.22986503003E+04  0.98493314414E+03 0.  0.
        -13    1    4    4    0    0  0.17867654782E+03  0.45930534873E+02 -0.81043429159E+01  0.18466351647E+03  0.10566000000E+00 0.  1.
          4    1    4    4  502    0 -0.64202214048E+03  0.76514333100E+03  0.18631434128E+04  0.21139867839E+04  0.00000000000E+00 0.  1.
         13    1    3    3    0    0  0.32209858918E+03  0.14705371574E+03 -0.13614944286E+03  0.37935336879E+03  0.10566000000E+00 0. -1.
         -4    1    3    3    0  501  0.14124700348E+03 -0.95812758161E+03 -0.10169057067E+04  0.14042992540E+04  0.00000000000E+00 0. -1.
<mgrwt>
<rscale>  0 0.13591343E+04</rscale>
<asrwt>0</asrwt>
<pdfrwt beam="1">  1        4 0.36802207E+00 0.13574326E+04</pdfrwt>
<pdfrwt beam="2">  1       -4 0.26002454E+00 0.13608382E+04</pdfrwt>
<totfact> 0.43459395E-02</totfact>
</mgrwt>
</event>
<event>
 8    1  0.2939692E-006  0.1115993E+04  0.7818608E-02  0.8678186E-01
          4   -1    0    0  502    0  0.00000000000E+00  0.00000000000E+00  0.17620231219E+04  0.17620231219E+04  0.00000000000E+00 0.  1.
         -4   -1    0    0    0  501 -0.00000000000E+00 -0.00000000000E+00 -0.11272731850E+04  0.11272731850E+04  0.00000000000E+00 0. -1.
   -9000010    2    1    2    0  501  0.22264538176E+03  0.46765841661E+03 -0.57487835739E+03  0.12435014210E+04  0.97341424771E+03 0.  0.
    9000010    2    1    2  502    0 -0.22264538176E+03 -0.46765841661E+03  0.12096282943E+04  0.16457948859E+04  0.98851648201E+03 0.  0.
        -13    1    4    4    0    0 -0.40620675084E+03 -0.50076563416E+03  0.12904006485E+04  0.14425338781E+04  0.10566000000E+00 0.  1.
          4    1    4    4  502    0  0.18356136908E+03  0.33107217547E+02 -0.80772354141E+02  0.20326100773E+03  0.00000000000E+00 0.  1.
         13    1    3    3    0    0  0.21020982755E+03  0.73157233323E+03 -0.61200791270E+03  0.97669849325E+03  0.10566000000E+00 0. -1.
         -4    1    3    3    0  501  0.12435554207E+02 -0.26391391662E+03  0.37129555307E+02  0.26680292778E+03  0.00000000000E+00 0. -1.
<mgrwt>
<rscale>  0 0.11092954E+04</rscale>
<asrwt>0</asrwt>
<pdfrwt beam="1">  1        4 0.27108048E+00 0.11159929E+04</pdfrwt>
<pdfrwt beam="2">  1       -4 0.17342664E+00 0.11026380E+04</pdfrwt>
<totfact> 0.14720964E-01</totfact>
</mgrwt>
</event>
<event>
 8    1  0.2939692E-006  0.1111644E+04  0.7818608E-02  0.8698520E-01
          4   -1    0    0  502    0  0.00000000000E+00  0.00000000000E+00  0.37918824865E+04  0.37918824865E+04  0.00000000000E+00 0.  1.
         -4   -1    0    0    0  501 -0.00000000000E+00 -0.00000000000E+00 -0.77191055056E+03  0.77191055056E+03  0.00000000000E+00 0. -1.
   -9000010    2    1    2    0  501 -0.37415344868E+03 -0.27037907799E+02 -0.26838160021E+03  0.10926230050E+04  0.99049204752E+03 0.  0.
    9000010    2    1    2  502    0  0.37415344868E+03  0.27037907799E+02  0.32883535361E+04  0.34711700320E+04  0.10464370793E+04 0.  0.
        -13    1    4    4    0    0 -0.23024131208E+03 -0.13581213204E+03  0.24009632889E+03  0.35930802288E+03  0.10566000000E+00 0.  1.
          4    1    4    4  502    0  0.60439476076E+03  0.16285003983E+03  0.30482572072E+04  0.31118620091E+04  0.00000000000E+00 0.  1.
         13    1    3    3    0    0  0.41460266486E+02  0.37558427953E+03 -0.34156366024E+03  0.50936062852E+03  0.10566000000E+00 0. -1.
         -4    1    3    3    0  501 -0.41561371516E+03 -0.40262218733E+03  0.73182060024E+02  0.58326237652E+03  0.00000000000E+00 0. -1.
<mgrwt>
<rscale>  0 0.10850790E+04</rscale>
<asrwt>0</asrwt>
<pdfrwt beam="1">  1        4 0.58336652E+00 0.11116440E+04</pdfrwt>
<pdfrwt beam="2">  1       -4 0.11875547E+00 0.10591489E+04</pdfrwt>
<totfact> 0.13811403E-02</totfact>
</mgrwt>
</event>
<event>
 8    1  0.2939692E-006  0.1402475E+04  0.7818608E-02  0.8469978E-01
          4   -1    0    0  502    0  0.00000000000E+00  0.00000000000E+00  0.23263493152E+04  0.23263493152E+04  0.00000000000E+00 0.  1.
         -4   -1    0    0    0  501 -0.00000000000E+00 -0.00000000000E+00 -0.11568938199E+04  0.11568938199E+04  0.00000000000E+00 0. -1.
   -9000010    2    1    2    0  501 -0.93140595006E+03 -0.27862001530E+03 -0.32552245938E+03  0.14333906030E+04  0.10017472697E+04 0.  0.
    9000010    2    1    2  502    0  0.93140595006E+03  0.27862001530E+03  0.14949779547E+04  0.20498525322E+04  0.10108363676E+04 0.  0.
        -13    1    4    4    0    0  0.91606429103E+02  0.49477159660E+03  0.76856891507E+03  0.91863423572E+03  0.10566000000E+00 0.  1.
          4    1    4    4  502    0  0.83979952096E+03 -0.21615158130E+03  0.72640903961E+03  0.11312182965E+04  0.00000000000E+00 0.  1.
         13    1    3    3    0    0 -0.58548046318E+03 -0.51751284536E+03 -0.55119144944E+03  0.95625255188E+03  0.10566000000E+00 0. -1.
         -4    1    3    3    0  501 -0.34592548688E+03  0.23889283006E+03  0.22566899006E+03  0.47713805109E+03  0.00000000000E+00 0. -1.
<mgrwt>
<rscale>  0 0.13992029E+04</rscale>
<asrwt>0</asrwt>
<pdfrwt beam="1">  1        4 0.35789989E+00 0.14024751E+04</pdfrwt>
<pdfrwt beam="2">  1       -4 0.17798367E+00 0.13959383E+04</pdfrwt>
<totfact> 0.78386834E-02</totfact>
</mgrwt>
</event>
<event>
 8    1  0.2939692E-006  0.1134752E+04  0.7818608E-02  0.8668357E-01
          4   -1    0    0  502    0  0.00000000000E+00  0.00000000000E+00  0.19587275420E+04  0.19587275420E+04  0.00000000000E+00 0.  1.
         -4   -1    0    0    0  501 -0.00000000000E+00 -0.00000000000E+00 -0.24653713245E+04  0.24653713245E+04  0.00000000000E+00 0. -1.
   -9000010    2    1    2    0  501 -0.30905135252E+02 -0.45462113364E+03 -0.21564702381E+04  0.24368063434E+04  0.10392428806E+04 0.  0.
    9000010    2    1    2  502    0  0.30905135252E+02  0.45462113364E+03  0.16498264557E+04  0.19872925231E+04  0.10098359944E+04 0.  0.
        -13    1    4    4    0    0 -0.87577644950E+00  0.20821492348E+03 -0.92143667134E+02  0.22769428605E+03  0.10566000000E+00 0.  1.
          4    1    4    4  502    0  0.31780911702E+02  0.24640621016E+03  0.17419701229E+04  0.17595982370E+04  0.00000000000E+00 0.  1.
         13    1    3    3    0    0  0.25218936818E+03 -0.46908440409E+03 -0.42248394423E+03  0.67980316995E+03  0.10566000000E+00 0. -1.
         -4    1    3    3    0  501 -0.28309450344E+03  0.14463270449E+02 -0.17339862939E+04  0.17570031735E+04  0.00000000000E+00 0. -1.
<mgrwt>
<rscale>  0 0.11212367E+04</rscale>
<asrwt>0</asrwt>
<pdfrwt beam="1">  1        4 0.30134270E+00 0.11078828E+04</pdfrwt>
<pdfrwt beam="2">  1       -4 0.37928790E+00 0.11347516E+04</pdfrwt>
<totfact> 0.31865452E-02</totfact>
</mgrwt>
</event>
<event>
 8    1  0.2939692E-006  0.1064627E+04  0.7818608E-02  0.8723486E-01
          4   -1    0    0  502    0  0.00000000000E+00  0.00000000000E+00  0.20353617990E+04  0.20353617990E+04  0.00000000000E+00 0.  1.
         -4   -1    0    0    0  501 -0.00000000000E+00 -0.00000000000E+00 -0.21537921264E+04  0.21537921264E+04  0.00000000000E+00 0. -1.
   -9000010    2    1    2    0  501 -0.35145109258E+01 -0.34400183918E+03 -0.18678233111E+04  0.21499288600E+04  0.10075120667E+04 0.  0.
    9000010    2    1    2  502    0  0.35145109258E+01  0.34400183918E+03  0.17493929837E+04  0.20392250654E+04  0.98980474767E+03 0.  0.
        -13    1    4    4    0    0 -0.13866987370E+03  0.62715987198E+03  0.15136607314E+04  0.16443015721E+04  0.10566000000E+00 0.  1.
          4    1    4    4  502    0  0.14218438463E+03 -0.28315803280E+03  0.23573225231E+03  0.39492349329E+03  0.00000000000E+00 0.  1.
         13    1    3    3    0    0  0.32269679476E+03  0.63664589686E+02 -0.16328247382E+03  0.36721598379E+03  0.10566000000E+00 0. -1.
         -4    1    3    3    0  501 -0.32621130569E+03 -0.40766642887E+03 -0.17045408373E+04  0.17827128762E+04  0.00000000000E+00 0. -1.
<mgrwt>
<rscale>  0 0.10562227E+04</rscale>
<asrwt>0</asrwt>
<pdfrwt beam="1">  1        4 0.31313259E+00 0.10478850E+04</pdfrwt>
<pdfrwt beam="2">  1       -4 0.33135263E+00 0.10646268E+04</pdfrwt>
<totfact> 0.43472261E-02</totfact>
</mgrwt>
</event>
<event>
 8    1  0.2939692E-006  0.2483257E+04  0.7818608E-02  0.7996390E-01
          4   -1    0    0  502    0  0.00000000000E+00  0.00000000000E+00  0.21201391838E+04  0.21201391838E+04  0.00000000000E+00 0.  1.
         -4   -1    0    0    0  501 -0.00000000000E+00 -0.00000000000E+00 -0.43560661586E+04  0.43560661586E+04  0.00000000000E+00 0. -1.
   -9000010    2    1    2    0  501 -0.12759259593E+04  0.18806651836E+04 -0.29864654941E+04  0.38820050668E+04  0.99302497691E+03 0.  0.
    9000010    2    1    2  502    0  0.12759259593E+04 -0.18806651836E+04  0.75053851928E+03  0.25942002756E+04  0.10008388554E+04 0.  0.
        -13    1    4    4    0    0  0.24421693601E+03 -0.53784896577E+03 -0.23404957506E+03  0.63537598047E+03  0.10566000000E+00 0.  1.
          4    1    4    4  502    0  0.10317090233E+04 -0.13428162178E+04  0.98458809434E+03  0.19588242951E+04  0.00000000000E+00 0.  1.
         13    1    3    3    0    0 -0.80038756319E+03  0.67073102890E+03 -0.19778127925E+04  0.22365696541E+04  0.10566000000E+00 0. -1.
         -4    1    3    3    0  501 -0.47553839615E+03  0.12099341547E+04 -0.10086527017E+04  0.16454354127E+04  0.00000000000E+00 0. -1.
<mgrwt>
<rscale>  0 0.24816874E+04</rscale>
<asrwt>0</asrwt>
<pdfrwt beam="1">  1        4 0.32617526E+00 0.24832573E+04</pdfrwt>
<pdfrwt beam="2">  1       -4 0.67016402E+00 0.24801184E+04</pdfrwt>
<totfact> 0.87480080E-04</totfact>
</mgrwt>
</event>
<event>
 8    1  0.2939692E-006  0.1058962E+04  0.7818608E-02  0.8729102E-01
          4   -1    0    0  502    0  0.00000000000E+00  0.00000000000E+00  0.17172954917E+04  0.17172954917E+04  0.00000000000E+00 0.  1.
         -4   -1    0    0    0  501 -0.00000000000E+00 -0.00000000000E+00 -0.98011114088E+03  0.98011114088E+03  0.00000000000E+00 0. -1.
   -9000010    2    1    2    0  501 -0.25522828000E+03  0.11247734749E+03 -0.42576828156E+03  0.11245556740E+04  0.10027732574E+04 0.  0.
    9000010    2    1    2  502    0  0.25522828000E+03 -0.11247734749E+03  0.11629526324E+04  0.15728509586E+04  0.10215716735E+04 0.  0.
        -13    1    4    4    0    0 -0.21369173092E+03 -0.42243344239E+03  0.36983597851E+03  0.60074356532E+03  0.10566000000E+00 0.  1.
          4    1    4    4  502    0  0.46892001092E+03  0.30995609490E+03  0.79311665388E+03  0.97210739328E+03  0.00000000000E+00 0.  1.
         13    1    3    3    0    0  0.34963082818E+03  0.23637846554E+03 -0.20142795519E+03  0.46764273466E+03  0.10566000000E+00 0. -1.
         -4    1    3    3    0  501 -0.60485910818E+03 -0.12390111806E+03 -0.22434032637E+03  0.65691293932E+03  0.00000000000E+00 0. -1.
<mgrwt>
<rscale>  0 0.10498618E+04</rscale>
<asrwt>0</asrwt>
<pdfrwt beam="1">  1        4 0.26419931E+00 0.10589624E+04</pdfrwt>
<pdfrwt beam="2">  1       -4 0.15078633E+00 0.10408395E+04</pdfrwt>
<totfact> 0.18648956E-01</totfact>
</mgrwt>
</event>
<event>
 8    1  0.2939692E-006  0.1028000E+04  0.7818608E-02  0.8787599E-01
         -4   -1    0    0    0  501 -0.00000000000E+00  0.00000000000E+00  0.22317918725E+04  0.22317918725E+04  0.00000000000E+00 0. -1.
          4   -1    0    0  502    0  0.00000000000E+00 -0.00000000000E+00 -0.53319709532E+03  0.53319709532E+03  0.00000000000E+00 0.  1.
   -9000010    2    1    2    0  501 -0.11581429557E+03  0.16033709215E+03  0.14661230992E+04  0.17906147458E+04  0.10087929874E+04 0.  0.
    9000010    2    1    2  502    0  0.11581429557E+03 -0.16033709215E+03  0.23247167789E+03  0.97437422201E+03  0.92533297214E+03 0.  0.
        -13    1    4    4    0    0 -0.34099114733E+03  0.53686685926E+01  0.33466588479E+03  0.47781277795E+03  0.10566000000E+00 0.  1.
          4    1    4    4  502    0  0.45680544290E+03 -0.16570576074E+03 -0.10219420690E+03  0.49656144406E+03  0.00000000000E+00 0.  1.
         13    1    3    3    0    0  0.12968275980E+03 -0.28809143570E+03  0.11429290534E+04  0.11857913500E+04  0.10566000000E+00 0. -1.
         -4    1    3    3    0  501 -0.24549705536E+03  0.44842852785E+03  0.32319404587E+03  0.60482339576E+03  0.00000000000E+00 0. -1.
<mgrwt>
<rscale>  0 0.98627097E+03</rscale>
<asrwt>0</asrwt>
<pdfrwt beam="2">  1        4 0.82030323E-01 0.94623572E+03</pdfrwt>
<pdfrwt beam="1">  1       -4 0.34335259E+00 0.10280001E+04</pdfrwt>
<totfact> 0.33631142E-01</totfact>
</mgrwt>
</event>
<event>
 8    1  0.2939692E-006  0.1268736E+04  0.7818608E-02  0.8561109E-01
          4   -1    0    0  502    0  0.00000000000E+00  0.00000000000E+00  0.29645119430E+04  0.29645119430E+04  0.00000000000E+00 0.  1.
         -4   -1    0    0    0  501 -0.00000000000E+00 -0.00000000000E+00 -0.71188274330E+03  0.71188274330E+03  0.00000000000E+00 0. -1.
   -9000010    2    1    2    0  501 -0.72868185069E+03 -0.24689878050E+03  0.22079050920E+03  0.12878042095E+04  0.10088384339E+04 0.  0.
    9000010    2    1    2  502    0  0.72868185069E+03  0.24689878050E+03  0.20318386905E+04  0.23885904768E+04  0.99250176545E+03 0.  0.
        -13    1    4    4    0    0  0.89142171922E+03  0.12955746772E+03  0.19889522064E+04  0.21834259111E+04  0.10566000000E+00 0.  1.
          4    1    4    4  502    0 -0.16273986853E+03  0.11734131278E+03  0.42886484103E+02  0.20516456569E+03  0.00000000000E+00 0.  1.
         13    1    3    3    0    0 -0.94464738800E+03 -0.25089335788E+03 -0.21303687276E+01  0.97739997663E+03  0.10566000000E+00 0. -1.
         -4    1    3    3    0  501  0.21596553731E+03  0.39945773776E+01  0.22292087793E+03  0.31040423284E+03  0.00000000000E+00 0. -1.
<mgrwt>
<rscale>  0 0.12622439E+04</rscale>
<asrwt>0</asrwt>
<pdfrwt beam="1">  1        4 0.45607875E+00 0.12557850E+04</pdfrwt>
<pdfrwt beam="2">  1       -4 0.10952042E+00 0.12687361E+04</pdfrwt>
<totfact> 0.66577112E-02</totfact>
</mgrwt>
</event>
<event>
 8    1  0.2939692E-006  0.1122148E+04  0.7818608E-02  0.8672810E-01
         -4   -1    0    0    0  501 -0.00000000000E+00  0.00000000000E+00  0.43566559899E+04  0.43566559899E+04  0.00000000000E+00 0. -1.
          4   -1    0    0  502    0  0.00000000000E+00 -0.00000000000E+00 -0.61752147078E+03  0.61752147078E+03  0.00000000000E+00 0.  1.
   -9000010    2    1    2    0  501  0.74875308989E+02  0.48824395798E+03  0.36973531817E+04  0.38638889315E+04  0.10075855550E+04 0.  0.
    9000010    2    1    2  502    0 -0.74875308989E+02 -0.48824395798E+03  0.41781337444E+02  0.11102885291E+04  0.99348198947E+03 0.  0.
        -13    1    4    4    0    0 -0.31823482841E+02 -0.52922322412E+03  0.45144089302E+03  0.69633960541E+03  0.10566000000E+00 0.  1.
          4    1    4    4  502    0 -0.43051826148E+02  0.40979266138E+02 -0.40965955558E+03  0.41394892374E+03  0.00000000000E+00 0.  1.
         13    1    3    3    0    0  0.33404431953E+03  0.66334887985E+03  0.19089905216E+04  0.20483803765E+04  0.10566000000E+00 0. -1.
         -4    1    3    3    0  501 -0.25916901054E+03 -0.17510492188E+03  0.17883626600E+04  0.18155085551E+04  0.00000000000E+00 0. -1.
<mgrwt>
<rscale>  0 0.11158074E+04</rscale>
<asrwt>0</asrwt>
<pdfrwt beam="2">  1        4 0.95003306E-01 0.11095021E+04</pdfrwt>
<pdfrwt beam="1">  1       -4 0.67025475E+00 0.11221484E+04</pdfrwt>
<totfact> 0.70722235E-03</totfact>
</mgrwt>
</event>
<event>
 8    1  0.2939692E-006  0.1475280E+04  0.7818608E-02  0.8456965E-01
         -4   -1    0    0    0  501 -0.00000000000E+00  0.00000000000E+00  0.17469406579E+04  0.17469406579E+04  0.00000000000E+00 0.  1.
          4   -1    0    0  502    0  0.00000000000E+00 -0.00000000000E+00 -0.11568078462E+04  0.11568078462E+04  0.00000000000E+00 0. -1.
   -9000010    2    1    2    0  501  0.10150674084E+04  0.42477432717E+03  0.25130379392E+03  0.13900591639E+04  0.81136663080E+03 0.  0.
    9000010    2    1    2  502    0 -0.10150674084E+04 -0.42477432717E+03  0.33882901780E+03  0.15136893403E+04  0.98267758855E+03 0.  0.
        -13    1    4    4    0    0 -0.10683658358E+04 -0.57550446126E+03  0.47551171811E+03  0.13033504322E+04  0.10566000000E+00 0.  1.
          4    1    4    4  502    0  0.53298427387E+02  0.15073013408E+03 -0.13668270031E+03  0.21033890807E+03  0.00000000000E+00 0.  1.
         13    1    3    3    0    0  0.10063032869E+04  0.17957364420E+03 -0.22445894690E+02  0.10224464917E+04  0.10566000000E+00 0. -1.
         -4    1    3    3    0  501  0.87641214903E+01  0.24520068297E+03  0.27374968861E+03  0.36761267221E+03  0.00000000000E+00 0. -1.
<mgrwt>
<rscale>  0 0.14201884E+04</rscale>
<asrwt>0</asrwt>
<pdfrwt beam="2">  1        4 0.17797044E+00 0.14752797E+04</pdfrwt>
<pdfrwt beam="1">  1       -4 0.26876010E+00 0.13671543E+04</pdfrwt>
<totfact> 0.14174273E-01</totfact>
</mgrwt>
</event>
<event>
 8    1  0.2939692E-006  0.1173686E+04  0.7818608E-02  0.8628874E-01
          4   -1    0    0  502    0  0.00000000000E+00  0.00000000000E+00  0.18533617356E+04  0.18533617356E+04  0.00000000000E+00 0.  1.
         -4   -1    0    0    0  501 -0.00000000000E+00 -0.00000000000E+00 -0.13648250055E+04  0.13648250055E+04  0.00000000000E+00 0. -1.
   -9000010    2    1    2    0  501 -0.62793915733E+03  0.85291925022E+02 -0.84446136577E+03  0.14459094421E+04  0.98790526801E+03 0.  0.
    9000010    2    1    2  502    0  0.62793915733E+03 -0.85291925022E+02  0.13329980959E+04  0.17722772990E+04  0.98107115104E+03 0.  0.
        -13    1    4    4    0    0  0.58119030202E+03 -0.66151457635E+02  0.14935263216E+04  0.16039884871E+04  0.10566000000E+00 0.  1.
          4    1    4    4  502    0  0.46748855306E+02 -0.19140467387E+02 -0.16052822571E+03  0.16828881191E+03  0.00000000000E+00 0.  1.
         13    1    3    3    0    0 -0.69480906680E+02 -0.34681502939E+03 -0.60405937800E+03  0.69999714594E+03  0.10566000000E+00 0. -1.
         -4    1    3    3    0  501 -0.55845825065E+03  0.43210695442E+03 -0.24040198777E+03  0.74591229611E+03  0.00000000000E+00 0. -1.
<mgrwt>
<rscale>  0 0.11708093E+04</rscale>
<asrwt>0</asrwt>
<pdfrwt beam="1">  1        4 0.28513258E+00 0.11679396E+04</pdfrwt>
<pdfrwt beam="2">  1       -4 0.20997308E+00 0.11736861E+04</pdfrwt>
<totfact> 0.10465261E-01</totfact>
</mgrwt>
</event>
<event>
 8    1  0.2939692E-006  0.1294066E+04  0.7818608E-02  0.8546208E-01
          4   -1    0    0  502    0  0.00000000000E+00  0.00000000000E+00  0.28018093960E+04  0.28018093960E+04  0.00000000000E+00 0.  1.
         -4   -1    0    0    0  501 -0.00000000000E+00 -0.00000000000E+00 -0.72158480022E+03  0.72158480022E+03  0.00000000000E+00 0. -1.
   -9000010    2    1    2    0  501 -0.71380772839E+03  0.34996934645E+03  0.28909630017E+03  0.13259655600E+04  0.10210817690E+04 0.  0.
    9000010    2    1    2  502    0  0.71380772839E+03 -0.34996934645E+03  0.17911282956E+04  0.21974286362E+04  0.99425953529E+03 0.  0.
        -13    1    4    4    0    0  0.42629958957E+03  0.31521084391E+03  0.57787646476E+03  0.78423876203E+03  0.10566000000E+00 0.  1.
          4    1    4    4  502    0  0.28750813881E+03 -0.66518019036E+03  0.12132518308E+04  0.14131898742E+04  0.00000000000E+00 0.  1.
         13    1    3    3    0    0 -0.12567852523E+03 -0.34367367727E+03 -0.17247835040E+02  0.36633889655E+03  0.10566000000E+00 0. -1.
         -4    1    3    3    0  501 -0.58812920316E+03  0.69364302372E+03  0.30634413521E+03  0.95962666342E+03  0.00000000000E+00 0. -1.
<mgrwt>
<rscale>  0 0.12834946E+04</rscale>
<asrwt>0</asrwt>
<pdfrwt beam="1">  1        4 0.43104759E+00 0.12730090E+04</pdfrwt>
<pdfrwt beam="2">  1       -4 0.11101305E+00 0.12940665E+04</pdfrwt>
<totfact> 0.84639671E-02</totfact>
</mgrwt>
</event>
<event>
 8    1  0.2939692E-006  0.1169330E+04  0.7818608E-02  0.8631914E-01
         -4   -1    0    0    0  501 -0.00000000000E+00  0.00000000000E+00  0.12755190927E+04  0.12755190927E+04  0.00000000000E+00 0. -1.
          4   -1    0    0  502    0  0.00000000000E+00 -0.00000000000E+00 -0.35519469704E+04  0.35519469704E+04  0.00000000000E+00 0.  1.
   -9000010    2    1    2    0  501 -0.55572275692E+03 -0.19171525092E+03  0.87975514292E+03  0.14633190039E+04  0.10108169347E+04 0.  0.
    9000010    2    1    2  502    0  0.55572275692E+03  0.19171525092E+03 -0.31561830206E+04  0.33641470593E+04  0.10051923483E+04 0.  0.
        -13    1    4    4    0    0 -0.20447609000E+02  0.31909919717E+03 -0.23129804034E+04  0.23349776787E+04  0.10566000000E+00 0.  1.
          4    1    4    4  502    0  0.57617036592E+03 -0.12738394625E+03 -0.84320261715E+03  0.10291693806E+04  0.00000000000E+00 0.  1.
         13    1    3    3    0    0 -0.53366083173E+03 -0.35800756340E+03  0.10456884899E+04  0.12273661751E+04  0.10566000000E+00 0. -1.
         -4    1    3    3    0  501 -0.22061925194E+02  0.16629231248E+03 -0.16593334700E+03  0.23595282872E+03  0.00000000000E+00 0. -1.
<mgrwt>
<rscale>  0 0.11668984E+04</rscale>
<asrwt>0</asrwt>
<pdfrwt beam="2">  1        4 0.54645338E+00 0.11644716E+04</pdfrwt>
<pdfrwt beam="1">  1       -4 0.19623371E+00 0.11693303E+04</pdfrwt>
<totfact> 0.10405826E-02</totfact>
</mgrwt>
</event>
<event>
 8    1  0.2939692E-006  0.1391433E+04  0.7818608E-02  0.8475984E-01
         -4   -1    0    0    0  501 -0.00000000000E+00  0.00000000000E+00  0.18185367080E+04  0.18185367080E+04  0.00000000000E+00 0. -1.
          4   -1    0    0  502    0  0.00000000000E+00 -0.00000000000E+00 -0.12033582728E+04  0.12033582728E+04  0.00000000000E+00 0.  1.
   -9000010    2    1    2    0  501 -0.95254040288E+03  0.12884191414E+03 -0.21009669170E+03  0.14072048612E+04  0.10060573759E+04 0.  0.
    9000010    2    1    2  502    0  0.95254040288E+03 -0.12884191414E+03  0.82527512691E+03  0.16146901196E+04  0.10011052338E+04 0.  0.
        -13    1    4    4    0    0  0.74571559023E+03 -0.39052131326E+03  0.94013295309E+03  0.12619225881E+04  0.10566000000E+00 0.  1.
          4    1    4    4  502    0  0.20682481265E+03  0.26167939912E+03 -0.11485782617E+03  0.35276753151E+03  0.00000000000E+00 0.  1.
         13    1    3    3    0    0 -0.11620720323E+04  0.12373162109E+03 -0.10671974910E+03  0.11735033185E+04  0.10566000000E+00 0. -1.
         -4    1    3    3    0  501  0.20953162946E+03  0.51102930527E+01 -0.10337694259E+03  0.23370154278E+03  0.00000000000E+00 0. -1.
<mgrwt>
<rscale>  0 0.13896433E+04</rscale>
<asrwt>0</asrwt>
<pdfrwt beam="2">  1        4 0.18513204E+00 0.13878563E+04</pdfrwt>
<pdfrwt beam="1">  1       -4 0.27977488E+00 0.13914327E+04</pdfrwt>
<totfact> 0.12583482E-01</totfact>
</mgrwt>
</event>
<event>
 8    1  0.2939692E-006  0.1095561E+04  0.7818608E-02  0.8701682E-01
         -4   -1    0    0    0  501 -0.00000000000E+00  0.00000000000E+00  0.15864942158E+04  0.15864942158E+04  0.00000000000E+00 0. -1.
          4   -1    0    0  502    0  0.00000000000E+00 -0.00000000000E+00 -0.29789099865E+04  0.29789099865E+04  0.00000000000E+00 0.  1.
   -9000010    2    1    2    0  501  0.21122859282E+03 -0.34263141848E+03  0.12817101421E+04  0.16861298982E+04  0.10189403014E+04 0.  0.
    9000010    2    1    2  502    0 -0.21122859282E+03  0.34263141848E+03 -0.26741259128E+04  0.28792743040E+04  0.98856325693E+03 0.  0.
        -13    1    4    4    0    0  0.18570008957E+03 -0.21959361957E+03 -0.14189587490E+04  0.14478086281E+04  0.10566000000E+00 0.  1.
          4    1    4    4  502    0 -0.39692868239E+03  0.56222503805E+03 -0.12551671638E+04  0.14314656759E+04  0.00000000000E+00 0.  1.
         13    1    3    3    0    0  0.52852812626E+03 -0.30321064562E+03  0.35361399067E+03  0.70450091655E+03  0.10566000000E+00 0. -1.
         -4    1    3    3    0  501 -0.31729953344E+03 -0.39420772867E+02  0.92809615147E+03  0.98162898165E+03  0.00000000000E+00 0. -1.
<mgrwt>
<rscale>  0 0.10813717E+04</rscale>
<asrwt>0</asrwt>
<pdfrwt beam="2">  1        4 0.45829384E+00 0.10673664E+04</pdfrwt>
<pdfrwt beam="1">  1       -4 0.24407603E+00 0.10955607E+04</pdfrwt>
<totfact> 0.20633001E-02</totfact>
</mgrwt>
</event>
<event>
 8    1  0.2939692E-006  0.1638414E+04  0.7818608E-02  0.8339201E-01
         -4   -1    0    0    0  501 -0.00000000000E+00  0.00000000000E+00  0.27804232522E+04  0.27804232522E+04  0.00000000000E+00 0.  1.
          4   -1    0    0  502    0  0.00000000000E+00 -0.00000000000E+00 -0.13042821091E+04  0.13042821091E+04  0.00000000000E+00 0. -1.
   -9000010    2    1    2    0  501 -0.12926952425E+04  0.84180080663E+01  0.18001403141E+04  0.24341129455E+04  0.10066125510E+04 0.  0.
    9000010    2    1    2  502    0  0.12926952425E+04 -0.84180080663E+01 -0.32399917108E+03  0.16505924159E+04  0.97383161159E+03 0.  0.
        -13    1    4    4    0    0 -0.49069164494E+02  0.80102326571E+02  0.18925680540E+03  0.21128728116E+03  0.10566000000E+00 0.  1.
          4    1    4    4  502    0  0.13417644070E+04 -0.88520334637E+02 -0.51325597647E+03  0.14393051347E+04  0.00000000000E+00 0.  1.
         13    1    3    3    0    0 -0.14257196916E+04 -0.12342223863E+03  0.14513353974E+04  0.20382061071E+04  0.10566000000E+00 0. -1.
         -4    1    3    3    0  501  0.13302444917E+03  0.13184024670E+03  0.34880491673E+03  0.39590683836E+03  0.00000000000E+00 0. -1.
<mgrwt>
<rscale>  0 0.16284169E+04</rscale>
<asrwt>0</asrwt>
<pdfrwt beam="2">  1        4 0.20065879E+00 0.16184807E+04</pdfrwt>
<pdfrwt beam="1">  1       -4 0.42775742E+00 0.16384141E+04</pdfrwt>
<totfact> 0.34692028E-02</totfact>
</mgrwt>
</event>
<event>
 8    1  0.2939692E-006  0.1163992E+04  0.7818608E-02  0.8636104E-01
          4   -1    0    0  502    0  0.00000000000E+00  0.00000000000E+00  0.35679322275E+03  0.35679322275E+03  0.00000000000E+00 0.  1.
         -4   -1    0    0    0  501 -0.00000000000E+00 -0.00000000000E+00 -0.42204836543E+04  0.42204836543E+04  0.00000000000E+00 0. -1.
   -9000010    2    1    2    0  501  0.45128330400E+03 -0.35136911787E+03 -0.26737115389E+04  0.29160952807E+04  0.10137856851E+04 0.  0.
    9000010    2    1    2  502    0 -0.45128330400E+03  0.35136911787E+03 -0.11899788926E+04  0.16611815964E+04  0.10081456511E+04 0.  0.
        -13    1    4    4    0    0  0.23329823186E+03  0.12699187646E+03  0.51979977879E+01  0.26567279127E+03  0.10566000000E+00 0.  1.
          4    1    4    4  502    0 -0.68458153586E+03  0.22437724141E+03 -0.11951768904E+04  0.13955088051E+04  0.00000000000E+00 0.  1.
         13    1    3    3    0    0 -0.20866152884E+03 -0.29423216749E+03 -0.17038070321E+04  0.17415713065E+04  0.10566000000E+00 0. -1.
         -4    1    3    3    0  501  0.65994483284E+03 -0.57136950378E+02 -0.96990450684E+03  0.11745239742E+04  0.00000000000E+00 0. -1.
<mgrwt>
<rscale>  0 0.11615353E+04</rscale>
<asrwt>0</asrwt>
<pdfrwt beam="1">  1        4 0.54891263E-01 0.11590835E+04</pdfrwt>
<pdfrwt beam="2">  1       -4 0.64930521E+00 0.11639924E+04</pdfrwt>
<totfact> 0.28785156E-02</totfact>
</mgrwt>
</event>
<event>
 8    1  0.2939692E-006  0.1150470E+04  0.7818608E-02  0.8651111E-01
         -4   -1    0    0    0  501 -0.00000000000E+00  0.00000000000E+00  0.92288418316E+03  0.92288418316E+03  0.00000000000E+00 0. -1.
          4   -1    0    0  502    0  0.00000000000E+00 -0.00000000000E+00 -0.30091283220E+04  0.30091283220E+04  0.00000000000E+00 0.  1.
   -9000010    2    1    2    0  501 -0.16976840631E+03  0.54628923532E+03  0.38461066720E+03  0.12130571695E+04  0.99816285788E+03 0.  0.
    9000010    2    1    2  502    0  0.16976840631E+03 -0.54628923532E+03 -0.24708548061E+04  0.27189553356E+04  0.97997010375E+03 0.  0.
        -13    1    4    4    0    0 -0.32100597599E+03 -0.52833475133E+03 -0.10864250458E+04  0.12500007349E+04  0.10566000000E+00 0.  1.
          4    1    4    4  502    0  0.49077438230E+03 -0.17954483988E+02 -0.13844297603E+04  0.14689546007E+04  0.00000000000E+00 0.  1.
         13    1    3    3    0    0 -0.30289777295E+03  0.12039055199E+03  0.62596692921E+03  0.70574468010E+03  0.10566000000E+00 0. -1.
         -4    1    3    3    0  501  0.13312936664E+03  0.42589868333E+03 -0.24135626201E+03  0.50731248944E+03  0.00000000000E+00 0. -1.
<mgrwt>
<rscale>  0 0.11425692E+04</rscale>
<asrwt>0</asrwt>
<pdfrwt beam="2">  1        4 0.46294282E+00 0.11347223E+04</pdfrwt>
<pdfrwt beam="1">  1       -4 0.14198218E+00 0.11504705E+04</pdfrwt>
<totfact> 0.40583804E-02</totfact>
</mgrwt>
</event>
<event>
 8    1  0.2939692E-006  0.1054673E+04  0.7818608E-02  0.8730012E-01
         -4   -1    0    0    0  501 -0.00000000000E+00  0.00000000000E+00  0.37240537314E+04  0.37240537314E+04  0.00000000000E+00 0. -1.
          4   -1    0    0  502    0  0.00000000000E+00 -0.00000000000E+00 -0.40831769296E+03  0.40831769296E+03  0.00000000000E+00 0.  1.
   -9000010    2    1    2    0  501 -0.62191728153E+02 -0.28686874353E+03  0.27510643068E+04  0.29463010808E+04  0.10130023451E+04 0.  0.
    9000010    2    1    2  502    0  0.62191728153E+02  0.28686874353E+03  0.56467173166E+03  0.11860703436E+04  0.10008732230E+04 0.  0.
        -13    1    4    4    0    0  0.73417859895E+02 -0.36824105427E+03  0.11991463764E+03  0.39417152064E+03  0.10566000000E+00 0.  1.
          4    1    4    4  502    0 -0.11226131742E+02  0.65510979779E+03  0.44475709403E+03  0.79189882301E+03  0.00000000000E+00 0.  1.
         13    1    3    3    0    0 -0.15004897414E+03 -0.62013337345E+03  0.22458767348E+04  0.23347467559E+04  0.10566000000E+00 0. -1.
         -4    1    3    3    0  501  0.87857245990E+02  0.33326462992E+03  0.50518757206E+03  0.61155432481E+03  0.00000000000E+00 0. -1.
<mgrwt>
<rscale>  0 0.10488347E+04</rscale>
<asrwt>0</asrwt>
<pdfrwt beam="2">  1        4 0.62818109E-01 0.10430286E+04</pdfrwt>
<pdfrwt beam="1">  1       -4 0.57293132E+00 0.10546730E+04</pdfrwt>
<totfact> 0.55883832E-02</totfact>
</mgrwt>
</event>
<event>
 8    1  0.2939692E-006  0.1314070E+04  0.7818608E-02  0.8528714E-01
          4   -1    0    0  502    0  0.00000000000E+00  0.00000000000E+00  0.16234046451E+04  0.16234046451E+04  0.00000000000E+00 0.  1.
         -4   -1    0    0    0  501 -0.00000000000E+00 -0.00000000000E+00 -0.16776518581E+04  0.16776518581E+04  0.00000000000E+00 0. -1.
   -9000010    2    1    2    0  501  0.78851487427E+03 -0.23278546508E+03 -0.10321798552E+04  0.16630299153E+04  0.10120911353E+04 0.  0.
    9000010    2    1    2  502    0 -0.78851487427E+03  0.23278546508E+03  0.97793264210E+03  0.16380265879E+04  0.10251019805E+04 0.  0.
        -13    1    4    4    0    0  0.12202885770E+03 -0.20510146216E+03  0.42201154575E+03  0.48482100594E+03  0.10566000000E+00 0.  1.
          4    1    4    4  502    0 -0.91054373197E+03  0.43788692724E+03  0.55592109634E+03  0.11532055819E+04  0.00000000000E+00 0.  1.
         13    1    3    3    0    0  0.37780600591E+03 -0.47105772536E+03 -0.10232332206E+04  0.11881241490E+04  0.10566000000E+00 0. -1.
         -4    1    3    3    0  501  0.41070886836E+03  0.23827226028E+03 -0.89466346038E+01  0.47490576627E+03  0.00000000000E+00 0. -1.
<mgrwt>
<rscale>  0 0.13089976E+04</rscale>
<asrwt>0</asrwt>
<pdfrwt beam="1">  1        4 0.24975456E+00 0.13140696E+04</pdfrwt>
<pdfrwt beam="2">  1       -4 0.25810029E+00 0.13039453E+04</pdfrwt>
<totfact> 0.96057922E-02</totfact>
</mgrwt>
</event>
<event>
 8    1  0.2939692E-006  0.1041849E+04  0.7818608E-02  0.8741544E-01
         -4   -1    0    0    0  501 -0.00000000000E+00  0.00000000000E+00  0.13518826092E+04  0.13518826092E+04  0.00000000000E+00 0. -1.
          4   -1    0    0  502    0  0.00000000000E+00 -0.00000000000E+00 -0.16591040443E+04  0.16591040443E+04  0.00000000000E+00 0.  1.
   -9000010    2    1    2    0  501 -0.33474855733E+03 -0.30862339991E+02  0.93401195920E+03  0.13904589427E+04  0.97364708741E+03 0.  0.
    9000010    2    1    2  502    0  0.33474855733E+03  0.30862339991E+02 -0.12412333943E+04  0.16205277107E+04  0.98612404975E+03 0.  0.
        -13    1    4    4    0    0  0.63548957498E+03  0.56597047915E+02 -0.11322206639E+04  0.12996052742E+04  0.10566000000E+00 0.  1.
          4    1    4    4  502    0 -0.30074101765E+03 -0.25734707924E+02 -0.10901273035E+03  0.32092243653E+03  0.00000000000E+00 0.  1.
         13    1    3    3    0    0  0.21960501623E+03  0.30915800365E+03  0.36518733263E+03  0.52646636498E+03  0.10566000000E+00 0. -1.
         -4    1    3    3    0  501 -0.55435357357E+03 -0.34002034364E+03  0.56882462657E+03  0.86399257775E+03  0.00000000000E+00 0. -1.
<mgrwt>
<rscale>  0 0.10359315E+04</rscale>
<asrwt>0</asrwt>
<pdfrwt beam="2">  1        4 0.25524677E+00 0.10418492E+04</pdfrwt>
<pdfrwt beam="1">  1       -4 0.20798194E+00 0.10300474E+04</pdfrwt>
<totfact> 0.12616468E-01</totfact>
</mgrwt>
</event>
<event>
 8    1  0.2939692E-006  0.1521075E+04  0.7818608E-02  0.8438162E-01
         -4   -1    0    0    0  501 -0.00000000000E+00  0.00000000000E+00  0.16626677014E+04  0.16626677014E+04  0.00000000000E+00 0. -1.
          4   -1    0    0  502    0  0.00000000000E+00 -0.00000000000E+00 -0.23236424620E+04  0.23236424620E+04  0.00000000000E+00 0.  1.
   -9000010    2    1    2    0  501  0.27651056057E+02 -0.95758608398E+03  0.10197283599E+04  0.17194994403E+04  0.99954825207E+03 0.  0.
    9000010    2    1    2  502    0 -0.27651056057E+02  0.95758608398E+03 -0.16807031204E+04  0.22668107231E+04  0.11814957410E+04 0.  0.
        -13    1    4    4    0    0  0.32221858907E+03  0.10810194091E+04 -0.14193013169E+04  0.18129655323E+04  0.10566000000E+00 0.  1.
          4    1    4    4  502    0 -0.34986964513E+03 -0.12343332507E+03 -0.26140180353E+03  0.45384519080E+03  0.00000000000E+00 0.  1.
         13    1    3    3    0    0 -0.42846077781E+03 -0.77220673817E+03  0.74694534906E+03  0.11566370434E+04  0.10566000000E+00 0. -1.
         -4    1    3    3    0  501  0.45611183387E+03 -0.18537934582E+03  0.27278301083E+03  0.56286239691E+03  0.00000000000E+00 0. -1.
<mgrwt>
<rscale>  0 0.14511800E+04</rscale>
<asrwt>0</asrwt>
<pdfrwt beam="2">  1        4 0.35748345E+00 0.15210746E+04</pdfrwt>
<pdfrwt beam="1">  1       -4 0.25579503E+00 0.13844972E+04</pdfrwt>
<totfact> 0.48084505E-02</totfact>
</mgrwt>
</event>
<event>
 8    1  0.2939692E-006  0.1018140E+04  0.7818608E-02  0.8763688E-01
         -4   -1    0    0    0  501 -0.00000000000E+00  0.00000000000E+00  0.29063499001E+03  0.29063499001E+03  0.00000000000E+00 0. -1.
          4   -1    0    0  502    0  0.00000000000E+00 -0.00000000000E+00 -0.40345457659E+04  0.40345457659E+04  0.00000000000E+00 0.  1.
   -9000010    2    1    2    0  501  0.74234708762E+02 -0.16888456262E+03 -0.11113855025E+04  0.15072444843E+04  0.10012868784E+04 0.  0.
    9000010    2    1    2  502    0 -0.74234708762E+02  0.16888456262E+03 -0.26325252734E+04  0.28179362716E+04  0.98820176493E+03 0.  0.
        -13    1    4    4    0    0  0.47750039208E+02  0.55990674568E+03 -0.11513066758E+04  0.12811255610E+04  0.10566000000E+00 0.  1.
          4    1    4    4  502    0 -0.12198474797E+03 -0.39102218305E+03 -0.14812185976E+04  0.15368107106E+04  0.00000000000E+00 0.  1.
         13    1    3    3    0    0  0.38314386455E+03 -0.18428287099E+03 -0.11198446232E+04  0.11978361276E+04  0.10566000000E+00 0. -1.
         -4    1    3    3    0  501 -0.30890915579E+03  0.15398308364E+02  0.84591207228E+01  0.30940835663E+03  0.00000000000E+00 0. -1.
<mgrwt>
<rscale>  0 0.10116863E+04</rscale>
<asrwt>0</asrwt>
<pdfrwt beam="2">  1        4 0.62069933E+00 0.10052739E+04</pdfrwt>
<pdfrwt beam="1">  1       -4 0.44713077E-01 0.10181396E+04</pdfrwt>
<totfact> 0.64271435E-02</totfact>
</mgrwt>
</event>
<event>
 8    1  0.2939692E-006  0.1281804E+04  0.7818608E-02  0.8551364E-01
         -4   -1    0    0    0  501 -0.00000000000E+00  0.00000000000E+00  0.24433928192E+04  0.24433928192E+04  0.00000000000E+00 0. -1.
          4   -1    0    0  502    0  0.00000000000E+00 -0.00000000000E+00 -0.92612212011E+03  0.92612212011E+03  0.00000000000E+00 0.  1.
   -9000010    2    1    2    0  501  0.35641768130E+03  0.71319360573E+03  0.16482625235E+04  0.20810347181E+04  0.98906899090E+03 0.  0.
    9000010    2    1    2  502    0 -0.35641768130E+03 -0.71319360573E+03 -0.13099182446E+03  0.12884802212E+04  0.10036651530E+04 0.  0.
        -13    1    4    4    0    0 -0.22890391544E+03 -0.38396112577E+02  0.37114465726E+03  0.43774379692E+03  0.10566000000E+00 0.  1.
          4    1    4    4  502    0 -0.12751376586E+03 -0.67479749315E+03 -0.50213648172E+03  0.85073642424E+03  0.00000000000E+00 0.  1.
         13    1    3    3    0    0  0.15076302931E+03 -0.10220482279E+03 -0.47481646126E+02  0.18822814532E+03  0.10566000000E+00 0. -1.
         -4    1    3    3    0  501  0.20565465199E+03  0.81539842852E+03  0.16957441696E+04  0.18928065728E+04  0.00000000000E+00 0. -1.
<mgrwt>
<rscale>  0 0.12760934E+04</rscale>
<asrwt>0</asrwt>
<pdfrwt beam="2">  1        4 0.14248033E+00 0.12818044E+04</pdfrwt>
<pdfrwt beam="1">  1       -4 0.37590659E+00 0.12704079E+04</pdfrwt>
<totfact> 0.93604464E-02</totfact>
</mgrwt>
</event>
<event>
 8    1  0.2939692E-006  0.1221326E+04  0.7818608E-02  0.8599928E-01
          4   -1    0    0  502    0  0.00000000000E+00  0.00000000000E+00  0.15766586354E+04  0.15766586354E+04  0.00000000000E+00 0.  1.
         -4   -1    0    0    0  501 -0.00000000000E+00 -0.00000000000E+00 -0.13227726394E+04  0.13227726394E+04  0.00000000000E+00 0. -1.
   -9000010    2    1    2    0  501  0.41313062969E+02 -0.70046576464E+03 -0.66698049394E+03  0.13698454387E+04  0.96915142776E+03 0.  0.
    9000010    2    1    2  502    0 -0.41313062969E+02  0.70046576464E+03  0.92086648988E+03  0.15295858362E+04  0.99963927566E+03 0.  0.
        -13    1    4    4    0    0 -0.70137566306E+02  0.53675572957E+02 -0.20926537834E+03  0.22713950576E+03  0.10566000000E+00 0.  1.
          4    1    4    4  502    0  0.28824503338E+02  0.64679019168E+03  0.11301318682E+04  0.13024463304E+04  0.00000000000E+00 0.  1.
         13    1    3    3    0    0  0.36484069397E+03  0.39858478562E+02 -0.33313815989E+03  0.49565963628E+03  0.10566000000E+00 0. -1.
         -4    1    3    3    0  501 -0.32352763101E+03 -0.74032424320E+03 -0.33384233404E+03  0.87418580239E+03  0.00000000000E+00 0. -1.
<mgrwt>
<rscale>  0 0.12088497E+04</rscale>
<asrwt>0</asrwt>
<pdfrwt beam="1">  1        4 0.24256287E+00 0.12213262E+04</pdfrwt>
<pdfrwt beam="2">  1       -4 0.20350348E+00 0.11965005E+04</pdfrwt>
<totfact> 0.13781015E-01</totfact>
</mgrwt>
</event>
<event>
 8    1  0.2939692E-006  0.1157530E+04  0.7818608E-02  0.8641492E-01
          4   -1    0    0  502    0  0.00000000000E+00  0.00000000000E+00  0.10666819109E+04  0.10666819109E+04  0.00000000000E+00 0.  1.
         -4   -1    0    0    0  501 -0.00000000000E+00 -0.00000000000E+00 -0.22490555446E+04  0.22490555446E+04  0.00000000000E+00 0. -1.
   -9000010    2    1    2    0  501 -0.47833786666E+03 -0.36058825788E+03 -0.16969784892E+04  0.20541693388E+04  0.99047699293E+03 0.  0.
    9000010    2    1    2  502    0  0.47833786666E+03  0.36058825788E+03  0.51460485552E+03  0.12615681167E+04  0.98382160439E+03 0.  0.
        -13    1    4    4    0    0  0.89808571740E+02 -0.28689728012E+03  0.39602435260E+03  0.49720310530E+03  0.10566000000E+00 0.  1.
          4    1    4    4  502    0  0.38852929492E+03  0.64748553800E+03  0.11858050291E+03  0.76436501136E+03  0.00000000000E+00 0.  1.
         13    1    3    3    0    0 -0.30455689067E+03 -0.47663898057E+02 -0.16666806729E+04  0.16949487377E+04  0.10566000000E+00 0. -1.
         -4    1    3    3    0  501 -0.17378097599E+03 -0.31292435982E+03 -0.30297816216E+02  0.35922060110E+03  0.00000000000E+00 0. -1.
<mgrwt>
<rscale>  0 0.11546816E+04</rscale>
<asrwt>0</asrwt>
<pdfrwt beam="1">  1        4 0.16410491E+00 0.11518402E+04</pdfrwt>
<pdfrwt beam="2">  1       -4 0.34600854E+00 0.11575300E+04</pdfrwt>
<totfact> 0.98345100E-02</totfact>
</mgrwt>
</event>
<event>
 8    1  0.2939692E-006  0.1101269E+04  0.7818608E-02  0.8776673E-01
          4   -1    0    0  502    0  0.00000000000E+00  0.00000000000E+00  0.10116027191E+04  0.10116027191E+04  0.00000000000E+00 0.  1.
         -4   -1    0    0    0  501 -0.00000000000E+00 -0.00000000000E+00 -0.19286451454E+04  0.19286451454E+04  0.00000000000E+00 0. -1.
   -9000010    2    1    2    0  501 -0.47574555830E+01  0.32204675226E+03 -0.14562645321E+04  0.17140528444E+04  0.84470943045E+03 0.  0.
    9000010    2    1    2  502    0  0.47574555830E+01 -0.32204675226E+03  0.53922210583E+03  0.12261950201E+04  0.10531177540E+04 0.  0.
        -13    1    4    4    0    0  0.51668890624E+03 -0.12670849326E+03  0.38587599747E+03  0.65720831148E+03  0.10566000000E+00 0.  1.
          4    1    4    4  502    0 -0.51193145065E+03 -0.19533825901E+03  0.15334610837E+03  0.56898670859E+03  0.00000000000E+00 0.  1.
         13    1    3    3    0    0  0.34061711985E+03 -0.80946369243E+02 -0.77533237026E+03  0.85071301422E+03  0.10566000000E+00 0. -1.
         -4    1    3    3    0  501 -0.34537457543E+03  0.40299312151E+03 -0.68093216187E+03  0.86333983019E+03  0.00000000000E+00 0. -1.
<mgrwt>
<rscale>  0 0.99778789E+03</rscale>
<asrwt>0</asrwt>
<pdfrwt beam="1">  1        4 0.15563119E+00 0.11012692E+04</pdfrwt>
<pdfrwt beam="2">  1       -4 0.29671463E+00 0.90403029E+03</pdfrwt>
<totfact> 0.14893631E-01</totfact>
</mgrwt>
</event>
<event>
 8    1  0.2939692E-006  0.1046837E+04  0.7818608E-02  0.8732351E-01
         -4   -1    0    0    0  501 -0.00000000000E+00  0.00000000000E+00  0.54952046802E+03  0.54952046802E+03  0.00000000000E+00 0. -1.
          4   -1    0    0  502    0  0.00000000000E+00 -0.00000000000E+00 -0.31883654678E+04  0.31883654678E+04  0.00000000000E+00 0.  1.
   -9000010    2    1    2    0  501  0.16718065239E+03 -0.25372760994E+03 -0.17399326067E+03  0.10599461072E+04  0.10004424146E+04 0.  0.
    9000010    2    1    2  502    0 -0.16718065239E+03  0.25372760994E+03 -0.24648517392E+04  0.26779398286E+04  0.10017687154E+04 0.  0.
        -13    1    4    4    0    0  0.40226091502E+03  0.14942547318E+02 -0.69114103729E+03  0.79982064744E+03  0.10566000000E+00 0.  1.
          4    1    4    4  502    0 -0.56944156740E+03  0.23878506262E+03 -0.17737107019E+04  0.18781191812E+04  0.00000000000E+00 0.  1.
         13    1    3    3    0    0  0.28818073914E+03 -0.37814824181E+03  0.29523477907E+03  0.55964972718E+03  0.10566000000E+00 0. -1.
         -4    1    3    3    0  501 -0.12100008676E+03  0.12442063187E+03 -0.46922803973E+03  0.50029638006E+03  0.00000000000E+00 0. -1.
<mgrwt>
<rscale>  0 0.10462022E+04</rscale>
<asrwt>0</asrwt>
<pdfrwt beam="2">  1        4 0.49051776E+00 0.10468370E+04</pdfrwt>
<pdfrwt beam="1">  1       -4 0.84541610E-01 0.10455678E+04</pdfrwt>
<totfact> 0.77231130E-02</totfact>
</mgrwt>
</event>
<event>
 8    1  0.2939692E-006  0.1174309E+04  0.7818608E-02  0.8629974E-01
          4   -1    0    0  502    0  0.00000000000E+00  0.00000000000E+00  0.20968980086E+04  0.20968980086E+04  0.00000000000E+00 0.  1.
         -4   -1    0    0    0  501 -0.00000000000E+00 -0.00000000000E+00 -0.12351577469E+04  0.12351577469E+04  0.00000000000E+00 0. -1.
   -9000010    2    1    2    0  501 -0.29175997146E+03 -0.53511606855E+03 -0.71468530908E+03  0.13663192183E+04  0.99226006038E+03 0.  0.
    9000010    2    1    2  502    0  0.29175997146E+03  0.53511606855E+03  0.15764255708E+04  0.19657365373E+04  0.10037576730E+04 0.  0.
        -13    1    4    4    0    0 -0.11690949877E+03  0.66782200763E+03  0.12644616312E+04  0.14347533909E+04  0.10566000000E+00 0.  1.
          4    1    4    4  502    0  0.40866947023E+03 -0.13270593908E+03  0.31196393955E+03  0.53098314638E+03  0.00000000000E+00 0.  1.
         13    1    3    3    0    0  0.89964884605E+02  0.22785629697E+03 -0.37525664706E+03  0.44814030711E+03  0.10566000000E+00 0. -1.
         -4    1    3    3    0  501 -0.38172485606E+03 -0.76297236552E+03 -0.33942866202E+03  0.91817891115E+03  0.00000000000E+00 0. -1.
<mgrwt>
<rscale>  0 0.11693929E+04</rscale>
<asrwt>0</asrwt>
<pdfrwt beam="1">  1        4 0.32259969E+00 0.11743094E+04</pdfrwt>
<pdfrwt beam="2">  1       -4 0.19002427E+00 0.11644969E+04</pdfrwt>
<totfact> 0.94105366E-02</totfact>
</mgrwt>
</event>
<event>
 8    1  0.2939692E-006  0.1504192E+04  0.7818608E-02  0.8418013E-01
         -4   -1    0    0    0  501 -0.00000000000E+00  0.00000000000E+00  0.11632007201E+04  0.11632007201E+04  0.00000000000E+00 0. -1.
          4   -1    0    0  502    0  0.00000000000E+00 -0.00000000000E+00 -0.22055254192E+04  0.22055254192E+04  0.00000000000E+00 0.  1.
   -9000010    2    1    2    0  501 -0.21935476168E+03  0.11145280957E+04  0.10322922329E+03  0.15077302517E+04  0.98605519720E+03 0.  0.
    9000010    2    1    2  502    0  0.21935476168E+03 -0.11145280957E+04 -0.11455539225E+04  0.18609958876E+04  0.92775132273E+03 0.  0.
        -13    1    4    4    0    0  0.29269743581E+03 -0.12234132828E+04 -0.11805374811E+04  0.17251320543E+04  0.10566000000E+00 0.  1.
          4    1    4    4  502    0 -0.73342674128E+02  0.10888518712E+03  0.34983558586E+02  0.13586383328E+03  0.00000000000E+00 0.  1.
         13    1    3    3    0    0 -0.39211130577E+03  0.72066578348E+03 -0.34185169188E+03  0.88880427429E+03  0.10566000000E+00 0. -1.
         -4    1    3    3    0  501  0.17275654409E+03  0.39386231218E+03  0.44508091518E+03  0.61892597743E+03  0.00000000000E+00 0. -1.
<mgrwt>
<rscale>  0 0.14852938E+04</rscale>
<asrwt>0</asrwt>
<pdfrwt beam="2">  1        4 0.33931160E+00 0.14666328E+04</pdfrwt>
<pdfrwt beam="1">  1       -4 0.17895396E+00 0.15041922E+04</pdfrwt>
<totfact> 0.89420605E-02</totfact>
</mgrwt>
</event>
<event>
 8    1  0.2939692E-006  0.1166031E+04  0.7818608E-02  0.8643779E-01
         -4   -1    0    0    0  501 -0.00000000000E+00  0.00000000000E+00  0.22743670049E+04  0.22743670049E+04  0.00000000000E+00 0. -1.
          4   -1    0    0  502    0  0.00000000000E+00 -0.00000000000E+00 -0.18441132554E+04  0.18441132554E+04  0.00000000000E+00 0.  1.
   -9000010    2    1    2    0  501 -0.90315758728E+02 -0.53801190908E+03  0.19185711643E+04  0.22451153882E+04  0.10305406558E+04 0.  0.
    9000010    2    1    2  502    0  0.90315758728E+02  0.53801190908E+03 -0.14883174148E+04  0.18733648721E+04  0.99839544585E+03 0.  0.
        -13    1    4    4    0    0 -0.11541098504E+03  0.14041588149E+03  0.11073217165E+03  0.21283312770E+03  0.10566000000E+00 0.  1.
          4    1    4    4  502    0  0.20572674377E+03  0.39759602759E+03 -0.15990495865E+04  0.16605317444E+04  0.00000000000E+00 0.  1.
         13    1    3    3    0    0  0.13833293506E+03 -0.80357984776E+03  0.13604957690E+04  0.15861353414E+04  0.10566000000E+00 0. -1.
         -4    1    3    3    0  501 -0.22864869379E+03  0.26556793868E+03  0.55807539531E+03  0.65898004680E+03  0.00000000000E+00 0. -1.
<mgrwt>
<rscale>  0 0.11517885E+04</rscale>
<asrwt>0</asrwt>
<pdfrwt beam="2">  1        4 0.28370973E+00 0.11377202E+04</pdfrwt>
<pdfrwt beam="1">  1       -4 0.34990262E+00 0.11660308E+04</pdfrwt>
<totfact> 0.45213767E-02</totfact>
</mgrwt>
</event>
<event>
 8    1  0.2939692E-006  0.1084807E+04  0.7818608E-02  0.8701733E-01
         -4   -1    0    0    0  501 -0.00000000000E+00  0.00000000000E+00  0.12003811246E+04  0.12003811246E+04  0.00000000000E+00 0. -1.
          4   -1    0    0  502    0  0.00000000000E+00 -0.00000000000E+00 -0.17884852258E+04  0.17884852258E+04  0.00000000000E+00 0.  1.
   -9000010    2    1    2    0  501 -0.67446235828E+02  0.42342913094E+03  0.71492142019E+03  0.12933776656E+04  0.98887406941E+03 0.  0.
    9000010    2    1    2  502    0  0.67446235828E+02 -0.42342913094E+03 -0.13030255214E+04  0.16954886848E+04  0.99647636551E+03 0.  0.
        -13    1    4    4    0    0 -0.10238072923E+03 -0.62926090291E+03 -0.12770955897E+04  0.14273837095E+04  0.10566000000E+00 0.  1.
          4    1    4    4  502    0  0.16982696506E+03  0.20583177197E+03 -0.25929931702E+02  0.26810497528E+03  0.00000000000E+00 0.  1.
         13    1    3    3    0    0  0.28364170880E+03  0.23716953900E+03  0.80501166375E+03  0.88585879188E+03  0.10566000000E+00 0. -1.
         -4    1    3    3    0  501 -0.35108794463E+03  0.18625959194E+03 -0.90090243562E+02  0.40751887372E+03  0.00000000000E+00 0. -1.
<mgrwt>
<rscale>  0 0.10813119E+04</rscale>
<asrwt>0</asrwt>
<pdfrwt beam="2">  1        4 0.27515157E+00 0.10848071E+04</pdfrwt>
<pdfrwt beam="1">  1       -4 0.18467402E+00 0.10778280E+04</pdfrwt>
<totfact> 0.13206577E-01</totfact>
</mgrwt>
</event>
<event>
 8    1  0.2939692E-006  0.1097192E+04  0.7818608E-02  0.8712231E-01
         -4   -1    0    0    0  501 -0.00000000000E+00  0.00000000000E+00  0.41118962304E+04  0.41118962304E+04  0.00000000000E+00 0. -1.
          4   -1    0    0  502    0  0.00000000000E+00 -0.00000000000E+00 -0.19352431089E+04  0.19352431089E+04  0.00000000000E+00 0.  1.
   -9000010    2    1    2    0  501 -0.17895757447E+03  0.24865670055E+03  0.38900934300E+04  0.40418631646E+04  0.10535535008E+04 0.  0.
    9000010    2    1    2  502    0  0.17895757447E+03 -0.24865670055E+03 -0.17134403085E+04  0.20052761747E+04  0.99569015154E+03 0.  0.
        -13    1    4    4    0    0  0.53031381077E+03  0.91063467915E+02 -0.72767603406E+03  0.90500702472E+03  0.10566000000E+00 0.  1.
          4    1    4    4  502    0 -0.35135623630E+03 -0.33972016846E+03 -0.98576427440E+03  0.11002691500E+04  0.00000000000E+00 0.  1.
         13    1    3    3    0    0 -0.20595755970E+03 -0.39865457190E+03  0.16581389821E+04  0.17177802185E+04  0.10566000000E+00 0. -1.
         -4    1    3    3    0  501  0.26999985227E+02  0.64731127245E+03  0.22319544479E+04  0.23240829461E+04  0.00000000000E+00 0. -1.
<mgrwt>
<rscale>  0 0.10691147E+04</rscale>
<asrwt>0</asrwt>
<pdfrwt beam="2">  1        4 0.29772971E+00 0.10417557E+04</pdfrwt>
<pdfrwt beam="1">  1       -4 0.63259942E+00 0.10971923E+04</pdfrwt>
<totfact> 0.20119535E-03</totfact>
</mgrwt>
</event>
<event>
 8    1  0.2939692E-006  0.1215141E+04  0.7818608E-02  0.8600316E-01
         -4   -1    0    0    0  501 -0.00000000000E+00  0.00000000000E+00  0.21640531004E+04  0.21640531004E+04  0.00000000000E+00 0. -1.
          4   -1    0    0  502    0  0.00000000000E+00 -0.00000000000E+00 -0.20420469308E+04  0.20420469308E+04  0.00000000000E+00 0.  1.
   -9000010    2    1    2    0  501 -0.44879684756E+03 -0.49888213070E+03  0.17817770759E+04  0.21490613724E+04  0.99671121355E+03 0.  0.
    9000010    2    1    2  502    0  0.44879684756E+03  0.49888213070E+03 -0.16597709063E+04  0.20570386588E+04  0.10130481685E+04 0.  0.
        -13    1    4    4    0    0  0.70710570846E+03  0.32767453618E+03 -0.15377945765E+04  0.17240015241E+04  0.10566000000E+00 0.  1.
          4    1    4    4  502    0 -0.25830886091E+03  0.17120759452E+03 -0.12197632984E+03  0.33303713470E+03  0.00000000000E+00 0.  1.
         13    1    3    3    0    0 -0.88695769094E+02 -0.50533594371E+02 -0.12272737307E+03  0.15963271244E+03  0.10566000000E+00 0. -1.
         -4    1    3    3    0  501 -0.36010107846E+03 -0.44834853633E+03  0.19045044490E+04  0.19894286599E+04  0.00000000000E+00 0. -1.
<mgrwt>
<rscale>  0 0.12083293E+04</rscale>
<asrwt>0</asrwt>
<pdfrwt beam="2">  1        4 0.31416107E+00 0.12151414E+04</pdfrwt>
<pdfrwt beam="1">  1       -4 0.33293125E+00 0.12015553E+04</pdfrwt>
<totfact> 0.41907791E-02</totfact>
</mgrwt>
</event>
<event>
 8    1  0.2939692E-006  0.1522085E+04  0.7818608E-02  0.8409663E-01
         -4   -1    0    0    0  501 -0.00000000000E+00  0.00000000000E+00  0.15472406400E+04  0.15472406400E+04  0.00000000000E+00 0. -1.
          4   -1    0    0  502    0  0.00000000000E+00 -0.00000000000E+00 -0.22893311576E+04  0.22893311576E+04  0.00000000000E+00 0.  1.
   -9000010    2    1    2    0  501 -0.44222031647E+03 -0.10018370218E+04  0.78415482040E+03  0.17122032961E+04  0.10571211464E+04 0.  0.
    9000010    2    1    2  502    0  0.44222031647E+03  0.10018370218E+04 -0.15262453380E+04  0.21243685015E+04  0.99210910275E+03 0.  0.
        -13    1    4    4    0    0 -0.10493070320E+03  0.81138783206E+03 -0.53915922175E+03  0.97982311876E+03  0.10566000000E+00 0.  1.
          4    1    4    4  502    0  0.54715101967E+03  0.19044918972E+03 -0.98708611627E+03  0.11445453827E+04  0.00000000000E+00 0.  1.
         13    1    3    3    0    0 -0.28721118827E+03 -0.48568425773E+03  0.98656048402E+03  0.11365214757E+04  0.10566000000E+00 0. -1.
         -4    1    3    3    0  501 -0.15500912820E+03 -0.51615276404E+03 -0.20240566362E+03  0.57568182039E+03  0.00000000000E+00 0. -1.
<mgrwt>
<rscale>  0 0.14997142E+04</rscale>
<asrwt>0</asrwt>
<pdfrwt beam="2">  1        4 0.35220479E+00 0.14776727E+04</pdfrwt>
<pdfrwt beam="1">  1       -4 0.23803702E+00 0.15220845E+04</pdfrwt>
<totfact> 0.55365996E-02</totfact>
</mgrwt>
</event>
<event>
 8    1  0.2939692E-006  0.1069072E+04  0.7818608E-02  0.8712479E-01
         -4   -1    0    0    0  501 -0.00000000000E+00  0.00000000000E+00  0.14607137494E+04  0.14607137494E+04  0.00000000000E+00 0. -1.
          4   -1    0    0  502    0  0.00000000000E+00 -0.00000000000E+00 -0.18558894633E+04  0.18558894633E+04  0.00000000000E+00 0.  1.
   -9000010    2    1    2    0  501  0.24700288224E+03 -0.29980966975E+03  0.10637888858E+04  0.15081646893E+04  0.99600084067E+03 0.  0.
    9000010    2    1    2  502    0 -0.24700288224E+03  0.29980966975E+03 -0.14589645997E+04  0.18084385235E+04  0.99547773864E+03 0.  0.
        -13    1    4    4    0    0 -0.13087677916E+03 -0.90368050124E+02 -0.13857109616E+04  0.13948082291E+04  0.10566000000E+00 0.  1.
          4    1    4    4  502    0 -0.11612610308E+03  0.39017771988E+03 -0.73253638093E+02  0.41363029434E+03  0.00000000000E+00 0.  1.
         13    1    3    3    0    0  0.30365678782E+03 -0.13555893295E+03 -0.87482922757E+02  0.34385599025E+03  0.10566000000E+00 0. -1.
         -4    1    3    3    0  501 -0.56653905577E+02 -0.16425073680E+03  0.11512718085E+04  0.11643086990E+04  0.00000000000E+00 0. -1.
<mgrwt>
<rscale>  0 0.10688278E+04</rscale>
<asrwt>0</asrwt>
<pdfrwt beam="2">  1        4 0.28552146E+00 0.10685842E+04</pdfrwt>
<pdfrwt beam="1">  1       -4 0.22472519E+00 0.10690715E+04</pdfrwt>
<totfact> 0.96510898E-02</totfact>
</mgrwt>
</event>
<event>
 8    1  0.2939692E-006  0.1263070E+04  0.7818608E-02  0.8562387E-01
         -4   -1    0    0    0  501 -0.00000000000E+00  0.00000000000E+00  0.21340224912E+04  0.21340224912E+04  0.00000000000E+00 0. -1.
          4   -1    0    0  502    0  0.00000000000E+00 -0.00000000000E+00 -0.11272969439E+04  0.11272969439E+04  0.00000000000E+00 0.  1.
   -9000010    2    1    2    0  501 -0.63544792818E+03 -0.44692987410E+03  0.14543189366E+04  0.19262374024E+04  0.99589486351E+03 0.  0.
    9000010    2    1    2  502    0  0.63544792818E+03  0.44692987410E+03 -0.44759338936E+03  0.13350820327E+04  0.98922384226E+03 0.  0.
        -13    1    4    4    0    0  0.77243352007E+03  0.55377652758E+02 -0.49262277119E+03  0.91782211414E+03  0.10566000000E+00 0.  1.
          4    1    4    4  502    0 -0.13698559189E+03  0.39155222134E+03  0.45029381826E+02  0.41725991858E+03  0.00000000000E+00 0.  1.
         13    1    3    3    0    0 -0.83503985191E+03 -0.98669551469E+02  0.81270897038E+03  0.11694114401E+04  0.10566000000E+00 0. -1.
         -4    1    3    3    0  501  0.19959192373E+03 -0.34826032263E+03  0.64160996626E+03  0.75682596226E+03  0.00000000000E+00 0. -1.
<mgrwt>
<rscale>  0 0.12604411E+04</rscale>
<asrwt>0</asrwt>
<pdfrwt beam="2">  1        4 0.17343030E+00 0.12578172E+04</pdfrwt>
<pdfrwt beam="1">  1       -4 0.32831115E+00 0.12630704E+04</pdfrwt>
<totfact> 0.10206650E-01</totfact>
</mgrwt>
</event>
<event>
 8    1  0.2939692E-006  0.1484106E+04  0.7818608E-02  0.8419743E-01
         -4   -1    0    0    0  501 -0.00000000000E+00  0.00000000000E+00  0.21566532891E+04  0.21566532891E+04  0.00000000000E+00 0. -1.
          4   -1    0    0  502    0  0.00000000000E+00 -0.00000000000E+00 -0.16317398290E+04  0.16317398290E+04  0.00000000000E+00 0.  1.
   -9000010    2    1    2    0  501 -0.86703457755E+03 -0.64262217258E+03  0.14231527003E+04  0.20536294705E+04  0.10135670566E+04 0.  0.
    9000010    2    1    2  502    0  0.86703457755E+03  0.64262217258E+03 -0.89823924017E+03  0.17347636477E+04  0.10187536333E+04 0.  0.
        -13    1    4    4    0    0  0.82508934907E+03 -0.46898641975E+01 -0.40068423646E+03  0.91724712989E+03  0.10566000000E+00 0.  1.
          4    1    4    4  502    0  0.41945228476E+02  0.64731203677E+03 -0.49755500370E+03  0.81751651779E+03  0.00000000000E+00 0.  1.
         13    1    3    3    0    0 -0.69226405524E+03 -0.88319744067E+03  0.84936833199E+03  0.14073712431E+04  0.10566000000E+00 0. -1.
         -4    1    3    3    0  501 -0.17477052231E+03  0.24057526809E+03  0.57378436832E+03  0.64625822735E+03  0.00000000000E+00 0. -1.
<mgrwt>
<rscale>  0 0.14823274E+04</rscale>
<asrwt>0</asrwt>
<pdfrwt beam="2">  1        4 0.25103690E+00 0.14841062E+04</pdfrwt>
<pdfrwt beam="1">  1       -4 0.33179282E+00 0.14805507E+04</pdfrwt>
<totfact> 0.59814918E-02</totfact>
</mgrwt>
</event>
<event>
 8    1  0.2939692E-006  0.1180975E+04  0.7818608E-02  0.8625286E-01
         -4   -1    0    0    0  501 -0.00000000000E+00  0.00000000000E+00  0.67368083191E+03  0.67368083191E+03  0.00000000000E+00 0. -1.
          4   -1    0    0  502    0  0.00000000000E+00 -0.00000000000E+00 -0.23607683428E+04  0.23607683428E+04  0.00000000000E+00 0.  1.
   -9000010    2    1    2    0  501  0.62756561667E+03  0.75380067042E+02 -0.29048922004E+03  0.12054635024E+04  0.98449860891E+03 0.  0.
    9000010    2    1    2  502    0 -0.62756561667E+03 -0.75380067042E+02 -0.13965982908E+04  0.18289856723E+04  0.99758761306E+03 0.  0.
        -13    1    4    4    0    0 -0.42882641712E+02 -0.31445414704E+03 -0.10735933821E+04  0.11195191347E+04  0.10566000000E+00 0.  1.
          4    1    4    4  502    0 -0.58468297496E+03  0.23907408000E+03 -0.32300490866E+03  0.70946653759E+03  0.00000000000E+00 0.  1.
         13    1    3    3    0    0  0.55331190518E+03  0.27223851463E+03  0.21888013915E+03  0.65435189290E+03  0.10566000000E+00 0. -1.
         -4    1    3    3    0  501  0.74253711497E+02 -0.19685844759E+03 -0.50936935919E+03  0.55111160951E+03  0.00000000000E+00 0. -1.
<mgrwt>
<rscale>  0 0.11754442E+04</rscale>
<asrwt>0</asrwt>
<pdfrwt beam="2">  1        4 0.36319513E+00 0.11809749E+04</pdfrwt>
<pdfrwt beam="1">  1       -4 0.10364321E+00 0.11699394E+04</pdfrwt>
<totfact> 0.17929245E-01</totfact>
</mgrwt>
</event>
<event>
 8    1  0.2939692E-006  0.1075793E+04  0.7818608E-02  0.8707146E-01
          4   -1    0    0  502    0  0.00000000000E+00  0.00000000000E+00  0.11998435461E+04  0.11998435461E+04  0.00000000000E+00 0.  1.
         -4   -1    0    0    0  501 -0.00000000000E+00 -0.00000000000E+00 -0.10379901999E+04  0.10379901999E+04  0.00000000000E+00 0. -1.
   -9000010    2    1    2    0  501  0.52095175124E+02  0.38903253823E+03 -0.21946370004E+03  0.10979500990E+04  0.10016336063E+04 0.  0.
    9000010    2    1    2  502    0 -0.52095175124E+02 -0.38903253823E+03  0.38131704620E+03  0.11398836469E+04  0.99993590584E+03 0.  0.
        -13    1    4    4    0    0 -0.43826252165E+03 -0.13140973511E+03 -0.10303216043E+03  0.46899700810E+03  0.10566000000E+00 0.  1.
          4    1    4    4  502    0  0.38616734653E+03 -0.25762280313E+03  0.48434920663E+03  0.67088663884E+03  0.00000000000E+00 0.  1.
         13    1    3    3    0    0 -0.21256292419E+03  0.51160111733E+03 -0.45985399738E+03  0.71998917358E+03  0.10566000000E+00 0. -1.
         -4    1    3    3    0  501  0.26465809931E+03 -0.12256857910E+03  0.24039029734E+03  0.37796092545E+03  0.00000000000E+00 0. -1.
<mgrwt>
<rscale>  0 0.10750022E+04</rscale>
<asrwt>0</asrwt>
<pdfrwt beam="1">  1        4 0.18459132E+00 0.10742123E+04</pdfrwt>
<pdfrwt beam="2">  1       -4 0.15969080E+00 0.10757928E+04</pdfrwt>
<totfact> 0.27478019E-01</totfact>
</mgrwt>
</event>
<event>
 8    1  0.2939692E-006  0.1535129E+04  0.7818608E-02  0.8393148E-01
          4   -1    0    0  502    0  0.00000000000E+00  0.00000000000E+00  0.19165803034E+04  0.19165803034E+04  0.00000000000E+00 0.  1.
         -4   -1    0    0    0  501 -0.00000000000E+00 -0.00000000000E+00 -0.18744476436E+04  0.18744476436E+04  0.00000000000E+00 0. -1.
   -9000010    2    1    2    0  501 -0.76401108874E+02  0.11387581856E+04 -0.10994027666E+04  0.18882021864E+04  0.10266517028E+04 0.  0.
    9000010    2    1    2  502    0  0.76401108874E+02 -0.11387581856E+04  0.11415354264E+04  0.19028257606E+04  0.10074896579E+04 0.  0.
        -13    1    4    4    0    0  0.42096498907E+03 -0.93542121844E+03  0.10943876620E+04  0.14999695810E+04  0.10566000000E+00 0.  1.
          4    1    4    4  502    0 -0.34456388019E+03 -0.20333696712E+03  0.47147764388E+02  0.40285617957E+03  0.00000000000E+00 0.  1.
         13    1    3    3    0    0  0.26808537881E+03  0.15077462560E+03  0.73693420262E+02  0.31628071300E+03  0.10566000000E+00 0. -1.
         -4    1    3    3    0  501 -0.34448648769E+03  0.98798355995E+03 -0.11730961869E+04  0.15719214734E+04  0.00000000000E+00 0. -1.
<mgrwt>
<rscale>  0 0.15287415E+04</rscale>
<asrwt>0</asrwt>
<pdfrwt beam="1">  1        4 0.29485851E+00 0.15223806E+04</pdfrwt>
<pdfrwt beam="2">  1       -4 0.28837656E+00 0.15351290E+04</pdfrwt>
<totfact> 0.61236475E-02</totfact>
</mgrwt>
</event>
<event>
 8    1  0.2939692E-006  0.1397156E+04  0.7818608E-02  0.8477100E-01
          4   -1    0    0  502    0  0.00000000000E+00  0.00000000000E+00  0.91791890298E+03  0.91791890298E+03  0.00000000000E+00 0.  1.
         -4   -1    0    0    0  501 -0.00000000000E+00 -0.00000000000E+00 -0.29432860082E+04  0.29432860082E+04  0.00000000000E+00 0. -1.
   -9000010    2    1    2    0  501 -0.14683249105E+03 -0.95756731290E+03 -0.20421410325E+04  0.24639480690E+04  0.98092056290E+03 0.  0.
    9000010    2    1    2  502    0  0.14683249105E+03  0.95756731290E+03  0.16773927316E+02  0.13972568422E+04  0.10067523922E+04 0.  0.
        -13    1    4    4    0    0  0.41434642533E+03  0.91589633091E+03  0.25448220693E+03  0.10369716746E+04  0.10566000000E+00 0.  1.
          4    1    4    4  502    0 -0.26751393427E+03  0.41670981988E+02 -0.23770827961E+03  0.36028516756E+03  0.00000000000E+00 0.  1.
         13    1    3    3    0    0 -0.55346514285E+03 -0.55405813371E+03 -0.13940930597E+04  0.15989995467E+04  0.10566000000E+00 0. -1.
         -4    1    3    3    0  501  0.40663265180E+03 -0.40350917919E+03 -0.64804797281E+03  0.86494852232E+03  0.00000000000E+00 0. -1.
<mgrwt>
<rscale>  0 0.13878767E+04</rscale>
<asrwt>0</asrwt>
<pdfrwt beam="1">  1        4 0.14121829E+00 0.13971562E+04</pdfrwt>
<pdfrwt beam="2">  1       -4 0.45281323E+00 0.13786588E+04</pdfrwt>
<totfact> 0.44795441E-02</totfact>
</mgrwt>
</event>
<event>
 8    1  0.2939692E-006  0.1210318E+04  0.7818608E-02  0.8653740E-01
         -4   -1    0    0    0  501 -0.00000000000E+00  0.00000000000E+00  0.71540250695E+03  0.71540250695E+03  0.00000000000E+00 0. -1.
          4   -1    0    0  502    0  0.00000000000E+00 -0.00000000000E+00 -0.37278089888E+04  0.37278089888E+04  0.00000000000E+00 0.  1.
   -9000010    2    1    2    0  501 -0.16129907261E+03  0.38212852130E+03  0.36837439345E+02  0.12108786920E+04  0.11370270939E+04 0.  0.
    9000010    2    1    2  502    0  0.16129907261E+03 -0.38212852130E+03 -0.30492439212E+04  0.32323328038E+04  0.98896272212E+03 0.  0.
        -13    1    4    4    0    0  0.50690988041E+02  0.23053730407E+03 -0.18141389960E+03  0.29770461698E+03  0.10566000000E+00 0.  1.
          4    1    4    4  502    0  0.11060808457E+03 -0.61266582537E+03 -0.28678300216E+04  0.29346281868E+04  0.00000000000E+00 0.  1.
         13    1    3    3    0    0  0.78773803383E+02  0.57421048706E+03 -0.37989947264E+03  0.69299827996E+03  0.10566000000E+00 0. -1.
         -4    1    3    3    0  501 -0.24007287600E+03 -0.19208196576E+03  0.41673691198E+03  0.51788041204E+03  0.00000000000E+00 0. -1.
<mgrwt>
<rscale>  0 0.11392852E+04</rscale>
<asrwt>0</asrwt>
<pdfrwt beam="2">  1        4 0.57350908E+00 0.10724210E+04</pdfrwt>
<pdfrwt beam="1">  1       -4 0.11006192E+00 0.12103182E+04</pdfrwt>
<totfact> 0.17933206E-02</totfact>
</mgrwt>
</event>
<event>
 8    1  0.2939692E-006  0.1054232E+04  0.7818608E-02  0.8730596E-01
         -4   -1    0    0    0  501 -0.00000000000E+00  0.00000000000E+00  0.97274302800E+03  0.97274302800E+03  0.00000000000E+00 0. -1.
          4   -1    0    0  502    0  0.00000000000E+00 -0.00000000000E+00 -0.26524533547E+04  0.26524533547E+04  0.00000000000E+00 0.  1.
   -9000010    2    1    2    0  501 -0.28457182858E+03  0.10328806933E+03  0.53155153172E+03  0.11806577486E+04  0.10098297567E+04 0.  0.
    9000010    2    1    2  502    0  0.28457182858E+03 -0.10328806933E+03 -0.22112618584E+04  0.24445386341E+04  0.99721641393E+03 0.  0.
        -13    1    4    4    0    0  0.20076585100E+03 -0.47711184672E+03 -0.61935402475E+03  0.80718155352E+03  0.10566000000E+00 0.  1.
          4    1    4    4  502    0  0.83805977589E+02  0.37382377739E+03 -0.15919078337E+04  0.16373570806E+04  0.00000000000E+00 0.  1.
         13    1    3    3    0    0 -0.54959194061E+03 -0.22431070558E+03  0.15013663104E+03  0.61229699735E+03  0.10566000000E+00 0. -1.
         -4    1    3    3    0  501  0.26502011203E+03  0.32759877491E+03  0.38141490069E+03  0.56836075125E+03  0.00000000000E+00 0. -1.
<mgrwt>
<rscale>  0 0.10481770E+04</rscale>
<asrwt>0</asrwt>
<pdfrwt beam="2">  1        4 0.40806974E+00 0.10421565E+04</pdfrwt>
<pdfrwt beam="1">  1       -4 0.14965278E+00 0.10542323E+04</pdfrwt>
<totfact> 0.66547845E-02</totfact>
</mgrwt>
</event>
<event>
 8    1  0.2939692E-006  0.1538510E+04  0.7818608E-02  0.8388655E-01
         -4   -1    0    0    0  501 -0.00000000000E+00  0.00000000000E+00  0.10394253345E+04  0.10394253345E+04  0.00000000000E+00 0. -1.
          4   -1    0    0  502    0  0.00000000000E+00 -0.00000000000E+00 -0.22971839258E+04  0.22971839258E+04  0.00000000000E+00 0.  1.
   -9000010    2    1    2    0  501 -0.55782971438E+02  0.11649580466E+04 -0.45506004257E+03  0.16043980081E+04  0.10033814509E+04 0.  0.
    9000010    2    1    2  502    0  0.55782971438E+02 -0.11649580466E+04 -0.80269854875E+03  0.17322112521E+04  0.99799392356E+03 0.  0.
        -13    1    4    4    0    0  0.23014017726E+03 -0.11691487284E+04 -0.93391215669E+03  0.15139567952E+04  0.10566000000E+00 0.  1.
          4    1    4    4  502    0 -0.17435720582E+03  0.41906817752E+01  0.13121360793E+03  0.21825445687E+03  0.00000000000E+00 0.  1.
         13    1    3    3    0    0  0.31105966130E+03  0.57832478018E+03 -0.60898863144E+03  0.89559188732E+03  0.10566000000E+00 0. -1.
         -4    1    3    3    0  501 -0.36684263274E+03  0.58663326641E+03  0.15392858887E+03  0.70880612083E+03  0.00000000000E+00 0. -1.
<mgrwt>
<rscale>  0 0.15367550E+04</rscale>
<asrwt>0</asrwt>
<pdfrwt beam="2">  1        4 0.35341290E+00 0.15350019E+04</pdfrwt>
<pdfrwt beam="1">  1       -4 0.15991159E+00 0.15385101E+04</pdfrwt>
<totfact> 0.93717808E-02</totfact>
</mgrwt>
</event>
<event>
 8    1  0.2939692E-006  0.1371741E+04  0.7818608E-02  0.8487878E-01
         -4   -1    0    0    0  501 -0.00000000000E+00  0.00000000000E+00  0.17775756630E+04  0.17775756630E+04  0.00000000000E+00 0. -1.
          4   -1    0    0  502    0  0.00000000000E+00 -0.00000000000E+00 -0.13085084684E+04  0.13085084684E+04  0.00000000000E+00 0.  1.
   -9000010    2    1    2    0  501 -0.87549244865E+03 -0.33945035465E+03  0.91047616870E+03  0.16450725504E+04  0.99778919185E+03 0.  0.
    9000010    2    1    2  502    0  0.87549244865E+03  0.33945035465E+03 -0.44140897416E+03  0.14410115810E+04  0.99997946141E+03 0.  0.
        -13    1    4    4    0    0  0.10548547978E+04  0.98544313631E+02 -0.42081366800E+03  0.11399621839E+04  0.10566000000E+00 0.  1.
          4    1    4    4  502    0 -0.17936234918E+03  0.24090604101E+03 -0.20595306156E+02  0.30104939717E+03  0.00000000000E+00 0.  1.
         13    1    3    3    0    0 -0.51196767289E+03  0.10794330401E+03  0.93131924144E+03  0.10682313399E+04  0.10566000000E+00 0. -1.
         -4    1    3    3    0  501 -0.36352477577E+03 -0.44739365866E+03 -0.20843072744E+02  0.57684121046E+03  0.00000000000E+00 0. -1.
<mgrwt>
<rscale>  0 0.13709425E+04</rscale>
<asrwt>0</asrwt>
<pdfrwt beam="2">  1        4 0.20130899E+00 0.13717407E+04</pdfrwt>
<pdfrwt beam="1">  1       -4 0.27347318E+00 0.13701448E+04</pdfrwt>
<totfact> 0.11698300E-01</totfact>
</mgrwt>
</event>
<event>
 8    1  0.2939692E-006  0.1251060E+04  0.7818608E-02  0.8570655E-01
         -4   -1    0    0    0  501 -0.00000000000E+00  0.00000000000E+00  0.29664560015E+04  0.29664560015E+04  0.00000000000E+00 0. -1.
          4   -1    0    0  502    0  0.00000000000E+00 -0.00000000000E+00 -0.98809442389E+03  0.98809442389E+03  0.00000000000E+00 0.  1.
   -9000010    2    1    2    0  501  0.55634241272E+03  0.51150017541E+03  0.23426381419E+04  0.26557682538E+04  0.99699661209E+03 0.  0.
    9000010    2    1    2  502    0 -0.55634241272E+03 -0.51150017541E+03 -0.36427656422E+03  0.12987821716E+04  0.99145771694E+03 0.  0.
        -13    1    4    4    0    0 -0.29907369921E+03 -0.17073501486E+02 -0.61770888010E+03  0.68651354956E+03  0.10566000000E+00 0.  1.
          4    1    4    4  502    0 -0.25726871351E+03 -0.49442667393E+03  0.25343231588E+03  0.61226862207E+03  0.00000000000E+00 0.  1.
         13    1    3    3    0    0  0.71563226151E+03  0.50787175678E+03  0.11202169381E+04  0.14230071169E+04  0.10566000000E+00 0. -1.
         -4    1    3    3    0  501 -0.15928984879E+03  0.36284186366E+01  0.12224212038E+04  0.12327611370E+04  0.00000000000E+00 0. -1.
<mgrwt>
<rscale>  0 0.12488534E+04</rscale>
<asrwt>0</asrwt>
<pdfrwt beam="2">  1        4 0.15201453E+00 0.12466506E+04</pdfrwt>
<pdfrwt beam="1">  1       -4 0.45637784E+00 0.12510602E+04</pdfrwt>
<totfact> 0.39014561E-02</totfact>
</mgrwt>
</event>
<event>
 8    1  0.2939692E-006  0.1314720E+04  0.7818608E-02  0.8527429E-01
         -4   -1    0    0    0  501 -0.00000000000E+00  0.00000000000E+00  0.65176863797E+03  0.65176863797E+03  0.00000000000E+00 0. -1.
          4   -1    0    0  502    0  0.00000000000E+00 -0.00000000000E+00 -0.40812297821E+04  0.40812297821E+04  0.00000000000E+00 0.  1.
   -9000010    2    1    2    0  501  0.21189161378E+03  0.81449429492E+03 -0.30355403055E+03  0.13418651810E+04  0.10000790479E+04 0.  0.
    9000010    2    1    2  502    0 -0.21189161378E+03 -0.81449429492E+03 -0.31259071136E+04  0.33911332391E+04  0.10100447266E+04 0.  0.
        -13    1    4    4    0    0 -0.27941722540E+03 -0.27962527584E+03 -0.25583666447E+03  0.47086801844E+03  0.10566000000E+00 0.  1.
          4    1    4    4  502    0  0.67525611618E+02 -0.53486901908E+03 -0.28700704492E+04  0.29202652206E+04  0.00000000000E+00 0.  1.
         13    1    3    3    0    0  0.22005545432E+03  0.78945399155E+03  0.19515178552E+03  0.84246438400E+03  0.10566000000E+00 0. -1.
         -4    1    3    3    0  501 -0.81638405319E+01  0.25040303374E+02 -0.49870581607E+03  0.49940079702E+03  0.00000000000E+00 0. -1.
<mgrwt>
<rscale>  0 0.13108944E+04</rscale>
<asrwt>0</asrwt>
<pdfrwt beam="2">  1        4 0.62788150E+00 0.13147203E+04</pdfrwt>
<pdfrwt beam="1">  1       -4 0.10027210E+00 0.13070796E+04</pdfrwt>
<totfact> 0.10641146E-02</totfact>
</mgrwt>
</event>
<event>
 8    1  0.2939692E-006  0.1249130E+04  0.7818608E-02  0.8573275E-01
         -4   -1    0    0    0  501 -0.00000000000E+00  0.00000000000E+00  0.20536329807E+04  0.20536329807E+04  0.00000000000E+00 0. -1.
          4   -1    0    0  502    0  0.00000000000E+00 -0.00000000000E+00 -0.87382364524E+03  0.87382364524E+03  0.00000000000E+00 0.  1.
   -9000010    2    1    2    0  501  0.72456972784E+03 -0.14021620517E+03  0.48619887954E+02  0.12422521429E+04  0.99808046687E+03 0.  0.
    9000010    2    1    2  502    0 -0.72456972784E+03  0.14021620517E+03  0.11311894475E+04  0.16852044831E+04  0.10078009272E+04 0.  0.
        -13    1    4    4    0    0 -0.98517037599E+02 -0.30789507336E+03  0.78672242781E+01  0.32336803689E+03  0.10566000000E+00 0.  1.
          4    1    4    4  502    0 -0.62605269024E+03  0.44811127853E+03  0.11233222232E+04  0.13618364462E+04  0.00000000000E+00 0.  1.
         13    1    3    3    0    0  0.58443196066E+03  0.28112175406E+03  0.31862415073E+03  0.72257284604E+03  0.10566000000E+00 0. -1.
         -4    1    3    3    0  501  0.14013776718E+03 -0.42133795923E+03 -0.27000426277E+03  0.51967929687E+03  0.00000000000E+00 0. -1.
<mgrwt>
<rscale>  0 0.12452088E+04</rscale>
<asrwt>0</asrwt>
<pdfrwt beam="2">  1        4 0.13443441E+00 0.12491295E+04</pdfrwt>
<pdfrwt beam="1">  1       -4 0.31594353E+00 0.12413003E+04</pdfrwt>
<totfact> 0.16098844E-01</totfact>
</mgrwt>
</event>
<event>
 8    1  0.2939692E-006  0.1058480E+04  0.7818608E-02  0.8728238E-01
          4   -1    0    0  502    0  0.00000000000E+00  0.00000000000E+00  0.94846108015E+03  0.94846108015E+03  0.00000000000E+00 0.  1.
         -4   -1    0    0    0  501 -0.00000000000E+00 -0.00000000000E+00 -0.15280962272E+04  0.15280962272E+04  0.00000000000E+00 0. -1.
   -9000010    2    1    2    0  501 -0.10391815528E+03  0.32471764283E+03 -0.89237314755E+03  0.13728427400E+04  0.98596492008E+03 0.  0.
    9000010    2    1    2  502    0  0.10391815528E+03 -0.32471764283E+03  0.31273800046E+03  0.11037145674E+04  0.10020679911E+04 0.  0.
        -13    1    4    4    0    0  0.52607877729E+03 -0.28370504920E+03  0.32309634919E+03  0.67943998769E+03  0.10566000000E+00 0.  1.
          4    1    4    4  502    0 -0.42216062201E+03 -0.41012593634E+02 -0.10358348726E+02  0.42427457973E+03  0.00000000000E+00 0.  1.
         13    1    3    3    0    0  0.39735540636E+03  0.33290226853E+03 -0.59825522775E+03  0.79159621529E+03  0.10566000000E+00 0. -1.
         -4    1    3    3    0  501 -0.50127356164E+03 -0.81846257035E+01 -0.29411791980E+03  0.58124652467E+03  0.00000000000E+00 0. -1.
<mgrwt>
<rscale>  0 0.10508368E+04</rscale>
<asrwt>0</asrwt>
<pdfrwt beam="1">  1        4 0.14591709E+00 0.10584804E+04</pdfrwt>
<pdfrwt beam="2">  1       -4 0.23509173E+00 0.10432485E+04</pdfrwt>
<totfact> 0.22911785E-01</totfact>
</mgrwt>
</event>
<event>
 8    1  0.2939692E-006  0.1074261E+04  0.7818608E-02  0.8713385E-01
          4   -1    0    0  502    0  0.00000000000E+00  0.00000000000E+00  0.23171836836E+04  0.23171836836E+04  0.00000000000E+00 0.  1.
         -4   -1    0    0    0  501 -0.00000000000E+00 -0.00000000000E+00 -0.20666239175E+04  0.20666239175E+04  0.00000000000E+00 0. -1.
   -9000010    2    1    2    0  501 -0.31437892206E+03  0.12993877888E+03 -0.17881357176E+04  0.20793952459E+04  0.10053541920E+04 0.  0.
    9000010    2    1    2  502    0  0.31437892206E+03 -0.12993877888E+03  0.20386954837E+04  0.23044123552E+04  0.10189793101E+04 0.  0.
        -13    1    4    4    0    0 -0.57186188119E+02  0.37924282755E+03  0.42762761393E+03  0.57442211806E+03  0.10566000000E+00 0.  1.
          4    1    4    4  502    0  0.37156511018E+03 -0.50918160643E+03  0.16110678698E+04  0.17299902371E+04  0.00000000000E+00 0.  1.
         13    1    3    3    0    0 -0.41289510338E+03 -0.34141499702E+03 -0.64185122097E+03  0.83607390081E+03  0.10566000000E+00 0. -1.
         -4    1    3    3    0  501  0.98516181321E+02  0.47135377591E+03 -0.11462844966E+04  0.12433213451E+04  0.00000000000E+00 0. -1.
<mgrwt>
<rscale>  0 0.10677840E+04</rscale>
<asrwt>0</asrwt>
<pdfrwt beam="1">  1        4 0.35648980E+00 0.10742612E+04</pdfrwt>
<pdfrwt beam="2">  1       -4 0.31794214E+00 0.10613460E+04</pdfrwt>
<totfact> 0.35059800E-02</totfact>
</mgrwt>
</event>
<event>
 8    1  0.2939692E-006  0.2353121E+04  0.7818608E-02  0.8041971E-01
         -4   -1    0    0    0  501 -0.00000000000E+00  0.00000000000E+00  0.22703668169E+04  0.22703668169E+04  0.00000000000E+00 0. -1.
          4   -1    0    0  502    0  0.00000000000E+00 -0.00000000000E+00 -0.26656664273E+04  0.26656664273E+04  0.00000000000E+00 0.  1.
   -9000010    2    1    2    0  501  0.79552607132E+03  0.19775440414E+04  0.55984020724E+03  0.23964526028E+04  0.94128733863E+03 0.  0.
    9000010    2    1    2  502    0 -0.79552607132E+03 -0.19775440414E+04 -0.95513981763E+03  0.25395806414E+04  0.99681271925E+03 0.  0.
        -13    1    4    4    0    0 -0.93333317035E+03 -0.12383651799E+04 -0.39006349968E+03  0.15990023985E+04  0.10566000000E+00 0.  1.
          4    1    4    4  502    0  0.13780709904E+03 -0.73917886153E+03 -0.56507631795E+03  0.94057824288E+03  0.00000000000E+00 0.  1.
         13    1    3    3    0    0  0.53586212557E+03  0.14778732107E+04  0.82351466620E+03  0.17746644362E+04  0.10566000000E+00 0. -1.
         -4    1    3    3    0  501  0.25966394575E+03  0.49967083070E+03 -0.26367445896E+03  0.62178816657E+03  0.00000000000E+00 0. -1.
<mgrwt>
<rscale>  0 0.23416035E+04</rscale>
<asrwt>0</asrwt>
<pdfrwt beam="2">  1        4 0.41010253E+00 0.23531209E+04</pdfrwt>
<pdfrwt beam="1">  1       -4 0.34928720E+00 0.23301425E+04</pdfrwt>
<totfact> 0.15307965E-02</totfact>
</mgrwt>
</event>
<event>
 8    1  0.2939692E-006  0.1058564E+04  0.7818608E-02  0.8731732E-01
          4   -1    0    0  502    0  0.00000000000E+00  0.00000000000E+00  0.14368862702E+04  0.14368862702E+04  0.00000000000E+00 0.  1.
         -4   -1    0    0    0  501 -0.00000000000E+00 -0.00000000000E+00 -0.10623743995E+04  0.10623743995E+04  0.00000000000E+00 0. -1.
   -9000010    2    1    2    0  501 -0.29304670980E+03 -0.27323320812E+03 -0.47475101235E+03  0.11601493824E+04  0.97980881079E+03 0.  0.
    9000010    2    1    2  502    0  0.29304670980E+03  0.27323320812E+03  0.84926288305E+03  0.13391112874E+04  0.95469305813E+03 0.  0.
        -13    1    4    4    0    0  0.39437419818E+02 -0.29614695999E+03  0.59527825617E+03  0.66604395157E+03  0.10566000000E+00 0.  1.
          4    1    4    4  502    0  0.25360928998E+03  0.56938016811E+03  0.25398462688E+03  0.67306733578E+03  0.00000000000E+00 0.  1.
         13    1    3    3    0    0 -0.15889446523E+03  0.18028513522E+03  0.21592257327E+03  0.32306771716E+03  0.10566000000E+00 0. -1.
         -4    1    3    3    0  501 -0.13415224457E+03 -0.45351834335E+03 -0.69067358562E+03  0.83708166528E+03  0.00000000000E+00 0. -1.
<mgrwt>
<rscale>  0 0.10468981E+04</rscale>
<asrwt>0</asrwt>
<pdfrwt beam="1">  1        4 0.22105942E+00 0.10353606E+04</pdfrwt>
<pdfrwt beam="2">  1       -4 0.16344222E+00 0.10585642E+04</pdfrwt>
<totfact> 0.21099616E-01</totfact>
</mgrwt>
</event>
<event>
 8    1  0.2939692E-006  0.1151446E+04  0.7818608E-02  0.8665252E-01
          4   -1    0    0  502    0  0.00000000000E+00  0.00000000000E+00  0.25177753893E+04  0.25177753893E+04  0.00000000000E+00 0. -1.
         -4   -1    0    0    0  501 -0.00000000000E+00 -0.00000000000E+00 -0.90935882354E+03  0.90935882354E+03  0.00000000000E+00 0.  1.
   -9000010    2    1    2    0  501  0.87864200499E+02  0.47920587370E+03 -0.35144524262E+03  0.11540556104E+04  0.98537921946E+03 0.  0.
    9000010    2    1    2  502    0 -0.87864200499E+02 -0.47920587370E+03  0.19598618084E+04  0.22730786025E+04  0.10432974829E+04 0.  0.
        -13    1    4    4    0    0  0.28938990588E+03 -0.43070170424E+03  0.36732658908E+03  0.63575098102E+03  0.10566000000E+00 0.  1.
          4    1    4    4  502    0 -0.37725410638E+03 -0.48504169463E+02  0.15925352193E+04  0.16373276214E+04  0.00000000000E+00 0.  1.
         13    1    3    3    0    0 -0.25338802104E+03 -0.19067098096E+03  0.15502176792E+02  0.31749211145E+03  0.10566000000E+00 0. -1.
         -4    1    3    3    0  501  0.34125222154E+03  0.66987685466E+03 -0.36694741941E+03  0.83656349892E+03  0.00000000000E+00 0. -1.
<mgrwt>
<rscale>  0 0.11250407E+04</rscale>
<asrwt>0</asrwt>
<pdfrwt beam="1">  1        4 0.38735006E+00 0.11514461E+04</pdfrwt>
<pdfrwt beam="2">  1       -4 0.13990136E+00 0.10992409E+04</pdfrwt>
<totfact> 0.87889144E-02</totfact>
</mgrwt>
</event>
<event>
 8    1  0.2939692E-006  0.1131632E+04  0.7818608E-02  0.8668468E-01
          4   -1    0    0  502    0  0.00000000000E+00  0.00000000000E+00  0.28563186142E+04  0.28563186142E+04  0.00000000000E+00 0.  1.
         -4   -1    0    0    0  501 -0.00000000000E+00 -0.00000000000E+00 -0.23898448005E+04  0.23898448005E+04  0.00000000000E+00 0. -1.
   -9000010    2    1    2    0  501  0.14475903955E+03  0.47739744602E+03 -0.21364413766E+04  0.24078967989E+04  0.99233146565E+03 0.  0.
    9000010    2    1    2  502    0 -0.14475903955E+03 -0.47739744602E+03  0.26029151903E+04  0.28382666158E+04  0.10157393334E+04 0.  0.
        -13    1    4    4    0    0 -0.50959683982E+02  0.19692798841E+03  0.16753958646E+04  0.16876992731E+04  0.10566000000E+00 0.  1.
          4    1    4    4  502    0 -0.93799355564E+02 -0.67432543443E+03  0.92751932566E+03  0.11505673427E+04  0.00000000000E+00 0.  1.
         13    1    3    3    0    0 -0.11355998467E+03  0.69793855276E+03 -0.10215070697E+04  0.12423730511E+04  0.10566000000E+00 0. -1.
         -4    1    3    3    0  501  0.25831902421E+03 -0.22054110673E+03 -0.11149343069E+04  0.11655237478E+04  0.00000000000E+00 0. -1.
<mgrwt>
<rscale>  0 0.11211012E+04</rscale>
<asrwt>0</asrwt>
<pdfrwt beam="1">  1        4 0.43943363E+00 0.11316315E+04</pdfrwt>
<pdfrwt beam="2">  1       -4 0.36766843E+00 0.11106688E+04</pdfrwt>
<totfact> 0.11315271E-02</totfact>
</mgrwt>
</event>
<event>
 8    1  0.2939692E-006  0.1049035E+04  0.7818608E-02  0.8732327E-01
         -4   -1    0    0    0  501 -0.00000000000E+00  0.00000000000E+00  0.11832864254E+04  0.11832864254E+04  0.00000000000E+00 0. -1.
          4   -1    0    0  502    0  0.00000000000E+00 -0.00000000000E+00 -0.18708764033E+04  0.18708764033E+04  0.00000000000E+00 0.  1.
   -9000010    2    1    2    0  501  0.11946170814E+03  0.30117577862E+03  0.74244450840E+03  0.12806145630E+04  0.99185274187E+03 0.  0.
    9000010    2    1    2  502    0 -0.11946170814E+03 -0.30117577862E+03 -0.14300344863E+04  0.17735482657E+04  0.99774589424E+03 0.  0.
        -13    1    4    4    0    0  0.30148879429E+03  0.12146051244E+03 -0.96174155608E+03  0.10151822403E+04  0.10566000000E+00 0.  1.
          4    1    4    4  502    0 -0.42095050243E+03 -0.42263629106E+03 -0.46829293026E+03  0.75836602544E+03  0.00000000000E+00 0.  1.
         13    1    3    3    0    0  0.43361141254E+02  0.58907892130E+03  0.13767750884E+03  0.60650578868E+03  0.10566000000E+00 0. -1.
         -4    1    3    3    0  501  0.76100566885E+02 -0.28790314269E+03  0.60476699956E+03  0.67410877432E+03  0.00000000000E+00 0. -1.
<mgrwt>
<rscale>  0 0.10462297E+04</rscale>
<asrwt>0</asrwt>
<pdfrwt beam="2">  1        4 0.28782714E+00 0.10490352E+04</pdfrwt>
<pdfrwt beam="1">  1       -4 0.18204407E+00 0.10434317E+04</pdfrwt>
<totfact> 0.12524835E-01</totfact>
</mgrwt>
</event>
<event>
 8    1  0.2939692E-006  0.1194706E+04  0.7818608E-02  0.8618722E-01
          4   -1    0    0  502    0  0.00000000000E+00  0.00000000000E+00  0.26693145748E+04  0.26693145748E+04  0.00000000000E+00 0.  1.
         -4   -1    0    0    0  501 -0.00000000000E+00 -0.00000000000E+00 -0.76591372940E+03  0.76591372940E+03  0.00000000000E+00 0. -1.
   -9000010    2    1    2    0  501 -0.48887879028E+03 -0.40197814896E+03 -0.52962515509E+01  0.11947179823E+04  0.10132788871E+04 0.  0.
    9000010    2    1    2  502    0  0.48887879028E+03  0.40197814896E+03  0.19086970969E+04  0.22405103219E+04  0.98801467138E+03 0.  0.
        -13    1    4    4    0    0  0.36166049122E+03  0.49201901705E+03  0.41409726566E+03  0.73780592342E+03  0.10566000000E+00 0.  1.
          4    1    4    4  502    0  0.12721829906E+03 -0.90040868092E+02  0.14945998313E+04  0.15027043985E+04  0.00000000000E+00 0.  1.
         13    1    3    3    0    0 -0.59522855880E+03 -0.67606388625E+02  0.35128281816E+03  0.69445467130E+03  0.10566000000E+00 0. -1.
         -4    1    3    3    0  501  0.10634976852E+03 -0.33437176033E+03 -0.35657906971E+03  0.50026331099E+03  0.00000000000E+00 0. -1.
<mgrwt>
<rscale>  0 0.11839825E+04</rscale>
<asrwt>0</asrwt>
<pdfrwt beam="1">  1        4 0.41066378E+00 0.11733550E+04</pdfrwt>
<pdfrwt beam="2">  1       -4 0.11783288E+00 0.11947062E+04</pdfrwt>
<totfact> 0.93674044E-02</totfact>
</mgrwt>
</event>
<event>
 8    1  0.2939692E-006  0.1758281E+04  0.7818608E-02  0.8275341E-01
          4   -1    0    0  502    0  0.00000000000E+00  0.00000000000E+00  0.19540976392E+04  0.19540976392E+04  0.00000000000E+00 0.  1.
         -4   -1    0    0    0  501 -0.00000000000E+00 -0.00000000000E+00 -0.15812592832E+04  0.15812592832E+04  0.00000000000E+00 0. -1.
   -9000010    2    1    2    0  501  0.23185617640E+03  0.14254081955E+04  0.12448115181E+03  0.17596223371E+04  0.99761184914E+03 0.  0.
    9000010    2    1    2  502    0 -0.23185617640E+03 -0.14254081955E+04  0.24835720412E+03  0.17757345853E+04  0.10029986073E+04 0.  0.
        -13    1    4    4    0    0  0.12418102268E+03  0.77883853135E+02  0.17615917624E+03  0.22916999697E+03  0.10566000000E+00 0.  1.
          4    1    4    4  502    0 -0.35603719907E+03 -0.15032920487E+04  0.72198027882E+02  0.15465645884E+04  0.00000000000E+00 0.  1.
         13    1    3    3    0    0  0.31246359343E+03  0.15554270561E+04  0.44795117577E+02  0.15871337177E+04  0.10566000000E+00 0. -1.
         -4    1    3    3    0  501 -0.80607417032E+02 -0.13001886054E+03  0.79686034232E+02  0.17248861942E+03  0.00000000000E+00 0. -1.
<mgrwt>
<rscale>  0 0.17567467E+04</rscale>
<asrwt>0</asrwt>
<pdfrwt beam="1">  1        4 0.30063041E+00 0.17582810E+04</pdfrwt>
<pdfrwt beam="2">  1       -4 0.24327066E+00 0.17552137E+04</pdfrwt>
<totfact> 0.75334250E-02</totfact>
</mgrwt>
</event>
<event>
 8    1  0.2939692E-006  0.1073520E+04  0.7818608E-02  0.8709069E-01
         -4   -1    0    0    0  501 -0.00000000000E+00  0.00000000000E+00  0.59572248091E+03  0.59572248091E+03  0.00000000000E+00 0. -1.
          4   -1    0    0  502    0  0.00000000000E+00 -0.00000000000E+00 -0.21965053889E+04  0.21965053889E+04  0.00000000000E+00 0.  1.
   -9000010    2    1    2    0  501 -0.30249534765E+03 -0.25053302866E+03 -0.31527548104E+03  0.11174222435E+04  0.99747862511E+03 0.  0.
    9000010    2    1    2  502    0  0.30249534765E+03  0.25053302866E+03 -0.12855074269E+04  0.16748056263E+04  0.99908673663E+03 0.  0.
        -13    1    4    4    0    0 -0.14081129262E+03 -0.31682942974E+03 -0.33246665326E+03  0.48035694475E+03  0.10566000000E+00 0.  1.
          4    1    4    4  502    0  0.44330664027E+03  0.56736245840E+03 -0.95304077365E+03  0.11944486815E+04  0.00000000000E+00 0.  1.
         13    1    3    3    0    0 -0.11126485776E+03 -0.21341495840E+03 -0.67044688130E+03  0.71233759191E+03  0.10566000000E+00 0. -1.
         -4    1    3    3    0  501 -0.19123048990E+03 -0.37118070263E+02  0.35517140026E+03  0.40508465161E+03  0.00000000000E+00 0. -1.
<mgrwt>
<rscale>  0 0.10727712E+04</rscale>
<asrwt>0</asrwt>
<pdfrwt beam="2">  1        4 0.33792390E+00 0.10735197E+04</pdfrwt>
<pdfrwt beam="1">  1       -4 0.91649615E-01 0.10720232E+04</pdfrwt>
<totfact> 0.27816632E-01</totfact>
</mgrwt>
</event>
<event>
 8    1  0.2939692E-006  0.1457009E+04  0.7818608E-02  0.8445081E-01
         -4   -1    0    0    0  501 -0.00000000000E+00  0.00000000000E+00  0.34163466440E+04  0.34163466440E+04  0.00000000000E+00 0. -1.
          4   -1    0    0  502    0  0.00000000000E+00 -0.00000000000E+00 -0.80573464959E+03  0.80573464959E+03  0.00000000000E+00 0.  1.
   -9000010    2    1    2    0  501  0.10250023002E+04  0.55669449526E+02  0.23424857094E+04  0.27406071665E+04  0.98486523923E+03 0.  0.
    9000010    2    1    2  502    0 -0.10250023002E+04 -0.55669449526E+02  0.26812628501E+03  0.14814741271E+04  0.10339947202E+04 0.  0.
        -13    1    4    4    0    0 -0.25457733034E+03 -0.46981432030E+03  0.28707350070E+03  0.60658578837E+03  0.10566000000E+00 0.  1.
          4    1    4    4  502    0 -0.77042496987E+03  0.41414487077E+03 -0.18947215688E+02  0.87488833869E+03  0.00000000000E+00 0.  1.
         13    1    3    3    0    0  0.99747416378E+03  0.15253213655E+03  0.24144559274E+04  0.26168336204E+04  0.10566000000E+00 0. -1.
         -4    1    3    3    0  501  0.27528136435E+02 -0.96862687029E+02 -0.71970218056E+02  0.12377354613E+03  0.00000000000E+00 0. -1.
<mgrwt>
<rscale>  0 0.14396833E+04</rscale>
<asrwt>0</asrwt>
<pdfrwt beam="2">  1        4 0.12395918E+00 0.14570085E+04</pdfrwt>
<pdfrwt beam="1">  1       -4 0.52559178E+00 0.14225640E+04</pdfrwt>
<totfact> 0.24926661E-02</totfact>
</mgrwt>
</event>
<event>
 8    1  0.2939692E-006  0.1277843E+04  0.7818608E-02  0.8556090E-01
         -4   -1    0    0    0  501 -0.00000000000E+00  0.00000000000E+00  0.59419291999E+03  0.59419291999E+03  0.00000000000E+00 0. -1.
          4   -1    0    0  502    0  0.00000000000E+00 -0.00000000000E+00 -0.29671604587E+04  0.29671604587E+04  0.00000000000E+00 0.  1.
   -9000010    2    1    2    0  501  0.43382957274E+03 -0.65374809334E+03 -0.65688211670E+03  0.14217663022E+04  0.98708187858E+03 0.  0.
    9000010    2    1    2  502    0 -0.43382957274E+03  0.65374809334E+03 -0.17160854220E+04  0.21395870765E+04  0.10086074631E+04 0.  0.
        -13    1    4    4    0    0 -0.29396301761E+03  0.77939863670E+01 -0.13548321074E+04  0.13863783944E+04  0.10566000000E+00 0.  1.
          4    1    4    4  502    0 -0.13986655513E+03  0.64595410697E+03 -0.36125331460E+03  0.75320868215E+03  0.00000000000E+00 0.  1.
         13    1    3    3    0    0  0.56301363912E+02  0.17096654322E+03  0.12915654015E+03  0.22154192720E+03  0.10566000000E+00 0. -1.
         -4    1    3    3    0  501  0.37752820882E+03 -0.82471463655E+03 -0.78603865686E+03  0.12002243750E+04  0.00000000000E+00 0. -1.
<mgrwt>
<rscale>  0 0.12693547E+04</rscale>
<asrwt>0</asrwt>
<pdfrwt beam="2">  1        4 0.45648622E+00 0.12778434E+04</pdfrwt>
<pdfrwt beam="1">  1       -4 0.91414295E-01 0.12609224E+04</pdfrwt>
<totfact> 0.93241234E-02</totfact>
</mgrwt>
</event>
<event>
 8    1  0.2939692E-006  0.1080284E+04  0.7818608E-02  0.8706391E-01
          4   -1    0    0  502    0  0.00000000000E+00  0.00000000000E+00  0.14160343219E+04  0.14160343219E+04  0.00000000000E+00 0.  1.
         -4   -1    0    0    0  501 -0.00000000000E+00 -0.00000000000E+00 -0.81745240889E+03  0.81745240889E+03  0.00000000000E+00 0. -1.
   -9000010    2    1    2    0  501 -0.74314171062E+02 -0.35302977746E+03  0.29557564940E+03  0.11115128802E+04  0.10089317611E+04 0.  0.
    9000010    2    1    2  502    0  0.74314171062E+02  0.35302977746E+03  0.30300626359E+03  0.11219738506E+04  0.10182631810E+04 0.  0.
        -13    1    4    4    0    0  0.48734920610E+03  0.28168849090E+03  0.40148442176E+03  0.69140972416E+03  0.10566000000E+00 0.  1.
          4    1    4    4  502    0 -0.41303503503E+03  0.71341286557E+02 -0.98478158168E+02  0.43056412643E+03  0.00000000000E+00 0.  1.
         13    1    3    3    0    0  0.96585590274E+02  0.29894312975E+03 -0.10038752369E+03  0.32980818236E+03  0.10566000000E+00 0. -1.
         -4    1    3    3    0  501 -0.17089976134E+03 -0.65197290721E+03  0.39596317310E+03  0.78170469783E+03  0.00000000000E+00 0. -1.
<mgrwt>
<rscale>  0 0.10758790E+04</rscale>
<asrwt>0</asrwt>
<pdfrwt beam="1">  1        4 0.21785143E+00 0.10802835E+04</pdfrwt>
<pdfrwt beam="2">  1       -4 0.12576191E+00 0.10714924E+04</pdfrwt>
<totfact> 0.31878478E-01</totfact>
</mgrwt>
</event>
<event>
 8    1  0.2939692E-006  0.1038407E+04  0.7818608E-02  0.8757608E-01
          4   -1    0    0  502    0  0.00000000000E+00  0.00000000000E+00  0.73847636959E+03  0.73847636959E+03  0.00000000000E+00 0.  1.
         -4   -1    0    0    0  501 -0.00000000000E+00 -0.00000000000E+00 -0.25426965686E+04  0.25426965686E+04  0.00000000000E+00 0. -1.
   -9000010    2    1    2    0  501 -0.18080396529E+03  0.15159303416E+03 -0.20093319771E+04  0.22617923517E+04  0.10112463233E+04 0.  0.
    9000010    2    1    2  502    0  0.18080396529E+03 -0.15159303416E+03  0.20511177809E+03  0.10193805865E+04  0.97025533581E+03 0.  0.
        -13    1    4    4    0    0  0.20360357292E+03 -0.52197916167E+03 -0.59760325659E+02  0.56346070654E+03  0.10566000000E+00 0.  1.
          4    1    4    4  502    0 -0.22799607630E+02  0.37038612751E+03  0.26487210375E+03  0.45591987992E+03  0.00000000000E+00 0.  1.
         13    1    3    3    0    0 -0.31340887606E+03  0.45578859267E+03 -0.17651571563E+04  0.18497967895E+04  0.10566000000E+00 0. -1.
         -4    1    3    3    0  501  0.13260491077E+03 -0.30419555851E+03 -0.24417482073E+03  0.41199556218E+03  0.00000000000E+00 0. -1.
<mgrwt>
<rscale>  0 0.10182744E+04</rscale>
<asrwt>0</asrwt>
<pdfrwt beam="1">  1        4 0.11361175E+00 0.99853189E+03</pdfrwt>
<pdfrwt beam="2">  1       -4 0.39118409E+00 0.10384073E+04</pdfrwt>
<totfact> 0.12049115E-01</totfact>
</mgrwt>
</event>
<event>
 8    1  0.2939692E-006  0.1282459E+04  0.7818608E-02  0.8554384E-01
         -4   -1    0    0    0  501 -0.00000000000E+00  0.00000000000E+00  0.10225796727E+04  0.10225796727E+04  0.00000000000E+00 0. -1.
          4   -1    0    0  502    0  0.00000000000E+00 -0.00000000000E+00 -0.24710395021E+04  0.24710395021E+04  0.00000000000E+00 0.  1.
   -9000010    2    1    2    0  501  0.22416587992E+03 -0.73086643319E+03  0.32749650992E+03  0.13030206180E+04  0.10030915621E+04 0.  0.
    9000010    2    1    2  502    0 -0.22416587992E+03  0.73086643319E+03 -0.17759563393E+04  0.21905985568E+04  0.10297014291E+04 0.  0.
        -13    1    4    4    0    0 -0.49996598971E+03  0.35772330868E+03 -0.38758564326E+03  0.72674245677E+03  0.10566000000E+00 0.  1.
          4    1    4    4  502    0  0.27580010980E+03  0.37314312451E+03 -0.13883706961E+04  0.14638561001E+04  0.00000000000E+00 0.  1.
         13    1    3    3    0    0  0.10689941075E+02 -0.83832371440E+03  0.52821925360E+03  0.99091700763E+03  0.10566000000E+00 0. -1.
         -4    1    3    3    0  501  0.21347593884E+03  0.10745728121E+03 -0.20072274369E+03  0.31210361033E+03  0.00000000000E+00 0. -1.
<mgrwt>
<rscale>  0 0.12717818E+04</rscale>
<asrwt>0</asrwt>
<pdfrwt beam="2">  1        4 0.38015992E+00 0.12824590E+04</pdfrwt>
<pdfrwt beam="1">  1       -4 0.15731995E+00 0.12611934E+04</pdfrwt>
<totfact> 0.77867515E-02</totfact>
</mgrwt>
</event>
<event>
 8    1  0.2939692E-006  0.1031618E+04  0.7818608E-02  0.8757201E-01
          4   -1    0    0  502    0  0.00000000000E+00  0.00000000000E+00  0.22163571026E+04  0.22163571026E+04  0.00000000000E+00 0.  1.
         -4   -1    0    0    0  501 -0.00000000000E+00 -0.00000000000E+00 -0.17420686045E+04  0.17420686045E+04  0.00000000000E+00 0. -1.
   -9000010    2    1    2    0  501 -0.82792589694E+02  0.23981908545E+03 -0.14560211120E+04  0.17697431521E+04  0.97346059981E+03 0.  0.
    9000010    2    1    2  502    0  0.82792589694E+02 -0.23981908545E+03  0.19303096101E+04  0.21886825549E+04  0.99993416215E+03 0.  0.
        -13    1    4    4    0    0 -0.28378649389E+03  0.22750754116E+03  0.36860461322E+03  0.51784537021E+03  0.10566000000E+00 0.  1.
          4    1    4    4  502    0  0.36657908358E+03 -0.46732662661E+03  0.15617049969E+04  0.16708371847E+04  0.00000000000E+00 0.  1.
         13    1    3    3    0    0  0.42027615779E+03 -0.41716373907E+02 -0.72130036857E+03  0.83585078664E+03  0.10566000000E+00 0. -1.
         -4    1    3    3    0  501 -0.50306874748E+03  0.28153545935E+03 -0.73472074341E+03  0.93389236551E+03  0.00000000000E+00 0. -1.
<mgrwt>
<rscale>  0 0.10187178E+04</rscale>
<asrwt>0</asrwt>
<pdfrwt beam="1">  1        4 0.34097802E+00 0.10316182E+04</pdfrwt>
<pdfrwt beam="2">  1       -4 0.26801055E+00 0.10059788E+04</pdfrwt>
<totfact> 0.53781475E-02</totfact>
</mgrwt>
</event>
<event>
 8    1  0.2939692E-006  0.1082928E+04  0.7818608E-02  0.8704043E-01
         -4   -1    0    0    0  501 -0.00000000000E+00  0.00000000000E+00  0.30293988034E+04  0.30293988034E+04  0.00000000000E+00 0. -1.
          4   -1    0    0  502    0  0.00000000000E+00 -0.00000000000E+00 -0.18080391824E+04  0.18080391824E+04  0.00000000000E+00 0.  1.
   -9000010    2    1    2    0  501 -0.22545827816E+03 -0.34892093118E+03  0.27566813584E+04  0.29586232290E+04  0.99074822626E+03 0.  0.
    9000010    2    1    2  502    0  0.22545827816E+03  0.34892093118E+03 -0.15353217375E+04  0.18788147568E+04  0.10000773976E+04 0.  0.
        -13    1    4    4    0    0  0.10809553774E+03  0.67496270924E+03 -0.71945470364E+03  0.99240837658E+03  0.10566000000E+00 0.  1.
          4    1    4    4  502    0  0.11736274042E+03 -0.32604177806E+03 -0.81586703387E+03  0.88640638019E+03  0.00000000000E+00 0.  1.
         13    1    3    3    0    0 -0.43326166856E+03 -0.53636846185E+03  0.12629835451E+04  0.14389351085E+04  0.10566000000E+00 0. -1.
         -4    1    3    3    0  501  0.20780339040E+03  0.18744753067E+03  0.14936978134E+04  0.15196881205E+04  0.00000000000E+00 0. -1.
<mgrwt>
<rscale>  0 0.10786142E+04</rscale>
<asrwt>0</asrwt>
<pdfrwt beam="2">  1        4 0.27815987E+00 0.10829275E+04</pdfrwt>
<pdfrwt beam="1">  1       -4 0.46606135E+00 0.10743181E+04</pdfrwt>
<totfact> 0.15706066E-02</totfact>
</mgrwt>
</event>
<event>
 8    1  0.2939692E-006  0.2429999E+04  0.7818608E-02  0.8013100E-01
          4   -1    0    0  502    0  0.00000000000E+00  0.00000000000E+00  0.23637803893E+04  0.23637803893E+04  0.00000000000E+00 0. -1.
         -4   -1    0    0    0  501 -0.00000000000E+00 -0.00000000000E+00 -0.27562641956E+04  0.27562641956E+04  0.00000000000E+00 0.  1.
   -9000010    2    1    2    0  501  0.21812154274E+04 -0.38168495483E+03 -0.98221167188E+03  0.26195099513E+04  0.99684927222E+03 0.  0.
    9000010    2    1    2  502    0 -0.21812154274E+04  0.38168495483E+03  0.58972786562E+03  0.25005346336E+04  0.10007548915E+04 0.  0.
        -13    1    4    4    0    0 -0.21807552437E+04  0.15136671437E+03  0.45221209387E+03  0.22322860713E+04  0.10566000000E+00 0.  1.
          4    1    4    4  502    0 -0.46018361950E+00  0.23031824046E+03  0.13751577176E+03  0.26824856223E+03  0.00000000000E+00 0.  1.
         13    1    3    3    0    0  0.18103992826E+04 -0.69798999499E+03 -0.81014728364E+03  0.21026350677E+04  0.10566000000E+00 0. -1.
         -4    1    3    3    0  501  0.37081614475E+03  0.31630504016E+03 -0.17206438824E+03  0.51687488365E+03  0.00000000000E+00 0. -1.
<mgrwt>
<rscale>  0 0.24291958E+04</rscale>
<asrwt>0</asrwt>
<pdfrwt beam="1">  1        4 0.36365852E+00 0.24299989E+04</pdfrwt>
<pdfrwt beam="2">  1       -4 0.42404065E+00 0.24283930E+04</pdfrwt>
<totfact> 0.11761492E-02</totfact>
</mgrwt>
</event>
<event>
 8    1  0.2939692E-006  0.1100622E+04  0.7818608E-02  0.8691061E-01
         -4   -1    0    0    0  501 -0.00000000000E+00  0.00000000000E+00  0.17656393269E+04  0.17656393269E+04  0.00000000000E+00 0. -1.
          4   -1    0    0  502    0  0.00000000000E+00 -0.00000000000E+00 -0.17457058218E+04  0.17457058218E+04  0.00000000000E+00 0.  1.
   -9000010    2    1    2    0  501  0.42603856787E+03 -0.23835720987E+01  0.13831462384E+04  0.17592843996E+04  0.10002367415E+04 0.  0.
    9000010    2    1    2  502    0 -0.42603856787E+03  0.23835720987E+01 -0.13632127333E+04  0.17520607491E+04  0.10148169143E+04 0.  0.
        -13    1    4    4    0    0  0.24322000083E+03  0.28416620895E+03 -0.44067462295E+03  0.57801430570E+03  0.10566000000E+00 0.  1.
          4    1    4    4  502    0 -0.66925856870E+03 -0.28178263685E+03 -0.92253811034E+03  0.11740464434E+04  0.00000000000E+00 0.  1.
         13    1    3    3    0    0  0.60318469626E+03 -0.36273996966E+02  0.14468804320E+04  0.15679957195E+04  0.10566000000E+00 0. -1.
         -4    1    3    3    0  501 -0.17714612839E+03  0.33890424867E+02 -0.63734193592E+02  0.19128868010E+03  0.00000000000E+00 0. -1.
<mgrwt>
<rscale>  0 0.10938866E+04</rscale>
<asrwt>0</asrwt>
<pdfrwt beam="2">  1        4 0.26857013E+00 0.11006216E+04</pdfrwt>
<pdfrwt beam="1">  1       -4 0.27163682E+00 0.10871928E+04</pdfrwt>
<totfact> 0.82170834E-02</totfact>
</mgrwt>
</event>
<event>
 8    1  0.2939692E-006  0.1408337E+04  0.7818608E-02  0.8524228E-01
          4   -1    0    0  502    0  0.00000000000E+00  0.00000000000E+00  0.20833952358E+04  0.20833952358E+04  0.00000000000E+00 0.  1.
         -4   -1    0    0    0  501 -0.00000000000E+00 -0.00000000000E+00 -0.11239081423E+04  0.11239081423E+04  0.00000000000E+00 0. -1.
   -9000010    2    1    2    0  501  0.50741443093E+03 -0.60236308417E+03 -0.35661881080E+03  0.12797278557E+04  0.94351243687E+03 0.  0.
    9000010    2    1    2  502    0 -0.50741443093E+03  0.60236308417E+03  0.13161059043E+04  0.19275755224E+04  0.11675195730E+04 0.  0.
        -13    1    4    4    0    0 -0.25478630521E+03  0.89519595979E+03  0.58173415810E+03  0.10975912307E+04  0.10566000000E+00 0.  1.
          4    1    4    4  502    0 -0.25262812572E+03 -0.29283287562E+03  0.73437174622E+03  0.82998429178E+03  0.00000000000E+00 0.  1.
         13    1    3    3    0    0  0.31163639747E+03  0.15997898638E+03  0.10696842229E+03  0.36626871944E+03  0.10566000000E+00 0. -1.
         -4    1    3    3    0  501  0.19577803347E+03 -0.76234207055E+03 -0.46358723309E+03  0.91345913625E+03  0.00000000000E+00 0. -1.
<mgrwt>
<rscale>  0 0.13156348E+04</rscale>
<asrwt>0</asrwt>
<pdfrwt beam="1">  1        4 0.32052234E+00 0.14083368E+04</pdfrwt>
<pdfrwt beam="2">  1       -4 0.17290895E+00 0.12290347E+04</pdfrwt>
<totfact> 0.10715146E-01</totfact>
</mgrwt>
</event>
<event>
 8    1  0.2939692E-006  0.1320752E+04  0.7818608E-02  0.8531933E-01
          4   -1    0    0  502    0  0.00000000000E+00  0.00000000000E+00  0.41398667150E+04  0.41398667150E+04  0.00000000000E+00 0.  1.
         -4   -1    0    0    0  501 -0.00000000000E+00 -0.00000000000E+00 -0.66937072668E+03  0.66937072668E+03  0.00000000000E+00 0. -1.
   -9000010    2    1    2    0  501 -0.64450680458E+02  0.81878655560E+03  0.25467590429E+03  0.13450824910E+04  0.10343218926E+04 0.  0.
    9000010    2    1    2  502    0  0.64450680458E+02 -0.81878655560E+03  0.32158200840E+04  0.34641549507E+04  0.99212166370E+03 0.  0.
        -13    1    4    4    0    0  0.42588906186E+03 -0.81494993415E+03  0.24632191137E+04  0.26292533734E+04  0.10566000000E+00 0.  1.
          4    1    4    4  502    0 -0.36143838140E+03 -0.38366214414E+01  0.75260097031E+03  0.83490157727E+03  0.00000000000E+00 0.  1.
         13    1    3    3    0    0 -0.10001411485E+03 -0.11452322835E+03 -0.24309646687E+03  0.28673035482E+03  0.10566000000E+00 0. -1.
         -4    1    3    3    0  501  0.35563434396E+02  0.93330978394E+03  0.49777237116E+03  0.10583521362E+04  0.00000000000E+00 0. -1.
<mgrwt>
<rscale>  0 0.13042590E+04</rscale>
<asrwt>0</asrwt>
<pdfrwt beam="1">  1        4 0.63690255E+00 0.12879715E+04</pdfrwt>
<pdfrwt beam="2">  1       -4 0.10298011E+00 0.13207525E+04</pdfrwt>
<totfact> 0.90544656E-03</totfact>
</mgrwt>
</event>
<event>
 8    1  0.2939692E-006  0.1250133E+04  0.7818608E-02  0.8630006E-01
          4   -1    0    0  502    0  0.00000000000E+00  0.00000000000E+00  0.14481218938E+04  0.14481218938E+04  0.00000000000E+00 0.  1.
         -4   -1    0    0    0  501 -0.00000000000E+00 -0.00000000000E+00 -0.18488189985E+04  0.18488189985E+04  0.00000000000E+00 0. -1.
   -9000010    2    1    2    0  501 -0.14029211877E+03 -0.40173613310E+03 -0.13562685165E+04  0.18445318051E+04  0.11754826634E+04 0.  0.
    9000010    2    1    2  502    0  0.14029211877E+03  0.40173613310E+03  0.95557141181E+03  0.14524090873E+04  0.10076217715E+04 0.  0.
        -13    1    4    4    0    0  0.57164078042E+03  0.16551960257E+03  0.60356952688E+03  0.84762379958E+03  0.10566000000E+00 0.  1.
          4    1    4    4  502    0 -0.43134866166E+03  0.23621653053E+03  0.35200188493E+03  0.60478528769E+03  0.00000000000E+00 0.  1.
         13    1    3    3    0    0 -0.40138612467E+03 -0.49834786815E+03 -0.22310372882E+03  0.67767005522E+03  0.10566000000E+00 0. -1.
         -4    1    3    3    0  501  0.26109400590E+03  0.96611735047E+02 -0.11331647877E+04  0.11668617499E+04  0.00000000000E+00 0. -1.
<mgrwt>
<rscale>  0 0.11693514E+04</rscale>
<asrwt>0</asrwt>
<pdfrwt beam="1">  1        4 0.22278798E+00 0.10937895E+04</pdfrwt>
<pdfrwt beam="2">  1       -4 0.28443369E+00 0.12501333E+04</pdfrwt>
<totfact> 0.97299738E-02</totfact>
</mgrwt>
</event>
<event>
 8    1  0.2939692E-006  0.1276682E+04  0.7818608E-02  0.8553980E-01
          4   -1    0    0  502    0  0.00000000000E+00  0.00000000000E+00  0.92203330150E+03  0.92203330150E+03  0.00000000000E+00 0.  1.
         -4   -1    0    0    0  501 -0.00000000000E+00 -0.00000000000E+00 -0.18451131584E+04  0.18451131584E+04  0.00000000000E+00 0. -1.
   -9000010    2    1    2    0  501  0.45767924288E+03 -0.63268194794E+03 -0.76741585720E+03  0.14895782581E+04  0.10100294809E+04 0.  0.
    9000010    2    1    2  502    0 -0.45767924288E+03  0.63268194794E+03 -0.15566399969E+03  0.12775682018E+04  0.99909583770E+03 0.  0.
        -13    1    4    4    0    0  0.19698573170E+03 -0.55545527644E+02 -0.24992885613E+03  0.32303734834E+03  0.10566000000E+00 0.  1.
          4    1    4    4  502    0 -0.65466497458E+03  0.68822747558E+03  0.94264856438E+02  0.95453085348E+03  0.00000000000E+00 0.  1.
         13    1    3    3    0    0 -0.13087095521E+03 -0.54027678558E+03 -0.51620912730E+02  0.55829288170E+03  0.10566000000E+00 0. -1.
         -4    1    3    3    0  501  0.58855019809E+03 -0.92405162356E+02 -0.71579494447E+03  0.93128537636E+03  0.00000000000E+00 0. -1.
<mgrwt>
<rscale>  0 0.12723582E+04</rscale>
<asrwt>0</asrwt>
<pdfrwt beam="1">  1        4 0.14185128E+00 0.12680494E+04</pdfrwt>
<pdfrwt beam="2">  1       -4 0.28386356E+00 0.12766817E+04</pdfrwt>
<totfact> 0.18089209E-01</totfact>
</mgrwt>
</event>
<event>
 8    1  0.2939692E-006  0.1011751E+04  0.7818608E-02  0.8776203E-01
         -4   -1    0    0    0  501 -0.00000000000E+00  0.00000000000E+00  0.10327272105E+04  0.10327272105E+04  0.00000000000E+00 0. -1.
          4   -1    0    0  502    0  0.00000000000E+00 -0.00000000000E+00 -0.26501891473E+04  0.26501891473E+04  0.00000000000E+00 0.  1.
   -9000010    2    1    2    0  501  0.74842643744E+02 -0.10867017985E+01  0.65561388533E+03  0.12055990995E+04  0.10089782058E+04 0.  0.
    9000010    2    1    2  502    0 -0.74842643744E+02  0.10867017985E+01 -0.22730758222E+04  0.24773172583E+04  0.98215299358E+03 0.  0.
        -13    1    4    4    0    0  0.43982421719E+03 -0.20698354797E+02 -0.75248621060E+03  0.87184245837E+03  0.10566000000E+00 0.  1.
          4    1    4    4  502    0 -0.51466686094E+03  0.21785056596E+02 -0.15205896116E+04  0.16054748000E+04  0.00000000000E+00 0.  1.
         13    1    3    3    0    0  0.91640991438E+02  0.50090547797E+03  0.34367482025E+03  0.61434254485E+03  0.10566000000E+00 0. -1.
         -4    1    3    3    0  501 -0.16798347693E+02 -0.50199217977E+03  0.31193906509E+03  0.59125655460E+03  0.00000000000E+00 0. -1.
<mgrwt>
<rscale>  0 0.99828633E+03</rscale>
<asrwt>0</asrwt>
<pdfrwt beam="2">  1        4 0.40772141E+00 0.98500107E+03</pdfrwt>
<pdfrwt beam="1">  1       -4 0.15888111E+00 0.10117508E+04</pdfrwt>
<totfact> 0.61608607E-02</totfact>
</mgrwt>
</event>
<event>
 8    1  0.2939692E-006  0.1046061E+04  0.7818608E-02  0.8735713E-01
          4   -1    0    0  502    0  0.00000000000E+00  0.00000000000E+00  0.26675875486E+04  0.26675875486E+04  0.00000000000E+00 0.  1.
         -4   -1    0    0    0  501 -0.00000000000E+00 -0.00000000000E+00 -0.47690850767E+03  0.47690850767E+03  0.00000000000E+00 0. -1.
   -9000010    2    1    2    0  501  0.11370205744E+03  0.25222923454E+03  0.49820061264E+03  0.11586399012E+04  0.10088086170E+04 0.  0.
    9000010    2    1    2  502    0 -0.11370205744E+03 -0.25222923454E+03  0.16924784283E+04  0.19858561551E+04  0.10012960070E+04 0.  0.
        -13    1    4    4    0    0 -0.15222862878E+03 -0.80665028658E+01  0.17292466120E+04  0.17359529026E+04  0.10566000000E+00 0.  1.
          4    1    4    4  502    0  0.38526571343E+02 -0.24416273168E+03 -0.36768183693E+02  0.24990325242E+03  0.00000000000E+00 0.  1.
         13    1    3    3    0    0  0.25235002276E+03 -0.16008380230E+03 -0.18297950532E+03  0.35041242598E+03  0.10566000000E+00 0. -1.
         -4    1    3    3    0  501 -0.13864796532E+03  0.41231303685E+03  0.68118011796E+03  0.80822747525E+03  0.00000000000E+00 0. -1.
<mgrwt>
<rscale>  0 0.10424326E+04</rscale>
<asrwt>0</asrwt>
<pdfrwt beam="1">  1        4 0.41039808E+00 0.10388173E+04</pdfrwt>
<pdfrwt beam="2">  1       -4 0.73370541E-01 0.10460605E+04</pdfrwt>
<totfact> 0.23860427E-01</totfact>
</mgrwt>
</event>
<event>
 8    1  0.2939692E-006  0.1111805E+04  0.7818608E-02  0.8676739E-01
         -4   -1    0    0    0  501 -0.00000000000E+00  0.00000000000E+00  0.18877369830E+04  0.18877369830E+04  0.00000000000E+00 0. -1.
          4   -1    0    0  502    0  0.00000000000E+00 -0.00000000000E+00 -0.99035795881E+03  0.99035795881E+03  0.00000000000E+00 0.  1.
   -9000010    2    1    2    0  501  0.36051248338E+03  0.31335927725E+03  0.12876485786E+04  0.17012198706E+04  0.10039655865E+04 0.  0.
    9000010    2    1    2  502    0 -0.36051248338E+03 -0.31335927725E+03 -0.39026955438E+03  0.11768750712E+04  0.10022780656E+04 0.  0.
        -13    1    4    4    0    0 -0.56695774989E+03 -0.14666512696E+03 -0.60017357239E+03  0.83854640765E+03  0.10566000000E+00 0.  1.
          4    1    4    4  502    0  0.20644526651E+03 -0.16669415029E+03  0.20990401801E+03  0.33832866355E+03  0.00000000000E+00 0.  1.
         13    1    3    3    0    0 -0.23363414611E+03  0.39469910951E+03  0.30761567893E+03  0.55226779587E+03  0.10566000000E+00 0. -1.
         -4    1    3    3    0  501  0.59414662949E+03 -0.81339832255E+02  0.98003289962E+03  0.11489520747E+04  0.00000000000E+00 0. -1.
<mgrwt>
<rscale>  0 0.11110429E+04</rscale>
<asrwt>0</asrwt>
<pdfrwt beam="2">  1        4 0.15236276E+00 0.11102813E+04</pdfrwt>
<pdfrwt beam="1">  1       -4 0.29042107E+00 0.11118049E+04</pdfrwt>
<totfact> 0.15759942E-01</totfact>
</mgrwt>
</event>
<event>
 8    1  0.2939692E-006  0.1085925E+04  0.7818608E-02  0.8704765E-01
         -4   -1    0    0    0  501 -0.00000000000E+00  0.00000000000E+00  0.26196784110E+04  0.26196784110E+04  0.00000000000E+00 0. -1.
          4   -1    0    0  502    0  0.00000000000E+00 -0.00000000000E+00 -0.90973547575E+03  0.90973547575E+03  0.00000000000E+00 0.  1.
   -9000010    2    1    2    0  501 -0.43656531087E+03  0.57812110871E+02  0.21215151717E+04  0.23832875188E+04  0.99262342432E+03 0.  0.
    9000010    2    1    2  502    0  0.43656531087E+03 -0.57812110871E+02 -0.41157223648E+03  0.11461263680E+04  0.97482430965E+03 0.  0.
        -13    1    4    4    0    0  0.23297696306E+03 -0.50980795582E+03 -0.12773880290E+03  0.57489097232E+03  0.10566000000E+00 0.  1.
          4    1    4    4  502    0  0.20358834781E+03  0.45199584495E+03 -0.28383343358E+03  0.57123539564E+03  0.00000000000E+00 0.  1.
         13    1    3    3    0    0 -0.25126505711E+03  0.18027147294E+03  0.66511726654E+02  0.31631590827E+03  0.10566000000E+00 0. -1.
         -4    1    3    3    0  501 -0.18530025376E+03 -0.12245936207E+03  0.20550034451E+04  0.20669716105E+04  0.00000000000E+00 0. -1.
<mgrwt>
<rscale>  0 0.10777715E+04</rscale>
<asrwt>0</asrwt>
<pdfrwt beam="2">  1        4 0.13995931E+00 0.10696794E+04</pdfrwt>
<pdfrwt beam="1">  1       -4 0.40302744E+00 0.10859248E+04</pdfrwt>
<totfact> 0.76715232E-02</totfact>
</mgrwt>
</event>
<event>
 8    1  0.2939692E-006  0.1260819E+04  0.7818608E-02  0.8570111E-01
         -4   -1    0    0    0  501 -0.00000000000E+00  0.00000000000E+00  0.17587933472E+04  0.17587933472E+04  0.00000000000E+00 0. -1.
          4   -1    0    0  502    0  0.00000000000E+00 -0.00000000000E+00 -0.21662710192E+04  0.21662710192E+04  0.00000000000E+00 0.  1.
   -9000010    2    1    2    0  501  0.16101601865E+03 -0.78724460976E+03  0.13045840035E+04  0.17988426001E+04  0.94245161343E+03 0.  0.
    9000010    2    1    2  502    0 -0.16101601865E+03  0.78724460976E+03 -0.17120616755E+04  0.21262217664E+04  0.97158817672E+03 0.  0.
        -13    1    4    4    0    0 -0.24225518961E+03  0.11333272355E+03 -0.13105701010E+04  0.13375821036E+04  0.10566000000E+00 0.  1.
          4    1    4    4  502    0  0.81239170955E+02  0.67391188621E+03 -0.40149157455E+03  0.78863966278E+03  0.00000000000E+00 0.  1.
         13    1    3    3    0    0  0.19624304203E+03 -0.99356787534E+03  0.95870411750E+03  0.13945615980E+04  0.10566000000E+00 0. -1.
         -4    1    3    3    0  501 -0.35227023373E+02  0.20632326558E+03  0.34587988604E+03  0.40428100210E+03  0.00000000000E+00 0. -1.
<mgrwt>
<rscale>  0 0.12496122E+04</rscale>
<asrwt>0</asrwt>
<pdfrwt beam="2">  1        4 0.33327246E+00 0.12608187E+04</pdfrwt>
<pdfrwt beam="1">  1       -4 0.27058359E+00 0.12385053E+04</pdfrwt>
<totfact> 0.54364687E-02</totfact>
</mgrwt>
</event>
<event>
 8    1  0.2939692E-006  0.1117558E+04  0.7818608E-02  0.8671498E-01
          4   -1    0    0  502    0  0.00000000000E+00  0.00000000000E+00  0.11126573031E+04  0.11126573031E+04  0.00000000000E+00 0.  1.
         -4   -1    0    0    0  501 -0.00000000000E+00 -0.00000000000E+00 -0.22936256846E+04  0.22936256846E+04  0.00000000000E+00 0. -1.
   -9000010    2    1    2    0  501 -0.50250540487E+03  0.33830887601E+02 -0.18076981456E+04  0.21252550733E+04  0.99763737399E+03 0.  0.
    9000010    2    1    2  502    0  0.50250540487E+03 -0.33830887601E+02  0.62672976406E+03  0.12810279144E+04  0.99728938101E+03 0.  0.
        -13    1    4    4    0    0  0.34588904906E+03 -0.31233702137E+02 -0.22578756033E+03  0.41424004149E+03  0.10566000000E+00 0.  1.
          4    1    4    4  502    0  0.15661635581E+03 -0.25971854647E+01  0.85251732438E+03  0.86678787293E+03  0.00000000000E+00 0.  1.
         13    1    3    3    0    0 -0.20611147631E+03 -0.40139118479E+03 -0.33711740208E+03  0.56324504245E+03  0.10566000000E+00 0. -1.
         -4    1    3    3    0  501 -0.29639392856E+03  0.43522207239E+03 -0.14705807435E+04  0.15620100308E+04  0.00000000000E+00 0. -1.
<mgrwt>
<rscale>  0 0.11174030E+04</rscale>
<asrwt>0</asrwt>
<pdfrwt beam="1">  1        4 0.17117805E+00 0.11172477E+04</pdfrwt>
<pdfrwt beam="2">  1       -4 0.35286549E+00 0.11175583E+04</pdfrwt>
<totfact> 0.88208875E-02</totfact>
</mgrwt>
</event>
<event>
 8    1  0.2939692E-006  0.1153527E+04  0.7818608E-02  0.8648744E-01
         -4   -1    0    0    0  501 -0.00000000000E+00  0.00000000000E+00  0.11556850307E+04  0.11556850307E+04  0.00000000000E+00 0. -1.
          4   -1    0    0  502    0  0.00000000000E+00 -0.00000000000E+00 -0.15726817301E+04  0.15726817301E+04  0.00000000000E+00 0.  1.
   -9000010    2    1    2    0  501 -0.44138435170E+03 -0.39183905309E+03  0.50967303626E+03  0.12611067892E+04  0.99109320476E+03 0.  0.
    9000010    2    1    2  502    0  0.44138435170E+03  0.39183905309E+03 -0.92666973569E+03  0.14672599716E+04  0.97251068672E+03 0.  0.
        -13    1    4    4    0    0  0.47500774184E+03 -0.99042646624E+02 -0.83648551932E+03  0.96703145547E+03  0.10566000000E+00 0.  1.
          4    1    4    4  502    0 -0.33623390139E+02  0.49088169972E+03 -0.90184216371E+02  0.50022851614E+03  0.00000000000E+00 0.  1.
         13    1    3    3    0    0  0.28028575052E+03 -0.73120576099E+02 -0.49840241968E+02  0.29392308769E+03  0.10566000000E+00 0. -1.
         -4    1    3    3    0  501 -0.72167010222E+03 -0.31871847699E+03  0.55951327823E+03  0.96718370154E+03  0.00000000000E+00 0. -1.
<mgrwt>
<rscale>  0 0.11455359E+04</rscale>
<asrwt>0</asrwt>
<pdfrwt beam="2">  1        4 0.24195103E+00 0.11376006E+04</pdfrwt>
<pdfrwt beam="1">  1       -4 0.17779770E+00 0.11535266E+04</pdfrwt>
<totfact> 0.16617931E-01</totfact>
</mgrwt>
</event>
<event>
 8    1  0.2939692E-006  0.1107717E+04  0.7818608E-02  0.8685707E-01
          4   -1    0    0  502    0  0.00000000000E+00  0.00000000000E+00  0.12640311894E+04  0.12640311894E+04  0.00000000000E+00 0.  1.
         -4   -1    0    0    0  501 -0.00000000000E+00 -0.00000000000E+00 -0.22069020225E+04  0.22069020225E+04  0.00000000000E+00 0. -1.
   -9000010    2    1    2    0  501 -0.45386558539E+03  0.10591933398E+02 -0.17784679434E+04  0.20952292024E+04  0.10104113153E+04 0.  0.
    9000010    2    1    2  502    0  0.45386558539E+03 -0.10591933398E+02  0.83559711037E+03  0.13757040096E+04  0.99409900533E+03 0.  0.
        -13    1    4    4    0    0  0.56390479589E+03  0.10193262430E+03  0.50810949079E+02  0.57529178896E+03  0.10566000000E+00 0.  1.
          4    1    4    4  502    0 -0.11003921051E+03 -0.11252455770E+03  0.78478616129E+03  0.80041222060E+03  0.00000000000E+00 0.  1.
         13    1    3    3    0    0 -0.65227986489E+03  0.91947887404E+02 -0.57985801304E+03  0.87758689746E+03  0.10566000000E+00 0. -1.
         -4    1    3    3    0  501  0.19841427950E+03 -0.81355954005E+02 -0.11986099304E+04  0.12176423049E+04  0.00000000000E+00 0. -1.
<mgrwt>
<rscale>  0 0.11002626E+04</rscale>
<asrwt>0</asrwt>
<pdfrwt beam="1">  1        4 0.19446634E+00 0.10928582E+04</pdfrwt>
<pdfrwt beam="2">  1       -4 0.33952339E+00 0.11077171E+04</pdfrwt>
<totfact> 0.82055819E-02</totfact>
</mgrwt>
</event>
<event>
 8    1  0.2939692E-006  0.1505088E+04  0.7818608E-02  0.8411510E-01
          4   -1    0    0  502    0  0.00000000000E+00  0.00000000000E+00  0.30614093684E+04  0.30614093684E+04  0.00000000000E+00 0.  1.
         -4   -1    0    0    0  501 -0.00000000000E+00 -0.00000000000E+00 -0.23617590101E+04  0.23617590101E+04  0.00000000000E+00 0. -1.
   -9000010    2    1    2    0  501  0.11120131689E+04  0.43349769529E+02 -0.19035959983E+04  0.24161464508E+04  0.98774159403E+03 0.  0.
    9000010    2    1    2  502    0 -0.11120131689E+04 -0.43349769529E+02  0.26032463566E+04  0.30070219277E+04  0.10133295566E+04 0.  0.
        -13    1    4    4    0    0 -0.29748330720E+03 -0.35330033264E+03  0.31668758850E+03  0.56000757404E+03  0.10566000000E+00 0.  1.
          4    1    4    4  502    0 -0.81452986166E+03  0.30995056311E+03  0.22865587681E+04  0.24470143537E+04  0.00000000000E+00 0.  1.
         13    1    3    3    0    0  0.10254515370E+04  0.17756522629E+03 -0.19817090971E+04  0.22383590465E+04  0.10566000000E+00 0. -1.
         -4    1    3    3    0  501  0.86561631820E+02 -0.13421545676E+03  0.78113098739E+02  0.17778740431E+03  0.00000000000E+00 0. -1.
<mgrwt>
<rscale>  0 0.14965097E+04</rscale>
<asrwt>0</asrwt>
<pdfrwt beam="1">  1        4 0.47098606E+00 0.15050878E+04</pdfrwt>
<pdfrwt beam="2">  1       -4 0.36334754E+00 0.14879805E+04</pdfrwt>
<totfact> 0.78349291E-03</totfact>
</mgrwt>
</event>
<event>
 8    1  0.2939692E-006  0.1080478E+04  0.7818608E-02  0.8706877E-01
          4   -1    0    0  502    0  0.00000000000E+00  0.00000000000E+00  0.14720098939E+04  0.14720098939E+04  0.00000000000E+00 0.  1.
         -4   -1    0    0    0  501 -0.00000000000E+00 -0.00000000000E+00 -0.14345754350E+04  0.14345754350E+04  0.00000000000E+00 0. -1.
   -9000010    2    1    2    0  501 -0.28399636664E+03 -0.24884578832E+03 -0.95884325520E+03  0.14368905126E+04  0.10013469901E+04 0.  0.
    9000010    2    1    2  502    0  0.28399636664E+03  0.24884578832E+03  0.99627771405E+03  0.14696948162E+04  0.10123514245E+04 0.  0.
        -13    1    4    4    0    0  0.60917528731E+03  0.19739509054E+03  0.31631526648E+03  0.71422315240E+03  0.10566000000E+00 0.  1.
          4    1    4    4  502    0 -0.32517892067E+03  0.51450697774E+02  0.67996244757E+03  0.75547166383E+03  0.00000000000E+00 0.  1.
         13    1    3    3    0    0 -0.15579094326E+03  0.30915891142E+03 -0.32267431739E+02  0.34769418866E+03  0.10566000000E+00 0. -1.
         -4    1    3    3    0  501 -0.12820542338E+03 -0.55800469974E+03 -0.92657582346E+03  0.10891963240E+04  0.00000000000E+00 0. -1.
<mgrwt>
<rscale>  0 0.10753142E+04</rscale>
<asrwt>0</asrwt>
<pdfrwt beam="1">  1        4 0.22646306E+00 0.10804784E+04</pdfrwt>
<pdfrwt beam="2">  1       -4 0.22070391E+00 0.10701747E+04</pdfrwt>
<totfact> 0.13697606E-01</totfact>
</mgrwt>
</event>
<event>
 8    1  0.2939692E-006  0.1132055E+04  0.7818608E-02  0.8665803E-01
         -4   -1    0    0    0  501 -0.00000000000E+00  0.00000000000E+00  0.28242048685E+04  0.28242048685E+04  0.00000000000E+00 0. -1.
          4   -1    0    0  502    0  0.00000000000E+00 -0.00000000000E+00 -0.54698721852E+03  0.54698721852E+03  0.00000000000E+00 0.  1.
   -9000010    2    1    2    0  501  0.42173291438E+03 -0.35046503909E+03  0.18505691115E+04  0.21614081900E+04  0.97282831602E+03 0.  0.
    9000010    2    1    2  502    0 -0.42173291438E+03  0.35046503909E+03  0.42664853851E+03  0.12097838971E+04  0.99038563579E+03 0.  0.
        -13    1    4    4    0    0 -0.66280773824E+03  0.34974141591E+03  0.35438575688E+02  0.75025932829E+03  0.10566000000E+00 0.  1.
          4    1    4    4  502    0  0.24107482386E+03  0.72362317627E+00  0.39120996282E+03  0.45952456881E+03  0.00000000000E+00 0.  1.
         13    1    3    3    0    0  0.70050663207E+03 -0.36109175881E+03  0.10447425509E+04  0.13086572541E+04  0.10566000000E+00 0. -1.
         -4    1    3    3    0  501 -0.27877371769E+03  0.10626719720E+02  0.80582656061E+03  0.85275093587E+03  0.00000000000E+00 0. -1.
<mgrwt>
<rscale>  0 0.11243648E+04</rscale>
<asrwt>0</asrwt>
<pdfrwt beam="2">  1        4 0.84151881E-01 0.11320548E+04</pdfrwt>
<pdfrwt beam="1">  1       -4 0.43449305E+00 0.11167271E+04</pdfrwt>
<totfact> 0.14160893E-01</totfact>
</mgrwt>
</event>
<event>
 8    1  0.2939692E-006  0.1442700E+04  0.7818608E-02  0.8453707E-01
          4   -1    0    0  502    0  0.00000000000E+00  0.00000000000E+00  0.43371465005E+04  0.43371465005E+04  0.00000000000E+00 0.  1.
         -4   -1    0    0    0  501 -0.00000000000E+00 -0.00000000000E+00 -0.92513445972E+03  0.92513445972E+03  0.00000000000E+00 0. -1.
   -9000010    2    1    2    0  501  0.22151739915E+02  0.99683774847E+03 -0.15263412885E+03  0.14167530096E+04  0.99484456904E+03 0.  0.
    9000010    2    1    2  502    0 -0.22151739915E+02 -0.99683774847E+03  0.35646461696E+04  0.38455279506E+04  0.10426920485E+04 0.  0.
        -13    1    4    4    0    0 -0.51884257959E+03 -0.67132317495E+03  0.21409879254E+04  0.23029767119E+04  0.10566000000E+00 0.  1.
          4    1    4    4  502    0  0.49669083968E+03 -0.32551457353E+03  0.14236582442E+04  0.15425512387E+04  0.00000000000E+00 0.  1.
         13    1    3    3    0    0 -0.34099147585E+03  0.50514571447E+02  0.12356167360E+03  0.36618903162E+03  0.10566000000E+00 0. -1.
         -4    1    3    3    0  501  0.36314321577E+03  0.94632317703E+03 -0.27619580245E+03  0.10505639780E+04  0.00000000000E+00 0. -1.
<mgrwt>
<rscale>  0 0.14255009E+04</rscale>
<asrwt>0</asrwt>
<pdfrwt beam="1">  1        4 0.66725330E+00 0.14426999E+04</pdfrwt>
<pdfrwt beam="2">  1       -4 0.14232838E+00 0.14085070E+04</pdfrwt>
<totfact> 0.35173363E-03</totfact>
</mgrwt>
</event>
<event>
 8    1  0.2939692E-006  0.1127946E+04  0.7818608E-02  0.8666958E-01
          4   -1    0    0  502    0  0.00000000000E+00  0.00000000000E+00  0.18616267137E+04  0.18616267137E+04  0.00000000000E+00 0.  1.
         -4   -1    0    0    0  501 -0.00000000000E+00 -0.00000000000E+00 -0.26792592035E+04  0.26792592035E+04  0.00000000000E+00 0. -1.
   -9000010    2    1    2    0  501 -0.52575080666E+03  0.49503067305E+02 -0.23709059822E+04  0.26212710242E+04  0.98539440909E+03 0.  0.
    9000010    2    1    2  502    0  0.52575080666E+03 -0.49503067305E+02  0.15532734925E+04  0.19196148930E+04  0.99669369937E+03 0.  0.
        -13    1    4    4    0    0  0.67698492176E+02  0.42690344961E+03  0.39233640351E+03  0.58374438397E+03  0.10566000000E+00 0.  1.
          4    1    4    4  502    0  0.45805231449E+03 -0.47640651692E+03  0.11609370890E+04  0.13358705090E+04  0.00000000000E+00 0.  1.
         13    1    3    3    0    0 -0.51383867599E+03  0.24880431185E+03 -0.23524824508E+04  0.24207658835E+04  0.10566000000E+00 0. -1.
         -4    1    3    3    0  501 -0.11912130678E+02 -0.19930124454E+03 -0.18423531466E+02  0.20050514069E+03  0.00000000000E+00 0. -1.
<mgrwt>
<rscale>  0 0.11229492E+04</rscale>
<asrwt>0</asrwt>
<pdfrwt beam="1">  1        4 0.28640411E+00 0.11279463E+04</pdfrwt>
<pdfrwt beam="2">  1       -4 0.41219372E+00 0.11179743E+04</pdfrwt>
<totfact> 0.25971252E-02</totfact>
</mgrwt>
</event>
<event>
 8    1  0.2939692E-006  0.1152260E+04  0.7818608E-02  0.8648540E-01
         -4   -1    0    0    0  501 -0.00000000000E+00  0.00000000000E+00  0.11496579827E+04  0.11496579827E+04  0.00000000000E+00 0. -1.
          4   -1    0    0  502    0  0.00000000000E+00 -0.00000000000E+00 -0.11438589260E+04  0.11438589260E+04  0.00000000000E+00 0.  1.
   -9000010    2    1    2    0  501 -0.22310192923E+03 -0.45643334172E+03  0.49471814311E+02  0.11533216675E+04  0.10342134896E+04 0.  0.
    9000010    2    1    2  502    0  0.22310192923E+03  0.45643334172E+03 -0.43672757696E+02  0.11401952412E+04  0.10198195978E+04 0.  0.
        -13    1    4    4    0    0  0.49781372760E+03  0.63861885759E+03 -0.31861577223E+02  0.81035037109E+03  0.10566000000E+00 0.  1.
          4    1    4    4  502    0 -0.27471179837E+03 -0.18218551587E+03 -0.11811180472E+02  0.32984487012E+03  0.00000000000E+00 0.  1.
         13    1    3    3    0    0 -0.55442763482E+03 -0.33035862720E+03 -0.24714891760E+03  0.69109291955E+03  0.10566000000E+00 0. -1.
         -4    1    3    3    0  501  0.33132570559E+03 -0.12607471452E+03  0.29662073191E+03  0.46222874794E+03  0.00000000000E+00 0. -1.
<mgrwt>
<rscale>  0 0.11457912E+04</rscale>
<asrwt>0</asrwt>
<pdfrwt beam="2">  1        4 0.17597830E+00 0.11393585E+04</pdfrwt>
<pdfrwt beam="1">  1       -4 0.17687046E+00 0.11522601E+04</pdfrwt>
<totfact> 0.25435870E-01</totfact>
</mgrwt>
</event>
<event>
 8    1  0.2939692E-006  0.1093346E+04  0.7818608E-02  0.8697453E-01
         -4   -1    0    0    0  501 -0.00000000000E+00  0.00000000000E+00  0.16263807546E+04  0.16263807546E+04  0.00000000000E+00 0. -1.
          4   -1    0    0  502    0  0.00000000000E+00 -0.00000000000E+00 -0.10087306431E+04  0.10087306431E+04  0.00000000000E+00 0.  1.
   -9000010    2    1    2    0  501  0.40556867895E+03 -0.15378213119E+03  0.10053638734E+04  0.14750567778E+04  0.98838306480E+03 0.  0.
    9000010    2    1    2  502    0 -0.40556867895E+03  0.15378213119E+03 -0.38771376190E+03  0.11600546198E+04  0.10036283488E+04 0.  0.
        -13    1    4    4    0    0 -0.61615334549E+03  0.26654550696E+02  0.89485037184E+02  0.62318776727E+03  0.10566000000E+00 0.  1.
          4    1    4    4  502    0  0.21058466654E+03  0.12712758050E+03 -0.47719879908E+03  0.53686685253E+03  0.00000000000E+00 0.  1.
         13    1    3    3    0    0 -0.21629769064E+03  0.22669931540E+03  0.13902465632E+03  0.34279022274E+03  0.10566000000E+00 0. -1.
         -4    1    3    3    0  501  0.62186636959E+03 -0.38048144659E+03  0.86633921704E+03  0.11322665551E+04  0.00000000000E+00 0. -1.
<mgrwt>
<rscale>  0 0.10863345E+04</rscale>
<asrwt>0</asrwt>
<pdfrwt beam="2">  1        4 0.15518933E+00 0.10933457E+04</pdfrwt>
<pdfrwt beam="1">  1       -4 0.25021242E+00 0.10793683E+04</pdfrwt>
<totfact> 0.19266188E-01</totfact>
</mgrwt>
</event>
<event>
 8    1  0.2939692E-006  0.1096894E+04  0.7818608E-02  0.8692440E-01
          4   -1    0    0  502    0  0.00000000000E+00  0.00000000000E+00  0.13242661325E+04  0.13242661325E+04  0.00000000000E+00 0.  1.
         -4   -1    0    0    0  501 -0.00000000000E+00 -0.00000000000E+00 -0.12094650995E+04  0.12094650995E+04  0.00000000000E+00 0. -1.
   -9000010    2    1    2    0  501  0.13285940911E+03 -0.42369584322E+03 -0.58230245115E+03  0.12418743005E+04  0.10029984265E+04 0.  0.
    9000010    2    1    2  502    0 -0.13285940911E+03  0.42369584322E+03  0.69710348417E+03  0.12918569315E+04  0.99286014803E+03 0.  0.
        -13    1    4    4    0    0 -0.35369046618E+03  0.50802326602E+03  0.71561731297E+02  0.62314177940E+03  0.10566000000E+00 0.  1.
          4    1    4    4  502    0  0.22083105707E+03 -0.84327422800E+02  0.62554175287E+03  0.66871515205E+03  0.00000000000E+00 0.  1.
         13    1    3    3    0    0  0.38076759158E+03 -0.62341853784E+03 -0.22732805813E+03  0.76505731111E+03  0.10566000000E+00 0. -1.
         -4    1    3    3    0  501 -0.24790818247E+03  0.19972269461E+03 -0.35497439302E+03  0.47681698940E+03  0.00000000000E+00 0. -1.
<mgrwt>
<rscale>  0 0.10922525E+04</rscale>
<asrwt>0</asrwt>
<pdfrwt beam="1">  1        4 0.20373325E+00 0.10876309E+04</pdfrwt>
<pdfrwt beam="2">  1       -4 0.18607155E+00 0.10968936E+04</pdfrwt>
<totfact> 0.19525670E-01</totfact>
</mgrwt>
</event>
<event>
 8    1  0.2939692E-006  0.1038011E+04  0.7818608E-02  0.8739753E-01
         -4   -1    0    0    0  501 -0.00000000000E+00  0.00000000000E+00  0.19330626717E+04  0.19330626717E+04  0.00000000000E+00 0. -1.
          4   -1    0    0  502    0  0.00000000000E+00 -0.00000000000E+00 -0.62140183990E+03  0.62140183990E+03  0.00000000000E+00 0.  1.
   -9000010    2    1    2    0  501  0.43268785887E+02 -0.28430772787E+03  0.10661203814E+04  0.14879784463E+04  0.99737862272E+03 0.  0.
    9000010    2    1    2  502    0 -0.43268785887E+02  0.28430772787E+03  0.24554045043E+03  0.10664860653E+04  0.99719573945E+03 0.  0.
        -13    1    4    4    0    0 -0.37526420593E+03 -0.21496813968E+03  0.47648177622E+02  0.43509181252E+03  0.10566000000E+00 0.  1.
          4    1    4    4  502    0  0.33199542004E+03  0.49927586755E+03  0.19789227281E+03  0.63139425281E+03  0.00000000000E+00 0.  1.
         13    1    3    3    0    0  0.30763759603E+03 -0.55744119737E+03  0.51719962865E+03  0.82029083017E+03  0.10566000000E+00 0. -1.
         -4    1    3    3    0  501 -0.26436881014E+03  0.27313346950E+03  0.54892075272E+03  0.66768761611E+03  0.00000000000E+00 0. -1.
<mgrwt>
<rscale>  0 0.10379233E+04</rscale>
<asrwt>0</asrwt>
<pdfrwt beam="2">  1        4 0.95600284E-01 0.10378354E+04</pdfrwt>
<pdfrwt beam="1">  1       -4 0.29739425E+00 0.10380112E+04</pdfrwt>
<totfact> 0.33291348E-01</totfact>
</mgrwt>
</event>
<event>
 8    1  0.2939692E-006  0.1031631E+04  0.7818608E-02  0.8757700E-01
         -4   -1    0    0    0  501 -0.00000000000E+00  0.00000000000E+00  0.92960393316E+03  0.92960393316E+03  0.00000000000E+00 0. -1.
          4   -1    0    0  502    0  0.00000000000E+00 -0.00000000000E+00 -0.11570132389E+04  0.11570132389E+04  0.00000000000E+00 0.  1.
   -9000010    2    1    2    0  501 -0.73690201062E+02  0.24730316030E+03  0.82755295973E+02  0.10349449053E+04  0.99883603222E+03 0.  0.
    9000010    2    1    2  502    0  0.73690201062E+02 -0.24730316030E+03 -0.31016460168E+03  0.10516722667E+04  0.97119687888E+03 0.  0.
        -13    1    4    4    0    0 -0.13055015250E+02 -0.22329645694E+03  0.33359927504E+03  0.40164689539E+03  0.10566000000E+00 0.  1.
          4    1    4    4  502    0  0.86745216312E+02 -0.24006703366E+02 -0.64376387671E+03  0.65002537129E+03  0.00000000000E+00 0.  1.
         13    1    3    3    0    0 -0.41090672385E+03  0.54029220116E+02 -0.28250784357E+03  0.50157171488E+03  0.10566000000E+00 0. -1.
         -4    1    3    3    0  501  0.33721652278E+03  0.19327394019E+03  0.36526313954E+03  0.53337319046E+03  0.00000000000E+00 0. -1.
<mgrwt>
<rscale>  0 0.10181749E+04</rscale>
<asrwt>0</asrwt>
<pdfrwt beam="2">  1        4 0.17800204E+00 0.10048943E+04</pdfrwt>
<pdfrwt beam="1">  1       -4 0.14301599E+00 0.10316310E+04</pdfrwt>
<totfact> 0.33974014E-01</totfact>
</mgrwt>
</event>
<event>
 8    1  0.2939692E-006  0.1259017E+04  0.7818608E-02  0.8573294E-01
         -4   -1    0    0    0  501 -0.00000000000E+00  0.00000000000E+00  0.65235113257E+03  0.65235113257E+03  0.00000000000E+00 0. -1.
          4   -1    0    0  502    0  0.00000000000E+00 -0.00000000000E+00 -0.37079795439E+04  0.37079795439E+04  0.00000000000E+00 0.  1.
   -9000010    2    1    2    0  501 -0.76036731317E+03  0.51261852848E+00 -0.21087615969E+03  0.12494243399E+04  0.96872788369E+03 0.  0.
    9000010    2    1    2  502    0  0.76036731317E+03 -0.51261852848E+00 -0.28447522517E+04  0.31109063366E+04  0.10034760326E+04 0.  0.
        -13    1    4    4    0    0  0.56679801901E+03  0.44798711222E+03 -0.12583492128E+04  0.14509980013E+04  0.10566000000E+00 0.  1.
          4    1    4    4  502    0  0.19356929417E+03 -0.44849973075E+03 -0.15864030388E+04  0.16599083354E+04  0.00000000000E+00 0.  1.
         13    1    3    3    0    0 -0.15192988438E+02  0.23251883149E+03  0.25104234869E+03  0.34251730744E+03  0.10566000000E+00 0. -1.
         -4    1    3    3    0  501 -0.74517432474E+03 -0.23200621296E+03 -0.46191850838E+03  0.90690703244E+03  0.00000000000E+00 0. -1.
<mgrwt>
<rscale>  0 0.12451823E+04</rscale>
<asrwt>0</asrwt>
<pdfrwt beam="2">  1        4 0.57045838E+00 0.12590166E+04</pdfrwt>
<pdfrwt beam="1">  1       -4 0.10036172E+00 0.12315001E+04</pdfrwt>
<totfact> 0.21639032E-02</totfact>
</mgrwt>
</event>
<event>
 8    1  0.2939692E-006  0.1063722E+04  0.7818608E-02  0.8726812E-01
          4   -1    0    0  502    0  0.00000000000E+00  0.00000000000E+00  0.29502666816E+04  0.29502666816E+04  0.00000000000E+00 0.  1.
         -4   -1    0    0    0  501 -0.00000000000E+00 -0.00000000000E+00 -0.42159854812E+03  0.42159854812E+03  0.00000000000E+00 0. -1.
   -9000010    2    1    2    0  501 -0.15541649840E+03  0.16045488559E+03  0.71877184338E+03  0.12837982774E+04  0.10400024019E+04 0.  0.
    9000010    2    1    2  502    0  0.15541649840E+03 -0.16045488559E+03  0.18098962901E+04  0.20880669523E+04  0.10170540586E+04 0.  0.
        -13    1    4    4    0    0  0.16645087825E+03 -0.28111506217E+03  0.19057640953E+04  0.19335636455E+04  0.10566000000E+00 0.  1.
          4    1    4    4  502    0 -0.11034379855E+02  0.12066017658E+03 -0.95867805193E+02  0.15450330684E+03  0.00000000000E+00 0.  1.
         13    1    3    3    0    0 -0.49655078995E+03 -0.22761493309E+03  0.39418401886E+03  0.67361138400E+03  0.10566000000E+00 0. -1.
         -4    1    3    3    0  501  0.34113429156E+03  0.38806981868E+03  0.32458782452E+03  0.61018689340E+03  0.00000000000E+00 0. -1.
<mgrwt>
<rscale>  0 0.10524498E+04</rscale>
<asrwt>0</asrwt>
<pdfrwt beam="1">  1        4 0.45388717E+00 0.10412968E+04</pdfrwt>
<pdfrwt beam="2">  1       -4 0.64861317E-01 0.10637223E+04</pdfrwt>
<totfact> 0.19927735E-01</totfact>
</mgrwt>
</event>
<event>
 8    1  0.2939692E-006  0.1091412E+04  0.7818608E-02  0.8698703E-01
          4   -1    0    0  502    0  0.00000000000E+00  0.00000000000E+00  0.57811577313E+03  0.57811577313E+03  0.00000000000E+00 0.  1.
         -4   -1    0    0    0  501 -0.00000000000E+00 -0.00000000000E+00 -0.21597226682E+04  0.21597226682E+04  0.00000000000E+00 0. -1.
   -9000010    2    1    2    0  501 -0.22795898566E+03 -0.35980627162E+03 -0.11230921844E+04  0.15660512828E+04  0.10048655200E+04 0.  0.
    9000010    2    1    2  502    0  0.22795898566E+03  0.35980627162E+03 -0.45851471062E+03  0.11717871585E+04  0.99066823549E+03 0.  0.
        -13    1    4    4    0    0  0.15429768609E+02  0.24055249198E+02 -0.70408580462E+03  0.70466556905E+03  0.10566000000E+00 0.  1.
          4    1    4    4  502    0  0.21252921705E+03  0.33575102242E+03  0.24557109400E+03  0.46712158948E+03  0.00000000000E+00 0.  1.
         13    1    3    3    0    0  0.73703151551E+01 -0.17394123836E+03 -0.12340764789E+04  0.12462963704E+04  0.10566000000E+00 0. -1.
         -4    1    3    3    0  501 -0.23532930082E+03 -0.18586503326E+03  0.11098429442E+03  0.31975491242E+03  0.00000000000E+00 0. -1.
<mgrwt>
<rscale>  0 0.10848639E+04</rscale>
<asrwt>0</asrwt>
<pdfrwt beam="1">  1        4 0.88940889E-01 0.10783550E+04</pdfrwt>
<pdfrwt beam="2">  1       -4 0.33226502E+00 0.10914122E+04</pdfrwt>
<totfact> 0.30635811E-01</totfact>
</mgrwt>
</event>
<event>
 8    1  0.2939692E-006  0.1289902E+04  0.7818608E-02  0.8544039E-01
         -4   -1    0    0    0  501 -0.00000000000E+00  0.00000000000E+00  0.12928525791E+04  0.12928525791E+04  0.00000000000E+00 0. -1.
          4   -1    0    0  502    0  0.00000000000E+00 -0.00000000000E+00 -0.27353454278E+04  0.27353454278E+04  0.00000000000E+00 0.  1.
   -9000010    2    1    2    0  501  0.19105359493E+03 -0.78998404074E+03  0.74679461945E+03  0.14904866950E+04  0.10016347256E+04 0.  0.
    9000010    2    1    2  502    0 -0.19105359493E+03  0.78998404074E+03 -0.21892874681E+04  0.25377113120E+04  0.99318821192E+03 0.  0.
        -13    1    4    4    0    0  0.22699634525E+03  0.67724718807E+03 -0.75431067968E+03  0.10388338208E+04  0.10566000000E+00 0.  1.
          4    1    4    4  502    0 -0.41804994018E+03  0.11273685267E+03 -0.14349767884E+04  0.14988774912E+04  0.00000000000E+00 0.  1.
         13    1    3    3    0    0 -0.37359030664E+03 -0.21816911672E+03  0.47419969724E+03  0.64189784603E+03  0.10566000000E+00 0. -1.
         -4    1    3    3    0  501  0.56464390157E+03 -0.57181492402E+03  0.27259492220E+03  0.84858884892E+03  0.00000000000E+00 0. -1.
<mgrwt>
<rscale>  0 0.12866244E+04</rscale>
<asrwt>0</asrwt>
<pdfrwt beam="2">  1        4 0.42082237E+00 0.12833546E+04</pdfrwt>
<pdfrwt beam="1">  1       -4 0.19890040E+00 0.12899025E+04</pdfrwt>
<totfact> 0.38762620E-02</totfact>
</mgrwt>
</event>
<event>
 8    1  0.2939692E-006  0.1178518E+04  0.7818608E-02  0.8625127E-01
          4   -1    0    0  502    0  0.00000000000E+00  0.00000000000E+00  0.25952868562E+04  0.25952868562E+04  0.00000000000E+00 0.  1.
         -4   -1    0    0    0  501 -0.00000000000E+00 -0.00000000000E+00 -0.76049118914E+03  0.76049118914E+03  0.00000000000E+00 0. -1.
   -9000010    2    1    2    0  501 -0.39903006839E+03  0.44571568139E+03 -0.27338000557E+01  0.11727940849E+04  0.10087373433E+04 0.  0.
    9000010    2    1    2  502    0  0.39903006839E+03 -0.44571568139E+03  0.18375294672E+04  0.21829839605E+04  0.10153900556E+04 0.  0.
        -13    1    4    4    0    0  0.63114299077E+03 -0.45825876121E+02  0.14411605552E+04  0.15739711696E+04  0.10566000000E+00 0.  1.
          4    1    4    4  502    0 -0.23211292238E+03 -0.39988980527E+03  0.39636891194E+03  0.60901279088E+03  0.00000000000E+00 0.  1.
         13    1    3    3    0    0 -0.60121504757E+03  0.15500142511E+02  0.22953219771E+03  0.64372729381E+03  0.10566000000E+00 0. -1.
         -4    1    3    3    0  501  0.20218497918E+03  0.43021553888E+03 -0.23226599776E+03  0.52906679108E+03  0.00000000000E+00 0. -1.
<mgrwt>
<rscale>  0 0.11756509E+04</rscale>
<asrwt>0</asrwt>
<pdfrwt beam="1">  1        4 0.39927490E+00 0.11785179E+04</pdfrwt>
<pdfrwt beam="2">  1       -4 0.11699865E+00 0.11727909E+04</pdfrwt>
<totfact> 0.10532123E-01</totfact>
</mgrwt>
</event>
<event>
 8    1  0.2939692E-006  0.1194652E+04  0.7818608E-02  0.8615585E-01
         -4   -1    0    0    0  501 -0.00000000000E+00  0.00000000000E+00  0.15716339717E+04  0.15716339717E+04  0.00000000000E+00 0. -1.
          4   -1    0    0  502    0  0.00000000000E+00 -0.00000000000E+00 -0.16234641269E+04  0.16234641269E+04  0.00000000000E+00 0.  1.
   -9000010    2    1    2    0  501  0.61284608297E+03  0.17232235197E+03  0.10417938731E+04  0.15850958762E+04  0.10109001674E+04 0.  0.
    9000010    2    1    2  502    0 -0.61284608297E+03 -0.17232235197E+03 -0.10936240284E+04  0.16100022223E+04  0.99539857647E+03 0.  0.
        -13    1    4    4    0    0 -0.78894168806E+03  0.12442413283E+03 -0.93655874477E+03  0.12308747481E+04  0.10566000000E+00 0.  1.
          4    1    4    4  502    0  0.17609560509E+03 -0.29674648480E+03 -0.15706528358E+03  0.37912747418E+03  0.00000000000E+00 0.  1.
         13    1    3    3    0    0  0.78949535167E+03 -0.17066777808E+03  0.67268695169E+03  0.10511603812E+04  0.10566000000E+00 0. -1.
         -4    1    3    3    0  501 -0.17664926870E+03  0.34299013006E+03  0.36910692143E+03  0.53393549507E+03  0.00000000000E+00 0. -1.
<mgrwt>
<rscale>  0 0.11880902E+04</rscale>
<asrwt>0</asrwt>
<pdfrwt beam="2">  1        4 0.24976371E+00 0.11815641E+04</pdfrwt>
<pdfrwt beam="1">  1       -4 0.24178984E+00 0.11946524E+04</pdfrwt>
<totfact> 0.10604828E-01</totfact>
</mgrwt>
</event>
<event>
 8    1  0.2939692E-006  0.1102736E+04  0.7818608E-02  0.8713462E-01
          4   -1    0    0  502    0  0.00000000000E+00  0.00000000000E+00  0.23311627713E+04  0.23311627713E+04  0.00000000000E+00 0.  1.
         -4   -1    0    0    0  501 -0.00000000000E+00 -0.00000000000E+00 -0.63254608031E+03  0.63254608031E+03  0.00000000000E+00 0. -1.
   -9000010    2    1    2    0  501 -0.16855422348E+03  0.20573991256E+03  0.12374671058E+03  0.10411474024E+04  0.99896708017E+03 0.  0.
    9000010    2    1    2  502    0  0.16855422348E+03 -0.20573991256E+03  0.15748699804E+04  0.19225614492E+04  0.10701811215E+04 0.  0.
        -13    1    4    4    0    0  0.28965330198E+03 -0.14440954649E+03  0.17044448048E+04  0.17349020883E+04  0.10566000000E+00 0.  1.
          4    1    4    4  502    0 -0.12109907850E+03 -0.61330366071E+02 -0.12957482435E+03  0.18765936087E+03  0.00000000000E+00 0.  1.
         13    1    3    3    0    0  0.20333009954E+03  0.27682368529E+03  0.43271424254E+03  0.55246367209E+03  0.10566000000E+00 0. -1.
         -4    1    3    3    0  501 -0.37188432303E+03 -0.71083772729E+02 -0.30896753196E+03  0.48868373031E+03  0.00000000000E+00 0. -1.
<mgrwt>
<rscale>  0 0.10676950E+04</rscale>
<asrwt>0</asrwt>
<pdfrwt beam="1">  1        4 0.35864042E+00 0.11027362E+04</pdfrwt>
<pdfrwt beam="2">  1       -4 0.97314783E-01 0.10337672E+04</pdfrwt>
<totfact> 0.21077832E-01</totfact>
</mgrwt>
</event>
<event>
 8    1  0.2939692E-006  0.1242952E+04  0.7818608E-02  0.8579235E-01
         -4   -1    0    0    0  501 -0.00000000000E+00  0.00000000000E+00  0.84342339916E+03  0.84342339916E+03  0.00000000000E+00 0. -1.
          4   -1    0    0  502    0  0.00000000000E+00 -0.00000000000E+00 -0.21063437515E+04  0.21063437515E+04  0.00000000000E+00 0.  1.
   -9000010    2    1    2    0  501 -0.72431011217E+03  0.29676565657E+02 -0.84790709240E+02  0.12458404346E+04  0.10096648389E+04 0.  0.
    9000010    2    1    2  502    0  0.72431011217E+03 -0.29676565657E+02 -0.11781296431E+04  0.17039267161E+04  0.99492259034E+03 0.  0.
        -13    1    4    4    0    0  0.31214788858E+03  0.37148432184E+03 -0.98358419922E+03  0.10967564879E+04  0.10566000000E+00 0.  1.
          4    1    4    4  502    0  0.41216222359E+03 -0.40116088750E+03 -0.19454544385E+03  0.60717022814E+03  0.00000000000E+00 0.  1.
         13    1    3    3    0    0 -0.15128148255E+03 -0.18953977463E+03 -0.46472694627E+03  0.52419706111E+03  0.10566000000E+00 0. -1.
         -4    1    3    3    0  501 -0.57302862963E+03  0.21921634028E+03  0.37993623703E+03  0.72164337344E+03  0.00000000000E+00 0. -1.
<mgrwt>
<rscale>  0 0.12369646E+04</rscale>
<asrwt>0</asrwt>
<pdfrwt beam="2">  1        4 0.32405288E+00 0.12310064E+04</pdfrwt>
<pdfrwt beam="1">  1       -4 0.12975745E+00 0.12429517E+04</pdfrwt>
<totfact> 0.16163002E-01</totfact>
</mgrwt>
</event>
<event>
 8    1  0.2939692E-006  0.1080910E+04  0.7818608E-02  0.8711050E-01
         -4   -1    0    0    0  501 -0.00000000000E+00  0.00000000000E+00  0.90369217671E+03  0.90369217671E+03  0.00000000000E+00 0. -1.
          4   -1    0    0  502    0  0.00000000000E+00 -0.00000000000E+00 -0.31922131164E+04  0.31922131164E+04  0.00000000000E+00 0.  1.
   -9000010    2    1    2    0  501  0.34368116246E+03  0.18072639177E+03  0.44124579139E+03  0.11675034212E+04  0.10087554807E+04 0.  0.
    9000010    2    1    2  502    0 -0.34368116246E+03 -0.18072639177E+03 -0.27297667311E+04  0.29284018719E+04  0.98647470692E+03 0.  0.
        -13    1    4    4    0    0  0.14395839875E+02 -0.48635630506E+03 -0.20121651904E+04  0.20701590423E+04  0.10566000000E+00 0.  1.
          4    1    4    4  502    0 -0.35807700233E+03  0.30562991329E+03 -0.71760154065E+03  0.85824282965E+03  0.00000000000E+00 0.  1.
         13    1    3    3    0    0 -0.18886897068E+03  0.36133571164E+03 -0.62555349057E+02  0.41249020285E+03  0.10566000000E+00 0. -1.
         -4    1    3    3    0  501  0.53255013313E+03 -0.18060931986E+03  0.50380114044E+03  0.75501321832E+03  0.00000000000E+00 0. -1.
<mgrwt>
<rscale>  0 0.10704780E+04</rscale>
<asrwt>0</asrwt>
<pdfrwt beam="2">  1        4 0.49110971E+00 0.10601467E+04</pdfrwt>
<pdfrwt beam="1">  1       -4 0.13902957E+00 0.10809100E+04</pdfrwt>
<totfact> 0.31220931E-02</totfact>
</mgrwt>
</event>
<event>
 8    1  0.2939692E-006  0.1077970E+04  0.7818608E-02  0.8708210E-01
         -4   -1    0    0    0  501 -0.00000000000E+00  0.00000000000E+00  0.56940997188E+03  0.56940997188E+03  0.00000000000E+00 0. -1.
          4   -1    0    0  502    0  0.00000000000E+00 -0.00000000000E+00 -0.23846522646E+04  0.23846522646E+04  0.00000000000E+00 0.  1.
   -9000010    2    1    2    0  501  0.23962866458E+03  0.30329639039E+03 -0.33693503156E+03  0.11294000381E+04  0.10062845687E+04 0.  0.
    9000010    2    1    2  502    0 -0.23962866458E+03 -0.30329639039E+03 -0.14783072612E+04  0.18246621985E+04  0.99729092180E+03 0.  0.
        -13    1    4    4    0    0 -0.29060681535E+03  0.32650664283E+03 -0.57425706669E+03  0.72168559550E+03  0.10566000000E+00 0.  1.
          4    1    4    4  502    0  0.50978150761E+02 -0.62980303322E+03 -0.90405019451E+03  0.11029766030E+04  0.00000000000E+00 0.  1.
         13    1    3    3    0    0  0.51511332165E+03  0.51207471297E+03 -0.28318405756E+03  0.77958672861E+03  0.10566000000E+00 0. -1.
         -4    1    3    3    0  501 -0.27548465706E+03 -0.20877832258E+03 -0.53750974001E+02  0.34981330944E+03  0.00000000000E+00 0. -1.
<mgrwt>
<rscale>  0 0.10737664E+04</rscale>
<asrwt>0</asrwt>
<pdfrwt beam="2">  1        4 0.36686958E+00 0.10695793E+04</pdfrwt>
<pdfrwt beam="1">  1       -4 0.87601534E-01 0.10779700E+04</pdfrwt>
<totfact> 0.24331396E-01</totfact>
</mgrwt>
</event>
<event>
 8    1  0.2939692E-006  0.1132025E+04  0.7818608E-02  0.8659637E-01
         -4   -1    0    0    0  501 -0.00000000000E+00  0.00000000000E+00  0.11354129952E+04  0.11354129952E+04  0.00000000000E+00 0. -1.
          4   -1    0    0  502    0  0.00000000000E+00 -0.00000000000E+00 -0.14432440783E+04  0.14432440783E+04  0.00000000000E+00 0.  1.
   -9000010    2    1    2    0  501  0.34779680257E+03 -0.39741116750E+03  0.44816248967E+03  0.12175100675E+04  0.10012906148E+04 0.  0.
    9000010    2    1    2  502    0 -0.34779680257E+03  0.39741116750E+03 -0.75599357272E+03  0.13611470061E+04  0.10011476606E+04 0.  0.
        -13    1    4    4    0    0 -0.67849203237E+03  0.19353362403E+03 -0.31279311282E+03  0.77178121525E+03  0.10566000000E+00 0.  1.
          4    1    4    4  502    0  0.33069522980E+03  0.20387754347E+03 -0.44320045990E+03  0.58936579083E+03  0.00000000000E+00 0.  1.
         13    1    3    3    0    0  0.16927553349E+02 -0.23844545867E+03  0.72135462997E+03  0.75993111014E+03  0.10566000000E+00 0. -1.
         -4    1    3    3    0  501  0.33086924922E+03 -0.15896570883E+03 -0.27319214030E+03  0.45757895732E+03  0.00000000000E+00 0. -1.
<mgrwt>
<rscale>  0 0.11319620E+04</rscale>
<asrwt>0</asrwt>
<pdfrwt beam="2">  1        4 0.22203755E+00 0.11318988E+04</pdfrwt>
<pdfrwt beam="1">  1       -4 0.17467892E+00 0.11320252E+04</pdfrwt>
<totfact> 0.19074504E-01</totfact>
</mgrwt>
</event>
<event>
 8    1  0.2939692E-006  0.1027324E+04  0.7818608E-02  0.8754349E-01
          4   -1    0    0  502    0  0.00000000000E+00  0.00000000000E+00  0.20801241086E+04  0.20801241086E+04  0.00000000000E+00 0.  1.
         -4   -1    0    0    0  501 -0.00000000000E+00 -0.00000000000E+00 -0.37119388465E+04  0.37119388465E+04  0.00000000000E+00 0. -1.
   -9000010    2    1    2    0  501  0.12012138183E+03  0.22973174753E+03 -0.35084149573E+04  0.36526650467E+04  0.98274137430E+03 0.  0.
    9000010    2    1    2  502    0 -0.12012138183E+03 -0.22973174753E+03  0.18766002194E+04  0.21393979084E+04  0.99407706170E+03 0.  0.
        -13    1    4    4    0    0 -0.47485681667E+03 -0.40329826492E+03  0.10039776154E+04  0.11815707978E+04  0.10566000000E+00 0.  1.
          4    1    4    4  502    0  0.35473543483E+03  0.17356651739E+03  0.87262260405E+03  0.95782711060E+03  0.00000000000E+00 0.  1.
         13    1    3    3    0    0 -0.33201792841E+03 -0.19559351248E+03 -0.16038332024E+04  0.16494767896E+04  0.10566000000E+00 0. -1.
         -4    1    3    3    0  501  0.45213931024E+03  0.42532526001E+03 -0.19045817549E+04  0.20031882572E+04  0.00000000000E+00 0. -1.
<mgrwt>
<rscale>  0 0.10218271E+04</rscale>
<asrwt>0</asrwt>
<pdfrwt beam="1">  1        4 0.32001910E+00 0.10273242E+04</pdfrwt>
<pdfrwt beam="2">  1       -4 0.57106751E+00 0.10163594E+04</pdfrwt>
<totfact> 0.37740124E-03</totfact>
</mgrwt>
</event>
<event>
 8    1  0.2939692E-006  0.1107842E+04  0.7818608E-02  0.8680133E-01
         -4   -1    0    0    0  501 -0.00000000000E+00  0.00000000000E+00  0.12690646819E+04  0.12690646819E+04  0.00000000000E+00 0. -1.
          4   -1    0    0  502    0  0.00000000000E+00 -0.00000000000E+00 -0.31539729137E+04  0.31539729137E+04  0.00000000000E+00 0.  1.
   -9000010    2    1    2    0  501 -0.43011193847E+03  0.19881734640E+03  0.89994227832E+03  0.14259211363E+04  0.99941501185E+03 0.  0.
    9000010    2    1    2  502    0  0.43011193847E+03 -0.19881734640E+03 -0.27848505101E+04  0.29971164593E+04  0.10013940733E+04 0.  0.
        -13    1    4    4    0    0  0.43334381548E+03 -0.47750733094E+03 -0.99485750266E+03  0.11855553868E+04  0.10566000000E+00 0.  1.
          4    1    4    4  502    0 -0.32318770121E+01  0.27868998453E+03 -0.17899930075E+04  0.18115610725E+04  0.00000000000E+00 0.  1.
         13    1    3    3    0    0 -0.39489887600E+03  0.57240093389E+03  0.74734796246E+03  0.10208412901E+04  0.10566000000E+00 0. -1.
         -4    1    3    3    0  501 -0.35213062466E+02 -0.37358358749E+03  0.15259431586E+03  0.40507984626E+03  0.00000000000E+00 0. -1.
<mgrwt>
<rscale>  0 0.11069477E+04</rscale>
<asrwt>0</asrwt>
<pdfrwt beam="2">  1        4 0.48522660E+00 0.11078424E+04</pdfrwt>
<pdfrwt beam="1">  1       -4 0.19524072E+00 0.11060538E+04</pdfrwt>
<totfact> 0.20475933E-02</totfact>
</mgrwt>
</event>
<event>
 8    1  0.2939692E-006  0.1477405E+04  0.7818608E-02  0.8488220E-01
          4   -1    0    0  502    0  0.00000000000E+00  0.00000000000E+00  0.16590277390E+04  0.16590277390E+04  0.00000000000E+00 0.  1.
         -4   -1    0    0    0  501 -0.00000000000E+00 -0.00000000000E+00 -0.12150453307E+04  0.12150453307E+04  0.00000000000E+00 0. -1.
   -9000010    2    1    2    0  501  0.21545793836E+03 -0.75300770534E+03 -0.15355689443E+03  0.12804045801E+04  0.10012059935E+04 0.  0.
    9000010    2    1    2  502    0 -0.21545793836E+03  0.75300770534E+03  0.59753930277E+03  0.15936684896E+04  0.12527103851E+04 0.  0.
        -13    1    4    4    0    0  0.46720079629E+02 -0.34519351748E+03  0.14179778364E+03  0.37609566996E+03  0.10566000000E+00 0.  1.
          4    1    4    4  502    0 -0.26217801799E+03  0.10982012228E+04  0.45574151913E+03  0.12175728197E+04  0.00000000000E+00 0.  1.
         13    1    3    3    0    0 -0.16692294048E+02  0.20282739837E+03 -0.21349906969E+03  0.29495669196E+03  0.10566000000E+00 0. -1.
         -4    1    3    3    0  501  0.23215023241E+03 -0.95583510371E+03  0.59942175255E+02  0.98544788816E+03  0.00000000000E+00 0. -1.
<mgrwt>
<rscale>  0 0.13704099E+04</rscale>
<asrwt>0</asrwt>
<pdfrwt beam="1">  1        4 0.25523504E+00 0.14774052E+04</pdfrwt>
<pdfrwt beam="2">  1       -4 0.18693005E+00 0.12711633E+04</pdfrwt>
<totfact> 0.14220017E-01</totfact>
</mgrwt>
</event>
<event>
 8    1  0.2939692E-006  0.1342185E+04  0.7818608E-02  0.8513837E-01
         -4   -1    0    0    0  501 -0.00000000000E+00  0.00000000000E+00  0.26106405308E+04  0.26106405308E+04  0.00000000000E+00 0. -1.
          4   -1    0    0  502    0  0.00000000000E+00 -0.00000000000E+00 -0.17056914833E+04  0.17056914833E+04  0.00000000000E+00 0.  1.
   -9000010    2    1    2    0  501 -0.41191494145E+03  0.79768135899E+03  0.21255061147E+04  0.25021600199E+04  0.96801810536E+03 0.  0.
    9000010    2    1    2  502    0  0.41191494145E+03 -0.79768135899E+03 -0.12205570671E+04  0.18141719942E+04  0.99774295338E+03 0.  0.
        -13    1    4    4    0    0  0.62021946463E+03 -0.21303369395E+03 -0.90580610236E+03  0.11182755677E+04  0.10566000000E+00 0.  1.
          4    1    4    4  502    0 -0.20830452318E+03 -0.58464766504E+03 -0.31475096473E+03  0.69589642650E+03  0.00000000000E+00 0.  1.
         13    1    3    3    0    0 -0.58083943923E+03  0.10810106521E+03  0.75513500800E+03  0.95879569561E+03  0.10566000000E+00 0. -1.
         -4    1    3    3    0  501  0.16892449778E+03  0.68958029378E+03  0.13703711067E+04  0.15433643243E+04  0.00000000000E+00 0. -1.
<mgrwt>
<rscale>  0 0.13311663E+04</rscale>
<asrwt>0</asrwt>
<pdfrwt beam="2">  1        4 0.26241407E+00 0.13421850E+04</pdfrwt>
<pdfrwt beam="1">  1       -4 0.40163701E+00 0.13202381E+04</pdfrwt>
<totfact> 0.31994718E-02</totfact>
</mgrwt>
</event>
<event>
 8    1  0.2939692E-006  0.1087222E+04  0.7818608E-02  0.8700550E-01
          4   -1    0    0  502    0  0.00000000000E+00  0.00000000000E+00  0.11323388850E+04  0.11323388850E+04  0.00000000000E+00 0.  1.
         -4   -1    0    0    0  501 -0.00000000000E+00 -0.00000000000E+00 -0.17687101379E+04  0.17687101379E+04  0.00000000000E+00 0. -1.
   -9000010    2    1    2    0  501 -0.41743996454E+03 -0.10258251970E+03 -0.12530387631E+04  0.16589627180E+04  0.99863499877E+03 0.  0.
    9000010    2    1    2  502    0  0.41743996454E+03  0.10258251970E+03  0.61666751021E+03  0.12420863049E+04  0.98879738741E+03 0.  0.
        -13    1    4    4    0    0 -0.15171170959E+03 -0.42839808260E+02 -0.18829192790E+03  0.24557189024E+03  0.10566000000E+00 0.  1.
          4    1    4    4  502    0  0.56915167412E+03  0.14542232796E+03  0.80495943812E+03  0.99651441467E+03  0.00000000000E+00 0.  1.
         13    1    3    3    0    0 -0.10926801890E+03 -0.47309173471E+03 -0.24993080310E+03  0.54609587703E+03  0.10566000000E+00 0. -1.
         -4    1    3    3    0  501 -0.30817194564E+03  0.37050921501E+03 -0.10031079600E+04  0.11128668410E+04  0.00000000000E+00 0. -1.
<mgrwt>
<rscale>  0 0.10826978E+04</rscale>
<asrwt>0</asrwt>
<pdfrwt beam="1">  1        4 0.17420598E+00 0.10781927E+04</pdfrwt>
<pdfrwt beam="2">  1       -4 0.27210925E+00 0.10872218E+04</pdfrwt>
<totfact> 0.14569394E-01</totfact>
</mgrwt>
</event>
<event>
 8    1  0.2939692E-006  0.1050670E+04  0.7818608E-02  0.8728879E-01
         -4   -1    0    0    0  501 -0.00000000000E+00  0.00000000000E+00  0.21535958209E+04  0.21535958209E+04  0.00000000000E+00 0. -1.
          4   -1    0    0  502    0  0.00000000000E+00 -0.00000000000E+00 -0.12887446548E+04  0.12887446548E+04  0.00000000000E+00 0.  1.
   -9000010    2    1    2    0  501  0.23364700057E+03 -0.24750157609E+03  0.17685206928E+04  0.20565100313E+04  0.99283438547E+03 0.  0.
    9000010    2    1    2  502    0 -0.23364700057E+03  0.24750157609E+03 -0.90366952660E+03  0.13858304444E+04  0.99401179888E+03 0.  0.
        -13    1    4    4    0    0 -0.17915650697E+02 -0.37608274007E+03 -0.22188158058E+03  0.43702476461E+03  0.10566000000E+00 0.  1.
          4    1    4    4  502    0 -0.21573134988E+03  0.62358431616E+03 -0.68178794602E+03  0.94880567980E+03  0.00000000000E+00 0.  1.
         13    1    3    3    0    0  0.18594716979E+02 -0.61270294130E+03  0.88449435162E+03  0.10761416854E+04  0.10566000000E+00 0. -1.
         -4    1    3    3    0  501  0.21505228359E+03  0.36520136521E+03  0.88402634114E+03  0.98036834591E+03  0.00000000000E+00 0. -1.
<mgrwt>
<rscale>  0 0.10501129E+04</rscale>
<asrwt>0</asrwt>
<pdfrwt beam="2">  1        4 0.19826841E+00 0.10506700E+04</pdfrwt>
<pdfrwt beam="1">  1       -4 0.33132243E+00 0.10495561E+04</pdfrwt>
<totfact> 0.84895418E-02</totfact>
</mgrwt>
</event>
<event>
 8    1  0.2939692E-006  0.1602444E+04  0.7818608E-02  0.8361829E-01
          4   -1    0    0  502    0  0.00000000000E+00  0.00000000000E+00  0.29055232541E+04  0.29055232541E+04  0.00000000000E+00 0.  1.
         -4   -1    0    0    0  501 -0.00000000000E+00 -0.00000000000E+00 -0.89993252187E+03  0.89993252187E+03  0.00000000000E+00 0. -1.
   -9000010    2    1    2    0  501  0.11193874711E+04 -0.49710182565E+03  0.64063676906E+03  0.17257585363E+04  0.10332901432E+04 0.  0.
    9000010    2    1    2  502    0 -0.11193874711E+04  0.49710182565E+03  0.13649539632E+04  0.20796972397E+04  0.98076641043E+03 0.  0.
        -13    1    4    4    0    0  0.11966780195E+03 -0.46360624134E+02 -0.34755596761E+02  0.13295733513E+03  0.10566000000E+00 0.  1.
          4    1    4    4  502    0 -0.12390552730E+04  0.54346244978E+03  0.13997095599E+04  0.19467399046E+04  0.00000000000E+00 0.  1.
         13    1    3    3    0    0  0.86686521257E+03 -0.79952737257E+03  0.33156184476E+03  0.12250030956E+04  0.10566000000E+00 0. -1.
         -4    1    3    3    0  501  0.25252225851E+03  0.30242554693E+03  0.30907492429E+03  0.50075544061E+03  0.00000000000E+00 0. -1.
<mgrwt>
<rscale>  0 0.15856790E+04</rscale>
<asrwt>0</asrwt>
<pdfrwt beam="1">  1        4 0.44700357E+00 0.15690893E+04</pdfrwt>
<pdfrwt beam="2">  1       -4 0.13845116E+00 0.16024441E+04</pdfrwt>
<totfact> 0.48494804E-02</totfact>
</mgrwt>
</event>
<event>
 8    1  0.2939692E-006  0.1138790E+04  0.7818608E-02  0.8654185E-01
         -4   -1    0    0    0  501 -0.00000000000E+00  0.00000000000E+00  0.67918421520E+03  0.67918421520E+03  0.00000000000E+00 0. -1.
          4   -1    0    0  502    0  0.00000000000E+00 -0.00000000000E+00 -0.20308045282E+04  0.20308045282E+04  0.00000000000E+00 0.  1.
   -9000010    2    1    2    0  501  0.46956522025E+03  0.26343626391E+03 -0.34422387881E+03  0.11895646746E+04  0.10033363719E+04 0.  0.
    9000010    2    1    2  502    0 -0.46956522025E+03 -0.26343626391E+03 -0.10073964342E+04  0.15204240688E+04  0.10034697863E+04 0.  0.
        -13    1    4    4    0    0 -0.50993460241E+03 -0.56446689451E+03 -0.94013021366E+03  0.12093390772E+04  0.10566000000E+00 0.  1.
          4    1    4    4  502    0  0.40369382159E+02  0.30103063060E+03 -0.67266220526E+02  0.31108499160E+03  0.00000000000E+00 0.  1.
         13    1    3    3    0    0  0.93418288767E+02 -0.36952490556E+03 -0.22804647017E+03  0.44416307391E+03  0.10566000000E+00 0. -1.
         -4    1    3    3    0  501  0.37614693148E+03  0.63296116947E+03 -0.11617740865E+03  0.74540160074E+03  0.00000000000E+00 0. -1.
<mgrwt>
<rscale>  0 0.11387308E+04</rscale>
<asrwt>0</asrwt>
<pdfrwt beam="2">  1        4 0.31243146E+00 0.11387896E+04</pdfrwt>
<pdfrwt beam="1">  1       -4 0.10448988E+00 0.11386720E+04</pdfrwt>
<totfact> 0.25459545E-01</totfact>
</mgrwt>
</event>
<event>
 8    1  0.2939692E-006  0.1186291E+04  0.7818608E-02  0.8620811E-01
         -4   -1    0    0    0  501 -0.00000000000E+00  0.00000000000E+00  0.16721149544E+04  0.16721149544E+04  0.00000000000E+00 0. -1.
          4   -1    0    0  502    0  0.00000000000E+00 -0.00000000000E+00 -0.10817493599E+04  0.10817493599E+04  0.00000000000E+00 0.  1.
   -9000010    2    1    2    0  501  0.65175008864E+03 -0.19117643344E+03  0.95248864988E+03  0.15135343712E+04  0.96032549574E+03 0.  0.
    9000010    2    1    2  502    0 -0.65175008864E+03  0.19117643344E+03 -0.36212305535E+03  0.12403299431E+04  0.97260405808E+03 0.  0.
        -13    1    4    4    0    0 -0.28250659273E+03 -0.35782362275E+03 -0.35641019153E+03  0.57868467728E+03  0.10566000000E+00 0.  1.
          4    1    4    4  502    0 -0.36924349591E+03  0.54900005618E+03 -0.57128638144E+01  0.66164526581E+03  0.00000000000E+00 0.  1.
         13    1    3    3    0    0  0.20873909248E+03 -0.56033029866E+03  0.52478850938E+03  0.79557843301E+03  0.10566000000E+00 0. -1.
         -4    1    3    3    0  501  0.44301099617E+03  0.36915386523E+03  0.42770014050E+03  0.71795593815E+03  0.00000000000E+00 0. -1.
<mgrwt>
<rscale>  0 0.11812570E+04</rscale>
<asrwt>0</asrwt>
<pdfrwt beam="2">  1        4 0.16642298E+00 0.11862905E+04</pdfrwt>
<pdfrwt beam="1">  1       -4 0.25724845E+00 0.11762447E+04</pdfrwt>
<totfact> 0.16706309E-01</totfact>
</mgrwt>
</event>
<event>
 8    1  0.2939692E-006  0.1210248E+04  0.7818608E-02  0.8639919E-01
         -4   -1    0    0    0  501 -0.00000000000E+00  0.00000000000E+00  0.29639420507E+04  0.29639420507E+04  0.00000000000E+00 0. -1.
          4   -1    0    0  502    0  0.00000000000E+00 -0.00000000000E+00 -0.91269250705E+03  0.91269250705E+03  0.00000000000E+00 0.  1.
   -9000010    2    1    2    0  501 -0.35665634214E+03 -0.30482668603E+03  0.23785616992E+04  0.26229063373E+04  0.10009789420E+04 0.  0.
    9000010    2    1    2  502    0  0.35665634214E+03  0.30482668603E+03 -0.32731215560E+03  0.12537282204E+04  0.11156066281E+04 0.  0.
        -13    1    4    4    0    0 -0.38873233140E+03  0.15210664613E+03  0.18751669571E+02  0.41785271753E+03  0.10566000000E+00 0.  1.
          4    1    4    4  502    0  0.74538867354E+03  0.15272003990E+03 -0.34606382517E+03  0.83587550289E+03  0.00000000000E+00 0.  1.
         13    1    3    3    0    0 -0.44466537955E+03  0.20477808077E+03  0.62054211766E+03  0.79040109634E+03  0.10566000000E+00 0. -1.
         -4    1    3    3    0  501  0.88009037410E+02 -0.50960476680E+03  0.17580195816E+04  0.18325052410E+04  0.00000000000E+00 0. -1.
<mgrwt>
<rscale>  0 0.11566776E+04</rscale>
<asrwt>0</asrwt>
<pdfrwt beam="2">  1        4 0.14041423E+00 0.12102484E+04</pdfrwt>
<pdfrwt beam="1">  1       -4 0.45599108E+00 0.11054781E+04</pdfrwt>
<totfact> 0.44752364E-02</totfact>
</mgrwt>
</event>
<event>
 8    1  0.2939692E-006  0.1276409E+04  0.7818608E-02  0.8561606E-01
         -4   -1    0    0    0  501 -0.00000000000E+00  0.00000000000E+00  0.22816814905E+04  0.22816814905E+04  0.00000000000E+00 0. -1.
          4   -1    0    0  502    0  0.00000000000E+00 -0.00000000000E+00 -0.70718623230E+03  0.70718623230E+03  0.00000000000E+00 0.  1.
   -9000010    2    1    2    0  501 -0.71039580139E+03 -0.35236605753E+03  0.97028695604E+03  0.16033327565E+04  0.10001975394E+04 0.  0.
    9000010    2    1    2  502    0  0.71039580139E+03  0.35236605753E+03  0.60420830216E+03  0.13855349663E+04  0.96219303539E+03 0.  0.
        -13    1    4    4    0    0  0.63192831501E+03  0.51181446521E+02  0.79777211456E+03  0.10190158457E+04  0.10566000000E+00 0.  1.
          4    1    4    4  502    0  0.78467486377E+02  0.30118461101E+03 -0.19356381241E+03  0.36651912064E+03  0.00000000000E+00 0.  1.
         13    1    3    3    0    0 -0.35525573567E+03  0.36825681270E+02 -0.13266302352E+03  0.38100165026E+03  0.10566000000E+00 0. -1.
         -4    1    3    3    0  501 -0.35514006572E+03 -0.38919173880E+03  0.11029499796E+04  0.12223311062E+04  0.00000000000E+00 0. -1.
<mgrwt>
<rscale>  0 0.12615437E+04</rscale>
<asrwt>0</asrwt>
<pdfrwt beam="2">  1        4 0.10879788E+00 0.12468518E+04</pdfrwt>
<pdfrwt beam="1">  1       -4 0.35102792E+00 0.12764087E+04</pdfrwt>
<totfact> 0.18009715E-01</totfact>
</mgrwt>
</event>
<event>
 8    1  0.2939692E-006  0.1112594E+04  0.7818608E-02  0.8683973E-01
          4   -1    0    0  502    0  0.00000000000E+00  0.00000000000E+00  0.13082727751E+04  0.13082727751E+04  0.00000000000E+00 0.  1.
         -4   -1    0    0    0  501 -0.00000000000E+00 -0.00000000000E+00 -0.14953278860E+04  0.14953278860E+04  0.00000000000E+00 0. -1.
   -9000010    2    1    2    0  501 -0.35172835144E+03  0.33553899709E+03 -0.95680482653E+03  0.14674268526E+04  0.10007831133E+04 0.  0.
    9000010    2    1    2  502    0  0.35172835144E+03 -0.33553899709E+03  0.76974971562E+03  0.13361738085E+04  0.97803198831E+03 0.  0.
        -13    1    4    4    0    0  0.92404844919E+02 -0.63996501587E+03  0.65440386820E+03  0.91996647264E+03  0.10566000000E+00 0.  1.
          4    1    4    4  502    0  0.25932350652E+03  0.30442601878E+03  0.11534584742E+03  0.41620733590E+03  0.00000000000E+00 0.  1.
         13    1    3    3    0    0 -0.44905814202E+03 -0.16737610140E+03 -0.13300168709E+03  0.49735041386E+03  0.10566000000E+00 0. -1.
         -4    1    3    3    0  501  0.97329790574E+02  0.50291509849E+03 -0.82380313944E+03  0.97007643872E+03  0.00000000000E+00 0. -1.
<mgrwt>
<rscale>  0 0.11023373E+04</rscale>
<asrwt>0</asrwt>
<pdfrwt beam="1">  1        4 0.20127273E+00 0.10921748E+04</pdfrwt>
<pdfrwt beam="2">  1       -4 0.23005044E+00 0.11125943E+04</pdfrwt>
<totfact> 0.15057139E-01</totfact>
</mgrwt>
</event>
<event>
 8    1  0.2939692E-006  0.1113805E+04  0.7818608E-02  0.8678986E-01
         -4   -1    0    0    0  501 -0.00000000000E+00  0.00000000000E+00  0.11948304805E+04  0.11948304805E+04  0.00000000000E+00 0.  1.
          4   -1    0    0  502    0  0.00000000000E+00 -0.00000000000E+00 -0.11563234864E+04  0.11563234864E+04  0.00000000000E+00 0. -1.
   -9000010    2    1    2    0  501  0.47340234959E+03 -0.42437466044E+02  0.41077473281E+03  0.11871379559E+04  0.10072983283E+04 0.  0.
    9000010    2    1    2  502    0 -0.47340234959E+03  0.42437466044E+02 -0.37226773863E+03  0.11640160110E+04  0.99520815986E+03 0.  0.
        -13    1    4    4    0    0  0.27633641181E+02 -0.27160513405E+03 -0.49015686380E+03  0.56105857917E+03  0.10566000000E+00 0.  1.
          4    1    4    4  502    0 -0.50103599077E+03  0.31404260009E+03  0.11788912518E+03  0.60295743179E+03  0.00000000000E+00 0.  1.
         13    1    3    3    0    0 -0.14942924117E+03 -0.33103467404E+03 -0.40790663287E+02  0.36548179559E+03  0.10566000000E+00 0. -1.
         -4    1    3    3    0  501  0.62283159076E+03  0.28859720799E+03  0.45156539609E+03  0.82165616036E+03  0.00000000000E+00 0. -1.
<mgrwt>
<rscale>  0 0.11083301E+04</rscale>
<asrwt>0</asrwt>
<pdfrwt beam="2">  1        4 0.17789592E+00 0.11028826E+04</pdfrwt>
<pdfrwt beam="1">  1       -4 0.18382007E+00 0.11138046E+04</pdfrwt>
<totfact> 0.23765782E-01</totfact>
</mgrwt>
</event>
<event>
 8    1  0.2939692E-006  0.1405385E+04  0.7818608E-02  0.8495874E-01
          4   -1    0    0  502    0  0.00000000000E+00  0.00000000000E+00  0.45560628506E+03  0.45560628506E+03  0.00000000000E+00 0.  1.
         -4   -1    0    0    0  501 -0.00000000000E+00 -0.00000000000E+00 -0.40602451798E+04  0.40602451798E+04  0.00000000000E+00 0. -1.
   -9000010    2    1    2    0  501 -0.82028234381E+03 -0.26903667368E+03 -0.16649327699E+04  0.21205293702E+04  0.98964631369E+03 0.  0.
    9000010    2    1    2  502    0  0.82028234381E+03  0.26903667368E+03 -0.19397061249E+04  0.23953220947E+04  0.11089924396E+04 0.  0.
        -13    1    4    4    0    0  0.85321361148E+03  0.41446939891E+03 -0.20158649436E+04  0.22278846091E+04  0.10566000000E+00 0.  1.
          4    1    4    4  502    0 -0.32931267665E+02 -0.14543272522E+03  0.76158818632E+02  0.16743748568E+03  0.00000000000E+00 0.  1.
         13    1    3    3    0    0 -0.40188352285E+03 -0.53190699902E+03 -0.43756963343E+03  0.79743502357E+03  0.10566000000E+00 0. -1.
         -4    1    3    3    0  501 -0.41839882096E+03  0.26287032534E+03 -0.12273631364E+04  0.13230943466E+04  0.00000000000E+00 0. -1.
<mgrwt>
<rscale>  0 0.13585404E+04</rscale>
<asrwt>0</asrwt>
<pdfrwt beam="1">  1        4 0.70093272E-01 0.14053854E+04</pdfrwt>
<pdfrwt beam="2">  1       -4 0.62465313E+00 0.13132569E+04</pdfrwt>
<totfact> 0.22973033E-02</totfact>
</mgrwt>
</event>
<event>
 8    1  0.2939692E-006  0.1349052E+04  0.7818608E-02  0.8512188E-01
         -4   -1    0    0    0  501 -0.00000000000E+00  0.00000000000E+00  0.18241930924E+04  0.18241930924E+04  0.00000000000E+00 0. -1.
          4   -1    0    0  502    0  0.00000000000E+00 -0.00000000000E+00 -0.11044344199E+04  0.11044344199E+04  0.00000000000E+00 0.  1.
   -9000010    2    1    2    0  501  0.29966215389E+03  0.83066588205E+03  0.86449785618E+03  0.16022786729E+04  0.10198711625E+04 0.  0.
    9000010    2    1    2  502    0 -0.29966215389E+03 -0.83066588205E+03 -0.14473918369E+03  0.13263488394E+04  0.97900388070E+03 0.  0.
        -13    1    4    4    0    0  0.32586192921E+03 -0.30912869189E+03  0.12872259803E+03  0.46724304539E+03  0.10566000000E+00 0.  1.
          4    1    4    4  502    0 -0.62552408310E+03 -0.52153719016E+03 -0.27346178172E+03  0.85910579402E+03  0.00000000000E+00 0.  1.
         13    1    3    3    0    0 -0.13851025637E+03 -0.13454475065E+03 -0.53109059520E+02  0.20026972915E+03  0.10566000000E+00 0. -1.
         -4    1    3    3    0  501  0.43817241026E+03  0.96521063270E+03  0.91760691570E+03  0.14020089437E+04  0.00000000000E+00 0. -1.
<mgrwt>
<rscale>  0 0.13336518E+04</rscale>
<asrwt>0</asrwt>
<pdfrwt beam="2">  1        4 0.16991299E+00 0.13184278E+04</pdfrwt>
<pdfrwt beam="1">  1       -4 0.28064509E+00 0.13490517E+04</pdfrwt>
<totfact> 0.14149707E-01</totfact>
</mgrwt>
</event>
<event>
 8    1  0.2939692E-006  0.1249064E+04  0.7818608E-02  0.8635570E-01
          4   -1    0    0  502    0  0.00000000000E+00  0.00000000000E+00  0.22238428246E+04  0.22238428246E+04  0.00000000000E+00 0.  1.
         -4   -1    0    0    0  501 -0.00000000000E+00 -0.00000000000E+00 -0.11712987851E+04  0.11712987851E+04  0.00000000000E+00 0. -1.
   -9000010    2    1    2    0  501  0.22277926160E+03  0.24450219343E+03 -0.66644172525E+03  0.12702714277E+04  0.10295790425E+04 0.  0.
    9000010    2    1    2  502    0 -0.22277926160E+03 -0.24450219343E+03  0.17189857647E+04  0.21248701820E+04  0.12044705514E+04 0.  0.
        -13    1    4    4    0    0  0.37473089992E+03 -0.14249949976E+03  0.13655843997E+04  0.14232182260E+04  0.10566000000E+00 0.  1.
          4    1    4    4  502    0 -0.59751016152E+03 -0.10200269367E+03  0.35340136500E+03  0.70165195604E+03  0.00000000000E+00 0.  1.
         13    1    3    3    0    0  0.38086132100E+03 -0.96003562411E+02 -0.78399839676E+03  0.87688398726E+03  0.10566000000E+00 0. -1.
         -4    1    3    3    0  501 -0.15808205941E+03  0.34050575584E+03  0.11755667151E+03  0.39338744042E+03  0.00000000000E+00 0. -1.
<mgrwt>
<rscale>  0 0.11622172E+04</rscale>
<asrwt>0</asrwt>
<pdfrwt beam="1">  1        4 0.34212966E+00 0.12490641E+04</pdfrwt>
<pdfrwt beam="2">  1       -4 0.18019981E+00 0.10814088E+04</pdfrwt>
<totfact> 0.88377041E-02</totfact>
</mgrwt>
</event>
<event>
 8    1  0.2939692E-006  0.1197564E+04  0.7818608E-02  0.8610758E-01
         -4   -1    0    0    0  501 -0.00000000000E+00  0.00000000000E+00  0.35201276862E+04  0.35201276862E+04  0.00000000000E+00 0. -1.
          4   -1    0    0  502    0  0.00000000000E+00 -0.00000000000E+00 -0.54332788811E+03  0.54332788811E+03  0.00000000000E+00 0.  1.
   -9000010    2    1    2    0  501  0.64185290356E+03 -0.72320714941E+02  0.25153355805E+04  0.27858700175E+04  0.10084409929E+04 0.  0.
    9000010    2    1    2  502    0 -0.64185290356E+03  0.72320714941E+02  0.46146421758E+03  0.12775855568E+04  0.10010345625E+04 0.  0.
        -13    1    4    4    0    0 -0.14203883171E+03 -0.13535929952E+03  0.66955975300E+03  0.69771587605E+03  0.10566000000E+00 0.  1.
          4    1    4    4  502    0 -0.49981407184E+03  0.20768001446E+03 -0.20809553542E+03  0.57986968078E+03  0.00000000000E+00 0.  1.
         13    1    3    3    0    0  0.20970748993E+03 -0.40357960283E+03  0.19445257634E+04  0.19970063052E+04  0.10566000000E+00 0. -1.
         -4    1    3    3    0  501  0.43214541363E+03  0.33125888789E+03  0.57080981708E+03  0.78886371231E+03  0.00000000000E+00 0. -1.
<mgrwt>
<rscale>  0 0.11944445E+04</rscale>
<asrwt>0</asrwt>
<pdfrwt beam="2">  1        4 0.83588908E-01 0.11913336E+04</pdfrwt>
<pdfrwt beam="1">  1       -4 0.54155809E+00 0.11975636E+04</pdfrwt>
<totfact> 0.44954981E-02</totfact>
</mgrwt>
</event>
<event>
 8    1  0.2939692E-006  0.1235285E+04  0.7818608E-02  0.8581371E-01
          4   -1    0    0  502    0  0.00000000000E+00  0.00000000000E+00  0.59551446599E+03  0.59551446599E+03  0.00000000000E+00 0.  1.
         -4   -1    0    0    0  501 -0.00000000000E+00 -0.00000000000E+00 -0.34311564930E+04  0.34311564930E+04  0.00000000000E+00 0. -1.
   -9000010    2    1    2    0  501  0.52157966029E+03 -0.50407594890E+03 -0.24350326864E+04  0.27304418151E+04  0.99989520323E+03 0.  0.
    9000010    2    1    2  502    0 -0.52157966029E+03  0.50407594890E+03 -0.40060934057E+03  0.12962291439E+04  0.99678696087E+03 0.  0.
        -13    1    4    4    0    0 -0.33547770314E+03 -0.12517003273E+03  0.19700814090E+03  0.40868697697E+03  0.10566000000E+00 0.  1.
          4    1    4    4  502    0 -0.18610195714E+03  0.62924598163E+03 -0.59761748147E+03  0.88754216689E+03  0.00000000000E+00 0.  1.
         13    1    3    3    0    0  0.95475741156E+02 -0.61296574181E+03 -0.20634510879E+04  0.21546862930E+04  0.10566000000E+00 0. -1.
         -4    1    3    3    0  501  0.42610391913E+03  0.10888979291E+03 -0.37158159850E+03  0.57575552212E+03  0.00000000000E+00 0. -1.
<mgrwt>
<rscale>  0 0.12340268E+04</rscale>
<asrwt>0</asrwt>
<pdfrwt beam="1">  1        4 0.91617613E-01 0.12327701E+04</pdfrwt>
<pdfrwt beam="2">  1       -4 0.52787021E+00 0.12352847E+04</pdfrwt>
<totfact> 0.43006450E-02</totfact>
</mgrwt>
</event>
<event>
 8    1  0.2939692E-006  0.1257092E+04  0.7818608E-02  0.8600601E-01
          4   -1    0    0  502    0  0.00000000000E+00  0.00000000000E+00  0.14537161802E+04  0.14537161802E+04  0.00000000000E+00 0.  1.
         -4   -1    0    0    0  501 -0.00000000000E+00 -0.00000000000E+00 -0.21017535453E+04  0.21017535453E+04  0.00000000000E+00 0. -1.
   -9000010    2    1    2    0  501  0.53249553644E+03 -0.53451603556E+03 -0.16137102604E+04  0.20455659009E+04  0.10054949836E+04 0.  0.
    9000010    2    1    2  502    0 -0.53249553644E+03  0.53451603556E+03  0.96567289518E+03  0.15099038246E+04  0.88205812189E+03 0.  0.
        -13    1    4    4    0    0 -0.29017005465E+03 -0.13766948642E+03  0.65749756483E+03  0.73174763889E+03  0.10566000000E+00 0.  1.
          4    1    4    4  502    0 -0.24232548180E+03  0.67218552198E+03  0.30817533035E+03  0.77815618569E+03  0.00000000000E+00 0.  1.
         13    1    3    3    0    0  0.20416862196E+03 -0.22947259262E+03 -0.15648934574E+04  0.15947520312E+04  0.10566000000E+00 0. -1.
         -4    1    3    3    0  501  0.32832691448E+03 -0.30504344294E+03 -0.48816802981E+02  0.45081386969E+03  0.00000000000E+00 0. -1.
<mgrwt>
<rscale>  0 0.12079483E+04</rscale>
<asrwt>0</asrwt>
<pdfrwt beam="1">  1        4 0.22364864E+00 0.11607262E+04</pdfrwt>
<pdfrwt beam="2">  1       -4 0.32334670E+00 0.12570915E+04</pdfrwt>
<totfact> 0.75510501E-02</totfact>
</mgrwt>
</event>
<event>
 8    1  0.2939692E-006  0.1419264E+04  0.7818608E-02  0.8460569E-01
         -4   -1    0    0    0  501 -0.00000000000E+00  0.00000000000E+00  0.77046566656E+03  0.77046566656E+03  0.00000000000E+00 0. -1.
          4   -1    0    0  502    0  0.00000000000E+00 -0.00000000000E+00 -0.34285829074E+04  0.34285829074E+04  0.00000000000E+00 0.  1.
   -9000010    2    1    2    0  501  0.27637251913E+03  0.95765900235E+03 -0.29115426550E+03  0.14391892949E+04  0.99649510088E+03 0.  0.
    9000010    2    1    2  502    0 -0.27637251913E+03 -0.95765900235E+03 -0.23669629754E+04  0.27598592791E+04  0.10103548780E+04 0.  0.
        -13    1    4    4    0    0  0.27410140848E+03 -0.37195921129E+03 -0.15350401446E+04  0.16030700215E+04  0.10566000000E+00 0.  1.
          4    1    4    4  502    0 -0.55047392761E+03 -0.58569979106E+03 -0.83192283071E+03  0.11567892576E+04  0.00000000000E+00 0.  1.
         13    1    3    3    0    0 -0.20842374911E+03  0.84514784573E+03 -0.16226626290E+02  0.87061969591E+03  0.10566000000E+00 0. -1.
         -4    1    3    3    0  501  0.48479626825E+03  0.11251115661E+03 -0.27492763921E+03  0.56856959897E+03  0.00000000000E+00 0. -1.
<mgrwt>
<rscale>  0 0.14143387E+04</rscale>
<asrwt>0</asrwt>
<pdfrwt beam="2">  1        4 0.52747429E+00 0.14192637E+04</pdfrwt>
<pdfrwt beam="1">  1       -4 0.11853318E+00 0.14094307E+04</pdfrwt>
<totfact> 0.26342313E-02</totfact>
</mgrwt>
</event>
<event>
 8    1  0.2939692E-006  0.1101241E+04  0.7818608E-02  0.8697907E-01
         -4   -1    0    0    0  501 -0.00000000000E+00  0.00000000000E+00  0.19852925959E+04  0.19852925959E+04  0.00000000000E+00 0. -1.
          4   -1    0    0  502    0  0.00000000000E+00 -0.00000000000E+00 -0.91852207438E+03  0.91852207438E+03  0.00000000000E+00 0.  1.
   -9000010    2    1    2    0  501 -0.31541101321E+03  0.30637354170E+03  0.14012561106E+04  0.17822040735E+04  0.10096453921E+04 0.  0.
    9000010    2    1    2  502    0  0.31541101321E+03 -0.30637354170E+03 -0.33448558909E+03  0.11216105968E+04  0.97610494683E+03 0.  0.
        -13    1    4    4    0    0  0.30432769053E+03 -0.40578040324E+03  0.22382560974E+03  0.55441049198E+03  0.10566000000E+00 0.  1.
          4    1    4    4  502    0  0.11083322684E+02  0.99406861542E+02 -0.55831119883E+03  0.56720010482E+03  0.00000000000E+00 0.  1.
         13    1    3    3    0    0 -0.19478281018E+03  0.37669823663E+03  0.15327918514E+04  0.15903750424E+04  0.10566000000E+00 0. -1.
         -4    1    3    3    0  501 -0.12062820304E+03 -0.70324694929E+02 -0.13153574074E+03  0.19182903111E+03  0.00000000000E+00 0. -1.
<mgrwt>
<rscale>  0 0.10857997E+04</rscale>
<asrwt>0</asrwt>
<pdfrwt beam="2">  1        4 0.14131109E+00 0.10705745E+04</pdfrwt>
<pdfrwt beam="1">  1       -4 0.30542963E+00 0.11012414E+04</pdfrwt>
<totfact> 0.16052872E-01</totfact>
</mgrwt>
</event>
<event>
 8    1  0.2939692E-006  0.1286354E+04  0.7818608E-02  0.8560655E-01
         -4   -1    0    0    0  501 -0.00000000000E+00  0.00000000000E+00  0.39524475893E+04  0.39524475893E+04  0.00000000000E+00 0. -1.
          4   -1    0    0  502    0  0.00000000000E+00 -0.00000000000E+00 -0.16484572758E+04  0.16484572758E+04  0.00000000000E+00 0.  1.
   -9000010    2    1    2    0  501  0.11600700460E+03 -0.76373143858E+03  0.35802479119E+04  0.37888507759E+04  0.96977923047E+03 0.  0.
    9000010    2    1    2  502    0 -0.11600700460E+03  0.76373143858E+03 -0.12762575984E+04  0.18120540892E+04  0.10285733953E+04 0.  0.
        -13    1    4    4    0    0  0.40436277508E+03  0.68031378347E+02 -0.50331860625E+03  0.64920501606E+03  0.10566000000E+00 0.  1.
          4    1    4    4  502    0 -0.52036977968E+03  0.69570006023E+03 -0.77293899213E+03  0.11628490732E+04  0.00000000000E+00 0.  1.
         13    1    3    3    0    0  0.11056023615E+03 -0.14022797391E+02  0.23184165939E+04  0.23210936471E+04  0.10566000000E+00 0. -1.
         -4    1    3    3    0  501  0.54467684462E+01 -0.74970864119E+03  0.12618313180E+04  0.14677571288E+04  0.00000000000E+00 0. -1.
<mgrwt>
<rscale>  0 0.12628853E+04</rscale>
<asrwt>0</asrwt>
<pdfrwt beam="2">  1        4 0.25360881E+00 0.12863540E+04</pdfrwt>
<pdfrwt beam="1">  1       -4 0.60806886E+00 0.12398448E+04</pdfrwt>
<totfact> 0.34211539E-03</totfact>
</mgrwt>
</event>
<event>
 8    1  0.2939692E-006  0.1043560E+04  0.7818608E-02  0.8801394E-01
          4   -1    0    0  502    0  0.00000000000E+00  0.00000000000E+00  0.24093997216E+04  0.24093997216E+04  0.00000000000E+00 0.  1.
         -4   -1    0    0    0  501 -0.00000000000E+00 -0.00000000000E+00 -0.18213227843E+04  0.18213227843E+04  0.00000000000E+00 0. -1.
   -9000010    2    1    2    0  501  0.46347806959E+02 -0.21485017736E+03 -0.15820374267E+04  0.18227328942E+04  0.87818225119E+03 0.  0.
    9000010    2    1    2  502    0 -0.46347806959E+02  0.21485017736E+03  0.21701143640E+04  0.24079896117E+04  0.10201514099E+04 0.  0.
        -13    1    4    4    0    0  0.45991497798E+03  0.18699053043E+03  0.14048644311E+04  0.14900105121E+04  0.10566000000E+00 0.  1.
          4    1    4    4  502    0 -0.50626278494E+03  0.27859646927E+02  0.76524993298E+03  0.91797909958E+03  0.00000000000E+00 0.  1.
         13    1    3    3    0    0 -0.18669898287E+03 -0.48901023443E+03 -0.73407224692E+03  0.90158171812E+03  0.10566000000E+00 0. -1.
         -4    1    3    3    0  501  0.23304678982E+03  0.27416005707E+03 -0.84796517974E+03  0.92115117608E+03  0.00000000000E+00 0. -1.
<mgrwt>
<rscale>  0 0.97195836E+03</rscale>
<asrwt>0</asrwt>
<pdfrwt beam="1">  1        4 0.37067688E+00 0.10435601E+04</pdfrwt>
<pdfrwt beam="2">  1       -4 0.28020351E+00 0.90526945E+03</pdfrwt>
<totfact> 0.39805478E-02</totfact>
</mgrwt>
</event>
<event>
 8    1  0.2939692E-006  0.1276379E+04  0.7818608E-02  0.8558306E-01
          4   -1    0    0  502    0  0.00000000000E+00  0.00000000000E+00  0.16508806057E+04  0.16508806057E+04  0.00000000000E+00 0.  1.
         -4   -1    0    0    0  501 -0.00000000000E+00 -0.00000000000E+00 -0.22580137064E+04  0.22580137064E+04  0.00000000000E+00 0. -1.
   -9000010    2    1    2    0  501  0.52774067116E+03 -0.55605125642E+03 -0.17779124417E+04  0.21768819489E+04  0.99505736197E+03 0.  0.
    9000010    2    1    2  502    0 -0.52774067116E+03  0.55605125642E+03  0.11707793410E+04  0.17320123631E+04  0.10205093556E+04 0.  0.
        -13    1    4    4    0    0 -0.28999825642E+03  0.53838840045E+03  0.81476377013E+02  0.61692744277E+03  0.10566000000E+00 0.  1.
          4    1    4    4  502    0 -0.23774241474E+03  0.17662855966E+02  0.10893029640E+04  0.11150849204E+04  0.00000000000E+00 0.  1.
         13    1    3    3    0    0  0.70665436859E+03 -0.67485724970E+03 -0.16739557657E+04  0.19382777460E+04  0.10566000000E+00 0. -1.
         -4    1    3    3    0  501 -0.17891369743E+03  0.11880599328E+03 -0.10395667600E+03  0.23860420292E+03  0.00000000000E+00 0. -1.
<mgrwt>
<rscale>  0 0.12662098E+04</rscale>
<asrwt>0</asrwt>
<pdfrwt beam="1">  1        4 0.25398163E+00 0.12763787E+04</pdfrwt>
<pdfrwt beam="2">  1       -4 0.34738672E+00 0.12561220E+04</pdfrwt>
<totfact> 0.53751971E-02</totfact>
</mgrwt>
</event>
<event>
 8    1  0.2939692E-006  0.1026771E+04  0.7818608E-02  0.8757911E-01
         -4   -1    0    0    0  501 -0.00000000000E+00  0.00000000000E+00  0.12521179196E+04  0.12521179196E+04  0.00000000000E+00 0. -1.
          4   -1    0    0  502    0  0.00000000000E+00 -0.00000000000E+00 -0.37522837164E+04  0.37522837164E+04  0.00000000000E+00 0.  1.
   -9000010    2    1    2    0  501 -0.36437631218E+02 -0.20630907333E+03  0.95659923716E+03  0.14033323574E+04  0.10051708661E+04 0.  0.
    9000010    2    1    2  502    0  0.36437631218E+02  0.20630907333E+03 -0.34567650340E+04  0.36010692787E+04  0.98721037020E+03 0.  0.
        -13    1    4    4    0    0  0.30759284945E+03  0.42828336540E+03 -0.28667167526E+04  0.29148078758E+04  0.10566000000E+00 0.  1.
          4    1    4    4  502    0 -0.27115521823E+03 -0.22197429207E+03 -0.59004828139E+03  0.68626140288E+03  0.00000000000E+00 0.  1.
         13    1    3    3    0    0 -0.12653515828E+03  0.39166652536E+03  0.29119370423E+03  0.50419004146E+03  0.10566000000E+00 0. -1.
         -4    1    3    3    0  501  0.90097527065E+02 -0.59797559869E+03  0.66540553294E+03  0.89914231592E+03  0.00000000000E+00 0. -1.
<mgrwt>
<rscale>  0 0.10179455E+04</rscale>
<asrwt>0</asrwt>
<pdfrwt beam="2">  1        4 0.57727441E+00 0.10091954E+04</pdfrwt>
<pdfrwt beam="1">  1       -4 0.19263353E+00 0.10267714E+04</pdfrwt>
<totfact> 0.73802486E-03</totfact>
</mgrwt>
</event>
<event>
 8    1  0.2939692E-006  0.1309897E+04  0.7818608E-02  0.8530276E-01
         -4   -1    0    0    0  501 -0.00000000000E+00  0.00000000000E+00  0.22370010113E+04  0.22370010113E+04  0.00000000000E+00 0. -1.
          4   -1    0    0  502    0  0.00000000000E+00 -0.00000000000E+00 -0.22458031695E+04  0.22458031695E+04  0.00000000000E+00 0.  1.
   -9000010    2    1    2    0  501  0.40061739168E+03  0.73496939525E+03  0.18167032090E+04  0.22359620847E+04  0.99922049023E+03 0.  0.
    9000010    2    1    2  502    0 -0.40061739168E+03 -0.73496939525E+03 -0.18255053673E+04  0.22468420961E+04  0.10075491315E+04 0.  0.
        -13    1    4    4    0    0  0.25822809628E+03 -0.55019469990E+03 -0.67565796387E+03  0.90879571566E+03  0.10566000000E+00 0.  1.
          4    1    4    4  502    0 -0.65884548796E+03 -0.18477469535E+03 -0.11498474034E+04  0.13380463804E+04  0.00000000000E+00 0.  1.
         13    1    3    3    0    0  0.45457196474E+03 -0.14615245887E+02  0.11294349239E+04  0.12175682876E+04  0.10566000000E+00 0. -1.
         -4    1    3    3    0  501 -0.53954573062E+02  0.74958464113E+03  0.68726828508E+03  0.10183937970E+04  0.00000000000E+00 0. -1.
<mgrwt>
<rscale>  0 0.13066952E+04</rscale>
<asrwt>0</asrwt>
<pdfrwt beam="2">  1        4 0.34550818E+00 0.13098968E+04</pdfrwt>
<pdfrwt beam="1">  1       -4 0.34415400E+00 0.13035014E+04</pdfrwt>
<totfact> 0.31034511E-02</totfact>
</mgrwt>
</event>
<event>
 8    1  0.2939692E-006  0.1132984E+04  0.7818608E-02  0.8666076E-01
         -4   -1    0    0    0  501 -0.00000000000E+00  0.00000000000E+00  0.26222743996E+04  0.26222743996E+04  0.00000000000E+00 0. -1.
          4   -1    0    0  502    0  0.00000000000E+00 -0.00000000000E+00 -0.96940705402E+03  0.96940705402E+03  0.00000000000E+00 0.  1.
   -9000010    2    1    2    0  501 -0.30530938348E+03 -0.39477714276E+03  0.20967477148E+04  0.23748480130E+04  0.99724084004E+03 0.  0.
    9000010    2    1    2  502    0  0.30530938348E+03  0.39477714276E+03 -0.44388036929E+03  0.12168334406E+04  0.10171484788E+04 0.  0.
        -13    1    4    4    0    0 -0.35160772678E+03  0.14910849738E+03 -0.33313237537E+03  0.50679239163E+03  0.10566000000E+00 0.  1.
          4    1    4    4  502    0  0.65691711026E+03  0.24566864538E+03 -0.11074799391E+03  0.71004104898E+03  0.00000000000E+00 0.  1.
         13    1    3    3    0    0 -0.51007974679E+03  0.13587637450E+03  0.79536017972E+03  0.95458973590E+03  0.10566000000E+00 0. -1.
         -4    1    3    3    0  501  0.20477036332E+03 -0.53065351727E+03  0.13013875351E+04  0.14202582771E+04  0.00000000000E+00 0. -1.
<mgrwt>
<rscale>  0 0.11240302E+04</rscale>
<asrwt>0</asrwt>
<pdfrwt beam="2">  1        4 0.14913955E+00 0.11329845E+04</pdfrwt>
<pdfrwt beam="1">  1       -4 0.40342683E+00 0.11151467E+04</pdfrwt>
<totfact> 0.69329952E-02</totfact>
</mgrwt>
</event>
<event>
 8    1  0.2939692E-006  0.1101737E+04  0.7818608E-02  0.8702984E-01
          4   -1    0    0  502    0  0.00000000000E+00  0.00000000000E+00  0.14525300720E+04  0.14525300720E+04  0.00000000000E+00 0.  1.
         -4   -1    0    0    0  501 -0.00000000000E+00 -0.00000000000E+00 -0.20858297586E+04  0.20858297586E+04  0.00000000000E+00 0. -1.
   -9000010    2    1    2    0  501 -0.28272579989E+03  0.14356392424E+03 -0.17063767211E+04  0.20311440668E+04  0.10551209540E+04 0.  0.
    9000010    2    1    2  502    0  0.28272579989E+03 -0.14356392424E+03  0.10730770345E+04  0.15072157638E+04  0.10097824312E+04 0.  0.
        -13    1    4    4    0    0 -0.30772770235E+03 -0.22910605091E+03  0.71490683894E+03  0.81134315853E+03  0.10566000000E+00 0.  1.
          4    1    4    4  502    0  0.59045350224E+03  0.85542126671E+02  0.35817019557E+03  0.69587260525E+03  0.00000000000E+00 0.  1.
         13    1    3    3    0    0 -0.39465465456E+03 -0.29347080484E+03 -0.35526781320E+03  0.60670638691E+03  0.10566000000E+00 0. -1.
         -4    1    3    3    0  501  0.11192885467E+03  0.43703472908E+03 -0.13511089079E+04  0.14244376799E+04  0.00000000000E+00 0. -1.
<mgrwt>
<rscale>  0 0.10798499E+04</rscale>
<asrwt>0</asrwt>
<pdfrwt beam="1">  1        4 0.22346616E+00 0.10583974E+04</pdfrwt>
<pdfrwt beam="2">  1       -4 0.32089689E+00 0.11017371E+04</pdfrwt>
<totfact> 0.77791974E-02</totfact>
</mgrwt>
</event>
<event>
 8    1  0.2939692E-006  0.1695760E+04  0.7818608E-02  0.8338106E-01
         -4   -1    0    0    0  501 -0.00000000000E+00  0.00000000000E+00  0.14231948638E+04  0.14231948638E+04  0.00000000000E+00 0. -1.
          4   -1    0    0  502    0  0.00000000000E+00 -0.00000000000E+00 -0.22366407870E+04  0.22366407870E+04  0.00000000000E+00 0.  1.
   -9000010    2    1    2    0  501 -0.12150548814E+04  0.47029076397E+03  0.34609621494E+03  0.16055377998E+04  0.87203054375E+03 0.  0.
    9000010    2    1    2  502    0  0.12150548814E+04 -0.47029076397E+03 -0.11595421382E+04  0.20542978510E+04  0.10853892957E+04 0.  0.
        -13    1    4    4    0    0  0.10170252023E+01 -0.46422973529E+03 -0.19412880194E+03  0.50318613293E+03  0.10566000000E+00 0.  1.
          4    1    4    4  502    0  0.12140378562E+04 -0.60610286786E+01 -0.96541333622E+03  0.15511117181E+04  0.00000000000E+00 0.  1.
         13    1    3    3    0    0  0.70100461009E+01  0.33135368944E+03  0.13378005837E+03  0.35740946187E+03  0.10566000000E+00 0. -1.
         -4    1    3    3    0  501 -0.12220649275E+04  0.13893707452E+03  0.21231615658E+03  0.12481283380E+04  0.00000000000E+00 0. -1.
<mgrwt>
<rscale>  0 0.16305206E+04</rscale>
<asrwt>0</asrwt>
<pdfrwt beam="2">  1        4 0.34409858E+00 0.16957599E+04</pdfrwt>
<pdfrwt beam="1">  1       -4 0.21895306E+00 0.15677911E+04</pdfrwt>
<totfact> 0.65206357E-02</totfact>
</mgrwt>
</event>
<event>
 8    1  0.2939692E-006  0.9931838E+03  0.7818608E-02  0.8781358E-01
          4   -1    0    0  502    0  0.00000000000E+00  0.00000000000E+00  0.12127137209E+04  0.12127137209E+04  0.00000000000E+00 0.  1.
         -4   -1    0    0    0  501 -0.00000000000E+00 -0.00000000000E+00 -0.36251930406E+04  0.36251930406E+04  0.00000000000E+00 0. -1.
   -9000010    2    1    2    0  501  0.12950892431E+02 -0.46566653513E+02 -0.33369212124E+04  0.34815883169E+04  0.99200698183E+03 0.  0.
    9000010    2    1    2  502    0 -0.12950892431E+02  0.46566653513E+02  0.92444189272E+03  0.13563184445E+04  0.99129749877E+03 0.  0.
        -13    1    4    4    0    0  0.28108036179E+02 -0.18790188695E+03  0.10637031796E+04  0.10805376654E+04  0.10566000000E+00 0.  1.
          4    1    4    4  502    0 -0.41058928610E+02  0.23446854046E+03 -0.13926128693E+03  0.27578077910E+03  0.00000000000E+00 0.  1.
         13    1    3    3    0    0  0.25867342929E+03  0.35388452964E+03 -0.23244024868E+04  0.23653737834E+04  0.10566000000E+00 0. -1.
         -4    1    3    3    0  501 -0.24572253685E+03 -0.40045118315E+03 -0.10125187256E+04  0.11162145336E+04  0.00000000000E+00 0. -1.
<mgrwt>
<rscale>  0 0.99282940E+03</rscale>
<asrwt>0</asrwt>
<pdfrwt beam="1">  1        4 0.18657134E+00 0.99247514E+03</pdfrwt>
<pdfrwt beam="2">  1       -4 0.55772200E+00 0.99318379E+03</pdfrwt>
<totfact> 0.99178840E-03</totfact>
</mgrwt>
</event>
<event>
 8    1  0.2939692E-006  0.1150498E+04  0.7818608E-02  0.8653284E-01
         -4   -1    0    0    0  501 -0.00000000000E+00  0.00000000000E+00  0.26493531253E+04  0.26493531253E+04  0.00000000000E+00 0. -1.
          4   -1    0    0  502    0  0.00000000000E+00 -0.00000000000E+00 -0.59490647936E+03  0.59490647936E+03  0.00000000000E+00 0.  1.
   -9000010    2    1    2    0  501 -0.50339661945E+03 -0.17604866018E+03  0.17147843987E+04  0.20649772409E+04  0.10194332661E+04 0.  0.
    9000010    2    1    2  502    0  0.50339661945E+03  0.17604866018E+03  0.33966224721E+03  0.11792823638E+04  0.99545726380E+03 0.  0.
        -13    1    4    4    0    0  0.79270412087E+03  0.12426108461E+02  0.28484811032E+03  0.84242073131E+03  0.10566000000E+00 0.  1.
          4    1    4    4  502    0 -0.28930750142E+03  0.16362255172E+03  0.54814136883E+02  0.33686163245E+03  0.00000000000E+00 0.  1.
         13    1    3    3    0    0 -0.50848455004E+03 -0.39834792031E+03  0.46584325408E+03  0.79639660457E+03  0.10566000000E+00 0. -1.
         -4    1    3    3    0  501  0.50879305899E+01  0.22229926013E+03  0.12489411446E+04  0.12685806363E+04  0.00000000000E+00 0. -1.
<mgrwt>
<rscale>  0 0.11398537E+04</rscale>
<asrwt>0</asrwt>
<pdfrwt beam="2">  1        4 0.91524075E-01 0.11293080E+04</pdfrwt>
<pdfrwt beam="1">  1       -4 0.40759278E+00 0.11504979E+04</pdfrwt>
<totfact> 0.15434693E-01</totfact>
</mgrwt>
</event>
<event>
 8    1  0.2939692E-006  0.1246565E+04  0.7818608E-02  0.8574240E-01
          4   -1    0    0  502    0  0.00000000000E+00  0.00000000000E+00  0.91212030737E+03  0.91212030737E+03  0.00000000000E+00 0.  1.
         -4   -1    0    0    0  501 -0.00000000000E+00 -0.00000000000E+00 -0.23488634014E+04  0.23488634014E+04  0.00000000000E+00 0. -1.
   -9000010    2    1    2    0  501  0.38085078561E+03  0.64638138813E+03 -0.15766657193E+04  0.20065899609E+04  0.98877310897E+03 0.  0.
    9000010    2    1    2  502    0 -0.38085078561E+03 -0.64638138813E+03  0.13992262523E+03  0.12543937479E+04  0.99552454206E+03 0.  0.
        -13    1    4    4    0    0 -0.26643554761E+03  0.23120129080E+03 -0.26941874436E+02  0.35379063535E+03  0.10566000000E+00 0.  1.
          4    1    4    4  502    0 -0.11441523800E+03 -0.87758267893E+03  0.16686449967E+03  0.90060311253E+03  0.00000000000E+00 0.  1.
         13    1    3    3    0    0 -0.18138205875E+03  0.50452355600E+03 -0.32452969857E+03  0.62670807096E+03  0.10566000000E+00 0. -1.
         -4    1    3    3    0  501  0.56223284436E+03  0.14185783213E+03 -0.12521360207E+04  0.13798818899E+04  0.00000000000E+00 0. -1.
<mgrwt>
<rscale>  0 0.12438699E+04</rscale>
<asrwt>0</asrwt>
<pdfrwt beam="1">  1        4 0.14032620E+00 0.12465654E+04</pdfrwt>
<pdfrwt beam="2">  1       -4 0.36136359E+00 0.12411803E+04</pdfrwt>
<totfact> 0.10860519E-01</totfact>
</mgrwt>
</event>
<event>
 8    1  0.2939692E-006  0.1245414E+04  0.7818608E-02  0.8575729E-01
          4   -1    0    0  502    0  0.00000000000E+00  0.00000000000E+00  0.16165273709E+04  0.16165273709E+04  0.00000000000E+00 0.  1.
         -4   -1    0    0    0  501 -0.00000000000E+00 -0.00000000000E+00 -0.24214873544E+04  0.24214873544E+04  0.00000000000E+00 0. -1.
   -9000010    2    1    2    0  501 -0.59611918279E+02 -0.73545973075E+03 -0.19747128867E+04  0.23346405608E+04  0.10032950547E+04 0.  0.
    9000010    2    1    2  502    0  0.59611918279E+02  0.73545973075E+03  0.11697529032E+04  0.17033741645E+04  0.99433751476E+03 0.  0.
        -13    1    4    4    0    0  0.45467623206E+03  0.52122734826E+03  0.10145994151E+04  0.12279333894E+04  0.10566000000E+00 0.  1.
          4    1    4    4  502    0 -0.39506431378E+03  0.21423238250E+03  0.15515348817E+03  0.47544077510E+03  0.00000000000E+00 0.  1.
         13    1    3    3    0    0 -0.66285338844E+02  0.21581629932E+03 -0.75371316011E+03  0.78679982211E+03  0.10566000000E+00 0. -1.
         -4    1    3    3    0  501  0.66734205654E+01 -0.95127603007E+03 -0.12209997266E+04  0.15478407387E+04  0.00000000000E+00 0. -1.
<mgrwt>
<rscale>  0 0.12418062E+04</rscale>
<asrwt>0</asrwt>
<pdfrwt beam="1">  1        4 0.24869652E+00 0.12382091E+04</pdfrwt>
<pdfrwt beam="2">  1       -4 0.37253651E+00 0.12454138E+04</pdfrwt>
<totfact> 0.45099333E-02</totfact>
</mgrwt>
</event>
<event>
 8    1  0.2939692E-006  0.1255907E+04  0.7818608E-02  0.8566739E-01
         -4   -1    0    0    0  501 -0.00000000000E+00  0.00000000000E+00  0.22183741944E+04  0.22183741944E+04  0.00000000000E+00 0. -1.
          4   -1    0    0  502    0  0.00000000000E+00 -0.00000000000E+00 -0.10678427165E+04  0.10678427165E+04  0.00000000000E+00 0.  1.
   -9000010    2    1    2    0  501 -0.27953771861E+03  0.69657412587E+03  0.15279420172E+04  0.19778545615E+04  0.10069483649E+04 0.  0.
    9000010    2    1    2  502    0  0.27953771861E+03 -0.69657412587E+03 -0.37741053930E+03  0.13083623494E+04  0.10030037254E+04 0.  0.
        -13    1    4    4    0    0 -0.13937470447E+03 -0.78299280404E+03 -0.37815771901E+03  0.88062836147E+03  0.10566000000E+00 0.  1.
          4    1    4    4  502    0  0.41891242308E+03  0.86418678168E+02  0.74717971290E+00  0.42773398792E+03  0.00000000000E+00 0.  1.
         13    1    3    3    0    0 -0.15899159509E+03  0.82630552398E+03  0.60075795039E+03  0.10339097022E+04  0.10566000000E+00 0. -1.
         -4    1    3    3    0  501 -0.12054612352E+03 -0.12973139812E+03  0.92718406682E+03  0.94394485925E+03  0.00000000000E+00 0. -1.
<mgrwt>
<rscale>  0 0.12543256E+04</rscale>
<asrwt>0</asrwt>
<pdfrwt beam="2">  1        4 0.16428350E+00 0.12527463E+04</pdfrwt>
<pdfrwt beam="1">  1       -4 0.34128834E+00 0.12559068E+04</pdfrwt>
<totfact> 0.10089055E-01</totfact>
</mgrwt>
</event>
<event>
 8    1  0.2939692E-006  0.1595347E+04  0.7818608E-02  0.8358794E-01
          4   -1    0    0  502    0  0.00000000000E+00  0.00000000000E+00  0.19402450798E+04  0.19402450798E+04  0.00000000000E+00 0.  1.
         -4   -1    0    0    0  501 -0.00000000000E+00 -0.00000000000E+00 -0.14906278337E+04  0.14906278337E+04  0.00000000000E+00 0. -1.
   -9000010    2    1    2    0  501 -0.28700582638E+03  0.11989574749E+04 -0.37977102835E+03  0.16399262124E+04  0.10125515182E+04 0.  0.
    9000010    2    1    2  502    0  0.28700582638E+03 -0.11989574749E+04  0.82938827451E+03  0.17909467012E+04  0.99986689388E+03 0.  0.
        -13    1    4    4    0    0  0.63492495155E+03 -0.78361494785E+03  0.71742068529E+03  0.12376891902E+04  0.10566000000E+00 0.  1.
          4    1    4    4  502    0 -0.34791912516E+03 -0.41534252707E+03  0.11196758922E+03  0.55325751100E+03  0.00000000000E+00 0.  1.
         13    1    3    3    0    0 -0.36776088799E+03  0.63402789087E+01 -0.23347457856E+03  0.43565888017E+03  0.10566000000E+00 0. -1.
         -4    1    3    3    0  501  0.80755061602E+02  0.11926171960E+04 -0.14629644978E+03  0.12042673322E+04  0.00000000000E+00 0. -1.
<mgrwt>
<rscale>  0 0.15913316E+04</rscale>
<asrwt>0</asrwt>
<pdfrwt beam="1">  1        4 0.29849924E+00 0.15873264E+04</pdfrwt>
<pdfrwt beam="2">  1       -4 0.22932736E+00 0.15953470E+04</pdfrwt>
<totfact> 0.83471230E-02</totfact>
</mgrwt>
</event>
<event>
 8    1  0.2939692E-006  0.1234856E+04  0.7818608E-02  0.8594966E-01
          4   -1    0    0  502    0  0.00000000000E+00  0.00000000000E+00  0.20205628409E+04  0.20205628409E+04  0.00000000000E+00 0.  1.
         -4   -1    0    0    0  501 -0.00000000000E+00 -0.00000000000E+00 -0.73142773525E+03  0.73142773525E+03  0.00000000000E+00 0. -1.
   -9000010    2    1    2    0  501  0.62027127957E+03 -0.36074222045E+03  0.64138857297E+03  0.13575574562E+04  0.95745053942E+03 0.  0.
    9000010    2    1    2  502    0 -0.62027127957E+03  0.36074222045E+03  0.64774653267E+03  0.13944331200E+04  0.10049859430E+04 0.  0.
        -13    1    4    4    0    0 -0.32568679029E+03  0.66635488420E+03  0.18083700381E+03  0.76341518860E+03  0.10566000000E+00 0.  1.
          4    1    4    4  502    0 -0.29458448927E+03 -0.30561266375E+03  0.46690952886E+03  0.63101793137E+03  0.00000000000E+00 0.  1.
         13    1    3    3    0    0  0.76438333447E+03 -0.45232498989E+03  0.74375823913E+03  0.11584714532E+04  0.10566000000E+00 0. -1.
         -4    1    3    3    0  501 -0.14411205490E+03  0.91582769438E+02 -0.10236966616E+03  0.19908600296E+03  0.00000000000E+00 0. -1.
<mgrwt>
<rscale>  0 0.12155203E+04</rscale>
<asrwt>0</asrwt>
<pdfrwt beam="1">  1        4 0.31085582E+00 0.12348555E+04</pdfrwt>
<pdfrwt beam="2">  1       -4 0.11252735E+00 0.11964878E+04</pdfrwt>
<totfact> 0.22367703E-01</totfact>
</mgrwt>
</event>
<event>
 8    1  0.2939692E-006  0.1130084E+04  0.7818608E-02  0.8690593E-01
         -4   -1    0    0    0  501 -0.00000000000E+00  0.00000000000E+00  0.10282807172E+04  0.10282807172E+04  0.00000000000E+00 0. -1.
          4   -1    0    0  502    0  0.00000000000E+00 -0.00000000000E+00 -0.19720133458E+04  0.19720133458E+04  0.00000000000E+00 0.  1.
   -9000010    2    1    2    0  501 -0.14084273280E+03 -0.43288343144E+03  0.47793871409E+03  0.12269943599E+04  0.10343427886E+04 0.  0.
    9000010    2    1    2  502    0  0.14084273280E+03  0.43288343144E+03 -0.14216713427E+04  0.17732997031E+04  0.95719260858E+03 0.  0.
        -13    1    4    4    0    0 -0.43917995570E+02  0.71794911742E+03 -0.99985777506E+03  0.12317042287E+04  0.10566000000E+00 0.  1.
          4    1    4    4  502    0  0.18476072837E+03 -0.28506568598E+03 -0.42181356762E+03  0.54159547441E+03  0.00000000000E+00 0.  1.
         13    1    3    3    0    0 -0.55607843182E+03 -0.43740327764E+03  0.36776115776E+03  0.79736637122E+03  0.10566000000E+00 0. -1.
         -4    1    3    3    0  501  0.41523569902E+03  0.45198461957E+01  0.11017755634E+03  0.42962798870E+03  0.00000000000E+00 0. -1.
<mgrwt>
<rscale>  0 0.10944428E+04</rscale>
<asrwt>0</asrwt>
<pdfrwt beam="2">  1        4 0.30338667E+00 0.10599257E+04</pdfrwt>
<pdfrwt beam="1">  1       -4 0.15819703E+00 0.11300840E+04</pdfrwt>
<totfact> 0.13808928E-01</totfact>
</mgrwt>
</event>
<event>
 8    1  0.2939692E-006  0.1200893E+04  0.7818608E-02  0.8641495E-01
         -4   -1    0    0    0  501 -0.00000000000E+00  0.00000000000E+00  0.11828393105E+04  0.11828393105E+04  0.00000000000E+00 0. -1.
          4   -1    0    0  502    0  0.00000000000E+00 -0.00000000000E+00 -0.25522391428E+04  0.25522391428E+04  0.00000000000E+00 0.  1.
   -9000010    2    1    2    0  501  0.39461950734E+03  0.47590292875E+03  0.72133674095E+03  0.13239949742E+04  0.92218644794E+03 0.  0.
    9000010    2    1    2  502    0 -0.39461950734E+03 -0.47590292875E+03 -0.20907365732E+04  0.24110834791E+04  0.10295319187E+04 0.  0.
        -13    1    4    4    0    0 -0.82004505889E+02  0.32669026461E+03 -0.66306452673E+03  0.74371086166E+03  0.10566000000E+00 0.  1.
          4    1    4    4  502    0 -0.31261500145E+03 -0.80259319336E+03 -0.14276720464E+04  0.16673726174E+04  0.00000000000E+00 0.  1.
         13    1    3    3    0    0  0.44586582815E+02  0.57354747380E+03  0.71837572837E+02  0.57974590650E+03  0.10566000000E+00 0. -1.
         -4    1    3    3    0  501  0.35003292452E+03 -0.97644545052E+02  0.64949916811E+03  0.74424906772E+03  0.00000000000E+00 0. -1.
<mgrwt>
<rscale>  0 0.11546780E+04</rscale>
<asrwt>0</asrwt>
<pdfrwt beam="2">  1        4 0.39265217E+00 0.12008931E+04</pdfrwt>
<pdfrwt beam="1">  1       -4 0.18197528E+00 0.11102414E+04</pdfrwt>
<totfact> 0.57305443E-02</totfact>
</mgrwt>
</event>
<event>
 8    1  0.2939692E-006  0.1307540E+04  0.7818608E-02  0.8541981E-01
          4   -1    0    0  502    0  0.00000000000E+00  0.00000000000E+00  0.31956900372E+04  0.31956900372E+04  0.00000000000E+00 0.  1.
         -4   -1    0    0    0  501 -0.00000000000E+00 -0.00000000000E+00 -0.52442562711E+03  0.52442562711E+03  0.00000000000E+00 0. -1.
   -9000010    2    1    2    0  501  0.49486046808E+03 -0.60662097108E+03  0.11566190138E+04  0.17191633323E+04  0.10024365987E+04 0.  0.
    9000010    2    1    2  502    0 -0.49486046808E+03  0.60662097108E+03  0.15146453963E+04  0.20009523321E+04  0.10472744021E+04 0.  0.
        -13    1    4    4    0    0  0.30979207687E+03  0.21663065647E+03  0.25418071566E+03  0.45553026199E+03  0.10566000000E+00 0.  1.
          4    1    4    4  502    0 -0.80465254495E+03  0.38999031462E+03  0.12604646806E+04  0.15454220701E+04  0.00000000000E+00 0.  1.
         13    1    3    3    0    0  0.44390940580E+03 -0.51100159605E+03  0.13300636198E+03  0.68983251244E+03  0.10566000000E+00 0. -1.
         -4    1    3    3    0  501  0.50951062275E+02 -0.95619375030E+02  0.10236126518E+04  0.10293308198E+04  0.00000000000E+00 0. -1.
<mgrwt>
<rscale>  0 0.12896017E+04</rscale>
<asrwt>0</asrwt>
<pdfrwt beam="1">  1        4 0.49164461E+00 0.13075395E+04</pdfrwt>
<pdfrwt beam="2">  1       -4 0.80680868E-01 0.12719100E+04</pdfrwt>
<totfact> 0.82017191E-02</totfact>
</mgrwt>
</event>
<event>
 8    1  0.2939692E-006  0.1087304E+04  0.7818608E-02  0.8703628E-01
         -4   -1    0    0    0  501 -0.00000000000E+00  0.00000000000E+00  0.15327890745E+04  0.15327890745E+04  0.00000000000E+00 0. -1.
          4   -1    0    0  502    0  0.00000000000E+00 -0.00000000000E+00 -0.18440976041E+04  0.18440976041E+04  0.00000000000E+00 0.  1.
   -9000010    2    1    2    0  501  0.27237777190E+03 -0.26003702744E+03  0.11385803795E+04  0.15743557774E+04  0.10200107484E+04 0.  0.
    9000010    2    1    2  502    0 -0.27237777190E+03  0.26003702744E+03 -0.14498889091E+04  0.18025309013E+04  0.10025621651E+04 0.  0.
        -13    1    4    4    0    0 -0.52455255048E+03  0.25672251733E+03 -0.36493333514E+03  0.68864953306E+03  0.10566000000E+00 0.  1.
          4    1    4    4  502    0  0.25217477858E+03  0.33145101092E+01 -0.10849555740E+04  0.11138813682E+04  0.00000000000E+00 0.  1.
         13    1    3    3    0    0 -0.12813817128E+03 -0.51958895410E+03  0.88418507605E+03  0.10335256804E+04  0.10566000000E+00 0. -1.
         -4    1    3    3    0  501  0.40051594318E+03  0.25955192666E+03  0.25439530342E+03  0.54083009696E+03  0.00000000000E+00 0. -1.
<mgrwt>
<rscale>  0 0.10790976E+04</rscale>
<asrwt>0</asrwt>
<pdfrwt beam="2">  1        4 0.28370733E+00 0.10709528E+04</pdfrwt>
<pdfrwt beam="1">  1       -4 0.23581370E+00 0.10873044E+04</pdfrwt>
<totfact> 0.91473529E-02</totfact>
</mgrwt>
</event>
<event>
 8    1  0.2939692E-006  0.1330088E+04  0.7818608E-02  0.8518725E-01
         -4   -1    0    0    0  501 -0.00000000000E+00  0.00000000000E+00  0.16686003574E+04  0.16686003574E+04  0.00000000000E+00 0. -1.
          4   -1    0    0  502    0  0.00000000000E+00 -0.00000000000E+00 -0.10863623153E+04  0.10863623153E+04  0.00000000000E+00 0.  1.
   -9000010    2    1    2    0  501 -0.83708387866E+03  0.22810544589E+03  0.54067285826E+03  0.14242251320E+04  0.99163933590E+03 0.  0.
    9000010    2    1    2  502    0  0.83708387866E+03 -0.22810544589E+03  0.41565183834E+02  0.13307375407E+04  0.10081632920E+04 0.  0.
        -13    1    4    4    0    0  0.98260651254E+03  0.81066216372E+02 -0.43837732807E+01  0.98595462296E+03  0.10566000000E+00 0.  1.
          4    1    4    4  502    0 -0.14552263388E+03 -0.30917166227E+03  0.45948957114E+02  0.34478291776E+03  0.00000000000E+00 0.  1.
         13    1    3    3    0    0 -0.85280512677E+03  0.45894302191E+03  0.65198280908E+03  0.11674702892E+04  0.10566000000E+00 0. -1.
         -4    1    3    3    0  501  0.15721248111E+02 -0.23083757602E+03 -0.11130995081E+03  0.25675484279E+03  0.00000000000E+00 0. -1.
<mgrwt>
<rscale>  0 0.13238333E+04</rscale>
<asrwt>0</asrwt>
<pdfrwt beam="2">  1        4 0.16713266E+00 0.13300882E+04</pdfrwt>
<pdfrwt beam="1">  1       -4 0.25670775E+00 0.13176077E+04</pdfrwt>
<totfact> 0.16554927E-01</totfact>
</mgrwt>
</event>
<event>
 8    1  0.2939692E-006  0.1110061E+04  0.7818608E-02  0.8726172E-01
          4   -1    0    0  502    0  0.00000000000E+00  0.00000000000E+00  0.91034269586E+03  0.91034269586E+03  0.00000000000E+00 0.  1.
         -4   -1    0    0    0  501 -0.00000000000E+00 -0.00000000000E+00 -0.16049588634E+04  0.16049588634E+04  0.00000000000E+00 0. -1.
   -9000010    2    1    2    0  501  0.39931057703E+02  0.16599593178E+03 -0.94726607447E+03  0.13768518161E+04  0.98450940521E+03 0.  0.
    9000010    2    1    2  502    0 -0.39931057703E+02 -0.16599593178E+03  0.25264990695E+03  0.11384497431E+04  0.10968530911E+04 0.  0.
        -13    1    4    4    0    0 -0.51878659400E+03  0.14549678697E+03  0.12097409702E+03  0.55221697587E+03  0.10566000000E+00 0.  1.
          4    1    4    4  502    0  0.47885553630E+03 -0.31149271874E+03  0.13167580993E+03  0.58623276724E+03  0.00000000000E+00 0.  1.
         13    1    3    3    0    0 -0.46620745189E+03  0.16019027100E+03 -0.47558071439E+03  0.68497250907E+03  0.10566000000E+00 0. -1.
         -4    1    3    3    0  501  0.50613850960E+03  0.58056607791E+01 -0.47168536008E+03  0.69187930704E+03  0.00000000000E+00 0. -1.
<mgrwt>
<rscale>  0 0.10531748E+04</rscale>
<asrwt>0</asrwt>
<pdfrwt beam="1">  1        4 0.14005272E+00 0.11100612E+04</pdfrwt>
<pdfrwt beam="2">  1       -4 0.24691675E+00 0.99920364E+03</pdfrwt>
<totfact> 0.22913956E-01</totfact>
</mgrwt>
</event>
<event>
 8    1  0.2939692E-006  0.1060194E+04  0.7818608E-02  0.8724467E-01
         -4   -1    0    0    0  501 -0.00000000000E+00  0.00000000000E+00  0.69771204702E+03  0.69771204702E+03  0.00000000000E+00 0. -1.
          4   -1    0    0  502    0  0.00000000000E+00 -0.00000000000E+00 -0.20846674361E+04  0.20846674361E+04  0.00000000000E+00 0.  1.
   -9000010    2    1    2    0  501  0.31576643710E+03 -0.24716422740E+03 -0.22213166754E+02  0.10604267288E+04  0.98143406513E+03 0.  0.
    9000010    2    1    2  502    0 -0.31576643710E+03  0.24716422740E+03 -0.13647422223E+04  0.17219527543E+04  0.97046450564E+03 0.  0.
        -13    1    4    4    0    0 -0.51941597625E+03  0.44281473250E+03 -0.60743625916E+03  0.91370491069E+03  0.10566000000E+00 0.  1.
          4    1    4    4  502    0  0.20364953916E+03 -0.19565050510E+03 -0.75730596314E+03  0.80824784365E+03  0.00000000000E+00 0.  1.
         13    1    3    3    0    0  0.43348288894E+03 -0.22940647491E+03  0.39300423645E+03  0.62847998120E+03  0.10566000000E+00 0. -1.
         -4    1    3    3    0  501 -0.11771645184E+03 -0.17757752489E+02 -0.41521740321E+03  0.43194674757E+03  0.00000000000E+00 0. -1.
<mgrwt>
<rscale>  0 0.10551086E+04</rscale>
<asrwt>0</asrwt>
<pdfrwt beam="2">  1        4 0.32071806E+00 0.10500476E+04</pdfrwt>
<pdfrwt beam="1">  1       -4 0.10734032E+00 0.10601940E+04</pdfrwt>
<totfact> 0.23093904E-01</totfact>
</mgrwt>
</event>
<event>
 8    1  0.2939692E-006  0.1090056E+04  0.7818608E-02  0.8705250E-01
          4   -1    0    0  502    0  0.00000000000E+00  0.00000000000E+00  0.21149495414E+04  0.21149495414E+04  0.00000000000E+00 0.  1.
         -4   -1    0    0    0  501 -0.00000000000E+00 -0.00000000000E+00 -0.14289140774E+04  0.14289140774E+04  0.00000000000E+00 0. -1.
   -9000010    2    1    2    0  501 -0.36195581584E+03  0.40921919054E+02 -0.10491973049E+04  0.14946555302E+04  0.10002467463E+04 0.  0.
    9000010    2    1    2  502    0  0.36195581584E+03 -0.40921919054E+02  0.17352327689E+04  0.20492080886E+04  0.10273920439E+04 0.  0.
        -13    1    4    4    0    0 -0.19160833052E+03 -0.36999854323E+03  0.92270673593E+03  0.10124230371E+04  0.10566000000E+00 0.  1.
          4    1    4    4  502    0  0.55356414636E+03  0.32907662417E+03  0.81252603297E+03  0.10367850515E+04  0.00000000000E+00 0.  1.
         13    1    3    3    0    0 -0.35811540037E+03 -0.68276100667E+02 -0.12302811216E+04  0.12831601284E+04  0.10566000000E+00 0. -1.
         -4    1    3    3    0  501 -0.38404154731E+01  0.10919801972E+03  0.18108381671E+03  0.21149540179E+03  0.00000000000E+00 0. -1.
<mgrwt>
<rscale>  0 0.10772067E+04</rscale>
<asrwt>0</asrwt>
<pdfrwt beam="1">  1        4 0.32537685E+00 0.10900555E+04</pdfrwt>
<pdfrwt beam="2">  1       -4 0.21983294E+00 0.10645094E+04</pdfrwt>
<totfact> 0.77191493E-02</totfact>
</mgrwt>
</event>
<event>
 8    1  0.2939692E-006  0.1091134E+04  0.7818608E-02  0.8706056E-01
         -4   -1    0    0    0  501 -0.00000000000E+00  0.00000000000E+00  0.11209632777E+04  0.11209632777E+04  0.00000000000E+00 0. -1.
          4   -1    0    0  502    0  0.00000000000E+00 -0.00000000000E+00 -0.10340690360E+04  0.10340690360E+04  0.00000000000E+00 0.  1.
   -9000010    2    1    2    0  501 -0.38813953123E+03 -0.16728146572E+03  0.18752977791E+02  0.10617726471E+04  0.97384500590E+03 0.  0.
    9000010    2    1    2  502    0  0.38813953123E+03  0.16728146572E+03  0.68141263966E+02  0.10932596666E+04  0.10059513319E+04 0.  0.
        -13    1    4    4    0    0  0.69593627699E+03  0.15317827163E+03  0.22531552055E+03  0.74736736582E+03  0.10566000000E+00 0.  1.
          4    1    4    4  502    0 -0.30779674577E+03  0.14103194090E+02 -0.15717425658E+03  0.34589230075E+03  0.00000000000E+00 0.  1.
         13    1    3    3    0    0 -0.52664411400E+03  0.25389375482E+03  0.14189852138E+03  0.60162385515E+03  0.10566000000E+00 0. -1.
         -4    1    3    3    0  501  0.13850458277E+03 -0.42117522054E+03 -0.12314554359E+03  0.46014879197E+03  0.00000000000E+00 0. -1.
<mgrwt>
<rscale>  0 0.10762693E+04</rscale>
<asrwt>0</asrwt>
<pdfrwt beam="2">  1        4 0.15908754E+00 0.10911340E+04</pdfrwt>
<pdfrwt beam="1">  1       -4 0.17245589E+00 0.10616070E+04</pdfrwt>
<totfact> 0.30363143E-01</totfact>
</mgrwt>
</event>
<event>
 8    1  0.2939692E-006  0.9847493E+03  0.7818608E-02  0.8793008E-01
          4   -1    0    0  502    0  0.00000000000E+00  0.00000000000E+00  0.22582340013E+04  0.22582340013E+04  0.00000000000E+00 0.  1.
         -4   -1    0    0    0  501 -0.00000000000E+00 -0.00000000000E+00 -0.83716834921E+03  0.83716834921E+03  0.00000000000E+00 0. -1.
   -9000010    2    1    2    0  501 -0.17388089651E+03 -0.66969574474E+02 -0.37280864923E+03  0.10529565724E+04  0.96696006352E+03 0.  0.
    9000010    2    1    2  502    0  0.17388089651E+03  0.66969574474E+02  0.17938743014E+04  0.20424457781E+04  0.95858242074E+03 0.  0.
        -13    1    4    4    0    0 -0.18834525013E+03 -0.23429743564E+03  0.15705188070E+03  0.33916740113E+03  0.10566000000E+00 0.  1.
          4    1    4    4  502    0  0.36222614664E+03  0.30126701011E+03  0.16368224207E+04  0.17032783770E+04  0.00000000000E+00 0.  1.
         13    1    3    3    0    0  0.38983235611E+02 -0.48858665587E+03 -0.78303073226E+02  0.49635470723E+03  0.10566000000E+00 0. -1.
         -4    1    3    3    0  501 -0.21286413212E+03  0.42161708139E+03 -0.29450557600E+03  0.55660186522E+03  0.00000000000E+00 0. -1.
<mgrwt>
<rscale>  0 0.98062820E+03</rscale>
<asrwt>0</asrwt>
<pdfrwt beam="1">  1        4 0.34742061E+00 0.97652432E+03</pdfrwt>
<pdfrwt beam="2">  1       -4 0.12879513E+00 0.98474934E+03</pdfrwt>
<totfact> 0.14181294E-01</totfact>
</mgrwt>
</event>
<event>
 8    1  0.2939692E-006  0.1044308E+04  0.7818608E-02  0.8760545E-01
         -4   -1    0    0    0  501 -0.00000000000E+00  0.00000000000E+00  0.93473711761E+03  0.93473711761E+03  0.00000000000E+00 0. -1.
          4   -1    0    0  502    0  0.00000000000E+00 -0.00000000000E+00 -0.20165127111E+04  0.20165127111E+04  0.00000000000E+00 0.  1.
   -9000010    2    1    2    0  501 -0.26718560101E+03  0.34017124506E+02  0.44356364431E+03  0.11346051343E+04  0.10089771029E+04 0.  0.
    9000010    2    1    2  502    0  0.26718560101E+03 -0.34017124506E+02 -0.15253392378E+04  0.18166446943E+04  0.94920642914E+03 0.  0.
        -13    1    4    4    0    0 -0.13762583913E+03  0.17247641221E+03  0.45364882149E+01  0.22070245865E+03  0.10566000000E+00 0.  1.
          4    1    4    4  502    0  0.40481144014E+03 -0.20649353671E+03 -0.15298757260E+04  0.15959422357E+04  0.00000000000E+00 0.  1.
         13    1    3    3    0    0 -0.22829710613E+03 -0.15001458341E+03  0.73703386246E+03  0.78602981463E+03  0.10566000000E+00 0. -1.
         -4    1    3    3    0  501 -0.38888494880E+02  0.18403170791E+03 -0.29347021816E+03  0.34857531969E+03  0.00000000000E+00 0. -1.
<mgrwt>
<rscale>  0 0.10150855E+04</rscale>
<asrwt>0</asrwt>
<pdfrwt beam="2">  1        4 0.31023272E+00 0.98668037E+03</pdfrwt>
<pdfrwt beam="1">  1       -4 0.14380571E+00 0.10443084E+04</pdfrwt>
<totfact> 0.15287207E-01</totfact>
</mgrwt>
</event>
<event>
 8    1  0.2939692E-006  0.1222642E+04  0.7818608E-02  0.8592364E-01
          4   -1    0    0  502    0  0.00000000000E+00  0.00000000000E+00  0.33104864461E+04  0.33104864461E+04  0.00000000000E+00 0.  1.
         -4   -1    0    0    0  501 -0.00000000000E+00 -0.00000000000E+00 -0.63229170754E+03  0.63229170754E+03  0.00000000000E+00 0. -1.
   -9000010    2    1    2    0  501 -0.70923284599E+03 -0.77155249280E+00  0.27457663702E+03  0.12460702716E+04  0.98705975854E+03 0.  0.
    9000010    2    1    2  502    0  0.70923284599E+03  0.77155249280E+00  0.24036181016E+04  0.26967078821E+04  0.99591244499E+03 0.  0.
        -13    1    4    4    0    0  0.10903200570E+03 -0.43546717483E+03  0.62484414064E+03  0.76938277201E+03  0.10566000000E+00 0.  1.
          4    1    4    4  502    0  0.60020084030E+03  0.43623872732E+03  0.17787739609E+04  0.19273251101E+04  0.00000000000E+00 0.  1.
         13    1    3    3    0    0  0.13042222975E+03 -0.20771541149E+03  0.29171273025E+03  0.38111937545E+03  0.10566000000E+00 0. -1.
         -4    1    3    3    0  501 -0.83965507574E+03  0.20694385900E+03 -0.17136093238E+02  0.86495089611E+03  0.00000000000E+00 0. -1.
<mgrwt>
<rscale>  0 0.12190366E+04</rscale>
<asrwt>0</asrwt>
<pdfrwt beam="1">  1        4 0.50930560E+00 0.12226420E+04</pdfrwt>
<pdfrwt beam="2">  1       -4 0.97275649E-01 0.12154418E+04</pdfrwt>
<totfact> 0.46873694E-02</totfact>
</mgrwt>
</event>
<event>
 8    1  0.2939692E-006  0.1071850E+04  0.7818608E-02  0.8711763E-01
         -4   -1    0    0    0  501 -0.00000000000E+00  0.00000000000E+00  0.31486934657E+04  0.31486934657E+04  0.00000000000E+00 0. -1.
          4   -1    0    0  502    0  0.00000000000E+00 -0.00000000000E+00 -0.11685830230E+04  0.11685830230E+04  0.00000000000E+00 0.  1.
   -9000010    2    1    2    0  501 -0.22274915715E+03  0.30476996964E+03  0.27812795465E+04  0.29790928852E+04  0.99848714638E+03 0.  0.
    9000010    2    1    2  502    0  0.22274915715E+03 -0.30476996964E+03 -0.80116910383E+03  0.13381836034E+04  0.10031757084E+04 0.  0.
        -13    1    4    4    0    0 -0.34886892991E+03 -0.33611961806E+03 -0.25723281708E+03  0.54850219803E+03  0.10566000000E+00 0.  1.
          4    1    4    4  502    0  0.57161808705E+03  0.31349648426E+02 -0.54393628674E+03  0.78968140534E+03  0.00000000000E+00 0.  1.
         13    1    3    3    0    0  0.34580700111E+03  0.34891341394E+03  0.11316489673E+04  0.12336743690E+04  0.10566000000E+00 0. -1.
         -4    1    3    3    0  501 -0.56855615826E+03 -0.44143444302E+02  0.16496305793E+04  0.17454185162E+04  0.00000000000E+00 0. -1.
<mgrwt>
<rscale>  0 0.10696548E+04</rscale>
<asrwt>0</asrwt>
<pdfrwt beam="2">  1        4 0.17978200E+00 0.10718505E+04</pdfrwt>
<pdfrwt beam="1">  1       -4 0.48441438E+00 0.10674636E+04</pdfrwt>
<totfact> 0.23180227E-02</totfact>
</mgrwt>
</event>
<event>
 8    1  0.2939692E-006  0.1064681E+04  0.7818608E-02  0.8722100E-01
          4   -1    0    0  502    0  0.00000000000E+00  0.00000000000E+00  0.31517915632E+04  0.31517915632E+04  0.00000000000E+00 0.  1.
         -4   -1    0    0    0  501 -0.00000000000E+00 -0.00000000000E+00 -0.56574242426E+03  0.56574242426E+03  0.00000000000E+00 0. -1.
   -9000010    2    1    2    0  501  0.31857177524E+03 -0.23337520925E+03  0.16392150292E+03  0.10772262187E+04  0.98873358543E+03 0.  0.
    9000010    2    1    2  502    0 -0.31857177524E+03  0.23337520925E+03  0.24221276360E+04  0.26403077687E+04  0.97394602729E+03 0.  0.
        -13    1    4    4    0    0 -0.32707132311E+03 -0.25876243312E+03  0.17964613230E+04  0.18442361409E+04  0.10566000000E+00 0.  1.
          4    1    4    4  502    0  0.84995478748E+01  0.49213764237E+03  0.62566631299E+03  0.79607162778E+03  0.00000000000E+00 0.  1.
         13    1    3    3    0    0 -0.21920278787E+03  0.22671869332E+03  0.19151002726E+03  0.36895437363E+03  0.10566000000E+00 0. -1.
         -4    1    3    3    0  501  0.53777456311E+03 -0.46009390258E+03 -0.27588524340E+02  0.70827184512E+03  0.00000000000E+00 0. -1.
<mgrwt>
<rscale>  0 0.10577998E+04</rscale>
<asrwt>0</asrwt>
<pdfrwt beam="1">  1        4 0.48489100E+00 0.10509628E+04</pdfrwt>
<pdfrwt beam="2">  1       -4 0.87037298E-01 0.10646812E+04</pdfrwt>
<totfact> 0.77255303E-02</totfact>
</mgrwt>
</event>
<event>
 8    1  0.2939692E-006  0.1891757E+04  0.7818608E-02  0.8214111E-01
         -4   -1    0    0    0  501 -0.00000000000E+00  0.00000000000E+00  0.16793919924E+04  0.16793919924E+04  0.00000000000E+00 0. -1.
          4   -1    0    0  502    0  0.00000000000E+00 -0.00000000000E+00 -0.21975164595E+04  0.21975164595E+04  0.00000000000E+00 0.  1.
   -9000010    2    1    2    0  501 -0.13902575742E+04 -0.79677284873E+03  0.80377351359E+02  0.18934637117E+04  0.10055253422E+04 0.  0.
    9000010    2    1    2  502    0  0.13902575742E+04  0.79677284873E+03 -0.59850181848E+03  0.19834447402E+04  0.10040844165E+04 0.  0.
        -13    1    4    4    0    0  0.14672816062E+03  0.42995942410E+03 -0.51135634962E+03  0.68401724171E+03  0.10566000000E+00 0.  1.
          4    1    4    4  502    0  0.12435294136E+04  0.36681342463E+03 -0.87145468861E+02  0.12994274985E+04  0.00000000000E+00 0.  1.
         13    1    3    3    0    0  0.15119431222E+03  0.82345408994E+01 -0.12899063904E+02  0.15196685403E+03  0.10566000000E+00 0. -1.
         -4    1    3    3    0  501 -0.15414518865E+04 -0.80500738962E+03  0.93276415264E+02  0.17414968577E+04  0.00000000000E+00 0. -1.
<mgrwt>
<rscale>  0 0.18913741E+04</rscale>
<asrwt>0</asrwt>
<pdfrwt beam="2">  1        4 0.33807946E+00 0.18909914E+04</pdfrwt>
<pdfrwt beam="1">  1       -4 0.25836800E+00 0.18917569E+04</pdfrwt>
<totfact> 0.53366207E-02</totfact>
</mgrwt>
</event>
<event>
 8    1  0.2939692E-006  0.1434003E+04  0.7818608E-02  0.8499896E-01
         -4   -1    0    0    0  501 -0.00000000000E+00  0.00000000000E+00  0.93694891883E+03  0.93694891883E+03  0.00000000000E+00 0. -1.
          4   -1    0    0  502    0  0.00000000000E+00 -0.00000000000E+00 -0.25357409456E+04  0.25357409456E+04  0.00000000000E+00 0.  1.
   -9000010    2    1    2    0  501 -0.67678074179E+03 -0.43863635770E+03 -0.83129343363E+01  0.14340268024E+04  0.11857190807E+04 0.  0.
    9000010    2    1    2  502    0  0.67678074179E+03  0.43863635770E+03 -0.15904790924E+04  0.20386630620E+04  0.98797232261E+03 0.  0.
        -13    1    4    4    0    0  0.64177067968E+03 -0.17043815471E+03 -0.87401149981E+03  0.10976405982E+04  0.10566000000E+00 0.  1.
          4    1    4    4  502    0  0.35010062110E+02  0.60907451241E+03 -0.71646759260E+03  0.94102246380E+03  0.00000000000E+00 0.  1.
         13    1    3    3    0    0 -0.10024172999E+04 -0.45436107652E+03  0.54845383208E+02  0.11019493900E+04  0.10566000000E+00 0. -1.
         -4    1    3    3    0  501  0.32563655808E+03  0.15724718817E+02 -0.63158317544E+02  0.33207741239E+03  0.00000000000E+00 0. -1.
<mgrwt>
<rscale>  0 0.13523530E+04</rscale>
<asrwt>0</asrwt>
<pdfrwt beam="2">  1        4 0.39011399E+00 0.12753522E+04</pdfrwt>
<pdfrwt beam="1">  1       -4 0.14414599E+00 0.14340027E+04</pdfrwt>
<totfact> 0.81156466E-02</totfact>
</mgrwt>
</event>
<event>
 8    1  0.2939692E-006  0.1039739E+04  0.7818608E-02  0.8743780E-01
         -4   -1    0    0    0  501 -0.00000000000E+00  0.00000000000E+00  0.14295962618E+04  0.14295962618E+04  0.00000000000E+00 0. -1.
          4   -1    0    0  502    0  0.00000000000E+00 -0.00000000000E+00 -0.18825342445E+04  0.18825342445E+04  0.00000000000E+00 0.  1.
   -9000010    2    1    2    0  501 -0.19645491173E+03 -0.46190783973E+02  0.10601986206E+04  0.14762001122E+04  0.10071829700E+04 0.  0.
    9000010    2    1    2  502    0  0.19645491173E+03  0.46190783973E+02 -0.15131366033E+04  0.18359303941E+04  0.10199656420E+04 0.  0.
        -13    1    4    4    0    0  0.32916007445E+03  0.45859973321E+03 -0.59200611903E+03  0.81800447801E+03  0.10566000000E+00 0.  1.
          4    1    4    4  502    0 -0.13270516272E+03 -0.41240894924E+03 -0.92113048425E+03  0.10179259161E+04  0.00000000000E+00 0.  1.
         13    1    3    3    0    0 -0.40736688404E+03  0.22555321674E+03  0.10306354715E+04  0.11309427563E+04  0.10566000000E+00 0. -1.
         -4    1    3    3    0  501  0.21091197231E+03 -0.27174400072E+03  0.29563149138E+02  0.34525735586E+03  0.00000000000E+00 0. -1.
<mgrwt>
<rscale>  0 0.10334521E+04</rscale>
<asrwt>0</asrwt>
<pdfrwt beam="2">  1        4 0.28962065E+00 0.10397394E+04</pdfrwt>
<pdfrwt beam="1">  1       -4 0.21993789E+00 0.10272028E+04</pdfrwt>
<totfact> 0.97088631E-02</totfact>
</mgrwt>
</event>
<event>
 8    1  0.2939692E-006  0.1185780E+04  0.7818608E-02  0.8655924E-01
         -4   -1    0    0    0  501 -0.00000000000E+00  0.00000000000E+00  0.10828206835E+04  0.10828206835E+04  0.00000000000E+00 0. -1.
          4   -1    0    0  502    0  0.00000000000E+00 -0.00000000000E+00 -0.21031563859E+04  0.21031563859E+04  0.00000000000E+00 0.  1.
   -9000010    2    1    2    0  501  0.28524774980E+03  0.39443606412E+03  0.52372986914E+03  0.12962896018E+04  0.10812620720E+04 0.  0.
    9000010    2    1    2  502    0 -0.28524774980E+03 -0.39443606412E+03 -0.15440655715E+04  0.18896874677E+04  0.97459435088E+03 0.  0.
        -13    1    4    4    0    0 -0.62502165321E+03 -0.40659421653E+03 -0.11313851131E+04  0.13549919591E+04  0.10566000000E+00 0.  1.
          4    1    4    4  502    0  0.33977390341E+03  0.12158152409E+02 -0.41268045847E+03  0.53469550860E+03  0.00000000000E+00 0.  1.
         13    1    3    3    0    0  0.88734418619E+01  0.56663066261E+02  0.78535518013E+03  0.78744664020E+03  0.10566000000E+00 0. -1.
         -4    1    3    3    0  501  0.27637430794E+03  0.33777299786E+03 -0.26162531098E+03  0.50884296155E+03  0.00000000000E+00 0. -1.
<mgrwt>
<rscale>  0 0.11365658E+04</rscale>
<asrwt>0</asrwt>
<pdfrwt beam="2">  1        4 0.32356252E+00 0.10893944E+04</pdfrwt>
<pdfrwt beam="1">  1       -4 0.16658780E+00 0.11857798E+04</pdfrwt>
<totfact> 0.11270453E-01</totfact>
</mgrwt>
</event>
<event>
 8    1  0.2939692E-006  0.1438083E+04  0.7818608E-02  0.8447315E-01
          4   -1    0    0  502    0  0.00000000000E+00  0.00000000000E+00  0.20589712991E+04  0.20589712991E+04  0.00000000000E+00 0.  1.
         -4   -1    0    0    0  501 -0.00000000000E+00 -0.00000000000E+00 -0.16662190362E+04  0.16662190362E+04  0.00000000000E+00 0. -1.
   -9000010    2    1    2    0  501 -0.21380668302E+03  0.10030896546E+04 -0.98022973441E+03  0.17369341373E+04  0.10020916685E+04 0.  0.
    9000010    2    1    2  502    0  0.21380668302E+03 -0.10030896546E+04  0.13729819973E+04  0.19882561980E+04  0.10080580296E+04 0.  0.
        -13    1    4    4    0    0 -0.25379616541E+03 -0.28483678912E+02  0.62095033609E+03  0.67141875502E+03  0.10566000000E+00 0.  1.
          4    1    4    4  502    0  0.46760284843E+03 -0.97460597567E+03  0.75203166126E+03  0.13168374430E+04  0.00000000000E+00 0.  1.
         13    1    3    3    0    0 -0.54998825398E+03  0.24218280238E+03 -0.37776368964E+03  0.70982040380E+03  0.10566000000E+00 0. -1.
         -4    1    3    3    0  501  0.33618157096E+03  0.76090685220E+03 -0.60246604477E+03  0.10271137335E+04  0.00000000000E+00 0. -1.
<mgrwt>
<rscale>  0 0.14359937E+04</rscale>
<asrwt>0</asrwt>
<pdfrwt beam="1">  1        4 0.31676482E+00 0.14380831E+04</pdfrwt>
<pdfrwt beam="2">  1       -4 0.25634139E+00 0.14339072E+04</pdfrwt>
<totfact> 0.64411971E-02</totfact>
</mgrwt>
</event>
<event>
 8    1  0.2939692E-006  0.1470832E+04  0.7818608E-02  0.8428466E-01
          4   -1    0    0  502    0  0.00000000000E+00  0.00000000000E+00  0.22931308457E+04  0.22931308457E+04  0.00000000000E+00 0.  1.
         -4   -1    0    0    0  501 -0.00000000000E+00 -0.00000000000E+00 -0.29312131250E+04  0.29312131250E+04  0.00000000000E+00 0. -1.
   -9000010    2    1    2    0  501 -0.73522747156E+03  0.78240558383E+03 -0.24727187541E+04  0.28770966620E+04  0.10053005686E+04 0.  0.
    9000010    2    1    2  502    0  0.73522747156E+03 -0.78240558383E+03  0.18346364747E+04  0.23472473087E+04  0.99547024117E+03 0.  0.
        -13    1    4    4    0    0  0.73780897993E+03 -0.74766322421E+03  0.82147096257E+03  0.13334830112E+04  0.10566000000E+00 0.  1.
          4    1    4    4  502    0 -0.25815083675E+01 -0.34742359622E+02  0.10131655122E+04  0.10137642974E+04  0.00000000000E+00 0.  1.
         13    1    3    3    0    0 -0.95551428061E+03  0.41960198214E+03 -0.16753130586E+04  0.19737647325E+04  0.10566000000E+00 0. -1.
         -4    1    3    3    0  501  0.22028680904E+03  0.36280360169E+03 -0.79740569548E+03  0.90333192948E+03  0.00000000000E+00 0. -1.
<mgrwt>
<rscale>  0 0.14674776E+04</rscale>
<asrwt>0</asrwt>
<pdfrwt beam="1">  1        4 0.35278936E+00 0.14641308E+04</pdfrwt>
<pdfrwt beam="2">  1       -4 0.45095587E+00 0.14708321E+04</pdfrwt>
<totfact> 0.10714962E-02</totfact>
</mgrwt>
</event>
<event>
 8    1  0.2939692E-006  0.1090015E+04  0.7818608E-02  0.8706278E-01
          4   -1    0    0  502    0  0.00000000000E+00  0.00000000000E+00  0.10996110751E+04  0.10996110751E+04  0.00000000000E+00 0.  1.
         -4   -1    0    0    0  501 -0.00000000000E+00 -0.00000000000E+00 -0.15620098261E+04  0.15620098261E+04  0.00000000000E+00 0. -1.
   -9000010    2    1    2    0  501 -0.34883433334E+03  0.10993212556E+02 -0.99279379123E+03  0.14743717991E+04  0.10326308378E+04 0.  0.
    9000010    2    1    2  502    0  0.34883433334E+03 -0.10993212556E+02  0.53039504025E+03  0.11872491021E+04  0.10032124845E+04 0.  0.
        -13    1    4    4    0    0  0.69771739172E+03  0.71583778336E+02  0.38744668500E+03  0.80127943996E+03  0.10566000000E+00 0.  1.
          4    1    4    4  502    0 -0.34888305838E+03 -0.82576990892E+02  0.14294835526E+03  0.38596966218E+03  0.00000000000E+00 0.  1.
         13    1    3    3    0    0 -0.21322053757E+03 -0.30556013565E+03  0.50226586444E+02  0.37596903501E+03  0.10566000000E+00 0. -1.
         -4    1    3    3    0  501 -0.13561379577E+03  0.31655334820E+03 -0.10430203777E+04  0.10984027641E+04  0.00000000000E+00 0. -1.
<mgrwt>
<rscale>  0 0.10760111E+04</rscale>
<asrwt>0</asrwt>
<pdfrwt beam="1">  1        4 0.16917093E+00 0.10621871E+04</pdfrwt>
<pdfrwt beam="2">  1       -4 0.24030920E+00 0.10900150E+04</pdfrwt>
<totfact> 0.18009083E-01</totfact>
</mgrwt>
</event>
<event>
 8    1  0.2939692E-006  0.1295204E+04  0.7818608E-02  0.8541018E-01
         -4   -1    0    0    0  501 -0.00000000000E+00  0.00000000000E+00  0.94688300421E+03  0.94688300421E+03  0.00000000000E+00 0. -1.
          4   -1    0    0  502    0  0.00000000000E+00 -0.00000000000E+00 -0.17605326511E+04  0.17605326511E+04  0.00000000000E+00 0.  1.
   -9000010    2    1    2    0  501  0.74480586839E+03  0.35066432856E+03 -0.38660980761E+03  0.13436276956E+04  0.98902324956E+03 0.  0.
    9000010    2    1    2  502    0 -0.74480586839E+03 -0.35066432856E+03 -0.42703983925E+03  0.13637879597E+04  0.99992665815E+03 0.  0.
        -13    1    4    4    0    0  0.10203887674E+03 -0.10006664154E+03 -0.45832320512E+03  0.48008898824E+03  0.10566000000E+00 0.  1.
          4    1    4    4  502    0 -0.84684474513E+03 -0.25059768702E+03  0.31283365872E+02  0.88369897141E+03  0.00000000000E+00 0.  1.
         13    1    3    3    0    0  0.41971464153E+03  0.54040172440E+03 -0.60076869594E+03  0.91055886204E+03  0.10566000000E+00 0. -1.
         -4    1    3    3    0  501  0.32509122687E+03 -0.18973739584E+03  0.21415888833E+03  0.43306883358E+03  0.00000000000E+00 0. -1.
<mgrwt>
<rscale>  0 0.12909981E+04</rscale>
<asrwt>0</asrwt>
<pdfrwt beam="2">  1        4 0.27085117E+00 0.12952045E+04</pdfrwt>
<pdfrwt beam="1">  1       -4 0.14567431E+00 0.12868054E+04</pdfrwt>
<totfact> 0.18747938E-01</totfact>
</mgrwt>
</event>
<event>
 8    1  0.2939692E-006  0.1197855E+04  0.7818608E-02  0.8608351E-01
          4   -1    0    0  502    0  0.00000000000E+00  0.00000000000E+00  0.24564143495E+04  0.24564143495E+04  0.00000000000E+00 0.  1.
         -4   -1    0    0    0  501 -0.00000000000E+00 -0.00000000000E+00 -0.68409675969E+03  0.68409675969E+03  0.00000000000E+00 0. -1.
   -9000010    2    1    2    0  501 -0.61890556341E+03 -0.24884313271E+03  0.28536614891E+03  0.12313779076E+04  0.99493251597E+03 0.  0.
    9000010    2    1    2  502    0  0.61890556341E+03  0.24884313271E+03  0.14869514409E+04  0.19091332015E+04  0.99438322218E+03 0.  0.
        -13    1    4    4    0    0  0.39201922538E+03  0.34795077981E+02  0.38431893413E+01  0.39357915568E+03  0.10566000000E+00 0.  1.
          4    1    4    4  502    0  0.22688633803E+03  0.21404805473E+03  0.14831082515E+04  0.15155540459E+04  0.00000000000E+00 0.  1.
         13    1    3    3    0    0 -0.16608819906E+03  0.33378618480E+03 -0.11719261030E+03  0.39081021750E+03  0.10566000000E+00 0. -1.
         -4    1    3    3    0  501 -0.45281736435E+03 -0.58262931751E+03  0.40255875921E+03  0.84056769013E+03  0.00000000000E+00 0. -1.
<mgrwt>
<rscale>  0 0.11976273E+04</rscale>
<asrwt>0</asrwt>
<pdfrwt beam="1">  1        4 0.37790989E+00 0.11973993E+04</pdfrwt>
<pdfrwt beam="2">  1       -4 0.10524566E+00 0.11978555E+04</pdfrwt>
<totfact> 0.15362164E-01</totfact>
</mgrwt>
</event>
<event>
 8    1  0.2939692E-006  0.1005290E+04  0.7818608E-02  0.8774032E-01
          4   -1    0    0  502    0  0.00000000000E+00  0.00000000000E+00  0.22024032662E+04  0.22024032662E+04  0.00000000000E+00 0.  1.
         -4   -1    0    0    0  501 -0.00000000000E+00 -0.00000000000E+00 -0.85797729980E+03  0.85797729980E+03  0.00000000000E+00 0. -1.
   -9000010    2    1    2    0  501  0.46997537402E+02 -0.26201017811E+02 -0.37865888806E+03  0.10654795461E+04  0.99446912863E+03 0.  0.
    9000010    2    1    2  502    0 -0.46997537402E+02  0.26201017811E+02  0.17230848545E+04  0.19949010199E+04  0.10038492923E+04 0.  0.
        -13    1    4    4    0    0 -0.36329338221E+03 -0.35568502716E+03  0.91686998788E+03  0.10484009281E+04  0.10566000000E+00 0.  1.
          4    1    4    4  502    0  0.31629584481E+03  0.38188604497E+03  0.80621486661E+03  0.94650009188E+03  0.00000000000E+00 0.  1.
         13    1    3    3    0    0 -0.12647606168E+03  0.42756738602E+03 -0.37032244024E+03  0.57961089075E+03  0.10566000000E+00 0. -1.
         -4    1    3    3    0  501  0.17347359908E+03 -0.45376840383E+03 -0.83364478152E+01  0.48586865535E+03  0.00000000000E+00 0. -1.
<mgrwt>
<rscale>  0 0.10005961E+04</rscale>
<asrwt>0</asrwt>
<pdfrwt beam="1">  1        4 0.33883127E+00 0.10052903E+04</pdfrwt>
<pdfrwt beam="2">  1       -4 0.13199651E+00 0.99592375E+03</pdfrwt>
<totfact> 0.14467613E-01</totfact>
</mgrwt>
</event>
<event>
 8    1  0.2939692E-006  0.1217909E+04  0.7818608E-02  0.8599228E-01
         -4   -1    0    0    0  501 -0.00000000000E+00  0.00000000000E+00  0.15830776305E+04  0.15830776305E+04  0.00000000000E+00 0. -1.
          4   -1    0    0  502    0  0.00000000000E+00 -0.00000000000E+00 -0.22923262867E+04  0.22923262867E+04  0.00000000000E+00 0.  1.
   -9000010    2    1    2    0  501 -0.17754218730E+03 -0.65274146225E+03  0.11430876208E+04  0.16585473666E+04  0.99324589790E+03 0.  0.
    9000010    2    1    2  502    0  0.17754218730E+03  0.65274146225E+03 -0.18523362770E+04  0.22168565506E+04  0.10127737348E+04 0.  0.
        -13    1    4    4    0    0 -0.24191309944E+03  0.55784628606E+03 -0.16149711680E+04  0.17256437382E+04  0.10566000000E+00 0.  1.
          4    1    4    4  502    0  0.41945528673E+03  0.94895176195E+02 -0.23736510896E+03  0.49121281232E+03  0.00000000000E+00 0.  1.
         13    1    3    3    0    0 -0.28876657632E+03 -0.52551845131E+02  0.98528236379E+03  0.10280706102E+04  0.10566000000E+00 0. -1.
         -4    1    3    3    0  501  0.11122438902E+03 -0.60018961712E+03  0.15780525697E+03  0.63047675639E+03  0.00000000000E+00 0. -1.
<mgrwt>
<rscale>  0 0.12097874E+04</rscale>
<asrwt>0</asrwt>
<pdfrwt beam="2">  1        4 0.35266558E+00 0.12179094E+04</pdfrwt>
<pdfrwt beam="1">  1       -4 0.24355040E+00 0.12017196E+04</pdfrwt>
<totfact> 0.54931978E-02</totfact>
</mgrwt>
</event>
<event>
 8    1  0.2939692E-006  0.1074364E+04  0.7818608E-02  0.8757825E-01
         -4   -1    0    0    0  501 -0.00000000000E+00  0.00000000000E+00  0.12292393098E+04  0.12292393098E+04  0.00000000000E+00 0. -1.
          4   -1    0    0  502    0  0.00000000000E+00 -0.00000000000E+00 -0.20734762629E+04  0.20734762629E+04  0.00000000000E+00 0.  1.
   -9000010    2    1    2    0  501  0.41969561331E+03  0.75738426343E+02  0.83865993479E+03  0.13629414555E+04  0.98609239311E+03 0.  0.
    9000010    2    1    2  502    0 -0.41969561331E+03 -0.75738426343E+02 -0.16828968879E+04  0.19397741172E+04  0.86527508531E+03 0.  0.
        -13    1    4    4    0    0  0.30948267378E+02  0.28302723052E+03 -0.19724280747E+03  0.34636244706E+03  0.10566000000E+00 0.  1.
          4    1    4    4  502    0 -0.45064388069E+03 -0.35876565686E+03 -0.14856540804E+04  0.15934116701E+04  0.00000000000E+00 0.  1.
         13    1    3    3    0    0  0.84785820172E+02  0.17028634291E+03  0.97187409943E+03  0.99031578307E+03  0.10566000000E+00 0. -1.
         -4    1    3    3    0  501  0.33490979314E+03 -0.94547916564E+02 -0.13321416465E+03  0.37262567240E+03  0.00000000000E+00 0. -1.
<mgrwt>
<rscale>  0 0.10180390E+04</rscale>
<asrwt>0</asrwt>
<pdfrwt beam="2">  1        4 0.31899635E+00 0.96466662E+03</pdfrwt>
<pdfrwt beam="1">  1       -4 0.18911374E+00 0.10743644E+04</pdfrwt>
<totfact> 0.98494915E-02</totfact>
</mgrwt>
</event>
<event>
 8    1  0.2939692E-006  0.1806060E+04  0.7818608E-02  0.8259906E-01
         -4   -1    0    0    0  501 -0.00000000000E+00  0.00000000000E+00  0.26950257634E+04  0.26950257634E+04  0.00000000000E+00 0. -1.
          4   -1    0    0  502    0  0.00000000000E+00 -0.00000000000E+00 -0.15717734120E+04  0.15717734120E+04  0.00000000000E+00 0.  1.
   -9000010    2    1    2    0  501 -0.10660060049E+04 -0.10026294624E+04  0.16190887206E+04  0.24255519727E+04  0.10584041977E+04 0.  0.
    9000010    2    1    2  502    0  0.10660060049E+04  0.10026294624E+04 -0.49583636926E+03  0.18412472027E+04  0.10013505456E+04 0.  0.
        -13    1    4    4    0    0  0.74908686610E+02 -0.14379120222E+03 -0.26166280679E+03  0.30782244360E+03  0.10566000000E+00 0.  1.
          4    1    4    4  502    0  0.99109731828E+03  0.11464206646E+04 -0.23417356247E+03  0.15334247591E+04  0.00000000000E+00 0.  1.
         13    1    3    3    0    0  0.11532939322E+03  0.12577687017E+03  0.12310730695E+03  0.21041889221E+03  0.10566000000E+00 0. -1.
         -4    1    3    3    0  501 -0.11813353981E+04 -0.11284063325E+04  0.14959814137E+04  0.22151330805E+04  0.00000000000E+00 0. -1.
<mgrwt>
<rscale>  0 0.17895689E+04</rscale>
<asrwt>0</asrwt>
<pdfrwt beam="2">  1        4 0.24181129E+00 0.17732280E+04</pdfrwt>
<pdfrwt beam="1">  1       -4 0.41461935E+00 0.18060604E+04</pdfrwt>
<totfact> 0.30398588E-02</totfact>
</mgrwt>
</event>
<event>
 8    1  0.2939692E-006  0.1089024E+04  0.7818608E-02  0.8698397E-01
         -4   -1    0    0    0  501 -0.00000000000E+00  0.00000000000E+00  0.13212658757E+04  0.13212658757E+04  0.00000000000E+00 0. -1.
          4   -1    0    0  502    0  0.00000000000E+00 -0.00000000000E+00 -0.16889634100E+04  0.16889634100E+04  0.00000000000E+00 0.  1.
   -9000010    2    1    2    0  501 -0.25388831764E+03 -0.34201459063E+03  0.85012349079E+03  0.13815509137E+04  0.10022672895E+04 0.  0.
    9000010    2    1    2  502    0  0.25388831764E+03  0.34201459063E+03 -0.12178210251E+04  0.16286783720E+04  0.99401807434E+03 0.  0.
        -13    1    4    4    0    0  0.95412805274E+02  0.66241760340E+03 -0.10205053284E+04  0.12203818342E+04  0.10566000000E+00 0.  1.
          4    1    4    4  502    0  0.15847551237E+03 -0.32040301277E+03 -0.19731569668E+03  0.40829653779E+03  0.00000000000E+00 0.  1.
         13    1    3    3    0    0 -0.32611296607E+03 -0.32398632505E+03  0.10618692525E+04  0.11571011737E+04  0.10566000000E+00 0. -1.
         -4    1    3    3    0  501  0.72224648433E+02 -0.18028265584E+02 -0.21174576174E+03  0.22444974007E+03  0.00000000000E+00 0. -1.
<mgrwt>
<rscale>  0 0.10852236E+04</rscale>
<asrwt>0</asrwt>
<pdfrwt beam="2">  1        4 0.25984052E+00 0.10814366E+04</pdfrwt>
<pdfrwt beam="1">  1       -4 0.20327167E+00 0.10890239E+04</pdfrwt>
<totfact> 0.12637358E-01</totfact>
</mgrwt>
</event>
<event>
 8    1  0.2939692E-006  0.1267942E+04  0.7818608E-02  0.8558160E-01
          4   -1    0    0  502    0  0.00000000000E+00  0.00000000000E+00  0.19884985507E+04  0.19884985507E+04  0.00000000000E+00 0.  1.
         -4   -1    0    0    0  501 -0.00000000000E+00 -0.00000000000E+00 -0.18352631450E+04  0.18352631450E+04  0.00000000000E+00 0. -1.
   -9000010    2    1    2    0  501 -0.51470563942E+03  0.57345965919E+03 -0.13547380922E+04  0.18555300858E+04  0.10069253819E+04 0.  0.
    9000010    2    1    2  502    0  0.51470563942E+03 -0.57345965919E+03  0.15079734980E+04  0.19682316099E+04  0.10030821120E+04 0.  0.
        -13    1    4    4    0    0  0.62533318218E+03 -0.65687778978E+03  0.15725754058E+04  0.18153576611E+04  0.10566000000E+00 0.  1.
          4    1    4    4  502    0 -0.11062754276E+03  0.83418130592E+02 -0.64601907801E+02  0.15287394880E+03  0.00000000000E+00 0.  1.
         13    1    3    3    0    0 -0.40205129582E+03  0.86539482709E+03 -0.10481061208E+04  0.14174201575E+04  0.10566000000E+00 0. -1.
         -4    1    3    3    0  501 -0.11265434360E+03 -0.29193516790E+03 -0.30663197142E+03  0.43810992831E+03  0.00000000000E+00 0. -1.
<mgrwt>
<rscale>  0 0.12664160E+04</rscale>
<asrwt>0</asrwt>
<pdfrwt beam="1">  1        4 0.30592285E+00 0.12648919E+04</pdfrwt>
<pdfrwt beam="2">  1       -4 0.28234818E+00 0.12679419E+04</pdfrwt>
<totfact> 0.60580997E-02</totfact>
</mgrwt>
</event>
<event>
 8    1  0.2939692E-006  0.1510018E+04  0.7818608E-02  0.8404837E-01
          4   -1    0    0  502    0  0.00000000000E+00  0.00000000000E+00  0.27504119690E+04  0.27504119690E+04  0.00000000000E+00 0.  1.
         -4   -1    0    0    0  501 -0.00000000000E+00 -0.00000000000E+00 -0.17808691959E+04  0.17808691959E+04  0.00000000000E+00 0. -1.
   -9000010    2    1    2    0  501  0.46644549234E+03  0.10272610595E+04 -0.11731232604E+04  0.19121647052E+04  0.10036528254E+04 0.  0.
    9000010    2    1    2  502    0 -0.46644549234E+03 -0.10272610595E+04  0.21426660334E+04  0.26191164597E+04  0.99795621999E+03 0.  0.
        -13    1    4    4    0    0 -0.42283050513E+03 -0.44356703372E+03  0.18803767569E+04  0.19777143647E+04  0.10566000000E+00 0.  1.
          4    1    4    4  502    0 -0.43614987214E+02 -0.58369402580E+03  0.26228927655E+03  0.64140209499E+03  0.00000000000E+00 0.  1.
         13    1    3    3    0    0 -0.25955268598E+03  0.39792491181E+03 -0.68730366540E+03  0.83552269381E+03  0.10566000000E+00 0. -1.
         -4    1    3    3    0  501  0.72599817833E+03  0.62933614771E+03 -0.48581959497E+03  0.10766420114E+04  0.00000000000E+00 0. -1.
<mgrwt>
<rscale>  0 0.15081271E+04</rscale>
<asrwt>0</asrwt>
<pdfrwt beam="1">  1        4 0.42314030E+00 0.15062381E+04</pdfrwt>
<pdfrwt beam="2">  1       -4 0.27397988E+00 0.15100184E+04</pdfrwt>
<totfact> 0.23995651E-02</totfact>
</mgrwt>
</event>
<event>
 8    1  0.2939692E-006  0.1159578E+04  0.7818608E-02  0.8647446E-01
         -4   -1    0    0    0  501 -0.00000000000E+00  0.00000000000E+00  0.13903533490E+04  0.13903533490E+04  0.00000000000E+00 0. -1.
          4   -1    0    0  502    0  0.00000000000E+00 -0.00000000000E+00 -0.10246853022E+04  0.10246853022E+04  0.00000000000E+00 0.  1.
   -9000010    2    1    2    0  501 -0.45868794796E+03 -0.30110014835E+03  0.51428234870E+03  0.12459756811E+04  0.99343501586E+03 0.  0.
    9000010    2    1    2  502    0  0.45868794796E+03  0.30110014835E+03 -0.14861430182E+03  0.11690629701E+04  0.10215508233E+04 0.  0.
        -13    1    4    4    0    0  0.72298236591E+03  0.44564340158E+02 -0.28202748528E+03  0.77732168081E+03  0.10566000000E+00 0.  1.
          4    1    4    4  502    0 -0.26429441796E+03  0.25653580819E+03  0.13341318346E+03  0.39174128933E+03  0.00000000000E+00 0.  1.
         13    1    3    3    0    0 -0.13876262203E+03 -0.50732612573E+02 -0.30087704458E+03  0.33519527199E+03  0.10566000000E+00 0. -1.
         -4    1    3    3    0  501 -0.31992532593E+03 -0.25036753577E+03  0.81515939327E+03  0.91078040909E+03  0.00000000000E+00 0. -1.
<mgrwt>
<rscale>  0 0.11471664E+04</rscale>
<asrwt>0</asrwt>
<pdfrwt beam="2">  1        4 0.15764389E+00 0.11595784E+04</pdfrwt>
<pdfrwt beam="1">  1       -4 0.21390052E+00 0.11348872E+04</pdfrwt>
<totfact> 0.23073012E-01</totfact>
</mgrwt>
</event>
<event>
 8    1  0.2939692E-006  0.1524987E+04  0.7818608E-02  0.8401037E-01
          4   -1    0    0  502    0  0.00000000000E+00  0.00000000000E+00  0.10915564090E+04  0.10915564090E+04  0.00000000000E+00 0.  1.
         -4   -1    0    0    0  501 -0.00000000000E+00 -0.00000000000E+00 -0.27489426007E+04  0.27489426007E+04  0.00000000000E+00 0. -1.
   -9000010    2    1    2    0  501 -0.73084676242E+03  0.88581285213E+03 -0.17558185429E+04  0.23123385824E+04  0.97221888726E+03 0.  0.
    9000010    2    1    2  502    0  0.73084676242E+03 -0.88581285213E+03  0.98432351144E+02  0.15281604274E+04  0.10033862491E+04 0.  0.
        -13    1    4    4    0    0 -0.73255541037E+02  0.15351266025E+03  0.12940764758E+03  0.21372613683E+03  0.10566000000E+00 0.  1.
          4    1    4    4  502    0  0.80410230346E+03 -0.10393255124E+04 -0.30975296434E+02  0.13144342905E+04  0.00000000000E+00 0.  1.
         13    1    3    3    0    0 -0.72139200298E+03  0.27459938832E+03 -0.51151736206E+03  0.92599204580E+03  0.10566000000E+00 0. -1.
         -4    1    3    3    0  501 -0.94547594479E+01  0.61121346381E+03 -0.12443011808E+04  0.13863465366E+04  0.00000000000E+00 0. -1.
<mgrwt>
<rscale>  0 0.15147910E+04</rscale>
<asrwt>0</asrwt>
<pdfrwt beam="1">  1        4 0.16793176E+00 0.15249870E+04</pdfrwt>
<pdfrwt beam="2">  1       -4 0.42291424E+00 0.15046631E+04</pdfrwt>
<totfact> 0.46968398E-02</totfact>
</mgrwt>
</event>
<event>
 8    1  0.2939692E-006  0.1418030E+04  0.7818608E-02  0.8460408E-01
         -4   -1    0    0    0  501 -0.00000000000E+00  0.00000000000E+00  0.14374576179E+04  0.14374576179E+04  0.00000000000E+00 0. -1.
          4   -1    0    0  502    0  0.00000000000E+00 -0.00000000000E+00 -0.35105455876E+04  0.35105455876E+04  0.00000000000E+00 0.  1.
   -9000010    2    1    2    0  501 -0.93153497814E+03 -0.34910985264E+03  0.88431005471E+03  0.16711709532E+04  0.10105310372E+04 0.  0.
    9000010    2    1    2  502    0  0.93153497814E+03  0.34910985264E+03 -0.29573980244E+04  0.32768322523E+04  0.10008953145E+04 0.  0.
        -13    1    4    4    0    0 -0.50202137714E+02 -0.25396348066E+03 -0.55977593811E+03  0.61673885575E+03  0.10566000000E+00 0.  1.
          4    1    4    4  502    0  0.98173711585E+03  0.60307333330E+03 -0.23976220863E+04  0.26600933966E+04  0.00000000000E+00 0.  1.
         13    1    3    3    0    0 -0.99801152158E+03  0.59502134316E+02  0.68321576424E+03  0.12109299290E+04  0.10566000000E+00 0. -1.
         -4    1    3    3    0  501  0.66476543437E+02 -0.40861198695E+03  0.20109429048E+03  0.46024102422E+03  0.00000000000E+00 0. -1.
<mgrwt>
<rscale>  0 0.14146002E+04</rscale>
<asrwt>0</asrwt>
<pdfrwt beam="2">  1        4 0.54008394E+00 0.14111791E+04</pdfrwt>
<pdfrwt beam="1">  1       -4 0.22114733E+00 0.14180296E+04</pdfrwt>
<totfact> 0.93040569E-03</totfact>
</mgrwt>
</event>
<event>
 8    1  0.2939692E-006  0.1059619E+04  0.7818608E-02  0.8723182E-01
          4   -1    0    0  502    0  0.00000000000E+00  0.00000000000E+00  0.20119337741E+04  0.20119337741E+04  0.00000000000E+00 0.  1.
         -4   -1    0    0    0  501 -0.00000000000E+00 -0.00000000000E+00 -0.96134642191E+03  0.96134642191E+03  0.00000000000E+00 0. -1.
   -9000010    2    1    2    0  501 -0.35155723795E+03  0.51452245062E+02 -0.44052017226E+03  0.11475408350E+04  0.99827457187E+03 0.  0.
    9000010    2    1    2  502    0  0.35155723795E+03 -0.51452245062E+02  0.14911075245E+04  0.18257393610E+04  0.99180781389E+03 0.  0.
        -13    1    4    4    0    0  0.36011581982E+03 -0.49375360390E+03  0.85975616592E+03  0.10548254363E+04  0.10566000000E+00 0.  1.
          4    1    4    4  502    0 -0.85585818754E+01  0.44230135884E+03  0.63135135855E+03  0.77091392470E+03  0.00000000000E+00 0.  1.
         13    1    3    3    0    0 -0.52476919512E+03 -0.17567312755E+03 -0.60338985415E+03  0.81873260785E+03  0.10566000000E+00 0. -1.
         -4    1    3    3    0  501  0.17321195718E+03  0.22712537261E+03  0.16286968189E+03  0.32880822719E+03  0.00000000000E+00 0. -1.
<mgrwt>
<rscale>  0 0.10565693E+04</rscale>
<asrwt>0</asrwt>
<pdfrwt beam="1">  1        4 0.30952827E+00 0.10535286E+04</pdfrwt>
<pdfrwt beam="2">  1       -4 0.14789945E+00 0.10596188E+04</pdfrwt>
<totfact> 0.14662879E-01</totfact>
</mgrwt>
</event>
<event>
 8    1  0.2939692E-006  0.1486903E+04  0.7818608E-02  0.8417975E-01
         -4   -1    0    0    0  501 -0.00000000000E+00  0.00000000000E+00  0.19193690494E+04  0.19193690494E+04  0.00000000000E+00 0. -1.
          4   -1    0    0  502    0  0.00000000000E+00 -0.00000000000E+00 -0.19588774025E+04  0.19588774025E+04  0.00000000000E+00 0.  1.
   -9000010    2    1    2    0  501  0.73806396358E+03  0.83123483875E+03  0.12267227866E+04  0.19252432783E+04  0.98286474844E+03 0.  0.
    9000010    2    1    2  502    0 -0.73806396358E+03 -0.83123483875E+03 -0.12662311397E+04  0.19530031737E+04  0.98751725340E+03 0.  0.
        -13    1    4    4    0    0  0.16553388732E+02 -0.52531600076E+03 -0.10698119550E+03  0.53635426976E+03  0.10566000000E+00 0.  1.
          4    1    4    4  502    0 -0.75461735232E+03 -0.30591883799E+03 -0.11592499442E+04  0.14166489039E+04  0.00000000000E+00 0.  1.
         13    1    3    3    0    0  0.48700014408E+02 -0.21979661150E+03  0.15373067083E+03  0.27260845942E+03  0.10566000000E+00 0. -1.
         -4    1    3    3    0  501  0.68936394918E+03  0.10510314503E+04  0.10729921158E+04  0.16526348188E+04  0.00000000000E+00 0. -1.
<mgrwt>
<rscale>  0 0.14853591E+04</rscale>
<asrwt>0</asrwt>
<pdfrwt beam="2">  1        4 0.30136575E+00 0.14869029E+04</pdfrwt>
<pdfrwt beam="1">  1       -4 0.29528755E+00 0.14838170E+04</pdfrwt>
<totfact> 0.56451247E-02</totfact>
</mgrwt>
</event>
<event>
 8    1  0.2939692E-006  0.1149717E+04  0.7818608E-02  0.8654141E-01
          4   -1    0    0  502    0  0.00000000000E+00  0.00000000000E+00  0.24435711870E+04  0.24435711870E+04  0.00000000000E+00 0.  1.
         -4   -1    0    0    0  501 -0.00000000000E+00 -0.00000000000E+00 -0.11252448231E+04  0.11252448231E+04  0.00000000000E+00 0. -1.
   -9000010    2    1    2    0  501 -0.42294997855E+03 -0.23637349136E+03 -0.64078146462E+03  0.12972633417E+04  0.10185932361E+04 0.  0.
    9000010    2    1    2  502    0  0.42294997855E+03  0.23637349136E+03  0.19591078285E+04  0.22715526683E+04  0.10426355688E+04 0.  0.
        -13    1    4    4    0    0  0.80639322521E+02  0.55960229586E+03  0.15426399556E+04  0.16429837107E+04  0.10566000000E+00 0.  1.
          4    1    4    4  502    0  0.34231065603E+03 -0.32322880450E+03  0.41646787291E+03  0.62856895760E+03  0.00000000000E+00 0.  1.
         13    1    3    3    0    0 -0.55586239677E+03 -0.42937379676E+03 -0.75955929172E+03  0.10345410530E+04  0.10566000000E+00 0. -1.
         -4    1    3    3    0  501  0.13291241822E+03  0.19300030539E+03  0.11877782709E+03  0.26272228875E+03  0.00000000000E+00 0. -1.
<mgrwt>
<rscale>  0 0.11387857E+04</rscale>
<asrwt>0</asrwt>
<pdfrwt beam="1">  1        4 0.37593403E+00 0.11497165E+04</pdfrwt>
<pdfrwt beam="2">  1       -4 0.17311459E+00 0.11279589E+04</pdfrwt>
<totfact> 0.71445741E-02</totfact>
</mgrwt>
</event>
<event>
 8    1  0.2939692E-006  0.1190772E+04  0.7818608E-02  0.8618588E-01
          4   -1    0    0  502    0  0.00000000000E+00  0.00000000000E+00  0.26173753305E+04  0.26173753305E+04  0.00000000000E+00 0.  1.
         -4   -1    0    0    0  501 -0.00000000000E+00 -0.00000000000E+00 -0.16347205892E+04  0.16347205892E+04  0.00000000000E+00 0. -1.
   -9000010    2    1    2    0  501 -0.42750652305E+03  0.46270513338E+03 -0.12527445168E+04  0.17193213739E+04  0.99490667635E+03 0.  0.
    9000010    2    1    2  502    0  0.42750652305E+03 -0.46270513338E+03  0.22353992581E+04  0.25327745459E+04  0.10104846310E+04 0.  0.
        -13    1    4    4    0    0  0.66059636828E+02  0.44840434429E+02 -0.92927061107E+02  0.12251526447E+03  0.10566000000E+00 0.  1.
          4    1    4    4  502    0  0.36144688622E+03 -0.50754556781E+03  0.23283263192E+04  0.24102592814E+04  0.00000000000E+00 0.  1.
         13    1    3    3    0    0 -0.38134328412E+03  0.66596066894E+03 -0.44927088443E+03  0.88925286149E+03  0.10566000000E+00 0. -1.
         -4    1    3    3    0  501 -0.46163238928E+02 -0.20325553556E+03 -0.80347363233E+03  0.83006851237E+03  0.00000000000E+00 0. -1.
<mgrwt>
<rscale>  0 0.11841580E+04</rscale>
<asrwt>0</asrwt>
<pdfrwt beam="1">  1        4 0.40267313E+00 0.11907716E+04</pdfrwt>
<pdfrwt beam="2">  1       -4 0.25149548E+00 0.11775811E+04</pdfrwt>
<totfact> 0.34203269E-02</totfact>
</mgrwt>
</event>
<event>
 8    1  0.2939692E-006  0.1101750E+04  0.7818608E-02  0.8736221E-01
          4   -1    0    0  502    0  0.00000000000E+00  0.00000000000E+00  0.20251816933E+04  0.20251816933E+04  0.00000000000E+00 0.  1.
         -4   -1    0    0    0  501 -0.00000000000E+00 -0.00000000000E+00 -0.43398400302E+04  0.43398400302E+04  0.00000000000E+00 0. -1.
   -9000010    2    1    2    0  501  0.16887983033E+03 -0.18716422475E+03 -0.41436113347E+04  0.42875830933E+04  0.10725218154E+04 0.  0.
    9000010    2    1    2  502    0 -0.16887983033E+03  0.18716422475E+03  0.18289529978E+04  0.20774386303E+04  0.95243443351E+03 0.  0.
        -13    1    4    4    0    0  0.39629352883E+03  0.59010925069E+02  0.85258703346E+03  0.94203795628E+03  0.10566000000E+00 0.  1.
          4    1    4    4  502    0 -0.56517335916E+03  0.12815329968E+03  0.97636596437E+03  0.11354006740E+04  0.00000000000E+00 0.  1.
         13    1    3    3    0    0  0.50741095350E+03 -0.42495869469E+03 -0.20746467239E+04  0.21776626938E+04  0.10566000000E+00 0. -1.
         -4    1    3    3    0  501 -0.33853112317E+03  0.23779446994E+03 -0.20689646109E+04  0.21099203995E+04  0.00000000000E+00 0. -1.
<mgrwt>
<rscale>  0 0.10418636E+04</rscale>
<asrwt>0</asrwt>
<pdfrwt beam="1">  1        4 0.31156642E+00 0.98523205E+03</pdfrwt>
<pdfrwt beam="2">  1       -4 0.66766769E+00 0.11017504E+04</pdfrwt>
<totfact> 0.11916580E-03</totfact>
</mgrwt>
</event>
<event>
 8    1  0.2939692E-006  0.1145622E+04  0.7818608E-02  0.8666488E-01
          4   -1    0    0  502    0  0.00000000000E+00  0.00000000000E+00  0.24295822222E+04  0.24295822222E+04  0.00000000000E+00 0.  1.
         -4   -1    0    0    0  501 -0.00000000000E+00 -0.00000000000E+00 -0.56681810756E+03  0.56681810756E+03  0.00000000000E+00 0. -1.
   -9000010    2    1    2    0  501 -0.19882010199E+03 -0.47287295662E+03  0.48311569298E+03  0.12031129421E+04  0.97516240323E+03 0.  0.
    9000010    2    1    2  502    0  0.19882010199E+03  0.47287295662E+03  0.13796484217E+04  0.17932873876E+04  0.10243591270E+04 0.  0.
        -13    1    4    4    0    0  0.59454315727E+03  0.10477232937E+03  0.77304083969E+03  0.98084196375E+03  0.10566000000E+00 0.  1.
          4    1    4    4  502    0 -0.39572305529E+03  0.36810062726E+03  0.60660758199E+03  0.81244542389E+03  0.00000000000E+00 0.  1.
         13    1    3    3    0    0 -0.58545343025E+03 -0.16755036337E+03  0.25449861034E+03  0.65999878567E+03  0.10566000000E+00 0. -1.
         -4    1    3    3    0  501  0.38663332826E+03 -0.30532259325E+03  0.22861708264E+03  0.54311415646E+03  0.00000000000E+00 0. -1.
<mgrwt>
<rscale>  0 0.11235244E+04</rscale>
<asrwt>0</asrwt>
<pdfrwt beam="1">  1        4 0.37378187E+00 0.11456221E+04</pdfrwt>
<pdfrwt beam="2">  1       -4 0.87202787E-01 0.11018530E+04</pdfrwt>
<totfact> 0.23027679E-01</totfact>
</mgrwt>
</event>
<event>
 8    1  0.2939692E-006  0.1121624E+04  0.7818608E-02  0.8670803E-01
         -4   -1    0    0    0  501 -0.00000000000E+00  0.00000000000E+00  0.21715889488E+04  0.21715889488E+04  0.00000000000E+00 0. -1.
          4   -1    0    0  502    0  0.00000000000E+00 -0.00000000000E+00 -0.24579410917E+04  0.24579410917E+04  0.00000000000E+00 0.  1.
   -9000010    2    1    2    0  501 -0.48011022919E+03  0.51573541580E+02  0.18824692812E+04  0.21878447496E+04  0.10048922289E+04 0.  0.
    9000010    2    1    2  502    0  0.48011022919E+03 -0.51573541580E+02 -0.21688214241E+04  0.24416852908E+04  0.10123611152E+04 0.  0.
        -13    1    4    4    0    0  0.25506754648E+03 -0.12110584648E+03 -0.23348516341E+02  0.28332180237E+03  0.10566000000E+00 0.  1.
          4    1    4    4  502    0  0.22504268271E+03  0.69532304903E+02 -0.21454729077E+04  0.21583634885E+04  0.00000000000E+00 0.  1.
         13    1    3    3    0    0 -0.55458880511E+02 -0.39226181309E+03  0.12277489356E+04  0.12900823530E+04  0.10566000000E+00 0. -1.
         -4    1    3    3    0  501 -0.42465134868E+03  0.44383535467E+03  0.65472034558E+03  0.89776239669E+03  0.00000000000E+00 0. -1.
<mgrwt>
<rscale>  0 0.11182507E+04</rscale>
<asrwt>0</asrwt>
<pdfrwt beam="2">  1        4 0.37814478E+00 0.11216241E+04</pdfrwt>
<pdfrwt beam="1">  1       -4 0.33409061E+00 0.11148875E+04</pdfrwt>
<totfact> 0.26068647E-02</totfact>
</mgrwt>
</event>
<event>
 8    1  0.2939692E-006  0.1109581E+04  0.7818608E-02  0.8691496E-01
          4   -1    0    0  502    0  0.00000000000E+00  0.00000000000E+00  0.15914301551E+04  0.15914301551E+04  0.00000000000E+00 0.  1.
         -4   -1    0    0    0  501 -0.00000000000E+00 -0.00000000000E+00 -0.88668768968E+03  0.88668768968E+03  0.00000000000E+00 0. -1.
   -9000010    2    1    2    0  501 -0.47817053347E+03 -0.16932396759E+02 -0.13605825905E+03  0.10859557937E+04  0.96532604382E+03 0.  0.
    9000010    2    1    2  502    0  0.47817053347E+03  0.16932396759E+02  0.84080072449E+03  0.13921620511E+04  0.10011171525E+04 0.  0.
        -13    1    4    4    0    0  0.69366834744E+03 -0.26190758728E+03  0.45642092006E+03  0.87068445946E+03  0.10566000000E+00 0.  1.
          4    1    4    4  502    0 -0.21549781397E+03  0.27883998404E+03  0.38437980443E+03  0.52147759164E+03  0.00000000000E+00 0.  1.
         13    1    3    3    0    0 -0.64278101348E+03 -0.28151625738E+03  0.80728141241E+02  0.70635393282E+03  0.10566000000E+00 0. -1.
         -4    1    3    3    0  501  0.16461048001E+03  0.26458386062E+03 -0.21678640029E+03  0.37960186088E+03  0.00000000000E+00 0. -1.
<mgrwt>
<rscale>  0 0.10933713E+04</rscale>
<asrwt>0</asrwt>
<pdfrwt beam="1">  1        4 0.24483541E+00 0.11095807E+04</pdfrwt>
<pdfrwt beam="2">  1       -4 0.13641349E+00 0.10773988E+04</pdfrwt>
<totfact> 0.24028504E-01</totfact>
</mgrwt>
</event>
<event>
 8    1  0.2939692E-006  0.1614867E+04  0.7818608E-02  0.8349085E-01
          4   -1    0    0  502    0  0.00000000000E+00  0.00000000000E+00  0.22480065007E+04  0.22480065007E+04  0.00000000000E+00 0.  1.
         -4   -1    0    0    0  501 -0.00000000000E+00 -0.00000000000E+00 -0.18512719195E+04  0.18512719195E+04  0.00000000000E+00 0. -1.
   -9000010    2    1    2    0  501 -0.43308218163E+03  0.12006714425E+04 -0.10613000541E+04  0.19235809820E+04  0.97192278517E+03 0.  0.
    9000010    2    1    2  502    0  0.43308218163E+03 -0.12006714425E+04  0.14580346352E+04  0.21756974383E+04  0.98925338327E+03 0.  0.
        -13    1    4    4    0    0  0.11049829809E+03 -0.43022043983E+03 -0.54847503006E+02  0.44755754991E+03  0.10566000000E+00 0.  1.
          4    1    4    4  502    0  0.32258388354E+03 -0.77045100272E+03  0.15128821382E+04  0.17281398883E+04  0.00000000000E+00 0.  1.
         13    1    3    3    0    0 -0.62188174231E+03  0.12574593341E+04 -0.97490629561E+03  0.17083275958E+04  0.10566000000E+00 0. -1.
         -4    1    3    3    0  501  0.18879956068E+03 -0.56787891526E+02 -0.86393758475E+02  0.21525338613E+03  0.00000000000E+00 0. -1.
<mgrwt>
<rscale>  0 0.16095790E+04</rscale>
<asrwt>0</asrwt>
<pdfrwt beam="1">  1        4 0.34584716E+00 0.16148667E+04</pdfrwt>
<pdfrwt beam="2">  1       -4 0.28481106E+00 0.16043086E+04</pdfrwt>
<totfact> 0.44230035E-02</totfact>
</mgrwt>
</event>
<event>
 8    1  0.2939692E-006  0.1121928E+04  0.7818608E-02  0.8706564E-01
         -4   -1    0    0    0  501 -0.00000000000E+00  0.00000000000E+00  0.99538510751E+03  0.99538510751E+03  0.00000000000E+00 0. -1.
          4   -1    0    0  502    0  0.00000000000E+00 -0.00000000000E+00 -0.22888705657E+04  0.22888705657E+04  0.00000000000E+00 0.  1.
   -9000010    2    1    2    0  501  0.11582086687E+03  0.29372630562E+03  0.51751396705E+03  0.11538936649E+04  0.98181478292E+03 0.  0.
    9000010    2    1    2  502    0 -0.11582086687E+03 -0.29372630562E+03 -0.18109994252E+04  0.21303620083E+04  0.10765842988E+04 0.  0.
        -13    1    4    4    0    0 -0.44033533968E+02  0.37875912559E+03 -0.33810882445E+03  0.50962242461E+03  0.10566000000E+00 0.  1.
          4    1    4    4  502    0 -0.71787332902E+02 -0.67248543121E+03 -0.14728906008E+04  0.16207395837E+04  0.00000000000E+00 0.  1.
         13    1    3    3    0    0  0.77999094523E+02  0.42406903296E+03  0.76127063232E+03  0.87490078881E+03  0.10566000000E+00 0. -1.
         -4    1    3    3    0  501  0.37821772346E+02 -0.13034272734E+03 -0.24375666528E+03  0.27899287608E+03  0.00000000000E+00 0. -1.
<mgrwt>
<rscale>  0 0.10756779E+04</rscale>
<asrwt>0</asrwt>
<pdfrwt beam="2">  1        4 0.35213393E+00 0.11219284E+04</pdfrwt>
<pdfrwt beam="1">  1       -4 0.15313617E+00 0.10313340E+04</pdfrwt>
<totfact> 0.10379018E-01</totfact>
</mgrwt>
</event>
<event>
 8    1  0.2939692E-006  0.1152594E+04  0.7818608E-02  0.8694828E-01
         -4   -1    0    0    0  501 -0.00000000000E+00  0.00000000000E+00  0.12888838855E+04  0.12888838855E+04  0.00000000000E+00 0. -1.
          4   -1    0    0  502    0  0.00000000000E+00 -0.00000000000E+00 -0.12963091557E+04  0.12963091557E+04  0.00000000000E+00 0.  1.
   -9000010    2    1    2    0  501 -0.52237442786E+03  0.25603802641E+03  0.68859435908E+03  0.12387476533E+04  0.84964877651E+03 0.  0.
    9000010    2    1    2  502    0  0.52237442786E+03 -0.25603802641E+03 -0.69601962932E+03  0.13464453879E+04  0.99500821319E+03 0.  0.
        -13    1    4    4    0    0  0.69426028058E+03  0.10129382268E+03 -0.23857449067E+03  0.74106381268E+03  0.10566000000E+00 0.  1.
          4    1    4    4  502    0 -0.17188585271E+03 -0.35733184908E+03 -0.45744513865E+03  0.60538157521E+03  0.00000000000E+00 0.  1.
         13    1    3    3    0    0 -0.39663103509E+03 -0.77871771874E+02 -0.60797982084E+02  0.40875004176E+03  0.10566000000E+00 0. -1.
         -4    1    3    3    0  501 -0.12574339277E+03  0.33390979828E+03  0.74939234116E+03  0.82999761156E+03  0.00000000000E+00 0. -1.
<mgrwt>
<rscale>  0 0.10894285E+04</rscale>
<asrwt>0</asrwt>
<pdfrwt beam="2">  1        4 0.19943218E+00 0.11525935E+04</pdfrwt>
<pdfrwt beam="1">  1       -4 0.19828983E+00 0.10297250E+04</pdfrwt>
<totfact> 0.18468812E-01</totfact>
</mgrwt>
</event>
<event>
 8    1  0.2939692E-006  0.9963888E+03  0.7818608E-02  0.8804530E-01
         -4   -1    0    0    0  501 -0.00000000000E+00  0.00000000000E+00  0.13347549269E+04  0.13347549269E+04  0.00000000000E+00 0. -1.
          4   -1    0    0  502    0  0.00000000000E+00 -0.00000000000E+00 -0.11832271169E+04  0.11832271169E+04  0.00000000000E+00 0.  1.
   -9000010    2    1    2    0  501  0.80528399561E+02  0.27698399170E+03  0.87583433594E+03  0.12861498684E+04  0.89659954560E+03 0.  0.
    9000010    2    1    2  502    0 -0.80528399561E+02 -0.27698399170E+03 -0.72430652597E+03  0.12318321754E+04  0.95372197724E+03 0.  0.
        -13    1    4    4    0    0 -0.20810605707E+03 -0.31567414904E+03 -0.92021608338E+03  0.99486479013E+03  0.10566000000E+00 0.  1.
          4    1    4    4  502    0  0.12757765751E+03  0.38690157335E+02  0.19590955742E+03  0.23696738522E+03  0.00000000000E+00 0.  1.
         13    1    3    3    0    0 -0.19774603084E+03  0.51662019605E+03  0.65617321460E+03  0.85823261322E+03  0.10566000000E+00 0. -1.
         -4    1    3    3    0  501  0.27827443040E+03 -0.23963620435E+03  0.21966112135E+03  0.42791725518E+03  0.00000000000E+00 0. -1.
<mgrwt>
<rscale>  0 0.96873955E+03</rscale>
<asrwt>0</asrwt>
<pdfrwt beam="2">  1        4 0.18203494E+00 0.99638876E+03</pdfrwt>
<pdfrwt beam="1">  1       -4 0.20534691E+00 0.94185758E+03</pdfrwt>
<totfact> 0.20009446E-01</totfact>
</mgrwt>
</event>
<event>
 8    1  0.2939692E-006  0.1116890E+04  0.7818608E-02  0.8677317E-01
         -4   -1    0    0    0  501 -0.00000000000E+00  0.00000000000E+00  0.15876543486E+04  0.15876543486E+04  0.00000000000E+00 0. -1.
          4   -1    0    0  502    0  0.00000000000E+00 -0.00000000000E+00 -0.11972556851E+04  0.11972556851E+04  0.00000000000E+00 0.  1.
   -9000010    2    1    2    0  501  0.26644549204E+03  0.36398735382E+03  0.10213481941E+04  0.15134712776E+04  0.10217451642E+04 0.  0.
    9000010    2    1    2  502    0 -0.26644549204E+03 -0.36398735382E+03 -0.63094953068E+03  0.12714387561E+04  0.10074617642E+04 0.  0.
        -13    1    4    4    0    0 -0.54224150198E+03 -0.37144284612E+03 -0.72628644650E+03  0.97953440365E+03  0.10566000000E+00 0.  1.
          4    1    4    4  502    0  0.27579600994E+03  0.74554922975E+01  0.95336915822E+02  0.29190435245E+03  0.00000000000E+00 0.  1.
         13    1    3    3    0    0  0.63509591984E+03  0.62249915453E+02  0.63311612103E+03  0.89892041541E+03  0.10566000000E+00 0. -1.
         -4    1    3    3    0  501 -0.36865042780E+03  0.30173743837E+03  0.38823207309E+03  0.61455086218E+03  0.00000000000E+00 0. -1.
<mgrwt>
<rscale>  0 0.11103450E+04</rscale>
<asrwt>0</asrwt>
<pdfrwt beam="2">  1        4 0.18419318E+00 0.11038384E+04</pdfrwt>
<pdfrwt beam="1">  1       -4 0.24425452E+00 0.11168900E+04</pdfrwt>
<totfact> 0.15649942E-01</totfact>
</mgrwt>
</event>
<event>
 8    1  0.2939692E-006  0.1231989E+04  0.7818608E-02  0.8585036E-01
         -4   -1    0    0    0  501 -0.00000000000E+00  0.00000000000E+00  0.16384593801E+04  0.16384593801E+04  0.00000000000E+00 0. -1.
          4   -1    0    0  502    0  0.00000000000E+00 -0.00000000000E+00 -0.18562712011E+04  0.18562712011E+04  0.00000000000E+00 0.  1.
   -9000010    2    1    2    0  501  0.70312400964E+03 -0.30317560869E+02  0.11309553331E+04  0.16679928342E+04  0.10039111525E+04 0.  0.
    9000010    2    1    2  502    0 -0.70312400964E+03  0.30317560869E+02 -0.13487671541E+04  0.18267377469E+04  0.10111851624E+04 0.  0.
        -13    1    4    4    0    0 -0.34484556838E+03 -0.49061496504E+03 -0.64757994511E+03  0.88259917654E+03  0.10566000000E+00 0.  1.
          4    1    4    4  502    0 -0.35827844126E+03  0.52093252591E+03 -0.70118720901E+03  0.94413857039E+03  0.00000000000E+00 0.  1.
         13    1    3    3    0    0  0.51084709019E+03 -0.32036756511E+03  0.14184480473E+03  0.61945143968E+03  0.10566000000E+00 0. -1.
         -4    1    3    3    0  501  0.19227691945E+03  0.29005000424E+03  0.98911052840E+03  0.10485413946E+04  0.00000000000E+00 0. -1.
<mgrwt>
<rscale>  0 0.12290042E+04</rscale>
<asrwt>0</asrwt>
<pdfrwt beam="2">  1        4 0.28558018E+00 0.12319894E+04</pdfrwt>
<pdfrwt beam="1">  1       -4 0.25207067E+00 0.12260262E+04</pdfrwt>
<totfact> 0.81709369E-02</totfact>
</mgrwt>
</event>
<event>
 8    1  0.2939692E-006  0.1250115E+04  0.7818608E-02  0.8573778E-01
         -4   -1    0    0    0  501 -0.00000000000E+00  0.00000000000E+00  0.20234990657E+04  0.20234990657E+04  0.00000000000E+00 0. -1.
          4   -1    0    0  502    0  0.00000000000E+00 -0.00000000000E+00 -0.82120565988E+03  0.82120565988E+03  0.00000000000E+00 0.  1.
   -9000010    2    1    2    0  501  0.61972664267E+02  0.74204105911E+03  0.97435947101E+03  0.15849808867E+04  0.10041526218E+04 0.  0.
    9000010    2    1    2  502    0 -0.61972664267E+02 -0.74204105911E+03  0.22793393477E+03  0.12597238389E+04  0.99019428755E+03 0.  0.
        -13    1    4    4    0    0  0.46445783167E+02 -0.86748256206E+03 -0.11742701199E+03  0.87662553041E+03  0.10566000000E+00 0.  1.
          4    1    4    4  502    0 -0.10841844743E+03  0.12544150295E+03  0.34536094676E+03  0.38309830847E+03  0.00000000000E+00 0.  1.
         13    1    3    3    0    0  0.16440877281E+03  0.29374600449E+03  0.10644322820E+04  0.11163928761E+04  0.10566000000E+00 0. -1.
         -4    1    3    3    0  501 -0.10243610855E+03  0.44829505462E+03 -0.90072811004E+02  0.46858801053E+03  0.00000000000E+00 0. -1.
<mgrwt>
<rscale>  0 0.12445106E+04</rscale>
<asrwt>0</asrwt>
<pdfrwt beam="2">  1        4 0.12633933E+00 0.12389311E+04</pdfrwt>
<pdfrwt beam="1">  1       -4 0.31130755E+00 0.12501152E+04</pdfrwt>
<totfact> 0.18311521E-01</totfact>
</mgrwt>
</event>
<event>
 8    1  0.2939692E-006  0.1042700E+04  0.7818608E-02  0.8738408E-01
          4   -1    0    0  502    0  0.00000000000E+00  0.00000000000E+00  0.13143770256E+04  0.13143770256E+04  0.00000000000E+00 0.  1.
         -4   -1    0    0    0  501 -0.00000000000E+00 -0.00000000000E+00 -0.32882501522E+04  0.32882501522E+04  0.00000000000E+00 0. -1.
   -9000010    2    1    2    0  501  0.62748987655E+02  0.25322150698E+03 -0.29807352192E+04  0.31578484201E+04  0.10095373348E+04 0.  0.
    9000010    2    1    2  502    0 -0.62748987655E+02 -0.25322150698E+03  0.10068620926E+04  0.14447787578E+04  0.10027740615E+04 0.  0.
        -13    1    4    4    0    0  0.25121520434E+03 -0.46706658385E+03  0.90917118248E+03  0.10525457343E+04  0.10566000000E+00 0.  1.
          4    1    4    4  502    0 -0.31396419199E+03  0.21384507687E+03  0.97690910076E+02  0.39223302342E+03  0.00000000000E+00 0.  1.
         13    1    3    3    0    0  0.30306848202E+03 -0.20319251798E+03 -0.21445194269E+04  0.21753393500E+04  0.10566000000E+00 0. -1.
         -4    1    3    3    0  501 -0.24031949436E+03  0.45641402496E+03 -0.83621579227E+03  0.98250907008E+03  0.00000000000E+00 0. -1.
<mgrwt>
<rscale>  0 0.10394219E+04</rscale>
<asrwt>0</asrwt>
<pdfrwt beam="1">  1        4 0.20221185E+00 0.10361536E+04</pdfrwt>
<pdfrwt beam="2">  1       -4 0.50588463E+00 0.10427004E+04</pdfrwt>
<totfact> 0.15809681E-02</totfact>
</mgrwt>
</event>
<event>
 8    1  0.2939692E-006  0.1123822E+04  0.7818608E-02  0.8666979E-01
         -4   -1    0    0    0  501 -0.00000000000E+00  0.00000000000E+00  0.35356593940E+04  0.35356593940E+04  0.00000000000E+00 0. -1.
          4   -1    0    0  502    0  0.00000000000E+00 -0.00000000000E+00 -0.48278635578E+03  0.48278635578E+03  0.00000000000E+00 0.  1.
   -9000010    2    1    2    0  501  0.38286102553E+03 -0.33234055547E+03  0.25525769064E+04  0.27882947867E+04  0.10009526186E+04 0.  0.
    9000010    2    1    2  502    0 -0.38286102553E+03  0.33234055547E+03  0.50029613183E+03  0.12301509631E+04  0.10029667805E+04 0.  0.
        -13    1    4    4    0    0 -0.15779879227E+03 -0.36098766603E+03  0.15203829700E+03  0.42228924778E+03  0.10566000000E+00 0.  1.
          4    1    4    4  502    0 -0.22506223326E+03  0.69332822150E+03  0.34825783483E+03  0.80786171533E+03  0.00000000000E+00 0.  1.
         13    1    3    3    0    0  0.88759832585E+02  0.35221941938E+03  0.64281242068E+03  0.73833911356E+03  0.10566000000E+00 0. -1.
         -4    1    3    3    0  501  0.29410119295E+03 -0.68455997486E+03  0.19097644857E+04  0.20499556731E+04  0.00000000000E+00 0. -1.
<mgrwt>
<rscale>  0 0.11229227E+04</rscale>
<asrwt>0</asrwt>
<pdfrwt beam="2">  1        4 0.74274826E-01 0.11238217E+04</pdfrwt>
<pdfrwt beam="1">  1       -4 0.54394758E+00 0.11220245E+04</pdfrwt>
<totfact> 0.56170005E-02</totfact>
</mgrwt>
</event>
<event>
 8    1  0.2939692E-006  0.1189155E+04  0.7818608E-02  0.8624509E-01
          4   -1    0    0  502    0  0.00000000000E+00  0.00000000000E+00  0.17452514797E+04  0.17452514797E+04  0.00000000000E+00 0.  1.
         -4   -1    0    0    0  501 -0.00000000000E+00 -0.00000000000E+00 -0.14440177353E+04  0.14440177353E+04  0.00000000000E+00 0. -1.
   -9000010    2    1    2    0  501  0.22192184111E+03 -0.57036573473E+03 -0.92084544222E+03  0.14841102985E+04  0.98998013863E+03 0.  0.
    9000010    2    1    2  502    0 -0.22192184111E+03  0.57036573473E+03  0.12220791866E+04  0.17051589164E+04  0.10195700157E+04 0.  0.
        -13    1    4    4    0    0  0.40326464034E+03  0.26670880000E+03  0.39131671394E+03  0.62200059158E+03  0.10566000000E+00 0.  1.
          4    1    4    4  502    0 -0.62518648145E+03  0.30365693473E+03  0.83076247268E+03  0.10831583248E+04  0.00000000000E+00 0.  1.
         13    1    3    3    0    0 -0.74079021235E+02 -0.79114130332E+03 -0.62515211066E+03  0.10110427468E+04  0.10566000000E+00 0. -1.
         -4    1    3    3    0  501  0.29600086234E+03  0.22077556859E+03 -0.29569333157E+03  0.47306755176E+03  0.00000000000E+00 0. -1.
<mgrwt>
<rscale>  0 0.11764518E+04</rscale>
<asrwt>0</asrwt>
<pdfrwt beam="1">  1        4 0.26850023E+00 0.11891549E+04</pdfrwt>
<pdfrwt beam="2">  1       -4 0.22215657E+00 0.11638845E+04</pdfrwt>
<totfact> 0.10721456E-01</totfact>
</mgrwt>
</event>
<event>
 8    1  0.2939692E-006  0.1075129E+04  0.7818608E-02  0.8793209E-01
          4   -1    0    0  502    0  0.00000000000E+00  0.00000000000E+00  0.17711108195E+04  0.17711108195E+04  0.00000000000E+00 0.  1.
         -4   -1    0    0    0  501 -0.00000000000E+00 -0.00000000000E+00 -0.58113316830E+03  0.58113316830E+03  0.00000000000E+00 0. -1.
   -9000010    2    1    2    0  501 -0.27338411867E+03  0.26978371670E+03  0.36408269391E+03  0.11351025901E+04  0.10041810354E+04 0.  0.
    9000010    2    1    2  502    0  0.27338411867E+03 -0.26978371670E+03  0.82589495728E+03  0.12171413977E+04  0.80734662411E+03 0.  0.
        -13    1    4    4    0    0  0.45105602190E+03 -0.16890373120E+03  0.88228397322E+03  0.10051890498E+04  0.10566000000E+00 0.  1.
          4    1    4    4  502    0 -0.17767190322E+03 -0.10087998550E+03 -0.56389015932E+02  0.21195234791E+03  0.00000000000E+00 0.  1.
         13    1    3    3    0    0 -0.50391884752E+02 -0.19741264218E+03  0.54883932406E+03  0.58543633996E+03  0.10566000000E+00 0. -1.
         -4    1    3    3    0  501 -0.22299223392E+03  0.46719635888E+03 -0.18475663015E+03  0.54966625012E+03  0.00000000000E+00 0. -1.
<mgrwt>
<rscale>  0 0.98041929E+03</rscale>
<asrwt>0</asrwt>
<pdfrwt beam="1">  1        4 0.27247859E+00 0.89405296E+03</pdfrwt>
<pdfrwt beam="2">  1       -4 0.89405103E-01 0.10751287E+04</pdfrwt>
<totfact> 0.44492610E-01</totfact>
</mgrwt>
</event>
<event>
 8    1  0.2939692E-006  0.1197917E+04  0.7818608E-02  0.8608163E-01
          4   -1    0    0  502    0  0.00000000000E+00  0.00000000000E+00  0.12869203781E+04  0.12869203781E+04  0.00000000000E+00 0.  1.
         -4   -1    0    0    0  501 -0.00000000000E+00 -0.00000000000E+00 -0.19421741902E+04  0.19421741902E+04  0.00000000000E+00 0. -1.
   -9000010    2    1    2    0  501 -0.22319035470E+03 -0.62853028153E+03 -0.13813092353E+04  0.18283930217E+04  0.99505858566E+03 0.  0.
    9000010    2    1    2  502    0  0.22319035470E+03  0.62853028153E+03  0.72605542318E+03  0.14007015466E+04  0.99495934385E+03 0.  0.
        -13    1    4    4    0    0  0.55241904516E+03  0.87163418438E+02  0.40416289650E+03  0.69000863838E+03  0.10566000000E+00 0.  1.
          4    1    4    4  502    0 -0.32922869046E+03  0.54136686310E+03  0.32189252667E+03  0.71069290823E+03  0.00000000000E+00 0.  1.
         13    1    3    3    0    0  0.27371437959E+03 -0.58771579694E+03 -0.51144966970E+03  0.82577853894E+03  0.10566000000E+00 0. -1.
         -4    1    3    3    0  501 -0.49690473428E+03 -0.40814484592E+02 -0.86985956559E+03  0.10026144827E+04  0.00000000000E+00 0. -1.
<mgrwt>
<rscale>  0 0.11978761E+04</rscale>
<asrwt>0</asrwt>
<pdfrwt beam="1">  1        4 0.19798775E+00 0.11978349E+04</pdfrwt>
<pdfrwt beam="2">  1       -4 0.29879603E+00 0.11979173E+04</pdfrwt>
<totfact> 0.10359258E-01</totfact>
</mgrwt>
</event>
<event>
 8    1  0.2939692E-006  0.1158065E+04  0.7818608E-02  0.8644637E-01
         -4   -1    0    0    0  501 -0.00000000000E+00  0.00000000000E+00  0.13017379350E+04  0.13017379350E+04  0.00000000000E+00 0. -1.
          4   -1    0    0  502    0  0.00000000000E+00 -0.00000000000E+00 -0.10467376966E+04  0.10467376966E+04  0.00000000000E+00 0.  1.
   -9000010    2    1    2    0  501  0.43484713989E+03 -0.36413313842E+03  0.32541657948E+03  0.12029173807E+04  0.10096679142E+04 0.  0.
    9000010    2    1    2  502    0 -0.43484713989E+03  0.36413313842E+03 -0.70416341066E+02  0.11455582509E+04  0.99280424432E+03 0.  0.
        -13    1    4    4    0    0  0.45451473444E+02  0.60356120137E+03 -0.66140851182E+02  0.60887320815E+03  0.10566000000E+00 0.  1.
          4    1    4    4  502    0 -0.48029861333E+03 -0.23942806295E+03 -0.42754898834E+01  0.53668504275E+03  0.00000000000E+00 0.  1.
         13    1    3    3    0    0 -0.10806836365E+03 -0.28937350855E+03 -0.25799973297E+03  0.40246698256E+03  0.10566000000E+00 0. -1.
         -4    1    3    3    0  501  0.54291550353E+03 -0.74759629865E+02  0.58341631245E+03  0.80045039813E+03  0.00000000000E+00 0. -1.
<mgrwt>
<rscale>  0 0.11507051E+04</rscale>
<asrwt>0</asrwt>
<pdfrwt beam="2">  1        4 0.16103657E+00 0.11433920E+04</pdfrwt>
<pdfrwt beam="1">  1       -4 0.20026738E+00 0.11580649E+04</pdfrwt>
<totfact> 0.24348820E-01</totfact>
</mgrwt>
</event>
<event>
 8    1  0.2939692E-006  0.1471528E+04  0.7818608E-02  0.8439531E-01
          4   -1    0    0  502    0  0.00000000000E+00  0.00000000000E+00  0.17548751374E+04  0.17548751374E+04  0.00000000000E+00 0.  1.
         -4   -1    0    0    0  501 -0.00000000000E+00 -0.00000000000E+00 -0.21816545276E+04  0.21816545276E+04  0.00000000000E+00 0. -1.
   -9000010    2    1    2    0  501 -0.26529954369E+03  0.10459996646E+04 -0.15377218968E+04  0.21283758623E+04  0.10004479162E+04 0.  0.
    9000010    2    1    2  502    0  0.26529954369E+03 -0.10459996646E+04  0.11109425066E+04  0.18081538027E+04  0.93312795213E+03 0.  0.
        -13    1    4    4    0    0  0.53985517467E+03 -0.59085998341E+03  0.97132850654E+03  0.12585857970E+04  0.10566000000E+00 0.  1.
          4    1    4    4  502    0 -0.27455563098E+03 -0.45513968118E+03  0.13961400009E+03  0.54956800572E+03  0.00000000000E+00 0.  1.
         13    1    3    3    0    0 -0.50905707146E+03  0.10871440251E+04 -0.14043380344E+04  0.18474811391E+04  0.10566000000E+00 0. -1.
         -4    1    3    3    0  501  0.24375752777E+03 -0.41144360551E+02 -0.13338386238E+03  0.28089472315E+03  0.00000000000E+00 0. -1.
<mgrwt>
<rscale>  0 0.14488970E+04</rscale>
<asrwt>0</asrwt>
<pdfrwt beam="1">  1        4 0.26998079E+00 0.14266138E+04</pdfrwt>
<pdfrwt beam="2">  1       -4 0.33563916E+00 0.14715282E+04</pdfrwt>
<totfact> 0.52668002E-02</totfact>
</mgrwt>
</event>
<event>
 8    1  0.2939692E-006  0.1369920E+04  0.7818608E-02  0.8509039E-01
          4   -1    0    0  502    0  0.00000000000E+00  0.00000000000E+00  0.27447638135E+04  0.27447638135E+04  0.00000000000E+00 0.  1.
         -4   -1    0    0    0  501 -0.00000000000E+00 -0.00000000000E+00 -0.13259915634E+04  0.13259915634E+04  0.00000000000E+00 0. -1.
   -9000010    2    1    2    0  501  0.73706912814E+03  0.39868537317E+03 -0.74858989808E+03  0.15067468631E+04  0.10038318322E+04 0.  0.
    9000010    2    1    2  502    0 -0.73706912814E+03 -0.39868537317E+03  0.21673621482E+04  0.25640085138E+04  0.10837250809E+04 0.  0.
        -13    1    4    4    0    0 -0.56952795444E+03  0.30183373659E+03  0.91389959926E+03  0.11183372408E+04  0.10566000000E+00 0.  1.
          4    1    4    4  502    0 -0.16754117370E+03 -0.70051910975E+03  0.12534625490E+04  0.14456712730E+04  0.00000000000E+00 0.  1.
         13    1    3    3    0    0  0.56381893103E+03  0.24508006269E+03  0.10378854704E+03  0.62348063143E+03  0.10566000000E+00 0. -1.
         -4    1    3    3    0  501  0.17325019711E+03  0.15360531048E+03 -0.85237844513E+03  0.88326623162E+03  0.00000000000E+00 0. -1.
<mgrwt>
<rscale>  0 0.13384133E+04</rscale>
<asrwt>0</asrwt>
<pdfrwt beam="1">  1        4 0.42227136E+00 0.13699201E+04</pdfrwt>
<pdfrwt beam="2">  1       -4 0.20399870E+00 0.13076312E+04</pdfrwt>
<totfact> 0.36704221E-02</totfact>
</mgrwt>
</event>
<event>
 8    1  0.2939692E-006  0.1234440E+04  0.7818608E-02  0.8588153E-01
          4   -1    0    0  502    0  0.00000000000E+00  0.00000000000E+00  0.30491143691E+04  0.30491143691E+04  0.00000000000E+00 0.  1.
         -4   -1    0    0    0  501 -0.00000000000E+00 -0.00000000000E+00 -0.50848333902E+03  0.50848333902E+03  0.00000000000E+00 0. -1.
   -9000010    2    1    2    0  501 -0.69559329174E+03 -0.15970428013E+03  0.94020436468E+03  0.15364081993E+04  0.98346856737E+03 0.  0.
    9000010    2    1    2  502    0  0.69559329174E+03  0.15970428013E+03  0.16004266654E+04  0.20211895088E+04  0.10072169749E+04 0.  0.
        -13    1    4    4    0    0  0.82333593033E+02  0.37729923539E+03  0.11918057757E+04  0.12528106607E+04  0.10566000000E+00 0.  1.
          4    1    4    4  502    0  0.61325969871E+03 -0.21759495526E+03  0.40862088973E+03  0.76837884805E+03  0.00000000000E+00 0.  1.
         13    1    3    3    0    0  0.18689866433E+03 -0.22883407699E+03  0.40730632007E+03  0.50318445430E+03  0.10566000000E+00 0. -1.
         -4    1    3    3    0  501 -0.88249195607E+03  0.69129796861E+02  0.53289804461E+03  0.10332237450E+04  0.00000000000E+00 0. -1.
<mgrwt>
<rscale>  0 0.12247520E+04</rscale>
<asrwt>0</asrwt>
<pdfrwt beam="1">  1        4 0.46909451E+00 0.12344398E+04</pdfrwt>
<pdfrwt beam="2">  1       -4 0.78228208E-01 0.12151403E+04</pdfrwt>
<totfact> 0.11189811E-01</totfact>
</mgrwt>
</event>
<event>
 8    1  0.2939692E-006  0.1084062E+04  0.7818608E-02  0.8700865E-01
         -4   -1    0    0    0  501 -0.00000000000E+00  0.00000000000E+00  0.21169422207E+04  0.21169422207E+04  0.00000000000E+00 0. -1.
          4   -1    0    0  502    0  0.00000000000E+00 -0.00000000000E+00 -0.24133630827E+04  0.24133630827E+04  0.00000000000E+00 0.  1.
   -9000010    2    1    2    0  501  0.15915308325E+03 -0.38000586722E+03  0.18403128092E+04  0.21358699827E+04  0.10027238822E+04 0.  0.
    9000010    2    1    2  502    0 -0.15915308325E+03  0.38000586722E+03 -0.21367336712E+04  0.23944353206E+04  0.99897725693E+03 0.  0.
        -13    1    4    4    0    0 -0.47852171764E+03  0.60322130924E+02 -0.49287549263E+03  0.68959992469E+03  0.10566000000E+00 0.  1.
          4    1    4    4  502    0  0.31936863439E+03  0.31968373629E+03 -0.16438581786E+04  0.17048353959E+04  0.00000000000E+00 0.  1.
         13    1    3    3    0    0 -0.10637208045E+03 -0.67607070601E+03  0.12253252006E+04  0.14034986560E+04  0.10566000000E+00 0. -1.
         -4    1    3    3    0  501  0.26552516370E+03  0.29606483880E+03  0.61498760867E+03  0.73237132668E+03  0.00000000000E+00 0. -1.
<mgrwt>
<rscale>  0 0.10823278E+04</rscale>
<asrwt>0</asrwt>
<pdfrwt beam="2">  1        4 0.37128663E+00 0.10805969E+04</pdfrwt>
<pdfrwt beam="1">  1       -4 0.32568342E+00 0.10840615E+04</pdfrwt>
<totfact> 0.29396414E-02</totfact>
</mgrwt>
</event>
<event>
 8    1  0.2939692E-006  0.1478230E+04  0.7818608E-02  0.8424734E-01
         -4   -1    0    0    0  501 -0.00000000000E+00  0.00000000000E+00  0.24179245790E+04  0.24179245790E+04  0.00000000000E+00 0. -1.
          4   -1    0    0  502    0  0.00000000000E+00 -0.00000000000E+00 -0.10041141642E+04  0.10041141642E+04  0.00000000000E+00 0.  1.
   -9000010    2    1    2    0  501  0.10949335059E+04  0.12581978437E+03  0.14969551594E+03  0.14770065759E+04  0.97181771807E+03 0.  0.
    9000010    2    1    2  502    0 -0.10949335059E+04 -0.12581978437E+03  0.12641148988E+04  0.19450321674E+04  0.98511606134E+03 0.  0.
        -13    1    4    4    0    0 -0.95755223021E+03 -0.42122908348E+03  0.60162757394E+03  0.12067708827E+04  0.10566000000E+00 0.  1.
          4    1    4    4  502    0 -0.13738127569E+03  0.29540929911E+03  0.66248732490E+03  0.73826128475E+03  0.00000000000E+00 0.  1.
         13    1    3    3    0    0 -0.78720144495E+02  0.17993939460E+03 -0.16959356696E+03  0.25949380724E+03  0.10566000000E+00 0. -1.
         -4    1    3    3    0  501  0.11736536504E+04 -0.54119610225E+02  0.31928908290E+03  0.12175127686E+04  0.00000000000E+00 0. -1.
<mgrwt>
<rscale>  0 0.14738089E+04</rscale>
<asrwt>0</asrwt>
<pdfrwt beam="2">  1        4 0.15447910E+00 0.14782299E+04</pdfrwt>
<pdfrwt beam="1">  1       -4 0.37198839E+00 0.14694011E+04</pdfrwt>
<totfact> 0.84657270E-02</totfact>
</mgrwt>
</event>
<event>
 8    1  0.2939692E-006  0.1081657E+04  0.7818608E-02  0.8704078E-01
         -4   -1    0    0    0  501 -0.00000000000E+00  0.00000000000E+00  0.23926989201E+04  0.23926989201E+04  0.00000000000E+00 0. -1.
          4   -1    0    0  502    0  0.00000000000E+00 -0.00000000000E+00 -0.12552726524E+04  0.12552726524E+04  0.00000000000E+00 0.  1.
   -9000010    2    1    2    0  501  0.15498002640E+03  0.39176705465E+03  0.19970370088E+04  0.22711538028E+04  0.99623418336E+03 0.  0.
    9000010    2    1    2  502    0 -0.15498002640E+03 -0.39176705465E+03 -0.85961074101E+03  0.13768177697E+04  0.98954348624E+03 0.  0.
        -13    1    4    4    0    0 -0.72692657821E+02  0.17397081234E+03  0.13342226591E+03  0.23097960571E+03  0.10566000000E+00 0.  1.
          4    1    4    4  502    0 -0.82287368582E+02 -0.56573786699E+03 -0.99303300692E+03  0.11458381640E+04  0.00000000000E+00 0.  1.
         13    1    3    3    0    0 -0.35559075360E+03  0.59342949340E+02  0.12821611427E+04  0.13318797155E+04  0.10566000000E+00 0. -1.
         -4    1    3    3    0  501  0.51057078000E+03  0.33242410531E+03  0.71487586609E+03  0.93927408732E+03  0.00000000000E+00 0. -1.
<mgrwt>
<rscale>  0 0.10785735E+04</rscale>
<asrwt>0</asrwt>
<pdfrwt beam="2">  1        4 0.19311887E+00 0.10754983E+04</pdfrwt>
<pdfrwt beam="1">  1       -4 0.36810753E+00 0.10816574E+04</pdfrwt>
<totfact> 0.66210877E-02</totfact>
</mgrwt>
</event>
<event>
 8    1  0.2939692E-006  0.1043911E+04  0.7818608E-02  0.8744804E-01
         -4   -1    0    0    0  501 -0.00000000000E+00  0.00000000000E+00  0.58556873477E+03  0.58556873477E+03  0.00000000000E+00 0. -1.
          4   -1    0    0  502    0  0.00000000000E+00 -0.00000000000E+00 -0.18468346005E+04  0.18468346005E+04  0.00000000000E+00 0.  1.
   -9000010    2    1    2    0  501  0.97460498552E+02  0.15924306038E+03 -0.76991142174E+03  0.12786356618E+04  0.10036377121E+04 0.  0.
    9000010    2    1    2  502    0 -0.97460498552E+02 -0.15924306038E+03 -0.49135444405E+03  0.11537676735E+04  0.10270802081E+04 0.  0.
        -13    1    4    4    0    0 -0.28162526409E+03  0.12463796820E+03  0.21156398133E+03  0.37363985582E+03  0.10566000000E+00 0.  1.
          4    1    4    4  502    0  0.18416476554E+03 -0.28388102858E+03 -0.70291842538E+03  0.78012781773E+03  0.00000000000E+00 0.  1.
         13    1    3    3    0    0 -0.72421176989E+02 -0.22123028432E+03 -0.82602366619E+03  0.85819739795E+03  0.10566000000E+00 0. -1.
         -4    1    3    3    0  501  0.16988167554E+03  0.38047334469E+03  0.56112244451E+02  0.42043826382E+03  0.00000000000E+00 0. -1.
<mgrwt>
<rscale>  0 0.10323189E+04</rscale>
<asrwt>0</asrwt>
<pdfrwt beam="2">  1        4 0.28412840E+00 0.10439112E+04</pdfrwt>
<pdfrwt beam="1">  1       -4 0.90087497E-01 0.10208553E+04</pdfrwt>
<totfact> 0.40561676E-01</totfact>
</mgrwt>
</event>
<event>
 8    1  0.2939692E-006  0.1109982E+04  0.7818608E-02  0.8687852E-01
          4   -1    0    0  502    0  0.00000000000E+00  0.00000000000E+00  0.34892919196E+04  0.34892919196E+04  0.00000000000E+00 0.  1.
         -4   -1    0    0    0  501 -0.00000000000E+00 -0.00000000000E+00 -0.59007237738E+03  0.59007237738E+03  0.00000000000E+00 0. -1.
   -9000010    2    1    2    0  501  0.31056573197E+02  0.40909000243E+03  0.12672628905E+03  0.10929316702E+04  0.10050477314E+04 0.  0.
    9000010    2    1    2  502    0 -0.31056573197E+02 -0.40909000243E+03  0.27724932532E+04  0.29864326268E+04  0.10313786186E+04 0.  0.
        -13    1    4    4    0    0 -0.44583994383E+03 -0.30800382609E+03  0.22364088475E+04  0.23011223689E+04  0.10566000000E+00 0.  1.
          4    1    4    4  502    0  0.41478337064E+03 -0.10108617634E+03  0.53608440572E+03  0.68531025796E+03  0.00000000000E+00 0.  1.
         13    1    3    3    0    0  0.39787269772E+03 -0.13619070781E+03 -0.14347193978E+02  0.42078075720E+03  0.10566000000E+00 0. -1.
         -4    1    3    3    0  501 -0.36681612453E+03  0.54528071024E+03  0.14107348303E+03  0.67215091296E+03  0.00000000000E+00 0. -1.
<mgrwt>
<rscale>  0 0.10977032E+04</rscale>
<asrwt>0</asrwt>
<pdfrwt beam="1">  1        4 0.53681413E+00 0.11099824E+04</pdfrwt>
<pdfrwt beam="2">  1       -4 0.90780368E-01 0.10855598E+04</pdfrwt>
<totfact> 0.40358804E-02</totfact>
</mgrwt>
</event>
<event>
 8    1  0.2939692E-006  0.1309732E+04  0.7818608E-02  0.8548593E-01
          4   -1    0    0  502    0  0.00000000000E+00  0.00000000000E+00  0.47089056122E+03  0.47089056122E+03  0.00000000000E+00 0.  1.
         -4   -1    0    0    0  501 -0.00000000000E+00 -0.00000000000E+00 -0.36484663530E+04  0.36484663530E+04  0.00000000000E+00 0. -1.
   -9000010    2    1    2    0  501  0.71681877208E+03  0.26389461063E+03 -0.20639679856E+04  0.24444554127E+04  0.10639214736E+04 0.  0.
    9000010    2    1    2  502    0 -0.71681877208E+03 -0.26389461063E+03 -0.11136078062E+04  0.16749015015E+04  0.99080935407E+03 0.  0.
        -13    1    4    4    0    0 -0.35440181569E+03 -0.24732138459E+03 -0.12220743042E+04  0.12962384543E+04  0.10566000000E+00 0.  1.
          4    1    4    4  502    0 -0.36241695639E+03 -0.16573226036E+02  0.10846649801E+03  0.37866304717E+03  0.00000000000E+00 0.  1.
         13    1    3    3    0    0  0.10772778670E+03  0.20071191125E+03  0.58689639205E+02  0.23523399470E+03  0.10566000000E+00 0. -1.
         -4    1    3    3    0  501  0.60909098538E+03  0.63182699379E+02 -0.21226576248E+04  0.22092214180E+04  0.00000000000E+00 0. -1.
<mgrwt>
<rscale>  0 0.12800644E+04</rscale>
<asrwt>0</asrwt>
<pdfrwt beam="1">  1        4 0.72444699E-01 0.12510686E+04</pdfrwt>
<pdfrwt beam="2">  1       -4 0.56130253E+00 0.13097322E+04</pdfrwt>
<totfact> 0.46831409E-02</totfact>
</mgrwt>
</event>
<event>
 8    1  0.2939692E-006  0.1343071E+04  0.7818608E-02  0.8576477E-01
         -4   -1    0    0    0  501 -0.00000000000E+00  0.00000000000E+00  0.25961322574E+04  0.25961322574E+04  0.00000000000E+00 0. -1.
          4   -1    0    0  502    0  0.00000000000E+00 -0.00000000000E+00 -0.27975135523E+04  0.27975135523E+04  0.00000000000E+00 0.  1.
   -9000010    2    1    2    0  501  0.20404063116E+03  0.86034448557E+03  0.22913767149E+04  0.25620947340E+04  0.72944976751E+03 0.  0.
    9000010    2    1    2  502    0 -0.20404063116E+03 -0.86034448557E+03 -0.24927580097E+04  0.28315510757E+04  0.10109469749E+04 0.  0.
        -13    1    4    4    0    0  0.16416740800E+03 -0.43413820811E+02  0.13081247247E+02  0.17031390983E+03  0.10566000000E+00 0.  1.
          4    1    4    4  502    0 -0.36820803916E+03 -0.81693066475E+03 -0.25058392570E+04  0.26612371659E+04  0.00000000000E+00 0.  1.
         13    1    3    3    0    0 -0.13504091380E+03  0.60189142277E+03  0.79548219351E+03  0.10066286627E+04  0.10566000000E+00 0. -1.
         -4    1    3    3    0  501  0.33908154497E+03  0.25845306279E+03  0.14958945214E+04  0.15554660713E+04  0.00000000000E+00 0. -1.
<mgrwt>
<rscale>  0 0.12407716E+04</rscale>
<asrwt>0</asrwt>
<pdfrwt beam="2">  1        4 0.43038670E+00 0.13430707E+04</pdfrwt>
<pdfrwt beam="1">  1       -4 0.39940496E+00 0.11462644E+04</pdfrwt>
<totfact> 0.91920818E-03</totfact>
</mgrwt>
</event>
<event>
 8    1  0.2939692E-006  0.1075008E+04  0.7818608E-02  0.8758069E-01
          4   -1    0    0  502    0  0.00000000000E+00  0.00000000000E+00  0.77673415543E+03  0.77673415543E+03  0.00000000000E+00 0.  1.
         -4   -1    0    0    0  501 -0.00000000000E+00 -0.00000000000E+00 -0.18377567593E+04  0.18377567593E+04  0.00000000000E+00 0. -1.
   -9000010    2    1    2    0  501  0.46211851613E+02  0.40538260102E+03 -0.11906308678E+04  0.15316984748E+04  0.87294201742E+03 0.  0.
    9000010    2    1    2  502    0 -0.46211851613E+02 -0.40538260102E+03  0.12960826397E+03  0.10827924399E+04  0.99457054926E+03 0.  0.
        -13    1    4    4    0    0  0.87900040033E+02  0.32280905087E+03  0.38591981583E+02  0.33678101575E+03  0.10566000000E+00 0.  1.
          4    1    4    4  502    0 -0.13411189165E+03 -0.72819165189E+03  0.91016282388E+02  0.74601142419E+03  0.00000000000E+00 0.  1.
         13    1    3    3    0    0  0.13364657195E+03  0.45035611039E+02  0.11024519508E+03  0.17900733688E+03  0.10566000000E+00 0. -1.
         -4    1    3    3    0  501 -0.87434720335E+02  0.36034698998E+03 -0.13008760629E+04  0.13526911379E+04  0.00000000000E+00 0. -1.
<mgrwt>
<rscale>  0 0.10177733E+04</rscale>
<asrwt>0</asrwt>
<pdfrwt beam="1">  1        4 0.11949756E+00 0.10750075E+04</pdfrwt>
<pdfrwt beam="2">  1       -4 0.28273181E+00 0.96358619E+03</pdfrwt>
<totfact> 0.24352278E-01</totfact>
</mgrwt>
</event>
<event>
 8    1  0.2939692E-006  0.1134127E+04  0.7818608E-02  0.8660175E-01
         -4   -1    0    0    0  501 -0.00000000000E+00  0.00000000000E+00  0.46463148725E+03  0.46463148725E+03  0.00000000000E+00 0. -1.
          4   -1    0    0  502    0  0.00000000000E+00 -0.00000000000E+00 -0.27700126182E+04  0.27700126182E+04  0.00000000000E+00 0.  1.
   -9000010    2    1    2    0  501  0.27143672545E+03  0.42656293381E+03 -0.12707566975E+04  0.16994922484E+04  0.10088694097E+04 0.  0.
    9000010    2    1    2  502    0 -0.27143672545E+03 -0.42656293381E+03 -0.10346244334E+04  0.15351518570E+04  0.10151894765E+04 0.  0.
        -13    1    4    4    0    0  0.32282006993E+03 -0.39112469862E+03 -0.29862560277E+03  0.58853087363E+03  0.10566000000E+00 0.  1.
          4    1    4    4  502    0 -0.59425679538E+03 -0.35438235192E+02 -0.73599883065E+03  0.94662098333E+03  0.00000000000E+00 0.  1.
         13    1    3    3    0    0  0.28458175354E+03  0.62554764579E+03 -0.13251788313E+04  0.14927811553E+04  0.10566000000E+00 0. -1.
         -4    1    3    3    0  501 -0.13145028085E+02 -0.19898471198E+03  0.54422133820E+02  0.20671109311E+03  0.00000000000E+00 0. -1.
<mgrwt>
<rscale>  0 0.11312963E+04</rscale>
<asrwt>0</asrwt>
<pdfrwt beam="2">  1        4 0.42615578E+00 0.11341268E+04</pdfrwt>
<pdfrwt beam="1">  1       -4 0.71481769E-01 0.11284730E+04</pdfrwt>
<totfact> 0.21491276E-01</totfact>
</mgrwt>
</event>
<event>
 8    1  0.2939692E-006  0.1327203E+04  0.7818608E-02  0.8517740E-01
         -4   -1    0    0    0  501 -0.00000000000E+00  0.00000000000E+00  0.98552323992E+03  0.98552323992E+03  0.00000000000E+00 0. -1.
          4   -1    0    0  502    0  0.00000000000E+00 -0.00000000000E+00 -0.18952429271E+04  0.18952429271E+04  0.00000000000E+00 0.  1.
   -9000010    2    1    2    0  501 -0.58790651822E+03  0.64425366673E+03 -0.10254143422E+03  0.13273809863E+04  0.99535354308E+03 0.  0.
    9000010    2    1    2  502    0  0.58790651822E+03 -0.64425366673E+03 -0.80717825293E+03  0.15533851807E+04  0.10003858888E+04 0.  0.
        -13    1    4    4    0    0  0.43417326207E+03 -0.64565758796E+03 -0.48810913523E+02  0.77959134091E+03  0.10566000000E+00 0.  1.
          4    1    4    4  502    0  0.15373325615E+03  0.14039212348E+01 -0.75836733940E+03  0.77379383980E+03  0.00000000000E+00 0.  1.
         13    1    3    3    0    0 -0.51157376402E+03  0.81049907888E+03 -0.34938617529E+03  0.10201407665E+04  0.10566000000E+00 0. -1.
         -4    1    3    3    0  501 -0.76332754203E+02 -0.16624541216E+03  0.24684474107E+03  0.30724021974E+03  0.00000000000E+00 0. -1.
<mgrwt>
<rscale>  0 0.13253075E+04</rscale>
<asrwt>0</asrwt>
<pdfrwt beam="2">  1        4 0.29157584E+00 0.13272034E+04</pdfrwt>
<pdfrwt beam="1">  1       -4 0.15161896E+00 0.13234143E+04</pdfrwt>
<totfact> 0.15583239E-01</totfact>
</mgrwt>
</event>
<event>
 8    1  0.2939692E-006  0.1170255E+04  0.7818608E-02  0.8638412E-01
          4   -1    0    0  502    0  0.00000000000E+00  0.00000000000E+00  0.11064184176E+04  0.11064184176E+04  0.00000000000E+00 0.  1.
         -4   -1    0    0    0  501 -0.00000000000E+00 -0.00000000000E+00 -0.15712091886E+04  0.15712091886E+04  0.00000000000E+00 0. -1.
   -9000010    2    1    2    0  501  0.45112398658E+02  0.58583081874E+03 -0.86951217478E+03  0.14393638188E+04  0.98513141457E+03 0.  0.
    9000010    2    1    2  502    0 -0.45112398658E+02 -0.58583081874E+03  0.40472140374E+03  0.12382637874E+04  0.10120597393E+04 0.  0.
        -13    1    4    4    0    0  0.47860989390E+03 -0.19598329597E+03  0.16801792383E+03  0.54378940476E+03  0.10566000000E+00 0.  1.
          4    1    4    4  502    0 -0.52372229256E+03 -0.38984752278E+03  0.23670347991E+03  0.69447438264E+03  0.00000000000E+00 0.  1.
         13    1    3    3    0    0 -0.50930020765E+02 -0.48907281066E+02 -0.78925055206E+03  0.79240282322E+03  0.10566000000E+00 0. -1.
         -4    1    3    3    0  501  0.96042419423E+02  0.63473809981E+03 -0.80261622722E+02  0.64696099555E+03  0.00000000000E+00 0. -1.
<mgrwt>
<rscale>  0 0.11585931E+04</rscale>
<asrwt>0</asrwt>
<pdfrwt beam="1">  1        4 0.17021822E+00 0.11702554E+04</pdfrwt>
<pdfrwt beam="2">  1       -4 0.24172449E+00 0.11470470E+04</pdfrwt>
<totfact> 0.17671171E-01</totfact>
</mgrwt>
</event>
<event>
 8    1  0.2939692E-006  0.1117912E+04  0.7818608E-02  0.8677428E-01
         -4   -1    0    0    0  501 -0.00000000000E+00  0.00000000000E+00  0.18021997066E+04  0.18021997066E+04  0.00000000000E+00 0. -1.
          4   -1    0    0  502    0  0.00000000000E+00 -0.00000000000E+00 -0.11111444550E+04  0.11111444550E+04  0.00000000000E+00 0.  1.
   -9000010    2    1    2    0  501  0.83372791452E+02  0.48579514301E+03  0.12501881923E+04  0.16771097774E+04  0.10033836483E+04 0.  0.
    9000010    2    1    2  502    0 -0.83372791452E+02 -0.48579514301E+03 -0.55913294075E+03  0.12362343842E+04  0.98625446211E+03 0.  0.
        -13    1    4    4    0    0 -0.39268729101E+03 -0.49863756035E+03 -0.45257095169E+02  0.63631041241E+03  0.10566000000E+00 0.  1.
          4    1    4    4  502    0  0.30931449955E+03  0.12842417344E+02 -0.51387584558E+03  0.59992397184E+03  0.00000000000E+00 0.  1.
         13    1    3    3    0    0  0.23972846520E+03  0.26451795387E+01  0.11301453141E+04  0.11552944111E+04  0.10566000000E+00 0. -1.
         -4    1    3    3    0  501 -0.15635567375E+03  0.48314996347E+03  0.12004287822E+03  0.52181536632E+03  0.00000000000E+00 0. -1.
<mgrwt>
<rscale>  0 0.11102110E+04</rscale>
<asrwt>0</asrwt>
<pdfrwt beam="2">  1        4 0.17094530E+00 0.11025633E+04</pdfrwt>
<pdfrwt beam="1">  1       -4 0.27726149E+00 0.11179118E+04</pdfrwt>
<totfact> 0.14494191E-01</totfact>
</mgrwt>
</event>
<event>
 8    1  0.2939692E-006  0.1030053E+04  0.7818608E-02  0.8751327E-01
         -4   -1    0    0    0  501 -0.00000000000E+00  0.00000000000E+00  0.76411022729E+03  0.76411022729E+03  0.00000000000E+00 0. -1.
          4   -1    0    0  502    0  0.00000000000E+00 -0.00000000000E+00 -0.24947621069E+04  0.24947621069E+04  0.00000000000E+00 0.  1.
   -9000010    2    1    2    0  501 -0.23688251032E+03 -0.77289519964E+02  0.22843112171E+03  0.10455003261E+04  0.98934481401E+03 0.  0.
    9000010    2    1    2  502    0  0.23688251032E+03  0.77289519964E+02 -0.19590830013E+04  0.22133720080E+04  0.99946107796E+03 0.  0.
        -13    1    4    4    0    0  0.19882274907E+02  0.32091546332E+03 -0.11627961231E+03  0.34191080541E+03  0.10566000000E+00 0.  1.
          4    1    4    4  502    0  0.21700023541E+03 -0.24362594336E+03 -0.18428033890E+04  0.18714612026E+04  0.00000000000E+00 0.  1.
         13    1    3    3    0    0  0.16840888580E+03  0.36701864657E+03  0.46950531073E+01  0.40383944140E+03  0.10566000000E+00 0. -1.
         -4    1    3    3    0  501 -0.40529139612E+03 -0.44430816653E+03  0.22373606860E+03  0.64166088474E+03  0.00000000000E+00 0. -1.
<mgrwt>
<rscale>  0 0.10251349E+04</rscale>
<asrwt>0</asrwt>
<pdfrwt beam="2">  1        4 0.38380956E+00 0.10300531E+04</pdfrwt>
<pdfrwt beam="1">  1       -4 0.11755542E+00 0.10202402E+04</pdfrwt>
<totfact> 0.12136682E-01</totfact>
</mgrwt>
</event>
<event>
 8    1  0.2939692E-006  0.1580208E+04  0.7818608E-02  0.8383411E-01
         -4   -1    0    0    0  501 -0.00000000000E+00  0.00000000000E+00  0.44358323250E+04  0.44358323250E+04  0.00000000000E+00 0.  1.
          4   -1    0    0  502    0  0.00000000000E+00 -0.00000000000E+00 -0.56540416728E+03  0.56540416728E+03  0.00000000000E+00 0. -1.
   -9000010    2    1    2    0  501  0.87587930199E+02  0.11285327837E+04  0.14371416227E+04  0.21359851609E+04  0.11026326109E+04 0.  0.
    9000010    2    1    2  502    0 -0.87587930199E+02 -0.11285327837E+04  0.24332865350E+04  0.28652513313E+04  0.10037549208E+04 0.  0.
        -13    1    4    4    0    0 -0.63636312399E+02  0.11135178241E+03 -0.64638325472E+01  0.12841569996E+03  0.10566000000E+00 0.  1.
          4    1    4    4  502    0 -0.23951617799E+02 -0.12398845661E+04  0.24397503675E+04  0.27368356314E+04  0.00000000000E+00 0.  1.
         13    1    3    3    0    0  0.27174753211E+03 -0.94573648522E+01  0.74097599352E+03  0.78929183265E+03  0.10566000000E+00 0. -1.
         -4    1    3    3    0  501 -0.18415960191E+03  0.11379901485E+04  0.69616562918E+03  0.13466933283E+04  0.00000000000E+00 0. -1.
<mgrwt>
<rscale>  0 0.15461734E+04</rscale>
<asrwt>0</asrwt>
<pdfrwt beam="2">  1        4 0.86985260E-01 0.15128720E+04</pdfrwt>
<pdfrwt beam="1">  1       -4 0.68243572E+00 0.15802078E+04</pdfrwt>
<totfact> 0.70205447E-03</totfact>
</mgrwt>
</event>
<event>
 8    1  0.2939692E-006  0.1034169E+04  0.7818608E-02  0.8748084E-01
         -4   -1    0    0    0  501 -0.00000000000E+00  0.00000000000E+00  0.22506347867E+04  0.22506347867E+04  0.00000000000E+00 0. -1.
          4   -1    0    0  502    0  0.00000000000E+00 -0.00000000000E+00 -0.73286292169E+03  0.73286292169E+03  0.00000000000E+00 0.  1.
   -9000010    2    1    2    0  501 -0.25047601402E+03 -0.10368647919E+03  0.16493593230E+04  0.19409911816E+04  0.98669725408E+03 0.  0.
    9000010    2    1    2  502    0  0.25047601402E+03  0.10368647919E+03 -0.13158745802E+03  0.10425065267E+04  0.99800575130E+03 0.  0.
        -13    1    4    4    0    0  0.19412261683E+03 -0.13629863487E+03 -0.52621991055E+03  0.57720734027E+03  0.10566000000E+00 0.  1.
          4    1    4    4  502    0  0.56353397185E+02  0.23998511405E+03  0.39463245253E+03  0.46529918647E+03  0.00000000000E+00 0.  1.
         13    1    3    3    0    0  0.33673024213E+03 -0.18430007294E+03  0.38036233077E+03  0.54039734148E+03  0.10566000000E+00 0. -1.
         -4    1    3    3    0  501 -0.58720625614E+03  0.80613593751E+02  0.12689969922E+04  0.14005938401E+04  0.00000000000E+00 0. -1.
<mgrwt>
<rscale>  0 0.10286997E+04</rscale>
<asrwt>0</asrwt>
<pdfrwt beam="2">  1        4 0.11274814E+00 0.10341686E+04</pdfrwt>
<pdfrwt beam="1">  1       -4 0.34625150E+00 0.10232598E+04</pdfrwt>
<totfact> 0.17829345E-01</totfact>
</mgrwt>
</event>
<event>
 8    1  0.2939692E-006  0.1413600E+04  0.7818608E-02  0.8482383E-01
          4   -1    0    0  502    0  0.00000000000E+00  0.00000000000E+00  0.18445417015E+04  0.18445417015E+04  0.00000000000E+00 0.  1.
         -4   -1    0    0    0  501 -0.00000000000E+00 -0.00000000000E+00 -0.12743272301E+04  0.12743272301E+04  0.00000000000E+00 0. -1.
   -9000010    2    1    2    0  501  0.80552238430E+03 -0.39749463850E+03 -0.38858891879E+03  0.14660372405E+04  0.10915106703E+04 0.  0.
    9000010    2    1    2  502    0 -0.80552238430E+03  0.39749463850E+03  0.95880339016E+03  0.16528316911E+04  0.10028361575E+04 0.  0.
        -13    1    4    4    0    0 -0.10262918281E+04  0.43156905067E+03  0.86791134984E+03  0.14116645792E+04  0.10566000000E+00 0.  1.
          4    1    4    4  502    0  0.22076944376E+03 -0.34074412174E+02  0.90892040322E+02  0.24116711189E+03  0.00000000000E+00 0.  1.
         13    1    3    3    0    0  0.85321520194E+03 -0.35541430675E+03 -0.69289085403E+03  0.11551594076E+04  0.10566000000E+00 0. -1.
         -4    1    3    3    0  501 -0.47692817642E+02 -0.42080331748E+02  0.30430193525E+03  0.31087783287E+03  0.00000000000E+00 0. -1.
<mgrwt>
<rscale>  0 0.13795442E+04</rscale>
<asrwt>0</asrwt>
<pdfrwt beam="1">  1        4 0.28377565E+00 0.13463093E+04</pdfrwt>
<pdfrwt beam="2">  1       -4 0.19605034E+00 0.14135996E+04</pdfrwt>
<totfact> 0.11397928E-01</totfact>
</mgrwt>
</event>
<event>
 8    1  0.2939692E-006  0.1243322E+04  0.7818608E-02  0.8658671E-01
         -4   -1    0    0    0  501 -0.00000000000E+00  0.00000000000E+00  0.20061420637E+04  0.20061420637E+04  0.00000000000E+00 0. -1.
          4   -1    0    0  502    0  0.00000000000E+00 -0.00000000000E+00 -0.19283484226E+04  0.19283484226E+04  0.00000000000E+00 0.  1.
   -9000010    2    1    2    0  501 -0.17029707205E+03  0.10673185231E+03  0.16423000827E+04  0.20598544471E+04  0.12269710675E+04 0.  0.
    9000010    2    1    2  502    0  0.17029707205E+03 -0.10673185231E+03 -0.15645064415E+04  0.18746360393E+04  0.10130089305E+04 0.  0.
        -13    1    4    4    0    0  0.44042068861E+03 -0.25868158026E+03 -0.34501665389E+03  0.61637897884E+03  0.10566000000E+00 0.  1.
          4    1    4    4  502    0 -0.27012361656E+03  0.15194972795E+03 -0.12194897876E+04  0.12582570604E+04  0.00000000000E+00 0.  1.
         13    1    3    3    0    0  0.16588660737E+03 -0.14940330695E+02 -0.15488972550E+03  0.22744761642E+03  0.10566000000E+00 0. -1.
         -4    1    3    3    0  501 -0.33618367942E+03  0.12167218301E+03  0.17971898082E+04  0.18324068306E+04  0.00000000000E+00 0. -1.
<mgrwt>
<rscale>  0 0.11331574E+04</rscale>
<asrwt>0</asrwt>
<pdfrwt beam="2">  1        4 0.29666899E+00 0.10327535E+04</pdfrwt>
<pdfrwt beam="1">  1       -4 0.30863724E+00 0.12433225E+04</pdfrwt>
<totfact> 0.55290867E-02</totfact>
</mgrwt>
</event>
<event>
 8    1  0.2939692E-006  0.1043459E+04  0.7818608E-02  0.8739588E-01
         -4   -1    0    0    0  501 -0.00000000000E+00  0.00000000000E+00  0.53485803648E+03  0.53485803648E+03  0.00000000000E+00 0. -1.
          4   -1    0    0  502    0  0.00000000000E+00 -0.00000000000E+00 -0.20584710567E+04  0.20584710567E+04  0.00000000000E+00 0.  1.
   -9000010    2    1    2    0  501 -0.32486420398E+02 -0.26106247162E+03 -0.57703614935E+03  0.11923830637E+04  0.10097512918E+04 0.  0.
    9000010    2    1    2  502    0  0.32486420398E+02  0.26106247162E+03 -0.94657687085E+03  0.14009460295E+04  0.99871568705E+03 0.  0.
        -13    1    4    4    0    0  0.40186047785E+03  0.45989063561E+03 -0.51221746632E+03  0.79709346023E+03  0.10566000000E+00 0.  1.
          4    1    4    4  502    0 -0.36937405745E+03 -0.19882816399E+03 -0.43435940453E+03  0.60385256927E+03  0.00000000000E+00 0.  1.
         13    1    3    3    0    0 -0.50004118292E+03 -0.22439151895E+03 -0.17698811971E+03  0.57594925478E+03  0.10566000000E+00 0. -1.
         -4    1    3    3    0  501  0.46755476252E+03 -0.36670952666E+02 -0.40004802964E+03  0.61643380889E+03  0.00000000000E+00 0. -1.
<mgrwt>
<rscale>  0 0.10381076E+04</rscale>
<asrwt>0</asrwt>
<pdfrwt beam="2">  1        4 0.31668786E+00 0.10327836E+04</pdfrwt>
<pdfrwt beam="1">  1       -4 0.82285850E-01 0.10434590E+04</pdfrwt>
<totfact> 0.39939658E-01</totfact>
</mgrwt>
</event>
<event>
 8    1  0.2939692E-006  0.1066542E+04  0.7818608E-02  0.8721042E-01
         -4   -1    0    0    0  501 -0.00000000000E+00  0.00000000000E+00  0.79578360915E+03  0.79578360915E+03  0.00000000000E+00 0. -1.
          4   -1    0    0  502    0  0.00000000000E+00 -0.00000000000E+00 -0.21264097024E+04  0.21264097024E+04  0.00000000000E+00 0.  1.
   -9000010    2    1    2    0  501 -0.36437452864E+03  0.36822785081E+02  0.18625286148E+03  0.10678919727E+04  0.98568677704E+03 0.  0.
    9000010    2    1    2  502    0  0.36437452864E+03 -0.36822785081E+02 -0.15168789547E+04  0.18543013388E+04  0.10016920570E+04 0.  0.
        -13    1    4    4    0    0  0.25399752050E+03 -0.18182380445E+03 -0.16166456395E+04  0.16465472271E+04  0.10566000000E+00 0.  1.
          4    1    4    4  502    0  0.11037700813E+03  0.14500101937E+03  0.99766684743E+02  0.20775411170E+03  0.00000000000E+00 0.  1.
         13    1    3    3    0    0 -0.36543246634E+03 -0.14188396699E+02  0.57192894293E+03  0.67885559951E+03  0.10566000000E+00 0. -1.
         -4    1    3    3    0  501  0.10579377042E+01  0.51011181780E+02 -0.38567608145E+03  0.38903637324E+03  0.00000000000E+00 0. -1.
<mgrwt>
<rscale>  0 0.10590064E+04</rscale>
<asrwt>0</asrwt>
<pdfrwt beam="2">  1        4 0.32713995E+00 0.10665419E+04</pdfrwt>
<pdfrwt beam="1">  1       -4 0.12242825E+00 0.10515242E+04</pdfrwt>
<totfact> 0.17585871E-01</totfact>
</mgrwt>
</event>
<event>
 8    1  0.2939692E-006  0.1049616E+04  0.7818608E-02  0.8733549E-01
         -4   -1    0    0    0  501 -0.00000000000E+00  0.00000000000E+00  0.48900679570E+03  0.48900679570E+03  0.00000000000E+00 0.  1.
          4   -1    0    0  502    0  0.00000000000E+00 -0.00000000000E+00 -0.24921776932E+04  0.24921776932E+04  0.00000000000E+00 0. -1.
   -9000010    2    1    2    0  501 -0.17726914505E+03 -0.22035161855E+03 -0.51643427296E+03  0.11612723506E+04  0.10009345276E+04 0.  0.
    9000010    2    1    2  502    0  0.17726914505E+03  0.22035161855E+03 -0.14867366245E+04  0.18199121382E+04  0.10107992949E+04 0.  0.
        -13    1    4    4    0    0 -0.63785936789E+01 -0.18507221393E+03 -0.13378287613E+04  0.13505843982E+04  0.10566000000E+00 0.  1.
          4    1    4    4  502    0  0.18364773873E+03  0.40542383248E+03 -0.14890786321E+03  0.46932774008E+03  0.00000000000E+00 0.  1.
         13    1    3    3    0    0 -0.29594360667E+03 -0.28447638175E+03 -0.77083352940E+03  0.87332340591E+03  0.10566000000E+00 0. -1.
         -4    1    3    3    0  501  0.11867446161E+03  0.64124763200E+02  0.25439925644E+03  0.28794894473E+03  0.00000000000E+00 0. -1.
<mgrwt>
<rscale>  0 0.10448572E+04</rscale>
<asrwt>0</asrwt>
<pdfrwt beam="2">  1        4 0.38341195E+00 0.10496163E+04</pdfrwt>
<pdfrwt beam="1">  1       -4 0.75231815E-01 0.10401198E+04</pdfrwt>
<totfact> 0.28881488E-01</totfact>
</mgrwt>
</event>
<event>
 8    1  0.2939692E-006  0.1098040E+04  0.7818608E-02  0.8691512E-01
         -4   -1    0    0    0  501 -0.00000000000E+00  0.00000000000E+00  0.25477329753E+04  0.25477329753E+04  0.00000000000E+00 0. -1.
          4   -1    0    0  502    0  0.00000000000E+00 -0.00000000000E+00 -0.98441843730E+03  0.98441843730E+03  0.00000000000E+00 0.  1.
   -9000010    2    1    2    0  501 -0.67045783897E+02 -0.43788716358E+03  0.20608840602E+04  0.23351518380E+04  0.10047142339E+04 0.  0.
    9000010    2    1    2  502    0  0.67045783897E+02  0.43788716358E+03 -0.49756952217E+03  0.11969995746E+04  0.99448089327E+03 0.  0.
        -13    1    4    4    0    0  0.49854688457E+03  0.24906111388E+03 -0.71482996631E+02  0.56186320802E+03  0.10566000000E+00 0.  1.
          4    1    4    4  502    0 -0.43150110067E+03  0.18882604970E+03 -0.42608652553E+03  0.63513636659E+03  0.00000000000E+00 0.  1.
         13    1    3    3    0    0 -0.31214010886E+03 -0.68168525350E+03  0.13342232766E+04  0.15304502590E+04  0.10566000000E+00 0. -1.
         -4    1    3    3    0  501  0.24509432496E+03  0.24379808992E+03  0.72666078356E+03  0.80470157894E+03  0.00000000000E+00 0. -1.
<mgrwt>
<rscale>  0 0.10933517E+04</rscale>
<asrwt>0</asrwt>
<pdfrwt beam="2">  1        4 0.15144899E+00 0.10886839E+04</pdfrwt>
<pdfrwt beam="1">  1       -4 0.39195892E+00 0.10980396E+04</pdfrwt>
<totfact> 0.75325679E-02</totfact>
</mgrwt>
</event>
<event>
 8    1  0.2939692E-006  0.1116048E+04  0.7818608E-02  0.8680864E-01
         -4   -1    0    0    0  501 -0.00000000000E+00  0.00000000000E+00  0.12763313749E+04  0.12763313749E+04  0.00000000000E+00 0. -1.
          4   -1    0    0  502    0  0.00000000000E+00 -0.00000000000E+00 -0.20178660985E+04  0.20178660985E+04  0.00000000000E+00 0.  1.
   -9000010    2    1    2    0  501  0.41163634457E+03  0.26519501768E+03  0.82416680647E+03  0.13714432903E+04  0.98073079696E+03 0.  0.
    9000010    2    1    2  502    0 -0.41163634457E+03 -0.26519501768E+03 -0.15657015301E+04  0.19227541831E+04  0.10028905671E+04 0.  0.
        -13    1    4    4    0    0  0.13453014149E+03  0.22743982887E+03 -0.99411454018E+02  0.28232938756E+03  0.10566000000E+00 0.  1.
          4    1    4    4  502    0 -0.54616648607E+03 -0.49263484655E+03 -0.14662900761E+04  0.16404247955E+04  0.00000000000E+00 0.  1.
         13    1    3    3    0    0 -0.16917538235E+03  0.18017987500E+03  0.73783308683E+03  0.77812773536E+03  0.10566000000E+00 0. -1.
         -4    1    3    3    0  501  0.58081172692E+03  0.85015142681E+02  0.86333719639E+02  0.59331555496E+03  0.00000000000E+00 0. -1.
<mgrwt>
<rscale>  0 0.11060681E+04</rscale>
<asrwt>0</asrwt>
<pdfrwt beam="2">  1        4 0.31044094E+00 0.11160477E+04</pdfrwt>
<pdfrwt beam="1">  1       -4 0.19635867E+00 0.10961778E+04</pdfrwt>
<totfact> 0.97925182E-02</totfact>
</mgrwt>
</event>
<event>
 8    1  0.2939692E-006  0.1094241E+04  0.7818608E-02  0.8714670E-01
         -4   -1    0    0    0  501 -0.00000000000E+00  0.00000000000E+00  0.16675589127E+04  0.16675589127E+04  0.00000000000E+00 0. -1.
          4   -1    0    0  502    0  0.00000000000E+00 -0.00000000000E+00 -0.17000868337E+04  0.17000868337E+04  0.00000000000E+00 0.  1.
   -9000010    2    1    2    0  501 -0.17205009040E+02  0.28616952245E+03  0.12862306370E+04  0.16887131713E+04  0.10560179522E+04 0.  0.
    9000010    2    1    2  502    0  0.17205009040E+02 -0.28616952245E+03 -0.13187585580E+04  0.16789325750E+04  0.99874994332E+03 0.  0.
        -13    1    4    4    0    0  0.10088329572E+03  0.19592483251E+02  0.14695820264E+03  0.17932659937E+03  0.10566000000E+00 0.  1.
          4    1    4    4  502    0 -0.83678286680E+02 -0.30576200570E+03 -0.14657167607E+04  0.14996059757E+04  0.00000000000E+00 0.  1.
         13    1    3    3    0    0 -0.24324109659E+03 -0.34573835205E+03  0.47518229602E+03  0.63600272387E+03  0.10566000000E+00 0. -1.
         -4    1    3    3    0  501  0.22603608755E+03  0.63190787450E+03  0.81104834098E+03  0.10527104474E+04  0.00000000000E+00 0. -1.
<mgrwt>
<rscale>  0 0.10663046E+04</rscale>
<asrwt>0</asrwt>
<pdfrwt beam="2">  1        4 0.26155182E+00 0.10390815E+04</pdfrwt>
<pdfrwt beam="1">  1       -4 0.25654753E+00 0.10942408E+04</pdfrwt>
<totfact> 0.92472049E-02</totfact>
</mgrwt>
</event>
<event>
 8    1  0.2939692E-006  0.1170103E+04  0.7818608E-02  0.8651770E-01
         -4   -1    0    0    0  501 -0.00000000000E+00  0.00000000000E+00  0.10809543824E+04  0.10809543824E+04  0.00000000000E+00 0. -1.
          4   -1    0    0  502    0  0.00000000000E+00 -0.00000000000E+00 -0.12175188057E+04  0.12175188057E+04  0.00000000000E+00 0.  1.
   -9000010    2    1    2    0  501  0.55822951620E+03  0.22369349825E+03  0.41782274450E+02  0.11148564596E+04  0.93781671619E+03 0.  0.
    9000010    2    1    2  502    0 -0.55822951620E+03 -0.22369349825E+03 -0.17834669775E+03  0.11836167285E+04  0.10037340492E+04 0.  0.
        -13    1    4    4    0    0  0.66089035169E+02 -0.38545208036E+03  0.19649287178E+03  0.43766485654E+03  0.10566000000E+00 0.  1.
          4    1    4    4  502    0 -0.62431855137E+03  0.16175858211E+03 -0.37483956952E+03  0.74595187201E+03  0.00000000000E+00 0.  1.
         13    1    3    3    0    0  0.79675443724E+02  0.20848302608E+03  0.43917223090E+03  0.49263131046E+03  0.10566000000E+00 0. -1.
         -4    1    3    3    0  501  0.47855407248E+03  0.15210472176E+02 -0.39738995645E+03  0.62222514915E+03  0.00000000000E+00 0. -1.
<mgrwt>
<rscale>  0 0.11417445E+04</rscale>
<asrwt>0</asrwt>
<pdfrwt beam="2">  1        4 0.18731058E+00 0.11701030E+04</pdfrwt>
<pdfrwt beam="1">  1       -4 0.16630068E+00 0.11140732E+04</pdfrwt>
<totfact> 0.25415040E-01</totfact>
</mgrwt>
</event>
<event>
 8    1  0.2939692E-006  0.1039963E+04  0.7818608E-02  0.8743651E-01
          4   -1    0    0  502    0  0.00000000000E+00  0.00000000000E+00  0.16039444943E+04  0.16039444943E+04  0.00000000000E+00 0.  1.
         -4   -1    0    0    0  501 -0.00000000000E+00 -0.00000000000E+00 -0.11956023707E+04  0.11956023707E+04  0.00000000000E+00 0. -1.
   -9000010    2    1    2    0  501 -0.23191412431E+03 -0.68308246761E+02 -0.72806623677E+03  0.12591092628E+04  0.99841149478E+03 0.  0.
    9000010    2    1    2  502    0  0.23191412431E+03  0.68308246761E+02  0.11364083604E+04  0.15404376022E+04  0.10114711401E+04 0.  0.
        -13    1    4    4    0    0  0.34492692813E+01  0.48459673199E+03  0.27601152909E+03  0.55769908147E+03  0.10566000000E+00 0.  1.
          4    1    4    4  502    0  0.22846485503E+03 -0.41628848523E+03  0.86039683128E+03  0.98273852076E+03  0.00000000000E+00 0.  1.
         13    1    3    3    0    0 -0.24365749545E+02 -0.35616362593E+02  0.25256345632E+03  0.25622358530E+03  0.10566000000E+00 0. -1.
         -4    1    3    3    0  501 -0.20754837477E+03 -0.32691884168E+02 -0.98062969308E+03  0.10028856775E+04  0.00000000000E+00 0. -1.
<mgrwt>
<rscale>  0 0.10335953E+04</rscale>
<asrwt>0</asrwt>
<pdfrwt beam="1">  1        4 0.24676069E+00 0.10399635E+04</pdfrwt>
<pdfrwt beam="2">  1       -4 0.18393883E+00 0.10272661E+04</pdfrwt>
<totfact> 0.15529057E-01</totfact>
</mgrwt>
</event>
<event>
 8    1  0.2939692E-006  0.1489472E+04  0.7818608E-02  0.8426014E-01
         -4   -1    0    0    0  501 -0.00000000000E+00  0.00000000000E+00  0.22089304186E+04  0.22089304186E+04  0.00000000000E+00 0. -1.
          4   -1    0    0  502    0  0.00000000000E+00 -0.00000000000E+00 -0.20719230372E+04  0.20719230372E+04  0.00000000000E+00 0.  1.
   -9000010    2    1    2    0  501  0.61248711078E+03 -0.85325911430E+03  0.16222836803E+04  0.22023469505E+04  0.10560947752E+04 0.  0.
    9000010    2    1    2  502    0 -0.61248711078E+03  0.85325911430E+03 -0.14852762989E+04  0.20785065054E+04  0.10054611041E+04 0.  0.
        -13    1    4    4    0    0 -0.50717605751E+03 -0.20613345214E+02 -0.26129340490E+03  0.57089991936E+03  0.10566000000E+00 0.  1.
          4    1    4    4  502    0 -0.10531105327E+03  0.87387245952E+03 -0.12239828940E+04  0.15076065860E+04  0.00000000000E+00 0.  1.
         13    1    3    3    0    0 -0.14817960602E+03 -0.68911138981E+03  0.66927884084E+03  0.97199067957E+03  0.10566000000E+00 0. -1.
         -4    1    3    3    0  501  0.76066671679E+03 -0.16414772450E+03  0.95300483941E+03  0.12303562709E+04  0.00000000000E+00 0. -1.
<mgrwt>
<rscale>  0 0.14716341E+04</rscale>
<asrwt>0</asrwt>
<pdfrwt beam="2">  1        4 0.31875739E+00 0.14540095E+04</pdfrwt>
<pdfrwt beam="1">  1       -4 0.33983545E+00 0.14894723E+04</pdfrwt>
<totfact> 0.37709007E-02</totfact>
</mgrwt>
</event>
<event>
 8    1  0.2939692E-006  0.1028897E+04  0.7818608E-02  0.8755882E-01
          4   -1    0    0  502    0  0.00000000000E+00  0.00000000000E+00  0.84569302586E+03  0.84569302586E+03  0.00000000000E+00 0.  1.
         -4   -1    0    0    0  501 -0.00000000000E+00 -0.00000000000E+00 -0.24245314431E+04  0.24245314431E+04  0.00000000000E+00 0. -1.
   -9000010    2    1    2    0  501 -0.11684387162E+03 -0.20897409227E+03 -0.19401942801E+04  0.21961292798E+04  0.10006534403E+04 0.  0.
    9000010    2    1    2  502    0  0.11684387162E+03  0.20897409227E+03  0.36135586288E+03  0.10740951891E+04  0.98274093948E+03 0.  0.
        -13    1    4    4    0    0 -0.41424641991E+03  0.71574613363E+02  0.31158348057E+03  0.52326599184E+03  0.10566000000E+00 0.  1.
          4    1    4    4  502    0  0.53109029153E+03  0.13739947891E+03  0.49772382305E+02  0.55082919730E+03  0.00000000000E+00 0.  1.
         13    1    3    3    0    0 -0.30651102510E+03  0.33120433702E+03 -0.96497950435E+03  0.10652843641E+04  0.10566000000E+00 0. -1.
         -4    1    3    3    0  501  0.18966715348E+03 -0.54017842929E+03 -0.97521477576E+03  0.11308449157E+04  0.00000000000E+00 0. -1.
<mgrwt>
<rscale>  0 0.10201542E+04</rscale>
<asrwt>0</asrwt>
<pdfrwt beam="1">  1        4 0.13010662E+00 0.10114853E+04</pdfrwt>
<pdfrwt beam="2">  1       -4 0.37300484E+00 0.10288975E+04</pdfrwt>
<totfact> 0.11265488E-01</totfact>
</mgrwt>
</event>
<event>
 8    1  0.2939692E-006  0.1224211E+04  0.7818608E-02  0.8649170E-01
         -4   -1    0    0    0  501 -0.00000000000E+00  0.00000000000E+00  0.16910533759E+04  0.16910533759E+04  0.00000000000E+00 0. -1.
          4   -1    0    0  502    0  0.00000000000E+00 -0.00000000000E+00 -0.15896810879E+04  0.15896810879E+04  0.00000000000E+00 0.  1.
   -9000010    2    1    2    0  501  0.26354079184E+03 -0.30387764414E+03  0.12193460643E+04  0.16228569306E+04  0.99250411642E+03 0.  0.
    9000010    2    1    2  502    0 -0.26354079184E+03  0.30387764414E+03 -0.11179737763E+04  0.16578775331E+04  0.11562426989E+04 0.  0.
        -13    1    4    4    0    0  0.22178839888E+03  0.31741382344E+03 -0.11064190432E+04  0.11722221374E+04  0.10566000000E+00 0.  1.
          4    1    4    4  502    0 -0.48532919072E+03 -0.13536179297E+02 -0.11554733142E+02  0.48565539570E+03  0.00000000000E+00 0.  1.
         13    1    3    3    0    0  0.36647161144E+03 -0.57524804794E+03  0.49566905757E+03  0.84314861350E+03  0.10566000000E+00 0. -1.
         -4    1    3    3    0  501 -0.10293081960E+03  0.27137040380E+03  0.72367700675E+03  0.77970831712E+03  0.00000000000E+00 0. -1.
<mgrwt>
<rscale>  0 0.11450006E+04</rscale>
<asrwt>0</asrwt>
<pdfrwt beam="2">  1        4 0.24456632E+00 0.12242110E+04</pdfrwt>
<pdfrwt beam="1">  1       -4 0.26016206E+00 0.10709154E+04</pdfrwt>
<totfact> 0.98975567E-02</totfact>
</mgrwt>
</event>
<event>
 8    1  0.2939692E-006  0.1666892E+04  0.7818608E-02  0.8324159E-01
         -4   -1    0    0    0  501 -0.00000000000E+00  0.00000000000E+00  0.17226792960E+04  0.17226792960E+04  0.00000000000E+00 0. -1.
          4   -1    0    0  502    0  0.00000000000E+00 -0.00000000000E+00 -0.25773354706E+04  0.25773354706E+04  0.00000000000E+00 0.  1.
   -9000010    2    1    2    0  501 -0.12889596857E+04 -0.31457200600E+03  0.89850995604E+03  0.18936337791E+04  0.10090372292E+04 0.  0.
    9000010    2    1    2  502    0  0.12889596857E+04  0.31457200600E+03 -0.17531661306E+04  0.24063809874E+04  0.97811316152E+03 0.  0.
        -13    1    4    4    0    0  0.12680245810E+03 -0.22290247709E+03 -0.28005211016E+02  0.25797030969E+03  0.10566000000E+00 0.  1.
          4    1    4    4  502    0  0.11621572276E+04  0.53747448310E+03 -0.17251609196E+04  0.21484106777E+04  0.00000000000E+00 0.  1.
         13    1    3    3    0    0 -0.66034888048E+03 -0.61611842140E+03  0.23969830512E+03  0.93440774921E+03  0.10566000000E+00 0. -1.
         -4    1    3    3    0  501 -0.62861080521E+03  0.30154641539E+03  0.65881165092E+03  0.95922602991E+03  0.00000000000E+00 0. -1.
<mgrwt>
<rscale>  0 0.16575981E+04</rscale>
<asrwt>0</asrwt>
<pdfrwt beam="2">  1        4 0.39651315E+00 0.16483561E+04</pdfrwt>
<pdfrwt beam="1">  1       -4 0.26502758E+00 0.16668919E+04</pdfrwt>
<totfact> 0.32019471E-02</totfact>
</mgrwt>
</event>
<event>
 8    1  0.2939692E-006  0.1101356E+04  0.7818608E-02  0.8710331E-01
         -4   -1    0    0    0  501 -0.00000000000E+00  0.00000000000E+00  0.29368498347E+04  0.29368498347E+04  0.00000000000E+00 0. -1.
          4   -1    0    0  502    0  0.00000000000E+00 -0.00000000000E+00 -0.66130307707E+03  0.66130307707E+03  0.00000000000E+00 0.  1.
   -9000010    2    1    2    0  501 -0.16205666808E+03 -0.26137488309E+03  0.22689112922E+04  0.24967764327E+04  0.99566807220E+03 0.  0.
    9000010    2    1    2  502    0  0.16205666808E+03  0.26137488309E+03  0.66354654702E+01  0.11013764791E+04  0.10575475999E+04 0.  0.
        -13    1    4    4    0    0  0.24364179411E+03 -0.37743725215E+03  0.68396822839E+02  0.45442088386E+03  0.10566000000E+00 0.  1.
          4    1    4    4  502    0 -0.81585126024E+02  0.63881213523E+03 -0.61761357369E+02  0.64695559521E+03  0.00000000000E+00 0.  1.
         13    1    3    3    0    0 -0.49722736991E+03 -0.41602740990E+03  0.11712249550E+04  0.13386865837E+04  0.10566000000E+00 0. -1.
         -4    1    3    3    0  501  0.33517070182E+03  0.15465252681E+03  0.10976863372E+04  0.11580898490E+04  0.00000000000E+00 0. -1.
<mgrwt>
<rscale>  0 0.10713092E+04</rscale>
<asrwt>0</asrwt>
<pdfrwt beam="2">  1        4 0.10173894E+00 0.11013565E+04</pdfrwt>
<pdfrwt beam="1">  1       -4 0.45182304E+00 0.10420816E+04</pdfrwt>
<totfact> 0.81542930E-02</totfact>
</mgrwt>
</event>
<event>
 8    1  0.2939692E-006  0.1207737E+04  0.7818608E-02  0.8623529E-01
          4   -1    0    0  502    0  0.00000000000E+00  0.00000000000E+00  0.16078885506E+04  0.16078885506E+04  0.00000000000E+00 0.  1.
         -4   -1    0    0    0  501 -0.00000000000E+00 -0.00000000000E+00 -0.15647095125E+04  0.15647095125E+04  0.00000000000E+00 0. -1.
   -9000010    2    1    2    0  501  0.38480249132E+03 -0.46093854322E+03 -0.10406823316E+04  0.15498277292E+04  0.97898364488E+03 0.  0.
    9000010    2    1    2  502    0 -0.38480249132E+03  0.46093854322E+03  0.10838613697E+04  0.16227703338E+04  0.10478982726E+04 0.  0.
        -13    1    4    4    0    0 -0.22394010118E+02 -0.34847197791E+02  0.10024179261E+04  0.10032734067E+04  0.10566000000E+00 0.  1.
          4    1    4    4  502    0 -0.36240848120E+03  0.49578574101E+03  0.81443443586E+02  0.61949692714E+03  0.00000000000E+00 0.  1.
         13    1    3    3    0    0  0.53516570173E+03 -0.54434205042E+03 -0.35308717808E+03  0.84105954762E+03  0.10566000000E+00 0. -1.
         -4    1    3    3    0  501 -0.15036321041E+03  0.83403507201E+02 -0.68759515353E+03  0.70876818158E+03  0.00000000000E+00 0. -1.
<mgrwt>
<rscale>  0 0.11777224E+04</rscale>
<asrwt>0</asrwt>
<pdfrwt beam="1">  1        4 0.24736747E+00 0.12077368E+04</pdfrwt>
<pdfrwt beam="2">  1       -4 0.24072454E+00 0.11484539E+04</pdfrwt>
<totfact> 0.10816433E-01</totfact>
</mgrwt>
</event>
<event>
 8    1  0.2939692E-006  0.1072896E+04  0.7818608E-02  0.8709797E-01
          4   -1    0    0  502    0  0.00000000000E+00  0.00000000000E+00  0.30177740488E+04  0.30177740488E+04  0.00000000000E+00 0.  1.
         -4   -1    0    0    0  501 -0.00000000000E+00 -0.00000000000E+00 -0.46334438013E+03  0.46334438013E+03  0.00000000000E+00 0. -1.
   -9000010    2    1    2    0  501 -0.27465547616E+03 -0.26585500517E+03  0.54141354063E+03  0.12000354711E+04  0.10004209092E+04 0.  0.
    9000010    2    1    2  502    0  0.27465547616E+03  0.26585500517E+03  0.20130161280E+04  0.22810829578E+04  0.10024924012E+04 0.  0.
        -13    1    4    4    0    0 -0.18523617721E+03  0.44364088916E+03  0.14747070934E+04  0.15510933893E+04  0.10566000000E+00 0.  1.
          4    1    4    4  502    0  0.45989165337E+03 -0.17778588399E+03  0.53830903464E+03  0.72998956853E+03  0.00000000000E+00 0.  1.
         13    1    3    3    0    0 -0.29193697042E+03  0.23484540421E+03  0.58762584548E+03  0.69691011186E+03  0.10566000000E+00 0. -1.
         -4    1    3    3    0  501  0.17281494259E+02 -0.50070040938E+03 -0.46212304843E+02  0.50312535924E+03  0.00000000000E+00 0. -1.
<mgrwt>
<rscale>  0 0.10719278E+04</rscale>
<asrwt>0</asrwt>
<pdfrwt beam="1">  1        4 0.46427292E+00 0.10728959E+04</pdfrwt>
<pdfrwt beam="2">  1       -4 0.71283753E-01 0.10709606E+04</pdfrwt>
<totfact> 0.14491180E-01</totfact>
</mgrwt>
</event>
<event>
 8    1  0.2939692E-006  0.1419242E+04  0.7818608E-02  0.8461867E-01
          4   -1    0    0  502    0  0.00000000000E+00  0.00000000000E+00  0.64270036886E+03  0.64270036886E+03  0.00000000000E+00 0.  1.
         -4   -1    0    0    0  501 -0.00000000000E+00 -0.00000000000E+00 -0.40994678620E+04  0.40994678620E+04  0.00000000000E+00 0. -1.
   -9000010    2    1    2    0  501 -0.11425852261E+03 -0.10221850623E+04 -0.29036915152E+04  0.32319766399E+04  0.97792191594E+03 0.  0.
    9000010    2    1    2  502    0  0.11425852261E+03  0.10221850623E+04 -0.55307597793E+03  0.15101915910E+04  0.95753239769E+03 0.  0.
        -13    1    4    4    0    0 -0.36699347838E+03  0.56811155087E+03 -0.51011606115E+03  0.84714423472E+03  0.10566000000E+00 0.  1.
          4    1    4    4  502    0  0.48125200099E+03  0.45407351139E+03 -0.42959916785E+02  0.66304735627E+03  0.00000000000E+00 0.  1.
         13    1    3    3    0    0 -0.25604908727E+03 -0.99358208262E+03 -0.29116147111E+04  0.30871130085E+04  0.10566000000E+00 0. -1.
         -4    1    3    3    0  501  0.14179056466E+03 -0.28602979640E+02  0.79231958931E+01  0.14486363140E+03  0.00000000000E+00 0. -1.
<mgrwt>
<rscale>  0 0.14122392E+04</rscale>
<asrwt>0</asrwt>
<pdfrwt beam="1">  1        4 0.98876984E-01 0.14052707E+04</pdfrwt>
<pdfrwt beam="2">  1       -4 0.63068734E+00 0.14192423E+04</pdfrwt>
<totfact> 0.10440588E-02</totfact>
</mgrwt>
</event>
<event>
 8    1  0.2939692E-006  0.1067126E+04  0.7818608E-02  0.8766828E-01
         -4   -1    0    0    0  501 -0.00000000000E+00  0.00000000000E+00  0.25107500301E+04  0.25107500301E+04  0.00000000000E+00 0. -1.
          4   -1    0    0  502    0  0.00000000000E+00 -0.00000000000E+00 -0.11003441854E+04  0.11003441854E+04  0.00000000000E+00 0.  1.
   -9000010    2    1    2    0  501  0.32677624269E+03  0.20001420773E+03  0.21236399495E+04  0.23275593517E+04  0.87229439095E+03 0.  0.
    9000010    2    1    2  502    0 -0.32677624269E+03 -0.20001420773E+03 -0.71323410481E+03  0.12835348637E+04  0.99597713935E+03 0.  0.
        -13    1    4    4    0    0 -0.42119359776E+02 -0.14452807967E+03 -0.91688388020E+03  0.92916008697E+03  0.10566000000E+00 0.  1.
          4    1    4    4  502    0 -0.28465688292E+03 -0.55486128065E+02  0.20364977539E+03  0.35437477678E+03  0.00000000000E+00 0.  1.
         13    1    3    3    0    0  0.39205396176E+03  0.48767442008E+03  0.11374561951E+04  0.12982061685E+04  0.10566000000E+00 0. -1.
         -4    1    3    3    0  501 -0.65277719065E+02 -0.28766021234E+03  0.98618375444E+03  0.10293531833E+04  0.00000000000E+00 0. -1.
<mgrwt>
<rscale>  0 0.10083048E+04</rscale>
<asrwt>0</asrwt>
<pdfrwt beam="2">  1        4 0.16928372E+00 0.10671264E+04</pdfrwt>
<pdfrwt beam="1">  1       -4 0.38626923E+00 0.95272551E+03</pdfrwt>
<totfact> 0.68645134E-02</totfact>
</mgrwt>
</event>
<event>
 8    1  0.2939692E-006  0.1074825E+04  0.7818608E-02  0.8717007E-01
          4   -1    0    0  502    0  0.00000000000E+00  0.00000000000E+00  0.18697762179E+04  0.18697762179E+04  0.00000000000E+00 0.  1.
         -4   -1    0    0    0  501 -0.00000000000E+00 -0.00000000000E+00 -0.16833104953E+04  0.16833104953E+04  0.00000000000E+00 0. -1.
   -9000010    2    1    2    0  501 -0.31658109286E+03  0.71676609534E+02 -0.13282066293E+04  0.17086198394E+04  0.10246403177E+04 0.  0.
    9000010    2    1    2  502    0  0.31658109286E+03 -0.71676609534E+02  0.15146723519E+04  0.18444668738E+04  0.10012315368E+04 0.  0.
        -13    1    4    4    0    0  0.37224610033E+03  0.18356399007E+03  0.12936025354E+03  0.43473783367E+03  0.10566000000E+00 0.  1.
          4    1    4    4  502    0 -0.55665007470E+02 -0.25524059961E+03  0.13853120983E+04  0.14097290401E+04  0.00000000000E+00 0.  1.
         13    1    3    3    0    0 -0.22594016601E+03 -0.30311088066E+03 -0.59620393618E+02  0.38272675252E+03  0.10566000000E+00 0. -1.
         -4    1    3    3    0  501 -0.90640926849E+02  0.37478749019E+03 -0.12685862357E+04  0.13258930869E+04  0.00000000000E+00 0. -1.
<mgrwt>
<rscale>  0 0.10636206E+04</rscale>
<asrwt>0</asrwt>
<pdfrwt beam="1">  1        4 0.28765788E+00 0.10525330E+04</pdfrwt>
<pdfrwt beam="2">  1       -4 0.25897085E+00 0.10748251E+04</pdfrwt>
<totfact> 0.78841269E-02</totfact>
</mgrwt>
</event>
<event>
 8    1  0.2939692E-006  0.1234373E+04  0.7818608E-02  0.8610464E-01
         -4   -1    0    0    0  501 -0.00000000000E+00  0.00000000000E+00  0.23069130340E+04  0.23069130340E+04  0.00000000000E+00 0. -1.
          4   -1    0    0  502    0  0.00000000000E+00 -0.00000000000E+00 -0.20716935135E+04  0.20716935135E+04  0.00000000000E+00 0.  1.
   -9000010    2    1    2    0  501  0.20939159061E+03 -0.69255895000E+03  0.19491440017E+04  0.22664478122E+04  0.90229740590E+03 0.  0.
    9000010    2    1    2  502    0 -0.20939159061E+03  0.69255895000E+03 -0.17139244812E+04  0.21121587352E+04  0.10000973242E+04 0.  0.
        -13    1    4    4    0    0 -0.31690213550E+03  0.29330429868E+03 -0.16352032254E+04  0.16912551477E+04  0.10566000000E+00 0.  1.
          4    1    4    4  502    0  0.10751054488E+03  0.39925465132E+03 -0.78721255815E+02  0.42090358751E+03  0.00000000000E+00 0.  1.
         13    1    3    3    0    0 -0.15851658483E+03 -0.73735094289E+03  0.10402016846E+04  0.12848476472E+04  0.10566000000E+00 0. -1.
         -4    1    3    3    0  501  0.36790817544E+03  0.44791992888E+02  0.90894231716E+03  0.98160016510E+03  0.00000000000E+00 0. -1.
<mgrwt>
<rscale>  0 0.11948316E+04</rscale>
<asrwt>0</asrwt>
<pdfrwt beam="2">  1        4 0.31872208E+00 0.12343733E+04</pdfrwt>
<pdfrwt beam="1">  1       -4 0.35490970E+00 0.11565567E+04</pdfrwt>
<totfact> 0.34722855E-02</totfact>
</mgrwt>
</event>
<event>
 8    1  0.2939692E-006  0.1115302E+04  0.7818608E-02  0.8740643E-01
          4   -1    0    0  502    0  0.00000000000E+00  0.00000000000E+00  0.27371529597E+04  0.27371529597E+04  0.00000000000E+00 0.  1.
         -4   -1    0    0    0  501 -0.00000000000E+00 -0.00000000000E+00 -0.39647898460E+03  0.39647898460E+03  0.00000000000E+00 0. -1.
   -9000010    2    1    2    0  501  0.12819721536E+03 -0.47495118471E+03  0.13531950650E+04  0.17535778557E+04  0.10009421852E+04 0.  0.
    9000010    2    1    2  502    0 -0.12819721536E+03  0.47495118471E+03  0.98747891013E+03  0.13800540886E+04  0.82910888051E+03 0.  0.
        -13    1    4    4    0    0 -0.40883312424E+03  0.11349518819E+03  0.75671810226E+03  0.86755286794E+03  0.10566000000E+00 0.  1.
          4    1    4    4  502    0  0.28063590888E+03  0.36145599652E+03  0.23076080788E+03  0.51250122071E+03  0.00000000000E+00 0.  1.
         13    1    3    3    0    0  0.54554093016E+03 -0.21272201412E+03  0.50815809265E+03  0.77530008388E+03  0.10566000000E+00 0. -1.
         -4    1    3    3    0  501 -0.41734371480E+03 -0.26222917059E+03  0.84503697236E+03  0.97827777182E+03  0.00000000000E+00 0. -1.
<mgrwt>
<rscale>  0 0.10369336E+04</rscale>
<asrwt>0</asrwt>
<pdfrwt beam="1">  1        4 0.42110044E+00 0.96407193E+03</pdfrwt>
<pdfrwt beam="2">  1       -4 0.60996768E-01 0.11153019E+04</pdfrwt>
<totfact> 0.32135299E-01</totfact>
</mgrwt>
</event>
<event>
 8    1  0.2939692E-006  0.1239725E+04  0.7818608E-02  0.8592394E-01
          4   -1    0    0  502    0  0.00000000000E+00  0.00000000000E+00  0.10998979445E+04  0.10998979445E+04  0.00000000000E+00 0. -1.
         -4   -1    0    0    0  501 -0.00000000000E+00 -0.00000000000E+00 -0.14664620354E+04  0.14664620354E+04  0.00000000000E+00 0.  1.
   -9000010    2    1    2    0  501  0.62056975609E+03 -0.35407752622E+03 -0.53986374090E+03  0.13145805251E+04  0.96238837358E+03 0.  0.
    9000010    2    1    2  502    0 -0.62056975609E+03  0.35407752622E+03  0.17329965001E+03  0.12517794547E+04  0.10131344026E+04 0.  0.
        -13    1    4    4    0    0 -0.30676333572E+02  0.10310150820E+03  0.51446196873E+03  0.52558737320E+03  0.10566000000E+00 0.  1.
          4    1    4    4  502    0 -0.58989342251E+03  0.25097601802E+03 -0.34116231872E+03  0.72619208152E+03  0.00000000000E+00 0.  1.
         13    1    3    3    0    0  0.25375866138E+03  0.73655999347E+02 -0.68374388222E+03  0.73302412791E+03  0.10566000000E+00 0. -1.
         -4    1    3    3    0  501  0.36681109471E+03 -0.42773352557E+03  0.14388014131E+03  0.58155639723E+03  0.00000000000E+00 0. -1.
<mgrwt>
<rscale>  0 0.12189950E+04</rscale>
<asrwt>0</asrwt>
<pdfrwt beam="1">  1        4 0.16921507E+00 0.12397254E+04</pdfrwt>
<pdfrwt beam="2">  1       -4 0.22560954E+00 0.11986113E+04</pdfrwt>
<totfact> 0.19462760E-01</totfact>
</mgrwt>
</event>
<event>
 8    1  0.2939692E-006  0.1054513E+04  0.7818608E-02  0.8726581E-01
         -4   -1    0    0    0  501 -0.00000000000E+00  0.00000000000E+00  0.15091618631E+04  0.15091618631E+04  0.00000000000E+00 0. -1.
          4   -1    0    0  502    0  0.00000000000E+00 -0.00000000000E+00 -0.74376778161E+03  0.74376778161E+03  0.00000000000E+00 0.  1.
   -9000010    2    1    2    0  501 -0.12241884656E+01 -0.30019352890E+03  0.25637291839E+03  0.10852304927E+04  0.10108810491E+04 0.  0.
    9000010    2    1    2  502    0  0.12241884656E+01  0.30019352890E+03  0.50902116309E+03  0.11676991520E+04  0.10071251718E+04 0.  0.
        -13    1    4    4    0    0 -0.16715306819E+03 -0.19065330497E+03  0.59029835741E+03  0.64244921420E+03  0.10566000000E+00 0.  1.
          4    1    4    4  502    0  0.16837725665E+03  0.49084683387E+03 -0.81277194326E+02  0.52524993784E+03  0.00000000000E+00 0.  1.
         13    1    3    3    0    0  0.23955252266E+03 -0.12998726396E+03 -0.33053869930E+03  0.42841328504E+03  0.10566000000E+00 0. -1.
         -4    1    3    3    0  501 -0.24077671112E+03 -0.17020626495E+03  0.58691161769E+03  0.65681720762E+03  0.00000000000E+00 0. -1.
<mgrwt>
<rscale>  0 0.10527117E+04</rscale>
<asrwt>0</asrwt>
<pdfrwt beam="2">  1        4 0.11442581E+00 0.10509133E+04</pdfrwt>
<pdfrwt beam="1">  1       -4 0.23217875E+00 0.10545132E+04</pdfrwt>
<totfact> 0.34400793E-01</totfact>
</mgrwt>
</event>
<event>
 8    1  0.2939692E-006  0.1222640E+04  0.7818608E-02  0.8599640E-01
         -4   -1    0    0    0  501 -0.00000000000E+00  0.00000000000E+00  0.15019941700E+04  0.15019941700E+04  0.00000000000E+00 0. -1.
          4   -1    0    0  502    0  0.00000000000E+00 -0.00000000000E+00 -0.31420147889E+04  0.31420147889E+04  0.00000000000E+00 0.  1.
   -9000010    2    1    2    0  501  0.69513859657E+03  0.12834897967E+03  0.11061170374E+04  0.16487397344E+04  0.99757540193E+03 0.  0.
    9000010    2    1    2  502    0 -0.69513859657E+03 -0.12834897967E+03 -0.27461376563E+04  0.29952692244E+04  0.96471476117E+03 0.  0.
        -13    1    4    4    0    0  0.24006302388E+03  0.46521277600E+02 -0.55173030356E+03  0.60349053326E+03  0.10566000000E+00 0.  1.
          4    1    4    4  502    0 -0.93520162044E+03 -0.17487025727E+03 -0.21944073527E+04  0.23917786912E+04  0.00000000000E+00 0.  1.
         13    1    3    3    0    0  0.75196012444E+03  0.19962491551E+03  0.12535767022E+04  0.14753808644E+04  0.10566000000E+00 0. -1.
         -4    1    3    3    0  501 -0.56821527871E+02 -0.71275935842E+02 -0.14745966484E+03  0.17335887002E+03  0.00000000000E+00 0. -1.
<mgrwt>
<rscale>  0 0.12092359E+04</rscale>
<asrwt>0</asrwt>
<pdfrwt beam="2">  1        4 0.48338688E+00 0.11959790E+04</pdfrwt>
<pdfrwt beam="1">  1       -4 0.23107603E+00 0.12226397E+04</pdfrwt>
<totfact> 0.16580011E-02</totfact>
</mgrwt>
</event>
<event>
 8    1  0.2939692E-006  0.1095115E+04  0.7818608E-02  0.8692774E-01
          4   -1    0    0  502    0  0.00000000000E+00  0.00000000000E+00  0.15147322414E+04  0.15147322414E+04  0.00000000000E+00 0.  1.
         -4   -1    0    0    0  501 -0.00000000000E+00 -0.00000000000E+00 -0.12421053261E+04  0.12421053261E+04  0.00000000000E+00 0. -1.
   -9000010    2    1    2    0  501  0.33778155054E+03 -0.29587531578E+03 -0.69827033408E+03  0.12933083164E+04  0.99167855847E+03 0.  0.
    9000010    2    1    2  502    0 -0.33778155054E+03  0.29587531578E+03  0.97089724936E+03  0.14635292512E+04  0.99881821260E+03 0.  0.
        -13    1    4    4    0    0 -0.69292703532E+03  0.18322450046E+03  0.70853892029E+03  0.10078425009E+04  0.10566000000E+00 0.  1.
          4    1    4    4  502    0  0.35514548478E+03  0.11265081533E+03  0.26235832908E+03  0.45568675029E+03  0.00000000000E+00 0.  1.
         13    1    3    3    0    0  0.47751971712E+03 -0.22447689945E+03 -0.89664084840E+03  0.10403748271E+04  0.10566000000E+00 0. -1.
         -4    1    3    3    0  501 -0.13973816658E+03 -0.71398416329E+02  0.19837051432E+03  0.25293348929E+03  0.00000000000E+00 0. -1.
<mgrwt>
<rscale>  0 0.10918560E+04</rscale>
<asrwt>0</asrwt>
<pdfrwt beam="1">  1        4 0.23303573E+00 0.10951148E+04</pdfrwt>
<pdfrwt beam="2">  1       -4 0.19109313E+00 0.10886069E+04</pdfrwt>
<totfact> 0.15845597E-01</totfact>
</mgrwt>
</event>
<event>
 8    1  0.2939692E-006  0.1015187E+04  0.7818608E-02  0.8781921E-01
         -4   -1    0    0    0  501 -0.00000000000E+00  0.00000000000E+00  0.23853663778E+04  0.23853663778E+04  0.00000000000E+00 0. -1.
          4   -1    0    0  502    0  0.00000000000E+00 -0.00000000000E+00 -0.25701677641E+04  0.25701677641E+04  0.00000000000E+00 0.  1.
   -9000010    2    1    2    0  501 -0.30666747289E+02  0.21287491992E+03  0.21771672265E+04  0.24022203278E+04  0.99214373481E+03 0.  0.
    9000010    2    1    2  502    0  0.30666747289E+02 -0.21287491992E+03 -0.23619686128E+04  0.25533138141E+04  0.94565296204E+03 0.  0.
        -13    1    4    4    0    0 -0.42189524708E+03  0.65748542480E+02 -0.12489599609E+04  0.13199316139E+04  0.10566000000E+00 0.  1.
          4    1    4    4  502    0  0.45256199437E+03 -0.27862346240E+03 -0.11130086519E+04  0.12333822002E+04  0.00000000000E+00 0.  1.
         13    1    3    3    0    0  0.32315779648E+02  0.51637319356E+03  0.58848235295E+03  0.78357965488E+03  0.10566000000E+00 0. -1.
         -4    1    3    3    0  501 -0.62982526937E+02 -0.30349827364E+03  0.15886848735E+04  0.16186406729E+04  0.00000000000E+00 0. -1.
<mgrwt>
<rscale>  0 0.99223516E+03</rscale>
<asrwt>0</asrwt>
<pdfrwt beam="2">  1        4 0.39541042E+00 0.96980189E+03</pdfrwt>
<pdfrwt beam="1">  1       -4 0.36697945E+00 0.10151874E+04</pdfrwt>
<totfact> 0.17798516E-02</totfact>
</mgrwt>
</event>
<event>
 8    1  0.2939692E-006  0.1307715E+04  0.7818608E-02  0.8542383E-01
         -4   -1    0    0    0  501 -0.00000000000E+00  0.00000000000E+00  0.30177851276E+04  0.30177851276E+04  0.00000000000E+00 0. -1.
          4   -1    0    0  502    0  0.00000000000E+00 -0.00000000000E+00 -0.70603219343E+03  0.70603219343E+03  0.00000000000E+00 0.  1.
   -9000010    2    1    2    0  501 -0.72621200165E+03 -0.43451559756E+03  0.20420926087E+04  0.24249251603E+04  0.99696145079E+03 0.  0.
    9000010    2    1    2  502    0  0.72621200165E+03  0.43451559756E+03  0.26966032546E+03  0.12988921608E+04  0.94774283347E+03 0.  0.
        -13    1    4    4    0    0 -0.21838346664E+03  0.65549334669E+02  0.16071562652E+03  0.27895802112E+03  0.10566000000E+00 0.  1.
          4    1    4    4  502    0  0.94459546828E+03  0.36896626289E+03  0.10894469895E+03  0.10199341397E+04  0.00000000000E+00 0.  1.
         13    1    3    3    0    0 -0.86841343412E+03 -0.46100321395E+02  0.15891549361E+04  0.18115409337E+04  0.10566000000E+00 0. -1.
         -4    1    3    3    0  501  0.14220143248E+03 -0.38841527617E+03  0.45293767261E+03  0.61338422659E+03  0.00000000000E+00 0. -1.
<mgrwt>
<rscale>  0 0.12890201E+04</rscale>
<asrwt>0</asrwt>
<pdfrwt beam="2">  1        4 0.10862034E+00 0.12705920E+04</pdfrwt>
<pdfrwt beam="1">  1       -4 0.46427463E+00 0.13077155E+04</pdfrwt>
<totfact> 0.61367692E-02</totfact>
</mgrwt>
</event>
<event>
 8    1  0.2939692E-006  0.1039913E+04  0.7818608E-02  0.8742756E-01
          4   -1    0    0  502    0  0.00000000000E+00  0.00000000000E+00  0.14272277264E+04  0.14272277264E+04  0.00000000000E+00 0.  1.
         -4   -1    0    0    0  501 -0.00000000000E+00 -0.00000000000E+00 -0.10328022378E+04  0.10328022378E+04  0.00000000000E+00 0. -1.
   -9000010    2    1    2    0  501 -0.31406821360E+02 -0.29684960862E+03 -0.44570314328E+03  0.11314019788E+04  0.99614911895E+03 0.  0.
    9000010    2    1    2  502    0  0.31406821360E+02  0.29684960862E+03  0.84012863187E+03  0.13286279855E+04  0.98505336257E+03 0.  0.
        -13    1    4    4    0    0  0.26466655241E+03  0.48137035522E+03  0.87084255644E+03  0.10296273948E+04  0.10566000000E+00 0.  1.
          4    1    4    4  502    0 -0.23325973105E+03 -0.18452074660E+03 -0.30713924574E+02  0.29900059066E+03  0.00000000000E+00 0.  1.
         13    1    3    3    0    0  0.18561298446E+03 -0.53882648603E+03 -0.54801907406E+03  0.79063966428E+03  0.10566000000E+00 0. -1.
         -4    1    3    3    0  501 -0.21701980582E+03  0.24197687741E+03  0.10231593078E+03  0.34076231454E+03  0.00000000000E+00 0. -1.
<mgrwt>
<rscale>  0 0.10345875E+04</rscale>
<asrwt>0</asrwt>
<pdfrwt beam="1">  1        4 0.21957350E+00 0.10292892E+04</pdfrwt>
<pdfrwt beam="2">  1       -4 0.15889265E+00 0.10399130E+04</pdfrwt>
<totfact> 0.22151466E-01</totfact>
</mgrwt>
</event>
<event>
 8    1  0.2939692E-006  0.1138862E+04  0.7818608E-02  0.8694122E-01
         -4   -1    0    0    0  501 -0.00000000000E+00  0.00000000000E+00  0.76333793638E+03  0.76333793638E+03  0.00000000000E+00 0. -1.
          4   -1    0    0  502    0  0.00000000000E+00 -0.00000000000E+00 -0.20916461220E+04  0.20916461220E+04  0.00000000000E+00 0.  1.
   -9000010    2    1    2    0  501 -0.27986046135E+02 -0.28279526872E+03  0.76497387308E+02  0.10465355698E+04  0.10043049666E+04 0.  0.
    9000010    2    1    2  502    0  0.27986046135E+02  0.28279526872E+03 -0.14048055729E+04  0.18084484885E+04  0.11028376377E+04 0.  0.
        -13    1    4    4    0    0 -0.18199575398E+03 -0.37554720257E+03 -0.73996119801E+03  0.84952971787E+03  0.10566000000E+00 0.  1.
          4    1    4    4  502    0  0.20998180011E+03  0.65834247129E+03 -0.66484437488E+03  0.95891877064E+03  0.00000000000E+00 0.  1.
         13    1    3    3    0    0 -0.20959829189E+02 -0.92656998270E+02 -0.46394879140E+03  0.47357483672E+03  0.10566000000E+00 0. -1.
         -4    1    3    3    0  501 -0.70262169458E+01 -0.19013827045E+03  0.54044617870E+03  0.57296073311E+03  0.00000000000E+00 0. -1.
<mgrwt>
<rscale>  0 0.10902621E+04</rscale>
<asrwt>0</asrwt>
<pdfrwt beam="2">  1        4 0.32179171E+00 0.11388623E+04</pdfrwt>
<pdfrwt beam="1">  1       -4 0.11743661E+00 0.10437360E+04</pdfrwt>
<totfact> 0.19443208E-01</totfact>
</mgrwt>
</event>
<event>
 8    1  0.2939692E-006  0.1387051E+04  0.7818608E-02  0.8491653E-01
         -4   -1    0    0    0  501 -0.00000000000E+00  0.00000000000E+00  0.28821087578E+04  0.28821087578E+04  0.00000000000E+00 0. -1.
          4   -1    0    0  502    0  0.00000000000E+00 -0.00000000000E+00 -0.11174151258E+04  0.11174151258E+04  0.00000000000E+00 0.  1.
   -9000010    2    1    2    0  501  0.71597680007E+03  0.63291294926E+03  0.21883183135E+04  0.25908778513E+04  0.10053404494E+04 0.  0.
    9000010    2    1    2  502    0 -0.71597680007E+03 -0.63291294926E+03 -0.42362468159E+03  0.14086460323E+04  0.94425854191E+03 0.  0.
        -13    1    4    4    0    0 -0.85064751977E+03 -0.75668990491E+03 -0.27072548282E+03  0.11702448946E+04  0.10566000000E+00 0.  1.
          4    1    4    4  502    0  0.13467071969E+03  0.12377695566E+03 -0.15289919878E+03  0.23840113775E+03  0.00000000000E+00 0.  1.
         13    1    3    3    0    0 -0.22847767738E+03 -0.33459081567E+02  0.38341576583E+03  0.44758152314E+03  0.10566000000E+00 0. -1.
         -4    1    3    3    0  501  0.94445447745E+03  0.66637203082E+03  0.18049025477E+04  0.21432963281E+04  0.00000000000E+00 0. -1.
<mgrwt>
<rscale>  0 0.13650704E+04</rscale>
<asrwt>0</asrwt>
<pdfrwt beam="2">  1        4 0.17191002E+00 0.13434380E+04</pdfrwt>
<pdfrwt beam="1">  1       -4 0.44340135E+00 0.13870512E+04</pdfrwt>
<totfact> 0.37288332E-02</totfact>
</mgrwt>
</event>
<event>
 8    1  0.2939692E-006  0.1543390E+04  0.7818608E-02  0.8386531E-01
          4   -1    0    0  502    0  0.00000000000E+00  0.00000000000E+00  0.18207075595E+04  0.18207075595E+04  0.00000000000E+00 0. -1.
         -4   -1    0    0    0  501 -0.00000000000E+00 -0.00000000000E+00 -0.18859996119E+04  0.18859996119E+04  0.00000000000E+00 0.  1.
   -9000010    2    1    2    0  501 -0.51947047172E+03 -0.10519782832E+04 -0.10626588428E+04  0.18738455245E+04  0.10027688438E+04 0.  0.
    9000010    2    1    2  502    0  0.51947047172E+03  0.10519782832E+04  0.99736679048E+03  0.18328616469E+04  0.99404900413E+03 0.  0.
        -13    1    4    4    0    0  0.77946588644E+03  0.99812692603E+03  0.88243569409E+03  0.15435404737E+04  0.10566000000E+00 0.  1.
          4    1    4    4  502    0 -0.25999541472E+03  0.53851357181E+02  0.11493109639E+03  0.28932117320E+03  0.00000000000E+00 0.  1.
         13    1    3    3    0    0 -0.42511174357E+03 -0.80630271409E+03 -0.12527023260E+04  0.15492279336E+04  0.10566000000E+00 0. -1.
         -4    1    3    3    0  501 -0.94358728152E+02 -0.24567556912E+03  0.19004348322E+03  0.32461759095E+03  0.00000000000E+00 0. -1.
<mgrwt>
<rscale>  0 0.15405620E+04</rscale>
<asrwt>0</asrwt>
<pdfrwt beam="1">  1        4 0.28010886E+00 0.15377390E+04</pdfrwt>
<pdfrwt beam="2">  1       -4 0.29015379E+00 0.15433902E+04</pdfrwt>
<totfact> 0.66295071E-02</totfact>
</mgrwt>
</event>
<event>
 8    1  0.2939692E-006  0.1053095E+04  0.7818608E-02  0.8761606E-01
          4   -1    0    0  502    0  0.00000000000E+00  0.00000000000E+00  0.19835719441E+04  0.19835719441E+04  0.00000000000E+00 0.  1.
         -4   -1    0    0    0  501 -0.00000000000E+00 -0.00000000000E+00 -0.40117368805E+04  0.40117368805E+04  0.00000000000E+00 0. -1.
   -9000010    2    1    2    0  501 -0.26247290394E+03  0.17913424404E+03 -0.38058769375E+04  0.39290881074E+04  0.92306716414E+03 0.  0.
    9000010    2    1    2  502    0  0.26247290394E+03 -0.17913424404E+03  0.17777120012E+04  0.20662207172E+04  0.10040054734E+04 0.  0.
        -13    1    4    4    0    0  0.43694448903E+03 -0.18001052493E+03  0.18252114199E+04  0.18853967790E+04  0.10566000000E+00 0.  1.
          4    1    4    4  502    0 -0.17447158508E+03  0.87628088641E+00 -0.47499418750E+02  0.18082393827E+03  0.00000000000E+00 0.  1.
         13    1    3    3    0    0 -0.32702320485E+03 -0.25087475568E+03 -0.28412007919E+04  0.28709413562E+04  0.10566000000E+00 0. -1.
         -4    1    3    3    0  501  0.64550300911E+02  0.43000899973E+03 -0.96467614554E+03  0.10581467512E+04  0.00000000000E+00 0. -1.
<mgrwt>
<rscale>  0 0.10139366E+04</rscale>
<asrwt>0</asrwt>
<pdfrwt beam="1">  1        4 0.30516492E+00 0.10530945E+04</pdfrwt>
<pdfrwt beam="2">  1       -4 0.61719029E+00 0.97623465E+03</pdfrwt>
<totfact> 0.23706514E-03</totfact>
</mgrwt>
</event>
<event>
 8    1  0.2939692E-006  0.1156662E+04  0.7818608E-02  0.8656510E-01
         -4   -1    0    0    0  501 -0.00000000000E+00  0.00000000000E+00  0.94447398124E+03  0.94447398124E+03  0.00000000000E+00 0. -1.
          4   -1    0    0  502    0  0.00000000000E+00 -0.00000000000E+00 -0.33896806964E+04  0.33896806964E+04  0.00000000000E+00 0.  1.
   -9000010    2    1    2    0  501  0.30156839744E+03  0.44940970326E+03  0.44258269926E+03  0.12384448495E+04  0.10222297294E+04 0.  0.
    9000010    2    1    2  502    0 -0.30156839744E+03 -0.44940970326E+03 -0.28877894144E+04  0.30957098282E+04  0.97528409121E+03 0.  0.
        -13    1    4    4    0    0 -0.26441417986E+03 -0.65408966549E+03 -0.11765055477E+04  0.13718285112E+04  0.10566000000E+00 0.  1.
          4    1    4    4  502    0 -0.37154217581E+02  0.20467996223E+03 -0.17112838667E+04  0.17238813170E+04  0.00000000000E+00 0.  1.
         13    1    3    3    0    0  0.51587189871E+03  0.35971310856E+03  0.66608497322E+03  0.91607125218E+03  0.10566000000E+00 0. -1.
         -4    1    3    3    0  501 -0.21430350127E+03  0.89696594703E+02 -0.22350227397E+03  0.32237359728E+03  0.00000000000E+00 0. -1.
<mgrwt>
<rscale>  0 0.11358377E+04</rscale>
<asrwt>0</asrwt>
<pdfrwt beam="2">  1        4 0.52148934E+00 0.11153886E+04</pdfrwt>
<pdfrwt beam="1">  1       -4 0.14530369E+00 0.11566617E+04</pdfrwt>
<totfact> 0.20918437E-02</totfact>
</mgrwt>
</event>
<event>
 8    1  0.2939692E-006  0.2293071E+04  0.7818608E-02  0.8058583E-01
         -4   -1    0    0    0  501 -0.00000000000E+00  0.00000000000E+00  0.25470938663E+04  0.25470938663E+04  0.00000000000E+00 0. -1.
          4   -1    0    0  502    0  0.00000000000E+00 -0.00000000000E+00 -0.20788038843E+04  0.20788038843E+04  0.00000000000E+00 0.  1.
   -9000010    2    1    2    0  501 -0.16813083324E+04  0.11973793555E+04  0.42861521653E+03  0.23327848748E+04  0.99882893376E+03 0.  0.
    9000010    2    1    2  502    0  0.16813083324E+04 -0.11973793555E+04  0.39674765422E+02  0.22931128758E+04  0.99813703694E+03 0.  0.
        -13    1    4    4    0    0 -0.87628579195E+02 -0.28548072391E+03 -0.40430689314E+02  0.30135139525E+03  0.10566000000E+00 0.  1.
          4    1    4    4  502    0  0.17689369116E+04 -0.91189863162E+03  0.80105454736E+02  0.19917614805E+04  0.00000000000E+00 0.  1.
         13    1    3    3    0    0 -0.10095732030E+02 -0.71223874844E+02 -0.14133107106E+03  0.15858514106E+03  0.10566000000E+00 0. -1.
         -4    1    3    3    0  501 -0.16712126003E+04  0.12686032304E+04  0.56994628759E+03  0.21741997338E+04  0.00000000000E+00 0. -1.
<mgrwt>
<rscale>  0 0.22929203E+04</rscale>
<asrwt>0</asrwt>
<pdfrwt beam="2">  1        4 0.31981598E+00 0.22927696E+04</pdfrwt>
<pdfrwt beam="1">  1       -4 0.39186060E+00 0.22930709E+04</pdfrwt>
<totfact> 0.22525412E-02</totfact>
</mgrwt>
</event>
<event>
 8    1  0.2939692E-006  0.1123834E+04  0.7818608E-02  0.8671831E-01
          4   -1    0    0  502    0  0.00000000000E+00  0.00000000000E+00  0.12157957575E+04  0.12157957575E+04  0.00000000000E+00 0.  1.
         -4   -1    0    0    0  501 -0.00000000000E+00 -0.00000000000E+00 -0.13177195379E+04  0.13177195379E+04  0.00000000000E+00 0. -1.
   -9000010    2    1    2    0  501  0.10177111375E+03 -0.51052174052E+03 -0.64646370711E+03  0.12847055379E+04  0.98059328336E+03 0.  0.
    9000010    2    1    2  502    0 -0.10177111375E+03  0.51052174052E+03  0.54453992671E+03  0.12488097575E+04  0.99599812833E+03 0.  0.
        -13    1    4    4    0    0 -0.53040237402E+03  0.40462476323E+03  0.22593659765E+03  0.70434028332E+03  0.10566000000E+00 0.  1.
          4    1    4    4  502    0  0.42863126027E+03  0.10589697729E+03  0.31860332906E+03  0.54446947423E+03  0.00000000000E+00 0.  1.
         13    1    3    3    0    0  0.49532056237E+03 -0.75509595936E+02 -0.42723869426E+03  0.65846569510E+03  0.10566000000E+00 0. -1.
         -4    1    3    3    0  501 -0.39354944863E+03 -0.43501214458E+03 -0.21922501285E+03  0.62623984279E+03  0.00000000000E+00 0. -1.
<mgrwt>
<rscale>  0 0.11169981E+04</rscale>
<asrwt>0</asrwt>
<pdfrwt beam="1">  1        4 0.18704550E+00 0.11238337E+04</pdfrwt>
<pdfrwt beam="2">  1       -4 0.20272608E+00 0.11102040E+04</pdfrwt>
<totfact> 0.19497643E-01</totfact>
</mgrwt>
</event>
<event>
 8    1  0.2939692E-006  0.1176271E+04  0.7818608E-02  0.8659366E-01
         -4   -1    0    0    0  501 -0.00000000000E+00  0.00000000000E+00  0.16305078834E+04  0.16305078834E+04  0.00000000000E+00 0. -1.
          4   -1    0    0  502    0  0.00000000000E+00 -0.00000000000E+00 -0.21038352758E+04  0.21038352758E+04  0.00000000000E+00 0.  1.
   -9000010    2    1    2    0  501 -0.39534385533E+03 -0.23225544633E+03  0.12432673441E+04  0.16534033797E+04  0.98883248881E+03 0.  0.
    9000010    2    1    2  502    0  0.39534385533E+03  0.23225544633E+03 -0.17165947365E+04  0.20809397795E+04  0.10832236704E+04 0.  0.
        -13    1    4    4    0    0  0.15556190252E+03 -0.15616690088E+03  0.74435649116E+02  0.23265485911E+03  0.10566000000E+00 0.  1.
          4    1    4    4  502    0  0.23978195281E+03  0.38842234721E+03 -0.17910303856E+04  0.18482849204E+04  0.00000000000E+00 0.  1.
         13    1    3    3    0    0 -0.64637888982E+02  0.18970820402E+03  0.10720325212E+04  0.10906057936E+04  0.10566000000E+00 0. -1.
         -4    1    3    3    0  501 -0.33070596635E+03 -0.42196365035E+03  0.17123482291E+03  0.56279758614E+03  0.00000000000E+00 0. -1.
<mgrwt>
<rscale>  0 0.11322971E+04</rscale>
<asrwt>0</asrwt>
<pdfrwt beam="2">  1        4 0.32366697E+00 0.11762707E+04</pdfrwt>
<pdfrwt beam="1">  1       -4 0.25084737E+00 0.10899675E+04</pdfrwt>
<totfact> 0.65194715E-02</totfact>
</mgrwt>
</event>
<event>
 8    1  0.2939692E-006  0.1251912E+04  0.7818608E-02  0.8586939E-01
         -4   -1    0    0    0  501 -0.00000000000E+00  0.00000000000E+00  0.18143677386E+04  0.18143677386E+04  0.00000000000E+00 0. -1.
          4   -1    0    0  502    0  0.00000000000E+00 -0.00000000000E+00 -0.99809238036E+03  0.99809238036E+03  0.00000000000E+00 0.  1.
   -9000010    2    1    2    0  501  0.69991061586E+03  0.18400790779E+03  0.97929672098E+03  0.15499783537E+04  0.95899794006E+03 0.  0.
    9000010    2    1    2  502    0 -0.69991061586E+03 -0.18400790779E+03 -0.16302136271E+03  0.12624817652E+04  0.10215431770E+04 0.  0.
        -13    1    4    4    0    0 -0.46070271684E+03  0.19574834074E+03 -0.49519173469E+03  0.70411595031E+03  0.10566000000E+00 0.  1.
          4    1    4    4  502    0 -0.23920789902E+03 -0.37975624854E+03  0.33217037198E+03  0.55836581493E+03  0.00000000000E+00 0.  1.
         13    1    3    3    0    0  0.59476988241E+03  0.54208412249E+03  0.51977581095E+03  0.95800486100E+03  0.10566000000E+00 0. -1.
         -4    1    3    3    0  501  0.10514073346E+03 -0.35807621470E+03  0.45952091003E+03  0.59197349275E+03  0.00000000000E+00 0. -1.
<mgrwt>
<rscale>  0 0.12264065E+04</rscale>
<asrwt>0</asrwt>
<pdfrwt beam="2">  1        4 0.15355267E+00 0.12519122E+04</pdfrwt>
<pdfrwt beam="1">  1       -4 0.27913350E+00 0.12014203E+04</pdfrwt>
<totfact> 0.16597021E-01</totfact>
</mgrwt>
</event>
<event>
 8    1  0.2939692E-006  0.1153430E+04  0.7818608E-02  0.8643834E-01
          4   -1    0    0  502    0  0.00000000000E+00  0.00000000000E+00  0.71856878338E+03  0.71856878338E+03  0.00000000000E+00 0.  1.
         -4   -1    0    0    0  501 -0.00000000000E+00 -0.00000000000E+00 -0.32755380199E+04  0.32755380199E+04  0.00000000000E+00 0. -1.
   -9000010    2    1    2    0  501  0.53156251627E+01  0.58085554051E+03 -0.25988744327E+04  0.28433341427E+04  0.99648347466E+03 0.  0.
    9000010    2    1    2  502    0 -0.53156251627E+01 -0.58085554051E+03  0.41905196181E+02  0.11507726606E+04  0.99252216905E+03 0.  0.
        -13    1    4    4    0    0  0.19765579402E+03 -0.33136543593E+02 -0.38041335733E+03  0.42997694942E+03  0.10566000000E+00 0.  1.
          4    1    4    4  502    0 -0.20297141918E+03 -0.54771899691E+03  0.42231855351E+03  0.72079571116E+03  0.00000000000E+00 0.  1.
         13    1    3    3    0    0  0.45305241349E+03  0.51274063419E+03 -0.17898296437E+04  0.19161549029E+04  0.10566000000E+00 0. -1.
         -4    1    3    3    0  501 -0.44773678833E+03  0.68114906318E+02 -0.80904478902E+03  0.92717923981E+03  0.00000000000E+00 0. -1.
<mgrwt>
<rscale>  0 0.11517184E+04</rscale>
<asrwt>0</asrwt>
<pdfrwt beam="1">  1        4 0.11054904E+00 0.11500094E+04</pdfrwt>
<pdfrwt beam="2">  1       -4 0.50392893E+00 0.11534300E+04</pdfrwt>
<totfact> 0.39344225E-02</totfact>
</mgrwt>
</event>
<event>
 8    1  0.2939692E-006  0.1118085E+04  0.7818608E-02  0.8679422E-01
         -4   -1    0    0    0  501 -0.00000000000E+00  0.00000000000E+00  0.11115076674E+04  0.11115076674E+04  0.00000000000E+00 0. -1.
          4   -1    0    0  502    0  0.00000000000E+00 -0.00000000000E+00 -0.26064202960E+04  0.26064202960E+04  0.00000000000E+00 0.  1.
   -9000010    2    1    2    0  501  0.15828454988E+03 -0.47236111045E+03  0.66087719798E+03  0.12987967688E+04  0.10009672115E+04 0.  0.
    9000010    2    1    2  502    0 -0.15828454988E+03  0.47236111045E+03 -0.21557898266E+04  0.24191311947E+04  0.97805262797E+03 0.  0.
        -13    1    4    4    0    0 -0.20298127732E+03 -0.27807679398E+03 -0.61822535608E+03  0.70762327855E+03  0.10566000000E+00 0.  1.
          4    1    4    4  502    0  0.44696727432E+02  0.75043790443E+03 -0.15375644705E+04  0.17115079161E+04  0.00000000000E+00 0.  1.
         13    1    3    3    0    0  0.50516862544E+02 -0.25404655395E+03  0.91257081894E+03  0.94861853014E+03  0.10566000000E+00 0. -1.
         -4    1    3    3    0  501  0.10776768734E+03 -0.21831455650E+03 -0.25169362096E+03  0.35017823868E+03  0.00000000000E+00 0. -1.
<mgrwt>
<rscale>  0 0.11078045E+04</rscale>
<asrwt>0</asrwt>
<pdfrwt beam="2">  1        4 0.40098773E+00 0.10976183E+04</pdfrwt>
<pdfrwt beam="1">  1       -4 0.17100118E+00 0.11180851E+04</pdfrwt>
<totfact> 0.58478688E-02</totfact>
</mgrwt>
</event>
<event>
 8    1  0.2939692E-006  0.1170878E+04  0.7818608E-02  0.8637185E-01
         -4   -1    0    0    0  501 -0.00000000000E+00  0.00000000000E+00  0.23450651547E+04  0.23450651547E+04  0.00000000000E+00 0. -1.
          4   -1    0    0  502    0  0.00000000000E+00 -0.00000000000E+00 -0.23978820050E+04  0.23978820050E+04  0.00000000000E+00 0.  1.
   -9000010    2    1    2    0  501 -0.51846427886E+03 -0.24446851956E+03  0.20417588981E+04  0.23536639136E+04  0.10209722597E+04 0.  0.
    9000010    2    1    2  502    0  0.51846427886E+03  0.24446851956E+03 -0.20945757483E+04  0.23892832461E+04  0.99642199844E+03 0.  0.
        -13    1    4    4    0    0 -0.64137249393E+02  0.29618190279E+03 -0.11339231827E+03  0.32356627653E+03  0.10566000000E+00 0.  1.
          4    1    4    4  502    0  0.58260152825E+03 -0.51713383226E+02 -0.19811834301E+04  0.20657169695E+04  0.00000000000E+00 0.  1.
         13    1    3    3    0    0 -0.48979306728E+03 -0.42094379113E+03  0.54153301885E+03  0.84282201307E+03  0.10566000000E+00 0. -1.
         -4    1    3    3    0  501 -0.28671211578E+02  0.17647527157E+03  0.15002258792E+04  0.15108419006E+04  0.00000000000E+00 0. -1.
<mgrwt>
<rscale>  0 0.11601564E+04</rscale>
<asrwt>0</asrwt>
<pdfrwt beam="2">  1        4 0.36890493E+00 0.11495333E+04</pdfrwt>
<pdfrwt beam="1">  1       -4 0.36077925E+00 0.11708776E+04</pdfrwt>
<totfact> 0.22924368E-02</totfact>
</mgrwt>
</event>
<event>
 8    1  0.2939692E-006  0.1177757E+04  0.7818608E-02  0.8634757E-01
         -4   -1    0    0    0  501 -0.00000000000E+00  0.00000000000E+00  0.18386454977E+04  0.18386454977E+04  0.00000000000E+00 0. -1.
          4   -1    0    0  502    0  0.00000000000E+00 -0.00000000000E+00 -0.15268204701E+04  0.15268204701E+04  0.00000000000E+00 0.  1.
   -9000010    2    1    2    0  501 -0.35597643108E+02 -0.57709872138E+03  0.13677897654E+04  0.18049822636E+04  0.10260614032E+04 0.  0.
    9000010    2    1    2  502    0  0.35597643108E+02  0.57709872138E+03 -0.10559647379E+04  0.15604837042E+04  0.99284325911E+03 0.  0.
        -13    1    4    4    0    0  0.19764495467E+03  0.32238452609E+03 -0.11762280478E+04  0.12355192197E+04  0.10566000000E+00 0.  1.
          4    1    4    4  502    0 -0.16204731157E+03  0.25471419529E+03  0.12026330993E+03  0.32496448449E+03  0.00000000000E+00 0.  1.
         13    1    3    3    0    0 -0.10899012199E+03 -0.51798270275E+03  0.15291194033E+04  0.16181443347E+04  0.10566000000E+00 0. -1.
         -4    1    3    3    0  501  0.73392478878E+02 -0.59116018630E+02 -0.16132963793E+03  0.18683792894E+03  0.00000000000E+00 0. -1.
<mgrwt>
<rscale>  0 0.11632560E+04</rscale>
<asrwt>0</asrwt>
<pdfrwt beam="2">  1        4 0.23489546E+00 0.11489334E+04</pdfrwt>
<pdfrwt beam="1">  1       -4 0.28286854E+00 0.11777572E+04</pdfrwt>
<totfact> 0.91711284E-02</totfact>
</mgrwt>
</event>
<event>
 8    1  0.2939692E-006  0.1475561E+04  0.7818608E-02  0.8435559E-01
          4   -1    0    0  502    0  0.00000000000E+00  0.00000000000E+00  0.10876507113E+04  0.10876507113E+04  0.00000000000E+00 0.  1.
         -4   -1    0    0    0  501 -0.00000000000E+00 -0.00000000000E+00 -0.20064356825E+04  0.20064356825E+04  0.00000000000E+00 0. -1.
   -9000010    2    1    2    0  501 -0.14936532082E+03 -0.93660047097E+03 -0.20197375017E+03  0.14893198568E+04  0.11303759547E+04 0.  0.
    9000010    2    1    2  502    0  0.14936532082E+03  0.93660047097E+03 -0.71681122097E+03  0.16047665369E+04  0.10779271173E+04 0.  0.
        -13    1    4    4    0    0 -0.74772770804E+01  0.86825514765E+03 -0.96830795523E+03  0.13005934101E+04  0.10566000000E+00 0.  1.
          4    1    4    4  502    0  0.15684259790E+03  0.68345323319E+02  0.25149673426E+03  0.30417312682E+03  0.00000000000E+00 0.  1.
         13    1    3    3    0    0  0.26233192058E+02 -0.11359701972E+04  0.29932971636E+02  0.11366672614E+04  0.10566000000E+00 0. -1.
         -4    1    3    3    0  501 -0.17559851288E+03  0.19936972618E+03 -0.23190672181E+03  0.35265259543E+03  0.00000000000E+00 0. -1.
<mgrwt>
<rscale>  0 0.14555334E+04</rscale>
<asrwt>0</asrwt>
<pdfrwt beam="1">  1        4 0.16733088E+00 0.14357776E+04</pdfrwt>
<pdfrwt beam="2">  1       -4 0.30868241E+00 0.14755610E+04</pdfrwt>
<totfact> 0.12046036E-01</totfact>
</mgrwt>
</event>
<event>
 8    1  0.2939692E-006  0.1079745E+04  0.7818608E-02  0.8703196E-01
         -4   -1    0    0    0  501 -0.00000000000E+00  0.00000000000E+00  0.21320708415E+04  0.21320708415E+04  0.00000000000E+00 0. -1.
          4   -1    0    0  502    0  0.00000000000E+00 -0.00000000000E+00 -0.13478563396E+04  0.13478563396E+04  0.00000000000E+00 0.  1.
   -9000010    2    1    2    0  501  0.40222731815E+03 -0.20379317789E+02  0.17336099713E+04  0.20423645464E+04  0.10018219781E+04 0.  0.
    9000010    2    1    2  502    0 -0.40222731815E+03  0.20379317789E+02 -0.94939546939E+03  0.14375626347E+04  0.10015150720E+04 0.  0.
        -13    1    4    4    0    0 -0.21114731456E+03  0.16444282294E+03 -0.11149201982E+04  0.11465913352E+04  0.10566000000E+00 0.  1.
          4    1    4    4  502    0 -0.19108000359E+03 -0.14406350516E+03  0.16552472883E+03  0.29097129952E+03  0.00000000000E+00 0.  1.
         13    1    3    3    0    0  0.60561698082E+03  0.30229619799E+03  0.12940630096E+04  0.14603951529E+04  0.10566000000E+00 0. -1.
         -4    1    3    3    0  501 -0.20338966268E+03 -0.32267551577E+03  0.43954696171E+03  0.58196939345E+03  0.00000000000E+00 0. -1.
<mgrwt>
<rscale>  0 0.10796027E+04</rscale>
<asrwt>0</asrwt>
<pdfrwt beam="2">  1        4 0.20736251E+00 0.10794603E+04</pdfrwt>
<pdfrwt beam="1">  1       -4 0.32801090E+00 0.10797451E+04</pdfrwt>
<totfact> 0.81671489E-02</totfact>
</mgrwt>
</event>
<event>
 8    1  0.2939692E-006  0.1530668E+04  0.7818608E-02  0.8393827E-01
          4   -1    0    0  502    0  0.00000000000E+00  0.00000000000E+00  0.31907740279E+04  0.31907740279E+04  0.00000000000E+00 0.  1.
         -4   -1    0    0    0  501 -0.00000000000E+00 -0.00000000000E+00 -0.85273076207E+03  0.85273076207E+03  0.00000000000E+00 0. -1.
   -9000010    2    1    2    0  501  0.67677735543E+03 -0.93161214290E+03  0.40810469240E+03  0.15841380467E+04  0.10084716840E+04 0.  0.
    9000010    2    1    2  502    0 -0.67677735543E+03  0.93161214290E+03  0.19299385735E+04  0.24593667433E+04  0.99894599804E+03 0.  0.
        -13    1    4    4    0    0 -0.66297241111E+03  0.16433710059E+03  0.12919860066E+04  0.14614263420E+04  0.10566000000E+00 0.  1.
          4    1    4    4  502    0 -0.13804944322E+02  0.76727504231E+03  0.63795256685E+03  0.99794040132E+03  0.00000000000E+00 0.  1.
         13    1    3    3    0    0 -0.22847236024E+03 -0.24338086114E+03  0.28757484730E+03  0.44060545494E+03  0.10566000000E+00 0. -1.
         -4    1    3    3    0  501  0.90524971567E+03 -0.68823128176E+03  0.12052984510E+03  0.11435325918E+04  0.00000000000E+00 0. -1.
<mgrwt>
<rscale>  0 0.15275350E+04</rscale>
<asrwt>0</asrwt>
<pdfrwt beam="1">  1        4 0.49088831E+00 0.15244087E+04</pdfrwt>
<pdfrwt beam="2">  1       -4 0.13118935E+00 0.15306678E+04</pdfrwt>
<totfact> 0.32839523E-02</totfact>
</mgrwt>
</event>
<event>
 8    1  0.2939692E-006  0.1087442E+04  0.7818608E-02  0.8718866E-01
          4   -1    0    0  502    0  0.00000000000E+00  0.00000000000E+00  0.22347417409E+04  0.22347417409E+04  0.00000000000E+00 0.  1.
         -4   -1    0    0    0  501 -0.00000000000E+00 -0.00000000000E+00 -0.53154542332E+03  0.53154542332E+03  0.00000000000E+00 0. -1.
   -9000010    2    1    2    0  501 -0.34560967228E+03 -0.23134636007E+03  0.55919911546E+03  0.12227977566E+04  0.10047703812E+04 0.  0.
    9000010    2    1    2  502    0  0.34560967228E+03  0.23134636007E+03  0.11439972021E+04  0.15434894076E+04  0.94903254377E+03 0.  0.
        -13    1    4    4    0    0 -0.31040286147E+03  0.21430071304E+03  0.36440886127E+03  0.52446979070E+03  0.10566000000E+00 0.  1.
          4    1    4    4  502    0  0.65601253375E+03  0.17045647021E+02  0.77958834084E+03  0.10190196169E+04  0.00000000000E+00 0.  1.
         13    1    3    3    0    0 -0.30231505804E+03  0.36216545137E+03  0.13083375363E+03  0.48956683991E+03  0.10566000000E+00 0. -1.
         -4    1    3    3    0  501 -0.43294614242E+02 -0.59351181144E+03  0.42836536184E+03  0.73323091667E+03  0.00000000000E+00 0. -1.
<mgrwt>
<rscale>  0 0.10614921E+04</rscale>
<asrwt>0</asrwt>
<pdfrwt beam="1">  1        4 0.34380642E+00 0.10361612E+04</pdfrwt>
<pdfrwt beam="2">  1       -4 0.81776220E-01 0.10874423E+04</pdfrwt>
<totfact> 0.33812595E-01</totfact>
</mgrwt>
</event>
<event>
 8    1  0.2939692E-006  0.1092501E+04  0.7818608E-02  0.8714469E-01
          4   -1    0    0  502    0  0.00000000000E+00  0.00000000000E+00  0.10763516262E+04  0.10763516262E+04  0.00000000000E+00 0.  1.
         -4   -1    0    0    0  501 -0.00000000000E+00 -0.00000000000E+00 -0.11606338607E+04  0.11606338607E+04  0.00000000000E+00 0. -1.
   -9000010    2    1    2    0  501  0.25991117165E+03  0.84560518233E+02 -0.37467491637E+03  0.11065495741E+04  0.10046722693E+04 0.  0.
    9000010    2    1    2  502    0 -0.25991117165E+03 -0.84560518233E+02  0.29039268190E+03  0.11304359128E+04  0.10577585475E+04 0.  0.
        -13    1    4    4    0    0  0.28577024694E+03 -0.37710804031E+03  0.11530468341E+03  0.48700132370E+03  0.10566000000E+00 0.  1.
          4    1    4    4  502    0 -0.54568141859E+03  0.29254752208E+03  0.17508799848E+03  0.64343458913E+03  0.00000000000E+00 0.  1.
         13    1    3    3    0    0 -0.68240798552E+02 -0.40200317140E+03  0.46019595871E+01  0.40778002108E+03  0.10566000000E+00 0. -1.
         -4    1    3    3    0  501  0.32815197020E+03  0.48656368963E+03 -0.37927687596E+03  0.69876955304E+03  0.00000000000E+00 0. -1.
<mgrwt>
<rscale>  0 0.10665353E+04</rscale>
<asrwt>0</asrwt>
<pdfrwt beam="1">  1        4 0.16559256E+00 0.10925005E+04</pdfrwt>
<pdfrwt beam="2">  1       -4 0.17855906E+00 0.10411871E+04</pdfrwt>
<totfact> 0.27352110E-01</totfact>
</mgrwt>
</event>
<event>
 8    1  0.2939692E-006  0.1134353E+04  0.7818608E-02  0.8660953E-01
          4   -1    0    0  502    0  0.00000000000E+00  0.00000000000E+00  0.45147099465E+03  0.45147099465E+03  0.00000000000E+00 0.  1.
         -4   -1    0    0    0  501 -0.00000000000E+00 -0.00000000000E+00 -0.52606989476E+04  0.52606989476E+04  0.00000000000E+00 0. -1.
   -9000010    2    1    2    0  501 -0.12564676627E+03  0.51072311983E+03 -0.43414076452E+04  0.44851355239E+04  0.99598951369E+03 0.  0.
    9000010    2    1    2  502    0  0.12564676627E+03 -0.51072311983E+03 -0.46782030781E+03  0.12270344183E+04  0.10050534356E+04 0.  0.
        -13    1    4    4    0    0  0.13586517657E+03  0.10214622785E+03 -0.57956487091E+03  0.60397735787E+03  0.10566000000E+00 0.  1.
          4    1    4    4  502    0 -0.10218410299E+02 -0.61286934767E+03  0.11174456310E+03  0.62305706048E+03  0.00000000000E+00 0.  1.
         13    1    3    3    0    0 -0.44365540986E+03  0.29464679150E+03 -0.36938140606E+04  0.37320114121E+04  0.10566000000E+00 0. -1.
         -4    1    3    3    0  501  0.31800864359E+03  0.21607632833E+03 -0.64759358457E+03  0.75312411184E+03  0.00000000000E+00 0. -1.
<mgrwt>
<rscale>  0 0.11303348E+04</rscale>
<asrwt>0</asrwt>
<pdfrwt beam="1">  1        4 0.69457076E-01 0.11343534E+04</pdfrwt>
<pdfrwt beam="2">  1       -4 0.80933830E+00 0.11263305E+04</pdfrwt>
<totfact> 0.15507862E-03</totfact>
</mgrwt>
</event>
<event>
 8    1  0.2939692E-006  0.1183257E+04  0.7818608E-02  0.8633256E-01
          4   -1    0    0  502    0  0.00000000000E+00  0.00000000000E+00  0.44723010183E+04  0.44723010183E+04  0.00000000000E+00 0.  1.
         -4   -1    0    0    0  501 -0.00000000000E+00 -0.00000000000E+00 -0.54390160013E+03  0.54390160013E+03  0.00000000000E+00 0. -1.
   -9000010    2    1    2    0  501  0.30034680171E+03  0.48153226341E+03  0.31421813350E+03  0.12242668226E+04  0.10382748651E+04 0.  0.
    9000010    2    1    2  502    0 -0.30034680171E+03 -0.48153226341E+03  0.36141812847E+04  0.37919357958E+04  0.99719065331E+03 0.  0.
        -13    1    4    4    0    0 -0.11647132432E+03  0.13422863705E+03  0.24954386118E+04  0.25017587359E+04  0.10566000000E+00 0.  1.
          4    1    4    4  502    0 -0.18387547739E+03 -0.61576090045E+03  0.11187426728E+04  0.12901770598E+04  0.00000000000E+00 0.  1.
         13    1    3    3    0    0 -0.39191286393E+02  0.57830839917E+03 -0.18889113082E+03  0.60963631121E+03  0.10566000000E+00 0. -1.
         -4    1    3    3    0  501  0.33953808810E+03 -0.96776135766E+02  0.50310926432E+03  0.61463051142E+03  0.00000000000E+00 0. -1.
<mgrwt>
<rscale>  0 0.11651780E+04</rscale>
<asrwt>0</asrwt>
<pdfrwt beam="1">  1        4 0.68804629E+00 0.11473756E+04</pdfrwt>
<pdfrwt beam="2">  1       -4 0.83677172E-01 0.11832566E+04</pdfrwt>
<totfact> 0.74602548E-03</totfact>
</mgrwt>
</event>
<event>
 8    1  0.2939692E-006  0.1176966E+04  0.7818608E-02  0.8684170E-01
          4   -1    0    0  502    0  0.00000000000E+00  0.00000000000E+00  0.13713132496E+04  0.13713132496E+04  0.00000000000E+00 0.  1.
         -4   -1    0    0    0  501 -0.00000000000E+00 -0.00000000000E+00 -0.21084415566E+04  0.21084415566E+04  0.00000000000E+00 0. -1.
   -9000010    2    1    2    0  501  0.44104605949E+03 -0.67964850070E+02 -0.17004350043E+04  0.20680250904E+04  0.10890857282E+04 0.  0.
    9000010    2    1    2  502    0 -0.44104605949E+03  0.67964850070E+02  0.96330669731E+03  0.14117297159E+04  0.93052681322E+03 0.  0.
        -13    1    4    4    0    0 -0.52723461493E+03 -0.32901040220E+03  0.51870108801E+03  0.80949058908E+03  0.10566000000E+00 0.  1.
          4    1    4    4  502    0  0.86188555447E+02  0.39697525227E+03  0.44460560930E+03  0.60223912678E+03  0.00000000000E+00 0.  1.
         13    1    3    3    0    0 -0.85343457557E+01  0.18052340729E+03 -0.15090740793E+04  0.15198572708E+04  0.10566000000E+00 0. -1.
         -4    1    3    3    0  501  0.44958040524E+03 -0.24848825736E+03 -0.19136092496E+03  0.54816781958E+03  0.00000000000E+00 0. -1.
<mgrwt>
<rscale>  0 0.11021012E+04</rscale>
<asrwt>0</asrwt>
<pdfrwt beam="1">  1        4 0.21097127E+00 0.10319985E+04</pdfrwt>
<pdfrwt beam="2">  1       -4 0.32437562E+00 0.11769658E+04</pdfrwt>
<totfact> 0.81419226E-02</totfact>
</mgrwt>
</event>
<event>
 8    1  0.2939692E-006  0.1021163E+04  0.7818608E-02  0.8852333E-01
         -4   -1    0    0    0  501 -0.00000000000E+00  0.00000000000E+00  0.14204593167E+04  0.14204593167E+04  0.00000000000E+00 0. -1.
          4   -1    0    0  502    0  0.00000000000E+00 -0.00000000000E+00 -0.13183022622E+04  0.13183022622E+04  0.00000000000E+00 0.  1.
   -9000010    2    1    2    0  501  0.12228913589E+03  0.18697479913E+03  0.10591585230E+04  0.14712547486E+04  0.99642337892E+03 0.  0.
    9000010    2    1    2  502    0 -0.12228913589E+03 -0.18697479913E+03 -0.95700146858E+03  0.12675068303E+04  0.80050455699E+03 0.  0.
        -13    1    4    4    0    0 -0.25135186921E+03  0.17771365759E+02  0.27700068257E+02  0.25349731467E+03  0.10566000000E+00 0.  1.
          4    1    4    4  502    0  0.12906273332E+03 -0.20474616489E+03 -0.98470153684E+03  0.10140095156E+04  0.00000000000E+00 0.  1.
         13    1    3    3    0    0  0.10015156615E+03  0.52174334093E+03  0.23403936710E+03  0.58053500026E+03  0.10566000000E+00 0. -1.
         -4    1    3    3    0  501  0.22137569742E+02 -0.33476854180E+03  0.82511915593E+03  0.89071974832E+03  0.00000000000E+00 0. -1.
<mgrwt>
<rscale>  0 0.92124110E+03</rscale>
<asrwt>0</asrwt>
<pdfrwt beam="2">  1        4 0.20281573E+00 0.83109672E+03</pdfrwt>
<pdfrwt beam="1">  1       -4 0.21853220E+00 0.10211629E+04</pdfrwt>
<totfact> 0.16087760E-01</totfact>
</mgrwt>
</event>
<event>
 8    1  0.2939692E-006  0.1084345E+04  0.7818608E-02  0.8709130E-01
          4   -1    0    0  502    0  0.00000000000E+00  0.00000000000E+00  0.15033283037E+04  0.15033283037E+04  0.00000000000E+00 0.  1.
         -4   -1    0    0    0  501 -0.00000000000E+00 -0.00000000000E+00 -0.20766704203E+04  0.20766704203E+04  0.00000000000E+00 0. -1.
   -9000010    2    1    2    0  501  0.33018974876E+03  0.13961637267E+03 -0.17078164055E+04  0.20106564103E+04  0.99879143151E+03 0.  0.
    9000010    2    1    2  502    0 -0.33018974876E+03 -0.13961637267E+03  0.11344742889E+04  0.15693423137E+04  0.10233696223E+04 0.  0.
        -13    1    4    4    0    0  0.33635222293E+03 -0.79324848906E+01  0.13881938155E+03  0.36395957748E+03  0.10566000000E+00 0.  1.
          4    1    4    4  502    0 -0.66654197169E+03 -0.13168388778E+03  0.99565490736E+03  0.12053827363E+04  0.00000000000E+00 0.  1.
         13    1    3    3    0    0  0.42981571710E+03  0.43116505201E+03 -0.15483350667E+04  0.16637266430E+04  0.10566000000E+00 0. -1.
         -4    1    3    3    0  501 -0.99625968343E+02 -0.29154867934E+03 -0.15948133877E+03  0.34692976726E+03  0.00000000000E+00 0. -1.
<mgrwt>
<rscale>  0 0.10726997E+04</rscale>
<asrwt>0</asrwt>
<pdfrwt beam="1">  1        4 0.23128128E+00 0.10843447E+04</pdfrwt>
<pdfrwt beam="2">  1       -4 0.31948775E+00 0.10611797E+04</pdfrwt>
<totfact> 0.75138400E-02</totfact>
</mgrwt>
</event>
<event>
 8    1  0.2939692E-006  0.1237498E+04  0.7818608E-02  0.8579537E-01
          4   -1    0    0  502    0  0.00000000000E+00  0.00000000000E+00  0.16442512333E+04  0.16442512333E+04  0.00000000000E+00 0.  1.
         -4   -1    0    0    0  501 -0.00000000000E+00 -0.00000000000E+00 -0.14902117985E+04  0.14902117985E+04  0.00000000000E+00 0. -1.
   -9000010    2    1    2    0  501  0.59511246931E+02  0.72402918384E+03 -0.88391090738E+03  0.15207566525E+04  0.10018195727E+04 0.  0.
    9000010    2    1    2  502    0 -0.59511246931E+02 -0.72402918384E+03  0.10379503421E+04  0.16137063793E+04  0.99947362068E+03 0.  0.
        -13    1    4    4    0    0  0.30530999339E+03 -0.73019823107E+03  0.95351449258E+03  0.12391906824E+04  0.10566000000E+00 0.  1.
          4    1    4    4  502    0 -0.36482124032E+03  0.61690472332E+01  0.84435849538E+02  0.37451569689E+03  0.00000000000E+00 0.  1.
         13    1    3    3    0    0 -0.30932109482E+03  0.80505306152E+02  0.54885508155E+02  0.32430398423E+03  0.10566000000E+00 0. -1.
         -4    1    3    3    0  501  0.36883234175E+03  0.64352387768E+03 -0.93879641553E+03  0.11964526682E+04  0.00000000000E+00 0. -1.
<mgrwt>
<rscale>  0 0.12365488E+04</rscale>
<asrwt>0</asrwt>
<pdfrwt beam="1">  1        4 0.25296173E+00 0.12356000E+04</pdfrwt>
<pdfrwt beam="2">  1       -4 0.22926335E+00 0.12374984E+04</pdfrwt>
<totfact> 0.11128387E-01</totfact>
</mgrwt>
</event>
<event>
 8    1  0.2939692E-006  0.1408692E+04  0.7818608E-02  0.8473181E-01
          4   -1    0    0  502    0  0.00000000000E+00  0.00000000000E+00  0.17173250972E+04  0.17173250972E+04  0.00000000000E+00 0.  1.
         -4   -1    0    0    0  501 -0.00000000000E+00 -0.00000000000E+00 -0.13631285739E+04  0.13631285739E+04  0.00000000000E+00 0. -1.
   -9000010    2    1    2    0  501 -0.95074719601E+03 -0.57736321413E+01 -0.45580634942E+03  0.14805984973E+04  0.10394512574E+04 0.  0.
    9000010    2    1    2  502    0  0.95074719601E+03  0.57736321413E+01  0.81000287271E+03  0.15998551738E+04  0.99973914488E+03 0.  0.
        -13    1    4    4    0    0  0.10547153898E+04  0.64295129117E+02  0.94647765614E+03  0.14185832305E+04  0.10566000000E+00 0.  1.
          4    1    4    4  502    0 -0.10396819377E+03 -0.58521496976E+02 -0.13647478343E+03  0.18127194332E+03  0.00000000000E+00 0.  1.
         13    1    3    3    0    0 -0.39055677775E+03 -0.77950687395E+02  0.32699342812E+03  0.51530148410E+03  0.10566000000E+00 0. -1.
         -4    1    3    3    0  501 -0.56019041826E+03  0.72177055254E+02 -0.78279977753E+03  0.96529701321E+03  0.00000000000E+00 0. -1.
<mgrwt>
<rscale>  0 0.13940949E+04</rscale>
<asrwt>0</asrwt>
<pdfrwt beam="1">  1        4 0.26420386E+00 0.13796492E+04</pdfrwt>
<pdfrwt beam="2">  1       -4 0.20971209E+00 0.14086918E+04</pdfrwt>
<totfact> 0.11655271E-01</totfact>
</mgrwt>
</event>
<event>
 8    1  0.2939692E-006  0.1080007E+04  0.7818608E-02  0.8815178E-01
          4   -1    0    0  502    0  0.00000000000E+00  0.00000000000E+00  0.39439592063E+03  0.39439592063E+03  0.00000000000E+00 0.  1.
         -4   -1    0    0    0  501 -0.00000000000E+00 -0.00000000000E+00 -0.23649608428E+04  0.23649608428E+04  0.00000000000E+00 0. -1.
   -9000010    2    1    2    0  501  0.25035354420E+03 -0.34596921854E+03 -0.11640853962E+04  0.15879264778E+04  0.99198996567E+03 0.  0.
    9000010    2    1    2  502    0 -0.25035354420E+03  0.34596921854E+03 -0.80647952595E+03  0.11714302856E+04  0.73448491541E+03 0.  0.
        -13    1    4    4    0    0 -0.35187161472E+02 -0.11779233755E+03 -0.61235040889E+03  0.62456881570E+03  0.10566000000E+00 0.  1.
          4    1    4    4  502    0 -0.21516638273E+03  0.46376155609E+03 -0.19412911706E+03  0.54686146989E+03  0.00000000000E+00 0.  1.
         13    1    3    3    0    0  0.33556614201E+03  0.25457767666E+03 -0.24666048379E+03  0.48811457113E+03  0.10566000000E+00 0. -1.
         -4    1    3    3    0  501 -0.85212597802E+02 -0.60054689521E+03 -0.91742491239E+03  0.10998119067E+04  0.00000000000E+00 0. -1.
<mgrwt>
<rscale>  0 0.95790740E+03</rscale>
<asrwt>0</asrwt>
<pdfrwt beam="1">  1        4 0.60676296E-01 0.84961149E+03</pdfrwt>
<pdfrwt beam="2">  1       -4 0.36384013E+00 0.10800073E+04</pdfrwt>
<totfact> 0.53203582E-01</totfact>
</mgrwt>
</event>
<event>
 8    1  0.2939692E-006  0.1380171E+04  0.7818608E-02  0.8505216E-01
          4   -1    0    0  502    0  0.00000000000E+00  0.00000000000E+00  0.12828574476E+04  0.12828574476E+04  0.00000000000E+00 0.  1.
         -4   -1    0    0    0  501 -0.00000000000E+00 -0.00000000000E+00 -0.23678091636E+04  0.23678091636E+04  0.00000000000E+00 0. -1.
   -9000010    2    1    2    0  501 -0.40525282856E+03  0.73126858147E+03 -0.16949525322E+04  0.21417025040E+04  0.10074928962E+04 0.  0.
    9000010    2    1    2  502    0  0.40525282856E+03 -0.73126858147E+03  0.61000081616E+03  0.15089641072E+04  0.10981293584E+04 0.  0.
        -13    1    4    4    0    0  0.68251829775E+03 -0.16993035407E+03  0.11907973266E+03  0.71336354399E+03  0.10566000000E+00 0.  1.
          4    1    4    4  502    0 -0.27726546919E+03 -0.56133822740E+03  0.49092108349E+03  0.79560056320E+03  0.00000000000E+00 0.  1.
         13    1    3    3    0    0 -0.51048205372E+03  0.65302532497E+03 -0.56258202950E+03  0.10017647195E+04  0.10566000000E+00 0. -1.
         -4    1    3    3    0  501  0.10522922516E+03  0.78243256503E+02 -0.11323705027E+04  0.11399377845E+04  0.00000000000E+00 0. -1.
<mgrwt>
<rscale>  0 0.13442212E+04</rscale>
<asrwt>0</asrwt>
<pdfrwt beam="1">  1        4 0.19736268E+00 0.13801709E+04</pdfrwt>
<pdfrwt beam="2">  1       -4 0.36427833E+00 0.13092080E+04</pdfrwt>
<totfact> 0.64996220E-02</totfact>
</mgrwt>
</event>
<event>
 8    1  0.2939692E-006  0.1101894E+04  0.7818608E-02  0.8692248E-01
          4   -1    0    0  502    0  0.00000000000E+00  0.00000000000E+00  0.92154351815E+03  0.92154351815E+03  0.00000000000E+00 0. -1.
         -4   -1    0    0    0  501 -0.00000000000E+00 -0.00000000000E+00 -0.13970017114E+04  0.13970017114E+04  0.00000000000E+00 0.  1.
   -9000010    2    1    2    0  501  0.36847670741E+03 -0.16391978373E+03  0.73285608708E+02  0.11043288747E+04  0.10254397612E+04 0.  0.
    9000010    2    1    2  502    0 -0.36847670741E+03  0.16391978373E+03 -0.54874380192E+03  0.12142163548E+04  0.10052645506E+04 0.  0.
        -13    1    4    4    0    0 -0.29877616351E+03  0.36845013420E+03 -0.77035738702E+03  0.90469509349E+03  0.10566000000E+00 0.  1.
          4    1    4    4  502    0 -0.69700543892E+02 -0.20453035047E+03  0.22161358510E+03  0.30952126128E+03  0.00000000000E+00 0.  1.
         13    1    3    3    0    0  0.48762348495E+03 -0.40763116672E+03  0.34264185275E+03  0.72204105255E+03  0.10566000000E+00 0. -1.
         -4    1    3    3    0  501 -0.11914677754E+03  0.24371138299E+03 -0.26935624404E+03  0.38228782220E+03  0.00000000000E+00 0. -1.
<mgrwt>
<rscale>  0 0.10924792E+04</rscale>
<asrwt>0</asrwt>
<pdfrwt beam="1">  1        4 0.14177593E+00 0.10831443E+04</pdfrwt>
<pdfrwt beam="2">  1       -4 0.21492334E+00 0.11018945E+04</pdfrwt>
<totfact> 0.26834085E-01</totfact>
</mgrwt>
</event>
<event>
 8    1  0.2939692E-006  0.1040855E+04  0.7818608E-02  0.8762482E-01
          4   -1    0    0  502    0  0.00000000000E+00  0.00000000000E+00  0.16769836440E+04  0.16769836440E+04  0.00000000000E+00 0.  1.
         -4   -1    0    0    0  501 -0.00000000000E+00 -0.00000000000E+00 -0.26907567563E+04  0.26907567563E+04  0.00000000000E+00 0. -1.
   -9000010    2    1    2    0  501  0.92689256281E+02 -0.10449944995E+03 -0.24229485825E+04  0.26158401380E+04  0.97592436221E+03 0.  0.
    9000010    2    1    2  502    0 -0.92689256281E+02  0.10449944995E+03  0.14091754702E+04  0.17519002623E+04  0.10314395717E+04 0.  0.
        -13    1    4    4    0    0  0.29793920905E+03 -0.77986195214E+02  0.32968594063E+02  0.30973627216E+03  0.10566000000E+00 0.  1.
          4    1    4    4  502    0 -0.39062846534E+03  0.18248564516E+03  0.13762068761E+04  0.14421639901E+04  0.00000000000E+00 0.  1.
         13    1    3    3    0    0 -0.23322948415E+03 -0.43257187851E+03 -0.15762587563E+04  0.16510923960E+04  0.10566000000E+00 0. -1.
         -4    1    3    3    0  501  0.32591874043E+03  0.32807242856E+03 -0.84668982622E+03  0.96474774193E+03  0.00000000000E+00 0. -1.
<mgrwt>
<rscale>  0 0.10129895E+04</rscale>
<asrwt>0</asrwt>
<pdfrwt beam="1">  1        4 0.25799748E+00 0.10408549E+04</pdfrwt>
<pdfrwt beam="2">  1       -4 0.41396258E+00 0.98587007E+03</pdfrwt>
<totfact> 0.30442256E-02</totfact>
</mgrwt>
</event>
<event>
 8    1  0.2939692E-006  0.1611319E+04  0.7818608E-02  0.8354546E-01
          4   -1    0    0  502    0  0.00000000000E+00  0.00000000000E+00  0.24227010830E+04  0.24227010830E+04  0.00000000000E+00 0.  1.
         -4   -1    0    0    0  501 -0.00000000000E+00 -0.00000000000E+00 -0.26323265806E+04  0.26323265806E+04  0.00000000000E+00 0. -1.
   -9000010    2    1    2    0  501  0.12455223979E+04 -0.12707868642E+03 -0.20611393474E+04  0.26162271854E+04  0.10143343827E+04 0.  0.
    9000010    2    1    2  502    0 -0.12455223979E+04  0.12707868642E+03  0.18515138497E+04  0.24388004783E+04  0.97579157662E+03 0.  0.
        -13    1    4    4    0    0 -0.30424959302E+03  0.48859666602E+03  0.75120172842E+03  0.94636069490E+03  0.10566000000E+00 0.  1.
          4    1    4    4  502    0 -0.94127280485E+03 -0.36151797961E+03  0.11003121213E+04  0.14924397834E+04  0.00000000000E+00 0.  1.
         13    1    3    3    0    0  0.11344287481E+04  0.23727925974E+03 -0.11688777959E+04  0.16460575155E+04  0.10566000000E+00 0. -1.
         -4    1    3    3    0  501  0.11109364979E+03 -0.36435794616E+03 -0.89226155151E+03  0.97016966983E+03  0.00000000000E+00 0. -1.
<mgrwt>
<rscale>  0 0.15992840E+04</rscale>
<asrwt>0</asrwt>
<pdfrwt beam="1">  1        4 0.37272325E+00 0.15873387E+04</pdfrwt>
<pdfrwt beam="2">  1       -4 0.40497332E+00 0.16113191E+04</pdfrwt>
<totfact> 0.14158459E-02</totfact>
</mgrwt>
</event>
<event>
 8    1  0.2939692E-006  0.1172550E+04  0.7818608E-02  0.8629408E-01
         -4   -1    0    0    0  501 -0.00000000000E+00  0.00000000000E+00  0.92803796817E+03  0.92803796817E+03  0.00000000000E+00 0. -1.
          4   -1    0    0  502    0  0.00000000000E+00 -0.00000000000E+00 -0.31354111109E+04  0.31354111109E+04  0.00000000000E+00 0.  1.
   -9000010    2    1    2    0  501 -0.57144458958E+03  0.23486365853E+03  0.37574386979E+03  0.12266608826E+04  0.99086003455E+03 0.  0.
    9000010    2    1    2  502    0  0.57144458958E+03 -0.23486365853E+03 -0.25831170126E+04  0.28367881965E+04  0.99657609565E+03 0.  0.
        -13    1    4    4    0    0  0.10253332966E+02 -0.31584441170E+03 -0.19949427297E+04  0.20198166573E+04  0.10566000000E+00 0.  1.
          4    1    4    4  502    0  0.56119125662E+03  0.80980753167E+02 -0.58817428286E+03  0.81697153922E+03  0.00000000000E+00 0.  1.
         13    1    3    3    0    0 -0.19362307289E+03  0.60660972256E+03  0.22890443734E+03  0.67665537939E+03  0.10566000000E+00 0. -1.
         -4    1    3    3    0  501 -0.37782151669E+03 -0.37174606403E+03  0.14683943244E+03  0.55000550317E+03  0.00000000000E+00 0. -1.
<mgrwt>
<rscale>  0 0.11701204E+04</rscale>
<asrwt>0</asrwt>
<pdfrwt beam="2">  1        4 0.48237094E+00 0.11725501E+04</pdfrwt>
<pdfrwt beam="1">  1       -4 0.14277507E+00 0.11676958E+04</pdfrwt>
<totfact> 0.32521458E-02</totfact>
</mgrwt>
</event>
<event>
 8    1  0.2939692E-006  0.1084386E+04  0.7818608E-02  0.8757464E-01
         -4   -1    0    0    0  501 -0.00000000000E+00  0.00000000000E+00  0.56485226538E+03  0.56485226538E+03  0.00000000000E+00 0. -1.
          4   -1    0    0  502    0  0.00000000000E+00 -0.00000000000E+00 -0.21111765214E+04  0.21111765214E+04  0.00000000000E+00 0.  1.
   -9000010    2    1    2    0  501 -0.43530269501E+03  0.13397686328E+01 -0.33983377906E+03  0.11363890563E+04  0.99317816052E+03 0.  0.
    9000010    2    1    2  502    0  0.43530269501E+03 -0.13397686328E+01 -0.12064904770E+04  0.15396397305E+04  0.85169301835E+03 0.  0.
        -13    1    4    4    0    0  0.58509721492E+03 -0.20144967828E+03 -0.11116724265E+04  0.12722956885E+04  0.10566000000E+00 0.  1.
          4    1    4    4  502    0 -0.14979451991E+03  0.20010990965E+03 -0.94818050424E+02  0.26734404205E+03  0.00000000000E+00 0.  1.
         13    1    3    3    0    0 -0.49075451916E+03 -0.35881423151E+03  0.40980202774E+02  0.60931686256E+03  0.10566000000E+00 0. -1.
         -4    1    3    3    0  501  0.55451824145E+02  0.36015400015E+03 -0.38081398183E+03  0.52707219371E+03  0.00000000000E+00 0. -1.
<mgrwt>
<rscale>  0 0.10184318E+04</rscale>
<asrwt>0</asrwt>
<pdfrwt beam="2">  1        4 0.32479639E+00 0.95648901E+03</pdfrwt>
<pdfrwt beam="1">  1       -4 0.86900348E-01 0.10843860E+04</pdfrwt>
<totfact> 0.34111008E-01</totfact>
</mgrwt>
</event>
<event>
 8    1  0.2939692E-006  0.1240446E+04  0.7818608E-02  0.8579833E-01
          4   -1    0    0  502    0  0.00000000000E+00  0.00000000000E+00  0.18473170564E+04  0.18473170564E+04  0.00000000000E+00 0.  1.
         -4   -1    0    0    0  501 -0.00000000000E+00 -0.00000000000E+00 -0.92093822028E+03  0.92093822028E+03  0.00000000000E+00 0. -1.
   -9000010    2    1    2    0  501  0.23889761158E+03  0.68910413192E+03  0.20106703203E+02  0.12320149519E+04  0.99273359410E+03 0.  0.
    9000010    2    1    2  502    0 -0.23889761158E+03 -0.68910413192E+03  0.90627213295E+03  0.15362403248E+04  0.10033785841E+04 0.  0.
        -13    1    4    4    0    0  0.10593562614E+02 -0.88048032776E+03  0.46901430238E+03  0.99766339922E+03  0.10566000000E+00 0.  1.
          4    1    4    4  502    0 -0.24949117419E+03  0.19137619583E+03  0.43725783057E+03  0.53857692554E+03  0.00000000000E+00 0.  1.
         13    1    3    3    0    0 -0.35459902705E+03  0.39349408874E+03 -0.14409174407E+03  0.54894490592E+03  0.10566000000E+00 0. -1.
         -4    1    3    3    0  501  0.59349663863E+03  0.29561004318E+03  0.16419844727E+03  0.68307004603E+03  0.00000000000E+00 0. -1.
<mgrwt>
<rscale>  0 0.12361407E+04</rscale>
<asrwt>0</asrwt>
<pdfrwt beam="1">  1        4 0.28420262E+00 0.12404455E+04</pdfrwt>
<pdfrwt beam="2">  1       -4 0.14168280E+00 0.12318509E+04</pdfrwt>
<totfact> 0.18114454E-01</totfact>
</mgrwt>
</event>
<event>
 8    1  0.2939692E-006  0.1281246E+04  0.7818608E-02  0.8611001E-01
          4   -1    0    0  502    0  0.00000000000E+00  0.00000000000E+00  0.13570213872E+04  0.13570213872E+04  0.00000000000E+00 0.  1.
         -4   -1    0    0    0  501 -0.00000000000E+00 -0.00000000000E+00 -0.31236592276E+04  0.31236592276E+04  0.00000000000E+00 0. -1.
   -9000010    2    1    2    0  501  0.55111295191E+03 -0.49971484115E+02 -0.26835284753E+04  0.29051553008E+04  0.96559805755E+03 0.  0.
    9000010    2    1    2  502    0 -0.55111295191E+03  0.49971484115E+02  0.91689063502E+03  0.15755253140E+04  0.11555816473E+04 0.  0.
        -13    1    4    4    0    0 -0.12662634801E+03 -0.85684066119E+02  0.10876129894E+04  0.10983068866E+04  0.10566000000E+00 0.  1.
          4    1    4    4  502    0 -0.42448660390E+03  0.13565555023E+03 -0.17072235438E+03  0.47721842744E+03  0.00000000000E+00 0.  1.
         13    1    3    3    0    0 -0.18991708312E+02 -0.26972221933E+03 -0.17219423118E+03  0.32056454109E+03  0.10566000000E+00 0. -1.
         -4    1    3    3    0  501  0.57010466023E+03  0.21975073522E+03 -0.25113342442E+04  0.25845907597E+04  0.00000000000E+00 0. -1.
<mgrwt>
<rscale>  0 0.11941235E+04</rscale>
<asrwt>0</asrwt>
<pdfrwt beam="1">  1        4 0.20877252E+00 0.12812461E+04</pdfrwt>
<pdfrwt beam="2">  1       -4 0.48056295E+00 0.11129251E+04</pdfrwt>
<totfact> 0.19641170E-02</totfact>
</mgrwt>
</event>
<event>
 8    1  0.2939692E-006  0.1055584E+04  0.7818608E-02  0.8768359E-01
         -4   -1    0    0    0  501 -0.00000000000E+00  0.00000000000E+00  0.52204379104E+03  0.52204379104E+03  0.00000000000E+00 0. -1.
          4   -1    0    0  502    0  0.00000000000E+00 -0.00000000000E+00 -0.23082448998E+04  0.23082448998E+04  0.00000000000E+00 0.  1.
   -9000010    2    1    2    0  501  0.25666518508E+03  0.23320921032E+03 -0.29695747661E+03  0.10048833563E+04  0.89517778335E+03 0.  0.
    9000010    2    1    2  502    0 -0.25666518508E+03 -0.23320921032E+03 -0.14892436322E+04  0.18254053346E+04  0.99699272143E+03 0.  0.
        -13    1    4    4    0    0 -0.46170024549E+03  0.22992596780E+03 -0.97843129586E+03  0.11060564539E+04  0.10566000000E+00 0.  1.
          4    1    4    4  502    0  0.20503506041E+03 -0.46313517812E+03 -0.51081233633E+03  0.71934888070E+03  0.00000000000E+00 0.  1.
         13    1    3    3    0    0  0.31125857530E+03  0.29478110047E+03  0.21970157783E+03  0.48171214678E+03  0.10566000000E+00 0. -1.
         -4    1    3    3    0  501 -0.54593390220E+02 -0.61571890154E+02 -0.51665905444E+03  0.52317120950E+03  0.00000000000E+00 0. -1.
<mgrwt>
<rscale>  0 0.10066601E+04</rscale>
<asrwt>0</asrwt>
<pdfrwt beam="2">  1        4 0.35511460E+00 0.10555842E+04</pdfrwt>
<pdfrwt beam="1">  1       -4 0.80314429E-01 0.96000355E+03</pdfrwt>
<totfact> 0.31989079E-01</totfact>
</mgrwt>
</event>
<event>
 8    1  0.2939692E-006  0.1110799E+04  0.7818608E-02  0.8681801E-01
         -4   -1    0    0    0  501 -0.00000000000E+00  0.00000000000E+00  0.20962017002E+04  0.20962017002E+04  0.00000000000E+00 0. -1.
          4   -1    0    0  502    0  0.00000000000E+00 -0.00000000000E+00 -0.16198807301E+04  0.16198807301E+04  0.00000000000E+00 0.  1.
   -9000010    2    1    2    0  501  0.86962723719E+02 -0.44315982313E+03  0.17255457403E+04  0.20521655718E+04  0.10148508699E+04 0.  0.
    9000010    2    1    2  502    0 -0.86962723719E+02  0.44315982313E+03 -0.12492247702E+04  0.16639168584E+04  0.10020497199E+04 0.  0.
        -13    1    4    4    0    0 -0.16794978043E+03  0.56035806840E+01  0.13142163230E+03  0.21333116384E+03  0.10566000000E+00 0.  1.
          4    1    4    4  502    0  0.80987056716E+02  0.43755624245E+03 -0.13806464025E+04  0.14505856946E+04  0.00000000000E+00 0.  1.
         13    1    3    3    0    0  0.63354532704E+02 -0.32555109227E+03  0.93576744693E+01  0.33179042742E+03  0.10566000000E+00 0. -1.
         -4    1    3    3    0  501  0.23608191015E+02 -0.11760873086E+03  0.17161880658E+04  0.17203751444E+04  0.00000000000E+00 0. -1.
<mgrwt>
<rscale>  0 0.11049425E+04</rscale>
<asrwt>0</asrwt>
<pdfrwt beam="2">  1        4 0.24921242E+00 0.10991164E+04</pdfrwt>
<pdfrwt beam="1">  1       -4 0.32249257E+00 0.11107995E+04</pdfrwt>
<totfact> 0.66567528E-02</totfact>
</mgrwt>
</event>
<event>
 8    1  0.2939692E-006  0.1242260E+04  0.7818608E-02  0.8580335E-01
         -4   -1    0    0    0  501 -0.00000000000E+00  0.00000000000E+00  0.13147543597E+04  0.13147543597E+04  0.00000000000E+00 0. -1.
          4   -1    0    0  502    0  0.00000000000E+00 -0.00000000000E+00 -0.23552741212E+04  0.23552741212E+04  0.00000000000E+00 0.  1.
   -9000010    2    1    2    0  501  0.57725584965E+03 -0.45116425011E+03  0.78502479403E+03  0.14695152004E+04  0.10032135867E+04 0.  0.
    9000010    2    1    2  502    0 -0.57725584965E+03  0.45116425011E+03 -0.18255445555E+04  0.22005132805E+04  0.98634288000E+03 0.  0.
        -13    1    4    4    0    0  0.12877089718E+03  0.47667917869E+03 -0.99013216361E+03  0.11064206686E+04  0.10566000000E+00 0.  1.
          4    1    4    4  502    0 -0.70602674683E+03 -0.25514928588E+02 -0.83541239192E+03  0.10940926119E+04  0.00000000000E+00 0.  1.
         13    1    3    3    0    0  0.37544311578E+03 -0.19033933108E+03  0.99375224286E+03  0.10792266331E+04  0.10566000000E+00 0. -1.
         -4    1    3    3    0  501  0.20181273387E+03 -0.26082491902E+03 -0.20872744882E+03  0.39028856738E+03  0.00000000000E+00 0. -1.
<mgrwt>
<rscale>  0 0.12354498E+04</rscale>
<asrwt>0</asrwt>
<pdfrwt beam="2">  1        4 0.36234986E+00 0.12286764E+04</pdfrwt>
<pdfrwt beam="1">  1       -4 0.20226991E+00 0.12422604E+04</pdfrwt>
<totfact> 0.64475171E-02</totfact>
</mgrwt>
</event>
<event>
 8    1  0.2939692E-006  0.1444381E+04  0.7818608E-02  0.8444322E-01
         -4   -1    0    0    0  501 -0.00000000000E+00  0.00000000000E+00  0.27843197446E+04  0.27843197446E+04  0.00000000000E+00 0. -1.
          4   -1    0    0  502    0  0.00000000000E+00 -0.00000000000E+00 -0.11909374801E+04  0.11909374801E+04  0.00000000000E+00 0.  1.
   -9000010    2    1    2    0  501 -0.10057967529E+04  0.24455042707E+03  0.20107843882E+04  0.24717744262E+04  0.99748831505E+03 0.  0.
    9000010    2    1    2  502    0  0.10057967529E+04 -0.24455042707E+03 -0.41740212369E+03  0.15034827985E+04  0.10073747927E+04 0.  0.
        -13    1    4    4    0    0  0.11174045895E+04 -0.45463377661E+03 -0.34086758812E+03  0.12535851033E+04  0.10566000000E+00 0.  1.
          4    1    4    4  502    0 -0.11160783658E+03  0.21008334954E+03 -0.76534535572E+02  0.24989769522E+03  0.00000000000E+00 0.  1.
         13    1    3    3    0    0 -0.11074402042E+04  0.43643047279E+03  0.18567765178E+04  0.22055644203E+04  0.10566000000E+00 0. -1.
         -4    1    3    3    0  501  0.10164345130E+03 -0.19188004573E+03  0.15400787037E+03  0.26621000596E+03  0.00000000000E+00 0. -1.
<mgrwt>
<rscale>  0 0.14409378E+04</rscale>
<asrwt>0</asrwt>
<pdfrwt beam="2">  1        4 0.18322115E+00 0.14443808E+04</pdfrwt>
<pdfrwt beam="1">  1       -4 0.42835688E+00 0.14375030E+04</pdfrwt>
<totfact> 0.39595667E-02</totfact>
</mgrwt>
</event>
<event>
 8    1  0.2939692E-006  0.1071031E+04  0.7818608E-02  0.8720302E-01
         -4   -1    0    0    0  501 -0.00000000000E+00  0.00000000000E+00  0.21120331758E+04  0.21120331758E+04  0.00000000000E+00 0. -1.
          4   -1    0    0  502    0  0.00000000000E+00 -0.00000000000E+00 -0.74187791804E+03  0.74187791804E+03  0.00000000000E+00 0.  1.
   -9000010    2    1    2    0  501  0.28184677109E+03 -0.13179403007E+03  0.14390345338E+04  0.17806673268E+04  0.10015729981E+04 0.  0.
    9000010    2    1    2  502    0 -0.28184677109E+03  0.13179403007E+03 -0.68879276056E+02  0.10732437670E+04  0.10248417244E+04 0.  0.
        -13    1    4    4    0    0  0.35342428512E+03 -0.12698004495E+03 -0.92921316816E+02  0.38686824554E+03  0.10566000000E+00 0.  1.
          4    1    4    4  502    0 -0.63527105621E+03  0.25877407501E+03  0.24042040761E+02  0.68637552148E+03  0.00000000000E+00 0.  1.
         13    1    3    3    0    0  0.25905322407E+03  0.38138459214E+03  0.10141678885E+04  0.11140463623E+04  0.10566000000E+00 0. -1.
         -4    1    3    3    0  501  0.22793547027E+02 -0.51317862221E+03  0.42486664528E+03  0.66662096453E+03  0.00000000000E+00 0. -1.
<mgrwt>
<rscale>  0 0.10598511E+04</rscale>
<asrwt>0</asrwt>
<pdfrwt beam="2">  1        4 0.11413507E+00 0.10710312E+04</pdfrwt>
<pdfrwt beam="1">  1       -4 0.32492818E+00 0.10487877E+04</pdfrwt>
<totfact> 0.20132555E-01</totfact>
</mgrwt>
</event>
<event>
 8    1  0.2939692E-006  0.1227637E+04  0.7818608E-02  0.8588704E-01
         -4   -1    0    0    0  501 -0.00000000000E+00  0.00000000000E+00  0.29050927932E+04  0.29050927932E+04  0.00000000000E+00 0. -1.
          4   -1    0    0  502    0  0.00000000000E+00 -0.00000000000E+00 -0.13504020462E+04  0.13504020462E+04  0.00000000000E+00 0.  1.
   -9000010    2    1    2    0  501 -0.60102462800E+03 -0.37437139862E+03  0.24510484850E+04  0.27413008756E+04  0.10028495735E+04 0.  0.
    9000010    2    1    2  502    0  0.60102462800E+03  0.37437139862E+03 -0.89635773797E+03  0.15141939638E+04  0.99395252300E+03 0.  0.
        -13    1    4    4    0    0  0.95605646893E+02  0.55817488099E+03 -0.13521413093E+03  0.58222204514E+03  0.10566000000E+00 0.  1.
          4    1    4    4  502    0  0.50541898111E+03 -0.18380348237E+03 -0.76114360704E+03  0.93197191864E+03  0.00000000000E+00 0.  1.
         13    1    3    3    0    0  0.18216459368E+03 -0.50277222399E+02  0.50642569590E+02  0.19564360276E+03  0.10566000000E+00 0. -1.
         -4    1    3    3    0  501 -0.78318922168E+03 -0.32409417622E+03  0.24004059154E+04  0.25456572728E+04  0.00000000000E+00 0. -1.
<mgrwt>
<rscale>  0 0.12240027E+04</rscale>
<asrwt>0</asrwt>
<pdfrwt beam="2">  1        4 0.20775416E+00 0.12203795E+04</pdfrwt>
<pdfrwt beam="1">  1       -4 0.44693735E+00 0.12276367E+04</pdfrwt>
<totfact> 0.28240806E-02</totfact>
</mgrwt>
</event>
<event>
 8    1  0.2939692E-006  0.1268223E+04  0.7818608E-02  0.8573287E-01
          4   -1    0    0  502    0  0.00000000000E+00  0.00000000000E+00  0.91039625550E+03  0.91039625550E+03  0.00000000000E+00 0.  1.
         -4   -1    0    0    0  501 -0.00000000000E+00 -0.00000000000E+00 -0.24905573938E+04  0.24905573938E+04  0.00000000000E+00 0. -1.
   -9000010    2    1    2    0  501  0.76401153765E+03  0.19654906265E+03 -0.17358863542E+04  0.21232053127E+04  0.93399903721E+03 0.  0.
    9000010    2    1    2  502    0 -0.76401153765E+03 -0.19654906265E+03  0.15572521588E+03  0.12777483366E+04  0.99299813956E+03 0.  0.
        -13    1    4    4    0    0 -0.68985193749E+03 -0.38288002265E+03  0.46003092960E+03  0.91330240050E+03  0.10566000000E+00 0.  1.
          4    1    4    4  502    0 -0.74159600157E+02  0.18633096000E+03 -0.30430571372E+03  0.36444593612E+03  0.00000000000E+00 0.  1.
         13    1    3    3    0    0  0.80266974551E+03  0.51610026180E+01 -0.68771729403E+03  0.10570054134E+04  0.10566000000E+00 0. -1.
         -4    1    3    3    0  501 -0.38658207861E+02  0.19138806003E+03 -0.10481690602E+04  0.10661998993E+04  0.00000000000E+00 0. -1.
<mgrwt>
<rscale>  0 0.12451920E+04</rscale>
<asrwt>0</asrwt>
<pdfrwt beam="1">  1        4 0.14006096E+00 0.12682234E+04</pdfrwt>
<pdfrwt beam="2">  1       -4 0.38316268E+00 0.12225790E+04</pdfrwt>
<totfact> 0.90524637E-02</totfact>
</mgrwt>
</event>
<event>
 8    1  0.2939692E-006  0.1156383E+04  0.7818608E-02  0.8653887E-01
          4   -1    0    0  502    0  0.00000000000E+00  0.00000000000E+00  0.18394700889E+04  0.18394700889E+04  0.00000000000E+00 0.  1.
         -4   -1    0    0    0  501 -0.00000000000E+00 -0.00000000000E+00 -0.11654914314E+04  0.11654914314E+04  0.00000000000E+00 0. -1.
   -9000010    2    1    2    0  501  0.29037079607E+03 -0.41584051524E+03 -0.60986747416E+03  0.12771066877E+04  0.10009118954E+04 0.  0.
    9000010    2    1    2  502    0 -0.29037079607E+03  0.41584051524E+03  0.12838461316E+04  0.17278548326E+04  0.10392222571E+04 0.  0.
        -13    1    4    4    0    0 -0.88379741692E+02 -0.26377962302E+02  0.12358926129E+04  0.12393293902E+04  0.10566000000E+00 0.  1.
          4    1    4    4  502    0 -0.20199105437E+03  0.44221847754E+03  0.47953518702E+02  0.48852544241E+03  0.00000000000E+00 0.  1.
         13    1    3    3    0    0  0.36300684724E+03 -0.66365099792E+03 -0.67163827772E+03  0.10115851944E+04  0.10566000000E+00 0. -1.
         -4    1    3    3    0  501 -0.72636051173E+02  0.24781048268E+03  0.61770803565E+02  0.26552149335E+03  0.00000000000E+00 0. -1.
<mgrwt>
<rscale>  0 0.11391023E+04</rscale>
<asrwt>0</asrwt>
<pdfrwt beam="1">  1        4 0.28299540E+00 0.11563829E+04</pdfrwt>
<pdfrwt beam="2">  1       -4 0.17930637E+00 0.11220798E+04</pdfrwt>
<totfact> 0.13080794E-01</totfact>
</mgrwt>
</event>
<event>
 8    1  0.2939692E-006  0.1150513E+04  0.7818608E-02  0.8661271E-01
          4   -1    0    0  502    0  0.00000000000E+00  0.00000000000E+00  0.17073823604E+04  0.17073823604E+04  0.00000000000E+00 0.  1.
         -4   -1    0    0    0  501 -0.00000000000E+00 -0.00000000000E+00 -0.16977688766E+04  0.16977688766E+04  0.00000000000E+00 0. -1.
   -9000010    2    1    2    0  501  0.11021204374E+03 -0.58500030454E+03 -0.12684719894E+04  0.17125128724E+04  0.98453395043E+03 0.  0.
    9000010    2    1    2  502    0 -0.11021204374E+03  0.58500030454E+03  0.12780854732E+04  0.16926383645E+04  0.93656292124E+03 0.  0.
        -13    1    4    4    0    0  0.15933546175E+03  0.28516642204E+03 -0.25956312465E+02  0.32769104191E+03  0.10566000000E+00 0.  1.
          4    1    4    4  502    0 -0.26954750549E+03  0.29983388251E+03  0.13040417856E+04  0.13649473226E+04  0.00000000000E+00 0.  1.
         13    1    3    3    0    0  0.33164464624E+03  0.79591722493E+02 -0.10935944396E+03  0.35816548245E+03  0.10566000000E+00 0. -1.
         -4    1    3    3    0  501 -0.22143260250E+03 -0.66459202704E+03 -0.11591125454E+04  0.13543473900E+04  0.00000000000E+00 0. -1.
<mgrwt>
<rscale>  0 0.11299422E+04</rscale>
<asrwt>0</asrwt>
<pdfrwt beam="1">  1        4 0.26267421E+00 0.11097397E+04</pdfrwt>
<pdfrwt beam="2">  1       -4 0.26119521E+00 0.11505126E+04</pdfrwt>
<totfact> 0.89207619E-02</totfact>
</mgrwt>
</event>
<event>
 8    1  0.2939692E-006  0.1059882E+04  0.7818608E-02  0.8721282E-01
         -4   -1    0    0    0  501 -0.00000000000E+00  0.00000000000E+00  0.11520412296E+04  0.11520412296E+04  0.00000000000E+00 0. -1.
          4   -1    0    0  502    0  0.00000000000E+00 -0.00000000000E+00 -0.19321999839E+04  0.19321999839E+04  0.00000000000E+00 0.  1.
   -9000010    2    1    2    0  501  0.58205605111E+02 -0.35156562678E+03  0.69668639610E+03  0.12664341639E+04  0.99573956163E+03 0.  0.
    9000010    2    1    2  502    0 -0.58205605111E+02  0.35156562678E+03 -0.14768451504E+04  0.18178070497E+04  0.99818063953E+03 0.  0.
        -13    1    4    4    0    0  0.32081838501E+03  0.77544144816E+02 -0.72906845498E+02  0.33801323915E+03  0.10566000000E+00 0.  1.
          4    1    4    4  502    0 -0.37902399012E+03  0.27402148197E+03 -0.14039383049E+04  0.14797938105E+04  0.00000000000E+00 0.  1.
         13    1    3    3    0    0 -0.20853854504E+03 -0.45810833265E+03 -0.10173825912E+02  0.50344323127E+03  0.10566000000E+00 0. -1.
         -4    1    3    3    0  501  0.26674415015E+03  0.10654270587E+03  0.70686022201E+03  0.76299093263E+03  0.00000000000E+00 0. -1.
<mgrwt>
<rscale>  0 0.10587325E+04</rscale>
<asrwt>0</asrwt>
<pdfrwt beam="2">  1        4 0.29726153E+00 0.10598825E+04</pdfrwt>
<pdfrwt beam="1">  1       -4 0.17723711E+00 0.10575838E+04</pdfrwt>
<totfact> 0.12257482E-01</totfact>
</mgrwt>
</event>
<event>
 8    1  0.2939692E-006  0.1043038E+04  0.7818608E-02  0.8758354E-01
         -4   -1    0    0    0  501 -0.00000000000E+00  0.00000000000E+00  0.26557586492E+04  0.26557586492E+04  0.00000000000E+00 0. -1.
          4   -1    0    0  502    0  0.00000000000E+00 -0.00000000000E+00 -0.59990782353E+03  0.59990782353E+03  0.00000000000E+00 0.  1.
   -9000010    2    1    2    0  501  0.10998185397E+03  0.12292406620E+03  0.19739393228E+04  0.22094168574E+04  0.97871347469E+03 0.  0.
    9000010    2    1    2  502    0 -0.10998185397E+03 -0.12292406620E+03  0.81911502872E+02  0.10462496153E+04  0.10299137969E+04 0.  0.
        -13    1    4    4    0    0 -0.53026637280E+02 -0.26127320961E+03  0.51943284032E+03  0.58385443484E+03  0.10566000000E+00 0.  1.
          4    1    4    4  502    0 -0.56955216686E+02  0.13834914340E+03 -0.43752133744E+03  0.46239518045E+03  0.00000000000E+00 0.  1.
         13    1    3    3    0    0 -0.30836636640E+03 -0.23270970787E+03  0.47009530594E+03  0.60846793826E+03  0.10566000000E+00 0. -1.
         -4    1    3    3    0  501  0.41834822036E+03  0.35563377407E+03  0.15038440169E+04  0.16009489192E+04  0.00000000000E+00 0. -1.
<mgrwt>
<rscale>  0 0.10174632E+04</rscale>
<asrwt>0</asrwt>
<pdfrwt beam="2">  1        4 0.92293513E-01 0.10430382E+04</pdfrwt>
<pdfrwt beam="1">  1       -4 0.40857825E+00 0.99251519E+03</pdfrwt>
<totfact> 0.15254304E-01</totfact>
</mgrwt>
</event>
<event>
 8    1  0.2939692E-006  0.1352384E+04  0.7818608E-02  0.8546171E-01
         -4   -1    0    0    0  501 -0.00000000000E+00  0.00000000000E+00  0.21931442963E+04  0.21931442963E+04  0.00000000000E+00 0. -1.
          4   -1    0    0  502    0  0.00000000000E+00 -0.00000000000E+00 -0.21512706066E+04  0.21512706066E+04  0.00000000000E+00 0.  1.
   -9000010    2    1    2    0  501  0.70230474101E+03  0.59676557066E+03  0.17708141047E+04  0.21493799618E+04  0.79667467072E+03 0.  0.
    9000010    2    1    2  502    0 -0.70230474101E+03 -0.59676557066E+03 -0.17289404150E+04  0.21950349411E+04  0.98973852026E+03 0.  0.
        -13    1    4    4    0    0  0.79212101225E+02 -0.40217254523E+03 -0.10977665007E+04  0.11717971729E+04  0.10566000000E+00 0.  1.
          4    1    4    4  502    0 -0.78151684224E+03 -0.19459302544E+03 -0.63117391429E+03  0.10232377682E+04  0.00000000000E+00 0.  1.
         13    1    3    3    0    0  0.61053525746E+03  0.16225487659E+03  0.50765472917E+03  0.81042783812E+03  0.10566000000E+00 0. -1.
         -4    1    3    3    0  501  0.91769483548E+02  0.43451069407E+03  0.12631593755E+04  0.13389521236E+04  0.00000000000E+00 0. -1.
<mgrwt>
<rscale>  0 0.12835486E+04</rscale>
<asrwt>0</asrwt>
<pdfrwt beam="2">  1        4 0.33096471E+00 0.13523844E+04</pdfrwt>
<pdfrwt beam="1">  1       -4 0.33740682E+00 0.12182166E+04</pdfrwt>
<totfact> 0.36087286E-02</totfact>
</mgrwt>
</event>
<event>
 8    1  0.2939692E-006  0.1394734E+04  0.7818608E-02  0.8527057E-01
         -4   -1    0    0    0  501 -0.00000000000E+00  0.00000000000E+00  0.31320994695E+04  0.31320994695E+04  0.00000000000E+00 0. -1.
          4   -1    0    0  502    0  0.00000000000E+00 -0.00000000000E+00 -0.92633857898E+03  0.92633857898E+03  0.00000000000E+00 0.  1.
   -9000010    2    1    2    0  501 -0.33159516175E+03  0.63889400799E+03  0.23524062218E+04  0.26560154664E+04  0.10012303534E+04 0.  0.
    9000010    2    1    2  502    0  0.33159516175E+03 -0.63889400799E+03 -0.14664533128E+03  0.14024225821E+04  0.11946310480E+04 0.  0.
        -13    1    4    4    0    0  0.55804075931E+03 -0.83555650122E+02 -0.45794789670E+03  0.72670993042E+03  0.10566000000E+00 0.  1.
          4    1    4    4  502    0 -0.22644559757E+03 -0.55533835787E+03  0.31130256542E+03  0.67571265166E+03  0.00000000000E+00 0.  1.
         13    1    3    3    0    0  0.21740920591E+03 -0.68430526595E+02  0.10569057262E+04  0.10812026753E+04  0.10566000000E+00 0. -1.
         -4    1    3    3    0  501 -0.54900436766E+03  0.70732453459E+03  0.12955004956E+04  0.15748127911E+04  0.00000000000E+00 0. -1.
<mgrwt>
<rscale>  0 0.13114440E+04</rscale>
<asrwt>0</asrwt>
<pdfrwt beam="2">  1        4 0.14251363E+00 0.13947345E+04</pdfrwt>
<pdfrwt beam="1">  1       -4 0.48186145E+00 0.12331274E+04</pdfrwt>
<totfact> 0.32589783E-02</totfact>
</mgrwt>
</event>
<event>
 8    1  0.2939692E-006  0.1084273E+04  0.7818608E-02  0.8708925E-01
         -4   -1    0    0    0  501 -0.00000000000E+00  0.00000000000E+00  0.10205870821E+04  0.10205870821E+04  0.00000000000E+00 0. -1.
          4   -1    0    0  502    0  0.00000000000E+00 -0.00000000000E+00 -0.16647672592E+04  0.16647672592E+04  0.00000000000E+00 0.  1.
   -9000010    2    1    2    0  501  0.34902509110E+03  0.19569399107E+03  0.44251343474E+03  0.11502482327E+04  0.98343185044E+03 0.  0.
    9000010    2    1    2  502    0 -0.34902509110E+03 -0.19569399107E+03 -0.10866936118E+04  0.15351061086E+04  0.10077366256E+04 0.  0.
        -13    1    4    4    0    0 -0.18678787101E+03 -0.29329685890E+03 -0.12422913587E+04  0.12900389867E+04  0.10566000000E+00 0.  1.
          4    1    4    4  502    0 -0.16223722010E+03  0.97602867834E+02  0.15559774692E+03  0.24506712191E+03  0.00000000000E+00 0.  1.
         13    1    3    3    0    0  0.29565036774E+03  0.49129446765E+03 -0.47647206538E+02  0.57536915224E+03  0.10566000000E+00 0. -1.
         -4    1    3    3    0  501  0.53374723359E+02 -0.29560047658E+03  0.49016064128E+03  0.57487908042E+03  0.00000000000E+00 0. -1.
<mgrwt>
<rscale>  0 0.10729380E+04</rscale>
<asrwt>0</asrwt>
<pdfrwt beam="2">  1        4 0.25611804E+00 0.10842729E+04</pdfrwt>
<pdfrwt beam="1">  1       -4 0.15701340E+00 0.10617216E+04</pdfrwt>
<totfact> 0.18327494E-01</totfact>
</mgrwt>
</event>
<event>
 8    1  0.2939692E-006  0.1084693E+04  0.7818608E-02  0.8709285E-01
         -4   -1    0    0    0  501 -0.00000000000E+00  0.00000000000E+00  0.24066854359E+04  0.24066854359E+04  0.00000000000E+00 0. -1.
          4   -1    0    0  502    0  0.00000000000E+00 -0.00000000000E+00 -0.70479658155E+03  0.70479658155E+03  0.00000000000E+00 0.  1.
   -9000010    2    1    2    0  501 -0.27779011656E+03  0.32434191086E+03  0.17398970059E+04  0.20503169102E+04  0.99709218097E+03 0.  0.
    9000010    2    1    2  502    0  0.27779011656E+03 -0.32434191086E+03 -0.38008151578E+02  0.10611651072E+04  0.97070167459E+03 0.  0.
        -13    1    4    4    0    0  0.51979118370E+03 -0.70797588618E+02  0.27406652360E+03  0.59186792761E+03  0.10566000000E+00 0.  1.
          4    1    4    4  502    0 -0.24200106714E+03 -0.25354432224E+03 -0.31207467518E+03  0.46929717954E+03  0.00000000000E+00 0.  1.
         13    1    3    3    0    0 -0.57699071226E+03  0.35971811314E+03  0.15541444851E+04  0.16963727464E+04  0.10566000000E+00 0. -1.
         -4    1    3    3    0  501  0.29920059569E+03 -0.35376202279E+02  0.18575252078E+03  0.35394416386E+03  0.00000000000E+00 0. -1.
<mgrwt>
<rscale>  0 0.10725201E+04</rscale>
<asrwt>0</asrwt>
<pdfrwt beam="2">  1        4 0.10843024E+00 0.10604842E+04</pdfrwt>
<pdfrwt beam="1">  1       -4 0.37025929E+00 0.10846925E+04</pdfrwt>
<totfact> 0.15648902E-01</totfact>
</mgrwt>
</event>
<event>
 8    1  0.2939692E-006  0.1186109E+04  0.7818608E-02  0.8621011E-01
         -4   -1    0    0    0  501 -0.00000000000E+00  0.00000000000E+00  0.16487510245E+04  0.16487510245E+04  0.00000000000E+00 0. -1.
          4   -1    0    0  502    0  0.00000000000E+00 -0.00000000000E+00 -0.18800453957E+04  0.18800453957E+04  0.00000000000E+00 0.  1.
   -9000010    2    1    2    0  501  0.59796402096E+03  0.24173718070E+03  0.11926722760E+04  0.16820587279E+04  0.99541778738E+03 0.  0.
    9000010    2    1    2  502    0 -0.59796402096E+03 -0.24173718070E+03 -0.14239666472E+04  0.18467376923E+04  0.98324018272E+03 0.  0.
        -13    1    4    4    0    0 -0.69158468630E+03 -0.47674521040E+03 -0.13375114491E+04  0.15794025014E+04  0.10566000000E+00 0.  1.
          4    1    4    4  502    0  0.93620665345E+02  0.23500802970E+03 -0.86455198170E+02  0.26733519090E+03  0.00000000000E+00 0.  1.
         13    1    3    3    0    0  0.39679099330E+03  0.62723852042E+03  0.64944764310E+03  0.98623197380E+03  0.10566000000E+00 0. -1.
         -4    1    3    3    0  501  0.20117302766E+03 -0.38550133972E+03  0.54322463290E+03  0.69582675414E+03  0.00000000000E+00 0. -1.
<mgrwt>
<rscale>  0 0.11809973E+04</rscale>
<asrwt>0</asrwt>
<pdfrwt beam="2">  1        4 0.28923775E+00 0.11759078E+04</pdfrwt>
<pdfrwt beam="1">  1       -4 0.25365400E+00 0.11861089E+04</pdfrwt>
<totfact> 0.79521196E-02</totfact>
</mgrwt>
</event>
<event>
 8    1  0.2939692E-006  0.1284142E+04  0.7818608E-02  0.8558082E-01
          4   -1    0    0  502    0  0.00000000000E+00  0.00000000000E+00  0.20275404377E+04  0.20275404377E+04  0.00000000000E+00 0.  1.
         -4   -1    0    0    0  501 -0.00000000000E+00 -0.00000000000E+00 -0.13453529156E+04  0.13453529156E+04  0.00000000000E+00 0. -1.
   -9000010    2    1    2    0  501  0.77635187085E+03 -0.16306449893E+03 -0.73832888351E+03  0.14812666576E+04  0.10098064728E+04 0.  0.
    9000010    2    1    2  502    0 -0.77635187085E+03  0.16306449893E+03  0.14205164056E+04  0.18916266956E+04  0.96492094956E+03 0.  0.
        -13    1    4    4    0    0 -0.81079607216E+03  0.39996380924E+03  0.73385735601E+03  0.11644346051E+04  0.10566000000E+00 0.  1.
          4    1    4    4  502    0  0.34444201306E+02 -0.23689931030E+03  0.68665904960E+03  0.72719209059E+03  0.00000000000E+00 0.  1.
         13    1    3    3    0    0  0.16437637925E+03 -0.43609566099E+02  0.25616027270E+03  0.30747273828E+03  0.10566000000E+00 0. -1.
         -4    1    3    3    0  501  0.61197549160E+03 -0.11945493283E+03 -0.99448915621E+03  0.11737939194E+04  0.00000000000E+00 0. -1.
<mgrwt>
<rscale>  0 0.12665271E+04</rscale>
<asrwt>0</asrwt>
<pdfrwt beam="1">  1        4 0.31192930E+00 0.12491536E+04</pdfrwt>
<pdfrwt beam="2">  1       -4 0.20697737E+00 0.12841423E+04</pdfrwt>
<totfact> 0.89564922E-02</totfact>
</mgrwt>
</event>
<event>
 8    1  0.2939692E-006  0.1106736E+04  0.7818608E-02  0.8680538E-01
         -4   -1    0    0    0  501 -0.00000000000E+00  0.00000000000E+00  0.11899103697E+04  0.11899103697E+04  0.00000000000E+00 0. -1.
          4   -1    0    0  502    0  0.00000000000E+00 -0.00000000000E+00 -0.13079848962E+04  0.13079848962E+04  0.00000000000E+00 0.  1.
   -9000010    2    1    2    0  501 -0.13503008343E+03  0.44761469683E+03  0.51792508097E+03  0.12214316649E+04  0.10025252527E+04 0.  0.
    9000010    2    1    2  502    0  0.13503008343E+03 -0.44761469683E+03 -0.63599960744E+03  0.12764636009E+04  0.10031309902E+04 0.  0.
        -13    1    4    4    0    0 -0.28011156572E+03 -0.60171715136E+03 -0.39315836445E+03  0.77142694417E+03  0.10566000000E+00 0.  1.
          4    1    4    4  502    0  0.41514164914E+03  0.15410245453E+03 -0.24284124299E+03  0.50503665673E+03  0.00000000000E+00 0.  1.
         13    1    3    3    0    0 -0.24594551643E+03  0.55643881688E+03 -0.70865004096E+02  0.61248282747E+03  0.10566000000E+00 0. -1.
         -4    1    3    3    0  501  0.11091543300E+03 -0.10882412005E+03  0.58879008506E+03  0.60894883746E+03  0.00000000000E+00 0. -1.
<mgrwt>
<rscale>  0 0.11064611E+04</rscale>
<asrwt>0</asrwt>
<pdfrwt beam="2">  1        4 0.20122844E+00 0.11067357E+04</pdfrwt>
<pdfrwt beam="1">  1       -4 0.18306313E+00 0.11061867E+04</pdfrwt>
<totfact> 0.20275176E-01</totfact>
</mgrwt>
</event>
<event>
 8    1  0.2939692E-006  0.1230406E+04  0.7818608E-02  0.8588589E-01
         -4   -1    0    0    0  501 -0.00000000000E+00  0.00000000000E+00  0.91883205072E+03  0.91883205072E+03  0.00000000000E+00 0. -1.
          4   -1    0    0  502    0  0.00000000000E+00 -0.00000000000E+00 -0.17194128578E+04  0.17194128578E+04  0.00000000000E+00 0.  1.
   -9000010    2    1    2    0  501  0.68218816393E+03  0.90519799275E+02 -0.99217463352E+02  0.12219788096E+04  0.10048948109E+04 0.  0.
    9000010    2    1    2  502    0 -0.68218816393E+03 -0.90519799275E+02 -0.70136334372E+03  0.14162660989E+04  0.10199630376E+04 0.  0.
        -13    1    4    4    0    0 -0.85012947707E+03 -0.19557971719E+03 -0.80993903688E+03  0.11903666696E+04  0.10566000000E+00 0.  1.
          4    1    4    4  502    0  0.16794131314E+03  0.10505991792E+03  0.10857569316E+03  0.22589942930E+03  0.00000000000E+00 0.  1.
         13    1    3    3    0    0  0.91938458756E+03  0.19027576255E+03 -0.17215676472E+03  0.95452126664E+03  0.10566000000E+00 0. -1.
         -4    1    3    3    0  501 -0.23719642363E+03 -0.99755963276E+02  0.72939301367E+02  0.26745754294E+03  0.00000000000E+00 0. -1.
<mgrwt>
<rscale>  0 0.12241593E+04</rscale>
<asrwt>0</asrwt>
<pdfrwt beam="2">  1        4 0.26452505E+00 0.12304061E+04</pdfrwt>
<pdfrwt beam="1">  1       -4 0.14135878E+00 0.12179442E+04</pdfrwt>
<totfact> 0.20342223E-01</totfact>
</mgrwt>
</event>
<event>
 8    1  0.2939692E-006  0.2562725E+04  0.7818608E-02  0.7972961E-01
          4   -1    0    0  502    0  0.00000000000E+00  0.00000000000E+00  0.20084898990E+04  0.20084898990E+04  0.00000000000E+00 0.  1.
         -4   -1    0    0    0  501 -0.00000000000E+00 -0.00000000000E+00 -0.33885117602E+04  0.33885117602E+04  0.00000000000E+00 0. -1.
   -9000010    2    1    2    0  501  0.36680536186E+03 -0.23217453746E+04 -0.12206753083E+04  0.28293274064E+04  0.99498623432E+03 0.  0.
    9000010    2    1    2  502    0 -0.36680536186E+03  0.23217453746E+04 -0.15934655287E+03  0.25676742528E+04  0.10210347628E+04 0.  0.
        -13    1    4    4    0    0  0.21190602962E+03  0.27051126936E+03  0.21271086109E+03  0.40413665242E+03  0.10566000000E+00 0.  1.
          4    1    4    4  502    0 -0.57871139148E+03  0.20512341052E+04 -0.37205741396E+03  0.21635376004E+04  0.00000000000E+00 0.  1.
         13    1    3    3    0    0  0.52678455163E+03 -0.11289207299E+04 -0.22194532933E+03  0.12653946889E+04  0.10566000000E+00 0. -1.
         -4    1    3    3    0  501 -0.15997918977E+03 -0.11928246446E+04 -0.99872997893E+03  0.15639327175E+04  0.00000000000E+00 0. -1.
<mgrwt>
<rscale>  0 0.25575867E+04</rscale>
<asrwt>0</asrwt>
<pdfrwt beam="1">  1        4 0.30899845E+00 0.25627251E+04</pdfrwt>
<pdfrwt beam="2">  1       -4 0.52130950E+00 0.25524587E+04</pdfrwt>
<totfact> 0.60892327E-03</totfact>
</mgrwt>
</event>
<event>
 8    1  0.2939692E-006  0.1283522E+04  0.7818608E-02  0.8559263E-01
          4   -1    0    0  502    0  0.00000000000E+00  0.00000000000E+00  0.12442879180E+04  0.12442879180E+04  0.00000000000E+00 0.  1.
         -4   -1    0    0    0  501 -0.00000000000E+00 -0.00000000000E+00 -0.25552958556E+04  0.25552958556E+04  0.00000000000E+00 0. -1.
   -9000010    2    1    2    0  501  0.14545869992E+03  0.72144140277E+03 -0.19992032533E+04  0.23757611807E+04  0.10515662645E+04 0.  0.
    9000010    2    1    2  502    0 -0.14545869992E+03 -0.72144140277E+03  0.68819531577E+03  0.14238225929E+04  0.10059930677E+04 0.  0.
        -13    1    4    4    0    0 -0.41353533882E+03 -0.56600629189E+03  0.36177936170E+02  0.70191413516E+03  0.10566000000E+00 0.  1.
          4    1    4    4  502    0  0.26807663890E+03 -0.15543511087E+03  0.65201737961E+03  0.72190845772E+03  0.00000000000E+00 0.  1.
         13    1    3    3    0    0 -0.35920183805E+03  0.33030203008E+03 -0.14621680830E+04  0.15414476655E+04  0.10566000000E+00 0. -1.
         -4    1    3    3    0  501  0.50466053797E+03  0.39113937269E+03 -0.53703517039E+03  0.83431351523E+03  0.00000000000E+00 0. -1.
<mgrwt>
<rscale>  0 0.12648541E+04</rscale>
<asrwt>0</asrwt>
<pdfrwt beam="1">  1        4 0.19142891E+00 0.12464582E+04</pdfrwt>
<pdfrwt beam="2">  1       -4 0.39312243E+00 0.12835215E+04</pdfrwt>
<totfact> 0.52853638E-02</totfact>
</mgrwt>
</event>
<event>
 8    1  0.2939692E-006  0.1418947E+04  0.7818608E-02  0.8472137E-01
          4   -1    0    0  502    0  0.00000000000E+00  0.00000000000E+00  0.10443320100E+04  0.10443320100E+04  0.00000000000E+00 0.  1.
         -4   -1    0    0    0  501 -0.00000000000E+00 -0.00000000000E+00 -0.23343477395E+04  0.23343477395E+04  0.00000000000E+00 0. -1.
   -9000010    2    1    2    0  501 -0.95888729854E+01  0.94864968503E+03 -0.13931640068E+04  0.19559882115E+04  0.99244937515E+03 0.  0.
    9000010    2    1    2  502    0  0.95888729854E+01 -0.94864968503E+03  0.10314827725E+03  0.14226915380E+04  0.10551698791E+04 0.  0.
        -13    1    4    4    0    0 -0.48055472625E+03 -0.49230499246E+03 -0.15457522413E+03  0.70511740980E+03  0.10566000000E+00 0.  1.
          4    1    4    4  502    0  0.49014359924E+03 -0.45634469258E+03  0.25772350138E+03  0.71757412821E+03  0.00000000000E+00 0.  1.
         13    1    3    3    0    0  0.34478992159E+03 -0.15751409624E+02 -0.36958857746E+03  0.50569153116E+03  0.10566000000E+00 0. -1.
         -4    1    3    3    0  501 -0.35437879458E+03  0.96440109466E+03 -0.10235754293E+04  0.14502966803E+04  0.00000000000E+00 0. -1.
<mgrwt>
<rscale>  0 0.13957578E+04</rscale>
<asrwt>0</asrwt>
<pdfrwt beam="1">  1        4 0.16066647E+00 0.14189474E+04</pdfrwt>
<pdfrwt beam="2">  1       -4 0.35913042E+00 0.13729472E+04</pdfrwt>
<totfact> 0.89742063E-02</totfact>
</mgrwt>
</event>
<event>
 8    1  0.2939692E-006  0.1168173E+04  0.7818608E-02  0.8636779E-01
         -4   -1    0    0    0  501 -0.00000000000E+00  0.00000000000E+00  0.16667448256E+04  0.16667448256E+04  0.00000000000E+00 0. -1.
          4   -1    0    0  502    0  0.00000000000E+00 -0.00000000000E+00 -0.18072922207E+04  0.18072922207E+04  0.00000000000E+00 0.  1.
   -9000010    2    1    2    0  501  0.23202126797E+03  0.50285673017E+03  0.12213521173E+04  0.16797687625E+04  0.10115450269E+04 0.  0.
    9000010    2    1    2  502    0 -0.23202126797E+03 -0.50285673017E+03 -0.13618995123E+04  0.17942682837E+04  0.10285570632E+04 0.  0.
        -13    1    4    4    0    0 -0.32190348055E+03 -0.74575860458E+03 -0.12918011029E+04  0.15259514565E+04  0.10566000000E+00 0.  1.
          4    1    4    4  502    0  0.89882212579E+02  0.24290187441E+03 -0.70098409467E+02  0.26831682716E+03  0.00000000000E+00 0.  1.
         13    1    3    3    0    0  0.12201886505E+03 -0.15150959824E+03  0.93849988452E+03  0.95844968892E+03  0.10566000000E+00 0. -1.
         -4    1    3    3    0  501  0.11000240292E+03  0.65436632840E+03  0.28285223274E+03  0.72131907362E+03  0.00000000000E+00 0. -1.
<mgrwt>
<rscale>  0 0.11606737E+04</rscale>
<asrwt>0</asrwt>
<pdfrwt beam="2">  1        4 0.27804495E+00 0.11681731E+04</pdfrwt>
<pdfrwt beam="1">  1       -4 0.25642228E+00 0.11532225E+04</pdfrwt>
<totfact> 0.83883962E-02</totfact>
</mgrwt>
</event>
<event>
 8    1  0.2939692E-006  0.1512613E+04  0.7818608E-02  0.8409604E-01
         -4   -1    0    0    0  501 -0.00000000000E+00  0.00000000000E+00  0.23199265595E+04  0.23199265595E+04  0.00000000000E+00 0. -1.
          4   -1    0    0  502    0  0.00000000000E+00 -0.00000000000E+00 -0.11460420681E+04  0.11460420681E+04  0.00000000000E+00 0.  1.
   -9000010    2    1    2    0  501 -0.10609987030E+04 -0.34284616954E+03  0.12709428494E+04  0.19756759142E+04  0.10221241842E+04 0.  0.
    9000010    2    1    2  502    0  0.10609987030E+04  0.34284616954E+03 -0.97058357928E+02  0.14902927134E+04  0.98401743022E+03 0.  0.
        -13    1    4    4    0    0  0.10812705877E+03 -0.28180990559E+03  0.12978696279E+03  0.32856194332E+03  0.10566000000E+00 0.  1.
          4    1    4    4  502    0  0.95287164419E+03  0.62465607513E+03 -0.22684532072E+03  0.11617307700E+04  0.00000000000E+00 0.  1.
         13    1    3    3    0    0 -0.77611589365E+03 -0.56605688356E+03  0.41511141616E+03  0.10464672832E+04  0.10566000000E+00 0. -1.
         -4    1    3    3    0  501 -0.28488280931E+03  0.22321071401E+03  0.85583143320E+03  0.92920863101E+03  0.00000000000E+00 0. -1.
<mgrwt>
<rscale>  0 0.14998170E+04</rscale>
<asrwt>0</asrwt>
<pdfrwt beam="2">  1        4 0.17631416E+00 0.14871288E+04</pdfrwt>
<pdfrwt beam="1">  1       -4 0.35691178E+00 0.15126135E+04</pdfrwt>
<totfact> 0.79495564E-02</totfact>
</mgrwt>
</event>
<event>
 8    1  0.2939692E-006  0.1156298E+04  0.7818608E-02  0.8644483E-01
         -4   -1    0    0    0  501 -0.00000000000E+00  0.00000000000E+00  0.20559563756E+04  0.20559563756E+04  0.00000000000E+00 0. -1.
          4   -1    0    0  502    0  0.00000000000E+00 -0.00000000000E+00 -0.20682715195E+04  0.20682715195E+04  0.00000000000E+00 0.  1.
   -9000010    2    1    2    0  501  0.54563338793E+03  0.16921982057E+03  0.17048813137E+04  0.20600109531E+04  0.10053226802E+04 0.  0.
    9000010    2    1    2  502    0 -0.54563338793E+03 -0.16921982057E+03 -0.17171964576E+04  0.20642169420E+04  0.99291327313E+03 0.  0.
        -13    1    4    4    0    0 -0.10653649975E+02  0.29956983154E+03 -0.13356206140E+03  0.32816827945E+03  0.10566000000E+00 0.  1.
          4    1    4    4  502    0 -0.53497973795E+03 -0.46878965211E+03 -0.15836343962E+04  0.17360486625E+04  0.00000000000E+00 0.  1.
         13    1    3    3    0    0  0.40822861983E+02 -0.26982267866E+03  0.11758308325E+04  0.12070828231E+04  0.10566000000E+00 0. -1.
         -4    1    3    3    0  501  0.50481052594E+03  0.43904249923E+03  0.52905048113E+03  0.85292812993E+03  0.00000000000E+00 0. -1.
<mgrwt>
<rscale>  0 0.11508989E+04</rscale>
<asrwt>0</asrwt>
<pdfrwt beam="2">  1        4 0.31819562E+00 0.11455252E+04</pdfrwt>
<pdfrwt beam="1">  1       -4 0.31630098E+00 0.11562979E+04</pdfrwt>
<totfact> 0.45907713E-02</totfact>
</mgrwt>
</event>
<event>
 8    1  0.2939692E-006  0.1097595E+04  0.7818608E-02  0.8694133E-01
         -4   -1    0    0    0  501 -0.00000000000E+00  0.00000000000E+00  0.19250721256E+04  0.19250721256E+04  0.00000000000E+00 0. -1.
          4   -1    0    0  502    0  0.00000000000E+00 -0.00000000000E+00 -0.13831583172E+04  0.13831583172E+04  0.00000000000E+00 0.  1.
   -9000010    2    1    2    0  501 -0.39799147899E+03  0.12913217002E+03  0.15024574180E+04  0.18606700360E+04  0.10147129422E+04 0.  0.
    9000010    2    1    2  502    0  0.39799147899E+03 -0.12913217002E+03 -0.96054360966E+03  0.14475604068E+04  0.99885673179E+03 0.  0.
        -13    1    4    4    0    0  0.53254467013E+03 -0.38621590743E+03 -0.95210834902E+03  0.11572713045E+04  0.10566000000E+00 0.  1.
          4    1    4    4  502    0 -0.13455319115E+03  0.25708373741E+03 -0.84352606405E+01  0.29028910229E+03  0.00000000000E+00 0.  1.
         13    1    3    3    0    0 -0.23268197911E+03 -0.29886277529E+03  0.10976037393E+03  0.39434402837E+03  0.10566000000E+00 0. -1.
         -4    1    3    3    0  501 -0.16530949987E+03  0.42799494531E+03  0.13926970441E+04  0.14663260076E+04  0.00000000000E+00 0. -1.
<mgrwt>
<rscale>  0 0.10902494E+04</rscale>
<asrwt>0</asrwt>
<pdfrwt beam="2">  1        4 0.21279359E+00 0.10829530E+04</pdfrwt>
<pdfrwt beam="1">  1       -4 0.29616494E+00 0.10975950E+04</pdfrwt>
<totfact> 0.96725749E-02</totfact>
</mgrwt>
</event>
<event>
 8    1  0.2939692E-006  0.1212275E+04  0.7818608E-02  0.8628894E-01
         -4   -1    0    0    0  501 -0.00000000000E+00  0.00000000000E+00  0.11567205894E+04  0.11567205894E+04  0.00000000000E+00 0. -1.
          4   -1    0    0  502    0  0.00000000000E+00 -0.00000000000E+00 -0.28317100881E+04  0.28317100881E+04  0.00000000000E+00 0.  1.
   -9000010    2    1    2    0  501  0.85442267195E+02 -0.55700989487E+03  0.69440808600E+03  0.13269166826E+04  0.98027796493E+03 0.  0.
    9000010    2    1    2  502    0 -0.85442267195E+02  0.55700989487E+03 -0.23693975848E+04  0.26615139949E+04  0.10733365858E+04 0.  0.
        -13    1    4    4    0    0  0.49332636763E+03  0.22444838648E+03 -0.97272750982E+03  0.11135289860E+04  0.10566000000E+00 0.  1.
          4    1    4    4  502    0 -0.57876863483E+03  0.33256150838E+03 -0.13966700750E+04  0.15479850089E+04  0.00000000000E+00 0.  1.
         13    1    3    3    0    0  0.15203434776E+03 -0.37666581265E+03  0.93472389073E+03  0.10191664930E+04  0.10566000000E+00 0. -1.
         -4    1    3    3    0  501 -0.66592080564E+02 -0.18034408222E+03 -0.24031580473E+03  0.30775018959E+03  0.00000000000E+00 0. -1.
<mgrwt>
<rscale>  0 0.11707827E+04</rscale>
<asrwt>0</asrwt>
<pdfrwt beam="2">  1        4 0.43564770E+00 0.12122755E+04</pdfrwt>
<pdfrwt beam="1">  1       -4 0.17795702E+00 0.11307101E+04</pdfrwt>
<totfact> 0.39187922E-02</totfact>
</mgrwt>
</event>
<event>
 8    1  0.2939692E-006  0.1466909E+04  0.7818608E-02  0.8432463E-01
          4   -1    0    0  502    0  0.00000000000E+00  0.00000000000E+00  0.59114741697E+03  0.59114741697E+03  0.00000000000E+00 0.  1.
         -4   -1    0    0    0  501 -0.00000000000E+00 -0.00000000000E+00 -0.38158467199E+04  0.38158467199E+04  0.00000000000E+00 0. -1.
   -9000010    2    1    2    0  501 -0.88344025561E+03  0.57829771873E+03 -0.21182507759E+04  0.25695913769E+04  0.10004591737E+04 0.  0.
    9000010    2    1    2  502    0  0.88344025561E+03 -0.57829771873E+03 -0.11064485271E+04  0.18374027600E+04  0.10182954495E+04 0.  0.
        -13    1    4    4    0    0  0.57105836532E+02 -0.46543170898E+03 -0.83972686143E+03  0.96178426129E+03  0.10566000000E+00 0.  1.
          4    1    4    4  502    0  0.82633441907E+03 -0.11286600975E+03 -0.26672166563E+03  0.87561849867E+03  0.00000000000E+00 0.  1.
         13    1    3    3    0    0 -0.31145188323E+03  0.42796932219E+03 -0.18425588742E+04  0.19170767414E+04  0.10566000000E+00 0. -1.
         -4    1    3    3    0  501 -0.57198837237E+03  0.15032839654E+03 -0.27569190167E+03  0.65251463553E+03  0.00000000000E+00 0. -1.
<mgrwt>
<rscale>  0 0.14607331E+04</rscale>
<asrwt>0</asrwt>
<pdfrwt beam="1">  1        4 0.90945759E-01 0.14669085E+04</pdfrwt>
<pdfrwt beam="2">  1       -4 0.58705332E+00 0.14545836E+04</pdfrwt>
<totfact> 0.20974465E-02</totfact>
</mgrwt>
</event>
<event>
 8    1  0.2939692E-006  0.1303809E+04  0.7818608E-02  0.8579910E-01
          4   -1    0    0  502    0  0.00000000000E+00  0.00000000000E+00  0.16961215380E+04  0.16961215380E+04  0.00000000000E+00 0.  1.
         -4   -1    0    0    0  501 -0.00000000000E+00 -0.00000000000E+00 -0.27142783878E+04  0.27142783878E+04  0.00000000000E+00 0. -1.
   -9000010    2    1    2    0  501 -0.70793140322E+02  0.62714018339E+03 -0.23185151124E+04  0.26599681836E+04  0.11408777028E+04 0.  0.
    9000010    2    1    2  502    0  0.70793140322E+02 -0.62714018339E+03  0.13003582627E+04  0.17504317423E+04  0.98730096461E+03 0.  0.
        -13    1    4    4    0    0  0.49214122171E+03 -0.23481479324E+03  0.37926769170E+03  0.66421755649E+03  0.10566000000E+00 0.  1.
          4    1    4    4  502    0 -0.42134808138E+03 -0.39232539016E+03  0.92109057098E+03  0.10862141858E+04  0.00000000000E+00 0.  1.
         13    1    3    3    0    0 -0.22575356786E+03 -0.23681237533E+03 -0.24629676054E+03  0.40952030466E+03  0.10566000000E+00 0. -1.
         -4    1    3    3    0  501  0.15496042754E+03  0.86395255872E+03 -0.20722183519E+04  0.22504478789E+04  0.00000000000E+00 0. -1.
<mgrwt>
<rscale>  0 0.12360355E+04</rscale>
<asrwt>0</asrwt>
<pdfrwt beam="1">  1        4 0.26094178E+00 0.11717848E+04</pdfrwt>
<pdfrwt beam="2">  1       -4 0.41758129E+00 0.13038092E+04</pdfrwt>
<totfact> 0.27950395E-02</totfact>
</mgrwt>
</event>
<event>
 8    1  0.2939692E-006  0.1848255E+04  0.7818608E-02  0.8234156E-01
          4   -1    0    0  502    0  0.00000000000E+00  0.00000000000E+00  0.18546321808E+04  0.18546321808E+04  0.00000000000E+00 0.  1.
         -4   -1    0    0    0  501 -0.00000000000E+00 -0.00000000000E+00 -0.25395204979E+04  0.25395204979E+04  0.00000000000E+00 0. -1.
   -9000010    2    1    2    0  501 -0.12736987218E+04 -0.88280742289E+03 -0.14974094799E+04  0.23751831563E+04  0.99880052833E+03 0.  0.
    9000010    2    1    2  502    0  0.12736987218E+04  0.88280742289E+03  0.81252116284E+03  0.20189695224E+04  0.10071692571E+04 0.  0.
        -13    1    4    4    0    0  0.48310744506E+03  0.24174327356E+03  0.84234991249E+03  0.10006927601E+04  0.10566000000E+00 0.  1.
          4    1    4    4  502    0  0.79059127677E+03  0.64106414933E+03 -0.29828749657E+02  0.10182767624E+04  0.00000000000E+00 0.  1.
         13    1    3    3    0    0 -0.31002339519E+02 -0.23055652674E+02 -0.63324494101E+03  0.63442247333E+03  0.10566000000E+00 0. -1.
         -4    1    3    3    0  501 -0.12426963823E+04 -0.85975177021E+03 -0.86416453890E+03  0.17407606829E+04  0.00000000000E+00 0. -1.
<mgrwt>
<rscale>  0 0.18459803E+04</rscale>
<asrwt>0</asrwt>
<pdfrwt beam="1">  1        4 0.28532803E+00 0.18482552E+04</pdfrwt>
<pdfrwt beam="2">  1       -4 0.39069546E+00 0.18437082E+04</pdfrwt>
<totfact> 0.29477068E-02</totfact>
</mgrwt>
</event>
<event>
 8    1  0.2939692E-006  0.1165035E+04  0.7818608E-02  0.8638453E-01
         -4   -1    0    0    0  501 -0.00000000000E+00  0.00000000000E+00  0.53097007562E+03  0.53097007562E+03  0.00000000000E+00 0. -1.
          4   -1    0    0  502    0  0.00000000000E+00 -0.00000000000E+00 -0.26376393135E+04  0.26376393135E+04  0.00000000000E+00 0.  1.
   -9000010    2    1    2    0  501 -0.48911514028E+03  0.21187055025E+03 -0.72459787768E+03  0.13610064111E+04  0.10213587109E+04 0.  0.
    9000010    2    1    2  502    0  0.48911514028E+03 -0.21187055025E+03 -0.13820713602E+04  0.18076029780E+04  0.10359462008E+04 0.  0.
        -13    1    4    4    0    0  0.23715939283E+03 -0.13825871859E+03  0.10769641243E+03  0.29488740103E+03  0.10566000000E+00 0.  1.
          4    1    4    4  502    0  0.25195574745E+03 -0.73611831665E+02 -0.14897677726E+04  0.15127155770E+04  0.00000000000E+00 0.  1.
         13    1    3    3    0    0  0.26166233381E+03 -0.16771966459E+03 -0.19614589625E+03  0.36751909693E+03  0.10566000000E+00 0. -1.
         -4    1    3    3    0  501 -0.75077747409E+03  0.37959021484E+03 -0.52845198143E+03  0.99348731420E+03  0.00000000000E+00 0. -1.
<mgrwt>
<rscale>  0 0.11585413E+04</rscale>
<asrwt>0</asrwt>
<pdfrwt beam="2">  1        4 0.40579066E+00 0.11650353E+04</pdfrwt>
<pdfrwt beam="1">  1       -4 0.81687705E-01 0.11520835E+04</pdfrwt>
<totfact> 0.19782751E-01</totfact>
</mgrwt>
</event>
<event>
 8    1  0.2939692E-006  0.1254218E+04  0.7818608E-02  0.8588295E-01
         -4   -1    0    0    0  501 -0.00000000000E+00  0.00000000000E+00  0.16608234733E+04  0.16608234733E+04  0.00000000000E+00 0. -1.
          4   -1    0    0  502    0  0.00000000000E+00 -0.00000000000E+00 -0.24309736025E+04  0.24309736025E+04  0.00000000000E+00 0.  1.
   -9000010    2    1    2    0  501 -0.29772342684E+01 -0.75872949854E+03  0.12331147486E+04  0.17588733403E+04  0.99869120770E+03 0.  0.
    9000010    2    1    2  502    0  0.29772342684E+01  0.75872949854E+03 -0.20032648777E+04  0.23329237354E+04  0.92400414989E+03 0.  0.
        -13    1    4    4    0    0 -0.89908082245E+02  0.49538505807E+03 -0.25851378610E+03  0.56596749711E+03  0.10566000000E+00 0.  1.
          4    1    4    4  502    0  0.92885316513E+02  0.26334444047E+03 -0.17447510916E+04  0.17669562383E+04  0.00000000000E+00 0.  1.
         13    1    3    3    0    0 -0.54276449200E+02  0.53599536813E+02  0.86018312013E+03  0.86355883100E+03  0.10566000000E+00 0. -1.
         -4    1    3    3    0  501  0.51299214931E+02 -0.81232903536E+03  0.37293162844E+03  0.89531450934E+03  0.00000000000E+00 0. -1.
<mgrwt>
<rscale>  0 0.12245592E+04</rscale>
<asrwt>0</asrwt>
<pdfrwt beam="2">  1        4 0.37399594E+00 0.11956015E+04</pdfrwt>
<pdfrwt beam="1">  1       -4 0.25551131E+00 0.12542183E+04</pdfrwt>
<totfact> 0.42992815E-02</totfact>
</mgrwt>
</event>
<event>
 8    1  0.2939692E-006  0.1115101E+04  0.7818608E-02  0.8704809E-01
          4   -1    0    0  502    0  0.00000000000E+00  0.00000000000E+00  0.51239512232E+03  0.51239512232E+03  0.00000000000E+00 0.  1.
         -4   -1    0    0    0  501 -0.00000000000E+00 -0.00000000000E+00 -0.23337672793E+04  0.23337672793E+04  0.00000000000E+00 0. -1.
   -9000010    2    1    2    0  501 -0.51680975247E+02 -0.20859849635E+03 -0.11166937614E+04  0.15270635773E+04  0.10191829849E+04 0.  0.
    9000010    2    1    2  502    0  0.51680975247E+02  0.20859849635E+03 -0.70467839560E+03  0.13190988243E+04  0.10941964225E+04 0.  0.
        -13    1    4    4    0    0 -0.44756577563E+03 -0.12959715776E+03 -0.49715587105E+03  0.68137692806E+03  0.10566000000E+00 0.  1.
          4    1    4    4  502    0  0.49924675087E+03  0.33819565411E+03 -0.20752252455E+03  0.63772189622E+03  0.00000000000E+00 0.  1.
         13    1    3    3    0    0 -0.41615480355E+03 -0.40792934540E+03 -0.85964509450E+03  0.10385474814E+04  0.10566000000E+00 0. -1.
         -4    1    3    3    0  501  0.36447382831E+03  0.19933084905E+03 -0.25704866688E+03  0.48851609599E+03  0.00000000000E+00 0. -1.
<mgrwt>
<rscale>  0 0.10777210E+04</rscale>
<asrwt>0</asrwt>
<pdfrwt beam="1">  1        4 0.78830021E-01 0.11151009E+04</pdfrwt>
<pdfrwt beam="2">  1       -4 0.35904111E+00 0.10415941E+04</pdfrwt>
<totfact> 0.32335502E-01</totfact>
</mgrwt>
</event>
<event>
 8    1  0.2939692E-006  0.1059683E+04  0.7818608E-02  0.8721363E-01
          4   -1    0    0  502    0  0.00000000000E+00  0.00000000000E+00  0.10024134185E+04  0.10024134185E+04  0.00000000000E+00 0.  1.
         -4   -1    0    0    0  501 -0.00000000000E+00 -0.00000000000E+00 -0.13616907073E+04  0.13616907073E+04  0.00000000000E+00 0. -1.
   -9000010    2    1    2    0  501  0.28543511148E+03  0.15757617995E+03 -0.67952589104E+03  0.12570872706E+04  0.10060862359E+04 0.  0.
    9000010    2    1    2  502    0 -0.28543511148E+03 -0.15757617995E+03  0.32024860225E+03  0.11070168552E+04  0.10082775883E+04 0.  0.
        -13    1    4    4    0    0 -0.94952407047E+02 -0.34390825750E+02 -0.36838812712E+03  0.38197972704E+03  0.10566000000E+00 0.  1.
          4    1    4    4  502    0 -0.19048270444E+03 -0.12318535420E+03  0.68863672937E+03  0.72503712817E+03  0.00000000000E+00 0.  1.
         13    1    3    3    0    0 -0.35990725907E+03  0.15229246746E+03 -0.38183307567E+03  0.54637234522E+03  0.10566000000E+00 0. -1.
         -4    1    3    3    0  501  0.64534237055E+03  0.52837124890E+01 -0.29769281536E+03  0.71071492539E+03  0.00000000000E+00 0. -1.
<mgrwt>
<rscale>  0 0.10586396E+04</rscale>
<asrwt>0</asrwt>
<pdfrwt beam="1">  1        4 0.15421745E+00 0.10596826E+04</pdfrwt>
<pdfrwt beam="2">  1       -4 0.20949088E+00 0.10575977E+04</pdfrwt>
<totfact> 0.24504068E-01</totfact>
</mgrwt>
</event>
<event>
 8    1  0.2939692E-006  0.1031302E+04  0.7818608E-02  0.8765100E-01
         -4   -1    0    0    0  501 -0.00000000000E+00  0.00000000000E+00  0.22543084482E+04  0.22543084482E+04  0.00000000000E+00 0. -1.
          4   -1    0    0  502    0  0.00000000000E+00 -0.00000000000E+00 -0.25916273296E+04  0.25916273296E+04  0.00000000000E+00 0.  1.
   -9000010    2    1    2    0  501 -0.18185099115E+03 -0.13867068653E+03  0.20329894625E+04  0.22609898402E+04  0.96266793894E+03 0.  0.
    9000010    2    1    2  502    0  0.18185099115E+03  0.13867068653E+03 -0.23703083439E+04  0.25849459376E+04  0.10056264281E+04 0.  0.
        -13    1    4    4    0    0 -0.37817851981E+02 -0.10508857268E+02 -0.23129542545E+04  0.23132872759E+04  0.10566000000E+00 0.  1.
          4    1    4    4  502    0  0.21966884313E+03  0.14917954380E+03 -0.57354089360E+02  0.27165866174E+03  0.00000000000E+00 0.  1.
         13    1    3    3    0    0  0.95109939363E+02 -0.50965222352E+03  0.12166776302E+04  0.13225338395E+04  0.10566000000E+00 0. -1.
         -4    1    3    3    0  501 -0.27696093051E+03  0.37098153699E+03  0.81631183225E+03  0.93845600072E+03  0.00000000000E+00 0. -1.
<mgrwt>
<rscale>  0 0.10101638E+04</rscale>
<asrwt>0</asrwt>
<pdfrwt beam="2">  1        4 0.39871190E+00 0.10313020E+04</pdfrwt>
<pdfrwt beam="1">  1       -4 0.34681669E+00 0.98945889E+03</pdfrwt>
<totfact> 0.20260129E-02</totfact>
</mgrwt>
</event>
<event>
 8    1  0.2939692E-006  0.1107354E+04  0.7818608E-02  0.8685080E-01
          4   -1    0    0  502    0  0.00000000000E+00  0.00000000000E+00  0.48845960202E+03  0.48845960202E+03  0.00000000000E+00 0.  1.
         -4   -1    0    0    0  501 -0.00000000000E+00 -0.00000000000E+00 -0.28336991341E+04  0.28336991341E+04  0.00000000000E+00 0. -1.
   -9000010    2    1    2    0  501 -0.26714167132E+03 -0.38437448960E+03 -0.17638548870E+04  0.20826467245E+04  0.10035561249E+04 0.  0.
    9000010    2    1    2  502    0  0.26714167132E+03  0.38437448960E+03 -0.58138464502E+03  0.12395120116E+04  0.98958248801E+03 0.  0.
        -13    1    4    4    0    0 -0.10823747293E+03 -0.25742744439E+03 -0.37560669905E+03  0.46804342022E+03  0.10566000000E+00 0.  1.
          4    1    4    4  502    0  0.37537914425E+03  0.64180193399E+03 -0.20577794597E+03  0.77146859137E+03  0.00000000000E+00 0.  1.
         13    1    3    3    0    0 -0.36846966714E+03 -0.68824943211E+03 -0.11451595634E+04  0.13859464684E+04  0.10566000000E+00 0. -1.
         -4    1    3    3    0  501  0.10132799582E+03  0.30387494250E+03 -0.61869532358E+03  0.69670025609E+03  0.00000000000E+00 0. -1.
<mgrwt>
<rscale>  0 0.11010121E+04</rscale>
<asrwt>0</asrwt>
<pdfrwt beam="1">  1        4 0.75147631E-01 0.10947063E+04</pdfrwt>
<pdfrwt beam="2">  1       -4 0.43595371E+00 0.11073542E+04</pdfrwt>
<totfact> 0.17597940E-01</totfact>
</mgrwt>
</event>
<event>
 8    1  0.2939692E-006  0.1077560E+04  0.7818608E-02  0.8708930E-01
          4   -1    0    0  502    0  0.00000000000E+00  0.00000000000E+00  0.10730199239E+04  0.10730199239E+04  0.00000000000E+00 0.  1.
         -4   -1    0    0    0  501 -0.00000000000E+00 -0.00000000000E+00 -0.34268809052E+04  0.34268809052E+04  0.00000000000E+00 0. -1.
   -9000010    2    1    2    0  501 -0.79036376788E+02 -0.37952623080E+03 -0.30432946094E+04  0.32284328357E+04  0.10054101581E+04 0.  0.
    9000010    2    1    2  502    0  0.79036376788E+02  0.37952623080E+03  0.68943362807E+03  0.12714679934E+04  0.99550249722E+03 0.  0.
        -13    1    4    4    0    0 -0.59108779883E+02 -0.22440357771E+02 -0.24067565558E+03  0.24884171650E+03  0.10566000000E+00 0.  1.
          4    1    4    4  502    0  0.13814515667E+03  0.40196658858E+03  0.93010928366E+03  0.10226262769E+04  0.00000000000E+00 0.  1.
         13    1    3    3    0    0 -0.39899690088E+03  0.10546701442E+03 -0.68587327670E+03  0.80046485300E+03  0.10566000000E+00 0. -1.
         -4    1    3    3    0  501  0.31996052410E+03 -0.48499324523E+03 -0.23574213327E+04  0.24279679827E+04  0.00000000000E+00 0. -1.
<mgrwt>
<rscale>  0 0.10729313E+04</rscale>
<asrwt>0</asrwt>
<pdfrwt beam="1">  1        4 0.16507999E+00 0.10683221E+04</pdfrwt>
<pdfrwt beam="2">  1       -4 0.52721246E+00 0.10775604E+04</pdfrwt>
<totfact> 0.16428932E-02</totfact>
</mgrwt>
</event>
<event>
 8    1  0.2939692E-006  0.1425775E+04  0.7818608E-02  0.8454455E-01
          4   -1    0    0  502    0  0.00000000000E+00  0.00000000000E+00  0.21758751122E+04  0.21758751122E+04  0.00000000000E+00 0.  1.
         -4   -1    0    0    0  501 -0.00000000000E+00 -0.00000000000E+00 -0.18494150831E+04  0.18494150831E+04  0.00000000000E+00 0. -1.
   -9000010    2    1    2    0  501  0.55683250874E+03  0.84911871305E+03 -0.12541542863E+04  0.18966342766E+04  0.99662107833E+03 0.  0.
    9000010    2    1    2  502    0 -0.55683250874E+03 -0.84911871305E+03  0.15806143154E+04  0.21286559186E+04  0.10008842962E+04 0.  0.
        -13    1    4    4    0    0 -0.33561562630E+03 -0.98619883039E+03  0.82307046944E+03  0.13276562019E+04  0.10566000000E+00 0.  1.
          4    1    4    4  502    0 -0.22121688243E+03  0.13708011734E+03  0.75754384593E+03  0.80099971670E+03  0.00000000000E+00 0.  1.
         13    1    3    3    0    0 -0.10640642077E+03  0.32244122768E+03  0.48376382656E+02  0.34297369761E+03  0.10566000000E+00 0. -1.
         -4    1    3    3    0  501  0.66323892951E+03  0.52667748537E+03 -0.13025306689E+04  0.15536605790E+04  0.00000000000E+00 0. -1.
<mgrwt>
<rscale>  0 0.14242795E+04</rscale>
<asrwt>0</asrwt>
<pdfrwt beam="1">  1        4 0.33475002E+00 0.14257750E+04</pdfrwt>
<pdfrwt beam="2">  1       -4 0.28452540E+00 0.14227855E+04</pdfrwt>
<totfact> 0.48744398E-02</totfact>
</mgrwt>
</event>
<event>
 8    1  0.2939692E-006  0.1098553E+04  0.7818608E-02  0.8697864E-01
         -4   -1    0    0    0  501 -0.00000000000E+00  0.00000000000E+00  0.48108518509E+04  0.48108518509E+04  0.00000000000E+00 0. -1.
          4   -1    0    0  502    0  0.00000000000E+00 -0.00000000000E+00 -0.25372851674E+04  0.25372851674E+04  0.00000000000E+00 0.  1.
   -9000010    2    1    2    0  501 -0.44274019816E+02  0.39427946333E+03  0.46275751776E+04  0.47504120649E+04  0.99726941093E+03 0.  0.
    9000010    2    1    2  502    0  0.44274019816E+02 -0.39427946333E+03 -0.23540084942E+04  0.25977249533E+04  0.10244034647E+04 0.  0.
        -13    1    4    4    0    0 -0.28593361513E+02 -0.33383643608E+03 -0.11136124220E+03  0.35308027955E+03  0.10566000000E+00 0.  1.
          4    1    4    4  502    0  0.72867381328E+02 -0.60443027244E+02 -0.22426472520E+04  0.22446446738E+04  0.00000000000E+00 0.  1.
         13    1    3    3    0    0 -0.37021127978E+03  0.33548695958E+03  0.11097002024E+04  0.12169808717E+04  0.10566000000E+00 0. -1.
         -4    1    3    3    0  501  0.32593725997E+03  0.58792503750E+02  0.35178749752E+04  0.35334311932E+04  0.00000000000E+00 0. -1.
<mgrwt>
<rscale>  0 0.10858508E+04</rscale>
<asrwt>0</asrwt>
<pdfrwt beam="2">  1        4 0.39035156E+00 0.10985531E+04</pdfrwt>
<pdfrwt beam="1">  1       -4 0.74013106E+00 0.10732953E+04</pdfrwt>
<totfact> 0.29008578E-04</totfact>
</mgrwt>
</event>
<event>
 8    1  0.2939692E-006  0.1345954E+04  0.7818608E-02  0.8508501E-01
          4   -1    0    0  502    0  0.00000000000E+00  0.00000000000E+00  0.12964583713E+04  0.12964583713E+04  0.00000000000E+00 0.  1.
         -4   -1    0    0    0  501 -0.00000000000E+00 -0.00000000000E+00 -0.36179148536E+04  0.36179148536E+04  0.00000000000E+00 0. -1.
   -9000010    2    1    2    0  501  0.54812771636E+03 -0.70655296371E+03 -0.30895579671E+04  0.33646726859E+04  0.98792346223E+03 0.  0.
    9000010    2    1    2  502    0 -0.54812771636E+03  0.70655296371E+03  0.76810148481E+03  0.15497005389E+04  0.10059477051E+04 0.  0.
        -13    1    4    4    0    0  0.22163238695E+03  0.37389696072E+03  0.51472460618E+03  0.67369227660E+03  0.10566000000E+00 0.  1.
          4    1    4    4  502    0 -0.76976010331E+03  0.33265600299E+03  0.25337687863E+03  0.87600826229E+03  0.00000000000E+00 0.  1.
         13    1    3    3    0    0  0.67819868499E+03 -0.81977814112E+03 -0.29700359962E+04  0.31548539565E+04  0.10566000000E+00 0. -1.
         -4    1    3    3    0  501 -0.13007096863E+03  0.11322517741E+03 -0.11952197091E+03  0.20981872941E+03  0.00000000000E+00 0. -1.
<mgrwt>
<rscale>  0 0.13392285E+04</rscale>
<asrwt>0</asrwt>
<pdfrwt beam="1">  1        4 0.19945514E+00 0.13459539E+04</pdfrwt>
<pdfrwt beam="2">  1       -4 0.55660228E+00 0.13325366E+04</pdfrwt>
<totfact> 0.87981522E-03</totfact>
</mgrwt>
</event>
<event>
 8    1  0.2939692E-006  0.1185692E+04  0.7818608E-02  0.8627913E-01
         -4   -1    0    0    0  501 -0.00000000000E+00  0.00000000000E+00  0.97999685692E+03  0.97999685692E+03  0.00000000000E+00 0. -1.
          4   -1    0    0  502    0  0.00000000000E+00 -0.00000000000E+00 -0.14734191909E+04  0.14734191909E+04  0.00000000000E+00 0.  1.
   -9000010    2    1    2    0  501 -0.21576611300E+03 -0.52786895677E+03  0.20774364099E+02  0.11858743685E+04  0.10395507648E+04 0.  0.
    9000010    2    1    2  502    0  0.21576611300E+03  0.52786895677E+03 -0.51419669810E+03  0.12675416794E+04  0.10084954207E+04 0.  0.
        -13    1    4    4    0    0  0.13812129089E+03  0.74429228092E+03 -0.61122905916E+02  0.75946330472E+03  0.10566000000E+00 0.  1.
          4    1    4    4  502    0  0.77644822112E+02 -0.21642332414E+03 -0.45307379218E+03  0.50807837466E+03  0.00000000000E+00 0.  1.
         13    1    3    3    0    0 -0.12486564437E+03 -0.79232787215E+03 -0.20336936761E+03  0.82748655395E+03  0.10566000000E+00 0. -1.
         -4    1    3    3    0  501 -0.90900468637E+02  0.26445891537E+03  0.22414373171E+03  0.35838781450E+03  0.00000000000E+00 0. -1.
<mgrwt>
<rscale>  0 0.11720482E+04</rscale>
<asrwt>0</asrwt>
<pdfrwt beam="2">  1        4 0.22667988E+00 0.11585610E+04</pdfrwt>
<pdfrwt beam="1">  1       -4 0.15076875E+00 0.11856924E+04</pdfrwt>
<totfact> 0.22826963E-01</totfact>
</mgrwt>
</event>
<event>
 8    1  0.2939692E-006  0.1184354E+04  0.7818608E-02  0.8647076E-01
          4   -1    0    0  502    0  0.00000000000E+00  0.00000000000E+00  0.11447801006E+04  0.11447801006E+04  0.00000000000E+00 0.  1.
         -4   -1    0    0    0  501 -0.00000000000E+00 -0.00000000000E+00 -0.26122354784E+04  0.26122354784E+04  0.00000000000E+00 0. -1.
   -9000010    2    1    2    0  501  0.34194077637E+03  0.51692588339E+03 -0.21482718997E+04  0.24531136152E+04  0.10092365385E+04 0.  0.
    9000010    2    1    2  502    0 -0.34194077637E+03 -0.51692588339E+03  0.68081652193E+03  0.13039019638E+04  0.92331648482E+03 0.  0.
        -13    1    4    4    0    0 -0.19053447641E+03  0.25075829655E+03  0.29484757205E+03  0.43141419992E+03  0.10566000000E+00 0.  1.
          4    1    4    4  502    0 -0.15140629996E+03 -0.76768417994E+03  0.38596894988E+03  0.87248776385E+03  0.00000000000E+00 0.  1.
         13    1    3    3    0    0 -0.19268035504E+03 -0.18752081859E+02 -0.13080505938E+04  0.13222986527E+04  0.10566000000E+00 0. -1.
         -4    1    3    3    0  501  0.53462113141E+03  0.53567796525E+03 -0.84022130589E+03  0.11308149625E+04  0.00000000000E+00 0. -1.
<mgrwt>
<rscale>  0 0.11476313E+04</rscale>
<asrwt>0</asrwt>
<pdfrwt beam="1">  1        4 0.17612002E+00 0.11120473E+04</pdfrwt>
<pdfrwt beam="2">  1       -4 0.40188238E+00 0.11843539E+04</pdfrwt>
<totfact> 0.55241525E-02</totfact>
</mgrwt>
</event>
<event>
 8    1  0.2939692E-006  0.1037469E+04  0.7818608E-02  0.8742537E-01
         -4   -1    0    0    0  501 -0.00000000000E+00  0.00000000000E+00  0.82038950270E+03  0.82038950270E+03  0.00000000000E+00 0. -1.
          4   -1    0    0  502    0  0.00000000000E+00 -0.00000000000E+00 -0.13083125802E+04  0.13083125802E+04  0.00000000000E+00 0.  1.
   -9000010    2    1    2    0  501  0.10886542669E+03  0.22612032240E+03 -0.29414767382E+03  0.10732914553E+04  0.10012240572E+04 0.  0.
    9000010    2    1    2  502    0 -0.10886542669E+03 -0.22612032240E+03 -0.19377540372E+03  0.10554106276E+04  0.10066581369E+04 0.  0.
        -13    1    4    4    0    0  0.44055383413E+03 -0.16829783806E+03 -0.51199435608E+01  0.47163340430E+03  0.10566000000E+00 0.  1.
          4    1    4    4  502    0 -0.54941926082E+03 -0.57822484333E+02 -0.18865546016E+03  0.58377722335E+03  0.00000000000E+00 0.  1.
         13    1    3    3    0    0 -0.29594556780E+03 -0.24531179048E+03 -0.23157441423E+03  0.44876316040E+03  0.10566000000E+00 0. -1.
         -4    1    3    3    0  501  0.40481099448E+03  0.47143211288E+03 -0.62573259595E+02  0.62452829489E+03  0.00000000000E+00 0. -1.
<mgrwt>
<rscale>  0 0.10348301E+04</rscale>
<asrwt>0</asrwt>
<pdfrwt beam="2">  1        4 0.20127885E+00 0.10374694E+04</pdfrwt>
<pdfrwt beam="1">  1       -4 0.12621377E+00 0.10321975E+04</pdfrwt>
<totfact> 0.35067384E-01</totfact>
</mgrwt>
</event>
<event>
 8    1  0.2939692E-006  0.1201246E+04  0.7818608E-02  0.8619179E-01
          4   -1    0    0  502    0  0.00000000000E+00  0.00000000000E+00  0.10737679473E+04  0.10737679473E+04  0.00000000000E+00 0.  1.
         -4   -1    0    0    0  501 -0.00000000000E+00 -0.00000000000E+00 -0.16836727927E+04  0.16836727927E+04  0.00000000000E+00 0. -1.
   -9000010    2    1    2    0  501  0.56287574212E+03 -0.81561902733E+02 -0.96272823904E+03  0.15394273721E+04  0.10580687722E+04 0.  0.
    9000010    2    1    2  502    0 -0.56287574212E+03  0.81561902733E+02  0.35282339368E+03  0.12180133679E+04  0.10176398048E+04 0.  0.
        -13    1    4    4    0    0 -0.81250036703E+03  0.10841206120E+03  0.46568551878E+03  0.94274759878E+03  0.10566000000E+00 0.  1.
          4    1    4    4  502    0  0.24962462491E+03 -0.26850158465E+02 -0.11286212510E+03  0.27526576913E+03  0.00000000000E+00 0.  1.
         13    1    3    3    0    0  0.49832095283E+03 -0.89479440013E+02  0.64286018974E+02  0.51035580296E+03  0.10566000000E+00 0. -1.
         -4    1    3    3    0  501  0.64554789292E+02  0.79175372800E+01 -0.10270142580E+04  0.10290715691E+04  0.00000000000E+00 0. -1.
<mgrwt>
<rscale>  0 0.11833863E+04</rscale>
<asrwt>0</asrwt>
<pdfrwt beam="1">  1        4 0.16519507E+00 0.11657925E+04</pdfrwt>
<pdfrwt beam="2">  1       -4 0.25902658E+00 0.12012456E+04</pdfrwt>
<totfact> 0.16703316E-01</totfact>
</mgrwt>
</event>
<event>
 8    1  0.2939692E-006  0.1178080E+04  0.7818608E-02  0.8624924E-01
          4   -1    0    0  502    0  0.00000000000E+00  0.00000000000E+00  0.14310653270E+04  0.14310653270E+04  0.00000000000E+00 0.  1.
         -4   -1    0    0    0  501 -0.00000000000E+00 -0.00000000000E+00 -0.17535238820E+04  0.17535238820E+04  0.00000000000E+00 0. -1.
   -9000010    2    1    2    0  501  0.37110636271E+03 -0.48876425143E+03 -0.12283040842E+04  0.17019410994E+04  0.10056153124E+04 0.  0.
    9000010    2    1    2  502    0 -0.37110636271E+03  0.48876425143E+03  0.90584552922E+03  0.14826481096E+04  0.10005392887E+04 0.  0.
        -13    1    4    4    0    0  0.80401795531E+02  0.67881959775E+03  0.54437319510E+03  0.87384362544E+03  0.10566000000E+00 0.  1.
          4    1    4    4  502    0 -0.45150815824E+03 -0.19005534631E+03  0.36147233412E+03  0.60880448417E+03  0.00000000000E+00 0.  1.
         13    1    3    3    0    0  0.45541351667E+03 -0.75403222307E+03 -0.79296464278E+03  0.11852252952E+04  0.10566000000E+00 0. -1.
         -4    1    3    3    0  501 -0.84307153966E+02  0.26526797164E+03 -0.43533944144E+03  0.51671580415E+03  0.00000000000E+00 0. -1.
<mgrwt>
<rscale>  0 0.11759131E+04</rscale>
<asrwt>0</asrwt>
<pdfrwt beam="1">  1        4 0.22016390E+00 0.11737501E+04</pdfrwt>
<pdfrwt beam="2">  1       -4 0.26977290E+00 0.11780800E+04</pdfrwt>
<totfact> 0.10775171E-01</totfact>
</mgrwt>
</event>
<event>
 8    1  0.2939692E-006  0.1117361E+04  0.7818608E-02  0.8675218E-01
         -4   -1    0    0    0  501 -0.00000000000E+00  0.00000000000E+00  0.25659992736E+04  0.25659992736E+04  0.00000000000E+00 0. -1.
          4   -1    0    0  502    0  0.00000000000E+00 -0.00000000000E+00 -0.89162552827E+03  0.89162552827E+03  0.00000000000E+00 0.  1.
   -9000010    2    1    2    0  501  0.30312899558E+03 -0.40233817509E+03  0.20098314695E+04  0.22995472268E+04  0.99736238028E+03 0.  0.
    9000010    2    1    2  502    0 -0.30312899558E+03  0.40233817509E+03 -0.33545772410E+03  0.11580775751E+04  0.98734421058E+03 0.  0.
        -13    1    4    4    0    0 -0.49043837983E+03  0.11713961153E+03 -0.55694031451E+03  0.75128823902E+03  0.10566000000E+00 0.  1.
          4    1    4    4  502    0  0.18730938424E+03  0.28519856356E+03  0.22148259041E+03  0.40678933607E+03  0.00000000000E+00 0.  1.
         13    1    3    3    0    0 -0.19427931376E+03 -0.41326230598E+03  0.37564664088E+03  0.59130414786E+03  0.10566000000E+00 0. -1.
         -4    1    3    3    0  501  0.49740830935E+03  0.10924130892E+02  0.16341848286E+04  0.17082430790E+04  0.00000000000E+00 0. -1.
<mgrwt>
<rscale>  0 0.11128852E+04</rscale>
<asrwt>0</asrwt>
<pdfrwt beam="2">  1        4 0.13717316E+00 0.11084276E+04</pdfrwt>
<pdfrwt beam="1">  1       -4 0.39476912E+00 0.11173607E+04</pdfrwt>
<totfact> 0.85041813E-02</totfact>
</mgrwt>
</event>
<event>
 8    1  0.2939692E-006  0.1140593E+04  0.7818608E-02  0.8657993E-01
          4   -1    0    0  502    0  0.00000000000E+00  0.00000000000E+00  0.10241943228E+04  0.10241943228E+04  0.00000000000E+00 0.  1.
         -4   -1    0    0    0  501 -0.00000000000E+00 -0.00000000000E+00 -0.24096943848E+04  0.24096943848E+04  0.00000000000E+00 0. -1.
   -9000010    2    1    2    0  501  0.52856002316E+03  0.92388608891E+02 -0.18788554795E+04  0.21911688925E+04  0.99157039562E+03 0.  0.
    9000010    2    1    2  502    0 -0.52856002316E+03 -0.92388608891E+02  0.49335541755E+03  0.12427198151E+04  0.10064996859E+04 0.  0.
        -13    1    4    4    0    0 -0.12032398274E+03  0.24273640901E+03 -0.22425331021E+03  0.35169359304E+03  0.10566000000E+00 0.  1.
          4    1    4    4  502    0 -0.40823604042E+03 -0.33512501790E+03  0.71760872776E+03  0.89102622210E+03  0.00000000000E+00 0.  1.
         13    1    3    3    0    0 -0.23661487971E+03  0.22713636324E+03 -0.77258534129E+03  0.83932451980E+03  0.10566000000E+00 0. -1.
         -4    1    3    3    0  501  0.76517490288E+03 -0.13474775434E+03 -0.11062701382E+04  0.13518443727E+04  0.00000000000E+00 0. -1.
<mgrwt>
<rscale>  0 0.11339981E+04</rscale>
<asrwt>0</asrwt>
<pdfrwt beam="1">  1        4 0.15756836E+00 0.11405933E+04</pdfrwt>
<pdfrwt beam="2">  1       -4 0.37072221E+00 0.11274410E+04</pdfrwt>
<totfact> 0.85327215E-02</totfact>
</mgrwt>
</event>
<event>
 8    1  0.2939692E-006  0.1217581E+04  0.7818608E-02  0.8599364E-01
         -4   -1    0    0    0  501 -0.00000000000E+00  0.00000000000E+00  0.17364139017E+04  0.17364139017E+04  0.00000000000E+00 0. -1.
          4   -1    0    0  502    0  0.00000000000E+00 -0.00000000000E+00 -0.17990173915E+04  0.17990173915E+04  0.00000000000E+00 0.  1.
   -9000010    2    1    2    0  501 -0.66207399440E+03  0.14128809843E+03  0.12576377958E+04  0.17394522674E+04  0.99284292031E+03 0.  0.
    9000010    2    1    2  502    0  0.66207399440E+03 -0.14128809843E+03 -0.13202412855E+04  0.17959790258E+04  0.10120273258E+04 0.  0.
        -13    1    4    4    0    0 -0.16375581364E+03  0.25280988300E+03 -0.36383648821E+03  0.47234077185E+03  0.10566000000E+00 0.  1.
          4    1    4    4  502    0  0.82582980804E+03 -0.39409798143E+03 -0.95640479734E+03  0.13236382539E+04  0.00000000000E+00 0.  1.
         13    1    3    3    0    0 -0.21979730323E+03 -0.40445318981E+03  0.72124006270E+03  0.85561701506E+03  0.10566000000E+00 0. -1.
         -4    1    3    3    0  501 -0.44227669117E+03  0.54574128824E+03  0.53639773308E+03  0.88383525235E+03  0.00000000000E+00 0. -1.
<mgrwt>
<rscale>  0 0.12096058E+04</rscale>
<asrwt>0</asrwt>
<pdfrwt beam="2">  1        4 0.27677191E+00 0.12175810E+04</pdfrwt>
<pdfrwt beam="1">  1       -4 0.26714060E+00 0.12016827E+04</pdfrwt>
<totfact> 0.79549439E-02</totfact>
</mgrwt>
</event>
<event>
 8    1  0.2939692E-006  0.1401946E+04  0.7818608E-02  0.8479522E-01
         -4   -1    0    0    0  501 -0.00000000000E+00  0.00000000000E+00  0.32814634905E+04  0.32814634905E+04  0.00000000000E+00 0. -1.
          4   -1    0    0  502    0  0.00000000000E+00 -0.00000000000E+00 -0.75197046405E+03  0.75197046405E+03  0.00000000000E+00 0.  1.
   -9000010    2    1    2    0  501  0.63585957615E+03 -0.70542577986E+03  0.22308556150E+04  0.26347995169E+04  0.10312656245E+04 0.  0.
    9000010    2    1    2  502    0 -0.63585957615E+03  0.70542577986E+03  0.29863741150E+03  0.13986344376E+04  0.98237012122E+03 0.  0.
        -13    1    4    4    0    0 -0.11221444180E+03  0.18451795382E+03  0.57172520260E+03  0.61115356064E+03  0.10566000000E+00 0.  1.
          4    1    4    4  502    0 -0.52364513435E+03  0.52090782603E+03 -0.27308779110E+03  0.78748087697E+03  0.00000000000E+00 0.  1.
         13    1    3    3    0    0 -0.11231189978E+03  0.13000198086E+03  0.44299782412E+02  0.17741747305E+03  0.10566000000E+00 0. -1.
         -4    1    3    3    0  501  0.74817147593E+03 -0.83542776071E+03  0.21865558325E+04  0.24573820439E+04  0.00000000000E+00 0. -1.
<mgrwt>
<rscale>  0 0.13840486E+04</rscale>
<asrwt>0</asrwt>
<pdfrwt beam="2">  1        4 0.11568777E+00 0.13663799E+04</pdfrwt>
<pdfrwt beam="1">  1       -4 0.50484053E+00 0.14019457E+04</pdfrwt>
<totfact> 0.35164690E-02</totfact>
</mgrwt>
</event>
<event>
 8    1  0.2939692E-006  0.1159152E+04  0.7818608E-02  0.8683478E-01
         -4   -1    0    0    0  501 -0.00000000000E+00  0.00000000000E+00  0.48383644039E+03  0.48383644039E+03  0.00000000000E+00 0. -1.
          4   -1    0    0  502    0  0.00000000000E+00 -0.00000000000E+00 -0.31405103244E+04  0.31405103244E+04  0.00000000000E+00 0.  1.
   -9000010    2    1    2    0  501 -0.27088068112E+03  0.53580098882E+03 -0.57684172334E+03  0.12947510949E+04  0.99155180452E+03 0.  0.
    9000010    2    1    2  502    0  0.27088068112E+03 -0.53580098882E+03 -0.20798321607E+04  0.23295956699E+04  0.86072941475E+03 0.  0.
        -13    1    4    4    0    0  0.54634220534E+03 -0.13570521267E+03 -0.10727760121E+04  0.12115090150E+04  0.10566000000E+00 0.  1.
          4    1    4    4  502    0 -0.27546152423E+03 -0.40009577615E+03 -0.10070561486E+04  0.11180866549E+04  0.00000000000E+00 0.  1.
         13    1    3    3    0    0 -0.45305178444E+03  0.14773699429E+03  0.10629517061E+03  0.48824257631E+03  0.10566000000E+00 0. -1.
         -4    1    3    3    0  501  0.18217110333E+03  0.38806399453E+03 -0.68313689395E+03  0.80650851863E+03  0.00000000000E+00 0. -1.
<mgrwt>
<rscale>  0 0.11029303E+04</rscale>
<asrwt>0</asrwt>
<pdfrwt beam="2">  1        4 0.48315545E+00 0.10494352E+04</pdfrwt>
<pdfrwt beam="1">  1       -4 0.74436374E-01 0.11591523E+04</pdfrwt>
<totfact> 0.10864832E-01</totfact>
</mgrwt>
</event>
<event>
 8    1  0.2939692E-006  0.1106085E+04  0.7818608E-02  0.8683238E-01
          4   -1    0    0  502    0  0.00000000000E+00  0.00000000000E+00  0.13200946809E+04  0.13200946809E+04  0.00000000000E+00 0.  1.
         -4   -1    0    0    0  501 -0.00000000000E+00 -0.00000000000E+00 -0.16344907502E+04  0.16344907502E+04  0.00000000000E+00 0. -1.
   -9000010    2    1    2    0  501 -0.17657580485E+02 -0.45984842639E+03 -0.11328012093E+04  0.15832443400E+04  0.10058089754E+04 0.  0.
    9000010    2    1    2  502    0  0.17657580485E+02  0.45984842639E+03  0.81840514001E+03  0.13713410910E+04  0.99950840383E+03 0.  0.
        -13    1    4    4    0    0  0.11931676474E+03  0.73026733820E+03  0.78782536905E+03  0.10808310223E+04  0.10566000000E+00 0.  1.
          4    1    4    4  502    0 -0.10165918425E+03 -0.27041891181E+03  0.30579770960E+02  0.29051006867E+03  0.00000000000E+00 0.  1.
         13    1    3    3    0    0 -0.15217131640E+03 -0.35413469087E+03 -0.12927796904E+04  0.13490169858E+04  0.10566000000E+00 0. -1.
         -4    1    3    3    0  501  0.13451373592E+03 -0.10571373552E+03  0.15997848114E+03  0.23422735420E+03  0.00000000000E+00 0. -1.
<mgrwt>
<rscale>  0 0.11032182E+04</rscale>
<asrwt>0</asrwt>
<pdfrwt beam="1">  1        4 0.20309149E+00 0.11003588E+04</pdfrwt>
<pdfrwt beam="2">  1       -4 0.25146011E+00 0.11060850E+04</pdfrwt>
<totfact> 0.13232588E-01</totfact>
</mgrwt>
</event>
<event>
 8    1  0.2939692E-006  0.1257519E+04  0.7818608E-02  0.8566042E-01
         -4   -1    0    0    0  501 -0.00000000000E+00  0.00000000000E+00  0.22775761373E+04  0.22775761373E+04  0.00000000000E+00 0. -1.
          4   -1    0    0  502    0  0.00000000000E+00 -0.00000000000E+00 -0.17730149919E+04  0.17730149919E+04  0.00000000000E+00 0.  1.
   -9000010    2    1    2    0  501  0.21635076722E+02 -0.75796577107E+03  0.18336228183E+04  0.22209029507E+04  0.99762572637E+03 0.  0.
    9000010    2    1    2  502    0 -0.21635076722E+02  0.75796577107E+03 -0.13290616730E+04  0.18296881785E+04  0.10031817948E+04 0.  0.
        -13    1    4    4    0    0  0.24277597173E+03  0.39694406084E+03 -0.13005587570E+04  0.13812884751E+04  0.10566000000E+00 0.  1.
          4    1    4    4  502    0 -0.26441104845E+03  0.36102171022E+03 -0.28502915935E+02  0.44839970340E+03  0.00000000000E+00 0.  1.
         13    1    3    3    0    0  0.24295324752E+03 -0.73087681406E+03  0.18432834093E+04  0.19977239388E+04  0.10566000000E+00 0. -1.
         -4    1    3    3    0  501 -0.22131817080E+03 -0.27088957005E+02 -0.96605909419E+01  0.22317901186E+03  0.00000000000E+00 0. -1.
<mgrwt>
<rscale>  0 0.12553031E+04</rscale>
<asrwt>0</asrwt>
<pdfrwt beam="2">  1        4 0.27277154E+00 0.12575189E+04</pdfrwt>
<pdfrwt beam="1">  1       -4 0.35039633E+00 0.12530911E+04</pdfrwt>
<totfact> 0.47471355E-02</totfact>
</mgrwt>
</event>
<event>
 8    1  0.2939692E-006  0.1110395E+04  0.7818608E-02  0.8702253E-01
          4   -1    0    0  502    0  0.00000000000E+00  0.00000000000E+00  0.55622958941E+03  0.55622958941E+03  0.00000000000E+00 0.  1.
         -4   -1    0    0    0  501 -0.00000000000E+00 -0.00000000000E+00 -0.29411609721E+04  0.29411609721E+04  0.00000000000E+00 0. -1.
   -9000010    2    1    2    0  501  0.19220671411E+03  0.43387100731E+03 -0.21036168882E+04  0.23519146765E+04  0.93867521610E+03 0.  0.
    9000010    2    1    2  502    0 -0.19220671411E+03 -0.43387100731E+03 -0.28131449454E+03  0.11454758851E+04  0.10038872877E+04 0.  0.
        -13    1    4    4    0    0 -0.19334146551E+03  0.98696013186E+02 -0.51877960181E+03  0.56236474971E+03  0.10566000000E+00 0.  1.
          4    1    4    4  502    0  0.11347513927E+01 -0.53256702050E+03  0.23746510727E+03  0.58311113534E+03  0.00000000000E+00 0.  1.
         13    1    3    3    0    0 -0.16540186072E+03  0.23787758202E+03 -0.98904990411E+02  0.30614657903E+03  0.10566000000E+00 0. -1.
         -4    1    3    3    0  501  0.35760857483E+03  0.19599342529E+03 -0.20047118978E+04  0.20457680975E+04  0.00000000000E+00 0. -1.
<mgrwt>
<rscale>  0 0.10807042E+04</rscale>
<asrwt>0</asrwt>
<pdfrwt beam="1">  1        4 0.85573784E-01 0.11103950E+04</pdfrwt>
<pdfrwt beam="2">  1       -4 0.45248630E+00 0.10518073E+04</pdfrwt>
<totfact> 0.11383630E-01</totfact>
</mgrwt>
</event>
<event>
 8    1  0.2939692E-006  0.1930236E+04  0.7818608E-02  0.8199475E-01
          4   -1    0    0  502    0  0.00000000000E+00  0.00000000000E+00  0.19787366067E+04  0.19787366067E+04  0.00000000000E+00 0. -1.
         -4   -1    0    0    0  501 -0.00000000000E+00 -0.00000000000E+00 -0.19085402912E+04  0.19085402912E+04  0.00000000000E+00 0.  1.
   -9000010    2    1    2    0  501  0.39600051767E+03 -0.16009489102E+04 -0.22856194036E+03  0.19340570674E+04  0.98411501166E+03 0.  0.
    9000010    2    1    2  502    0 -0.39600051767E+03  0.16009489102E+04  0.29875825587E+03  0.19532198305E+04  0.10029742707E+04 0.  0.
        -13    1    4    4    0    0  0.12194155795E+03 -0.85948521935E+02 -0.44164369785E+02  0.15558725752E+03  0.10566000000E+00 0.  1.
          4    1    4    4  502    0 -0.51794207563E+03  0.16868974321E+04  0.34292262565E+03  0.17976325730E+04  0.00000000000E+00 0.  1.
         13    1    3    3    0    0  0.34372572560E+03 -0.17210681078E+04 -0.11186745302E+03  0.17586179643E+04  0.10566000000E+00 0. -1.
         -4    1    3    3    0  501  0.52274792079E+02  0.12011919759E+03 -0.11669448734E+03  0.17543910309E+03  0.00000000000E+00 0. -1.
<mgrwt>
<rscale>  0 0.19253640E+04</rscale>
<asrwt>0</asrwt>
<pdfrwt beam="1">  1        4 0.30442102E+00 0.19302361E+04</pdfrwt>
<pdfrwt beam="2">  1       -4 0.29362158E+00 0.19205041E+04</pdfrwt>
<totfact> 0.54157117E-02</totfact>
</mgrwt>
</event>
<event>
 8    1  0.2939692E-006  0.1296604E+04  0.7818608E-02  0.8546897E-01
          4   -1    0    0  502    0  0.00000000000E+00  0.00000000000E+00  0.13332729718E+04  0.13332729718E+04  0.00000000000E+00 0.  1.
         -4   -1    0    0    0  501 -0.00000000000E+00 -0.00000000000E+00 -0.25959095845E+04  0.25959095845E+04  0.00000000000E+00 0. -1.
   -9000010    2    1    2    0  501  0.64607308890E+03 -0.46442770867E+03 -0.20576454228E+04  0.24320952836E+04  0.10237574174E+04 0.  0.
    9000010    2    1    2  502    0 -0.64607308890E+03  0.46442770867E+03  0.79500881004E+03  0.14970872727E+04  0.98799178193E+03 0.  0.
        -13    1    4    4    0    0 -0.93876298495E+02  0.39376456390E+03 -0.12334448786E+03  0.42317509975E+03  0.10566000000E+00 0.  1.
          4    1    4    4  502    0 -0.55219679041E+03  0.70663144774E+02  0.91835329790E+03  0.10739121729E+04  0.00000000000E+00 0.  1.
         13    1    3    3    0    0 -0.17577650922E+03 -0.39762076812E+03 -0.45221499063E+03  0.62729424144E+03  0.10566000000E+00 0. -1.
         -4    1    3    3    0  501  0.82184959812E+03 -0.66806940555E+02 -0.16054304321E+04  0.18048010421E+04  0.00000000000E+00 0. -1.
<mgrwt>
<rscale>  0 0.12825029E+04</rscale>
<asrwt>0</asrwt>
<pdfrwt beam="1">  1        4 0.20511892E+00 0.12685548E+04</pdfrwt>
<pdfrwt beam="2">  1       -4 0.39937071E+00 0.12966043E+04</pdfrwt>
<totfact> 0.45556830E-02</totfact>
</mgrwt>
</event>
<event>
 8    1  0.2939692E-006  0.1002053E+04  0.7818608E-02  0.8773678E-01
          4   -1    0    0  502    0  0.00000000000E+00  0.00000000000E+00  0.68078846870E+03  0.68078846870E+03  0.00000000000E+00 0.  1.
         -4   -1    0    0    0  501 -0.00000000000E+00 -0.00000000000E+00 -0.20386207548E+04  0.20386207548E+04  0.00000000000E+00 0. -1.
   -9000010    2    1    2    0  501  0.27966569508E+02 -0.22697927836E+03 -0.13964467430E+04  0.17187708775E+04  0.97560653015E+03 0.  0.
    9000010    2    1    2  502    0 -0.27966569508E+02  0.22697927836E+03  0.38614456864E+02  0.10006383460E+04  0.97338805281E+03 0.  0.
        -13    1    4    4    0    0 -0.62835803028E+02 -0.38175079273E+03 -0.24439603705E+02  0.38765875623E+03  0.10566000000E+00 0.  1.
          4    1    4    4  502    0  0.34869233521E+02  0.60873007108E+03  0.63054060569E+02  0.61297958974E+03  0.00000000000E+00 0.  1.
         13    1    3    3    0    0 -0.36887218637E+03  0.19690700585E+03 -0.65369717046E+03  0.77598908540E+03  0.10566000000E+00 0. -1.
         -4    1    3    3    0  501  0.39683875587E+03 -0.42388628421E+03 -0.74274957251E+03  0.94278179213E+03  0.00000000000E+00 0. -1.
<mgrwt>
<rscale>  0 0.10009723E+04</rscale>
<asrwt>0</asrwt>
<pdfrwt beam="1">  1        4 0.10473669E+00 0.99989301E+03</pdfrwt>
<pdfrwt beam="2">  1       -4 0.31363395E+00 0.10020528E+04</pdfrwt>
<totfact> 0.25333872E-01</totfact>
</mgrwt>
</event>
<event>
 8    1  0.2939692E-006  0.1181303E+04  0.7818608E-02  0.8630937E-01
          4   -1    0    0  502    0  0.00000000000E+00  0.00000000000E+00  0.11789507173E+04  0.11789507173E+04  0.00000000000E+00 0.  1.
         -4   -1    0    0    0  501 -0.00000000000E+00 -0.00000000000E+00 -0.33286767698E+04  0.33286767698E+04  0.00000000000E+00 0. -1.
   -9000010    2    1    2    0  501  0.30439937822E+03  0.48998223731E+03 -0.28992093671E+04  0.31306377098E+04  0.10308908483E+04 0.  0.
    9000010    2    1    2  502    0 -0.30439937822E+03 -0.48998223731E+03  0.74948331468E+03  0.13769897773E+04  0.10008166833E+04 0.  0.
        -13    1    4    4    0    0 -0.46709724530E+03  0.66715341803E+02  0.59422165134E+02  0.47556469410E+03  0.10566000000E+00 0.  1.
          4    1    4    4  502    0  0.16269786708E+03 -0.55669757911E+03  0.69006114955E+03  0.90142508322E+03  0.00000000000E+00 0.  1.
         13    1    3    3    0    0  0.64469072860E+03  0.26692659831E+03 -0.23210045146E+04  0.24236208269E+04  0.10566000000E+00 0. -1.
         -4    1    3    3    0  501 -0.34029135038E+03  0.22305563900E+03 -0.57820485250E+03  0.70701688289E+03  0.00000000000E+00 0. -1.
<mgrwt>
<rscale>  0 0.11681544E+04</rscale>
<asrwt>0</asrwt>
<pdfrwt beam="1">  1        4 0.18137704E+00 0.11551518E+04</pdfrwt>
<pdfrwt beam="2">  1       -4 0.51210411E+00 0.11813033E+04</pdfrwt>
<totfact> 0.16788867E-02</totfact>
</mgrwt>
</event>
<event>
 8    1  0.2939692E-006  0.1116962E+04  0.7818608E-02  0.8671960E-01
          4   -1    0    0  502    0  0.00000000000E+00  0.00000000000E+00  0.75564550840E+03  0.75564550840E+03  0.00000000000E+00 0.  1.
         -4   -1    0    0    0  501 -0.00000000000E+00 -0.00000000000E+00 -0.22999142719E+04  0.22999142719E+04  0.00000000000E+00 0. -1.
   -9000010    2    1    2    0  501 -0.40119615984E+03 -0.31150465933E+03 -0.15839100024E+04  0.19381368380E+04  0.99479143332E+03 0.  0.
    9000010    2    1    2  502    0  0.40119615984E+03  0.31150465933E+03  0.39641238845E+02  0.11174229423E+04  0.99451952857E+03 0.  0.
        -13    1    4    4    0    0  0.49897256400E+03  0.13415940639E+03  0.43355966258E+03  0.67449711498E+03  0.10566000000E+00 0.  1.
          4    1    4    4  502    0 -0.97776404158E+02  0.17734525294E+03 -0.39391842373E+03  0.44292582732E+03  0.00000000000E+00 0.  1.
         13    1    3    3    0    0 -0.41187922372E+03 -0.53712706799E+03 -0.15724823484E+04  0.17119727595E+04  0.10566000000E+00 0. -1.
         -4    1    3    3    0  501  0.10683063881E+02  0.22562240866E+03 -0.11427653997E+02  0.22616407853E+03  0.00000000000E+00 0. -1.
<mgrwt>
<rscale>  0 0.11168406E+04</rscale>
<asrwt>0</asrwt>
<pdfrwt beam="1">  1        4 0.11625315E+00 0.11167196E+04</pdfrwt>
<pdfrwt beam="2">  1       -4 0.35383297E+00 0.11169617E+04</pdfrwt>
<totfact> 0.15819767E-01</totfact>
</mgrwt>
</event>
<event>
 8    1  0.2939692E-006  0.1084673E+04  0.7818608E-02  0.8750619E-01
          4   -1    0    0  502    0  0.00000000000E+00  0.00000000000E+00  0.93771511184E+03  0.93771511184E+03  0.00000000000E+00 0.  1.
         -4   -1    0    0    0  501 -0.00000000000E+00 -0.00000000000E+00 -0.25004168827E+04  0.25004168827E+04  0.00000000000E+00 0. -1.
   -9000010    2    1    2    0  501  0.39690846186E+03 -0.16220053402E+03 -0.20746060962E+04  0.23410480063E+04  0.99632824575E+03 0.  0.
    9000010    2    1    2  502    0 -0.39690846186E+03  0.16220053402E+03  0.51190432536E+03  0.10970839882E+04  0.87046073919E+03 0.  0.
        -13    1    4    4    0    0 -0.49107719407E+03 -0.19743847015E+03  0.93670834544E+02  0.53750627572E+03  0.10566000000E+00 0.  1.
          4    1    4    4  502    0  0.94168732201E+02  0.35963900417E+03  0.41823349081E+03  0.55957771246E+03  0.00000000000E+00 0.  1.
         13    1    3    3    0    0 -0.75269504610E+02 -0.76006940504E+02  0.80032153286E+02  0.13359532197E+03  0.10566000000E+00 0. -1.
         -4    1    3    3    0  501  0.47217796647E+03 -0.86193593519E+02 -0.21546382495E+04  0.22074526844E+04  0.00000000000E+00 0. -1.
<mgrwt>
<rscale>  0 0.10259116E+04</rscale>
<asrwt>0</asrwt>
<pdfrwt beam="1">  1        4 0.14426386E+00 0.97033357E+03</pdfrwt>
<pdfrwt beam="2">  1       -4 0.38467952E+00 0.10846729E+04</pdfrwt>
<totfact> 0.86417767E-02</totfact>
</mgrwt>
</event>
<event>
 8    1  0.2939692E-006  0.1216677E+04  0.7818608E-02  0.8596987E-01
         -4   -1    0    0    0  501 -0.00000000000E+00  0.00000000000E+00  0.18989540041E+04  0.18989540041E+04  0.00000000000E+00 0. -1.
          4   -1    0    0  502    0  0.00000000000E+00 -0.00000000000E+00 -0.79026893257E+03  0.79026893257E+03  0.00000000000E+00 0.  1.
   -9000010    2    1    2    0  501 -0.31839612334E+03 -0.61376607002E+03  0.74552131694E+03  0.14269216782E+04  0.10011086662E+04 0.  0.
    9000010    2    1    2  502    0  0.31839612334E+03  0.61376607002E+03  0.36316375455E+03  0.12623012585E+04  0.99168123630E+03 0.  0.
        -13    1    4    4    0    0  0.26092816081E+03  0.82152781538E+03  0.50993861181E+03  0.10015132827E+04  0.10566000000E+00 0.  1.
          4    1    4    4  502    0  0.57467962528E+02 -0.20776174536E+03 -0.14677485726E+03  0.26078797571E+03  0.00000000000E+00 0.  1.
         13    1    3    3    0    0  0.24476164023E+03 -0.19699373440E+03 -0.99193067842E+02  0.32947544338E+03  0.10566000000E+00 0. -1.
         -4    1    3    3    0  501 -0.56315776356E+03 -0.41677233562E+03  0.84471438479E+03  0.10974462348E+04  0.00000000000E+00 0. -1.
<mgrwt>
<rscale>  0 0.12127984E+04</rscale>
<asrwt>0</asrwt>
<pdfrwt beam="2">  1        4 0.12157984E+00 0.12089320E+04</pdfrwt>
<pdfrwt beam="1">  1       -4 0.29214677E+00 0.12166772E+04</pdfrwt>
<totfact> 0.22061022E-01</totfact>
</mgrwt>
</event>
<event>
 8    1  0.2939692E-006  0.1182748E+04  0.7818608E-02  0.8620712E-01
          4   -1    0    0  502    0  0.00000000000E+00  0.00000000000E+00  0.19734630999E+04  0.19734630999E+04  0.00000000000E+00 0.  1.
         -4   -1    0    0    0  501 -0.00000000000E+00 -0.00000000000E+00 -0.16331290204E+04  0.16331290204E+04  0.00000000000E+00 0. -1.
   -9000010    2    1    2    0  501  0.22579324177E+03 -0.59490502083E+03 -0.11877324062E+04  0.16742671690E+04  0.99376441506E+03 0.  0.
    9000010    2    1    2  502    0 -0.22579324177E+03  0.59490502083E+03  0.15280664856E+04  0.19323249513E+04  0.99699446386E+03 0.  0.
        -13    1    4    4    0    0 -0.46998519794E+03 -0.16950869040E+02  0.93186434022E+03  0.10438125205E+04  0.10566000000E+00 0.  1.
          4    1    4    4  502    0  0.24419195617E+03  0.61185588987E+03  0.59620214542E+03  0.88851243077E+03  0.00000000000E+00 0.  1.
         13    1    3    3    0    0  0.30205452836E+03 -0.11394380183E+03  0.65799776072E+02  0.32946889045E+03  0.10566000000E+00 0. -1.
         -4    1    3    3    0  501 -0.76261286592E+02 -0.48096121899E+03 -0.12535321823E+04  0.13447982785E+04  0.00000000000E+00 0. -1.
<mgrwt>
<rscale>  0 0.11813863E+04</rscale>
<asrwt>0</asrwt>
<pdfrwt beam="1">  1        4 0.30360971E+00 0.11827479E+04</pdfrwt>
<pdfrwt beam="2">  1       -4 0.25125062E+00 0.11800264E+04</pdfrwt>
<totfact> 0.73668802E-02</totfact>
</mgrwt>
</event>
<event>
 8    1  0.2939692E-006  0.1094594E+04  0.7818608E-02  0.8694115E-01
         -4   -1    0    0    0  501 -0.00000000000E+00  0.00000000000E+00  0.93805286906E+03  0.93805286906E+03  0.00000000000E+00 0. -1.
          4   -1    0    0  502    0  0.00000000000E+00 -0.00000000000E+00 -0.15532207715E+04  0.15532207715E+04  0.00000000000E+00 0.  1.
   -9000010    2    1    2    0  501 -0.44692242855E+03 -0.89350772628E+02  0.22793166360E+03  0.11096248701E+04  0.98569330487E+03 0.  0.
    9000010    2    1    2  502    0  0.44692242855E+03  0.89350772628E+02 -0.84309956608E+03  0.13816487705E+04  0.99519507087E+03 0.  0.
        -13    1    4    4    0    0 -0.27701384406E+03  0.18043963164E+03 -0.11279933929E+03  0.34931194165E+03  0.10566000000E+00 0.  1.
          4    1    4    4  502    0  0.72393627261E+03 -0.91088859014E+02 -0.73030022679E+03  0.10323368289E+04  0.00000000000E+00 0.  1.
         13    1    3    3    0    0 -0.42883034823E+03  0.39117367369E+03  0.24123712918E+03  0.62857590967E+03  0.10566000000E+00 0. -1.
         -4    1    3    3    0  501 -0.18092080321E+02 -0.48052444632E+03 -0.13305465575E+02  0.48104896039E+03  0.00000000000E+00 0. -1.
<mgrwt>
<rscale>  0 0.10902698E+04</rscale>
<asrwt>0</asrwt>
<pdfrwt beam="2">  1        4 0.23895704E+00 0.10945942E+04</pdfrwt>
<pdfrwt beam="1">  1       -4 0.14431583E+00 0.10859625E+04</pdfrwt>
<totfact> 0.22772243E-01</totfact>
</mgrwt>
</event>
<event>
 8    1  0.2939692E-006  0.1123952E+04  0.7818608E-02  0.8667395E-01
         -4   -1    0    0    0  501 -0.00000000000E+00  0.00000000000E+00  0.25503340730E+04  0.25503340730E+04  0.00000000000E+00 0. -1.
          4   -1    0    0  502    0  0.00000000000E+00 -0.00000000000E+00 -0.49674572053E+03  0.49674572053E+03  0.00000000000E+00 0.  1.
   -9000010    2    1    2    0  501  0.19834855779E+03  0.46173967986E+03  0.91172239958E+03  0.14448541478E+04  0.10019082255E+04 0.  0.
    9000010    2    1    2  502    0 -0.19834855779E+03 -0.46173967986E+03  0.11418659529E+04  0.16022256457E+04  0.10053474440E+04 0.  0.
        -13    1    4    4    0    0 -0.46245972202E+03 -0.58838205489E+03  0.10609747806E+04  0.12983566279E+04  0.10566000000E+00 0.  1.
          4    1    4    4  502    0  0.26411116423E+03  0.12664237503E+03  0.80891172285E+02  0.30386901780E+03  0.00000000000E+00 0.  1.
         13    1    3    3    0    0  0.37505743619E+03  0.16257810785E+03  0.10051217352E+04  0.10850665580E+04  0.10566000000E+00 0. -1.
         -4    1    3    3    0  501 -0.17670887840E+03  0.29916157200E+03 -0.93399335640E+02  0.35978758979E+03  0.00000000000E+00 0. -1.
<mgrwt>
<rscale>  0 0.11224138E+04</rscale>
<asrwt>0</asrwt>
<pdfrwt beam="2">  1        4 0.76422420E-01 0.11239525E+04</pdfrwt>
<pdfrwt beam="1">  1       -4 0.39235908E+00 0.11208772E+04</pdfrwt>
<totfact> 0.25714051E-01</totfact>
</mgrwt>
</event>
<event>
 8    1  0.2939692E-006  0.1262709E+04  0.7818608E-02  0.8564910E-01
          4   -1    0    0  502    0  0.00000000000E+00  0.00000000000E+00  0.25227395276E+04  0.25227395276E+04  0.00000000000E+00 0.  1.
         -4   -1    0    0    0  501 -0.00000000000E+00 -0.00000000000E+00 -0.24955125472E+04  0.24955125472E+04  0.00000000000E+00 0. -1.
   -9000010    2    1    2    0  501 -0.68388630328E+02 -0.77441600599E+03 -0.21579673816E+04  0.25002514601E+04  0.99500602444E+03 0.  0.
    9000010    2    1    2  502    0  0.68388630328E+02  0.77441600599E+03  0.21851943620E+04  0.25180006148E+04  0.98023239155E+03 0.  0.
        -13    1    4    4    0    0  0.43635298052E+02 -0.20994989577E+03  0.73091212819E+03  0.76171881182E+03  0.10566000000E+00 0.  1.
          4    1    4    4  502    0  0.24753332276E+02  0.98436590176E+03  0.14542822338E+04  0.17562818030E+04  0.00000000000E+00 0.  1.
         13    1    3    3    0    0  0.53098435124E+02 -0.92747930825E+03 -0.21001735596E+04  0.22964682237E+04  0.10566000000E+00 0. -1.
         -4    1    3    3    0  501 -0.12148706545E+03  0.15306330226E+03 -0.57793822014E+02  0.20378323639E+03  0.00000000000E+00 0. -1.
<mgrwt>
<rscale>  0 0.12568914E+04</rscale>
<asrwt>0</asrwt>
<pdfrwt beam="1">  1        4 0.38811378E+00 0.12511006E+04</pdfrwt>
<pdfrwt beam="2">  1       -4 0.38392501E+00 0.12627090E+04</pdfrwt>
<totfact> 0.15687648E-02</totfact>
</mgrwt>
</event>
<event>
 8    1  0.2939692E-006  0.1498989E+04  0.7818608E-02  0.8411051E-01
          4   -1    0    0  502    0  0.00000000000E+00  0.00000000000E+00  0.50366712093E+04  0.50366712093E+04  0.00000000000E+00 0.  1.
         -4   -1    0    0    0  501 -0.00000000000E+00 -0.00000000000E+00 -0.50340661289E+03  0.50340661289E+03  0.00000000000E+00 0. -1.
   -9000010    2    1    2    0  501 -0.26771718550E+03  0.10898268632E+04  0.13263263270E+04  0.20015265450E+04  0.99376652256E+03 0.  0.
    9000010    2    1    2  502    0  0.26771718550E+03 -0.10898268632E+04  0.32069382694E+04  0.35385512772E+04  0.98868447668E+03 0.  0.
        -13    1    4    4    0    0  0.51139520522E+03 -0.29544395154E+03  0.81572610030E+03  0.10070855308E+04  0.10566000000E+00 0.  1.
          4    1    4    4  502    0 -0.24367801972E+03 -0.79438291168E+03  0.23912121691E+04  0.25314657464E+04  0.00000000000E+00 0.  1.
         13    1    3    3    0    0  0.28730189080E+03  0.10081982258E+03  0.54516833674E+03  0.62443217376E+03  0.10566000000E+00 0. -1.
         -4    1    3    3    0  501 -0.55501907630E+03  0.98900704065E+03  0.78115799026E+03  0.13770943712E+04  0.00000000000E+00 0. -1.
<mgrwt>
<rscale>  0 0.14973055E+04</rscale>
<asrwt>0</asrwt>
<pdfrwt beam="1">  1        4 0.77487246E+00 0.14956243E+04</pdfrwt>
<pdfrwt beam="2">  1       -4 0.77447175E-01 0.14989887E+04</pdfrwt>
<totfact> 0.25350014E-03</totfact>
</mgrwt>
</event>
<event>
 8    1  0.2939692E-006  0.1148806E+04  0.7818608E-02  0.8649392E-01
          4   -1    0    0  502    0  0.00000000000E+00  0.00000000000E+00  0.10536393556E+04  0.10536393556E+04  0.00000000000E+00 0. -1.
         -4   -1    0    0    0  501 -0.00000000000E+00 -0.00000000000E+00 -0.13764551914E+04  0.13764551914E+04  0.00000000000E+00 0.  1.
   -9000010    2    1    2    0  501 -0.54712133507E+03  0.76403218027E+02 -0.53927784304E+03  0.12690843158E+04  0.10072612380E+04 0.  0.
    9000010    2    1    2  502    0  0.54712133507E+03 -0.76403218027E+02  0.21646200719E+03  0.11610102312E+04  0.99795277915E+03 0.  0.
        -13    1    4    4    0    0 -0.32821520489E+02  0.37428003929E+03 -0.51404090148E+02  0.37921654983E+03  0.10566000000E+00 0.  1.
          4    1    4    4  502    0  0.57994285556E+03 -0.45068325732E+03  0.26786609734E+03  0.78179368138E+03  0.00000000000E+00 0.  1.
         13    1    3    3    0    0 -0.25114861179E+03 -0.45467257115E+03 -0.37078147678E+03  0.63818624778E+03  0.10566000000E+00 0. -1.
         -4    1    3    3    0  501 -0.29597272328E+03  0.53107578918E+03 -0.16849636626E+03  0.63089806801E+03  0.00000000000E+00 0. -1.
<mgrwt>
<rscale>  0 0.11447220E+04</rscale>
<asrwt>0</asrwt>
<pdfrwt beam="1">  1        4 0.16209836E+00 0.11406529E+04</pdfrwt>
<pdfrwt beam="2">  1       -4 0.21176234E+00 0.11488056E+04</pdfrwt>
<totfact> 0.22452576E-01</totfact>
</mgrwt>
</event>
<event>
 8    1  0.2939692E-006  0.1326183E+04  0.7818608E-02  0.8524829E-01
         -4   -1    0    0    0  501 -0.00000000000E+00  0.00000000000E+00  0.22713919770E+04  0.22713919770E+04  0.00000000000E+00 0. -1.
          4   -1    0    0  502    0  0.00000000000E+00 -0.00000000000E+00 -0.84082819497E+03  0.84082819497E+03  0.00000000000E+00 0.  1.
   -9000010    2    1    2    0  501 -0.60001263566E+02  0.83142429341E+03  0.12001481033E+04  0.17886077162E+04  0.10314531426E+04 0.  0.
    9000010    2    1    2  502    0  0.60001263566E+02 -0.83142429341E+03  0.23041567876E+03  0.13236124557E+04  0.10019940323E+04 0.  0.
        -13    1    4    4    0    0 -0.10429343001E+03  0.33761776195E+02 -0.28351717483E+03  0.30397199980E+03  0.10566000000E+00 0.  1.
          4    1    4    4  502    0  0.16429469358E+03 -0.86518606961E+03  0.51393285359E+03  0.10196404559E+04  0.00000000000E+00 0.  1.
         13    1    3    3    0    0 -0.49070519312E+00  0.21790358886E+03 -0.17639806827E+03  0.28035424820E+03  0.10566000000E+00 0. -1.
         -4    1    3    3    0  501 -0.59510558372E+02  0.61352070455E+03  0.13765461715E+04  0.15082534680E+04  0.00000000000E+00 0. -1.
<mgrwt>
<rscale>  0 0.13147436E+04</rscale>
<asrwt>0</asrwt>
<pdfrwt beam="2">  1        4 0.12935818E+00 0.13034027E+04</pdfrwt>
<pdfrwt beam="1">  1       -4 0.34944492E+00 0.13261833E+04</pdfrwt>
<totfact> 0.13526403E-01</totfact>
</mgrwt>
</event>
<event>
 8    1  0.2939692E-006  0.1259233E+04  0.7818608E-02  0.8563424E-01
         -4   -1    0    0    0  501 -0.00000000000E+00  0.00000000000E+00  0.15579782869E+04  0.15579782869E+04  0.00000000000E+00 0. -1.
          4   -1    0    0  502    0  0.00000000000E+00 -0.00000000000E+00 -0.15986953326E+04  0.15986953326E+04  0.00000000000E+00 0.  1.
   -9000010    2    1    2    0  501  0.75074260748E+03  0.97288855868E+02  0.93140542078E+03  0.15658590772E+04  0.10056435788E+04 0.  0.
    9000010    2    1    2  502    0 -0.75074260748E+03 -0.97288855868E+02 -0.97212246654E+03  0.15908145423E+04  0.10062749296E+04 0.  0.
        -13    1    4    4    0    0 -0.89723127516E+03 -0.31587722355E+03 -0.56591088992E+03  0.11068231692E+04  0.10566000000E+00 0.  1.
          4    1    4    4  502    0  0.14648866768E+03  0.21858836768E+03 -0.40621157663E+03  0.48399137309E+03  0.00000000000E+00 0.  1.
         13    1    3    3    0    0  0.23071503327E+03 -0.43920454214E+03  0.25412435654E+03  0.55741300322E+03  0.10566000000E+00 0. -1.
         -4    1    3    3    0  501  0.52002757421E+03  0.53649339801E+03  0.67728106424E+03  0.10084460739E+04  0.00000000000E+00 0. -1.
<mgrwt>
<rscale>  0 0.12589812E+04</rscale>
<asrwt>0</asrwt>
<pdfrwt beam="2">  1        4 0.24595313E+00 0.12592334E+04</pdfrwt>
<pdfrwt beam="1">  1       -4 0.23968897E+00 0.12587290E+04</pdfrwt>
<totfact> 0.10905387E-01</totfact>
</mgrwt>
</event>
<event>
 8    1  0.2939692E-006  0.1243492E+04  0.7818608E-02  0.8576470E-01
          4   -1    0    0  502    0  0.00000000000E+00  0.00000000000E+00  0.19750401918E+04  0.19750401918E+04  0.00000000000E+00 0.  1.
         -4   -1    0    0    0  501 -0.00000000000E+00 -0.00000000000E+00 -0.39640779449E+04  0.39640779449E+04  0.00000000000E+00 0. -1.
   -9000010    2    1    2    0  501 -0.74537657001E+03 -0.91336599897E+00 -0.36565686049E+04  0.38622230511E+04  0.99533203939E+03 0.  0.
    9000010    2    1    2  502    0  0.74537657001E+03  0.91336599897E+00  0.16675308517E+04  0.20768950856E+04  0.98855803578E+03 0.  0.
        -13    1    4    4    0    0 -0.78648982882E+02 -0.60863699961E+00  0.10352730292E+04  0.10382563696E+04  0.10566000000E+00 0.  1.
          4    1    4    4  502    0  0.82402555289E+03  0.15220029986E+01  0.63225782250E+03  0.10386387160E+04  0.00000000000E+00 0.  1.
         13    1    3    3    0    0  0.19189251869E+03 -0.78415471314E+02 -0.14334258746E+04  0.14483374862E+04  0.10566000000E+00 0. -1.
         -4    1    3    3    0  501 -0.93726908870E+03  0.77502105315E+02 -0.22231427303E+04  0.24138855648E+04  0.00000000000E+00 0. -1.
<mgrwt>
<rscale>  0 0.12407815E+04</rscale>
<asrwt>0</asrwt>
<pdfrwt beam="1">  1        4 0.30385234E+00 0.12380768E+04</pdfrwt>
<pdfrwt beam="2">  1       -4 0.60985813E+00 0.12434922E+04</pdfrwt>
<totfact> 0.24988828E-03</totfact>
</mgrwt>
</event>
<event>
 8    1  0.2939692E-006  0.1168037E+04  0.7818608E-02  0.8640201E-01
         -4   -1    0    0    0  501 -0.00000000000E+00  0.00000000000E+00  0.11504803012E+04  0.11504803012E+04  0.00000000000E+00 0. -1.
          4   -1    0    0  502    0  0.00000000000E+00 -0.00000000000E+00 -0.12320137462E+04  0.12320137462E+04  0.00000000000E+00 0.  1.
   -9000010    2    1    2    0  501 -0.54912439533E+03 -0.14621352340E+03  0.24296492446E+03  0.11702195030E+04  0.99371310481E+03 0.  0.
    9000010    2    1    2  502    0  0.54912439533E+03  0.14621352340E+03 -0.32449836943E+03  0.12122745444E+04  0.10204873264E+04 0.  0.
        -13    1    4    4    0    0  0.66845435309E+03  0.47374320486E+03 -0.21905268376E+03  0.84808486353E+03  0.10566000000E+00 0.  1.
          4    1    4    4  502    0 -0.11932995776E+03 -0.32752968146E+03 -0.10544568568E+03  0.36418968092E+03  0.00000000000E+00 0.  1.
         13    1    3    3    0    0 -0.10160737009E+03  0.40576561797E+03  0.18463114624E+03  0.45722911731E+03  0.10566000000E+00 0. -1.
         -4    1    3    3    0  501 -0.44751702524E+03 -0.55197914137E+03  0.58333778219E+02  0.71299038568E+03  0.00000000000E+00 0. -1.
<mgrwt>
<rscale>  0 0.11563192E+04</rscale>
<asrwt>0</asrwt>
<pdfrwt beam="2">  1        4 0.18954058E+00 0.11680370E+04</pdfrwt>
<pdfrwt beam="1">  1       -4 0.17699697E+00 0.11447191E+04</pdfrwt>
<totfact> 0.22941879E-01</totfact>
</mgrwt>
</event>
<event>
 8    1  0.2939692E-006  0.1153746E+04  0.7818608E-02  0.8642461E-01
         -4   -1    0    0    0  501 -0.00000000000E+00  0.00000000000E+00  0.30813431901E+04  0.30813431901E+04  0.00000000000E+00 0. -1.
          4   -1    0    0  502    0  0.00000000000E+00 -0.00000000000E+00 -0.94159695463E+03  0.94159695463E+03  0.00000000000E+00 0.  1.
   -9000010    2    1    2    0  501  0.54877726788E+03 -0.15737954824E+03  0.25498412825E+04  0.27984777634E+04  0.10019293460E+04 0.  0.
    9000010    2    1    2  502    0 -0.54877726788E+03  0.15737954824E+03 -0.41009504698E+03  0.12244623814E+04  0.10025993038E+04 0.  0.
        -13    1    4    4    0    0 -0.80349181256E+01 -0.13663952171E+03 -0.57189263111E+03  0.58804431082E+03  0.10566000000E+00 0.  1.
          4    1    4    4  502    0 -0.54074234976E+03  0.29401906995E+03  0.16179758413E+03  0.63641807057E+03  0.00000000000E+00 0.  1.
         13    1    3    3    0    0  0.42882025869E+03  0.22241593897E+03  0.44667931847E+03  0.65793471476E+03  0.10566000000E+00 0. -1.
         -4    1    3    3    0  501  0.11995700919E+03 -0.37979548721E+03  0.21031619640E+04  0.21405430486E+04  0.00000000000E+00 0. -1.
<mgrwt>
<rscale>  0 0.11534550E+04</rscale>
<asrwt>0</asrwt>
<pdfrwt beam="2">  1        4 0.14486107E+00 0.11537461E+04</pdfrwt>
<pdfrwt beam="1">  1       -4 0.47405279E+00 0.11531640E+04</pdfrwt>
<totfact> 0.34848059E-02</totfact>
</mgrwt>
</event>
<event>
 8    1  0.2939692E-006  0.1141911E+04  0.7818608E-02  0.8670635E-01
          4   -1    0    0  502    0  0.00000000000E+00  0.00000000000E+00  0.23855257078E+04  0.23855257078E+04  0.00000000000E+00 0.  1.
         -4   -1    0    0    0  501 -0.00000000000E+00 -0.00000000000E+00 -0.62660675571E+03  0.62660675571E+03  0.00000000000E+00 0. -1.
   -9000010    2    1    2    0  501  0.17609638218E+03 -0.43948603774E+03  0.25666974912E+03  0.11251472343E+04  0.98788613997E+03 0.  0.
    9000010    2    1    2  502    0 -0.17609638218E+03  0.43948603774E+03  0.15022492030E+04  0.18869852292E+04  0.10391355418E+04 0.  0.
        -13    1    4    4    0    0 -0.35380120769E+03  0.87428613109E+02  0.14428589246E+04  0.14881736943E+04  0.10566000000E+00 0.  1.
          4    1    4    4  502    0  0.17770482551E+03  0.35205742463E+03  0.59390278427E+02  0.39881153496E+03  0.00000000000E+00 0.  1.
         13    1    3    3    0    0  0.53115629433E+03 -0.11788170198E+01  0.13643153446E+03  0.54839946515E+03  0.10566000000E+00 0. -1.
         -4    1    3    3    0  501 -0.35505991215E+03 -0.43830722072E+03  0.12023821466E+03  0.57674776915E+03  0.00000000000E+00 0. -1.
<mgrwt>
<rscale>  0 0.11184547E+04</rscale>
<asrwt>0</asrwt>
<pdfrwt beam="1">  1        4 0.36700395E+00 0.11419109E+04</pdfrwt>
<pdfrwt beam="2">  1       -4 0.96401041E-01 0.10954802E+04</pdfrwt>
<totfact> 0.19971296E-01</totfact>
</mgrwt>
</event>
<event>
 8    1  0.2939692E-006  0.1546835E+04  0.7818608E-02  0.8385303E-01
          4   -1    0    0  502    0  0.00000000000E+00  0.00000000000E+00  0.14987489441E+04  0.14987489441E+04  0.00000000000E+00 0.  1.
         -4   -1    0    0    0  501 -0.00000000000E+00 -0.00000000000E+00 -0.22551219423E+04  0.22551219423E+04  0.00000000000E+00 0. -1.
   -9000010    2    1    2    0  501 -0.16286978197E+03 -0.11700553724E+04 -0.13996787979E+04  0.20860965623E+04  0.99856997231E+03 0.  0.
    9000010    2    1    2  502    0  0.16286978197E+03  0.11700553724E+04  0.64330579974E+03  0.16677743241E+04  0.98593747454E+03 0.  0.
        -13    1    4    4    0    0 -0.27186013143E+03  0.98028032879E+03  0.24013455543E+03  0.10452378055E+04  0.10566000000E+00 0.  1.
          4    1    4    4  502    0  0.43472991339E+03  0.18977504361E+03  0.40317124431E+03  0.62253651862E+03  0.00000000000E+00 0.  1.
         13    1    3    3    0    0 -0.68646799829E+02 -0.11632637357E+04 -0.65760821154E+03  0.13380371717E+04  0.10566000000E+00 0. -1.
         -4    1    3    3    0  501 -0.94222982140E+02 -0.67916367280E+01 -0.74207058637E+03  0.74805939059E+03  0.00000000000E+00 0. -1.
<mgrwt>
<rscale>  0 0.15427672E+04</rscale>
<asrwt>0</asrwt>
<pdfrwt beam="1">  1        4 0.23057676E+00 0.15387101E+04</pdfrwt>
<pdfrwt beam="2">  1       -4 0.34694184E+00 0.15468349E+04</pdfrwt>
<totfact> 0.59990880E-02</totfact>
</mgrwt>
</event>
<event>
 8    1  0.2939692E-006  0.1076467E+04  0.7818608E-02  0.8712090E-01
         -4   -1    0    0    0  501 -0.00000000000E+00  0.00000000000E+00  0.21370880465E+04  0.21370880465E+04  0.00000000000E+00 0. -1.
          4   -1    0    0  502    0  0.00000000000E+00 -0.00000000000E+00 -0.70488379620E+03  0.70488379620E+03  0.00000000000E+00 0.  1.
   -9000010    2    1    2    0  501 -0.17585185153E+03 -0.29882937327E+03  0.14172741761E+04  0.17797326563E+04  0.10190973308E+04 0.  0.
    9000010    2    1    2  502    0  0.17585185153E+03  0.29882937327E+03  0.14930074203E+02  0.10622391864E+04  0.10039453740E+04 0.  0.
        -13    1    4    4    0    0  0.28391452821E+03  0.33154085938E+03 -0.42429745098E+03  0.60873240331E+03  0.10566000000E+00 0.  1.
          4    1    4    4  502    0 -0.10806267668E+03 -0.32711486106E+02  0.43922752519E+03  0.45350678308E+03  0.00000000000E+00 0.  1.
         13    1    3    3    0    0 -0.39084520291E+03 -0.60734458391E+02  0.78744932604E+02  0.40329818082E+03  0.10566000000E+00 0. -1.
         -4    1    3    3    0  501  0.21499335138E+03 -0.23809491488E+03  0.13385292435E+04  0.13764344755E+04  0.00000000000E+00 0. -1.
<mgrwt>
<rscale>  0 0.10692769E+04</rscale>
<asrwt>0</asrwt>
<pdfrwt beam="2">  1        4 0.10844366E+00 0.10621343E+04</pdfrwt>
<pdfrwt beam="1">  1       -4 0.32878278E+00 0.10764675E+04</pdfrwt>
<totfact> 0.21453137E-01</totfact>
</mgrwt>
</event>
<event>
 8    1  0.2939692E-006  0.2276183E+04  0.7818608E-02  0.8064953E-01
         -4   -1    0    0    0  501 -0.00000000000E+00  0.00000000000E+00  0.26814476154E+04  0.26814476154E+04  0.00000000000E+00 0. -1.
          4   -1    0    0  502    0  0.00000000000E+00 -0.00000000000E+00 -0.28123215157E+04  0.28123215157E+04  0.00000000000E+00 0.  1.
   -9000010    2    1    2    0  501  0.12601637848E+04 -0.16079255370E+04  0.14736677101E+04  0.27088878915E+04  0.99646364297E+03 0.  0.
    9000010    2    1    2  502    0 -0.12601637848E+04  0.16079255370E+04 -0.16045416104E+04  0.27848812396E+04  0.10037790803E+04 0.  0.
        -13    1    4    4    0    0  0.13019046694E+03  0.53751219251E+02 -0.28288690830E+03  0.31601228663E+03  0.10566000000E+00 0.  1.
          4    1    4    4  502    0 -0.13903542517E+04  0.15541743177E+04 -0.13216547021E+04  0.24688689530E+04  0.00000000000E+00 0.  1.
         13    1    3    3    0    0  0.10576921065E+04 -0.57999818329E+03  0.96219460831E+03  0.15430259104E+04  0.10566000000E+00 0. -1.
         -4    1    3    3    0  501  0.20247167826E+03 -0.10279273537E+04  0.51147310183E+03  0.11658619811E+04  0.00000000000E+00 0. -1.
<mgrwt>
<rscale>  0 0.22745743E+04</rscale>
<asrwt>0</asrwt>
<pdfrwt beam="2">  1        4 0.43266485E+00 0.22761832E+04</pdfrwt>
<pdfrwt beam="1">  1       -4 0.41253040E+00 0.22729666E+04</pdfrwt>
<totfact> 0.70028556E-03</totfact>
</mgrwt>
</event>
<event>
 8    1  0.2939692E-006  0.1376298E+04  0.7818608E-02  0.8497975E-01
          4   -1    0    0  502    0  0.00000000000E+00  0.00000000000E+00  0.36707973038E+04  0.36707973038E+04  0.00000000000E+00 0.  1.
         -4   -1    0    0    0  501 -0.00000000000E+00 -0.00000000000E+00 -0.87037492058E+03  0.87037492058E+03  0.00000000000E+00 0. -1.
   -9000010    2    1    2    0  501 -0.59931534324E+03 -0.66544991748E+03 -0.67457667803E+02  0.13779502888E+04  0.10450808525E+04 0.  0.
    9000010    2    1    2  502    0  0.59931534324E+03  0.66544991748E+03  0.28678800511E+04  0.31632219356E+04  0.98956280914E+03 0.  0.
        -13    1    4    4    0    0  0.82700020507E+03  0.26616858199E+03  0.20165977525E+04  0.21957781217E+04  0.10566000000E+00 0.  1.
          4    1    4    4  502    0 -0.22768486183E+03  0.39928133549E+03  0.85128229856E+03  0.96744381389E+03  0.00000000000E+00 0.  1.
         13    1    3    3    0    0  0.68838278987E+02 -0.20694054629E+03 -0.43617723108E+03  0.48766144653E+03  0.10566000000E+00 0. -1.
         -4    1    3    3    0  501 -0.66815362223E+03 -0.45850937119E+03  0.36871956328E+03  0.89028884229E+03  0.00000000000E+00 0. -1.
<mgrwt>
<rscale>  0 0.13553039E+04</rscale>
<asrwt>0</asrwt>
<pdfrwt beam="1">  1        4 0.56473804E+00 0.13346299E+04</pdfrwt>
<pdfrwt beam="2">  1       -4 0.13390384E+00 0.13762981E+04</pdfrwt>
<totfact> 0.14013562E-02</totfact>
</mgrwt>
</event>
<event>
 8    1  0.2939692E-006  0.1042937E+04  0.7818608E-02  0.8745260E-01
          4   -1    0    0  502    0  0.00000000000E+00  0.00000000000E+00  0.24292463293E+04  0.24292463293E+04  0.00000000000E+00 0.  1.
         -4   -1    0    0    0  501 -0.00000000000E+00 -0.00000000000E+00 -0.11889891548E+04  0.11889891548E+04  0.00000000000E+00 0. -1.
   -9000010    2    1    2    0  501  0.57835415841E+01 -0.30520664136E+03 -0.81978243751E+03  0.13092355959E+04  0.97409961368E+03 0.  0.
    9000010    2    1    2  502    0 -0.57835415841E+01  0.30520664136E+03  0.20600396120E+04  0.23089998882E+04  0.99726262211E+03 0.  0.
        -13    1    4    4    0    0  0.15022813655E+03 -0.32440934469E+03  0.10444047578E+04  0.11038981951E+04  0.10566000000E+00 0.  1.
          4    1    4    4  502    0 -0.15601167814E+03  0.62961598604E+03  0.10156348542E+04  0.12051016931E+04  0.00000000000E+00 0.  1.
         13    1    3    3    0    0  0.80262767823E+02 -0.30871399584E+03  0.13872124049E+03  0.34783622131E+03  0.10566000000E+00 0. -1.
         -4    1    3    3    0  501 -0.74479226239E+02  0.35073544824E+01 -0.95850367800E+03  0.96139937457E+03  0.00000000000E+00 0. -1.
<mgrwt>
<rscale>  0 0.10318145E+04</rscale>
<asrwt>0</asrwt>
<pdfrwt beam="1">  1        4 0.37373020E+00 0.10429369E+04</pdfrwt>
<pdfrwt beam="2">  1       -4 0.18292141E+00 0.10208108E+04</pdfrwt>
<totfact> 0.68141890E-02</totfact>
</mgrwt>
</event>
<event>
 8    1  0.2939692E-006  0.1120462E+04  0.7818608E-02  0.8670569E-01
          4   -1    0    0  502    0  0.00000000000E+00  0.00000000000E+00  0.13231713365E+04  0.13231713365E+04  0.00000000000E+00 0.  1.
         -4   -1    0    0    0  501 -0.00000000000E+00 -0.00000000000E+00 -0.26380771219E+04  0.26380771219E+04  0.00000000000E+00 0. -1.
   -9000010    2    1    2    0  501 -0.36412009425E+03  0.32494028640E+03 -0.22443063686E+04  0.25084549273E+04  0.10085957631E+04 0.  0.
    9000010    2    1    2  502    0  0.36412009425E+03 -0.32494028640E+03  0.92940058313E+03  0.14527935312E+04  0.10043176627E+04 0.  0.
        -13    1    4    4    0    0  0.54713447759E+03 -0.51128008373E+03  0.92689946593E+03  0.11915981251E+04  0.10566000000E+00 0.  1.
          4    1    4    4  502    0 -0.18301438333E+03  0.18633979734E+03  0.25011172027E+01  0.26119540610E+03  0.00000000000E+00 0.  1.
         13    1    3    3    0    0 -0.57428904320E+03 -0.38185482576E+02 -0.18317223550E+04  0.19200189669E+04  0.10566000000E+00 0. -1.
         -4    1    3    3    0  501  0.21016894895E+03  0.36312576897E+03 -0.41258401354E+03  0.58843596034E+03  0.00000000000E+00 0. -1.
<mgrwt>
<rscale>  0 0.11185356E+04</rscale>
<asrwt>0</asrwt>
<pdfrwt beam="1">  1        4 0.20356482E+00 0.11166126E+04</pdfrwt>
<pdfrwt beam="2">  1       -4 0.40585802E+00 0.11204620E+04</pdfrwt>
<totfact> 0.44123086E-02</totfact>
</mgrwt>
</event>
<event>
 8    1  0.2939692E-006  0.1212327E+04  0.7818608E-02  0.8605063E-01
          4   -1    0    0  502    0  0.00000000000E+00  0.00000000000E+00  0.13489414195E+04  0.13489414195E+04  0.00000000000E+00 0. -1.
         -4   -1    0    0    0  501 -0.00000000000E+00 -0.00000000000E+00 -0.11828245753E+04  0.11828245753E+04  0.00000000000E+00 0.  1.
   -9000010    2    1    2    0  501 -0.56034145972E+03 -0.40170367192E+03 -0.30528371045E+03  0.12501738144E+04  0.99719006753E+03 0.  0.
    9000010    2    1    2  502    0  0.56034145972E+03  0.40170367192E+03  0.47140055465E+03  0.12815921804E+04  0.97206565742E+03 0.  0.
        -13    1    4    4    0    0  0.38044700417E+03  0.14000385240E+02 -0.24117318967E+03  0.45066667543E+03  0.10566000000E+00 0.  1.
          4    1    4    4  502    0  0.17989445555E+03  0.38770328668E+03  0.71257374432E+03  0.83092550493E+03  0.00000000000E+00 0.  1.
         13    1    3    3    0    0 -0.16717988185E+02 -0.27077091171E+03  0.31455876486E+03  0.41538368465E+03  0.10566000000E+00 0. -1.
         -4    1    3    3    0  501 -0.54362347153E+03 -0.13093276021E+03 -0.61984247531E+03  0.83479012973E+03  0.00000000000E+00 0. -1.
<mgrwt>
<rscale>  0 0.12019927E+04</rscale>
<asrwt>0</asrwt>
<pdfrwt beam="1">  1        4 0.20752945E+00 0.11917466E+04</pdfrwt>
<pdfrwt beam="2">  1       -4 0.18197301E+00 0.12123269E+04</pdfrwt>
<totfact> 0.19581810E-01</totfact>
</mgrwt>
</event>
<event>
 8    1  0.2939692E-006  0.1192291E+04  0.7818608E-02  0.8616692E-01
          4   -1    0    0  502    0  0.00000000000E+00  0.00000000000E+00  0.16243160506E+04  0.16243160506E+04  0.00000000000E+00 0.  1.
         -4   -1    0    0    0  501 -0.00000000000E+00 -0.00000000000E+00 -0.14526381783E+04  0.14526381783E+04  0.00000000000E+00 0. -1.
   -9000010    2    1    2    0  501 -0.11765844284E+03  0.64448907673E+03 -0.89131643970E+03  0.14796077227E+04  0.98264151056E+03 0.  0.
    9000010    2    1    2  502    0  0.11765844284E+03 -0.64448907673E+03  0.10629943120E+04  0.15973465061E+04  0.99616729221E+03 0.  0.
        -13    1    4    4    0    0  0.37988915148E+03 -0.14842754522E+03  0.14454072279E+02  0.40811203726E+03  0.10566000000E+00 0.  1.
          4    1    4    4  502    0 -0.26223070864E+03 -0.49606153151E+03  0.10485402397E+04  0.11892344688E+04  0.00000000000E+00 0.  1.
         13    1    3    3    0    0  0.16088160863E+03  0.82780885165E+03 -0.58070038655E+03  0.10238961554E+04  0.10566000000E+00 0. -1.
         -4    1    3    3    0  501 -0.27854005147E+03 -0.18331977492E+03 -0.31061605314E+03  0.45571156736E+03  0.00000000000E+00 0. -1.
<mgrwt>
<rscale>  0 0.11866393E+04</rscale>
<asrwt>0</asrwt>
<pdfrwt beam="1">  1        4 0.24989478E+00 0.11922915E+04</pdfrwt>
<pdfrwt beam="2">  1       -4 0.22348280E+00 0.11810140E+04</pdfrwt>
<totfact> 0.11754301E-01</totfact>
</mgrwt>
</event>
<event>
 8    1  0.2939692E-006  0.1485062E+04  0.7818608E-02  0.8421349E-01
         -4   -1    0    0    0  501 -0.00000000000E+00  0.00000000000E+00  0.29710075232E+04  0.29710075232E+04  0.00000000000E+00 0. -1.
          4   -1    0    0  502    0  0.00000000000E+00 -0.00000000000E+00 -0.17859292235E+04  0.17859292235E+04  0.00000000000E+00 0.  1.
   -9000010    2    1    2    0  501  0.10835889342E+04  0.86813141631E+02  0.24163655397E+04  0.28362352723E+04  0.10117838696E+04 0.  0.
    9000010    2    1    2  502    0 -0.10835889342E+04 -0.86813141631E+02 -0.12312872401E+04  0.19207014744E+04  0.99565274387E+03 0.  0.
        -13    1    4    4    0    0 -0.58533884492E+03  0.96297750145E+02 -0.14746377822E+02  0.59339050117E+03  0.10566000000E+00 0.  1.
          4    1    4    4  502    0 -0.49825008924E+03 -0.18311089178E+03 -0.12165408622E+04  0.13273109732E+04  0.00000000000E+00 0.  1.
         13    1    3    3    0    0  0.36099386209E+03  0.15416874347E+03  0.94716927117E+02  0.40380177981E+03  0.10566000000E+00 0. -1.
         -4    1    3    3    0  501  0.72259507207E+03 -0.67355601836E+02  0.23216486126E+04  0.24324334925E+04  0.00000000000E+00 0. -1.
<mgrwt>
<rscale>  0 0.14795800E+04</rscale>
<asrwt>0</asrwt>
<pdfrwt beam="2">  1        4 0.27475834E+00 0.14741187E+04</pdfrwt>
<pdfrwt beam="1">  1       -4 0.45707808E+00 0.14850616E+04</pdfrwt>
<totfact> 0.16771587E-02</totfact>
</mgrwt>
</event>
<event>
 8    1  0.2939692E-006  0.2016666E+04  0.7818608E-02  0.8165078E-01
         -4   -1    0    0    0  501 -0.00000000000E+00  0.00000000000E+00  0.36505979868E+04  0.36505979868E+04  0.00000000000E+00 0. -1.
          4   -1    0    0  502    0  0.00000000000E+00 -0.00000000000E+00 -0.11124599262E+04  0.11124599262E+04  0.00000000000E+00 0.  1.
   -9000010    2    1    2    0  501 -0.81378925275E+03 -0.15553982560E+04  0.14627737244E+04  0.24775932447E+04  0.95772889416E+03 0.  0.
    9000010    2    1    2  502    0  0.81378925275E+03  0.15553982560E+04  0.10753643362E+04  0.22854646683E+04  0.99268505162E+03 0.  0.
        -13    1    4    4    0    0  0.39518386009E+03  0.91955595558E+03  0.41725900589E+02  0.10017457265E+04  0.10566000000E+00 0.  1.
          4    1    4    4  502    0  0.41860539266E+03  0.63584230040E+03  0.10336384356E+04  0.12837189417E+04  0.00000000000E+00 0.  1.
         13    1    3    3    0    0 -0.91013576597E+03 -0.10989493564E+04  0.71445133021E+03  0.15957686282E+04  0.10566000000E+00 0. -1.
         -4    1    3    3    0  501  0.96346513220E+02 -0.45644889962E+03  0.74832239423E+03  0.88182461651E+03  0.00000000000E+00 0. -1.
<mgrwt>
<rscale>  0 0.20081600E+04</rscale>
<asrwt>0</asrwt>
<pdfrwt beam="2">  1        4 0.17114768E+00 0.20166656E+04</pdfrwt>
<pdfrwt beam="1">  1       -4 0.56163045E+00 0.19996903E+04</pdfrwt>
<totfact> 0.95738284E-03</totfact>
</mgrwt>
</event>
<event>
 8    1  0.2939692E-006  0.1114598E+04  0.7818608E-02  0.8678934E-01
         -4   -1    0    0    0  501 -0.00000000000E+00  0.00000000000E+00  0.19745156884E+04  0.19745156884E+04  0.00000000000E+00 0. -1.
          4   -1    0    0  502    0  0.00000000000E+00 -0.00000000000E+00 -0.14481148962E+04  0.14481148962E+04  0.00000000000E+00 0.  1.
   -9000010    2    1    2    0  501  0.40913233164E+03 -0.19192915935E+03  0.15549464993E+04  0.19059777692E+04  0.10053191403E+04 0.  0.
    9000010    2    1    2  502    0 -0.40913233164E+03  0.19192915935E+03 -0.10285457070E+04  0.15166528154E+04  0.10188736055E+04 0.  0.
        -13    1    4    4    0    0  0.16869942654E+03  0.16815474318E+03  0.92262612826E+02  0.25543671439E+03  0.10566000000E+00 0.  1.
          4    1    4    4  502    0 -0.57783175818E+03  0.23774416166E+02 -0.11208083199E+04  0.12612161010E+04  0.00000000000E+00 0.  1.
         13    1    3    3    0    0  0.58050717942E+03 -0.47674334111E+03  0.90642851844E+03  0.11772363691E+04  0.10566000000E+00 0. -1.
         -4    1    3    3    0  501 -0.17137484778E+03  0.28481418176E+03  0.64851798086E+03  0.72874140001E+03  0.00000000000E+00 0. -1.
<mgrwt>
<rscale>  0 0.11083927E+04</rscale>
<asrwt>0</asrwt>
<pdfrwt beam="2">  1        4 0.22278691E+00 0.11145984E+04</pdfrwt>
<pdfrwt beam="1">  1       -4 0.30377165E+00 0.11022217E+04</pdfrwt>
<totfact> 0.86906263E-02</totfact>
</mgrwt>
</event>
<event>
 8    1  0.2939692E-006  0.1094187E+04  0.7818608E-02  0.8695354E-01
         -4   -1    0    0    0  501 -0.00000000000E+00  0.00000000000E+00  0.18972071254E+04  0.18972071254E+04  0.00000000000E+00 0. -1.
          4   -1    0    0  502    0  0.00000000000E+00 -0.00000000000E+00 -0.95248463977E+03  0.95248463977E+03  0.00000000000E+00 0.  1.
   -9000010    2    1    2    0  501 -0.32306766754E+03 -0.25482268588E+03  0.13095103596E+04  0.17064767784E+04  0.10138729181E+04 0.  0.
    9000010    2    1    2  502    0  0.32306766754E+03  0.25482268588E+03 -0.36478787398E+03  0.11432149868E+04  0.10022789003E+04 0.  0.
        -13    1    4    4    0    0  0.18947223671E+03  0.24148208033E+03  0.32116142763E+03  0.44424992669E+03  0.10566000000E+00 0.  1.
          4    1    4    4  502    0  0.13359543083E+03  0.13340605549E+02 -0.68594930160E+03  0.69896506012E+03  0.00000000000E+00 0.  1.
         13    1    3    3    0    0 -0.34295354562E+03  0.23807582025E+03  0.14527214933E+03  0.44204212376E+03  0.10566000000E+00 0. -1.
         -4    1    3    3    0  501  0.19885878082E+02 -0.49289850613E+03  0.11642382103E+04  0.12644346546E+04  0.00000000000E+00 0. -1.
<mgrwt>
<rscale>  0 0.10888068E+04</rscale>
<asrwt>0</asrwt>
<pdfrwt beam="2">  1        4 0.14653610E+00 0.10834530E+04</pdfrwt>
<pdfrwt beam="1">  1       -4 0.29187802E+00 0.10941872E+04</pdfrwt>
<totfact> 0.16559175E-01</totfact>
</mgrwt>
</event>
<event>
 8    1  0.2939692E-006  0.1189394E+04  0.7818608E-02  0.8657132E-01
          4   -1    0    0  502    0  0.00000000000E+00  0.00000000000E+00  0.83508770240E+03  0.83508770240E+03  0.00000000000E+00 0.  1.
         -4   -1    0    0    0  501 -0.00000000000E+00 -0.00000000000E+00 -0.20489221762E+04  0.20489221762E+04  0.00000000000E+00 0. -1.
   -9000010    2    1    2    0  501  0.17344086144E+03 -0.37250510476E+03 -0.12992280978E+04  0.16915544648E+04  0.10022579866E+04 0.  0.
    9000010    2    1    2  502    0 -0.17344086144E+03  0.37250510476E+03  0.85393624006E+02  0.11924554138E+04  0.11161613044E+04 0.  0.
        -13    1    4    4    0    0 -0.16605519826E+03  0.19705340792E+02 -0.48984781071E+03  0.51760363034E+03  0.10566000000E+00 0.  1.
          4    1    4    4  502    0 -0.73856631819E+01  0.35279976397E+03  0.57524143471E+03  0.67485178350E+03  0.00000000000E+00 0.  1.
         13    1    3    3    0    0 -0.31255202253E+03 -0.13993152428E+03 -0.70127800528E+02  0.34955331188E+03  0.10566000000E+00 0. -1.
         -4    1    3    3    0  501  0.48599288397E+03 -0.23257358048E+03 -0.12291002973E+04  0.13420011529E+04  0.00000000000E+00 0. -1.
<mgrwt>
<rscale>  0 0.11350655E+04</rscale>
<asrwt>0</asrwt>
<pdfrwt beam="1">  1        4 0.12847503E+00 0.11893939E+04</pdfrwt>
<pdfrwt beam="2">  1       -4 0.31521880E+00 0.10832187E+04</pdfrwt>
<totfact> 0.17552328E-01</totfact>
</mgrwt>
</event>
<event>
 8    1  0.2939692E-006  0.1220692E+04  0.7818608E-02  0.8602938E-01
         -4   -1    0    0    0  501 -0.00000000000E+00  0.00000000000E+00  0.30837483833E+04  0.30837483833E+04  0.00000000000E+00 0. -1.
          4   -1    0    0  502    0  0.00000000000E+00 -0.00000000000E+00 -0.72408271838E+03  0.72408271838E+03  0.00000000000E+00 0.  1.
   -9000010    2    1    2    0  501 -0.11979847294E+03  0.64681040261E+03  0.22957645202E+04  0.25854676837E+04  0.99065283533E+03 0.  0.
    9000010    2    1    2  502    0  0.11979847294E+03 -0.64681040261E+03  0.63901144699E+02  0.12223634180E+04  0.10282867296E+04 0.  0.
        -13    1    4    4    0    0  0.48627021678E+03 -0.68532138917E+02 -0.13525634236E+03  0.50936201969E+03  0.10566000000E+00 0.  1.
          4    1    4    4  502    0 -0.36647174383E+03 -0.57827826370E+03  0.19915748706E+03  0.71300139828E+03  0.00000000000E+00 0.  1.
         13    1    3    3    0    0 -0.59090002876E+02 -0.68548614374E+02 -0.69204629602E+02  0.11392906958E+03  0.10566000000E+00 0. -1.
         -4    1    3    3    0  501 -0.60708470067E+02  0.71535901699E+03  0.23649691498E+04  0.24715386141E+04  0.00000000000E+00 0. -1.
<mgrwt>
<rscale>  0 0.12048243E+04</rscale>
<asrwt>0</asrwt>
<pdfrwt beam="2">  1        4 0.11139734E+00 0.12206920E+04</pdfrwt>
<pdfrwt beam="1">  1       -4 0.47442282E+00 0.11891629E+04</pdfrwt>
<totfact> 0.53109373E-02</totfact>
</mgrwt>
</event>
<event>
 8    1  0.2939692E-006  0.1330207E+04  0.7818608E-02  0.8547944E-01
          4   -1    0    0  502    0  0.00000000000E+00  0.00000000000E+00  0.22887851501E+04  0.22887851501E+04  0.00000000000E+00 0.  1.
         -4   -1    0    0    0  501 -0.00000000000E+00 -0.00000000000E+00 -0.18054011355E+04  0.18054011355E+04  0.00000000000E+00 0. -1.
   -9000010    2    1    2    0  501  0.65906549479E+03 -0.17328941733E+03 -0.13502138294E+04  0.18288981244E+04  0.10282968520E+04 0.  0.
    9000010    2    1    2  502    0 -0.65906549479E+03  0.17328941733E+03  0.18335978439E+04  0.22652881613E+04  0.11423890983E+04 0.  0.
        -13    1    4    4    0    0 -0.49334689380E+03  0.15202241112E+03  0.10271175296E+03  0.52635699527E+03  0.10566000000E+00 0.  1.
          4    1    4    4  502    0 -0.16571860099E+03  0.21267006213E+02  0.17308860909E+04  0.17389311660E+04  0.00000000000E+00 0.  1.
         13    1    3    3    0    0  0.73044278431E+03 -0.43849862785E+03 -0.12928610669E+04  0.15483273095E+04  0.10566000000E+00 0. -1.
         -4    1    3    3    0  501 -0.71377289523E+02  0.26520921052E+03 -0.57352762434E+02  0.28057081488E+03  0.00000000000E+00 0. -1.
<mgrwt>
<rscale>  0 0.12809975E+04</rscale>
<asrwt>0</asrwt>
<pdfrwt beam="1">  1        4 0.35212079E+00 0.13302065E+04</pdfrwt>
<pdfrwt beam="2">  1       -4 0.27775402E+00 0.12336089E+04</pdfrwt>
<totfact> 0.45296266E-02</totfact>
</mgrwt>
</event>
<event>
 8    1  0.2939692E-006  0.1175609E+04  0.7818608E-02  0.8639119E-01
         -4   -1    0    0    0  501 -0.00000000000E+00  0.00000000000E+00  0.29835293269E+04  0.29835293269E+04  0.00000000000E+00 0. -1.
          4   -1    0    0  502    0  0.00000000000E+00 -0.00000000000E+00 -0.18269113998E+04  0.18269113998E+04  0.00000000000E+00 0.  1.
   -9000010    2    1    2    0  501 -0.32671523171E+03 -0.53695345621E+03  0.26646665106E+04  0.28983040098E+04  0.95113440868E+03 0.  0.
    9000010    2    1    2  502    0  0.32671523171E+03  0.53695345621E+03 -0.15080485835E+04  0.19121367170E+04  0.99347593694E+03 0.  0.
        -13    1    4    4    0    0  0.59109874738E+03  0.49080620006E+03 -0.62871654751E+03  0.99276027491E+03  0.10566000000E+00 0.  1.
          4    1    4    4  502    0 -0.26438351567E+03  0.46147256157E+02 -0.87933203604E+03  0.91937644206E+03  0.00000000000E+00 0.  1.
         13    1    3    3    0    0  0.11435227870E+03 -0.37500701545E+03  0.22099025259E+04  0.22444099203E+04  0.10566000000E+00 0. -1.
         -4    1    3    3    0  501 -0.44106751041E+03 -0.16194644076E+03  0.45476398475E+03  0.65389408947E+03  0.00000000000E+00 0. -1.
<mgrwt>
<rscale>  0 0.11576939E+04</rscale>
<asrwt>0</asrwt>
<pdfrwt beam="2">  1        4 0.28106329E+00 0.11756089E+04</pdfrwt>
<pdfrwt beam="1">  1       -4 0.45900451E+00 0.11400520E+04</pdfrwt>
<totfact> 0.16505649E-02</totfact>
</mgrwt>
</event>
<event>
 8    1  0.2939692E-006  0.1132141E+04  0.7818608E-02  0.8668594E-01
          4   -1    0    0  502    0  0.00000000000E+00  0.00000000000E+00  0.17848398704E+04  0.17848398704E+04  0.00000000000E+00 0.  1.
         -4   -1    0    0    0  501 -0.00000000000E+00 -0.00000000000E+00 -0.22231150076E+04  0.22231150076E+04  0.00000000000E+00 0. -1.
   -9000010    2    1    2    0  501  0.19804257930E+03  0.47832320533E+03 -0.18763256400E+04  0.21914246831E+04  0.10068417365E+04 0.  0.
    9000010    2    1    2  502    0 -0.19804257930E+03 -0.47832320533E+03  0.14380505028E+04  0.18165301949E+04  0.98172233768E+03 0.  0.
        -13    1    4    4    0    0 -0.12251453659E+03 -0.74699392381E+03  0.71409950515E+03  0.10406478022E+04  0.10566000000E+00 0.  1.
          4    1    4    4  502    0 -0.75528042716E+02  0.26867071848E+03  0.72395099766E+03  0.77588239265E+03  0.00000000000E+00 0.  1.
         13    1    3    3    0    0 -0.24410490232E+03  0.15601431895E+03 -0.14991025075E+04  0.15268385672E+04  0.10566000000E+00 0. -1.
         -4    1    3    3    0  501  0.44214748162E+03  0.32230888638E+03 -0.37722313243E+03  0.66458611585E+03  0.00000000000E+00 0. -1.
<mgrwt>
<rscale>  0 0.11209461E+04</rscale>
<asrwt>0</asrwt>
<pdfrwt beam="1">  1        4 0.27459075E+00 0.11098616E+04</pdfrwt>
<pdfrwt beam="2">  1       -4 0.34201769E+00 0.11321414E+04</pdfrwt>
<totfact> 0.50829661E-02</totfact>
</mgrwt>
</event>
<event>
 8    1  0.2939692E-006  0.1081574E+04  0.7818608E-02  0.8717542E-01
         -4   -1    0    0    0  501 -0.00000000000E+00  0.00000000000E+00  0.28813390858E+04  0.28813390858E+04  0.00000000000E+00 0. -1.
          4   -1    0    0  502    0  0.00000000000E+00 -0.00000000000E+00 -0.10989466679E+04  0.10989466679E+04  0.00000000000E+00 0.  1.
   -9000010    2    1    2    0  501 -0.41652626150E+03  0.37070388940E+02  0.24814815553E+04  0.26924476464E+04  0.95742116081E+03 0.  0.
    9000010    2    1    2  502    0  0.41652626150E+03 -0.37070388940E+02 -0.69908913735E+03  0.12878381074E+04  0.99746329683E+03 0.  0.
        -13    1    4    4    0    0  0.69696141100E+03  0.18421383246E+03 -0.51511329956E+03  0.88602012790E+03  0.10566000000E+00 0.  1.
          4    1    4    4  502    0 -0.28043514951E+03 -0.22128422140E+03 -0.18397583779E+03  0.40181797945E+03  0.00000000000E+00 0.  1.
         13    1    3    3    0    0  0.28966451103E+03 -0.12846258015E+03  0.67023467292E+03  0.74136542366E+03  0.10566000000E+00 0. -1.
         -4    1    3    3    0  501 -0.70619077252E+03  0.16553296909E+03  0.18112468823E+04  0.19510822227E+04  0.00000000000E+00 0. -1.
<mgrwt>
<rscale>  0 0.10630075E+04</rscale>
<asrwt>0</asrwt>
<pdfrwt beam="2">  1        4 0.16906872E+00 0.10815736E+04</pdfrwt>
<pdfrwt beam="1">  1       -4 0.44328293E+00 0.10447601E+04</pdfrwt>
<totfact> 0.39555091E-02</totfact>
</mgrwt>
</event>
<event>
 8    1  0.2939692E-006  0.1214707E+04  0.7818608E-02  0.8596776E-01
          4   -1    0    0  502    0  0.00000000000E+00  0.00000000000E+00  0.17912671786E+04  0.17912671786E+04  0.00000000000E+00 0.  1.
         -4   -1    0    0    0  501 -0.00000000000E+00 -0.00000000000E+00 -0.17982633213E+04  0.17982633213E+04  0.00000000000E+00 0. -1.
   -9000010    2    1    2    0  501  0.51609497792E+03 -0.45581626938E+03 -0.13262260780E+04  0.17984405432E+04  0.10006948984E+04 0.  0.
    9000010    2    1    2  502    0 -0.51609497792E+03  0.45581626938E+03  0.13192299354E+04  0.17910899568E+04  0.99675127954E+03 0.  0.
        -13    1    4    4    0    0 -0.43335730468E+03  0.39688868583E+02  0.32689889293E+02  0.43639706671E+03  0.10566000000E+00 0.  1.
          4    1    4    4  502    0 -0.82737673234E+02  0.41612740080E+03  0.12865400461E+04  0.13546928901E+04  0.00000000000E+00 0.  1.
         13    1    3    3    0    0  0.59365440775E+03 -0.47577397049E+03 -0.38286796699E+03  0.85168909712E+03  0.10566000000E+00 0. -1.
         -4    1    3    3    0  501 -0.77559429835E+02  0.19957701114E+02 -0.94335811101E+03  0.94675144605E+03  0.00000000000E+00 0. -1.
<mgrwt>
<rscale>  0 0.12130824E+04</rscale>
<asrwt>0</asrwt>
<pdfrwt beam="1">  1        4 0.27557957E+00 0.12114601E+04</pdfrwt>
<pdfrwt beam="2">  1       -4 0.27665589E+00 0.12147069E+04</pdfrwt>
<totfact> 0.75917988E-02</totfact>
</mgrwt>
</event>
<event>
 8    1  0.2939692E-006  0.1073013E+04  0.7818608E-02  0.8709178E-01
          4   -1    0    0  502    0  0.00000000000E+00  0.00000000000E+00  0.14345915596E+04  0.14345915596E+04  0.00000000000E+00 0.  1.
         -4   -1    0    0    0  501 -0.00000000000E+00 -0.00000000000E+00 -0.83373656317E+03  0.83373656317E+03  0.00000000000E+00 0. -1.
   -9000010    2    1    2    0  501  0.39980811981E+03  0.74902366414E+02  0.79306364410E+02  0.10759400064E+04  0.99292522411E+03 0.  0.
    9000010    2    1    2  502    0 -0.39980811981E+03 -0.74902366414E+02  0.52154863201E+03  0.11923881164E+04  0.99212879579E+03 0.  0.
        -13    1    4    4    0    0  0.13667146028E+03 -0.33465668038E+03 -0.51987922773E+02  0.36520807364E+03  0.10566000000E+00 0.  1.
          4    1    4    4  502    0 -0.53647958008E+03  0.25975431397E+03  0.57353655478E+03  0.82718004276E+03  0.00000000000E+00 0.  1.
         13    1    3    3    0    0  0.23535014915E+03 -0.31151427333E+03  0.39130753587E+03  0.55276797482E+03  0.10566000000E+00 0. -1.
         -4    1    3    3    0  501  0.16445797065E+03  0.38641663975E+03 -0.31200117146E+03  0.52317203153E+03  0.00000000000E+00 0. -1.
<mgrwt>
<rscale>  0 0.10726447E+04</rscale>
<asrwt>0</asrwt>
<pdfrwt beam="1">  1        4 0.22070639E+00 0.10722763E+04</pdfrwt>
<pdfrwt beam="2">  1       -4 0.12826716E+00 0.10730132E+04</pdfrwt>
<totfact> 0.30371673E-01</totfact>
</mgrwt>
</event>
<event>
 8    1  0.2939692E-006  0.1374560E+04  0.7818608E-02  0.8498914E-01
         -4   -1    0    0    0  501 -0.00000000000E+00  0.00000000000E+00  0.18937519216E+04  0.18937519216E+04  0.00000000000E+00 0. -1.
          4   -1    0    0  502    0  0.00000000000E+00 -0.00000000000E+00 -0.12835432035E+04  0.12835432035E+04  0.00000000000E+00 0.  1.
   -9000010    2    1    2    0  501  0.41520442670E+03  0.84716214224E+03  0.10960741472E+04  0.17580653009E+04  0.99966827239E+03 0.  0.
    9000010    2    1    2  502    0 -0.41520442670E+03 -0.84716214224E+03 -0.48586542908E+03  0.14192298242E+04  0.94237448365E+03 0.  0.
        -13    1    4    4    0    0 -0.28820410859E+03 -0.98552779272E+03 -0.60978220281E+03  0.11942198225E+04  0.10566000000E+00 0.  1.
          4    1    4    4  502    0 -0.12700031811E+03  0.13836565048E+03  0.12391677374E+03  0.22501000166E+03  0.00000000000E+00 0.  1.
         13    1    3    3    0    0  0.20785344639E+03  0.20561688052E+03 -0.15940462180E+03  0.33300330530E+03  0.10566000000E+00 0. -1.
         -4    1    3    3    0  501  0.20735098031E+03  0.64154526172E+03  0.12554787690E+04  0.14250619956E+04  0.00000000000E+00 0. -1.
<mgrwt>
<rscale>  0 0.13538602E+04</rscale>
<asrwt>0</asrwt>
<pdfrwt beam="2">  1        4 0.19746819E+00 0.13334722E+04</pdfrwt>
<pdfrwt beam="1">  1       -4 0.29134645E+00 0.13745600E+04</pdfrwt>
<totfact> 0.10775282E-01</totfact>
</mgrwt>
</event>
<event>
 8    1  0.2939692E-006  0.1107591E+04  0.7818608E-02  0.8685825E-01
         -4   -1    0    0    0  501 -0.00000000000E+00  0.00000000000E+00  0.30070308080E+04  0.30070308080E+04  0.00000000000E+00 0. -1.
          4   -1    0    0  502    0  0.00000000000E+00 -0.00000000000E+00 -0.22360236294E+04  0.22360236294E+04  0.00000000000E+00 0.  1.
   -9000010    2    1    2    0  501  0.41786828080E+03 -0.74044900454E+02  0.27598485692E+04  0.29738061302E+04  0.10230651140E+04 0.  0.
    9000010    2    1    2  502    0 -0.41786828080E+03  0.74044900454E+02 -0.19888413906E+04  0.22692483073E+04  0.10069266386E+04 0.  0.
        -13    1    4    4    0    0 -0.43198292112E+03 -0.12382198292E+03 -0.24049676076E+03  0.50968601187E+03  0.10566000000E+00 0.  1.
          4    1    4    4  502    0  0.14114640320E+02  0.19786688338E+03 -0.17483446299E+04  0.17595622954E+04  0.00000000000E+00 0.  1.
         13    1    3    3    0    0  0.42969694722E+03 -0.25022232150E+02  0.28436284802E+04  0.28760195624E+04  0.10566000000E+00 0. -1.
         -4    1    3    3    0  501 -0.11828666419E+02 -0.49022668304E+02 -0.83779910999E+02  0.97786567809E+02  0.00000000000E+00 0. -1.
<mgrwt>
<rscale>  0 0.11001216E+04</rscale>
<asrwt>0</asrwt>
<pdfrwt beam="2">  1        4 0.34400363E+00 0.10927021E+04</pdfrwt>
<pdfrwt beam="1">  1       -4 0.46262013E+00 0.11075914E+04</pdfrwt>
<totfact> 0.10674876E-02</totfact>
</mgrwt>
</event>
<event>
 8    1  0.2939692E-006  0.1494414E+04  0.7818608E-02  0.8430929E-01
          4   -1    0    0  502    0  0.00000000000E+00  0.00000000000E+00  0.22839944513E+04  0.22839944513E+04  0.00000000000E+00 0.  1.
         -4   -1    0    0    0  501 -0.00000000000E+00 -0.00000000000E+00 -0.12070802424E+04  0.12070802424E+04  0.00000000000E+00 0. -1.
   -9000010    2    1    2    0  501 -0.35766212513E+03 -0.10487622834E+04 -0.27684386517E+03  0.15198408229E+04  0.10027208376E+04 0.  0.
    9000010    2    1    2  502    0  0.35766212513E+03  0.10487622834E+04  0.13537580741E+04  0.19712338709E+04  0.90844786738E+03 0.  0.
        -13    1    4    4    0    0  0.45603060928E+03  0.14962674308E+03  0.24046377164E+03  0.53681925774E+03  0.10566000000E+00 0.  1.
          4    1    4    4  502    0 -0.98368484154E+02  0.89913554037E+03  0.11132943024E+04  0.14344146132E+04  0.00000000000E+00 0.  1.
         13    1    3    3    0    0 -0.37708300341E+03 -0.92063753173E+03 -0.60682007146E+03  0.11653307113E+04  0.10566000000E+00 0. -1.
         -4    1    3    3    0  501  0.19420878286E+02 -0.12812475171E+03  0.32997620629E+03  0.35451011161E+03  0.00000000000E+00 0. -1.
<mgrwt>
<rscale>  0 0.14633160E+04</rscale>
<asrwt>0</asrwt>
<pdfrwt beam="1">  1        4 0.35138376E+00 0.14328650E+04</pdfrwt>
<pdfrwt beam="2">  1       -4 0.18570465E+00 0.14944141E+04</pdfrwt>
<totfact> 0.77665342E-02</totfact>
</mgrwt>
</event>
<event>
 8    1  0.2939692E-006  0.1210998E+04  0.7818608E-02  0.8601319E-01
          4   -1    0    0  502    0  0.00000000000E+00  0.00000000000E+00  0.22229267720E+04  0.22229267720E+04  0.00000000000E+00 0.  1.
         -4   -1    0    0    0  501 -0.00000000000E+00 -0.00000000000E+00 -0.17584713453E+04  0.17584713453E+04  0.00000000000E+00 0. -1.
   -9000010    2    1    2    0  501 -0.36062946708E+03  0.57355679374E+03 -0.13447456305E+04  0.18043075236E+04  0.99406429409E+03 0.  0.
    9000010    2    1    2  502    0  0.36062946708E+03 -0.57355679374E+03  0.18092010572E+04  0.21770905937E+04  0.10037399961E+04 0.  0.
        -13    1    4    4    0    0  0.29860823444E+02 -0.38530513570E+03  0.17497112865E+04  0.17918820591E+04  0.10566000000E+00 0.  1.
          4    1    4    4  502    0  0.33076864363E+03 -0.18825165804E+03  0.59489770752E+02  0.38520853468E+03  0.00000000000E+00 0.  1.
         13    1    3    3    0    0  0.76152285936E+02  0.30533322928E+03 -0.12423888232E+04  0.12816230142E+04  0.10566000000E+00 0. -1.
         -4    1    3    3    0  501 -0.43678175301E+03  0.26822356447E+03 -0.10235680732E+03  0.52268450934E+03  0.00000000000E+00 0. -1.
<mgrwt>
<rscale>  0 0.12069871E+04</rscale>
<asrwt>0</asrwt>
<pdfrwt beam="1">  1        4 0.34198873E+00 0.12109975E+04</pdfrwt>
<pdfrwt beam="2">  1       -4 0.27053405E+00 0.12029900E+04</pdfrwt>
<totfact> 0.51513047E-02</totfact>
</mgrwt>
</event>
<event>
 8    1  0.2939692E-006  0.1060897E+04  0.7818608E-02  0.8721076E-01
          4   -1    0    0  502    0  0.00000000000E+00  0.00000000000E+00  0.55281700486E+03  0.55281700486E+03  0.00000000000E+00 0.  1.
         -4   -1    0    0    0  501 -0.00000000000E+00 -0.00000000000E+00 -0.26982948858E+04  0.26982948858E+04  0.00000000000E+00 0. -1.
   -9000010    2    1    2    0  501 -0.89818453946E+02  0.24738895806E+03 -0.18811355967E+04  0.21577780229E+04  0.10237510497E+04 0.  0.
    9000010    2    1    2  502    0  0.89818453946E+02 -0.24738895806E+03 -0.26434228421E+03  0.10933338677E+04  0.10277321888E+04 0.  0.
        -13    1    4    4    0    0  0.32701491229E+03  0.26887993821E+03 -0.30794433103E+03  0.52351207838E+03  0.10566000000E+00 0.  1.
          4    1    4    4  502    0 -0.23719645835E+03 -0.51626889627E+03  0.43602046824E+02  0.56982178933E+03  0.00000000000E+00 0.  1.
         13    1    3    3    0    0  0.21035226583E+03  0.22678777639E+03 -0.18258471183E+04  0.18518635160E+04  0.10566000000E+00 0. -1.
         -4    1    3    3    0  501 -0.30017071978E+03  0.20601181666E+02 -0.55288478382E+02  0.30591450691E+03  0.00000000000E+00 0. -1.
<mgrwt>
<rscale>  0 0.10589670E+04</rscale>
<asrwt>0</asrwt>
<pdfrwt beam="1">  1        4 0.85048770E-01 0.10608968E+04</pdfrwt>
<pdfrwt beam="2">  1       -4 0.41512229E+00 0.10570406E+04</pdfrwt>
<totfact> 0.16827472E-01</totfact>
</mgrwt>
</event>
<event>
 8    1  0.2939692E-006  0.1749816E+04  0.7818608E-02  0.8279642E-01
         -4   -1    0    0    0  501 -0.00000000000E+00  0.00000000000E+00  0.90971267711E+03  0.90971267711E+03  0.00000000000E+00 0.  1.
          4   -1    0    0  502    0  0.00000000000E+00 -0.00000000000E+00 -0.34107810527E+04  0.34107810527E+04  0.00000000000E+00 0. -1.
   -9000010    2    1    2    0  501  0.13509052393E+04 -0.49495226568E+03 -0.15214324981E+04  0.23187521608E+04  0.99595784346E+03 0.  0.
    9000010    2    1    2  502    0 -0.13509052393E+04  0.49495226568E+03 -0.97963587746E+03  0.20017415690E+04  0.98861526687E+03 0.  0.
        -13    1    4    4    0    0 -0.11953718222E+04  0.76124926584E+03 -0.91424995275E+03  0.16864955456E+04  0.10566000000E+00 0.  1.
          4    1    4    4  502    0 -0.15553341707E+03 -0.26629700017E+03 -0.65385924716E+02  0.31524602341E+03  0.00000000000E+00 0.  1.
         13    1    3    3    0    0  0.11517083316E+04  0.22837136364E+02 -0.77355370272E+03  0.13875658392E+04  0.10566000000E+00 0. -1.
         -4    1    3    3    0  501  0.19919690765E+03 -0.51778940204E+03 -0.74787879542E+03  0.93118632159E+03  0.00000000000E+00 0. -1.
<mgrwt>
<rscale>  0 0.17477300E+04</rscale>
<asrwt>0</asrwt>
<pdfrwt beam="2">  1        4 0.52473554E+00 0.17456468E+04</pdfrwt>
<pdfrwt beam="1">  1       -4 0.13995580E+00 0.17498156E+04</pdfrwt>
<totfact> 0.20177519E-02</totfact>
</mgrwt>
</event>
<event>
 8    1  0.2939692E-006  0.1056637E+04  0.7818608E-02  0.8762821E-01
         -4   -1    0    0    0  501 -0.00000000000E+00  0.00000000000E+00  0.15763733177E+04  0.15763733177E+04  0.00000000000E+00 0. -1.
          4   -1    0    0  502    0  0.00000000000E+00 -0.00000000000E+00 -0.10547188283E+04  0.10547188283E+04  0.00000000000E+00 0.  1.
   -9000010    2    1    2    0  501 -0.15525482000E+03  0.33828729079E+03  0.10804694272E+04  0.15112562759E+04  0.98890798257E+03 0.  0.
    9000010    2    1    2  502    0  0.15525482000E+03 -0.33828729079E+03 -0.55881493778E+03  0.11198358701E+04  0.89622312568E+03 0.  0.
        -13    1    4    4    0    0  0.87640782350E+00  0.15889332484E+03 -0.57744277192E+03  0.59890568771E+03  0.10566000000E+00 0.  1.
          4    1    4    4  502    0  0.15437841218E+03 -0.49718061563E+03  0.18627834138E+02  0.52093018238E+03  0.00000000000E+00 0.  1.
         13    1    3    3    0    0 -0.43867402606E+03  0.32672662896E+02  0.99201117934E+03  0.10851675424E+04  0.10566000000E+00 0. -1.
         -4    1    3    3    0  501  0.28341920606E+03  0.30561462790E+03  0.88458247849E+02  0.42608873343E+03  0.00000000000E+00 0. -1.
<mgrwt>
<rscale>  0 0.10126229E+04</rscale>
<asrwt>0</asrwt>
<pdfrwt beam="2">  1        4 0.16226443E+00 0.97044229E+03</pdfrwt>
<pdfrwt beam="1">  1       -4 0.24251897E+00 0.10566368E+04</pdfrwt>
<totfact> 0.18888574E-01</totfact>
</mgrwt>
</event>
<event>
 8    1  0.2939692E-006  0.1111288E+04  0.7818608E-02  0.8679992E-01
          4   -1    0    0  502    0  0.00000000000E+00  0.00000000000E+00  0.29723704668E+04  0.29723704668E+04  0.00000000000E+00 0.  1.
         -4   -1    0    0    0  501 -0.00000000000E+00 -0.00000000000E+00 -0.13611195874E+04  0.13611195874E+04  0.00000000000E+00 0. -1.
   -9000010    2    1    2    0  501  0.12186864328E+03  0.42942220068E+03 -0.10042717843E+04  0.14916737551E+04  0.10085997136E+04 0.  0.
    9000010    2    1    2  502    0 -0.12186864328E+03 -0.42942220068E+03  0.26155226637E+04  0.28418162991E+04  0.10176962616E+04 0.  0.
        -13    1    4    4    0    0  0.19379201630E+03 -0.16479111023E+03  0.70913936773E+02  0.26408379955E+03  0.10566000000E+00 0.  1.
          4    1    4    4  502    0 -0.31566065959E+03 -0.26463109045E+03  0.25446087269E+04  0.25777324995E+04  0.00000000000E+00 0.  1.
         13    1    3    3    0    0  0.27043648009E+03  0.18978200546E+03 -0.11341138213E+04  0.11812566488E+04  0.10566000000E+00 0. -1.
         -4    1    3    3    0  501 -0.14856783681E+03  0.23964019521E+03  0.12984203705E+03  0.31041710630E+03  0.00000000000E+00 0. -1.
<mgrwt>
<rscale>  0 0.11071180E+04</rscale>
<asrwt>0</asrwt>
<pdfrwt beam="1">  1        4 0.45728776E+00 0.11112880E+04</pdfrwt>
<pdfrwt beam="2">  1       -4 0.20940301E+00 0.11029636E+04</pdfrwt>
<totfact> 0.25303454E-02</totfact>
</mgrwt>
</event>
<event>
 8    1  0.2939692E-006  0.1109808E+04  0.7818608E-02  0.8687053E-01
          4   -1    0    0  502    0  0.00000000000E+00  0.00000000000E+00  0.10229574646E+04  0.10229574646E+04  0.00000000000E+00 0. -1.
         -4   -1    0    0    0  501 -0.00000000000E+00 -0.00000000000E+00 -0.21107229113E+04  0.21107229113E+04  0.00000000000E+00 0.  1.
   -9000010    2    1    2    0  501  0.10877100228E+03 -0.44832668485E+03 -0.15811852016E+04  0.19191286911E+04  0.98492656777E+03 0.  0.
    9000010    2    1    2  502    0 -0.10877100228E+03  0.44832668485E+03  0.49341975488E+03  0.12145516848E+04  0.10093784192E+04 0.  0.
        -13    1    4    4    0    0 -0.14400468294E+03  0.52371400037E+03 -0.15181788462E+03  0.56397019792E+03  0.10566000000E+00 0.  1.
          4    1    4    4  502    0  0.35233680659E+02 -0.75387315515E+02  0.64523763950E+03  0.65058148685E+03  0.00000000000E+00 0.  1.
         13    1    3    3    0    0 -0.33607489722E+03 -0.51554801441E+03 -0.71736009654E+03  0.94516750419E+03  0.10566000000E+00 0. -1.
         -4    1    3    3    0  501  0.44484589950E+03  0.67221329560E+02 -0.86382510505E+03  0.97396118689E+03  0.00000000000E+00 0. -1.
<mgrwt>
<rscale>  0 0.10986557E+04</rscale>
<asrwt>0</asrwt>
<pdfrwt beam="1">  1        4 0.15737807E+00 0.11098075E+04</pdfrwt>
<pdfrwt beam="2">  1       -4 0.32472660E+00 0.10876159E+04</pdfrwt>
<totfact> 0.12123911E-01</totfact>
</mgrwt>
</event>
<event>
 8    1  0.2939692E-006  0.1206586E+04  0.7818608E-02  0.8607614E-01
         -4   -1    0    0    0  501 -0.00000000000E+00  0.00000000000E+00  0.14240565709E+04  0.14240565709E+04  0.00000000000E+00 0. -1.
          4   -1    0    0  502    0  0.00000000000E+00 -0.00000000000E+00 -0.22004644658E+04  0.22004644658E+04  0.00000000000E+00 0.  1.
   -9000010    2    1    2    0  501  0.33157387601E+03 -0.56143082907E+03  0.94655992315E+03  0.15210793729E+04  0.99627353640E+03 0.  0.
    9000010    2    1    2  502    0 -0.33157387601E+03  0.56143082907E+03 -0.17229678180E+04  0.21034416639E+04  0.10152354015E+04 0.  0.
        -13    1    4    4    0    0  0.17426140161E+03  0.49507886091E+03 -0.32996735374E+03  0.61995853112E+03  0.10566000000E+00 0.  1.
          4    1    4    4  502    0 -0.50583527762E+03  0.66351968162E+02 -0.13930004643E+04  0.14834831328E+04  0.00000000000E+00 0.  1.
         13    1    3    3    0    0  0.66025232476E+03 -0.24851967602E+03  0.74024087930E+03  0.10225711380E+04  0.10566000000E+00 0. -1.
         -4    1    3    3    0  501 -0.32867844874E+03 -0.31291115305E+03  0.20631904386E+03  0.49850823486E+03  0.00000000000E+00 0. -1.
<mgrwt>
<rscale>  0 0.11986038E+04</rscale>
<asrwt>0</asrwt>
<pdfrwt beam="2">  1        4 0.33853299E+00 0.12065856E+04</pdfrwt>
<pdfrwt beam="1">  1       -4 0.21908563E+00 0.11906749E+04</pdfrwt>
<totfact> 0.70245138E-02</totfact>
</mgrwt>
</event>
<event>
 8    1  0.2939692E-006  0.1148305E+04  0.7818608E-02  0.8649896E-01
          4   -1    0    0  502    0  0.00000000000E+00  0.00000000000E+00  0.12572813971E+04  0.12572813971E+04  0.00000000000E+00 0.  1.
         -4   -1    0    0    0  501 -0.00000000000E+00 -0.00000000000E+00 -0.34810007051E+04  0.34810007051E+04  0.00000000000E+00 0. -1.
   -9000010    2    1    2    0  501 -0.48431396774E+02 -0.52908822235E+03 -0.30940979610E+04  0.32973923457E+04  0.10085009378E+04 0.  0.
    9000010    2    1    2  502    0  0.48431396774E+02  0.52908822235E+03  0.87037865305E+03  0.14408897565E+04  0.10180001688E+04 0.  0.
        -13    1    4    4    0    0 -0.47647127103E+03  0.20870601708E+03  0.50813482950E+03  0.72717541886E+03  0.10566000000E+00 0.  1.
          4    1    4    4  502    0  0.52490266780E+03  0.32038220528E+03  0.36224382355E+03  0.71371433769E+03  0.00000000000E+00 0.  1.
         13    1    3    3    0    0 -0.44791664267E+03 -0.48772625044E+03 -0.13005780665E+04  0.14594552177E+04  0.10566000000E+00 0. -1.
         -4    1    3    3    0  501  0.39948524590E+03 -0.41361971916E+02 -0.17935198945E+04  0.18379371280E+04  0.00000000000E+00 0. -1.
<mgrwt>
<rscale>  0 0.11440908E+04</rscale>
<asrwt>0</asrwt>
<pdfrwt beam="1">  1        4 0.19342791E+00 0.11483050E+04</pdfrwt>
<pdfrwt beam="2">  1       -4 0.53553857E+00 0.11398921E+04</pdfrwt>
<totfact> 0.12026564E-02</totfact>
</mgrwt>
</event>
<event>
 8    1  0.2939692E-006  0.1064207E+04  0.7818608E-02  0.8735045E-01
          4   -1    0    0  502    0  0.00000000000E+00  0.00000000000E+00  0.16642336547E+04  0.16642336547E+04  0.00000000000E+00 0.  1.
         -4   -1    0    0    0  501 -0.00000000000E+00 -0.00000000000E+00 -0.72574955967E+03  0.72574955967E+03  0.00000000000E+00 0. -1.
   -9000010    2    1    2    0  501  0.22097417545E+03  0.16282433245E+03  0.10240541435E+03  0.10691229529E+04  0.10282002091E+04 0.  0.
    9000010    2    1    2  502    0 -0.22097417545E+03 -0.16282433245E+03  0.83607868068E+03  0.13208602615E+04  0.98503955285E+03 0.  0.
        -13    1    4    4    0    0 -0.31599171700E+03  0.30127611590E+03  0.70515487609E+03  0.82937414576E+03  0.10566000000E+00 0.  1.
          4    1    4    4  502    0  0.95017541545E+02 -0.46410044835E+03  0.13092380460E+03  0.49148611575E+03  0.00000000000E+00 0.  1.
         13    1    3    3    0    0  0.10962397009E+03  0.50732353552E+03  0.35398176068E+03  0.62824969762E+03  0.10566000000E+00 0. -1.
         -4    1    3    3    0  501  0.11135020536E+03 -0.34449920306E+03 -0.25157634633E+03  0.44087325523E+03  0.00000000000E+00 0. -1.
<mgrwt>
<rscale>  0 0.10431796E+04</rscale>
<asrwt>0</asrwt>
<pdfrwt beam="1">  1        4 0.25603595E+00 0.10225675E+04</pdfrwt>
<pdfrwt beam="2">  1       -4 0.11165378E+00 0.10642072E+04</pdfrwt>
<totfact> 0.31577795E-01</totfact>
</mgrwt>
</event>
<event>
 8    1  0.2939692E-006  0.1302301E+04  0.7818608E-02  0.8540667E-01
          4   -1    0    0  502    0  0.00000000000E+00  0.00000000000E+00  0.49115873899E+03  0.49115873899E+03  0.00000000000E+00 0.  1.
         -4   -1    0    0    0  501 -0.00000000000E+00 -0.00000000000E+00 -0.44118457377E+04  0.44118457377E+04  0.00000000000E+00 0. -1.
   -9000010    2    1    2    0  501  0.61405445075E+03  0.53794075957E+03 -0.31490637903E+04  0.34077249984E+04  0.10146643682E+04 0.  0.
    9000010    2    1    2  502    0 -0.61405445075E+03 -0.53794075957E+03 -0.77162320843E+03  0.14952794783E+04  0.98692209071E+03 0.  0.
        -13    1    4    4    0    0 -0.47098134052E+03 -0.28063122680E+03  0.11575543218E+03  0.56033618464E+03  0.10566000000E+00 0.  1.
          4    1    4    4  502    0 -0.14307311023E+03 -0.25730953277E+03 -0.88737864062E+03  0.93494329366E+03  0.00000000000E+00 0.  1.
         13    1    3    3    0    0  0.50938071742E+03  0.83986869787E+03 -0.24151400767E+04  0.26072494599E+04  0.10566000000E+00 0. -1.
         -4    1    3    3    0  501  0.10467373333E+03 -0.30192793830E+03 -0.73392371354E+03  0.80047553846E+03  0.00000000000E+00 0. -1.
<mgrwt>
<rscale>  0 0.12915075E+04</rscale>
<asrwt>0</asrwt>
<pdfrwt beam="1">  1        4 0.75562886E-01 0.12808038E+04</pdfrwt>
<pdfrwt beam="2">  1       -4 0.67874547E+00 0.13023006E+04</pdfrwt>
<totfact> 0.10012262E-02</totfact>
</mgrwt>
</event>
<event>
 8    1  0.2939692E-006  0.1428667E+04  0.7818608E-02  0.8457698E-01
          4   -1    0    0  502    0  0.00000000000E+00  0.00000000000E+00  0.96355775995E+03  0.96355775995E+03  0.00000000000E+00 0.  1.
         -4   -1    0    0    0  501 -0.00000000000E+00 -0.00000000000E+00 -0.26566359779E+04  0.26566359779E+04  0.00000000000E+00 0. -1.
   -9000010    2    1    2    0  501 -0.42658197697E+03 -0.88193325657E+03 -0.16781118988E+04  0.21914478727E+04  0.10132155653E+04 0.  0.
    9000010    2    1    2  502    0  0.42658197697E+03  0.88193325657E+03 -0.14966319112E+02  0.14287458651E+04  0.10398616755E+04 0.  0.
        -13    1    4    4    0    0  0.53472523282E+03  0.40207771488E+02  0.16536527805E+03  0.56115365619E+03  0.10566000000E+00 0.  1.
          4    1    4    4  502    0 -0.10814325585E+03  0.84172548508E+03 -0.18033159717E+03  0.86759220891E+03  0.00000000000E+00 0.  1.
         13    1    3    3    0    0  0.13156691661E+03 -0.60241609809E+03 -0.13546641493E+04  0.14883984606E+04  0.10566000000E+00 0. -1.
         -4    1    3    3    0  501 -0.55814889358E+03 -0.27951715848E+03 -0.32344774949E+03  0.70304941216E+03  0.00000000000E+00 0. -1.
<mgrwt>
<rscale>  0 0.14189967E+04</rscale>
<asrwt>0</asrwt>
<pdfrwt beam="1">  1        4 0.14823966E+00 0.14286675E+04</pdfrwt>
<pdfrwt beam="2">  1       -4 0.40871322E+00 0.14093914E+04</pdfrwt>
<totfact> 0.64965469E-02</totfact>
</mgrwt>
</event>
<event>
 8    1  0.2939692E-006  0.1046817E+04  0.7818608E-02  0.8805883E-01
          4   -1    0    0  502    0  0.00000000000E+00  0.00000000000E+00  0.18650020822E+04  0.18650020822E+04  0.00000000000E+00 0.  1.
         -4   -1    0    0    0  501 -0.00000000000E+00 -0.00000000000E+00 -0.14693287310E+04  0.14693287310E+04  0.00000000000E+00 0. -1.
   -9000010    2    1    2    0  501 -0.50617236703E+02  0.25964050850E+03 -0.11460599863E+04  0.15521853971E+04  0.10128428883E+04 0.  0.
    9000010    2    1    2  502    0  0.50617236703E+02 -0.25964050850E+03  0.15417333375E+04  0.17821454162E+04  0.85388834304E+03 0.  0.
        -13    1    4    4    0    0  0.22247735124E+03 -0.51003100056E+03  0.12133440508E+04  0.13348526473E+04  0.10566000000E+00 0.  1.
          4    1    4    4  502    0 -0.17186011454E+03  0.25039049207E+03  0.32838928667E+03  0.44729276887E+03  0.00000000000E+00 0.  1.
         13    1    3    3    0    0 -0.26367382280E+03 -0.26423678974E+03 -0.14118562195E+03  0.39909692669E+03  0.10566000000E+00 0. -1.
         -4    1    3    3    0  501  0.21305658610E+03  0.52387729823E+03 -0.10048743643E+04  0.11530884704E+04  0.00000000000E+00 0. -1.
<mgrwt>
<rscale>  0 0.96735474E+03</rscale>
<asrwt>0</asrwt>
<pdfrwt beam="1">  1        4 0.28692340E+00 0.89392427E+03</pdfrwt>
<pdfrwt beam="2">  1       -4 0.22605057E+00 0.10468171E+04</pdfrwt>
<totfact> 0.96030111E-02</totfact>
</mgrwt>
</event>
<event>
 8    1  0.2939692E-006  0.1409541E+04  0.7818608E-02  0.8546198E-01
         -4   -1    0    0    0  501 -0.00000000000E+00  0.00000000000E+00  0.21669032969E+04  0.21669032969E+04  0.00000000000E+00 0. -1.
          4   -1    0    0  502    0  0.00000000000E+00 -0.00000000000E+00 -0.10623899196E+04  0.10623899196E+04  0.00000000000E+00 0.  1.
   -9000010    2    1    2    0  501 -0.10023185945E+03 -0.59367127798E+03  0.13638196245E+04  0.17960991839E+04  0.10017366412E+04 0.  0.
    9000010    2    1    2  502    0  0.10023185945E+03  0.59367127798E+03 -0.25930624721E+03  0.14331940326E+04  0.12744855406E+04 0.  0.
        -13    1    4    4    0    0  0.26234538193E+03 -0.34450694588E+01 -0.65032934753E+03  0.70125975169E+03  0.10566000000E+00 0.  1.
          4    1    4    4  502    0 -0.16211352248E+03  0.59711634744E+03  0.39102310032E+03  0.73193428088E+03  0.00000000000E+00 0.  1.
         13    1    3    3    0    0 -0.44354988856E+03 -0.47709162447E+03  0.12608519976E+04  0.14191901539E+04  0.10566000000E+00 0. -1.
         -4    1    3    3    0  501  0.34331802911E+03 -0.11657965352E+03  0.10296762687E+03  0.37690903002E+03  0.00000000000E+00 0. -1.
<mgrwt>
<rscale>  0 0.12835092E+04</rscale>
<asrwt>0</asrwt>
<pdfrwt beam="2">  1        4 0.16344460E+00 0.14095408E+04</pdfrwt>
<pdfrwt beam="1">  1       -4 0.33336974E+00 0.11687465E+04</pdfrwt>
<totfact> 0.10767824E-01</totfact>
</mgrwt>
</event>
<event>
 8    1  0.2939692E-006  0.1173100E+04  0.7818608E-02  0.8627410E-01
          4   -1    0    0  502    0  0.00000000000E+00  0.00000000000E+00  0.71555054426E+03  0.71555054426E+03  0.00000000000E+00 0.  1.
         -4   -1    0    0    0  501 -0.00000000000E+00 -0.00000000000E+00 -0.27602142868E+04  0.27602142868E+04  0.00000000000E+00 0. -1.
   -9000010    2    1    2    0  501 -0.57075604873E+03  0.20652605052E+03 -0.19803231829E+04  0.23017045185E+04  0.10038666769E+04 0.  0.
    9000010    2    1    2  502    0  0.57075604873E+03 -0.20652605052E+03 -0.64340559626E+02  0.11740603125E+04  0.10029269331E+04 0.  0.
        -13    1    4    4    0    0  0.15030985739E+03  0.18758428899E+03 -0.42924351404E+03  0.49196638525E+03  0.10566000000E+00 0.  1.
          4    1    4    4  502    0  0.42044619134E+03 -0.39411033951E+03  0.36490295441E+03  0.68209392730E+03  0.00000000000E+00 0.  1.
         13    1    3    3    0    0 -0.63967453265E+03 -0.21360724311E+03 -0.15774209093E+04  0.17155373206E+04  0.10566000000E+00 0. -1.
         -4    1    3    3    0  501  0.68918483928E+02  0.42013329363E+03 -0.40290227358E+03  0.58616719791E+03  0.00000000000E+00 0. -1.
<mgrwt>
<rscale>  0 0.11726980E+04</rscale>
<asrwt>0</asrwt>
<pdfrwt beam="1">  1        4 0.11008470E+00 0.11722960E+04</pdfrwt>
<pdfrwt beam="2">  1       -4 0.42464835E+00 0.11731001E+04</pdfrwt>
<totfact> 0.92267962E-02</totfact>
</mgrwt>
</event>
<event>
 8    1  0.2939692E-006  0.1067796E+04  0.7818608E-02  0.8722174E-01
         -4   -1    0    0    0  501 -0.00000000000E+00  0.00000000000E+00  0.23938919248E+04  0.23938919248E+04  0.00000000000E+00 0. -1.
          4   -1    0    0  502    0  0.00000000000E+00 -0.00000000000E+00 -0.10154007059E+04  0.10154007059E+04  0.00000000000E+00 0.  1.
   -9000010    2    1    2    0  501  0.32792751944E+03 -0.82271217306E+02  0.19385241740E+04  0.22035461261E+04  0.99168268394E+03 0.  0.
    9000010    2    1    2  502    0 -0.32792751944E+03  0.82271217306E+02 -0.56003295512E+03  0.12057465046E+04  0.10128586828E+04 0.  0.
        -13    1    4    4    0    0  0.13755997863E+03  0.44632463707E+03 -0.32880799854E+03  0.57117697821E+03  0.10566000000E+00 0.  1.
          4    1    4    4  502    0 -0.46548749808E+03 -0.36405341976E+03 -0.23122495658E+03  0.63456952641E+03  0.00000000000E+00 0.  1.
         13    1    3    3    0    0 -0.15126629377E+03 -0.40116814549E+03  0.52834859664E+03  0.68041871176E+03  0.10566000000E+00 0. -1.
         -4    1    3    3    0  501  0.47919381321E+03  0.31889692818E+03  0.14101755774E+04  0.15231274144E+04  0.00000000000E+00 0. -1.
<mgrwt>
<rscale>  0 0.10577156E+04</rscale>
<asrwt>0</asrwt>
<pdfrwt beam="2">  1        4 0.15621549E+00 0.10677957E+04</pdfrwt>
<pdfrwt beam="1">  1       -4 0.36829106E+00 0.10477307E+04</pdfrwt>
<totfact> 0.88811816E-02</totfact>
</mgrwt>
</event>
<event>
 8    1  0.2939692E-006  0.1294321E+04  0.7818608E-02  0.8542508E-01
         -4   -1    0    0    0  501 -0.00000000000E+00  0.00000000000E+00  0.16589036435E+04  0.16589036435E+04  0.00000000000E+00 0. -1.
          4   -1    0    0  502    0  0.00000000000E+00 -0.00000000000E+00 -0.10203177094E+04  0.10203177094E+04  0.00000000000E+00 0.  1.
   -9000010    2    1    2    0  501 -0.52014383244E+03  0.62905990987E+03  0.50329360498E+03  0.13887297329E+04  0.10044898415E+04 0.  0.
    9000010    2    1    2  502    0  0.52014383244E+03 -0.62905990987E+03  0.13529232913E+03  0.12904916199E+04  0.99035278067E+03 0.  0.
        -13    1    4    4    0    0  0.26108399684E+03 -0.87881007640E+03  0.37240181287E+02  0.91752866226E+03  0.10566000000E+00 0.  1.
          4    1    4    4  502    0  0.25905983560E+03  0.24975016654E+03  0.98052147845E+02  0.37296295768E+03  0.00000000000E+00 0.  1.
         13    1    3    3    0    0 -0.25625484144E+03 -0.15360352170E+02  0.63058065413E+03  0.68083364834E+03  0.10566000000E+00 0. -1.
         -4    1    3    3    0  501 -0.26388899101E+03  0.64442026204E+03 -0.12728704915E+03  0.70789608459E+03  0.00000000000E+00 0. -1.
<mgrwt>
<rscale>  0 0.12888388E+04</rscale>
<asrwt>0</asrwt>
<pdfrwt beam="2">  1        4 0.15697196E+00 0.12833801E+04</pdfrwt>
<pdfrwt beam="1">  1       -4 0.25521594E+00 0.12943206E+04</pdfrwt>
<totfact> 0.18264468E-01</totfact>
</mgrwt>
</event>
<event>
 8    1  0.2939692E-006  0.1079481E+04  0.7818608E-02  0.8709998E-01
         -4   -1    0    0    0  501 -0.00000000000E+00  0.00000000000E+00  0.13258122936E+04  0.13258122936E+04  0.00000000000E+00 0. -1.
          4   -1    0    0  502    0  0.00000000000E+00 -0.00000000000E+00 -0.28150101982E+04  0.28150101982E+04  0.00000000000E+00 0.  1.
   -9000010    2    1    2    0  501 -0.90840465477E+01 -0.40987175434E+03  0.97965578358E+03  0.14462878342E+04  0.98180734885E+03 0.  0.
    9000010    2    1    2  502    0  0.90840465477E+01  0.40987175434E+03 -0.24688536882E+04  0.26945346576E+04  0.99859957557E+03 0.  0.
        -13    1    4    4    0    0 -0.68913529477E+02 -0.32911311384E+03 -0.78937037882E+03  0.85800356781E+03  0.10566000000E+00 0.  1.
          4    1    4    4  502    0  0.77997576024E+02  0.73898486818E+03 -0.16794833093E+04  0.18365310898E+04  0.00000000000E+00 0.  1.
         13    1    3    3    0    0 -0.37214988757E+03 -0.23543678911E+03  0.62762871921E+02  0.44482042415E+03  0.10566000000E+00 0. -1.
         -4    1    3    3    0  501  0.36306584103E+03 -0.17443496523E+03  0.91689291166E+03  0.10014674101E+04  0.00000000000E+00 0. -1.
<mgrwt>
<rscale>  0 0.10716951E+04</rscale>
<asrwt>0</asrwt>
<pdfrwt beam="2">  1        4 0.43307849E+00 0.10794807E+04</pdfrwt>
<pdfrwt beam="1">  1       -4 0.20397112E+00 0.10639657E+04</pdfrwt>
<totfact> 0.34021334E-02</totfact>
</mgrwt>
</event>
<event>
 8    1  0.2939692E-006  0.1325417E+04  0.7818608E-02  0.8519713E-01
          4   -1    0    0  502    0  0.00000000000E+00  0.00000000000E+00  0.77991270481E+03  0.77991270481E+03  0.00000000000E+00 0.  1.
         -4   -1    0    0    0  501 -0.00000000000E+00 -0.00000000000E+00 -0.30756964751E+04  0.30756964751E+04  0.00000000000E+00 0. -1.
   -9000010    2    1    2    0  501  0.78084136368E+03 -0.38042519966E+03 -0.21534471384E+04  0.25286488286E+04  0.10011462196E+04 0.  0.
    9000010    2    1    2  502    0 -0.78084136368E+03  0.38042519966E+03 -0.14233663190E+03  0.13269603513E+04  0.99303952050E+03 0.  0.
        -13    1    4    4    0    0 -0.77626044001E+03 -0.13794989577E+03 -0.17473507238E+03  0.80755359027E+03  0.10566000000E+00 0.  1.
          4    1    4    4  502    0 -0.45809236729E+01  0.51837509543E+03  0.32398440477E+02  0.51940676100E+03  0.00000000000E+00 0.  1.
         13    1    3    3    0    0  0.70620339902E+03 -0.12483704135E+03 -0.55140273631E+03  0.90462838583E+03  0.10566000000E+00 0. -1.
         -4    1    3    3    0  501  0.74637964660E+02 -0.25558815831E+03 -0.16020444021E+04  0.16240204428E+04  0.00000000000E+00 0. -1.
<mgrwt>
<rscale>  0 0.13223572E+04</rscale>
<asrwt>0</asrwt>
<pdfrwt beam="1">  1        4 0.11998657E+00 0.13193044E+04</pdfrwt>
<pdfrwt beam="2">  1       -4 0.47318408E+00 0.13254170E+04</pdfrwt>
<totfact> 0.46743452E-02</totfact>
</mgrwt>
</event>
<event>
 8    1  0.2939692E-006  0.1273732E+04  0.7818608E-02  0.8553536E-01
         -4   -1    0    0    0  501 -0.00000000000E+00  0.00000000000E+00  0.78335030106E+03  0.78335030106E+03  0.00000000000E+00 0. -1.
          4   -1    0    0  502    0  0.00000000000E+00 -0.00000000000E+00 -0.25828936211E+04  0.25828936211E+04  0.00000000000E+00 0.  1.
   -9000010    2    1    2    0  501  0.76678163344E+03 -0.21546801327E+03 -0.14920700255E+03  0.12824418602E+04  0.99398886161E+03 0.  0.
    9000010    2    1    2  502    0 -0.76678163344E+03  0.21546801327E+03 -0.16503363175E+04  0.20838020620E+04  0.99208897515E+03 0.  0.
        -13    1    4    4    0    0 -0.94818101191E+03 -0.29840464481E+02 -0.10837598665E+04  0.14403031431E+04  0.10566000000E+00 0.  1.
          4    1    4    4  502    0  0.18139937847E+03  0.24530847775E+03 -0.56657645104E+03  0.64349891891E+03  0.00000000000E+00 0.  1.
         13    1    3    3    0    0  0.76244102548E+03  0.20061773646E+03  0.10419258045E+03  0.79524832506E+03  0.10566000000E+00 0. -1.
         -4    1    3    3    0  501  0.43406079587E+01 -0.41608574973E+03 -0.25339958299E+03  0.48719353513E+03  0.00000000000E+00 0. -1.
<mgrwt>
<rscale>  0 0.12729912E+04</rscale>
<asrwt>0</asrwt>
<pdfrwt beam="2">  1        4 0.39736825E+00 0.12722504E+04</pdfrwt>
<pdfrwt beam="1">  1       -4 0.12051543E+00 0.12737325E+04</pdfrwt>
<totfact> 0.10120949E-01</totfact>
</mgrwt>
</event>
<event>
 8    1  0.2939692E-006  0.1060424E+04  0.7818608E-02  0.8730185E-01
         -4   -1    0    0    0  501 -0.00000000000E+00  0.00000000000E+00  0.23008223038E+04  0.23008223038E+04  0.00000000000E+00 0. -1.
          4   -1    0    0  502    0  0.00000000000E+00 -0.00000000000E+00 -0.61294699554E+03  0.61294699554E+03  0.00000000000E+00 0.  1.
   -9000010    2    1    2    0  501 -0.24798303150E+03 -0.16113296569E+03  0.15348586731E+04  0.18655536385E+04  0.10183515186E+04 0.  0.
    9000010    2    1    2  502    0  0.24798303150E+03  0.16113296569E+03  0.15301663514E+03  0.10482156608E+04  0.99392281607E+03 0.  0.
        -13    1    4    4    0    0  0.31909464394E+03  0.15185498173E+03 -0.37504547114E+03  0.51530616517E+03  0.10566000000E+00 0.  1.
          4    1    4    4  502    0 -0.71111612444E+02  0.92779839679E+01  0.52806210629E+03  0.53290949560E+03  0.00000000000E+00 0.  1.
         13    1    3    3    0    0  0.27621553554E+03  0.12722098360E+03  0.11557547378E+03  0.32532737672E+03  0.10566000000E+00 0. -1.
         -4    1    3    3    0  501 -0.52419856704E+03 -0.28835394930E+03  0.14192831993E+04  0.15402262618E+04  0.00000000000E+00 0. -1.
<mgrwt>
<rscale>  0 0.10486401E+04</rscale>
<asrwt>0</asrwt>
<pdfrwt beam="2">  1        4 0.94299539E-01 0.10369870E+04</pdfrwt>
<pdfrwt beam="1">  1       -4 0.35397266E+00 0.10604241E+04</pdfrwt>
<totfact> 0.23344085E-01</totfact>
</mgrwt>
</event>
<event>
 8    1  0.2939692E-006  0.1042986E+04  0.7818608E-02  0.8738482E-01
          4   -1    0    0  502    0  0.00000000000E+00  0.00000000000E+00  0.19054311263E+04  0.19054311263E+04  0.00000000000E+00 0.  1.
         -4   -1    0    0    0  501 -0.00000000000E+00 -0.00000000000E+00 -0.12499417827E+04  0.12499417827E+04  0.00000000000E+00 0. -1.
   -9000010    2    1    2    0  501 -0.24523141664E+03 -0.11334652528E+03 -0.83797954828E+03  0.13379197715E+04  0.10073895519E+04 0.  0.
    9000010    2    1    2  502    0  0.24523141664E+03  0.11334652528E+03  0.14934688918E+04  0.18174531375E+04  0.99985033558E+03 0.  0.
        -13    1    4    4    0    0  0.27469299180E+03 -0.18858607682E+03  0.14764817294E+04  0.15136113294E+04  0.10566000000E+00 0.  1.
          4    1    4    4  502    0 -0.29461575153E+02  0.30193260210E+03  0.16987162404E+02  0.30384180804E+03  0.00000000000E+00 0.  1.
         13    1    3    3    0    0  0.50664523978E+02  0.31701755070E+02 -0.97803330797E+03  0.97985767228E+03  0.10566000000E+00 0. -1.
         -4    1    3    3    0  501 -0.29589594062E+03 -0.14504828035E+03  0.14005375969E+03  0.35806209924E+03  0.00000000000E+00 0. -1.
<mgrwt>
<rscale>  0 0.10393395E+04</rscale>
<asrwt>0</asrwt>
<pdfrwt beam="1">  1        4 0.29314325E+00 0.10357058E+04</pdfrwt>
<pdfrwt beam="2">  1       -4 0.19229874E+00 0.10429859E+04</pdfrwt>
<totfact> 0.11278642E-01</totfact>
</mgrwt>
</event>
<event>
 8    1  0.2939692E-006  0.1137018E+04  0.7818608E-02  0.8689216E-01
         -4   -1    0    0    0  501 -0.00000000000E+00  0.00000000000E+00  0.88928200261E+03  0.88928200261E+03  0.00000000000E+00 0. -1.
          4   -1    0    0  502    0  0.00000000000E+00 -0.00000000000E+00 -0.47017101720E+04  0.47017101720E+04  0.00000000000E+00 0.  1.
   -9000010    2    1    2    0  501 -0.24712822697E+03  0.20842181960E+03  0.43253079550E+03  0.12165085004E+04  0.10900908343E+04 0.  0.
    9000010    2    1    2  502    0  0.24712822697E+03 -0.20842181960E+03 -0.42449589649E+04  0.43744836742E+04  0.10059417413E+04 0.  0.
        -13    1    4    4    0    0  0.75745439585E+02 -0.42084268361E+03 -0.39482293158E+04  0.39713172471E+04  0.10566000000E+00 0.  1.
          4    1    4    4  502    0  0.17138278738E+03  0.21242086401E+03 -0.29672964905E+03  0.40316642706E+03  0.00000000000E+00 0.  1.
         13    1    3    3    0    0  0.49036687985E+02 -0.41676470602E+03  0.29025539054E+03  0.51024074696E+03  0.10566000000E+00 0. -1.
         -4    1    3    3    0  501 -0.29616491495E+03  0.62518652562E+03  0.14227540496E+03  0.70626775342E+03  0.00000000000E+00 0. -1.
<mgrwt>
<rscale>  0 0.10960784E+04</rscale>
<asrwt>0</asrwt>
<pdfrwt beam="2">  1        4 0.72334003E+00 0.10566129E+04</pdfrwt>
<pdfrwt beam="1">  1       -4 0.13681261E+00 0.11370180E+04</pdfrwt>
<totfact> 0.22058822E-03</totfact>
</mgrwt>
</event>
<event>
 8    1  0.2939692E-006  0.1066639E+04  0.7818608E-02  0.8723325E-01
          4   -1    0    0  502    0  0.00000000000E+00  0.00000000000E+00  0.19391414539E+04  0.19391414539E+04  0.00000000000E+00 0.  1.
         -4   -1    0    0    0  501 -0.00000000000E+00 -0.00000000000E+00 -0.71270503643E+03  0.71270503643E+03  0.00000000000E+00 0. -1.
   -9000010    2    1    2    0  501 -0.18683638344E+03  0.26564235831E+03  0.26834230872E+02  0.10466160301E+04  0.99459104245E+03 0.  0.
    9000010    2    1    2  502    0  0.18683638344E+03 -0.26564235831E+03  0.11996021866E+04  0.16052304603E+04  0.10159949448E+04 0.  0.
        -13    1    4    4    0    0 -0.19288801885E+03  0.10211020671E+03  0.10258261715E+04  0.10487857872E+04  0.10566000000E+00 0.  1.
          4    1    4    4  502    0  0.37972440229E+03 -0.36775256502E+03  0.17377601510E+03  0.55644467308E+03  0.00000000000E+00 0.  1.
         13    1    3    3    0    0  0.17971987556E+03  0.48021303367E+03  0.24596000749E+03  0.56868280071E+03  0.10566000000E+00 0. -1.
         -4    1    3    3    0  501 -0.36655625899E+03 -0.21457067536E+03 -0.21912577662E+03  0.47793322934E+03  0.00000000000E+00 0. -1.
<mgrwt>
<rscale>  0 0.10564066E+04</rscale>
<asrwt>0</asrwt>
<pdfrwt beam="1">  1        4 0.29832945E+00 0.10666393E+04</pdfrwt>
<pdfrwt beam="2">  1       -4 0.10964693E+00 0.10462720E+04</pdfrwt>
<totfact> 0.25560298E-01</totfact>
</mgrwt>
</event>
<event>
 8    1  0.2939692E-006  0.1224201E+04  0.7818608E-02  0.8591942E-01
         -4   -1    0    0    0  501 -0.00000000000E+00  0.00000000000E+00  0.18964216144E+04  0.18964216144E+04  0.00000000000E+00 0. -1.
          4   -1    0    0  502    0  0.00000000000E+00 -0.00000000000E+00 -0.16254841632E+04  0.16254841632E+04  0.00000000000E+00 0.  1.
   -9000010    2    1    2    0  501  0.51604178871E+03 -0.47950945861E+03  0.14019609438E+04  0.18552081140E+04  0.98998697464E+03 0.  0.
    9000010    2    1    2  502    0 -0.51604178871E+03  0.47950945861E+03 -0.11310234925E+04  0.16666976636E+04  0.10012185139E+04 0.  0.
        -13    1    4    4    0    0 -0.79554162264E+03  0.31515419845E+03 -0.10021885342E+04  0.13177975988E+04  0.10566000000E+00 0.  1.
          4    1    4    4  502    0  0.27949983393E+03  0.16435526016E+03 -0.12883495833E+03  0.34890006477E+03  0.00000000000E+00 0.  1.
         13    1    3    3    0    0 -0.10526042415E+03  0.48682847014E+02 -0.95412118478E+02  0.15017742840E+03  0.10566000000E+00 0. -1.
         -4    1    3    3    0  501  0.62130221286E+03 -0.52819230563E+03  0.14973730623E+04  0.17050306856E+04  0.00000000000E+00 0. -1.
<mgrwt>
<rscale>  0 0.12196076E+04</rscale>
<asrwt>0</asrwt>
<pdfrwt beam="2">  1        4 0.25007449E+00 0.12242005E+04</pdfrwt>
<pdfrwt beam="1">  1       -4 0.29175717E+00 0.12150320E+04</pdfrwt>
<totfact> 0.79633824E-02</totfact>
</mgrwt>
</event>
<event>
 8    1  0.2939692E-006  0.1060716E+04  0.7818608E-02  0.8719681E-01
         -4   -1    0    0    0  501 -0.00000000000E+00  0.00000000000E+00  0.17301454336E+04  0.17301454336E+04  0.00000000000E+00 0. -1.
          4   -1    0    0  502    0  0.00000000000E+00 -0.00000000000E+00 -0.16226060430E+04  0.16226060430E+04  0.00000000000E+00 0.  1.
   -9000010    2    1    2    0  501 -0.19721829326E+03  0.28898389369E+03  0.13515747781E+04  0.17181015790E+04  0.10013550364E+04 0.  0.
    9000010    2    1    2  502    0  0.19721829326E+03 -0.28898389369E+03 -0.12440353875E+04  0.16346498976E+04  0.10010242236E+04 0.  0.
        -13    1    4    4    0    0 -0.21185351503E+03 -0.11544979670E+03  0.66965318547E+02  0.25038956137E+03  0.10566000000E+00 0.  1.
          4    1    4    4  502    0  0.40907180830E+03 -0.17353409700E+03 -0.13110007060E+04  0.13842603362E+04  0.00000000000E+00 0.  1.
         13    1    3    3    0    0  0.75381285638E+02  0.45715273180E+03  0.13167833430E+04  0.13959188164E+04  0.10566000000E+00 0. -1.
         -4    1    3    3    0  501 -0.27259957890E+03 -0.16816883811E+03  0.34791435034E+02  0.32218276254E+03  0.00000000000E+00 0. -1.
<mgrwt>
<rscale>  0 0.10605599E+04</rscale>
<asrwt>0</asrwt>
<pdfrwt beam="2">  1        4 0.24963170E+00 0.10604038E+04</pdfrwt>
<pdfrwt beam="1">  1       -4 0.26617622E+00 0.10607161E+04</pdfrwt>
<totfact> 0.93915899E-02</totfact>
</mgrwt>
</event>
<event>
 8    1  0.2939692E-006  0.1132099E+04  0.7818608E-02  0.8683664E-01
          4   -1    0    0  502    0  0.00000000000E+00  0.00000000000E+00  0.12468255680E+04  0.12468255680E+04  0.00000000000E+00 0.  1.
         -4   -1    0    0    0  501 -0.00000000000E+00 -0.00000000000E+00 -0.17083320427E+04  0.17083320427E+04  0.00000000000E+00 0. -1.
   -9000010    2    1    2    0  501 -0.51681112082E+02 -0.54685092800E+03 -0.12015073183E+04  0.16508386205E+04  0.98991486507E+03 0.  0.
    9000010    2    1    2  502    0  0.51681112082E+02  0.54685092800E+03  0.74000084356E+03  0.13043189903E+04  0.92300049030E+03 0.  0.
        -13    1    4    4    0    0 -0.37983709306E+03  0.30615047388E+03  0.10379866198E+03  0.49877700760E+03  0.10566000000E+00 0.  1.
          4    1    4    4  502    0  0.43151820514E+03  0.24070045412E+03  0.63620218158E+03  0.80554198266E+03  0.00000000000E+00 0.  1.
         13    1    3    3    0    0 -0.44763880321E+03 -0.37065016201E+03 -0.10341280221E+04  0.11862473680E+04  0.10566000000E+00 0. -1.
         -4    1    3    3    0  501  0.39595769113E+03 -0.17620076599E+03 -0.16737929619E+03  0.46459125250E+03  0.00000000000E+00 0. -1.
<mgrwt>
<rscale>  0 0.11027078E+04</rscale>
<asrwt>0</asrwt>
<pdfrwt beam="1">  1        4 0.19181932E+00 0.10740795E+04</pdfrwt>
<pdfrwt beam="2">  1       -4 0.26282031E+00 0.11320991E+04</pdfrwt>
<totfact> 0.13393719E-01</totfact>
</mgrwt>
</event>
<event>
 8    1  0.2939692E-006  0.1024074E+04  0.7818608E-02  0.8754682E-01
          4   -1    0    0  502    0  0.00000000000E+00  0.00000000000E+00  0.12927494617E+04  0.12927494617E+04  0.00000000000E+00 0.  1.
         -4   -1    0    0    0  501 -0.00000000000E+00 -0.00000000000E+00 -0.87279897245E+03  0.87279897245E+03  0.00000000000E+00 0. -1.
   -9000010    2    1    2    0  501  0.17738644851E+03  0.11121820093E+03 -0.87558422765E+02  0.10226165486E+04  0.99711718852E+03 0.  0.
    9000010    2    1    2  502    0 -0.17738644851E+03 -0.11121820093E+03  0.50750891200E+03  0.11429318856E+04  0.10024432947E+04 0.  0.
        -13    1    4    4    0    0 -0.71940185671E+01  0.15312940443E+03  0.73758180883E+03  0.75334408094E+03  0.10566000000E+00 0.  1.
          4    1    4    4  502    0 -0.17019242994E+03 -0.26434760536E+03 -0.23007289684E+03  0.38958780464E+03  0.00000000000E+00 0.  1.
         13    1    3    3    0    0  0.44853303282E+03  0.10035258084E+03  0.30046434852E+03  0.54911871021E+03  0.10566000000E+00 0. -1.
         -4    1    3    3    0  501 -0.27114658431E+03  0.10865620089E+02 -0.38802277128E+03  0.47349783834E+03  0.00000000000E+00 0. -1.
<mgrwt>
<rscale>  0 0.10214644E+04</rscale>
<asrwt>0</asrwt>
<pdfrwt beam="1">  1        4 0.19888453E+00 0.10240742E+04</pdfrwt>
<pdfrwt beam="2">  1       -4 0.13427677E+00 0.10188612E+04</pdfrwt>
<totfact> 0.32263866E-01</totfact>
</mgrwt>
</event>
<event>
 8    1  0.2939692E-006  0.1276314E+04  0.7818608E-02  0.8556353E-01
          4   -1    0    0  502    0  0.00000000000E+00  0.00000000000E+00  0.24753064354E+04  0.24753064354E+04  0.00000000000E+00 0.  1.
         -4   -1    0    0    0  501 -0.00000000000E+00 -0.00000000000E+00 -0.74489704763E+03  0.74489704763E+03  0.00000000000E+00 0. -1.
   -9000010    2    1    2    0  501 -0.26333275765E+03  0.69340954025E+03  0.29661470118E+03  0.13103276682E+04  0.10386613429E+04 0.  0.
    9000010    2    1    2  502    0  0.26333275765E+03 -0.69340954025E+03  0.14337946866E+04  0.19098758149E+04  0.10206358279E+04 0.  0.
        -13    1    4    4    0    0 -0.38232627787E+02 -0.43156768165E+03  0.12396060769E+02  0.43343519834E+03  0.10566000000E+00 0.  1.
          4    1    4    4  502    0  0.30156538544E+03 -0.26184185860E+03  0.14213986258E+04  0.14764406165E+04  0.00000000000E+00 0.  1.
         13    1    3    3    0    0 -0.39862959923E+01 -0.25276981066E+03  0.20407792615E+03  0.32489425794E+03  0.10566000000E+00 0. -1.
         -4    1    3    3    0  501 -0.25934646166E+03  0.94617935091E+03  0.92536775032E+02  0.98543341023E+03  0.00000000000E+00 0. -1.
<mgrwt>
<rscale>  0 0.12689805E+04</rscale>
<asrwt>0</asrwt>
<pdfrwt beam="1">  1        4 0.38081637E+00 0.12616887E+04</pdfrwt>
<pdfrwt beam="2">  1       -4 0.11459955E+00 0.12763143E+04</pdfrwt>
<totfact> 0.12794842E-01</totfact>
</mgrwt>
</event>
<event>
 8    1  0.2939692E-006  0.1104643E+04  0.7818608E-02  0.8687473E-01
          4   -1    0    0  502    0  0.00000000000E+00  0.00000000000E+00  0.25195274167E+04  0.25195274167E+04  0.00000000000E+00 0.  1.
         -4   -1    0    0    0  501 -0.00000000000E+00 -0.00000000000E+00 -0.76649656370E+03  0.76649656370E+03  0.00000000000E+00 0. -1.
   -9000010    2    1    2    0  501  0.35341330940E+03  0.29077694970E+03 -0.12709275516E+03  0.11119306022E+04  0.10053779856E+04 0.  0.
    9000010    2    1    2  502    0 -0.35341330940E+03 -0.29077694970E+03  0.18801236082E+04  0.21740933782E+04  0.99114329607E+03 0.  0.
        -13    1    4    4    0    0  0.21300446086E+03 -0.45461214683E+03  0.85680700488E+03  0.99305657400E+03  0.10566000000E+00 0.  1.
          4    1    4    4  502    0 -0.56641777026E+03  0.16383519712E+03  0.10233166033E+04  0.11810368042E+04  0.00000000000E+00 0.  1.
         13    1    3    3    0    0  0.29851380780E+03  0.63066256643E+03 -0.25754008496E+03  0.74375578833E+03  0.10566000000E+00 0. -1.
         -4    1    3    3    0  501  0.54899501605E+02 -0.33988561673E+03  0.13044732980E+03  0.36817481390E+03  0.00000000000E+00 0. -1.
<mgrwt>
<rscale>  0 0.10981546E+04</rscale>
<asrwt>0</asrwt>
<pdfrwt beam="1">  1        4 0.38761960E+00 0.10917038E+04</pdfrwt>
<pdfrwt beam="2">  1       -4 0.11792255E+00 0.11046434E+04</pdfrwt>
<totfact> 0.11618447E-01</totfact>
</mgrwt>
</event>
<event>
 8    1  0.2939692E-006  0.1025394E+04  0.7818608E-02  0.8756887E-01
          4   -1    0    0  502    0  0.00000000000E+00  0.00000000000E+00  0.43314198011E+03  0.43314198011E+03  0.00000000000E+00 0.  1.
         -4   -1    0    0    0  501 -0.00000000000E+00 -0.00000000000E+00 -0.26143241187E+04  0.26143241187E+04  0.00000000000E+00 0. -1.
   -9000010    2    1    2    0  501 -0.59168484682E+02  0.16388132952E+03 -0.15230498394E+04  0.18290360138E+04  0.99766423555E+03 0.  0.
    9000010    2    1    2  502    0  0.59168484682E+02 -0.16388132952E+03 -0.65813229921E+03  0.12184300850E+04  0.10104829286E+04 0.  0.
        -13    1    4    4    0    0  0.11191265472E+02  0.15802172961E+03  0.22617342847E+03  0.27613500749E+03  0.10566000000E+00 0.  1.
          4    1    4    4  502    0  0.47977219211E+02 -0.32190305913E+03 -0.88430572768E+03  0.94229507749E+03  0.00000000000E+00 0.  1.
         13    1    3    3    0    0 -0.47153876101E+03 -0.54438384200E+02 -0.42966322344E+03  0.64025216715E+03  0.10566000000E+00 0. -1.
         -4    1    3    3    0  501  0.41237027632E+03  0.21831971372E+03 -0.10933866159E+04  0.11887838467E+04  0.00000000000E+00 0. -1.
<mgrwt>
<rscale>  0 0.10190599E+04</rscale>
<asrwt>0</asrwt>
<pdfrwt beam="1">  1        4 0.66637230E-01 0.10253944E+04</pdfrwt>
<pdfrwt beam="2">  1       -4 0.40220370E+00 0.10127645E+04</pdfrwt>
<totfact> 0.31580700E-01</totfact>
</mgrwt>
</event>
<event>
 8    1  0.2939692E-006  0.1263066E+04  0.7818608E-02  0.8563472E-01
          4   -1    0    0  502    0  0.00000000000E+00  0.00000000000E+00  0.19197982932E+04  0.19197982932E+04  0.00000000000E+00 0.  1.
         -4   -1    0    0    0  501 -0.00000000000E+00 -0.00000000000E+00 -0.25438702529E+04  0.25438702529E+04  0.00000000000E+00 0. -1.
   -9000010    2    1    2    0  501 -0.70089189894E+03 -0.30387201064E+03 -0.21466527151E+04  0.24906735696E+04  0.10058574941E+04 0.  0.
    9000010    2    1    2  502    0  0.70089189894E+03  0.30387201064E+03  0.15225807554E+04  0.19729949765E+04  0.99542421493E+03 0.  0.
        -13    1    4    4    0    0  0.21687586514E+03  0.46216720867E+03  0.13367226851E+04  0.14308952505E+04  0.10566000000E+00 0.  1.
          4    1    4    4  502    0  0.48401603380E+03 -0.15829519802E+03  0.18585807029E+03  0.54209972605E+03  0.00000000000E+00 0.  1.
         13    1    3    3    0    0 -0.25897893537E+03 -0.61312832447E+03 -0.15471591234E+04  0.16842499207E+04  0.10566000000E+00 0. -1.
         -4    1    3    3    0  501 -0.44191296357E+03  0.30925631383E+03 -0.59949359169E+03  0.80642364889E+03  0.00000000000E+00 0. -1.
<mgrwt>
<rscale>  0 0.12589133E+04</rscale>
<asrwt>0</asrwt>
<pdfrwt beam="1">  1        4 0.29535359E+00 0.12547737E+04</pdfrwt>
<pdfrwt beam="2">  1       -4 0.39136465E+00 0.12630665E+04</pdfrwt>
<totfact> 0.29209369E-02</totfact>
</mgrwt>
</event>
<event>
 8    1  0.2939692E-006  0.1231764E+04  0.7818608E-02  0.8605690E-01
         -4   -1    0    0    0  501 -0.00000000000E+00  0.00000000000E+00  0.79049349519E+03  0.79049349519E+03  0.00000000000E+00 0. -1.
          4   -1    0    0  502    0  0.00000000000E+00 -0.00000000000E+00 -0.23532184445E+04  0.23532184445E+04  0.00000000000E+00 0.  1.
   -9000010    2    1    2    0  501 -0.42508221652E+03  0.40186399122E+03 -0.53020243922E+02  0.12329050486E+04  0.10839991487E+04 0.  0.
    9000010    2    1    2  502    0  0.42508221652E+03 -0.40186399122E+03 -0.15097047054E+04  0.19108068911E+04  0.10147832869E+04 0.  0.
        -13    1    4    4    0    0  0.23357985384E+03 -0.71148229486E+03 -0.12718737302E+04  0.14759503381E+04  0.10566000000E+00 0.  1.
          4    1    4    4  502    0  0.19150236269E+03  0.30961830364E+03 -0.23783097520E+03  0.43485655293E+03  0.00000000000E+00 0.  1.
         13    1    3    3    0    0 -0.17097363775E+03 -0.37495032882E+03  0.18157777360E+02  0.41249175740E+03  0.10566000000E+00 0. -1.
         -4    1    3    3    0  501 -0.25410857878E+03  0.77681432004E+03 -0.71178021282E+02  0.82041329118E+03  0.00000000000E+00 0. -1.
<mgrwt>
<rscale>  0 0.12011586E+04</rscale>
<asrwt>0</asrwt>
<pdfrwt beam="2">  1        4 0.36203361E+00 0.11713132E+04</pdfrwt>
<pdfrwt beam="1">  1       -4 0.12161438E+00 0.12317645E+04</pdfrwt>
<totfact> 0.13659956E-01</totfact>
</mgrwt>
</event>
<event>
 8    1  0.2939692E-006  0.1147101E+04  0.7818608E-02  0.8658093E-01
          4   -1    0    0  502    0  0.00000000000E+00  0.00000000000E+00  0.39145044319E+04  0.39145044319E+04  0.00000000000E+00 0.  1.
         -4   -1    0    0    0  501 -0.00000000000E+00 -0.00000000000E+00 -0.60033475648E+03  0.60033475648E+03  0.00000000000E+00 0. -1.
   -9000010    2    1    2    0  501  0.43279323174E+03 -0.29886019772E+03  0.12753752309E+03  0.11280317546E+04  0.98972845795E+03 0.  0.
    9000010    2    1    2  502    0 -0.43279323174E+03  0.29886019772E+03  0.31866321523E+04  0.33868074337E+04  0.10194178337E+04 0.  0.
        -13    1    4    4    0    0  0.12152923978E+03  0.42851332580E+03  0.65593893621E+03  0.79287383972E+03  0.10566000000E+00 0.  1.
          4    1    4    4  502    0 -0.55432247153E+03 -0.12965312807E+03  0.25306932161E+04  0.25939335940E+04  0.00000000000E+00 0.  1.
         13    1    3    3    0    0  0.39285026560E+03  0.14086628568E+03 -0.29956553808E+03  0.51372576769E+03  0.10566000000E+00 0. -1.
         -4    1    3    3    0  501  0.39942966140E+02 -0.43972648340E+03  0.42710306117E+03  0.61430598696E+03  0.00000000000E+00 0. -1.
<mgrwt>
<rscale>  0 0.11338735E+04</rscale>
<asrwt>0</asrwt>
<pdfrwt beam="1">  1        4 0.60223143E+00 0.11471007E+04</pdfrwt>
<pdfrwt beam="2">  1       -4 0.92359196E-01 0.11207987E+04</pdfrwt>
<totfact> 0.17450819E-02</totfact>
</mgrwt>
</event>
<event>
 8    1  0.2939692E-006  0.1085345E+04  0.7818608E-02  0.8704611E-01
         -4   -1    0    0    0  501 -0.00000000000E+00  0.00000000000E+00  0.10883585266E+04  0.10883585266E+04  0.00000000000E+00 0. -1.
          4   -1    0    0  502    0  0.00000000000E+00 -0.00000000000E+00 -0.12228047450E+04  0.12228047450E+04  0.00000000000E+00 0.  1.
   -9000010    2    1    2    0  501 -0.91260601982E+02 -0.38679749456E+03  0.34393571714E+03  0.11385365380E+04  0.10099667676E+04 0.  0.
    9000010    2    1    2  502    0  0.91260601982E+02  0.38679749456E+03 -0.47838193549E+03  0.11726267335E+04  0.99411437004E+03 0.  0.
        -13    1    4    4    0    0 -0.20186439943E+03 -0.27828808344E+03 -0.15424978565E+03  0.37681096146E+03  0.10566000000E+00 0.  1.
          4    1    4    4  502    0  0.29312500141E+03  0.66508557799E+03 -0.32413214984E+03  0.79581577207E+03  0.00000000000E+00 0.  1.
         13    1    3    3    0    0 -0.37118062778E+03 -0.43003043716E+03 -0.13337393703E+03  0.58351508427E+03  0.10566000000E+00 0. -1.
         -4    1    3    3    0  501  0.27992002580E+03  0.43232942607E+02  0.47730965416E+03  0.55502145375E+03  0.00000000000E+00 0. -1.
<mgrwt>
<rscale>  0 0.10779519E+04</rscale>
<asrwt>0</asrwt>
<pdfrwt beam="2">  1        4 0.18812381E+00 0.10706093E+04</pdfrwt>
<pdfrwt beam="1">  1       -4 0.16743977E+00 0.10853450E+04</pdfrwt>
<totfact> 0.25076089E-01</totfact>
</mgrwt>
</event>
<event>
 8    1  0.2939692E-006  0.1118176E+04  0.7818608E-02  0.8673671E-01
          4   -1    0    0  502    0  0.00000000000E+00  0.00000000000E+00  0.26272809948E+04  0.26272809948E+04  0.00000000000E+00 0.  1.
         -4   -1    0    0    0  501 -0.00000000000E+00 -0.00000000000E+00 -0.10118585774E+04  0.10118585774E+04  0.00000000000E+00 0. -1.
   -9000010    2    1    2    0  501  0.17525386011E+03 -0.48930974883E+03 -0.52128157836E+03  0.12275380269E+04  0.98233251892E+03 0.  0.
    9000010    2    1    2  502    0 -0.17525386011E+03  0.48930974883E+03  0.21367039957E+04  0.24116015454E+04  0.99004045499E+03 0.  0.
        -13    1    4    4    0    0  0.38896529214E+03  0.29294357830E+02  0.72816691063E+03  0.82606247875E+03  0.10566000000E+00 0.  1.
          4    1    4    4  502    0 -0.56421915225E+03  0.46001539100E+03  0.14085370851E+04  0.15855390666E+04  0.00000000000E+00 0.  1.
         13    1    3    3    0    0 -0.30195963247E+02 -0.76601082467E+03 -0.35136053534E+03  0.84329035135E+03  0.10566000000E+00 0. -1.
         -4    1    3    3    0  501  0.20544982336E+03  0.27670107585E+03 -0.16992104301E+03  0.38424767553E+03  0.00000000000E+00 0. -1.
<mgrwt>
<rscale>  0 0.11147616E+04</rscale>
<asrwt>0</asrwt>
<pdfrwt beam="1">  1        4 0.40419707E+00 0.11181762E+04</pdfrwt>
<pdfrwt beam="2">  1       -4 0.15567055E+00 0.11113573E+04</pdfrwt>
<totfact> 0.64650235E-02</totfact>
</mgrwt>
</event>
<event>
 8    1  0.2939692E-006  0.1142883E+04  0.7818608E-02  0.8652491E-01
         -4   -1    0    0    0  501 -0.00000000000E+00  0.00000000000E+00  0.59656745779E+03  0.59656745779E+03  0.00000000000E+00 0. -1.
          4   -1    0    0  502    0  0.00000000000E+00 -0.00000000000E+00 -0.47002815977E+04  0.47002815977E+04  0.00000000000E+00 0.  1.
   -9000010    2    1    2    0  501  0.41088355872E+03 -0.33064553411E+03 -0.11148814912E+03  0.11442535555E+04  0.10093239440E+04 0.  0.
    9000010    2    1    2  502    0 -0.41088355872E+03  0.33064553411E+03 -0.39922259908E+04  0.41525955000E+04  0.10139177762E+04 0.  0.
        -13    1    4    4    0    0  0.41590561973E+02 -0.26923476849E+03 -0.40893045482E+03  0.49136673010E+03  0.10566000000E+00 0.  1.
          4    1    4    4  502    0 -0.45247412069E+03  0.59988030260E+03 -0.35832955360E+04  0.36612287699E+04  0.00000000000E+00 0.  1.
         13    1    3    3    0    0  0.51046035545E+03 -0.45526198907E+03  0.26643596545E+03  0.73404454090E+03  0.10566000000E+00 0. -1.
         -4    1    3    3    0  501 -0.99576796739E+02  0.12461645495E+03 -0.37792411457E+03  0.41020901461E+03  0.00000000000E+00 0. -1.
<mgrwt>
<rscale>  0 0.11408442E+04</rscale>
<asrwt>0</asrwt>
<pdfrwt beam="2">  1        4 0.72312023E+00 0.11428828E+04</pdfrwt>
<pdfrwt beam="1">  1       -4 0.91779611E-01 0.11388093E+04</pdfrwt>
<totfact> 0.44242837E-03</totfact>
</mgrwt>
</event>
<event>
 8    1  0.2939692E-006  0.1280451E+04  0.7818608E-02  0.8550692E-01
         -4   -1    0    0    0  501 -0.00000000000E+00  0.00000000000E+00  0.79795827251E+03  0.79795827251E+03  0.00000000000E+00 0. -1.
          4   -1    0    0  502    0  0.00000000000E+00 -0.00000000000E+00 -0.32345352856E+04  0.32345352856E+04  0.00000000000E+00 0.  1.
   -9000010    2    1    2    0  501  0.78911574259E+03  0.49943099304E+01  0.29892639681E+01  0.12804547265E+04  0.10083782884E+04 0.  0.
    9000010    2    1    2  502    0 -0.78911574259E+03 -0.49943099304E+01 -0.24395662771E+04  0.27520388316E+04  0.99975272563E+03 0.  0.
        -13    1    4    4    0    0 -0.93142110840E+03 -0.15592802895E+03 -0.23370534163E+04  0.25206502163E+04  0.10566000000E+00 0.  1.
          4    1    4    4  502    0  0.14230536581E+03  0.15093371902E+03 -0.10251286079E+03  0.23138861532E+03  0.00000000000E+00 0.  1.
         13    1    3    3    0    0  0.81746536007E+03 -0.33002998110E+03 -0.17688319963E+03  0.89914241410E+03  0.10566000000E+00 0. -1.
         -4    1    3    3    0  501 -0.28349617484E+02  0.33502429103E+03  0.17987246360E+03  0.38131231236E+03  0.00000000000E+00 0. -1.
<mgrwt>
<rscale>  0 0.12770559E+04</rscale>
<asrwt>0</asrwt>
<pdfrwt beam="2">  1        4 0.49762081E+00 0.12736695E+04</pdfrwt>
<pdfrwt beam="1">  1       -4 0.12276281E+00 0.12804512E+04</pdfrwt>
<totfact> 0.34753061E-02</totfact>
</mgrwt>
</event>
<event>
 8    1  0.2939692E-006  0.1050054E+04  0.7818608E-02  0.8740676E-01
          4   -1    0    0  502    0  0.00000000000E+00  0.00000000000E+00  0.14179414797E+04  0.14179414797E+04  0.00000000000E+00 0.  1.
         -4   -1    0    0    0  501 -0.00000000000E+00 -0.00000000000E+00 -0.11351168065E+04  0.11351168065E+04  0.00000000000E+00 0. -1.
   -9000010    2    1    2    0  501  0.16205304310E+03  0.25394909689E+03 -0.59515811060E+03  0.11843116565E+04  0.97858550499E+03 0.  0.
    9000010    2    1    2  502    0 -0.16205304310E+03 -0.25394909689E+03  0.87798278381E+03  0.13687466296E+04  0.10059136319E+04 0.  0.
        -13    1    4    4    0    0  0.84682811775E+02 -0.34285542370E+03 -0.91168163391E+02  0.36473643272E+03  0.10566000000E+00 0.  1.
          4    1    4    4  502    0 -0.24673585487E+03  0.88906326810E+02  0.96915094720E+03  0.10040101969E+04  0.00000000000E+00 0.  1.
         13    1    3    3    0    0  0.27158761030E+03  0.38711500798E+03 -0.79212204821E+03  0.92253737588E+03  0.10566000000E+00 0. -1.
         -4    1    3    3    0  501 -0.10953456720E+03 -0.13316591109E+03  0.19696393761E+03  0.26177428065E+03  0.00000000000E+00 0. -1.
<mgrwt>
<rscale>  0 0.10368970E+04</rscale>
<asrwt>0</asrwt>
<pdfrwt beam="1">  1        4 0.21814484E+00 0.10500541E+04</pdfrwt>
<pdfrwt beam="2">  1       -4 0.17463336E+00 0.10239047E+04</pdfrwt>
<totfact> 0.19584476E-01</totfact>
</mgrwt>
</event>
<event>
 8    1  0.2939692E-006  0.1152457E+04  0.7818608E-02  0.8659788E-01
         -4   -1    0    0    0  501 -0.00000000000E+00  0.00000000000E+00  0.21489560952E+04  0.21489560952E+04  0.00000000000E+00 0. -1.
          4   -1    0    0  502    0  0.00000000000E+00 -0.00000000000E+00 -0.83865207278E+03  0.83865207278E+03  0.00000000000E+00 0.  1.
   -9000010    2    1    2    0  501 -0.30413186532E+03 -0.37572211335E+03  0.14665805587E+04  0.18652120137E+04  0.10461806837E+04 0.  0.
    9000010    2    1    2  502    0  0.30413186532E+03  0.37572211335E+03 -0.15627653628E+03  0.11223961543E+04  0.10008433810E+04 0.  0.
        -13    1    4    4    0    0  0.30865823096E+03  0.24972438824E+03 -0.56732184217E+03  0.69244946197E+03  0.10566000000E+00 0.  1.
          4    1    4    4  502    0 -0.45263656358E+01  0.12599772511E+03  0.41104530589E+03  0.42994669229E+03  0.00000000000E+00 0.  1.
         13    1    3    3    0    0  0.88176869898E+00  0.31967307080E+03  0.77416793314E+03  0.83757247423E+03  0.10566000000E+00 0. -1.
         -4    1    3    3    0  501 -0.30501363402E+03 -0.69539518415E+03  0.69241262556E+03  0.10276395395E+04  0.00000000000E+00 0. -1.
<mgrwt>
<rscale>  0 0.11317746E+04</rscale>
<asrwt>0</asrwt>
<pdfrwt beam="2">  1        4 0.12902340E+00 0.11114633E+04</pdfrwt>
<pdfrwt beam="1">  1       -4 0.33060863E+00 0.11524571E+04</pdfrwt>
<totfact> 0.15679151E-01</totfact>
</mgrwt>
</event>
<event>
 8    1  0.2939692E-006  0.1065079E+04  0.7818608E-02  0.8720613E-01
         -4   -1    0    0    0  501 -0.00000000000E+00  0.00000000000E+00  0.16436471821E+04  0.16436471821E+04  0.00000000000E+00 0. -1.
          4   -1    0    0  502    0  0.00000000000E+00 -0.00000000000E+00 -0.23153905774E+04  0.23153905774E+04  0.00000000000E+00 0.  1.
   -9000010    2    1    2    0  501 -0.19978221331E+03  0.27686097545E+03  0.13267662636E+04  0.16944332188E+04  0.99711096778E+03 0.  0.
    9000010    2    1    2  502    0  0.19978221331E+03 -0.27686097545E+03 -0.19985096589E+04  0.22646045407E+04  0.10088745891E+04 0.  0.
        -13    1    4    4    0    0  0.21117115052E+03 -0.20771016226E+03 -0.33214673223E+02  0.29806038314E+03  0.10566000000E+00 0.  1.
          4    1    4    4  502    0 -0.11388937212E+02 -0.69150813196E+02 -0.19652949857E+04  0.19665441576E+04  0.00000000000E+00 0.  1.
         13    1    3    3    0    0 -0.41349890928E+03  0.48677875661E+03  0.12187862468E+04  0.13759995757E+04  0.10566000000E+00 0. -1.
         -4    1    3    3    0  501  0.21371669597E+03 -0.20991778116E+03  0.10798001683E+03  0.31843364303E+03  0.00000000000E+00 0. -1.
<mgrwt>
<rscale>  0 0.10594961E+04</rscale>
<asrwt>0</asrwt>
<pdfrwt beam="2">  1        4 0.35621393E+00 0.10650788E+04</pdfrwt>
<pdfrwt beam="1">  1       -4 0.25286880E+00 0.10539427E+04</pdfrwt>
<totfact> 0.51572126E-02</totfact>
</mgrwt>
</event>
<event>
 8    1  0.2939692E-006  0.1170098E+04  0.7818608E-02  0.8635182E-01
         -4   -1    0    0    0  501 -0.00000000000E+00  0.00000000000E+00  0.50468601055E+03  0.50468601055E+03  0.00000000000E+00 0. -1.
          4   -1    0    0  502    0  0.00000000000E+00 -0.00000000000E+00 -0.26993947116E+04  0.26993947116E+04  0.00000000000E+00 0.  1.
   -9000010    2    1    2    0  501 -0.34558489573E+03 -0.47416408827E+03 -0.95055653537E+03  0.14961451318E+04  0.99530499134E+03 0.  0.
    9000010    2    1    2  502    0  0.34558489573E+03  0.47416408827E+03 -0.12441521657E+04  0.17079355903E+04  0.10123580723E+04 0.  0.
        -13    1    4    4    0    0  0.32703187339E+03 -0.55832633935E+02 -0.11133387669E+04  0.11617187053E+04  0.10566000000E+00 0.  1.
          4    1    4    4  502    0  0.18553022347E+02  0.52999672221E+03 -0.13081339880E+03  0.54621688503E+03  0.00000000000E+00 0.  1.
         13    1    3    3    0    0 -0.51636513237E+01 -0.41059007829E+03 -0.10569113861E+04  0.11338750217E+04  0.10566000000E+00 0. -1.
         -4    1    3    3    0  501 -0.34042124441E+03 -0.63574009987E+02  0.10635485073E+03  0.36227011009E+03  0.00000000000E+00 0. -1.
<mgrwt>
<rscale>  0 0.11627135E+04</rscale>
<asrwt>0</asrwt>
<pdfrwt beam="2">  1        4 0.41529150E+00 0.11700980E+04</pdfrwt>
<pdfrwt beam="1">  1       -4 0.77644001E-01 0.11553755E+04</pdfrwt>
<totfact> 0.20058780E-01</totfact>
</mgrwt>
</event>
<event>
 8    1  0.2939692E-006  0.1399840E+04  0.7818608E-02  0.8481232E-01
         -4   -1    0    0    0  501 -0.00000000000E+00  0.00000000000E+00  0.28502114959E+04  0.28502114959E+04  0.00000000000E+00 0. -1.
          4   -1    0    0  502    0  0.00000000000E+00 -0.00000000000E+00 -0.70001188309E+03  0.70001188309E+03  0.00000000000E+00 0.  1.
   -9000010    2    1    2    0  501 -0.97137293548E+03 -0.31128025422E+02  0.14314434597E+04  0.19766406045E+04  0.95579462610E+03 0.  0.
    9000010    2    1    2  502    0  0.97137293548E+03  0.31128025422E+02  0.71875615313E+03  0.15735827745E+04  0.10074810206E+04 0.  0.
        -13    1    4    4    0    0  0.93517573806E+02 -0.72110845219E+01  0.68798783762E+03  0.69435208088E+03  0.10566000000E+00 0.  1.
          4    1    4    4  502    0  0.87785536168E+03  0.38339109944E+02  0.30768315509E+02  0.87923069363E+03  0.00000000000E+00 0.  1.
         13    1    3    3    0    0 -0.10001409735E+04 -0.23057040762E+03  0.76418270315E+03  0.12796170891E+04  0.10566000000E+00 0. -1.
         -4    1    3    3    0  501  0.28768037981E+02  0.19944238220E+03  0.66726075658E+03  0.69702351546E+03  0.00000000000E+00 0. -1.
<mgrwt>
<rscale>  0 0.13813546E+04</rscale>
<asrwt>0</asrwt>
<pdfrwt beam="2">  1        4 0.10769414E+00 0.13998401E+04</pdfrwt>
<pdfrwt beam="1">  1       -4 0.43849407E+00 0.13631132E+04</pdfrwt>
<totfact> 0.82330776E-02</totfact>
</mgrwt>
</event>
<event>
 8    1  0.2939692E-006  0.1389338E+04  0.7818608E-02  0.8477827E-01
         -4   -1    0    0    0  501 -0.00000000000E+00  0.00000000000E+00  0.13712450674E+04  0.13712450674E+04  0.00000000000E+00 0. -1.
          4   -1    0    0  502    0  0.00000000000E+00 -0.00000000000E+00 -0.19690817208E+04  0.19690817208E+04  0.00000000000E+00 0.  1.
   -9000010    2    1    2    0  501 -0.84356900233E+03  0.46405483877E+03  0.59746865240E+03  0.15075653944E+04  0.99439884986E+03 0.  0.
    9000010    2    1    2  502    0  0.84356900233E+03 -0.46405483877E+03 -0.11953053058E+04  0.18327613939E+04  0.10016506366E+04 0.  0.
        -13    1    4    4    0    0  0.60696704665E+03 -0.23818863529E+03 -0.13282621671E+04  0.14796699691E+04  0.10566000000E+00 0.  1.
          4    1    4    4  502    0  0.23660195568E+03 -0.22586620348E+03  0.13295686130E+03  0.35309142481E+03  0.00000000000E+00 0.  1.
         13    1    3    3    0    0 -0.94388744025E+02  0.30413772372E+03  0.66623285140E+03  0.73842752754E+03  0.10566000000E+00 0. -1.
         -4    1    3    3    0  501 -0.74918025831E+03  0.15991711505E+03 -0.68764198994E+02  0.76913786683E+03  0.00000000000E+00 0. -1.
<mgrwt>
<rscale>  0 0.13867258E+04</rscale>
<asrwt>0</asrwt>
<pdfrwt beam="2">  1        4 0.30293565E+00 0.13893378E+04</pdfrwt>
<pdfrwt beam="1">  1       -4 0.21096078E+00 0.13841187E+04</pdfrwt>
<totfact> 0.91698934E-02</totfact>
</mgrwt>
</event>
<event>
 8    1  0.2939692E-006  0.1310412E+04  0.7818608E-02  0.8540436E-01
         -4   -1    0    0    0  501 -0.00000000000E+00  0.00000000000E+00  0.21533907780E+04  0.21533907780E+04  0.00000000000E+00 0. -1.
          4   -1    0    0  502    0  0.00000000000E+00 -0.00000000000E+00 -0.18138856189E+04  0.18138856189E+04  0.00000000000E+00 0.  1.
   -9000010    2    1    2    0  501 -0.77144461160E+03 -0.37235500290E+03  0.16718244591E+04  0.21241881807E+04  0.99166696431E+03 0.  0.
    9000010    2    1    2  502    0  0.77144461160E+03  0.37235500290E+03 -0.13323193000E+04  0.18430882162E+04  0.94240353281E+03 0.  0.
        -13    1    4    4    0    0 -0.83056800524E+02  0.14952536922E+03  0.70872038523E+02  0.18514622643E+03  0.10566000000E+00 0.  1.
          4    1    4    4  502    0  0.85450141213E+03  0.22282963368E+03 -0.14031913386E+04  0.16579419898E+04  0.00000000000E+00 0.  1.
         13    1    3    3    0    0 -0.31335008488E+02 -0.54669925539E+03  0.63641195196E+03  0.83957259505E+03  0.10566000000E+00 0. -1.
         -4    1    3    3    0  501 -0.74010960311E+03  0.17434425249E+03  0.10354125071E+04  0.12846155857E+04  0.00000000000E+00 0. -1.
<mgrwt>
<rscale>  0 0.12918433E+04</rscale>
<asrwt>0</asrwt>
<pdfrwt beam="2">  1        4 0.27905933E+00 0.12735382E+04</pdfrwt>
<pdfrwt beam="1">  1       -4 0.33129089E+00 0.13104115E+04</pdfrwt>
<totfact> 0.52214961E-02</totfact>
</mgrwt>
</event>
<event>
 8    1  0.2939692E-006  0.1264688E+04  0.7818608E-02  0.8606012E-01
          4   -1    0    0  502    0  0.00000000000E+00  0.00000000000E+00  0.10626312692E+04  0.10626312692E+04  0.00000000000E+00 0.  1.
         -4   -1    0    0    0  501 -0.00000000000E+00 -0.00000000000E+00 -0.20065132443E+04  0.20065132443E+04  0.00000000000E+00 0. -1.
   -9000010    2    1    2    0  501 -0.55944379774E+03 -0.65926001217E+02 -0.13585178368E+04  0.18560731511E+04  0.11323043888E+04 0.  0.
    9000010    2    1    2  502    0  0.55944379774E+03  0.65926001217E+02  0.41463586169E+03  0.12130713624E+04  0.99110828474E+03 0.  0.
        -13    1    4    4    0    0 -0.18933142240E+03  0.20480619537E+03  0.35178374843E+03  0.44893627832E+03  0.10566000000E+00 0.  1.
          4    1    4    4  502    0  0.74877522014E+03 -0.13888019415E+03  0.62852113264E+02  0.76413508411E+03  0.00000000000E+00 0.  1.
         13    1    3    3    0    0  0.23464325696E+02  0.79723084408E+02 -0.12410988840E+04  0.12438781274E+04  0.10566000000E+00 0. -1.
         -4    1    3    3    0  501 -0.58290812344E+03 -0.14564908563E+03 -0.11741895274E+03  0.61219502365E+03  0.00000000000E+00 0. -1.
<mgrwt>
<rscale>  0 0.12007312E+04</rscale>
<asrwt>0</asrwt>
<pdfrwt beam="1">  1        4 0.16348173E+00 0.11400084E+04</pdfrwt>
<pdfrwt beam="2">  1       -4 0.30869434E+00 0.12646884E+04</pdfrwt>
<totfact> 0.12597159E-01</totfact>
</mgrwt>
</event>
<event>
 8    1  0.2939692E-006  0.1139763E+04  0.7818608E-02  0.8679436E-01
          4   -1    0    0  502    0  0.00000000000E+00  0.00000000000E+00  0.96335239899E+03  0.96335239899E+03  0.00000000000E+00 0.  1.
         -4   -1    0    0    0  501 -0.00000000000E+00 -0.00000000000E+00 -0.42667160139E+04  0.42667160139E+04  0.00000000000E+00 0. -1.
   -9000010    2    1    2    0  501 -0.31526290538E+03 -0.31218527792E+03 -0.38271409067E+04  0.39757148957E+04  0.98104590377E+03 0.  0.
    9000010    2    1    2  502    0  0.31526290538E+03  0.31218527792E+03  0.52377729173E+03  0.12543535172E+04  0.10498617754E+04 0.  0.
        -13    1    4    4    0    0  0.56164983465E+03 -0.12992978956E+03  0.47296822008E+03  0.74567501993E+03  0.10566000000E+00 0.  1.
          4    1    4    4  502    0 -0.24638692928E+03  0.44211506748E+03  0.50809071659E+02  0.50867849726E+03  0.00000000000E+00 0.  1.
         13    1    3    3    0    0 -0.47001598030E+03  0.16841182710E+03 -0.11869974550E+04  0.12877268866E+04  0.10566000000E+00 0. -1.
         -4    1    3    3    0  501  0.15475307493E+03 -0.48059710502E+03 -0.26401434517E+04  0.26879880091E+04  0.00000000000E+00 0. -1.
<mgrwt>
<rscale>  0 0.11077874E+04</rscale>
<asrwt>0</asrwt>
<pdfrwt beam="1">  1        4 0.14820806E+00 0.11397632E+04</pdfrwt>
<pdfrwt beam="2">  1       -4 0.65641785E+00 0.10767086E+04</pdfrwt>
<totfact> 0.39735858E-03</totfact>
</mgrwt>
</event>
<event>
 8    1  0.2939692E-006  0.1423276E+04  0.7818608E-02  0.8537877E-01
         -4   -1    0    0    0  501 -0.00000000000E+00  0.00000000000E+00  0.24902406849E+04  0.24902406849E+04  0.00000000000E+00 0. -1.
          4   -1    0    0  502    0  0.00000000000E+00 -0.00000000000E+00 -0.38764004085E+04  0.38764004085E+04  0.00000000000E+00 0.  1.
   -9000010    2    1    2    0  501  0.29385525097E+03  0.62012390577E+03  0.22067455196E+04  0.25020993540E+04  0.95909896368E+03 0.  0.
    9000010    2    1    2  502    0 -0.29385525097E+03 -0.62012390577E+03 -0.35929052432E+04  0.38645417394E+04  0.12469202869E+04 0.  0.
        -13    1    4    4    0    0 -0.78267922868E+03 -0.31326084155E+03 -0.20066222680E+04  0.21765229306E+04  0.10566000000E+00 0.  1.
          4    1    4    4  502    0  0.48882397771E+03 -0.30686306422E+03 -0.15862829752E+04  0.16880188088E+04  0.00000000000E+00 0.  1.
         13    1    3    3    0    0 -0.10875840430E+03  0.58401907592E+02 -0.56444705362E+02  0.13573941669E+03  0.10566000000E+00 0. -1.
         -4    1    3    3    0  501  0.40261365527E+03  0.56172199817E+03  0.22631902250E+04  0.23663599373E+04  0.00000000000E+00 0. -1.
<mgrwt>
<rscale>  0 0.12955639E+04</rscale>
<asrwt>0</asrwt>
<pdfrwt beam="2">  1        4 0.59636929E+00 0.14232761E+04</pdfrwt>
<pdfrwt beam="1">  1       -4 0.38311395E+00 0.11793114E+04</pdfrwt>
<totfact> 0.16107559E-03</totfact>
</mgrwt>
</event>
<event>
 8    1  0.2939692E-006  0.1401508E+04  0.7818608E-02  0.8508992E-01
          4   -1    0    0  502    0  0.00000000000E+00  0.00000000000E+00  0.11076688494E+04  0.11076688494E+04  0.00000000000E+00 0.  1.
         -4   -1    0    0    0  501 -0.00000000000E+00 -0.00000000000E+00 -0.19534957278E+04  0.19534957278E+04  0.00000000000E+00 0. -1.
   -9000010    2    1    2    0  501 -0.24070203784E+03  0.76804299265E+03 -0.10378505950E+04  0.16465633079E+04  0.99308074187E+03 0.  0.
    9000010    2    1    2  502    0  0.24070203784E+03 -0.76804299265E+03  0.19202371662E+03  0.14146012694E+04  0.11473430759E+04 0.  0.
        -13    1    4    4    0    0  0.11886655988E+03 -0.26585202406E+02  0.56341275595E+03  0.57642863979E+03  0.10566000000E+00 0.  1.
          4    1    4    4  502    0  0.12183547796E+03 -0.74145779025E+03 -0.37138903932E+03  0.83817262956E+03  0.00000000000E+00 0.  1.
         13    1    3    3    0    0 -0.25754901567E+03  0.37118321247E+03  0.81274002610E+02  0.45903588896E+03  0.10566000000E+00 0. -1.
         -4    1    3    3    0  501  0.16846977828E+02  0.39685978019E+03 -0.11191245976E+04  0.11875274190E+04  0.00000000000E+00 0. -1.
<mgrwt>
<rscale>  0 0.13384840E+04</rscale>
<asrwt>0</asrwt>
<pdfrwt beam="1">  1        4 0.17041059E+00 0.14015076E+04</pdfrwt>
<pdfrwt beam="2">  1       -4 0.30053780E+00 0.12782945E+04</pdfrwt>
<totfact> 0.12490842E-01</totfact>
</mgrwt>
</event>
<event>
 8    1  0.2939692E-006  0.1378456E+04  0.7818608E-02  0.8484623E-01
          4   -1    0    0  502    0  0.00000000000E+00  0.00000000000E+00  0.11775455321E+04  0.11775455321E+04  0.00000000000E+00 0.  1.
         -4   -1    0    0    0  501 -0.00000000000E+00 -0.00000000000E+00 -0.18298547184E+04  0.18298547184E+04  0.00000000000E+00 0. -1.
   -9000010    2    1    2    0  501 -0.27957241764E+03 -0.90873793717E+03 -0.85026937806E+03  0.16195984891E+04  0.99808610620E+03 0.  0.
    9000010    2    1    2  502    0  0.27957241764E+03  0.90873793717E+03  0.19796019182E+03  0.13878017614E+04  0.99138293122E+03 0.  0.
        -13    1    4    4    0    0  0.42872927407E+03  0.16306606155E+03 -0.23220796635E+03  0.51412049334E+03  0.10566000000E+00 0.  1.
          4    1    4    4  502    0 -0.14915685643E+03  0.74567187561E+03  0.43016815817E+03  0.87368126809E+03  0.00000000000E+00 0.  1.
         13    1    3    3    0    0  0.33352290033E+03 -0.16529335486E+03 -0.42878468217E+03  0.56781663681E+03  0.10566000000E+00 0. -1.
         -4    1    3    3    0  501 -0.61309531797E+03 -0.74344458231E+03 -0.42148469589E+03  0.10517818523E+04  0.00000000000E+00 0. -1.
<mgrwt>
<rscale>  0 0.13760311E+04</rscale>
<asrwt>0</asrwt>
<pdfrwt beam="1">  1        4 0.18116085E+00 0.13736104E+04</pdfrwt>
<pdfrwt beam="2">  1       -4 0.28151611E+00 0.13784561E+04</pdfrwt>
<totfact> 0.12841545E-01</totfact>
</mgrwt>
</event>
<event>
 8    1  0.2939692E-006  0.1036411E+04  0.7818608E-02  0.8806286E-01
         -4   -1    0    0    0  501 -0.00000000000E+00  0.00000000000E+00  0.13047300419E+04  0.13047300419E+04  0.00000000000E+00 0. -1.
          4   -1    0    0  502    0  0.00000000000E+00 -0.00000000000E+00 -0.92552431289E+03  0.92552431289E+03  0.00000000000E+00 0.  1.
   -9000010    2    1    2    0  501 -0.15288894694E+03 -0.14589001596E+03  0.72424730295E+03  0.12643902786E+04  0.10146377157E+04 0.  0.
    9000010    2    1    2  502    0  0.15288894694E+03  0.14589001596E+03 -0.34504157393E+03  0.96586407614E+03  0.87702953142E+03 0.  0.
        -13    1    4    4    0    0  0.25074543780E+03  0.42694525215E+03  0.19198400333E+02  0.49550389772E+03  0.10566000000E+00 0.  1.
          4    1    4    4  502    0 -0.97856490861E+02 -0.28105523619E+03 -0.36423997426E+03  0.47036017842E+03  0.00000000000E+00 0.  1.
         13    1    3    3    0    0  0.36506987483E+03 -0.35019206152E+00  0.36356758797E+01  0.36508816119E+03  0.10566000000E+00 0. -1.
         -4    1    3    3    0  501 -0.51795882177E+03 -0.14553982390E+03  0.72061162707E+03  0.89930211745E+03  0.00000000000E+00 0. -1.
<mgrwt>
<rscale>  0 0.96694287E+03</rscale>
<asrwt>0</asrwt>
<pdfrwt beam="2">  1        4 0.14238836E+00 0.90213066E+03</pdfrwt>
<pdfrwt beam="1">  1       -4 0.20072770E+00 0.10364114E+04</pdfrwt>
<totfact> 0.29124395E-01</totfact>
</mgrwt>
</event>
<event>
 8    1  0.2939692E-006  0.1532166E+04  0.7818608E-02  0.8418325E-01
          4   -1    0    0  502    0  0.00000000000E+00  0.00000000000E+00  0.90555324228E+03  0.90555324228E+03  0.00000000000E+00 0.  1.
         -4   -1    0    0    0  501 -0.00000000000E+00 -0.00000000000E+00 -0.26296089573E+04  0.26296089573E+04  0.00000000000E+00 0. -1.
   -9000010    2    1    2    0  501  0.94039009040E+03  0.44486629118E+03 -0.13152884267E+04  0.19494054498E+04  0.99396097668E+03 0.  0.
    9000010    2    1    2  502    0 -0.94039009040E+03 -0.44486629118E+03 -0.40876728837E+03  0.15857567498E+04  0.11248529835E+04 0.  0.
        -13    1    4    4    0    0 -0.40931042931E+03 -0.42435247835E+03 -0.75012789382E+03  0.95409743825E+03  0.10566000000E+00 0.  1.
          4    1    4    4  502    0 -0.53107966109E+03 -0.20513812824E+02  0.34136060545E+03  0.63165931157E+03  0.00000000000E+00 0.  1.
         13    1    3    3    0    0  0.21210704960E+03  0.12913162058E+03  0.14482839015E+03  0.28747112843E+03  0.10566000000E+00 0. -1.
         -4    1    3    3    0  501  0.72828304080E+03  0.31573467060E+03 -0.14601168168E+04  0.16619343213E+04  0.00000000000E+00 0. -1.
<mgrwt>
<rscale>  0 0.14847589E+04</rscale>
<asrwt>0</asrwt>
<pdfrwt beam="1">  1        4 0.13931588E+00 0.15321664E+04</pdfrwt>
<pdfrwt beam="2">  1       -4 0.40455522E+00 0.14388183E+04</pdfrwt>
<totfact> 0.74036328E-02</totfact>
</mgrwt>
</event>
<event>
 8    1  0.2939692E-006  0.1159633E+04  0.7818608E-02  0.8641655E-01
          4   -1    0    0  502    0  0.00000000000E+00  0.00000000000E+00  0.21152310163E+04  0.21152310163E+04  0.00000000000E+00 0.  1.
         -4   -1    0    0    0  501 -0.00000000000E+00 -0.00000000000E+00 -0.16612395450E+04  0.16612395450E+04  0.00000000000E+00 0. -1.
   -9000010    2    1    2    0  501 -0.87152693557E+02  0.57489428095E+03 -0.12610138911E+04  0.17062066577E+04  0.99140612203E+03 0.  0.
    9000010    2    1    2  502    0  0.87152693557E+02 -0.57489428095E+03  0.17150053624E+04  0.20702639036E+04  0.10033195957E+04 0.  0.
        -13    1    4    4    0    0  0.11763542180E+03  0.12925671885E+03 -0.39764522030E+02  0.17923900303E+03  0.10566000000E+00 0.  1.
          4    1    4    4  502    0 -0.30482728241E+02 -0.70415099980E+03  0.17547698844E+04  0.18910249005E+04  0.00000000000E+00 0.  1.
         13    1    3    3    0    0 -0.42263299470E+03  0.67414882654E+02 -0.17694831118E+03  0.46311351806E+03  0.10566000000E+00 0. -1.
         -4    1    3    3    0  501  0.33548030114E+03  0.50747939829E+03 -0.10840655799E+04  0.12430931396E+04  0.00000000000E+00 0. -1.
<mgrwt>
<rscale>  0 0.11544757E+04</rscale>
<asrwt>0</asrwt>
<pdfrwt beam="1">  1        4 0.32542016E+00 0.11596332E+04</pdfrwt>
<pdfrwt beam="2">  1       -4 0.25557532E+00 0.11493412E+04</pdfrwt>
<totfact> 0.62671074E-02</totfact>
</mgrwt>
</event>
<event>
 8    1  0.2939692E-006  0.1059165E+04  0.7818608E-02  0.8812575E-01
          4   -1    0    0  502    0  0.00000000000E+00  0.00000000000E+00  0.72705603475E+03  0.72705603475E+03  0.00000000000E+00 0.  1.
         -4   -1    0    0    0  501 -0.00000000000E+00 -0.00000000000E+00 -0.13378776502E+04  0.13378776502E+04  0.00000000000E+00 0. -1.
   -9000010    2    1    2    0  501  0.25335668792E+03  0.28037552515E+03 -0.48851116407E+03  0.99872952404E+03  0.78486779673E+03 0.  0.
    9000010    2    1    2  502    0 -0.25335668792E+03 -0.28037552515E+03 -0.12231045142E+03  0.10662041610E+04  0.98946016590E+03 0.  0.
        -13    1    4    4    0    0  0.29738676947E+03 -0.31047324858E+03 -0.25371344895E+03  0.49920241794E+03  0.10566000000E+00 0.  1.
          4    1    4    4  502    0 -0.55074345739E+03  0.30097723430E+02  0.13140299753E+03  0.56700174301E+03  0.00000000000E+00 0.  1.
         13    1    3    3    0    0 -0.26086359477E+03  0.20071180726E+03 -0.84141722547E+02  0.33972766341E+03  0.10566000000E+00 0. -1.
         -4    1    3    3    0  501  0.51422028269E+03  0.79663717891E+02 -0.40436944152E+03  0.65900186063E+03  0.00000000000E+00 0. -1.
<mgrwt>
<rscale>  0 0.96054174E+03</rscale>
<asrwt>0</asrwt>
<pdfrwt beam="1">  1        4 0.11185477E+00 0.10591655E+04</pdfrwt>
<pdfrwt beam="2">  1       -4 0.20582733E+00 0.87110132E+03</pdfrwt>
<totfact> 0.42006125E-01</totfact>
</mgrwt>
</event>
<event>
 8    1  0.2939692E-006  0.1466857E+04  0.7818608E-02  0.8447795E-01
          4   -1    0    0  502    0  0.00000000000E+00  0.00000000000E+00  0.17273966591E+04  0.17273966591E+04  0.00000000000E+00 0.  1.
         -4   -1    0    0    0  501 -0.00000000000E+00 -0.00000000000E+00 -0.19673822184E+04  0.19673822184E+04  0.00000000000E+00 0. -1.
   -9000010    2    1    2    0  501 -0.51071662082E+03 -0.83857208441E+03 -0.12772591903E+04  0.18982249412E+04  0.10039085020E+04 0.  0.
    9000010    2    1    2  502    0  0.51071662082E+03  0.83857208441E+03  0.10372736311E+04  0.17965539363E+04  0.10897866088E+04 0.  0.
        -13    1    4    4    0    0  0.53083158943E+03  0.67858572760E+03  0.12550745954E+03  0.87063936254E+03  0.10566000000E+00 0.  1.
          4    1    4    4  502    0 -0.20114968618E+02  0.15998635681E+03  0.91176617158E+03  0.92591457380E+03  0.00000000000E+00 0.  1.
         13    1    3    3    0    0 -0.69581825221E+03 -0.86541552381E+03 -0.13001134422E+04  0.17097959067E+04  0.10566000000E+00 0. -1.
         -4    1    3    3    0  501  0.18510163140E+03  0.26843439400E+02  0.22854251846E+02  0.18842903442E+03  0.00000000000E+00 0. -1.
<mgrwt>
<rscale>  0 0.14352028E+04</rscale>
<asrwt>0</asrwt>
<pdfrwt beam="1">  1        4 0.26575333E+00 0.14668570E+04</pdfrwt>
<pdfrwt beam="2">  1       -4 0.30267419E+00 0.14042318E+04</pdfrwt>
<totfact> 0.67056073E-02</totfact>
</mgrwt>
</event>
<event>
 8    1  0.2939692E-006  0.1389727E+04  0.7818608E-02  0.8481929E-01
          4   -1    0    0  502    0  0.00000000000E+00  0.00000000000E+00  0.11360195838E+04  0.11360195838E+04  0.00000000000E+00 0.  1.
         -4   -1    0    0    0  501 -0.00000000000E+00 -0.00000000000E+00 -0.22001679253E+04  0.22001679253E+04  0.00000000000E+00 0. -1.
   -9000010    2    1    2    0  501 -0.62609071049E+03  0.69469202278E+03 -0.13426361714E+04  0.19188318769E+04  0.10023259445E+04 0.  0.
    9000010    2    1    2  502    0  0.62609071049E+03 -0.69469202278E+03  0.27848782987E+03  0.14173556322E+04  0.10279858620E+04 0.  0.
        -13    1    4    4    0    0  0.78332466272E+03 -0.14144650656E+03  0.47048756939E+02  0.79738211551E+03  0.10566000000E+00 0.  1.
          4    1    4    4  502    0 -0.15723395223E+03 -0.55324551622E+03  0.23143907293E+03  0.61997351672E+03  0.00000000000E+00 0.  1.
         13    1    3    3    0    0 -0.19943715159E+03  0.42323197043E+03  0.17023328715E+02  0.46817761919E+03  0.10566000000E+00 0. -1.
         -4    1    3    3    0  501 -0.42665355890E+03  0.27146005235E+03 -0.13596595001E+04  0.14506542577E+04  0.00000000000E+00 0. -1.
<mgrwt>
<rscale>  0 0.13802589E+04</rscale>
<asrwt>0</asrwt>
<pdfrwt beam="1">  1        4 0.17477225E+00 0.13897271E+04</pdfrwt>
<pdfrwt beam="2">  1       -4 0.33848737E+00 0.13708552E+04</pdfrwt>
<totfact> 0.93594461E-02</totfact>
</mgrwt>
</event>
<event>
 8    1  0.2939692E-006  0.1123015E+04  0.7818608E-02  0.8675074E-01
          4   -1    0    0  502    0  0.00000000000E+00  0.00000000000E+00  0.16252254790E+04  0.16252254790E+04  0.00000000000E+00 0.  1.
         -4   -1    0    0    0  501 -0.00000000000E+00 -0.00000000000E+00 -0.84715025464E+03  0.84715025464E+03  0.00000000000E+00 0. -1.
   -9000010    2    1    2    0  501 -0.45608809088E+03 -0.17727334020E+03  0.10657795045E+01  0.11230152362E+04  0.10108016131E+04 0.  0.
    9000010    2    1    2  502    0  0.45608809088E+03  0.17727334020E+03  0.77700944489E+03  0.13493604975E+04  0.98873044403E+03 0.  0.
        -13    1    4    4    0    0  0.28563356585E+03  0.31491186410E+03 -0.10716061847E+03  0.43845116650E+03  0.10566000000E+00 0.  1.
          4    1    4    4  502    0  0.17045452504E+03 -0.13763852390E+03  0.88417006335E+03  0.91090933099E+03  0.00000000000E+00 0.  1.
         13    1    3    3    0    0 -0.29313399908E+03 -0.26854958827E+03  0.47157504400E+03  0.61678963680E+03  0.10566000000E+00 0. -1.
         -4    1    3    3    0  501 -0.16295409180E+03  0.91276248071E+02 -0.47050926450E+03  0.50622559939E+03  0.00000000000E+00 0. -1.
<mgrwt>
<rscale>  0 0.11130587E+04</rscale>
<asrwt>0</asrwt>
<pdfrwt beam="1">  1        4 0.25003469E+00 0.11031909E+04</pdfrwt>
<pdfrwt beam="2">  1       -4 0.13033081E+00 0.11230147E+04</pdfrwt>
<totfact> 0.25099413E-01</totfact>
</mgrwt>
</event>
<event>
 8    1  0.2939692E-006  0.1245400E+04  0.7818608E-02  0.8578554E-01
          4   -1    0    0  502    0  0.00000000000E+00  0.00000000000E+00  0.28854651053E+04  0.28854651053E+04  0.00000000000E+00 0.  1.
         -4   -1    0    0    0  501 -0.00000000000E+00 -0.00000000000E+00 -0.75962257176E+03  0.75962257176E+03  0.00000000000E+00 0. -1.
   -9000010    2    1    2    0  501  0.61713007687E+03  0.40582908242E+03  0.67772803181E+02  0.12472424061E+04  0.10027331105E+04 0.  0.
    9000010    2    1    2  502    0 -0.61713007687E+03 -0.40582908242E+03  0.20580697303E+04  0.23978452709E+04  0.98410576289E+03 0.  0.
        -13    1    4    4    0    0 -0.33077489322E+03  0.30918810474E+03  0.63792383024E+03  0.78227625456E+03  0.10566000000E+00 0.  1.
          4    1    4    4  502    0 -0.28635518365E+03 -0.71501718716E+03  0.14201459001E+04  0.16155690164E+04  0.00000000000E+00 0.  1.
         13    1    3    3    0    0  0.80399466108E+03  0.55295201355E+03 -0.59307127985E+02  0.97758922403E+03  0.10566000000E+00 0. -1.
         -4    1    3    3    0  501 -0.18686458421E+03 -0.14712293113E+03  0.12707993117E+03  0.26965318207E+03  0.00000000000E+00 0. -1.
<mgrwt>
<rscale>  0 0.12379031E+04</rscale>
<asrwt>0</asrwt>
<pdfrwt beam="1">  1        4 0.44391770E+00 0.12304515E+04</pdfrwt>
<pdfrwt beam="2">  1       -4 0.11686501E+00 0.12453997E+04</pdfrwt>
<totfact> 0.67945664E-02</totfact>
</mgrwt>
</event>
<event>
 8    1  0.2939692E-006  0.1074118E+04  0.7818608E-02  0.8728303E-01
         -4   -1    0    0    0  501 -0.00000000000E+00  0.00000000000E+00  0.14893453102E+04  0.14893453102E+04  0.00000000000E+00 0. -1.
          4   -1    0    0  502    0  0.00000000000E+00 -0.00000000000E+00 -0.26578048701E+04  0.26578048701E+04  0.00000000000E+00 0.  1.
   -9000010    2    1    2    0  501 -0.31933229801E+03 -0.60711481770E+02  0.11727000702E+04  0.15902688101E+04  0.10237531114E+04 0.  0.
    9000010    2    1    2  502    0  0.31933229801E+03  0.60711481770E+02 -0.23411596301E+04  0.25568813702E+04  0.97516917876E+03 0.  0.
        -13    1    4    4    0    0  0.88160824631E+02 -0.13666438695E+03  0.30800166134E+02  0.16552385647E+03  0.10566000000E+00 0.  1.
          4    1    4    4  502    0  0.23117147338E+03  0.19737586872E+03 -0.23719597962E+04  0.23913575137E+04  0.00000000000E+00 0.  1.
         13    1    3    3    0    0 -0.19708744371E+03 -0.16455575753E+03  0.13365442339E+04  0.13609822035E+04  0.10566000000E+00 0. -1.
         -4    1    3    3    0  501 -0.12224485431E+03  0.10384427576E+03 -0.16384416369E+03  0.22928660665E+03  0.00000000000E+00 0. -1.
<mgrwt>
<rscale>  0 0.10507637E+04</rscale>
<asrwt>0</asrwt>
<pdfrwt beam="2">  1        4 0.40889305E+00 0.10279173E+04</pdfrwt>
<pdfrwt beam="1">  1       -4 0.22913005E+00 0.10741180E+04</pdfrwt>
<totfact> 0.37211793E-02</totfact>
</mgrwt>
</event>
<event>
 8    1  0.2939692E-006  0.1189459E+04  0.7818608E-02  0.8628631E-01
         -4   -1    0    0    0  501 -0.00000000000E+00  0.00000000000E+00  0.18089331678E+04  0.18089331678E+04  0.00000000000E+00 0. -1.
          4   -1    0    0  502    0  0.00000000000E+00 -0.00000000000E+00 -0.83252732270E+03  0.83252732270E+03  0.00000000000E+00 0.  1.
   -9000010    2    1    2    0  501  0.12388935059E+03 -0.55981990898E+03  0.88921746354E+03  0.14850992380E+04  0.10421444946E+04 0.  0.
    9000010    2    1    2  502    0 -0.12388935059E+03  0.55981990898E+03  0.87188381574E+02  0.11563612525E+04  0.10004112308E+04 0.  0.
        -13    1    4    4    0    0 -0.11938627977E+03 -0.21769325734E+03 -0.20879351858E+03  0.32440435054E+03  0.10566000000E+00 0.  1.
          4    1    4    4  502    0 -0.45030708181E+01  0.77751316631E+03  0.29598190015E+03  0.83195690192E+03  0.00000000000E+00 0.  1.
         13    1    3    3    0    0  0.48710647727E+03  0.24090447613E+01  0.55001825491E+03  0.73470988533E+03  0.10566000000E+00 0. -1.
         -4    1    3    3    0  501 -0.36321712668E+03 -0.56222895374E+03  0.33919920863E+03  0.75038935272E+03  0.00000000000E+00 0. -1.
<mgrwt>
<rscale>  0 0.11711228E+04</rscale>
<asrwt>0</asrwt>
<pdfrwt beam="2">  1        4 0.12808113E+00 0.11530696E+04</pdfrwt>
<pdfrwt beam="1">  1       -4 0.27829741E+00 0.11894587E+04</pdfrwt>
<totfact> 0.22032845E-01</totfact>
</mgrwt>
</event>
<event>
 8    1  0.2939692E-006  0.1236437E+04  0.7818608E-02  0.8604124E-01
         -4   -1    0    0    0  501 -0.00000000000E+00  0.00000000000E+00  0.18009288518E+04  0.18009288518E+04  0.00000000000E+00 0. -1.
          4   -1    0    0  502    0  0.00000000000E+00 -0.00000000000E+00 -0.26139980204E+04  0.26139980204E+04  0.00000000000E+00 0.  1.
   -9000010    2    1    2    0  501  0.64877438114E+03 -0.34159142881E+03  0.14264692350E+04  0.18877477552E+04  0.99558234559E+03 0.  0.
    9000010    2    1    2  502    0 -0.64877438114E+03  0.34159142881E+03 -0.22395384037E+04  0.25271791171E+04  0.91296720988E+03 0.  0.
        -13    1    4    4    0    0 -0.20105659335E+03 -0.23667818132E+02  0.11884130392E+02  0.20279339996E+03  0.10566000000E+00 0.  1.
          4    1    4    4  502    0 -0.44771778778E+03  0.36525924694E+03 -0.22514225341E+04  0.23243857171E+04  0.00000000000E+00 0.  1.
         13    1    3    3    0    0  0.30470819878E+03 -0.18299008455E+03 -0.54052973115E+02  0.35951939101E+03  0.10566000000E+00 0. -1.
         -4    1    3    3    0  501  0.34406618236E+03 -0.15860134426E+03  0.14805222081E+04  0.15282283642E+04  0.00000000000E+00 0. -1.
<mgrwt>
<rscale>  0 0.12032434E+04</rscale>
<asrwt>0</asrwt>
<pdfrwt beam="2">  1        4 0.40215354E+00 0.11709407E+04</pdfrwt>
<pdfrwt beam="1">  1       -4 0.27706598E+00 0.12364373E+04</pdfrwt>
<totfact> 0.29857859E-02</totfact>
</mgrwt>
</event>
<event>
 8    1  0.2939692E-006  0.1194884E+04  0.7818608E-02  0.8612988E-01
          4   -1    0    0  502    0  0.00000000000E+00  0.00000000000E+00  0.10436109986E+04  0.10436109986E+04  0.00000000000E+00 0.  1.
         -4   -1    0    0    0  501 -0.00000000000E+00 -0.00000000000E+00 -0.18865513223E+04  0.18865513223E+04  0.00000000000E+00 0. -1.
   -9000010    2    1    2    0  501 -0.47029923744E+03 -0.43030688870E+03 -0.11960728020E+04  0.16906622746E+04  0.10106450356E+04 0.  0.
    9000010    2    1    2  502    0  0.47029923744E+03  0.43030688870E+03  0.35313247825E+03  0.12395000462E+04  0.10026526947E+04 0.  0.
        -13    1    4    4    0    0 -0.24786818407E+03  0.38736908683E+03  0.21174102766E+03  0.50628817887E+03  0.10566000000E+00 0.  1.
          4    1    4    4  502    0  0.71816742152E+03  0.42937801875E+02  0.14139145059E+03  0.73321186737E+03  0.00000000000E+00 0.  1.
         13    1    3    3    0    0 -0.70228813486E+03 -0.49193869700E+02 -0.49858387037E+03  0.86267870504E+03  0.10566000000E+00 0. -1.
         -4    1    3    3    0  501  0.23198889741E+03 -0.38111301900E+03 -0.69748893159E+03  0.82798356956E+03  0.00000000000E+00 0. -1.
<mgrwt>
<rscale>  0 0.11915035E+04</rscale>
<asrwt>0</asrwt>
<pdfrwt beam="1">  1        4 0.16055554E+00 0.11881321E+04</pdfrwt>
<pdfrwt beam="2">  1       -4 0.29023866E+00 0.11948844E+04</pdfrwt>
<totfact> 0.14562274E-01</totfact>
</mgrwt>
</event>
<event>
 8    1  0.2939692E-006  0.1714822E+04  0.7818608E-02  0.8309343E-01
         -4   -1    0    0    0  501 -0.00000000000E+00  0.00000000000E+00  0.29020781238E+04  0.29020781238E+04  0.00000000000E+00 0. -1.
          4   -1    0    0  502    0  0.00000000000E+00 -0.00000000000E+00 -0.28081550965E+04  0.28081550965E+04  0.00000000000E+00 0.  1.
   -9000010    2    1    2    0  501 -0.12408294064E+04 -0.45528229907E+03  0.23496972106E+04  0.28766609555E+04  0.10035744535E+04 0.  0.
    9000010    2    1    2  502    0  0.12408294064E+04  0.45528229907E+03 -0.22557741833E+04  0.28335722648E+04  0.10925543585E+04 0.  0.
        -13    1    4    4    0    0  0.10665581386E+04 -0.15074281098E+03 -0.12962314053E+04  0.16853740016E+04  0.10566000000E+00 0.  1.
          4    1    4    4  502    0  0.17427126778E+03  0.60602511005E+03 -0.95954277798E+03  0.11481982632E+04  0.00000000000E+00 0.  1.
         13    1    3    3    0    0 -0.19261674644E+03  0.21506955009E+03  0.10005072341E+04  0.10413312917E+04  0.10566000000E+00 0. -1.
         -4    1    3    3    0  501 -0.10482126600E+04 -0.67035184916E+03  0.13491899765E+04  0.18353296638E+04  0.00000000000E+00 0. -1.
<mgrwt>
<rscale>  0 0.16869589E+04</rscale>
<asrwt>0</asrwt>
<pdfrwt beam="2">  1        4 0.43202386E+00 0.17148220E+04</pdfrwt>
<pdfrwt beam="1">  1       -4 0.44647356E+00 0.16595485E+04</pdfrwt>
<totfact> 0.53202664E-03</totfact>
</mgrwt>
</event>
<event>
 8    1  0.2939692E-006  0.1334674E+04  0.7818608E-02  0.8523451E-01
         -4   -1    0    0    0  501 -0.00000000000E+00  0.00000000000E+00  0.17269917715E+04  0.17269917715E+04  0.00000000000E+00 0. -1.
          4   -1    0    0  502    0  0.00000000000E+00 -0.00000000000E+00 -0.31749352258E+04  0.31749352258E+04  0.00000000000E+00 0.  1.
   -9000010    2    1    2    0  501 -0.38645862475E+03  0.77509919129E+03  0.13056802701E+04  0.18418945504E+04  0.96832099124E+03 0.  0.
    9000010    2    1    2  502    0  0.38645862475E+03 -0.77509919129E+03 -0.27536237243E+04  0.30600324469E+04  0.10154929523E+04 0.  0.
        -13    1    4    4    0    0  0.54005293536E+03 -0.59854465254E+03 -0.97068196538E+03  0.12617988600E+04  0.10566000000E+00 0.  1.
          4    1    4    4  502    0 -0.15359431060E+03 -0.17655453875E+03 -0.17829417589E+04  0.17982335869E+04  0.00000000000E+00 0.  1.
         13    1    3    3    0    0  0.19877227159E+03  0.65943620915E+03  0.83245354323E+03  0.10804376163E+04  0.10566000000E+00 0. -1.
         -4    1    3    3    0  501 -0.58523089634E+03  0.11566298214E+03  0.47322672683E+03  0.76145693408E+03  0.00000000000E+00 0. -1.
<mgrwt>
<rscale>  0 0.13167891E+04</rscale>
<asrwt>0</asrwt>
<pdfrwt beam="2">  1        4 0.48845157E+00 0.13346741E+04</pdfrwt>
<pdfrwt beam="1">  1       -4 0.26569105E+00 0.12991438E+04</pdfrwt>
<totfact> 0.12789334E-02</totfact>
</mgrwt>
</event>
<event>
 8    1  0.2939692E-006  0.1146433E+04  0.7818608E-02  0.8658301E-01
         -4   -1    0    0    0  501 -0.00000000000E+00  0.00000000000E+00  0.52660783032E+04  0.52660783032E+04  0.00000000000E+00 0. -1.
          4   -1    0    0  502    0  0.00000000000E+00 -0.00000000000E+00 -0.33210767373E+03  0.33210767373E+03  0.00000000000E+00 0.  1.
   -9000010    2    1    2    0  501 -0.15980571720E+03 -0.46849755635E+03  0.39285295235E+04  0.40923894989E+04  0.10340598465E+04 0.  0.
    9000010    2    1    2  502    0  0.15980571720E+03  0.46849755635E+03  0.10054411061E+04  0.15057964781E+04  0.10057253045E+04 0.  0.
        -13    1    4    4    0    0  0.29770851165E+03  0.73962928796E+03  0.84546741728E+03  0.11621088617E+04  0.10566000000E+00 0.  1.
          4    1    4    4  502    0 -0.13790279445E+03 -0.27113173160E+03  0.15997368877E+03  0.34368761645E+03  0.00000000000E+00 0.  1.
         13    1    3    3    0    0  0.79390633084E+02 -0.35647415630E+03  0.37629940779E+04  0.37806746935E+04  0.10566000000E+00 0. -1.
         -4    1    3    3    0  501 -0.23919635028E+03 -0.11202340005E+03  0.16553544560E+03  0.31171480538E+03  0.00000000000E+00 0. -1.
<mgrwt>
<rscale>  0 0.11336157E+04</rscale>
<asrwt>0</asrwt>
<pdfrwt beam="2">  1        4 0.51093492E-01 0.11209421E+04</pdfrwt>
<pdfrwt beam="1">  1       -4 0.81016583E+00 0.11464326E+04</pdfrwt>
<totfact> 0.29041265E-03</totfact>
</mgrwt>
</event>
<event>
 8    1  0.2939692E-006  0.1039322E+04  0.7818608E-02  0.8740849E-01
          4   -1    0    0  502    0  0.00000000000E+00  0.00000000000E+00  0.31698361007E+04  0.31698361007E+04  0.00000000000E+00 0.  1.
         -4   -1    0    0    0  501 -0.00000000000E+00 -0.00000000000E+00 -0.34453649664E+03  0.34453649664E+03  0.00000000000E+00 0. -1.
   -9000010    2    1    2    0  501 -0.21412070190E+03  0.13768412167E+03  0.11946006690E+04  0.15834332845E+04  0.10076634438E+04 0.  0.
    9000010    2    1    2  502    0  0.21412070190E+03 -0.13768412167E+03  0.16306989351E+04  0.19309393128E+04  0.10022689362E+04 0.  0.
        -13    1    4    4    0    0 -0.13447281903E+03 -0.47259582510E+03  0.49894391170E+03  0.70026765679E+03  0.10566000000E+00 0.  1.
          4    1    4    4  502    0  0.34859352093E+03  0.33491170343E+03  0.11317550234E+04  0.12306716560E+04  0.00000000000E+00 0.  1.
         13    1    3    3    0    0 -0.48323927461E+03  0.18430748684E+03  0.12037486730E+04  0.13101527870E+04  0.10566000000E+00 0. -1.
         -4    1    3    3    0  501  0.26911857272E+03 -0.46623365168E+02 -0.91480040820E+01  0.27328049755E+03  0.00000000000E+00 0. -1.
<mgrwt>
<rscale>  0 0.10367040E+04</rscale>
<asrwt>0</asrwt>
<pdfrwt beam="1">  1        4 0.48766707E+00 0.10340927E+04</pdfrwt>
<pdfrwt beam="2">  1       -4 0.53005617E-01 0.10393220E+04</pdfrwt>
<totfact> 0.21197467E-01</totfact>
</mgrwt>
</event>
<event>
 8    1  0.2939692E-006  0.1131029E+04  0.7818608E-02  0.8661043E-01
         -4   -1    0    0    0  501 -0.00000000000E+00  0.00000000000E+00  0.16258129883E+04  0.16258129883E+04  0.00000000000E+00 0. -1.
          4   -1    0    0  502    0  0.00000000000E+00 -0.00000000000E+00 -0.32220328175E+04  0.32220328175E+04  0.00000000000E+00 0.  1.
   -9000010    2    1    2    0  501 -0.66187942761E+01  0.53085927768E+03  0.13097915107E+04  0.17294923633E+04  0.99686240366E+03 0.  0.
    9000010    2    1    2  502    0  0.66187942761E+01 -0.53085927768E+03 -0.29060113399E+04  0.31183534425E+04  0.99868458661E+03 0.  0.
        -13    1    4    4    0    0  0.44820678047E+03 -0.51049987303E+03 -0.19537933147E+04  0.20685279225E+04  0.10566000000E+00 0.  1.
          4    1    4    4  502    0 -0.44158798620E+03 -0.20359404648E+02 -0.95221802520E+03  0.10498255200E+04  0.00000000000E+00 0.  1.
         13    1    3    3    0    0 -0.44499923784E+03  0.46844904718E+03  0.99431194149E+03  0.11858014503E+04  0.10566000000E+00 0. -1.
         -4    1    3    3    0  501  0.43838044357E+03  0.62410230492E+02  0.31547956924E+03  0.54369091291E+03  0.00000000000E+00 0. -1.
<mgrwt>
<rscale>  0 0.11302243E+04</rscale>
<asrwt>0</asrwt>
<pdfrwt beam="2">  1        4 0.49569735E+00 0.11310289E+04</pdfrwt>
<pdfrwt beam="1">  1       -4 0.25012508E+00 0.11294202E+04</pdfrwt>
<totfact> 0.13212656E-02</totfact>
</mgrwt>
</event>
<event>
 8    1  0.2939692E-006  0.1100319E+04  0.7818608E-02  0.8695171E-01
         -4   -1    0    0    0  501 -0.00000000000E+00  0.00000000000E+00  0.25557763410E+04  0.25557763410E+04  0.00000000000E+00 0. -1.
          4   -1    0    0  502    0  0.00000000000E+00 -0.00000000000E+00 -0.78800525535E+03  0.78800525535E+03  0.00000000000E+00 0.  1.
   -9000010    2    1    2    0  501  0.40971014061E+03  0.16805722808E+03  0.19611445946E+04  0.22487309765E+04  0.10072721839E+04 0.  0.
    9000010    2    1    2  502    0 -0.40971014061E+03 -0.16805722808E+03 -0.19337350897E+03  0.10950506198E+04  0.98266826284E+03 0.  0.
        -13    1    4    4    0    0  0.45107099284E+02  0.25903377565E+03 -0.36325219064E+03  0.44842537005E+03  0.10566000000E+00 0.  1.
          4    1    4    4  502    0 -0.45481723989E+03 -0.42709100374E+03  0.16987868167E+03  0.64662524978E+03  0.00000000000E+00 0.  1.
         13    1    3    3    0    0  0.52793093317E+03 -0.30648992448E+03  0.11318079853E+04  0.12859379732E+04  0.10566000000E+00 0. -1.
         -4    1    3    3    0  501 -0.11822079257E+03  0.47454715256E+03  0.82933660928E+03  0.96279300335E+03  0.00000000000E+00 0. -1.
<mgrwt>
<rscale>  0 0.10890225E+04</rscale>
<asrwt>0</asrwt>
<pdfrwt beam="2">  1        4 0.12123158E+00 0.10778416E+04</pdfrwt>
<pdfrwt beam="1">  1       -4 0.39319636E+00 0.11003194E+04</pdfrwt>
<totfact> 0.10542069E-01</totfact>
</mgrwt>
</event>
<event>
 8    1  0.2939692E-006  0.1188403E+04  0.7818608E-02  0.8640753E-01
         -4   -1    0    0    0  501 -0.00000000000E+00  0.00000000000E+00  0.33517871714E+04  0.33517871714E+04  0.00000000000E+00 0. -1.
          4   -1    0    0  502    0  0.00000000000E+00 -0.00000000000E+00 -0.57224549819E+03  0.57224549819E+03  0.00000000000E+00 0.  1.
   -9000010    2    1    2    0  501  0.52128543915E+03  0.27218714268E+03  0.24427433342E+04  0.26888264203E+04  0.95758455086E+03 0.  0.
    9000010    2    1    2  502    0 -0.52128543915E+03 -0.27218714268E+03  0.33679833903E+03  0.12352062493E+04  0.10327037365E+04 0.  0.
        -13    1    4    4    0    0 -0.46610210514E+03  0.32457677543E+03  0.48179818122E+02  0.57001979054E+03  0.10566000000E+00 0.  1.
          4    1    4    4  502    0 -0.55183334006E+02 -0.59676391810E+03  0.28861852091E+03  0.66518645876E+03  0.00000000000E+00 0.  1.
         13    1    3    3    0    0 -0.16482172765E+03 -0.22285838988E+03  0.63782946771E+03  0.69545560957E+03  0.10566000000E+00 0. -1.
         -4    1    3    3    0  501  0.68610716679E+03  0.49504553256E+03  0.18049138665E+04  0.19933708107E+04  0.00000000000E+00 0. -1.
<mgrwt>
<rscale>  0 0.11556195E+04</rscale>
<asrwt>0</asrwt>
<pdfrwt beam="2">  1        4 0.88037771E-01 0.11884029E+04</pdfrwt>
<pdfrwt beam="1">  1       -4 0.51565955E+00 0.11237404E+04</pdfrwt>
<totfact> 0.53916806E-02</totfact>
</mgrwt>
</event>
<event>
 8    1  0.2939692E-006  0.1258023E+04  0.7818608E-02  0.8570601E-01
         -4   -1    0    0    0  501 -0.00000000000E+00  0.00000000000E+00  0.17806338529E+04  0.17806338529E+04  0.00000000000E+00 0.  1.
          4   -1    0    0  502    0  0.00000000000E+00 -0.00000000000E+00 -0.98922189602E+03  0.98922189602E+03  0.00000000000E+00 0. -1.
   -9000010    2    1    2    0  501  0.59691841754E+03 -0.46140538321E+03  0.86669387642E+03  0.15276712665E+04  0.10066850045E+04 0.  0.
    9000010    2    1    2  502    0 -0.59691841754E+03  0.46140538321E+03 -0.75281919531E+02  0.12421844824E+04  0.98394532172E+03 0.  0.
        -13    1    4    4    0    0 -0.60688624712E+03 -0.76591808750E+02  0.19232684276E+03  0.64122293138E+03  0.10566000000E+00 0.  1.
          4    1    4    4  502    0  0.99678295856E+01  0.53799719196E+03 -0.26760876229E+03  0.60096155105E+03  0.00000000000E+00 0.  1.
         13    1    3    3    0    0 -0.18008849245E+03 -0.26294875238E+03 -0.35381684880E+02  0.32066460092E+03  0.10566000000E+00 0. -1.
         -4    1    3    3    0  501  0.77700690999E+03 -0.19845663083E+03  0.90207556130E+03  0.12070066656E+04  0.00000000000E+00 0. -1.
<mgrwt>
<rscale>  0 0.12489291E+04</rscale>
<asrwt>0</asrwt>
<pdfrwt beam="2">  1        4 0.15218798E+00 0.12399012E+04</pdfrwt>
<pdfrwt beam="1">  1       -4 0.27394367E+00 0.12580227E+04</pdfrwt>
<totfact> 0.17291963E-01</totfact>
</mgrwt>
</event>
<event>
 8    1  0.2939692E-006  0.1132878E+04  0.7818608E-02  0.8664206E-01
          4   -1    0    0  502    0  0.00000000000E+00  0.00000000000E+00  0.12365352172E+04  0.12365352172E+04  0.00000000000E+00 0.  1.
         -4   -1    0    0    0  501 -0.00000000000E+00 -0.00000000000E+00 -0.24245551370E+04  0.24245551370E+04  0.00000000000E+00 0. -1.
   -9000010    2    1    2    0  501 -0.48890132545E+03 -0.17561675164E+03 -0.19828407370E+04  0.22771995609E+04  0.99202555535E+03 0.  0.
    9000010    2    1    2  502    0  0.48890132545E+03  0.17561675164E+03  0.79482081714E+03  0.13838907933E+04  0.10067511346E+04 0.  0.
        -13    1    4    4    0    0  0.11142822487E+03  0.56592197483E+02  0.95042603534E+03  0.95860762876E+03  0.10566000000E+00 0.  1.
          4    1    4    4  502    0  0.37747310058E+03  0.11902455415E+03 -0.15560521820E+03  0.42528316459E+03  0.00000000000E+00 0.  1.
         13    1    3    3    0    0 -0.77767196094E+02 -0.49698747385E+03 -0.14349417670E+04  0.15205598218E+04  0.10566000000E+00 0. -1.
         -4    1    3    3    0  501 -0.41113412935E+03  0.32137072222E+03 -0.54789896997E+03  0.75663973905E+03  0.00000000000E+00 0. -1.
<mgrwt>
<rscale>  0 0.11263266E+04</rscale>
<asrwt>0</asrwt>
<pdfrwt beam="1">  1        4 0.19023619E+00 0.11328785E+04</pdfrwt>
<pdfrwt beam="2">  1       -4 0.37300848E+00 0.11198127E+04</pdfrwt>
<totfact> 0.64511421E-02</totfact>
</mgrwt>
</event>
<event>
 8    1  0.2939692E-006  0.1828654E+04  0.7818608E-02  0.8242067E-01
          4   -1    0    0  502    0  0.00000000000E+00  0.00000000000E+00  0.20903981428E+04  0.20903981428E+04  0.00000000000E+00 0.  1.
         -4   -1    0    0    0  501 -0.00000000000E+00 -0.00000000000E+00 -0.21711756704E+04  0.21711756704E+04  0.00000000000E+00 0. -1.
   -9000010    2    1    2    0  501  0.58848034448E+03  0.14149547291E+04 -0.11339634453E+04  0.21513185113E+04  0.99694144286E+03 0.  0.
    9000010    2    1    2  502    0 -0.58848034448E+03 -0.14149547291E+04  0.10531859177E+04  0.21102553019E+04  0.99778297274E+03 0.  0.
        -13    1    4    4    0    0  0.15872165534E+03 -0.80917221117E+03  0.26337162869E+03  0.86563090123E+03  0.10566000000E+00 0.  1.
          4    1    4    4  502    0 -0.74720199983E+03 -0.60578251790E+03  0.78981428905E+03  0.12446244007E+04  0.00000000000E+00 0.  1.
         13    1    3    3    0    0  0.42174701490E+03  0.64366466050E+02 -0.47777592282E+03  0.64053370725E+03  0.10566000000E+00 0. -1.
         -4    1    3    3    0  501  0.16673332958E+03  0.13505882630E+04 -0.65618752247E+03  0.15107848040E+04  0.00000000000E+00 0. -1.
<mgrwt>
<rscale>  0 0.18284249E+04</rscale>
<asrwt>0</asrwt>
<pdfrwt beam="1">  1        4 0.32159971E+00 0.18286544E+04</pdfrwt>
<pdfrwt beam="2">  1       -4 0.33402703E+00 0.18281954E+04</pdfrwt>
<totfact> 0.37280954E-02</totfact>
</mgrwt>
</event>
<event>
 8    1  0.2939692E-006  0.1096017E+04  0.7818608E-02  0.8708270E-01
          4   -1    0    0  502    0  0.00000000000E+00  0.00000000000E+00  0.33100815517E+04  0.33100815517E+04  0.00000000000E+00 0.  1.
         -4   -1    0    0    0  501 -0.00000000000E+00 -0.00000000000E+00 -0.23767545292E+04  0.23767545292E+04  0.00000000000E+00 0. -1.
   -9000010    2    1    2    0  501 -0.23929772075E+03  0.33295480774E+03 -0.21614069327E+04  0.24037533940E+04  0.96862177731E+03 0.  0.
    9000010    2    1    2  502    0  0.23929772075E+03 -0.33295480774E+03  0.30947339552E+04  0.32830826869E+04  0.10164307020E+04 0.  0.
        -13    1    4    4    0    0  0.24753268579E+03  0.35592012709E+02  0.10586038466E+03  0.27156151073E+03  0.10566000000E+00 0.  1.
          4    1    4    4  502    0 -0.82349650388E+01 -0.36854682045E+03  0.29888735706E+04  0.30115211762E+04  0.00000000000E+00 0.  1.
         13    1    3    3    0    0 -0.21350073488E+03 -0.28959154051E+03 -0.12423268818E+04  0.12933761698E+04  0.10566000000E+00 0. -1.
         -4    1    3    3    0  501 -0.25796985874E+02  0.62254634825E+03 -0.91908005087E+03  0.11103772242E+04  0.00000000000E+00 0. -1.
<mgrwt>
<rscale>  0 0.10736973E+04</rscale>
<asrwt>0</asrwt>
<pdfrwt beam="1">  1        4 0.50924332E+00 0.10960172E+04</pdfrwt>
<pdfrwt beam="2">  1       -4 0.36565454E+00 0.10518319E+04</pdfrwt>
<totfact> 0.54652665E-03</totfact>
</mgrwt>
</event>
<event>
 8    1  0.2939692E-006  0.1289412E+04  0.7818608E-02  0.8545338E-01
          4   -1    0    0  502    0  0.00000000000E+00  0.00000000000E+00  0.21913774692E+04  0.21913774692E+04  0.00000000000E+00 0.  1.
         -4   -1    0    0    0  501 -0.00000000000E+00 -0.00000000000E+00 -0.11177584694E+04  0.11177584694E+04  0.00000000000E+00 0. -1.
   -9000010    2    1    2    0  501  0.77505413605E+03  0.23872693262E+03 -0.40938195222E+03  0.13439704716E+04  0.99043605728E+03 0.  0.
    9000010    2    1    2  502    0 -0.77505413605E+03 -0.23872693262E+03  0.14830009521E+04  0.19651654670E+04  0.10024390389E+04 0.  0.
        -13    1    4    4    0    0 -0.22618174241E+03  0.38587100729E+03  0.40211043743E+03  0.60145442880E+03  0.10566000000E+00 0.  1.
          4    1    4    4  502    0 -0.54887239365E+03 -0.62459793991E+03  0.10808905146E+04  0.13637110382E+04  0.00000000000E+00 0.  1.
         13    1    3    3    0    0 -0.22484446988E+03  0.48895882564E+02  0.36228331640E+02  0.23293420991E+03  0.10566000000E+00 0. -1.
         -4    1    3    3    0  501  0.99989860594E+03  0.18983105006E+03 -0.44561028386E+03  0.11110362617E+04  0.00000000000E+00 0. -1.
<mgrwt>
<rscale>  0 0.12847490E+04</rscale>
<asrwt>0</asrwt>
<pdfrwt beam="1">  1        4 0.33713500E+00 0.12894121E+04</pdfrwt>
<pdfrwt beam="2">  1       -4 0.17196284E+00 0.12801027E+04</pdfrwt>
<totfact> 0.97193733E-02</totfact>
</mgrwt>
</event>
<event>
 8    1  0.2939692E-006  0.1215957E+04  0.7818608E-02  0.8612692E-01
         -4   -1    0    0    0  501 -0.00000000000E+00  0.00000000000E+00  0.25127826033E+04  0.25127826033E+04  0.00000000000E+00 0. -1.
          4   -1    0    0  502    0  0.00000000000E+00 -0.00000000000E+00 -0.19514480170E+04  0.19514480170E+04  0.00000000000E+00 0.  1.
   -9000010    2    1    2    0  501  0.52420648360E+03 -0.30701806740E+03  0.21599779146E+04  0.24556956571E+04  0.99793989667E+03 0.  0.
    9000010    2    1    2  502    0 -0.52420648360E+03  0.30701806740E+03 -0.15986433284E+04  0.20085349632E+04  0.10533279053E+04 0.  0.
        -13    1    4    4    0    0 -0.27133491375E+03  0.16570270535E+03 -0.16782637741E+04  0.17081127974E+04  0.10566000000E+00 0.  1.
          4    1    4    4  502    0 -0.25287156984E+03  0.14131536206E+03  0.79620445695E+02  0.30042216590E+03  0.00000000000E+00 0.  1.
         13    1    3    3    0    0 -0.12487300194E+03 -0.26147855086E+03  0.15043144211E+04  0.15319680766E+04  0.10566000000E+00 0. -1.
         -4    1    3    3    0  501  0.64907948554E+03 -0.45539516541E+02  0.65566349353E+03  0.92372758044E+03  0.00000000000E+00 0. -1.
<mgrwt>
<rscale>  0 0.11918930E+04</rscale>
<asrwt>0</asrwt>
<pdfrwt beam="2">  1        4 0.30022277E+00 0.12159573E+04</pdfrwt>
<pdfrwt beam="1">  1       -4 0.38658194E+00 0.11683050E+04</pdfrwt>
<totfact> 0.29844095E-02</totfact>
</mgrwt>
</event>
<event>
 8    1  0.2939692E-006  0.1327675E+04  0.7818608E-02  0.8543452E-01
          4   -1    0    0  502    0  0.00000000000E+00  0.00000000000E+00  0.27387460984E+04  0.27387460984E+04  0.00000000000E+00 0.  1.
         -4   -1    0    0    0  501 -0.00000000000E+00 -0.00000000000E+00 -0.79434359271E+03  0.79434359271E+03  0.00000000000E+00 0. -1.
   -9000010    2    1    2    0  501  0.38659049692E+03 -0.77390371291E+03  0.89087442008E+02  0.12516612463E+04  0.90018894344E+03 0.  0.
    9000010    2    1    2  502    0 -0.38659049692E+03  0.77390371291E+03  0.18553150637E+04  0.22814284449E+04  0.10071457661E+04 0.  0.
        -13    1    4    4    0    0 -0.25248507892E+03 -0.15122097443E+03  0.13554565371E+03  0.32402026725E+03  0.10566000000E+00 0.  1.
          4    1    4    4  502    0 -0.13410541800E+03  0.92512468734E+03  0.17197694100E+04  0.19574081776E+04  0.00000000000E+00 0.  1.
         13    1    3    3    0    0  0.58247259904E+01  0.12802300534E+03  0.22928215406E+03  0.26266734602E+03  0.10566000000E+00 0. -1.
         -4    1    3    3    0  501  0.38076577093E+03 -0.90192671826E+03 -0.14019471206E+03  0.98899390023E+03  0.00000000000E+00 0. -1.
<mgrwt>
<rscale>  0 0.12874724E+04</rscale>
<asrwt>0</asrwt>
<pdfrwt beam="1">  1        4 0.42134555E+00 0.13276753E+04</pdfrwt>
<pdfrwt beam="2">  1       -4 0.12220671E+00 0.12484868E+04</pdfrwt>
<totfact> 0.78520661E-02</totfact>
</mgrwt>
</event>
<event>
 8    1  0.2939692E-006  0.1419317E+04  0.7818608E-02  0.8458507E-01
         -4   -1    0    0    0  501 -0.00000000000E+00  0.00000000000E+00  0.21265255728E+04  0.21265255728E+04  0.00000000000E+00 0. -1.
          4   -1    0    0  502    0  0.00000000000E+00 -0.00000000000E+00 -0.19214972506E+04  0.19214972506E+04  0.00000000000E+00 0.  1.
   -9000010    2    1    2    0  501  0.88230732194E+03  0.47416220449E+03  0.15453562738E+04  0.20982342425E+04  0.10055669629E+04 0.  0.
    9000010    2    1    2  502    0 -0.88230732194E+03 -0.47416220449E+03 -0.13403279516E+04  0.19497885809E+04  0.10009497919E+04 0.  0.
        -13    1    4    4    0    0 -0.67439488307E+03  0.15661785683E+03 -0.40326221172E+03  0.80122283664E+03  0.10566000000E+00 0.  1.
          4    1    4    4  502    0 -0.20791243887E+03 -0.63078006133E+03 -0.93706573990E+03  0.11485657443E+04  0.00000000000E+00 0.  1.
         13    1    3    3    0    0  0.26566957842E+03 -0.28643363261E+03  0.21357520088E+03  0.44524030408E+03  0.10566000000E+00 0. -1.
         -4    1    3    3    0  501  0.61663774352E+03  0.76059583710E+03  0.13317810730E+04  0.16529939384E+04  0.00000000000E+00 0. -1.
<mgrwt>
<rscale>  0 0.14176824E+04</rscale>
<asrwt>0</asrwt>
<pdfrwt beam="2">  1        4 0.29561496E+00 0.14160496E+04</pdfrwt>
<pdfrwt beam="1">  1       -4 0.32715778E+00 0.14193171E+04</pdfrwt>
<totfact> 0.47915998E-02</totfact>
</mgrwt>
</event>
<event>
 8    1  0.2939692E-006  0.1142242E+04  0.7818608E-02  0.8654279E-01
          4   -1    0    0  502    0  0.00000000000E+00  0.00000000000E+00  0.12353904675E+04  0.12353904675E+04  0.00000000000E+00 0.  1.
         -4   -1    0    0    0  501 -0.00000000000E+00 -0.00000000000E+00 -0.11844214285E+04  0.11844214285E+04  0.00000000000E+00 0. -1.
   -9000010    2    1    2    0  501  0.50540289365E+03  0.13582398508E+03 -0.38304845468E+03  0.11978917068E+04  0.10071435760E+04 0.  0.
    9000010    2    1    2  502    0 -0.50540289365E+03 -0.13582398508E+03  0.43401749368E+03  0.12219201893E+04  0.10153016913E+04 0.  0.
        -13    1    4    4    0    0 -0.62495280538E+03  0.16936042652E+03  0.57421376930E+03  0.86543077542E+03  0.10566000000E+00 0.  1.
          4    1    4    4  502    0  0.11954991173E+03 -0.30518441160E+03 -0.14019627562E+03  0.35648941384E+03  0.00000000000E+00 0.  1.
         13    1    3    3    0    0  0.61823672950E+03  0.43367499716E+03 -0.44047724415E+03  0.87424874643E+03  0.10566000000E+00 0. -1.
         -4    1    3    3    0  501 -0.11283383585E+03 -0.29785101207E+03  0.57428789470E+02  0.32364296032E+03  0.00000000000E+00 0. -1.
<mgrwt>
<rscale>  0 0.11386140E+04</rscale>
<asrwt>0</asrwt>
<pdfrwt beam="1">  1        4 0.19006007E+00 0.11422424E+04</pdfrwt>
<pdfrwt beam="2">  1       -4 0.18221868E+00 0.11349971E+04</pdfrwt>
<totfact> 0.21961107E-01</totfact>
</mgrwt>
</event>
<event>
 8    1  0.2939692E-006  0.1071797E+04  0.7818608E-02  0.8711657E-01
          4   -1    0    0  502    0  0.00000000000E+00  0.00000000000E+00  0.95842715871E+03  0.95842715871E+03  0.00000000000E+00 0.  1.
         -4   -1    0    0    0  501 -0.00000000000E+00 -0.00000000000E+00 -0.18804408509E+04  0.18804408509E+04  0.00000000000E+00 0. -1.
   -9000010    2    1    2    0  501  0.36836898887E+03 -0.45024196701E+02 -0.13191193650E+04  0.16996541400E+04  0.10054975914E+04 0.  0.
    9000010    2    1    2  502    0 -0.36836898887E+03  0.45024196701E+02  0.39710567285E+03  0.11392138696E+04  0.10011955029E+04 0.  0.
        -13    1    4    4    0    0 -0.17067100791E+03  0.22584670305E+03  0.68786542056E+03  0.74383746490E+03  0.10566000000E+00 0.  1.
          4    1    4    4  502    0 -0.19769798096E+03 -0.18082250634E+03 -0.29075974771E+03  0.39537640466E+03  0.00000000000E+00 0.  1.
         13    1    3    3    0    0 -0.70333286207E+02 -0.36780390568E+03 -0.13814682683E+03  0.39913787230E+03  0.10566000000E+00 0. -1.
         -4    1    3    3    0  501  0.43870227507E+03  0.32277970898E+03 -0.11809725382E+04  0.13005162677E+04  0.00000000000E+00 0. -1.
<mgrwt>
<rscale>  0 0.10697774E+04</rscale>
<asrwt>0</asrwt>
<pdfrwt beam="1">  1        4 0.14745033E+00 0.10677618E+04</pdfrwt>
<pdfrwt beam="2">  1       -4 0.28929859E+00 0.10717968E+04</pdfrwt>
<totfact> 0.16690137E-01</totfact>
</mgrwt>
</event>
<event>
 8    1  0.2939692E-006  0.1177223E+04  0.7818608E-02  0.8669283E-01
         -4   -1    0    0    0  501 -0.00000000000E+00  0.00000000000E+00  0.83211708984E+03  0.83211708984E+03  0.00000000000E+00 0. -1.
          4   -1    0    0  502    0  0.00000000000E+00 -0.00000000000E+00 -0.19167190506E+04  0.19167190506E+04  0.00000000000E+00 0.  1.
   -9000010    2    1    2    0  501  0.44920946996E+03 -0.29727543609E+03  0.67787226735E+02  0.11791727093E+04  0.10467527585E+04 0.  0.
    9000010    2    1    2  502    0 -0.44920946996E+03  0.29727543609E+03 -0.11523891875E+04  0.15696634312E+04  0.91960894675E+03 0.  0.
        -13    1    4    4    0    0 -0.36366819753E+03 -0.13910873151E+03 -0.64861208388E+02  0.39473128150E+03  0.10566000000E+00 0.  1.
          4    1    4    4  502    0 -0.85541272425E+02  0.43638416760E+03 -0.10875279791E+04  0.11749321497E+04  0.00000000000E+00 0.  1.
         13    1    3    3    0    0 -0.15560801993E+03 -0.33344236466E+02  0.40713657300E+03  0.43713372577E+03  0.10566000000E+00 0. -1.
         -4    1    3    3    0  501  0.60481748988E+03 -0.26393119963E+03 -0.33934934626E+03  0.74203898349E+03  0.00000000000E+00 0. -1.
<mgrwt>
<rscale>  0 0.11201052E+04</rscale>
<asrwt>0</asrwt>
<pdfrwt beam="2">  1        4 0.29487985E+00 0.10657591E+04</pdfrwt>
<pdfrwt beam="1">  1       -4 0.12801801E+00 0.11772227E+04</pdfrwt>
<totfact> 0.20076762E-01</totfact>
</mgrwt>
</event>
<event>
 8    1  0.2939692E-006  0.1237136E+04  0.7818608E-02  0.8581430E-01
          4   -1    0    0  502    0  0.00000000000E+00  0.00000000000E+00  0.27930900916E+04  0.27930900916E+04  0.00000000000E+00 0.  1.
         -4   -1    0    0    0  501 -0.00000000000E+00 -0.00000000000E+00 -0.17195112251E+04  0.17195112251E+04  0.00000000000E+00 0. -1.
   -9000010    2    1    2    0  501 -0.23223505562E+03  0.66817356963E+03 -0.13282963009E+04  0.18108409369E+04  0.10071667169E+04 0.  0.
    9000010    2    1    2  502    0  0.23223505562E+03 -0.66817356963E+03  0.24018751674E+04  0.27017603798E+04  0.10149462003E+04 0.  0.
        -13    1    4    4    0    0 -0.38607645093E+03 -0.37974287305E+03  0.86933686155E+03  0.10242100691E+04  0.10566000000E+00 0.  1.
          4    1    4    4  502    0  0.61831150655E+03 -0.28843069658E+03  0.15325383059E+04  0.16775503107E+04  0.00000000000E+00 0.  1.
         13    1    3    3    0    0  0.24974535818E+03 -0.14246950331E+03 -0.32163678013E+03  0.43141688980E+03  0.10566000000E+00 0. -1.
         -4    1    3    3    0  501 -0.48198041380E+03  0.81064307294E+03 -0.10066595208E+04  0.13794240471E+04  0.00000000000E+00 0. -1.
<mgrwt>
<rscale>  0 0.12339445E+04</rscale>
<asrwt>0</asrwt>
<pdfrwt beam="1">  1        4 0.42970617E+00 0.12371357E+04</pdfrwt>
<pdfrwt beam="2">  1       -4 0.26454019E+00 0.12307615E+04</pdfrwt>
<totfact> 0.24448781E-02</totfact>
</mgrwt>
</event>
<event>
 8    1  0.2939692E-006  0.1140246E+04  0.7818608E-02  0.8654176E-01
          4   -1    0    0  502    0  0.00000000000E+00  0.00000000000E+00  0.23518612203E+04  0.23518612203E+04  0.00000000000E+00 0.  1.
         -4   -1    0    0    0  501 -0.00000000000E+00 -0.00000000000E+00 -0.11241260682E+04  0.11241260682E+04  0.00000000000E+00 0. -1.
   -9000010    2    1    2    0  501 -0.63775257052E+02  0.54301478336E+03 -0.62632108240E+03  0.13009377653E+04  0.10006141277E+04 0.  0.
    9000010    2    1    2  502    0  0.63775257052E+02 -0.54301478336E+03  0.18540562345E+04  0.21750495233E+04  0.99718783069E+03 0.  0.
        -13    1    4    4    0    0 -0.21541313104E+03 -0.14181499937E+03  0.16066535233E+04  0.16272215172E+04  0.10566000000E+00 0.  1.
          4    1    4    4  502    0  0.27918838809E+03 -0.40119978399E+03  0.24740271124E+03  0.54782800608E+03  0.00000000000E+00 0.  1.
         13    1    3    3    0    0 -0.74165239538E+02 -0.29397497220E+03 -0.16471652265E+03  0.34504102805E+03  0.10566000000E+00 0. -1.
         -4    1    3    3    0  501  0.10389982486E+02  0.83698975556E+03 -0.46160455976E+03  0.95589673723E+03  0.00000000000E+00 0. -1.
<mgrwt>
<rscale>  0 0.11387423E+04</rscale>
<asrwt>0</asrwt>
<pdfrwt beam="1">  1        4 0.36182480E+00 0.11372405E+04</pdfrwt>
<pdfrwt beam="2">  1       -4 0.17294247E+00 0.11402460E+04</pdfrwt>
<totfact> 0.80688403E-02</totfact>
</mgrwt>
</event>
<event>
 8    1  0.2939692E-006  0.1443455E+04  0.7818608E-02  0.8450887E-01
         -4   -1    0    0    0  501 -0.00000000000E+00  0.00000000000E+00  0.28444373930E+04  0.28444373930E+04  0.00000000000E+00 0. -1.
          4   -1    0    0  502    0  0.00000000000E+00 -0.00000000000E+00 -0.13243844007E+04  0.13243844007E+04  0.00000000000E+00 0.  1.
   -9000010    2    1    2    0  501  0.34427353979E+03  0.94349988760E+03  0.21653167536E+04  0.25877060963E+04  0.99945479588E+03 0.  0.
    9000010    2    1    2  502    0 -0.34427353979E+03 -0.94349988760E+03 -0.64526376132E+03  0.15811156974E+04  0.10367474228E+04 0.  0.
        -13    1    4    4    0    0 -0.12717271042E+03  0.21538256705E+03 -0.20198670645E+03  0.32149835025E+03  0.10566000000E+00 0.  1.
          4    1    4    4  502    0 -0.21710082937E+03 -0.11588824546E+04 -0.44327705487E+03  0.12596173471E+04  0.00000000000E+00 0.  1.
         13    1    3    3    0    0 -0.28571459319E+03  0.21275014312E+02  0.30966422208E+03  0.42187367374E+03  0.10566000000E+00 0. -1.
         -4    1    3    3    0  501  0.62998813298E+03  0.92222487329E+03  0.18556525316E+04  0.21658324225E+04  0.00000000000E+00 0. -1.
<mgrwt>
<rscale>  0 0.14301194E+04</rscale>
<asrwt>0</asrwt>
<pdfrwt beam="2">  1        4 0.20375145E+00 0.14434547E+04</pdfrwt>
<pdfrwt beam="1">  1       -4 0.43760575E+00 0.14169073E+04</pdfrwt>
<totfact> 0.31335170E-02</totfact>
</mgrwt>
</event>
<event>
 8    1  0.2939692E-006  0.1268156E+04  0.7818608E-02  0.8558084E-01
          4   -1    0    0  502    0  0.00000000000E+00  0.00000000000E+00  0.13678287392E+04  0.13678287392E+04  0.00000000000E+00 0.  1.
         -4   -1    0    0    0  501 -0.00000000000E+00 -0.00000000000E+00 -0.18773697068E+04  0.18773697068E+04  0.00000000000E+00 0. -1.
   -9000010    2    1    2    0  501  0.69845776167E+03  0.35102957749E+03 -0.12486453077E+04  0.17773783867E+04  0.99443140338E+03 0.  0.
    9000010    2    1    2  502    0 -0.69845776167E+03 -0.35102957749E+03  0.73910434012E+03  0.14678200593E+04  0.99857673309E+03 0.  0.
        -13    1    4    4    0    0 -0.28153869532E+03  0.32280473464E+03  0.76942454271E+02  0.43518626598E+03  0.10566000000E+00 0.  1.
          4    1    4    4  502    0 -0.41691906635E+03 -0.67383431213E+03  0.66216188585E+03  0.10326337933E+04  0.00000000000E+00 0.  1.
         13    1    3    3    0    0  0.59028883104E+03  0.53933293176E+03 -0.13246835840E+04  0.15472903813E+04  0.10566000000E+00 0. -1.
         -4    1    3    3    0  501  0.10816893063E+03 -0.18830335427E+03  0.76038276243E+02  0.23008800542E+03  0.00000000000E+00 0. -1.
<mgrwt>
<rscale>  0 0.12665245E+04</rscale>
<asrwt>0</asrwt>
<pdfrwt beam="1">  1        4 0.21043519E+00 0.12681563E+04</pdfrwt>
<pdfrwt beam="2">  1       -4 0.28882611E+00 0.12648948E+04</pdfrwt>
<totfact> 0.10135120E-01</totfact>
</mgrwt>
</event>
<event>
 8    1  0.2939692E-006  0.1145758E+04  0.7818608E-02  0.8655525E-01
         -4   -1    0    0    0  501 -0.00000000000E+00  0.00000000000E+00  0.18393150436E+04  0.18393150436E+04  0.00000000000E+00 0. -1.
          4   -1    0    0  502    0  0.00000000000E+00 -0.00000000000E+00 -0.16020381203E+04  0.16020381203E+04  0.00000000000E+00 0.  1.
   -9000010    2    1    2    0  501  0.37812085379E+03  0.36846730243E+03  0.14072423469E+04  0.18038000102E+04  0.99730633247E+03 0.  0.
    9000010    2    1    2  502    0 -0.37812085379E+03 -0.36846730243E+03 -0.11699654236E+04  0.16375531537E+04  0.10168666116E+04 0.  0.
        -13    1    4    4    0    0 -0.66484294960E+03 -0.98992422883E+02 -0.42558477423E+03  0.79557404347E+03  0.10566000000E+00 0.  1.
          4    1    4    4  502    0  0.28672209580E+03 -0.26947487955E+03 -0.74438064938E+03  0.84197911025E+03  0.00000000000E+00 0.  1.
         13    1    3    3    0    0 -0.34257332986E+03  0.85594954271E+02  0.40420853313E+03  0.53671923009E+03  0.10566000000E+00 0. -1.
         -4    1    3    3    0  501  0.72069418366E+03  0.28287234816E+03  0.10030338138E+04  0.12670807801E+04  0.00000000000E+00 0. -1.
<mgrwt>
<rscale>  0 0.11370630E+04</rscale>
<asrwt>0</asrwt>
<pdfrwt beam="2">  1        4 0.24646740E+00 0.11457579E+04</pdfrwt>
<pdfrwt beam="1">  1       -4 0.28297155E+00 0.11284341E+04</pdfrwt>
<totfact> 0.86342965E-02</totfact>
</mgrwt>
</event>
<event>
 8    1  0.2939692E-006  0.1163556E+04  0.7818608E-02  0.8651835E-01
          4   -1    0    0  502    0  0.00000000000E+00  0.00000000000E+00  0.12975680447E+04  0.12975680447E+04  0.00000000000E+00 0.  1.
         -4   -1    0    0    0  501 -0.00000000000E+00 -0.00000000000E+00 -0.29159965719E+04  0.29159965719E+04  0.00000000000E+00 0. -1.
   -9000010    2    1    2    0  501 -0.44121069689E+03 -0.13021641263E+03 -0.25093947635E+04  0.27480668737E+04  0.10213649056E+04 0.  0.
    9000010    2    1    2  502    0  0.44121069689E+03  0.13021641263E+03  0.89096623629E+03  0.14654977428E+04  0.10687561026E+04 0.  0.
        -13    1    4    4    0    0 -0.24128185757E+03 -0.23679318494E+03  0.48355559998E+03  0.59001184451E+03  0.10566000000E+00 0.  1.
          4    1    4    4  502    0  0.68249255446E+03  0.36700959757E+03  0.40741063631E+03  0.87548589833E+03  0.00000000000E+00 0.  1.
         13    1    3    3    0    0  0.18816401837E+03  0.28349084911E+03 -0.52573762114E+03  0.62623702923E+03  0.10566000000E+00 0. -1.
         -4    1    3    3    0  501 -0.62937471526E+03 -0.41370726174E+03 -0.19836571424E+04  0.21218298445E+04  0.00000000000E+00 0. -1.
<mgrwt>
<rscale>  0 0.11416635E+04</rscale>
<asrwt>0</asrwt>
<pdfrwt beam="1">  1        4 0.19962586E+00 0.11635561E+04</pdfrwt>
<pdfrwt beam="2">  1       -4 0.44861485E+00 0.11201828E+04</pdfrwt>
<totfact> 0.29550959E-02</totfact>
</mgrwt>
</event>
<event>
 8    1  0.2939692E-006  0.1133168E+04  0.7818608E-02  0.8660162E-01
         -4   -1    0    0    0  501 -0.00000000000E+00  0.00000000000E+00  0.10381163405E+04  0.10381163405E+04  0.00000000000E+00 0. -1.
          4   -1    0    0  502    0  0.00000000000E+00 -0.00000000000E+00 -0.26167365726E+04  0.26167365726E+04  0.00000000000E+00 0.  1.
   -9000010    2    1    2    0  501  0.41999295577E+03 -0.29423539757E+03  0.53902092159E+03  0.12548355390E+04  0.10104949895E+04 0.  0.
    9000010    2    1    2  502    0 -0.41999295577E+03  0.29423539757E+03 -0.21176411536E+04  0.24000173741E+04  0.10063353260E+04 0.  0.
        -13    1    4    4    0    0  0.72764238467E+02  0.50281928216E+03 -0.57545084211E+03  0.76763633823E+03  0.10566000000E+00 0.  1.
          4    1    4    4  502    0 -0.49275719424E+03 -0.20858388460E+03 -0.15421903115E+04  0.16323810359E+04  0.00000000000E+00 0.  1.
         13    1    3    3    0    0 -0.29241249907E+03 -0.13342261393E+03  0.39704362344E+03  0.51083296056E+03  0.10566000000E+00 0. -1.
         -4    1    3    3    0  501  0.71240545484E+03 -0.16081278364E+03  0.14197729815E+03  0.74400257840E+03  0.00000000000E+00 0. -1.
<mgrwt>
<rscale>  0 0.11313121E+04</rscale>
<asrwt>0</asrwt>
<pdfrwt beam="2">  1        4 0.40257485E+00 0.11294598E+04</pdfrwt>
<pdfrwt beam="1">  1       -4 0.15971021E+00 0.11331675E+04</pdfrwt>
<totfact> 0.63185528E-02</totfact>
</mgrwt>
</event>
<event>
 8    1  0.2939692E-006  0.1363156E+04  0.7818608E-02  0.8494836E-01
         -4   -1    0    0    0  501 -0.00000000000E+00  0.00000000000E+00  0.17689647229E+04  0.17689647229E+04  0.00000000000E+00 0. -1.
          4   -1    0    0  502    0  0.00000000000E+00 -0.00000000000E+00 -0.32723315518E+04  0.32723315518E+04  0.00000000000E+00 0.  1.
   -9000010    2    1    2    0  501 -0.62460348111E+03  0.68886112305E+03  0.13280517997E+04  0.18988251194E+04  0.98851206152E+03 0.  0.
    9000010    2    1    2  502    0  0.62460348111E+03 -0.68886112305E+03 -0.28314186286E+04  0.31424711553E+04  0.99676193558E+03 0.  0.
        -13    1    4    4    0    0  0.58325344338E+03  0.77397627668E+02 -0.10685596921E+04  0.12198339226E+04  0.10566000000E+00 0.  1.
          4    1    4    4  502    0  0.41350037730E+02 -0.76625875072E+03 -0.17628589365E+04  0.19226372327E+04  0.00000000000E+00 0.  1.
         13    1    3    3    0    0 -0.15313956476E+03  0.53582902733E+02  0.10466594848E+04  0.10591595452E+04  0.10566000000E+00 0. -1.
         -4    1    3    3    0  501 -0.47146391636E+03  0.63527822031E+03  0.28139231487E+03  0.83966557420E+03  0.00000000000E+00 0. -1.
<mgrwt>
<rscale>  0 0.13601420E+04</rscale>
<asrwt>0</asrwt>
<pdfrwt beam="2">  1        4 0.50343562E+00 0.13631557E+04</pdfrwt>
<pdfrwt beam="1">  1       -4 0.27214842E+00 0.13571349E+04</pdfrwt>
<totfact> 0.10446585E-02</totfact>
</mgrwt>
</event>
<event>
 8    1  0.2939692E-006  0.1074217E+04  0.7818608E-02  0.8726441E-01
         -4   -1    0    0    0  501 -0.00000000000E+00  0.00000000000E+00  0.18744224757E+04  0.18744224757E+04  0.00000000000E+00 0. -1.
          4   -1    0    0  502    0  0.00000000000E+00 -0.00000000000E+00 -0.10550157114E+04  0.10550157114E+04  0.00000000000E+00 0.  1.
   -9000010    2    1    2    0  501  0.16140305944E+01 -0.41123493767E+03  0.13849200483E+04  0.17526966070E+04  0.99238353327E+03 0.  0.
    9000010    2    1    2  502    0 -0.16140305944E+01  0.41123493767E+03 -0.56551328401E+03  0.11767415800E+04  0.94646642452E+03 0.  0.
        -13    1    4    4    0    0 -0.11451472785E+03  0.15412238780E+03 -0.79264768010E+03  0.81557200127E+03  0.10566000000E+00 0.  1.
          4    1    4    4  502    0  0.11290069725E+03  0.25711254988E+03  0.22713439609E+03  0.36116957878E+03  0.00000000000E+00 0.  1.
         13    1    3    3    0    0  0.27252438732E+03 -0.49572437451E+03  0.13537728951E+04  0.14672127520E+04  0.10566000000E+00 0. -1.
         -4    1    3    3    0  501 -0.27091035672E+03  0.84489436834E+02  0.31147153240E+02  0.28548385501E+03  0.00000000000E+00 0. -1.
<mgrwt>
<rscale>  0 0.10528700E+04</rscale>
<asrwt>0</asrwt>
<pdfrwt beam="2">  1        4 0.16231011E+00 0.10319474E+04</pdfrwt>
<pdfrwt beam="1">  1       -4 0.28837269E+00 0.10742169E+04</pdfrwt>
<totfact> 0.14612522E-01</totfact>
</mgrwt>
</event>
<event>
 8    1  0.2939692E-006  0.1480684E+04  0.7818608E-02  0.8431179E-01
         -4   -1    0    0    0  501 -0.00000000000E+00  0.00000000000E+00  0.37302338876E+04  0.37302338876E+04  0.00000000000E+00 0.  1.
          4   -1    0    0  502    0  0.00000000000E+00 -0.00000000000E+00 -0.17061218972E+04  0.17061218972E+04  0.00000000000E+00 0. -1.
   -9000010    2    1    2    0  501 -0.11417242087E+03  0.10522876602E+04 -0.12064214901E+04  0.18826575480E+04  0.98417578201E+03 0.  0.
    9000010    2    1    2  502    0  0.11417242087E+03 -0.10522876602E+04  0.32305334805E+04  0.35536982367E+04  0.10354129261E+04 0.  0.
        -13    1    4    4    0    0  0.38381466788E+03 -0.17847643876E+03  0.18496864141E+04  0.18975002978E+04  0.10566000000E+00 0.  1.
          4    1    4    4  502    0 -0.26964224701E+03 -0.87381122145E+03  0.13808470663E+04  0.16561979389E+04  0.00000000000E+00 0.  1.
         13    1    3    3    0    0 -0.18158702098E+03  0.12744709782E+03  0.12917385412E+03  0.25671483145E+03  0.10566000000E+00 0. -1.
         -4    1    3    3    0  501  0.67414600115E+02  0.92484056240E+03 -0.13355953442E+04  0.16259427166E+04  0.00000000000E+00 0. -1.
<mgrwt>
<rscale>  0 0.14628945E+04</rscale>
<asrwt>0</asrwt>
<pdfrwt beam="2">  1        4 0.26248029E+00 0.14806838E+04</pdfrwt>
<pdfrwt beam="1">  1       -4 0.57388214E+00 0.14453189E+04</pdfrwt>
<totfact> 0.48039105E-03</totfact>
</mgrwt>
</event>
<event>
 8    1  0.2939692E-006  0.1263239E+04  0.7818608E-02  0.8562434E-01
         -4   -1    0    0    0  501 -0.00000000000E+00  0.00000000000E+00  0.81155173321E+03  0.81155173321E+03  0.00000000000E+00 0. -1.
          4   -1    0    0  502    0  0.00000000000E+00 -0.00000000000E+00 -0.24743575250E+04  0.24743575250E+04  0.00000000000E+00 0.  1.
   -9000010    2    1    2    0  501 -0.73877657166E+03  0.13866745727E+03 -0.81949976962E+02  0.12658945879E+04  0.10152604702E+04 0.  0.
    9000010    2    1    2  502    0  0.73877657166E+03 -0.13866745727E+03 -0.15808558148E+04  0.20200146703E+04  0.10081342543E+04 0.  0.
        -13    1    4    4    0    0  0.48139482985E+03 -0.56874682594E+03 -0.10742089778E+04  0.13073403816E+04  0.10566000000E+00 0.  1.
          4    1    4    4  502    0  0.25738174181E+03  0.43007936868E+03 -0.50664683702E+03  0.71267428874E+03  0.00000000000E+00 0.  1.
         13    1    3    3    0    0 -0.70183779072E+03  0.41989143196E+03 -0.33688860945E+03  0.88452193046E+03  0.10566000000E+00 0. -1.
         -4    1    3    3    0  501 -0.36938780933E+02 -0.28122397469E+03  0.25493863248E+03  0.38137265740E+03  0.00000000000E+00 0. -1.
<mgrwt>
<rscale>  0 0.12603759E+04</rscale>
<asrwt>0</asrwt>
<pdfrwt beam="2">  1        4 0.38067038E+00 0.12575191E+04</pdfrwt>
<pdfrwt beam="1">  1       -4 0.12485412E+00 0.12632392E+04</pdfrwt>
<totfact> 0.11082166E-01</totfact>
</mgrwt>
</event>
<event>
 8    1  0.2939692E-006  0.1169622E+04  0.7818608E-02  0.8631016E-01
         -4   -1    0    0    0  501 -0.00000000000E+00  0.00000000000E+00  0.66694711049E+03  0.66694711049E+03  0.00000000000E+00 0. -1.
          4   -1    0    0  502    0  0.00000000000E+00 -0.00000000000E+00 -0.22696543978E+04  0.22696543978E+04  0.00000000000E+00 0.  1.
   -9000010    2    1    2    0  501 -0.38990871308E+03 -0.45054097725E+03 -0.34105654039E+03  0.12183332397E+04  0.10064791814E+04 0.  0.
    9000010    2    1    2  502    0  0.38990871308E+03  0.45054097725E+03 -0.12616507469E+04  0.17182682685E+04  0.10028296260E+04 0.  0.
        -13    1    4    4    0    0  0.41854732566E+03 -0.18046025596E+03 -0.23485429772E+03  0.51274196251E+03  0.10566000000E+00 0.  1.
          4    1    4    4  502    0 -0.28638612576E+02  0.63100123322E+03 -0.10267964492E+04  0.12055263060E+04  0.00000000000E+00 0.  1.
         13    1    3    3    0    0 -0.23338932921E+03  0.71127269016E+02 -0.57572091530E+03  0.62528733464E+03  0.10566000000E+00 0. -1.
         -4    1    3    3    0  501 -0.15651938387E+03 -0.52166824627E+03  0.23466437491E+03  0.59304590509E+03  0.00000000000E+00 0. -1.
<mgrwt>
<rscale>  0 0.11680517E+04</rscale>
<asrwt>0</asrwt>
<pdfrwt beam="2">  1        4 0.34917760E+00 0.11664833E+04</pdfrwt>
<pdfrwt beam="1">  1       -4 0.10260725E+00 0.11696223E+04</pdfrwt>
<totfact> 0.20500523E-01</totfact>
</mgrwt>
</event>
<event>
 8    1  0.2939692E-006  0.1174052E+04  0.7818608E-02  0.8626936E-01
         -4   -1    0    0    0  501 -0.00000000000E+00  0.00000000000E+00  0.13466351552E+04  0.13466351552E+04  0.00000000000E+00 0. -1.
          4   -1    0    0  502    0  0.00000000000E+00 -0.00000000000E+00 -0.18068936279E+04  0.18068936279E+04  0.00000000000E+00 0.  1.
   -9000010    2    1    2    0  501 -0.39920779413E+03  0.47022247785E+03  0.80880927121E+03  0.14256824333E+04  0.99896042056E+03 0.  0.
    9000010    2    1    2  502    0  0.39920779413E+03 -0.47022247785E+03 -0.12690677439E+04  0.17278463498E+04  0.99721814483E+03 0.  0.
        -13    1    4    4    0    0 -0.17244357305E+03 -0.88255505497E+02 -0.95062051351E+03  0.97015730271E+03  0.10566000000E+00 0.  1.
          4    1    4    4  502    0  0.57165136718E+03 -0.38196697235E+03 -0.31844723043E+03  0.75768904713E+03  0.00000000000E+00 0.  1.
         13    1    3    3    0    0 -0.12823510345E+03  0.46870132784E+02 -0.23237532333E+03  0.26951688845E+03  0.10566000000E+00 0. -1.
         -4    1    3    3    0  501 -0.27097269068E+03  0.42335234507E+03  0.10411845945E+04  0.11561655448E+04  0.00000000000E+00 0. -1.
<mgrwt>
<rscale>  0 0.11733107E+04</rscale>
<asrwt>0</asrwt>
<pdfrwt beam="2">  1        4 0.27798363E+00 0.11725699E+04</pdfrwt>
<pdfrwt beam="1">  1       -4 0.20717464E+00 0.11740519E+04</pdfrwt>
<totfact> 0.11108094E-01</totfact>
</mgrwt>
</event>
<event>
 8    1  0.2939692E-006  0.2109116E+04  0.7818608E-02  0.8137723E-01
         -4   -1    0    0    0  501 -0.00000000000E+00  0.00000000000E+00  0.13530126995E+04  0.13530126995E+04  0.00000000000E+00 0.  1.
          4   -1    0    0  502    0  0.00000000000E+00 -0.00000000000E+00 -0.34054179697E+04  0.34054179697E+04  0.00000000000E+00 0. -1.
   -9000010    2    1    2    0  501 -0.50821106027E+03 -0.17814924955E+04 -0.44160141598E+03  0.21548511641E+04  0.10081556109E+04 0.  0.
    9000010    2    1    2  502    0  0.50821106027E+03  0.17814924955E+04 -0.16108038543E+04  0.26035795051E+04  0.86714657877E+03 0.  0.
        -13    1    4    4    0    0  0.47049174134E+03  0.18201941623E+04 -0.16761932138E+04  0.25187482940E+04  0.10566000000E+00 0.  1.
          4    1    4    4  502    0  0.37719318925E+02 -0.38701666839E+02  0.65389359536E+02  0.84831211100E+02  0.00000000000E+00 0.  1.
         13    1    3    3    0    0 -0.43484892210E+03 -0.14802761180E+04 -0.75183430871E+03  0.17162650756E+04  0.10566000000E+00 0. -1.
         -4    1    3    3    0  501 -0.73362138166E+02 -0.30121637743E+03  0.31023289273E+03  0.43858608856E+03  0.00000000000E+00 0. -1.
<mgrwt>
<rscale>  0 0.20770481E+04</rscale>
<asrwt>0</asrwt>
<pdfrwt beam="2">  1        4 0.52391045E+00 0.20454675E+04</pdfrwt>
<pdfrwt beam="1">  1       -4 0.20815580E+00 0.21091163E+04</pdfrwt>
<totfact> 0.11305430E-02</totfact>
</mgrwt>
</event>
<event>
 8    1  0.2939692E-006  0.1101825E+04  0.7818608E-02  0.8746596E-01
          4   -1    0    0  502    0  0.00000000000E+00  0.00000000000E+00  0.14102588570E+04  0.14102588570E+04  0.00000000000E+00 0.  1.
         -4   -1    0    0    0  501 -0.00000000000E+00 -0.00000000000E+00 -0.40823677480E+04  0.40823677480E+04  0.00000000000E+00 0. -1.
   -9000010    2    1    2    0  501 -0.22853370465E+03 -0.37045623480E+03 -0.38305547667E+04  0.39858709495E+04  0.10122015261E+04 0.  0.
    9000010    2    1    2  502    0  0.22853370465E+03  0.37045623480E+03  0.11584458758E+04  0.15067556555E+04  0.85956400711E+03 0.  0.
        -13    1    4    4    0    0  0.14308283037E+03  0.12406392964E+03 -0.10509261797E+03  0.21658491291E+03  0.10566000000E+00 0.  1.
          4    1    4    4  502    0  0.85450874284E+02  0.24639230516E+03  0.12635384937E+04  0.12901707426E+04  0.00000000000E+00 0.  1.
         13    1    3    3    0    0 -0.40283684357E+03 -0.43523779406E+03 -0.37252722382E+04  0.37721827527E+04  0.10566000000E+00 0. -1.
         -4    1    3    3    0  501  0.17430313892E+03  0.64781559268E+02 -0.10528252855E+03  0.21368819686E+03  0.00000000000E+00 0. -1.
<mgrwt>
<rscale>  0 0.10303390E+04</rscale>
<asrwt>0</asrwt>
<pdfrwt beam="1">  1        4 0.21696290E+00 0.96349144E+03</pdfrwt>
<pdfrwt beam="2">  1       -4 0.62805657E+00 0.11018246E+04</pdfrwt>
<totfact> 0.33707185E-03</totfact>
</mgrwt>
</event>
<event>
 8    1  0.2939692E-006  0.2213091E+04  0.7818608E-02  0.8090728E-01
         -4   -1    0    0    0  501 -0.00000000000E+00  0.00000000000E+00  0.19096559166E+04  0.19096559166E+04  0.00000000000E+00 0.  1.
          4   -1    0    0  502    0  0.00000000000E+00 -0.00000000000E+00 -0.26874708747E+04  0.26874708747E+04  0.00000000000E+00 0. -1.
   -9000010    2    1    2    0  501  0.46155560514E+03  0.18998766391E+04 -0.93017476461E+03  0.24006243856E+04  0.10369221416E+04 0.  0.
    9000010    2    1    2  502    0 -0.46155560514E+03 -0.18998766391E+04  0.15235980648E+03  0.21965024056E+04  0.98936569920E+03 0.  0.
        -13    1    4    4    0    0 -0.37106867863E+03 -0.71015424284E+03  0.51133487573E+03  0.95051269281E+03  0.10566000000E+00 0.  1.
          4    1    4    4  502    0 -0.90486926508E+02 -0.11897223963E+04 -0.35897506926E+03  0.12459897128E+04  0.00000000000E+00 0.  1.
         13    1    3    3    0    0  0.50145651198E+03  0.27293482716E+03 -0.12301960820E+03  0.58402558887E+03  0.10566000000E+00 0. -1.
         -4    1    3    3    0  501 -0.39900906840E+02  0.16269418120E+04 -0.80715515641E+03  0.18165987968E+04  0.00000000000E+00 0. -1.
<mgrwt>
<rscale>  0 0.22021243E+04</rscale>
<asrwt>0</asrwt>
<pdfrwt beam="2">  1        4 0.41345706E+00 0.21912118E+04</pdfrwt>
<pdfrwt beam="1">  1       -4 0.29379322E+00 0.22130911E+04</pdfrwt>
<totfact> 0.21962523E-02</totfact>
</mgrwt>
</event>
<event>
 8    1  0.2939692E-006  0.1064389E+04  0.7818608E-02  0.8727216E-01
          4   -1    0    0  502    0  0.00000000000E+00  0.00000000000E+00  0.70845911672E+03  0.70845911672E+03  0.00000000000E+00 0.  1.
         -4   -1    0    0    0  501 -0.00000000000E+00 -0.00000000000E+00 -0.21270714769E+04  0.21270714769E+04  0.00000000000E+00 0. -1.
   -9000010    2    1    2    0  501  0.29313671712E+03  0.89873796963E+02 -0.14337027178E+04  0.17710346441E+04  0.99350580947E+03 0.  0.
    9000010    2    1    2  502    0 -0.29313671712E+03 -0.89873796963E+02  0.15090357640E+02  0.10644959495E+04  0.10192730121E+04 0.  0.
        -13    1    4    4    0    0  0.20360298458E+03  0.29349431651E+03  0.20124666332E+03  0.40999185335E+03  0.10566000000E+00 0.  1.
          4    1    4    4  502    0 -0.49673970169E+03 -0.38336811348E+03 -0.18615630568E+03  0.65450409610E+03  0.00000000000E+00 0.  1.
         13    1    3    3    0    0  0.22434023405E+03 -0.32817914071E+03 -0.15966139041E+03  0.42839451416E+03  0.10566000000E+00 0. -1.
         -4    1    3    3    0  501  0.68796483063E+02  0.41805293767E+03 -0.12740413274E+04  0.13426401300E+04  0.00000000000E+00 0. -1.
<mgrwt>
<rscale>  0 0.10519925E+04</rscale>
<asrwt>0</asrwt>
<pdfrwt beam="1">  1        4 0.10899371E+00 0.10643890E+04</pdfrwt>
<pdfrwt beam="2">  1       -4 0.32724176E+00 0.10397405E+04</pdfrwt>
<totfact> 0.21534419E-01</totfact>
</mgrwt>
</event>
<event>
 8    1  0.2939692E-006  0.1168095E+04  0.7818608E-02  0.8635486E-01
          4   -1    0    0  502    0  0.00000000000E+00  0.00000000000E+00  0.47778923549E+03  0.47778923549E+03  0.00000000000E+00 0.  1.
         -4   -1    0    0    0  501 -0.00000000000E+00 -0.00000000000E+00 -0.28418973950E+04  0.28418973950E+04  0.00000000000E+00 0. -1.
   -9000010    2    1    2    0  501 -0.55465905450E+03 -0.16276343888E+03 -0.12936552223E+04  0.17352893514E+04  0.10017717780E+04 0.  0.
    9000010    2    1    2  502    0  0.55465905450E+03  0.16276343888E+03 -0.10704529373E+04  0.15843972791E+04  0.10150402176E+04 0.  0.
        -13    1    4    4    0    0  0.38618231497E+03  0.40293828017E+03 -0.11518478441E+04  0.12799412116E+04  0.10566000000E+00 0.  1.
          4    1    4    4  502    0  0.16847673953E+03 -0.24017484129E+03  0.81394906880E+02  0.30445606746E+03  0.00000000000E+00 0.  1.
         13    1    3    3    0    0 -0.78549651559E+03 -0.31415278793E+03 -0.11391869152E+04  0.14189586284E+04  0.10566000000E+00 0. -1.
         -4    1    3    3    0  501  0.23083746110E+03  0.15138934904E+03 -0.15446830711E+03  0.31633072306E+03  0.00000000000E+00 0. -1.
<mgrwt>
<rscale>  0 0.11623248E+04</rscale>
<asrwt>0</asrwt>
<pdfrwt beam="1">  1        4 0.73506035E-01 0.11680947E+04</pdfrwt>
<pdfrwt beam="2">  1       -4 0.43721499E+00 0.11565835E+04</pdfrwt>
<totfact> 0.18121938E-01</totfact>
</mgrwt>
</event>
<event>
 8    1  0.2939692E-006  0.1018062E+04  0.7818608E-02  0.8765210E-01
         -4   -1    0    0    0  501 -0.00000000000E+00  0.00000000000E+00  0.11782259470E+04  0.11782259470E+04  0.00000000000E+00 0. -1.
          4   -1    0    0  502    0  0.00000000000E+00 -0.00000000000E+00 -0.22213456258E+04  0.22213456258E+04  0.00000000000E+00 0.  1.
   -9000010    2    1    2    0  501  0.35899554429E+02 -0.18449496253E+03  0.80458770941E+03  0.12976176723E+04  0.10005613785E+04 0.  0.
    9000010    2    1    2  502    0 -0.35899554429E+02  0.18449496253E+03 -0.18477073882E+04  0.21019539005E+04  0.98430708542E+03 0.  0.
        -13    1    4    4    0    0 -0.42934900705E+03  0.72520081989E+02 -0.37876650642E+03  0.57711680768E+03  0.10566000000E+00 0.  1.
          4    1    4    4  502    0  0.39344945263E+03  0.11197488054E+03 -0.14689408818E+04  0.15248370929E+04  0.00000000000E+00 0.  1.
         13    1    3    3    0    0  0.49880379214E+03  0.15025150062E+02  0.28951469618E+03  0.57693132057E+03  0.10566000000E+00 0. -1.
         -4    1    3    3    0  501 -0.46290423771E+03 -0.19952011259E+03  0.51507301323E+03  0.72068635174E+03  0.00000000000E+00 0. -1.
<mgrwt>
<rscale>  0 0.10100452E+04</rscale>
<asrwt>0</asrwt>
<pdfrwt beam="2">  1        4 0.34174548E+00 0.10020916E+04</pdfrwt>
<pdfrwt beam="1">  1       -4 0.18126553E+00 0.10180620E+04</pdfrwt>
<totfact> 0.89587305E-02</totfact>
</mgrwt>
</event>
<event>
 8    1  0.2939692E-006  0.1105136E+04  0.7818608E-02  0.8686412E-01
          4   -1    0    0  502    0  0.00000000000E+00  0.00000000000E+00  0.76745839508E+03  0.76745839508E+03  0.00000000000E+00 0.  1.
         -4   -1    0    0    0  501 -0.00000000000E+00 -0.00000000000E+00 -0.29219401102E+04  0.29219401102E+04  0.00000000000E+00 0. -1.
   -9000010    2    1    2    0  501 -0.11285900666E+03 -0.45572563400E+03 -0.23326963767E+04  0.25812397660E+04  0.10004515654E+04 0.  0.
    9000010    2    1    2  502    0  0.11285900666E+03  0.45572563400E+03  0.17821466157E+03  0.11081587393E+04  0.98784225314E+03 0.  0.
        -13    1    4    4    0    0  0.37778937022E+03  0.39484867198E+03 -0.25000607088E+03  0.60094369841E+03  0.10566000000E+00 0.  1.
          4    1    4    4  502    0 -0.26493036357E+03  0.60876962024E+02  0.42822073244E+03  0.50721504092E+03  0.00000000000E+00 0.  1.
         13    1    3    3    0    0 -0.34284887068E+03 -0.63904311588E+03 -0.20451451734E+04  0.21699171052E+04  0.10566000000E+00 0. -1.
         -4    1    3    3    0  501  0.22998986402E+03  0.18331748188E+03 -0.28755120330E+03  0.41132266073E+03  0.00000000000E+00 0. -1.
<mgrwt>
<rscale>  0 0.10994207E+04</rscale>
<asrwt>0</asrwt>
<pdfrwt beam="1">  1        4 0.11807052E+00 0.10937346E+04</pdfrwt>
<pdfrwt beam="2">  1       -4 0.44952925E+00 0.11051363E+04</pdfrwt>
<totfact> 0.63538274E-02</totfact>
</mgrwt>
</event>
<event>
 8    1  0.2939692E-006  0.1163901E+04  0.7818608E-02  0.8634665E-01
         -4   -1    0    0    0  501 -0.00000000000E+00  0.00000000000E+00  0.77243104384E+03  0.77243104384E+03  0.00000000000E+00 0. -1.
          4   -1    0    0  502    0  0.00000000000E+00 -0.00000000000E+00 -0.17646869451E+04  0.17646869451E+04  0.00000000000E+00 0.  1.
   -9000010    2    1    2    0  501  0.51974973510E+03 -0.28950944420E+03 -0.38956522382E+03  0.12273661802E+04  0.10003555224E+04 0.  0.
    9000010    2    1    2  502    0 -0.51974973510E+03  0.28950944420E+03 -0.60269067741E+03  0.13097518087E+04  0.99912874167E+03 0.  0.
        -13    1    4    4    0    0 -0.71964658907E+03 -0.77344442957E+02 -0.49949826415E+03  0.87941566001E+03  0.10566000000E+00 0.  1.
          4    1    4    4  502    0  0.19989685397E+03  0.36685388715E+03 -0.10319241326E+03  0.43033614873E+03  0.00000000000E+00 0.  1.
         13    1    3    3    0    0  0.40351910991E+03 -0.51946277677E+03 -0.60333776108E+03  0.89257252569E+03  0.10566000000E+00 0. -1.
         -4    1    3    3    0  501  0.11623062519E+03  0.22995333257E+03  0.21377253727E+03  0.33479365448E+03  0.00000000000E+00 0. -1.
<mgrwt>
<rscale>  0 0.11633743E+04</rscale>
<asrwt>0</asrwt>
<pdfrwt beam="2">  1        4 0.27149029E+00 0.11628473E+04</pdfrwt>
<pdfrwt beam="1">  1       -4 0.11883555E+00 0.11639015E+04</pdfrwt>
<totfact> 0.25986450E-01</totfact>
</mgrwt>
</event>
<event>
 8    1  0.2939692E-006  0.1082703E+04  0.7818608E-02  0.8726677E-01
         -4   -1    0    0    0  501 -0.00000000000E+00  0.00000000000E+00  0.84784285945E+03  0.84784285945E+03  0.00000000000E+00 0. -1.
          4   -1    0    0  502    0  0.00000000000E+00 -0.00000000000E+00 -0.36618934105E+04  0.36618934105E+04  0.00000000000E+00 0.  1.
   -9000010    2    1    2    0  501 -0.29162416748E+01 -0.39595146842E+03  0.38645689711E+03  0.11496067282E+04  0.10077006631E+04 0.  0.
    9000010    2    1    2  502    0  0.29162416748E+01  0.39595146842E+03 -0.32005074482E+04  0.33601295418E+04  0.94362945158E+03 0.  0.
        -13    1    4    4    0    0  0.12245359071E+03  0.66526160879E+03 -0.16750642158E+04  0.18064905281E+04  0.10566000000E+00 0.  1.
          4    1    4    4  502    0 -0.11953734903E+03 -0.26931014037E+03 -0.15254432324E+04  0.15536390137E+04  0.00000000000E+00 0.  1.
         13    1    3    3    0    0 -0.12388770589E+03 -0.67678974346E+03  0.46924101337E+03  0.83281430122E+03  0.10566000000E+00 0. -1.
         -4    1    3    3    0  501  0.12097146421E+03  0.28083827503E+03 -0.82784116262E+02  0.31679242697E+03  0.00000000000E+00 0. -1.
<mgrwt>
<rscale>  0 0.10526028E+04</rscale>
<asrwt>0</asrwt>
<pdfrwt beam="2">  1        4 0.56336822E+00 0.10233390E+04</pdfrwt>
<pdfrwt beam="1">  1       -4 0.13043736E+00 0.10827034E+04</pdfrwt>
<totfact> 0.15415300E-02</totfact>
</mgrwt>
</event>
<event>
 8    1  0.2939692E-006  0.1159982E+04  0.7818608E-02  0.8638315E-01
          4   -1    0    0  502    0  0.00000000000E+00  0.00000000000E+00  0.16647015229E+04  0.16647015229E+04  0.00000000000E+00 0.  1.
         -4   -1    0    0    0  501 -0.00000000000E+00 -0.00000000000E+00 -0.11441237739E+04  0.11441237739E+04  0.00000000000E+00 0. -1.
   -9000010    2    1    2    0  501  0.32925316230E+03 -0.49053893405E+03 -0.50279361666E+03  0.12619422591E+04  0.99531942286E+03 0.  0.
    9000010    2    1    2  502    0 -0.32925316230E+03  0.49053893405E+03  0.10233713656E+04  0.15468830378E+04  0.99825953034E+03 0.  0.
        -13    1    4    4    0    0 -0.51935024541E+03 -0.30762983236E+02  0.78775670493E+03  0.94405067442E+03  0.10566000000E+00 0.  1.
          4    1    4    4  502    0  0.19009708312E+03  0.52130191729E+03  0.23561466067E+03  0.60283236335E+03  0.00000000000E+00 0.  1.
         13    1    3    3    0    0  0.39063820810E+03 -0.21267725041E+03 -0.75855227408E+03  0.87933576417E+03  0.10566000000E+00 0. -1.
         -4    1    3    3    0  501 -0.61385045803E+02 -0.27786168364E+03  0.25575865742E+03  0.38260649489E+03  0.00000000000E+00 0. -1.
<mgrwt>
<rscale>  0 0.11587167E+04</rscale>
<asrwt>0</asrwt>
<pdfrwt beam="1">  1        4 0.25610793E+00 0.11599820E+04</pdfrwt>
<pdfrwt beam="2">  1       -4 0.17601904E+00 0.11574527E+04</pdfrwt>
<totfact> 0.15567870E-01</totfact>
</mgrwt>
</event>
<event>
 8    1  0.2939692E-006  0.1023411E+04  0.7818608E-02  0.8759088E-01
          4   -1    0    0  502    0  0.00000000000E+00  0.00000000000E+00  0.48420839569E+03  0.48420839569E+03  0.00000000000E+00 0.  1.
         -4   -1    0    0    0  501 -0.00000000000E+00 -0.00000000000E+00 -0.27848983666E+04  0.27848983666E+04  0.00000000000E+00 0. -1.
   -9000010    2    1    2    0  501 -0.18778947939E+03 -0.79330876353E+02 -0.19342821047E+04  0.21820807808E+04  0.98917692902E+03 0.  0.
    9000010    2    1    2  502    0  0.18778947939E+03  0.79330876353E+02 -0.36640786627E+03  0.10870259815E+04  0.10029020309E+04 0.  0.
        -13    1    4    4    0    0  0.51302471497E+03 -0.20842852708E+03 -0.63105914970E+02  0.55733219604E+03  0.10566000000E+00 0.  1.
          4    1    4    4  502    0 -0.32523523559E+03  0.28775940343E+03 -0.30330195130E+03  0.52969378550E+03  0.00000000000E+00 0.  1.
         13    1    3    3    0    0  0.13834066597E+03 -0.42347721584E+03 -0.13930200990E+04  0.14625238800E+04  0.10566000000E+00 0. -1.
         -4    1    3    3    0  501 -0.32613014535E+03  0.34414633948E+03 -0.54126200570E+03  0.71955690081E+03  0.00000000000E+00 0. -1.
<mgrwt>
<rscale>  0 0.10166659E+04</rscale>
<asrwt>0</asrwt>
<pdfrwt beam="1">  1        4 0.74493600E-01 0.10234113E+04</pdfrwt>
<pdfrwt beam="2">  1       -4 0.42844590E+00 0.10099650E+04</pdfrwt>
<totfact> 0.19490417E-01</totfact>
</mgrwt>
</event>
<event>
 8    1  0.2939692E-006  0.1126955E+04  0.7818608E-02  0.8696953E-01
         -4   -1    0    0    0  501 -0.00000000000E+00  0.00000000000E+00  0.21933699545E+04  0.21933699545E+04  0.00000000000E+00 0. -1.
          4   -1    0    0  502    0  0.00000000000E+00 -0.00000000000E+00 -0.55437434187E+03  0.55437434187E+03  0.00000000000E+00 0.  1.
   -9000010    2    1    2    0  501 -0.12072833939E+03 -0.50657152564E+03  0.10745165843E+04  0.15571173148E+04  0.99941903105E+03 0.  0.
    9000010    2    1    2  502    0  0.12072833939E+03  0.50657152564E+03  0.56447902832E+03  0.11906269816E+04  0.90981646132E+03 0.  0.
        -13    1    4    4    0    0  0.48202303614E+03  0.20081408524E+03  0.48111783311E+03  0.71003301663E+03  0.10566000000E+00 0.  1.
          4    1    4    4  502    0 -0.36129469675E+03  0.30575744040E+03  0.83361195203E+02  0.48059396493E+03  0.00000000000E+00 0.  1.
         13    1    3    3    0    0 -0.49809227858E+03 -0.55507579293E+03  0.73718300548E+03  0.10486390459E+04  0.10566000000E+00 0. -1.
         -4    1    3    3    0  501  0.37736393919E+03  0.48504267297E+02  0.33733357886E+03  0.50847826893E+03  0.00000000000E+00 0. -1.
<mgrwt>
<rscale>  0 0.10869222E+04</rscale>
<asrwt>0</asrwt>
<pdfrwt beam="2">  1        4 0.85288362E-01 0.10483110E+04</pdfrwt>
<pdfrwt beam="1">  1       -4 0.33744153E+00 0.11269554E+04</pdfrwt>
<totfact> 0.32173853E-01</totfact>
</mgrwt>
</event>
<event>
 8    1  0.2939692E-006  0.1338409E+04  0.7818608E-02  0.8600151E-01
          4   -1    0    0  502    0  0.00000000000E+00  0.00000000000E+00  0.25664557201E+04  0.25664557201E+04  0.00000000000E+00 0.  1.
         -4   -1    0    0    0  501 -0.00000000000E+00 -0.00000000000E+00 -0.15947870295E+04  0.15947870295E+04  0.00000000000E+00 0. -1.
   -9000010    2    1    2    0  501 -0.41157297001E+03 -0.32824973988E+03 -0.11926117428E+04  0.16165526195E+04  0.95591809327E+03 0.  0.
    9000010    2    1    2  502    0  0.41157297001E+03  0.32824973988E+03  0.21642804334E+04  0.25446901302E+04  0.12305274733E+04 0.  0.
        -13    1    4    4    0    0 -0.18210310779E+03  0.61647014707E+03  0.13603897492E+04  0.15046119981E+04  0.10566000000E+00 0.  1.
          4    1    4    4  502    0  0.59367607781E+03 -0.28822040719E+03  0.80389068428E+03  0.10400781320E+04  0.00000000000E+00 0.  1.
         13    1    3    3    0    0 -0.33702642894E+03 -0.65872087565E+03 -0.92680937998E+03  0.11859492585E+04  0.10566000000E+00 0. -1.
         -4    1    3    3    0  501 -0.74546541077E+02  0.33047113577E+03 -0.26580236282E+03  0.43060336093E+03  0.00000000000E+00 0. -1.
<mgrwt>
<rscale>  0 0.12085510E+04</rscale>
<asrwt>0</asrwt>
<pdfrwt beam="1">  1        4 0.39483934E+00 0.13384088E+04</pdfrwt>
<pdfrwt beam="2">  1       -4 0.24535185E+00 0.10912926E+04</pdfrwt>
<totfact> 0.37693875E-02</totfact>
</mgrwt>
</event>
<event>
 8    1  0.2939692E-006  0.1196277E+04  0.7818608E-02  0.8611040E-01
         -4   -1    0    0    0  501 -0.00000000000E+00  0.00000000000E+00  0.16075248479E+04  0.16075248479E+04  0.00000000000E+00 0. -1.
          4   -1    0    0  502    0  0.00000000000E+00 -0.00000000000E+00 -0.19112071195E+04  0.19112071195E+04  0.00000000000E+00 0.  1.
   -9000010    2    1    2    0  501 -0.19568653804E+03 -0.59358708066E+03  0.11362537623E+04  0.16467023476E+04  0.10148483462E+04 0.  0.
    9000010    2    1    2  502    0  0.19568653804E+03  0.59358708066E+03 -0.14399360339E+04  0.18720296198E+04  0.10200197411E+04 0.  0.
        -13    1    4    4    0    0  0.40357984019E+03 -0.13249289782E+03 -0.67153886837E+03  0.79460400092E+03  0.10566000000E+00 0.  1.
          4    1    4    4  502    0 -0.20789330216E+03  0.72607997848E+03 -0.76839716548E+03  0.10774256189E+04  0.00000000000E+00 0.  1.
         13    1    3    3    0    0  0.60506713269E+02 -0.78981861127E+03  0.50977065428E+03  0.94198759662E+03  0.10566000000E+00 0. -1.
         -4    1    3    3    0  501 -0.25619325131E+03  0.19623153061E+03  0.62648310800E+03  0.70471475096E+03  0.00000000000E+00 0. -1.
<mgrwt>
<rscale>  0 0.11940720E+04</rscale>
<asrwt>0</asrwt>
<pdfrwt beam="2">  1        4 0.29403186E+00 0.11962772E+04</pdfrwt>
<pdfrwt beam="1">  1       -4 0.24731152E+00 0.11918708E+04</pdfrwt>
<totfact> 0.79914847E-02</totfact>
</mgrwt>
</event>
<event>
 8    1  0.2939692E-006  0.1391905E+04  0.7818608E-02  0.8480978E-01
          4   -1    0    0  502    0  0.00000000000E+00  0.00000000000E+00  0.11290112713E+04  0.11290112713E+04  0.00000000000E+00 0.  1.
         -4   -1    0    0    0  501 -0.00000000000E+00 -0.00000000000E+00 -0.18529561362E+04  0.18529561362E+04  0.00000000000E+00 0. -1.
   -9000010    2    1    2    0  501 -0.15178175131E+03  0.90553714699E+03 -0.80494674915E+03  0.16078991915E+04  0.10461191693E+04 0.  0.
    9000010    2    1    2  502    0  0.15178175131E+03 -0.90553714699E+03  0.81001884265E+02  0.13740682160E+04  0.10190519772E+04 0.  0.
        -13    1    4    4    0    0  0.49454048830E+03 -0.24296324757E+03 -0.18629898694E+03  0.58164315344E+03  0.10566000000E+00 0.  1.
          4    1    4    4  502    0 -0.34275873700E+03 -0.66257389942E+03  0.26730087120E+03  0.79242506253E+03  0.00000000000E+00 0.  1.
         13    1    3    3    0    0 -0.59187925952E+03  0.54637074050E+03 -0.34204651970E+03  0.87512163539E+03  0.10566000000E+00 0. -1.
         -4    1    3    3    0  501  0.44009750822E+03  0.35916640650E+03 -0.46290022945E+03  0.73277755609E+03  0.00000000000E+00 0. -1.
<mgrwt>
<rscale>  0 0.13817550E+04</rscale>
<asrwt>0</asrwt>
<pdfrwt beam="1">  1        4 0.17369404E+00 0.13716786E+04</pdfrwt>
<pdfrwt beam="2">  1       -4 0.28507017E+00 0.13919054E+04</pdfrwt>
<totfact> 0.13329718E-01</totfact>
</mgrwt>
</event>
<event>
 8    1  0.2939692E-006  0.1082801E+04  0.7818608E-02  0.8704311E-01
         -4   -1    0    0    0  501 -0.00000000000E+00  0.00000000000E+00  0.29531297884E+04  0.29531297884E+04  0.00000000000E+00 0. -1.
          4   -1    0    0  502    0  0.00000000000E+00 -0.00000000000E+00 -0.17090939780E+04  0.17090939780E+04  0.00000000000E+00 0.  1.
   -9000010    2    1    2    0  501  0.25777941528E+03  0.30370848542E+03  0.26676523232E+04  0.28790323393E+04  0.10068610739E+04 0.  0.
    9000010    2    1    2  502    0 -0.25777941528E+03 -0.30370848542E+03 -0.14236165128E+04  0.17831914271E+04  0.99719537660E+03 0.  0.
        -13    1    4    4    0    0  0.36418192184E+03 -0.34201316139E+02 -0.71164785948E+03  0.80015054164E+03  0.10566000000E+00 0.  1.
          4    1    4    4  502    0 -0.62196133713E+03 -0.26950716928E+03 -0.71196865329E+03  0.98304088544E+03  0.00000000000E+00 0.  1.
         13    1    3    3    0    0 -0.36761071668E+03  0.22055293112E+03  0.13813282195E+04  0.14463225421E+04  0.10566000000E+00 0. -1.
         -4    1    3    3    0  501  0.62539013196E+03  0.83155554304E+02  0.12863241037E+04  0.14327097972E+04  0.00000000000E+00 0. -1.
<mgrwt>
<rscale>  0 0.10783008E+04</rscale>
<asrwt>0</asrwt>
<pdfrwt beam="2">  1        4 0.26293753E+00 0.10738192E+04</pdfrwt>
<pdfrwt beam="1">  1       -4 0.45432766E+00 0.10828011E+04</pdfrwt>
<totfact> 0.19441602E-02</totfact>
</mgrwt>
</event>
<event>
 8    1  0.2939692E-006  0.1073314E+04  0.7818608E-02  0.8717259E-01
          4   -1    0    0  502    0  0.00000000000E+00  0.00000000000E+00  0.19677886076E+04  0.19677886076E+04  0.00000000000E+00 0.  1.
         -4   -1    0    0    0  501 -0.00000000000E+00 -0.00000000000E+00 -0.15040012774E+04  0.15040012774E+04  0.00000000000E+00 0. -1.
   -9000010    2    1    2    0  501  0.36822657488E+03 -0.48406148936E+02 -0.11318116045E+04  0.15598079262E+04  0.10070100759E+04 0.  0.
    9000010    2    1    2  502    0 -0.36822657488E+03  0.48406148936E+02  0.15955989347E+04  0.19119819588E+04  0.98580174716E+03 0.  0.
        -13    1    4    4    0    0 -0.19523949594E+03 -0.46813646810E+03  0.71872699232E+03  0.87968102980E+03  0.10566000000E+00 0.  1.
          4    1    4    4  502    0 -0.17298707893E+03  0.51654261704E+03  0.87687194239E+03  0.10323009290E+04  0.00000000000E+00 0.  1.
         13    1    3    3    0    0  0.66382188873E+03 -0.21885992949E+03 -0.92997392554E+03  0.11633618019E+04  0.10566000000E+00 0. -1.
         -4    1    3    3    0  501 -0.29559531385E+03  0.17045378055E+03 -0.20183767892E+03  0.39644612435E+03  0.00000000000E+00 0. -1.
<mgrwt>
<rscale>  0 0.10633314E+04</rscale>
<asrwt>0</asrwt>
<pdfrwt beam="1">  1        4 0.30273671E+00 0.10534415E+04</pdfrwt>
<pdfrwt beam="2">  1       -4 0.23138481E+00 0.10733141E+04</pdfrwt>
<totfact> 0.83520162E-02</totfact>
</mgrwt>
</event>
<event>
 8    1  0.2939692E-006  0.2005087E+04  0.7818608E-02  0.8166483E-01
          4   -1    0    0  502    0  0.00000000000E+00  0.00000000000E+00  0.27633831549E+04  0.27633831549E+04  0.00000000000E+00 0.  1.
         -4   -1    0    0    0  501 -0.00000000000E+00 -0.00000000000E+00 -0.18574564008E+04  0.18574564008E+04  0.00000000000E+00 0. -1.
   -9000010    2    1    2    0  501  0.14854292568E+04  0.89474275951E+03 -0.62334640314E+03  0.20997459907E+04  0.10066319112E+04 0.  0.
    9000010    2    1    2  502    0 -0.14854292568E+04 -0.89474275951E+03  0.15292731572E+04  0.25210935650E+04  0.10050729783E+04 0.  0.
        -13    1    4    4    0    0 -0.99055494873E+03 -0.58122458487E+03  0.34391709865E+03  0.11988745165E+04  0.10566000000E+00 0.  1.
          4    1    4    4  502    0 -0.49487430804E+03 -0.31351817465E+03  0.11853560585E+04  0.13222190485E+04  0.00000000000E+00 0.  1.
         13    1    3    3    0    0  0.12532698495E+04  0.31943342026E+03 -0.70664213284E+03  0.14737931132E+04  0.10566000000E+00 0. -1.
         -4    1    3    3    0  501  0.23215940729E+03  0.57530933926E+03  0.83295729699E+02  0.62595287747E+03  0.00000000000E+00 0. -1.
<mgrwt>
<rscale>  0 0.20046955E+04</rscale>
<asrwt>0</asrwt>
<pdfrwt beam="1">  1        4 0.42513587E+00 0.20043045E+04</pdfrwt>
<pdfrwt beam="2">  1       -4 0.28576252E+00 0.20050867E+04</pdfrwt>
<totfact> 0.20924284E-02</totfact>
</mgrwt>
</event>
<event>
 8    1  0.2939692E-006  0.1098089E+04  0.7818608E-02  0.8700159E-01
          4   -1    0    0  502    0  0.00000000000E+00  0.00000000000E+00  0.26357716183E+04  0.26357716183E+04  0.00000000000E+00 0.  1.
         -4   -1    0    0    0  501 -0.00000000000E+00 -0.00000000000E+00 -0.14901815922E+04  0.14901815922E+04  0.00000000000E+00 0. -1.
   -9000010    2    1    2    0  501 -0.42584121992E+03 -0.83868688607E+02 -0.11523572942E+04  0.15917682713E+04  0.10086744739E+04 0.  0.
    9000010    2    1    2  502    0  0.42584121992E+03  0.83868688607E+02  0.22979473203E+04  0.25341849392E+04  0.97629745354E+03 0.  0.
        -13    1    4    4    0    0  0.55733704173E+03  0.37198629117E+03  0.19584022491E+04  0.20698641886E+04  0.10566000000E+00 0.  1.
          4    1    4    4  502    0 -0.13149582180E+03 -0.28811760257E+03  0.33954507120E+03  0.46432075060E+03  0.00000000000E+00 0.  1.
         13    1    3    3    0    0  0.20347378194E+03  0.16496296911E+03 -0.77279336567E+01  0.26205742355E+03  0.10566000000E+00 0. -1.
         -4    1    3    3    0  501 -0.62931500187E+03 -0.24883165772E+03 -0.11446293605E+04  0.13297108477E+04  0.00000000000E+00 0. -1.
<mgrwt>
<rscale>  0 0.10831552E+04</rscale>
<asrwt>0</asrwt>
<pdfrwt beam="1">  1        4 0.40550332E+00 0.10684247E+04</pdfrwt>
<pdfrwt beam="2">  1       -4 0.22925871E+00 0.10980887E+04</pdfrwt>
<totfact> 0.38193608E-02</totfact>
</mgrwt>
</event>
<event>
 8    1  0.2939692E-006  0.1353449E+04  0.7818608E-02  0.8501321E-01
         -4   -1    0    0    0  501 -0.00000000000E+00  0.00000000000E+00  0.13977458323E+04  0.13977458323E+04  0.00000000000E+00 0. -1.
          4   -1    0    0  502    0  0.00000000000E+00 -0.00000000000E+00 -0.16091594792E+04  0.16091594792E+04  0.00000000000E+00 0.  1.
   -9000010    2    1    2    0  501  0.74201472062E+03  0.51685434672E+03  0.54898186962E+03  0.14544799098E+04  0.99820160966E+03 0.  0.
    9000010    2    1    2  502    0 -0.74201472062E+03 -0.51685434672E+03 -0.76039551654E+03  0.15524254016E+04  0.10070248382E+04 0.  0.
        -13    1    4    4    0    0 -0.54848931743E+03 -0.32390810919E+03  0.10439089156E+03  0.64548777211E+03  0.10566000000E+00 0.  1.
          4    1    4    4  502    0 -0.19352540318E+03 -0.19294623753E+03 -0.86478640809E+03  0.90693762954E+03  0.00000000000E+00 0.  1.
         13    1    3    3    0    0  0.95527021389E+03  0.54967731525E+03  0.33821754355E+03  0.11528562141E+04  0.10566000000E+00 0. -1.
         -4    1    3    3    0  501 -0.21325549327E+03 -0.32822968536E+02  0.21076432607E+03  0.30162369572E+03  0.00000000000E+00 0. -1.
<mgrwt>
<rscale>  0 0.13501687E+04</rscale>
<asrwt>0</asrwt>
<pdfrwt beam="2">  1        4 0.24756300E+00 0.13534487E+04</pdfrwt>
<pdfrwt beam="1">  1       -4 0.21503782E+00 0.13468967E+04</pdfrwt>
<totfact> 0.12401287E-01</totfact>
</mgrwt>
</event>
<event>
 8    1  0.2939692E-006  0.1210940E+04  0.7818608E-02  0.8606481E-01
          4   -1    0    0  502    0  0.00000000000E+00  0.00000000000E+00  0.98010765589E+03  0.98010765589E+03  0.00000000000E+00 0.  1.
         -4   -1    0    0    0  501 -0.00000000000E+00 -0.00000000000E+00 -0.17519361574E+04  0.17519361574E+04  0.00000000000E+00 0. -1.
   -9000010    2    1    2    0  501 -0.54202914007E+03  0.35434201127E+03 -0.93717604589E+03  0.15312326950E+04  0.10232403313E+04 0.  0.
    9000010    2    1    2  502    0  0.54202914007E+03 -0.35434201127E+03  0.16534754437E+03  0.12008111183E+04  0.99762401825E+03 0.  0.
        -13    1    4    4    0    0  0.26018165411E+03 -0.61492221808E+03 -0.17231971079E+03  0.68957807485E+03  0.10566000000E+00 0.  1.
          4    1    4    4  502    0  0.28184748596E+03  0.26058020681E+03  0.33766725515E+03  0.51123304346E+03  0.00000000000E+00 0.  1.
         13    1    3    3    0    0  0.19040410685E+03 -0.13090486104E+03  0.20041186545E+02  0.23192987490E+03  0.10566000000E+00 0. -1.
         -4    1    3    3    0  501 -0.73243324691E+03  0.48524687231E+03 -0.95721723244E+03  0.12993028201E+04  0.00000000000E+00 0. -1.
<mgrwt>
<rscale>  0 0.12001077E+04</rscale>
<asrwt>0</asrwt>
<pdfrwt beam="1">  1        4 0.15078579E+00 0.11893727E+04</pdfrwt>
<pdfrwt beam="2">  1       -4 0.26952864E+00 0.12109396E+04</pdfrwt>
<totfact> 0.18008883E-01</totfact>
</mgrwt>
</event>
<event>
 8    1  0.2939692E-006  0.1136305E+04  0.7818608E-02  0.8658483E-01
         -4   -1    0    0    0  501 -0.00000000000E+00  0.00000000000E+00  0.18894866395E+04  0.18894866395E+04  0.00000000000E+00 0. -1.
          4   -1    0    0  502    0  0.00000000000E+00 -0.00000000000E+00 -0.23657935864E+04  0.23657935864E+04  0.00000000000E+00 0.  1.
   -9000010    2    1    2    0  501 -0.54326867715E+03  0.10397325410E+03  0.15581198862E+04  0.19250266565E+04  0.98592025811E+03 0.  0.
    9000010    2    1    2  502    0  0.54326867715E+03 -0.10397325410E+03 -0.20344268331E+04  0.23302535694E+04  0.99259148959E+03 0.  0.
        -13    1    4    4    0    0  0.53218185634E+03 -0.26535699078E+03 -0.47131830751E+03  0.75879695501E+03  0.10566000000E+00 0.  1.
          4    1    4    4  502    0  0.11086820813E+02  0.16138373668E+03 -0.15631085256E+04  0.15714566144E+04  0.00000000000E+00 0.  1.
         13    1    3    3    0    0 -0.56652213324E+03  0.27658402611E+03  0.38424746782E+03  0.73830358162E+03  0.10566000000E+00 0. -1.
         -4    1    3    3    0  501  0.23253456087E+02 -0.17261077201E+03  0.11738724184E+04  0.11867230749E+04  0.00000000000E+00 0. -1.
<mgrwt>
<rscale>  0 0.11333899E+04</rscale>
<asrwt>0</asrwt>
<pdfrwt beam="2">  1        4 0.36396824E+00 0.11363050E+04</pdfrwt>
<pdfrwt beam="1">  1       -4 0.29069025E+00 0.11304822E+04</pdfrwt>
<totfact> 0.38737288E-02</totfact>
</mgrwt>
</event>
<event>
 8    1  0.2939692E-006  0.1170980E+04  0.7818608E-02  0.8631004E-01
         -4   -1    0    0    0  501 -0.00000000000E+00  0.00000000000E+00  0.99438338249E+03  0.99438338249E+03  0.00000000000E+00 0. -1.
          4   -1    0    0  502    0  0.00000000000E+00 -0.00000000000E+00 -0.25229992319E+04  0.25229992319E+04  0.00000000000E+00 0.  1.
   -9000010    2    1    2    0  501  0.28239587562E+03 -0.52291920455E+03  0.42247377519E+03  0.12448608737E+04  0.10089611386E+04 0.  0.
    9000010    2    1    2  502    0 -0.28239587562E+03  0.52291920455E+03 -0.19510896246E+04  0.22725217407E+04  0.10022037785E+04 0.  0.
        -13    1    4    4    0    0  0.25301862260E+03  0.11825439687E+03 -0.88919607850E+02  0.29310276967E+03  0.10566000000E+00 0.  1.
          4    1    4    4  502    0 -0.53541449822E+03  0.40466480767E+03 -0.18621700168E+04  0.19794189710E+04  0.00000000000E+00 0.  1.
         13    1    3    3    0    0  0.43710322983E+03 -0.76586743441E+03  0.29466459705E+03  0.92975233075E+03  0.10566000000E+00 0. -1.
         -4    1    3    3    0  501 -0.15470735421E+03  0.24294822986E+03  0.12780917814E+03  0.31510854297E+03  0.00000000000E+00 0. -1.
<mgrwt>
<rscale>  0 0.11680678E+04</rscale>
<asrwt>0</asrwt>
<pdfrwt beam="2">  1        4 0.38815373E+00 0.11651628E+04</pdfrwt>
<pdfrwt beam="1">  1       -4 0.15298206E+00 0.11709801E+04</pdfrwt>
<totfact> 0.76314890E-02</totfact>
</mgrwt>
</event>
<event>
 8    1  0.2939692E-006  0.1531383E+04  0.7818608E-02  0.8396378E-01
         -4   -1    0    0    0  501 -0.00000000000E+00  0.00000000000E+00  0.21437506716E+04  0.21437506716E+04  0.00000000000E+00 0. -1.
          4   -1    0    0  502    0  0.00000000000E+00 -0.00000000000E+00 -0.14780116169E+04  0.14780116169E+04  0.00000000000E+00 0.  1.
   -9000010    2    1    2    0  501  0.11149538613E+04  0.30569683912E+03  0.12715017034E+04  0.19904397240E+04  0.10042713989E+04 0.  0.
    9000010    2    1    2  502    0 -0.11149538613E+04 -0.30569683912E+03 -0.60576264870E+03  0.16313225645E+04  0.97861752104E+03 0.  0.
        -13    1    4    4    0    0 -0.10356163336E+04 -0.12452959216E+03 -0.82950403899E+03  0.13326986800E+04  0.10566000000E+00 0.  1.
          4    1    4    4  502    0 -0.79337527740E+02 -0.18116724695E+03  0.22374139029E+03  0.29862388452E+03  0.00000000000E+00 0.  1.
         13    1    3    3    0    0  0.72781837912E+03  0.41268839067E+03  0.13431712480E+04  0.15824475705E+04  0.10566000000E+00 0. -1.
         -4    1    3    3    0  501  0.38713548220E+03 -0.10699155155E+03 -0.71669544586E+02  0.40799215348E+03  0.00000000000E+00 0. -1.
<mgrwt>
<rscale>  0 0.15230101E+04</rscale>
<asrwt>0</asrwt>
<pdfrwt beam="2">  1        4 0.22738640E+00 0.15146831E+04</pdfrwt>
<pdfrwt beam="1">  1       -4 0.32980780E+00 0.15313829E+04</pdfrwt>
<totfact> 0.69074551E-02</totfact>
</mgrwt>
</event>
<event>
 8    1  0.2939692E-006  0.1170435E+04  0.7818608E-02  0.8630570E-01
         -4   -1    0    0    0  501 -0.00000000000E+00  0.00000000000E+00  0.20114925866E+04  0.20114925866E+04  0.00000000000E+00 0. -1.
          4   -1    0    0  502    0  0.00000000000E+00 -0.00000000000E+00 -0.74295983684E+03  0.74295983684E+03  0.00000000000E+00 0.  1.
   -9000010    2    1    2    0  501 -0.32749746393E+03  0.53429090625E+03  0.10394321003E+04  0.15653555987E+04  0.98853310408E+03 0.  0.
    9000010    2    1    2  502    0  0.32749746393E+03 -0.53429090625E+03  0.22910064943E+03  0.11890968247E+04  0.98424732137E+03 0.  0.
        -13    1    4    4    0    0 -0.27102146004E+03 -0.49374461492E+03  0.15818529178E+03  0.58502903711E+03  0.10566000000E+00 0.  1.
          4    1    4    4  502    0  0.59851892396E+03 -0.40546291334E+02  0.70915357653E+02  0.60406778762E+03  0.00000000000E+00 0.  1.
         13    1    3    3    0    0 -0.12859265333E+03 -0.13551188815E+03 -0.11250652802E+03  0.21807629933E+03  0.10566000000E+00 0. -1.
         -4    1    3    3    0  501 -0.19890481059E+03  0.66980279440E+03  0.11519386284E+04  0.13472792994E+04  0.00000000000E+00 0. -1.
<mgrwt>
<rscale>  0 0.11686253E+04</rscale>
<asrwt>0</asrwt>
<pdfrwt beam="2">  1        4 0.11430151E+00 0.11668180E+04</pdfrwt>
<pdfrwt beam="1">  1       -4 0.30946040E+00 0.11704354E+04</pdfrwt>
<totfact> 0.22025406E-01</totfact>
</mgrwt>
</event>
<event>
 8    1  0.2939692E-006  0.1333521E+04  0.7818608E-02  0.8517651E-01
         -4   -1    0    0    0  501 -0.00000000000E+00  0.00000000000E+00  0.19516500746E+04  0.19516500746E+04  0.00000000000E+00 0. -1.
          4   -1    0    0  502    0  0.00000000000E+00 -0.00000000000E+00 -0.18621081117E+04  0.18621081117E+04  0.00000000000E+00 0.  1.
   -9000010    2    1    2    0  501  0.37026193035E+03 -0.79727784747E+03  0.14154242173E+04  0.19446606662E+04  0.10027629474E+04 0.  0.
    9000010    2    1    2  502    0 -0.37026193035E+03  0.79727784747E+03 -0.13258822545E+04  0.18690975201E+04  0.98123183996E+03 0.  0.
        -13    1    4    4    0    0  0.20202057158E+03  0.27790083399E+03 -0.10795420324E+02  0.34374079935E+03  0.10566000000E+00 0.  1.
          4    1    4    4  502    0 -0.57228250193E+03  0.51937701347E+03 -0.13150868341E+04  0.15253567207E+04  0.00000000000E+00 0.  1.
         13    1    3    3    0    0  0.34526635289E+03 -0.79590447344E+03  0.44707160831E+03  0.97598453851E+03  0.10566000000E+00 0. -1.
         -4    1    3    3    0  501  0.24995577456E+02 -0.13733740240E+01  0.96835260900E+03  0.96867612772E+03  0.00000000000E+00 0. -1.
<mgrwt>
<rscale>  0 0.13254398E+04</rscale>
<asrwt>0</asrwt>
<pdfrwt beam="2">  1        4 0.28647817E+00 0.13174072E+04</pdfrwt>
<pdfrwt beam="1">  1       -4 0.30025386E+00 0.13335214E+04</pdfrwt>
<totfact> 0.60913302E-02</totfact>
</mgrwt>
</event>
<event>
 8    1  0.2939692E-006  0.1377472E+04  0.7818608E-02  0.8485094E-01
          4   -1    0    0  502    0  0.00000000000E+00  0.00000000000E+00  0.20338850205E+04  0.20338850205E+04  0.00000000000E+00 0.  1.
         -4   -1    0    0    0  501 -0.00000000000E+00 -0.00000000000E+00 -0.26201953474E+04  0.26201953474E+04  0.00000000000E+00 0. -1.
   -9000010    2    1    2    0  501 -0.70068530304E+03  0.59133449894E+03 -0.21623238702E+04  0.25638006243E+04  0.10280042499E+04 0.  0.
    9000010    2    1    2  502    0  0.70068530304E+03 -0.59133449894E+03  0.15760135433E+04  0.20902797436E+04  0.10221615991E+04 0.  0.
        -13    1    4    4    0    0  0.93465917252E+03 -0.30241527212E+03  0.12886563609E+04  0.16203943943E+04  0.10566000000E+00 0.  1.
          4    1    4    4  502    0 -0.23397386948E+03 -0.28891922681E+03  0.28735718240E+03  0.46988534931E+03  0.00000000000E+00 0.  1.
         13    1    3    3    0    0 -0.22358924143E+03 -0.15457502795E+03 -0.12990183617E+04  0.13271527053E+04  0.10566000000E+00 0. -1.
         -4    1    3    3    0  501 -0.47709606161E+03  0.74590952689E+03 -0.86330550853E+03  0.12366479189E+04  0.00000000000E+00 0. -1.
<mgrwt>
<rscale>  0 0.13752929E+04</rscale>
<asrwt>0</asrwt>
<pdfrwt beam="1">  1        4 0.31290539E+00 0.13731172E+04</pdfrwt>
<pdfrwt beam="2">  1       -4 0.40310698E+00 0.13774720E+04</pdfrwt>
<totfact> 0.23140575E-02</totfact>
</mgrwt>
</event>
<event>
 8    1  0.2939692E-006  0.1571326E+04  0.7818608E-02  0.8372520E-01
          4   -1    0    0  502    0  0.00000000000E+00  0.00000000000E+00  0.16133806643E+04  0.16133806643E+04  0.00000000000E+00 0.  1.
         -4   -1    0    0    0  501 -0.00000000000E+00 -0.00000000000E+00 -0.17348046492E+04  0.17348046492E+04  0.00000000000E+00 0. -1.
   -9000010    2    1    2    0  501  0.36018752120E+03 -0.11571957176E+04 -0.64968236006E+03  0.16904393809E+04  0.98318927588E+03 0.  0.
    9000010    2    1    2  502    0 -0.36018752120E+03  0.11571957176E+04  0.52825837522E+03  0.16577459326E+04  0.10001138369E+04 0.  0.
        -13    1    4    4    0    0 -0.21667134546E+03  0.44248107650E+03 -0.28211551892E+03  0.56773686879E+03  0.10566000000E+00 0.  1.
          4    1    4    4  502    0 -0.14351617573E+03  0.71471464110E+03  0.81037389414E+03  0.10900090638E+04  0.00000000000E+00 0.  1.
         13    1    3    3    0    0  0.29935737088E+03 -0.25699983184E+03 -0.68167940528E+03  0.78762336927E+03  0.10566000000E+00 0. -1.
         -4    1    3    3    0  501  0.60830150315E+02 -0.90019588576E+03  0.31997045216E+02  0.90281601162E+03  0.00000000000E+00 0. -1.
<mgrwt>
<rscale>  0 0.15659578E+04</rscale>
<asrwt>0</asrwt>
<pdfrwt beam="1">  1        4 0.24821241E+00 0.15713258E+04</pdfrwt>
<pdfrwt beam="2">  1       -4 0.26689302E+00 0.15606083E+04</pdfrwt>
<totfact> 0.91019228E-02</totfact>
</mgrwt>
</event>
<event>
 8    1  0.2939692E-006  0.1064673E+04  0.7818608E-02  0.8732238E-01
         -4   -1    0    0    0  501 -0.00000000000E+00  0.00000000000E+00  0.76600386515E+03  0.76600386515E+03  0.00000000000E+00 0. -1.
          4   -1    0    0  502    0  0.00000000000E+00 -0.00000000000E+00 -0.33647985001E+04  0.33647985001E+04  0.00000000000E+00 0.  1.
   -9000010    2    1    2    0  501 -0.28887652877E+03  0.32240182702E+03  0.27641310101E+03  0.10648035303E+04  0.93274314186E+03 0.  0.
    9000010    2    1    2  502    0  0.28887652877E+03 -0.32240182702E+03 -0.28752077359E+04  0.30659988350E+04  0.97269560724E+03 0.  0.
        -13    1    4    4    0    0  0.29358796499E+03 -0.63519782825E+03 -0.23757157311E+04  0.24766298513E+04  0.10566000000E+00 0.  1.
          4    1    4    4  502    0 -0.47114362239E+01  0.31279600123E+03 -0.49949200482E+03  0.58936898366E+03  0.00000000000E+00 0.  1.
         13    1    3    3    0    0 -0.24590569666E+03  0.10363308315E+03  0.60871629727E+03  0.66463897666E+03  0.10566000000E+00 0. -1.
         -4    1    3    3    0  501 -0.42970832113E+02  0.21876874387E+03 -0.33230319626E+03  0.40016455359E+03  0.00000000000E+00 0. -1.
<mgrwt>
<rscale>  0 0.10463290E+04</rscale>
<asrwt>0</asrwt>
<pdfrwt beam="2">  1        4 0.51766131E+00 0.10646733E+04</pdfrwt>
<pdfrwt beam="1">  1       -4 0.11784675E+00 0.10283007E+04</pdfrwt>
<totfact> 0.30642555E-02</totfact>
</mgrwt>
</event>
<event>
 8    1  0.2939692E-006  0.1122630E+04  0.7818608E-02  0.8670461E-01
          4   -1    0    0  502    0  0.00000000000E+00  0.00000000000E+00  0.95441474205E+03  0.95441474205E+03  0.00000000000E+00 0.  1.
         -4   -1    0    0    0  501 -0.00000000000E+00 -0.00000000000E+00 -0.20577196465E+04  0.20577196465E+04  0.00000000000E+00 0. -1.
   -9000010    2    1    2    0  501 -0.47546128402E+03  0.16454346312E+03 -0.14575378535E+04  0.18349428918E+04  0.99471646109E+03 0.  0.
    9000010    2    1    2  502    0  0.47546128402E+03 -0.16454346312E+03  0.35423294911E+03  0.11771914967E+04  0.10035740400E+04 0.  0.
        -13    1    4    4    0    0 -0.14676679972E+02 -0.17364944736E+03 -0.30762477585E+03  0.35355699595E+03  0.10566000000E+00 0.  1.
          4    1    4    4  502    0  0.49013796400E+03  0.91059842349E+01  0.66185772497E+03  0.82363450073E+03  0.00000000000E+00 0.  1.
         13    1    3    3    0    0 -0.15752761868E+03  0.32706491155E+02  0.13228610485E+03  0.20828895772E+03  0.10566000000E+00 0. -1.
         -4    1    3    3    0  501 -0.31793366535E+03  0.13183697197E+03 -0.15898239584E+04  0.16266539341E+04  0.00000000000E+00 0. -1.
<mgrwt>
<rscale>  0 0.11186678E+04</rscale>
<asrwt>0</asrwt>
<pdfrwt beam="1">  1        4 0.14683304E+00 0.11226303E+04</pdfrwt>
<pdfrwt beam="2">  1       -4 0.31657225E+00 0.11147192E+04</pdfrwt>
<totfact> 0.14122550E-01</totfact>
</mgrwt>
</event>
<event>
 8    1  0.2939692E-006  0.1064460E+04  0.7818608E-02  0.8719096E-01
         -4   -1    0    0    0  501 -0.00000000000E+00  0.00000000000E+00  0.89730734522E+03  0.89730734522E+03  0.00000000000E+00 0. -1.
          4   -1    0    0  502    0  0.00000000000E+00 -0.00000000000E+00 -0.16357757390E+04  0.16357757390E+04  0.00000000000E+00 0.  1.
   -9000010    2    1    2    0  501  0.28715220029E+03 -0.20649885252E+03  0.24261136536E+03  0.10854670544E+04  0.99713604351E+03 0.  0.
    9000010    2    1    2  502    0 -0.28715220029E+03  0.20649885252E+03 -0.98107975913E+03  0.14476160299E+04  0.10039803354E+04 0.  0.
        -13    1    4    4    0    0 -0.55097235967E+03  0.98415563113E+02 -0.16551295936E+03  0.58365290633E+03  0.10566000000E+00 0.  1.
          4    1    4    4  502    0  0.26382015938E+03  0.10808328940E+03 -0.81556679977E+03  0.86396312353E+03  0.00000000000E+00 0.  1.
         13    1    3    3    0    0 -0.29010334392E+03 -0.18612036776E+03 -0.16138833013E+03  0.38058763211E+03  0.10566000000E+00 0. -1.
         -4    1    3    3    0  501  0.57725554421E+03 -0.20378484759E+02  0.40399969549E+03  0.70487942225E+03  0.00000000000E+00 0. -1.
<mgrwt>
<rscale>  0 0.10612284E+04</rscale>
<asrwt>0</asrwt>
<pdfrwt beam="2">  1        4 0.25165780E+00 0.10644598E+04</pdfrwt>
<pdfrwt beam="1">  1       -4 0.13804729E+00 0.10580068E+04</pdfrwt>
<totfact> 0.22749884E-01</totfact>
</mgrwt>
</event>
<event>
 8    1  0.2939692E-006  0.1109403E+04  0.7818608E-02  0.8744249E-01
          4   -1    0    0  502    0  0.00000000000E+00  0.00000000000E+00  0.18505467026E+04  0.18505467026E+04  0.00000000000E+00 0.  1.
         -4   -1    0    0    0  501 -0.00000000000E+00 -0.00000000000E+00 -0.77240805766E+03  0.77240805766E+03  0.00000000000E+00 0. -1.
   -9000010    2    1    2    0  501 -0.64513620838E+02  0.14635835202E+03 -0.14391440436E+03  0.97244307893E+03  0.94834140029E+03 0.  0.
    9000010    2    1    2  502    0  0.64513620838E+02 -0.14635835202E+03  0.12220530493E+04  0.16505116813E+04  0.10978125434E+04 0.  0.
        -13    1    4    4    0    0 -0.40263830518E+03  0.15642630215E+03  0.92184276315E+03  0.10180279387E+04  0.10566000000E+00 0.  1.
          4    1    4    4  502    0  0.46715192602E+03 -0.30278465417E+03  0.30021028612E+03  0.63248374262E+03  0.00000000000E+00 0.  1.
         13    1    3    3    0    0 -0.44030202989E+03  0.27165539545E+03  0.70283276657E+02  0.52211328420E+03  0.10566000000E+00 0. -1.
         -4    1    3    3    0  501  0.37578840905E+03 -0.12529704342E+03 -0.21419768102E+03  0.45032979473E+03  0.00000000000E+00 0. -1.
<mgrwt>
<rscale>  0 0.10329336E+04</rscale>
<asrwt>0</asrwt>
<pdfrwt beam="1">  1        4 0.28469949E+00 0.11094031E+04</pdfrwt>
<pdfrwt beam="2">  1       -4 0.11883201E+00 0.96173499E+03</pdfrwt>
<totfact> 0.24070206E-01</totfact>
</mgrwt>
</event>
<event>
 8    1  0.2939692E-006  0.1184283E+04  0.7818608E-02  0.8630291E-01
         -4   -1    0    0    0  501 -0.00000000000E+00  0.00000000000E+00  0.34190401459E+04  0.34190401459E+04  0.00000000000E+00 0. -1.
          4   -1    0    0  502    0  0.00000000000E+00 -0.00000000000E+00 -0.42080620796E+03  0.42080620796E+03  0.00000000000E+00 0.  1.
   -9000010    2    1    2    0  501  0.18469580018E+03 -0.56224933824E+03  0.19470846283E+04  0.22789615799E+04  0.10258121055E+04 0.  0.
    9000010    2    1    2  502    0 -0.18469580018E+03  0.56224933824E+03  0.10511493097E+04  0.15608847740E+04  0.99056022008E+03 0.  0.
        -13    1    4    4    0    0 -0.32586645365E+03  0.63893713797E+03  0.11621177055E+04  0.13656306911E+04  0.10566000000E+00 0.  1.
          4    1    4    4  502    0  0.14117065347E+03 -0.76687799731E+02 -0.11096839582E+03  0.19525408293E+03  0.00000000000E+00 0.  1.
         13    1    3    3    0    0  0.46469051062E+03  0.13957600432E+02  0.12427422565E+04  0.13268535762E+04  0.10566000000E+00 0. -1.
         -4    1    3    3    0  501 -0.27999471044E+03 -0.57620693867E+03  0.70434237178E+03  0.95210800371E+03  0.00000000000E+00 0. -1.
<mgrwt>
<rscale>  0 0.11689845E+04</rscale>
<asrwt>0</asrwt>
<pdfrwt beam="2">  1        4 0.64739419E-01 0.11538832E+04</pdfrwt>
<pdfrwt beam="1">  1       -4 0.52600616E+00 0.11842835E+04</pdfrwt>
<totfact> 0.90397881E-02</totfact>
</mgrwt>
</event>
<event>
 8    1  0.2939692E-006  0.1070325E+04  0.7818608E-02  0.8716294E-01
          4   -1    0    0  502    0  0.00000000000E+00  0.00000000000E+00  0.10095109982E+04  0.10095109982E+04  0.00000000000E+00 0.  1.
         -4   -1    0    0    0  501 -0.00000000000E+00 -0.00000000000E+00 -0.19188475026E+04  0.19188475026E+04  0.00000000000E+00 0. -1.
   -9000010    2    1    2    0  501  0.23042025199E+03 -0.30314932597E+03 -0.13965056936E+04  0.17523784031E+04  0.98772916800E+03 0.  0.
    9000010    2    1    2  502    0 -0.23042025199E+03  0.30314932597E+03  0.48716918910E+03  0.11759800976E+04  0.10003011371E+04 0.  0.
        -13    1    4    4    0    0 -0.61018943198E+03  0.24235094921E+03  0.43563944864E+03  0.78793836425E+03  0.10566000000E+00 0.  1.
          4    1    4    4  502    0  0.37976917999E+03  0.60798376753E+02  0.51529740464E+02  0.38804173337E+03  0.00000000000E+00 0.  1.
         13    1    3    3    0    0  0.10174442208E+02  0.11512060574E+03 -0.12530622949E+04  0.12583804668E+04  0.10566000000E+00 0. -1.
         -4    1    3    3    0  501  0.22024580978E+03 -0.41826993171E+03 -0.14344339864E+03  0.49399793634E+03  0.00000000000E+00 0. -1.
<mgrwt>
<rscale>  0 0.10644387E+04</rscale>
<asrwt>0</asrwt>
<pdfrwt beam="1">  1        4 0.15530939E+00 0.10703249E+04</pdfrwt>
<pdfrwt beam="2">  1       -4 0.29520730E+00 0.10585849E+04</pdfrwt>
<totfact> 0.14929889E-01</totfact>
</mgrwt>
</event>
<event>
 8    1  0.2939692E-006  0.1093636E+04  0.7818608E-02  0.8698276E-01
         -4   -1    0    0    0  501 -0.00000000000E+00  0.00000000000E+00  0.17372888691E+04  0.17372888691E+04  0.00000000000E+00 0. -1.
          4   -1    0    0  502    0  0.00000000000E+00 -0.00000000000E+00 -0.10897604182E+04  0.10897604182E+04  0.00000000000E+00 0.  1.
   -9000010    2    1    2    0  501  0.11064810579E+03 -0.46529365789E+03  0.11909748575E+04  0.16058309790E+04  0.96515844854E+03 0.  0.
    9000010    2    1    2  502    0 -0.11064810579E+03  0.46529365789E+03 -0.54344640650E+03  0.12212183082E+04  0.98351358312E+03 0.  0.
        -13    1    4    4    0    0  0.40435519518E+03  0.36737656337E+03 -0.40186581858E+03  0.67820705576E+03  0.10566000000E+00 0.  1.
          4    1    4    4  502    0 -0.51500330097E+03  0.97917094525E+02 -0.14158058792E+03  0.54301125245E+03  0.00000000000E+00 0.  1.
         13    1    3    3    0    0  0.27685795093E+03 -0.59664615083E+03  0.36317636009E+03  0.75135479900E+03  0.10566000000E+00 0. -1.
         -4    1    3    3    0  501 -0.16620984514E+03  0.13135249293E+03  0.82779849736E+03  0.85447618004E+03  0.00000000000E+00 0. -1.
<mgrwt>
<rscale>  0 0.10853665E+04</rscale>
<asrwt>0</asrwt>
<pdfrwt beam="2">  1        4 0.16765545E+00 0.10936362E+04</pdfrwt>
<pdfrwt beam="1">  1       -4 0.26727521E+00 0.10771592E+04</pdfrwt>
<totfact> 0.15773342E-01</totfact>
</mgrwt>
</event>
<event>
 8    1  0.2939692E-006  0.1031414E+04  0.7818608E-02  0.8766364E-01
         -4   -1    0    0    0  501 -0.00000000000E+00  0.00000000000E+00  0.97279796396E+03  0.97279796396E+03  0.00000000000E+00 0. -1.
          4   -1    0    0  502    0  0.00000000000E+00 -0.00000000000E+00 -0.36431080114E+04  0.36431080114E+04  0.00000000000E+00 0.  1.
   -9000010    2    1    2    0  501 -0.11015864428E+03  0.12640824133E+03  0.62162293061E+03  0.11661758262E+04  0.97233585724E+03 0.  0.
    9000010    2    1    2  502    0  0.11015864428E+03 -0.12640824133E+03 -0.32919329780E+04  0.34497301492E+04  0.10176941583E+04 0.  0.
        -13    1    4    4    0    0 -0.21437379308E+03 -0.33923385682E+03 -0.55201635441E+03  0.68246450419E+03  0.10566000000E+00 0.  1.
          4    1    4    4  502    0  0.32453243736E+03  0.21282561549E+03 -0.27399166236E+04  0.27672656450E+04  0.00000000000E+00 0.  1.
         13    1    3    3    0    0 -0.34822944646E+03 -0.25038462461E+03  0.36241044014E+02  0.43042959013E+03  0.10566000000E+00 0. -1.
         -4    1    3    3    0  501  0.23807080218E+03  0.37679286594E+03  0.58538188660E+03  0.73574623603E+03  0.00000000000E+00 0. -1.
<mgrwt>
<rscale>  0 0.10088027E+04</rscale>
<asrwt>0</asrwt>
<pdfrwt beam="2">  1        4 0.56047815E+00 0.10314143E+04</pdfrwt>
<pdfrwt beam="1">  1       -4 0.14966123E+00 0.98668688E+03</pdfrwt>
<totfact> 0.12955080E-02</totfact>
</mgrwt>
</event>
<event>
 8    1  0.2939692E-006  0.1209264E+04  0.7818608E-02  0.8610172E-01
          4   -1    0    0  502    0  0.00000000000E+00  0.00000000000E+00  0.10156568004E+04  0.10156568004E+04  0.00000000000E+00 0.  1.
         -4   -1    0    0    0  501 -0.00000000000E+00 -0.00000000000E+00 -0.14839621054E+04  0.14839621054E+04  0.00000000000E+00 0. -1.
   -9000010    2    1    2    0  501 -0.14485431791E+03  0.66611181497E+03 -0.51668753678E+03  0.12893878900E+04  0.96481469556E+03 0.  0.
    9000010    2    1    2  502    0  0.14485431791E+03 -0.66611181497E+03  0.48382231762E+02  0.12102310158E+04  0.99881457130E+03 0.  0.
        -13    1    4    4    0    0  0.35444063702E+03 -0.45295034722E+03 -0.37891583220E+03  0.68874480127E+03  0.10566000000E+00 0.  1.
          4    1    4    4  502    0 -0.20958631911E+03 -0.21316146775E+03  0.42729806397E+03  0.52148621455E+03  0.00000000000E+00 0.  1.
         13    1    3    3    0    0  0.61586679632E+02  0.25422387828E+03 -0.73455904438E+03  0.77974335537E+03  0.10566000000E+00 0. -1.
         -4    1    3    3    0  501 -0.20644099754E+03  0.41188793669E+03  0.21787150760E+03  0.50964453463E+03  0.00000000000E+00 0. -1.
<mgrwt>
<rscale>  0 0.11952183E+04</rscale>
<asrwt>0</asrwt>
<pdfrwt beam="1">  1        4 0.15625489E+00 0.12092635E+04</pdfrwt>
<pdfrwt beam="2">  1       -4 0.22830186E+00 0.11813362E+04</pdfrwt>
<totfact> 0.21445649E-01</totfact>
</mgrwt>
</event>
<event>
 8    1  0.2939692E-006  0.1016083E+04  0.7818608E-02  0.8830651E-01
         -4   -1    0    0    0  501 -0.00000000000E+00  0.00000000000E+00  0.16811063140E+04  0.16811063140E+04  0.00000000000E+00 0. -1.
          4   -1    0    0  502    0  0.00000000000E+00 -0.00000000000E+00 -0.92279743829E+03  0.92279743829E+03  0.00000000000E+00 0.  1.
   -9000010    2    1    2    0  501  0.70148925557E+02  0.79560078945E+02  0.12421709302E+04  0.16048095765E+04  0.10105317803E+04 0.  0.
    9000010    2    1    2  502    0 -0.70148925557E+02 -0.79560078945E+02 -0.48386205452E+03  0.99909417579E+03  0.86764970257E+03 0.  0.
        -13    1    4    4    0    0 -0.11500684704E+03  0.26539160079E+03  0.11114978660E+03  0.30986055390E+03  0.10566000000E+00 0.  1.
          4    1    4    4  502    0  0.44857921478E+02 -0.34495167974E+03 -0.59501184112E+03  0.68923362189E+03  0.00000000000E+00 0.  1.
         13    1    3    3    0    0  0.34400804054E+02  0.53671263065E+03  0.82544025390E+03  0.98518804659E+03  0.10566000000E+00 0. -1.
         -4    1    3    3    0  501  0.35748121503E+02 -0.45715255170E+03  0.41673067630E+03  0.61962152987E+03  0.00000000000E+00 0. -1.
<mgrwt>
<rscale>  0 0.94242644E+03</rscale>
<asrwt>0</asrwt>
<pdfrwt beam="2">  1        4 0.14196884E+00 0.87410908E+03</pdfrwt>
<pdfrwt beam="1">  1       -4 0.25863174E+00 0.10160832E+04</pdfrwt>
<totfact> 0.21014686E-01</totfact>
</mgrwt>
</event>
<event>
 8    1  0.2939692E-006  0.1085373E+04  0.7818608E-02  0.8699417E-01
         -4   -1    0    0    0  501 -0.00000000000E+00  0.00000000000E+00  0.26981112363E+04  0.26981112363E+04  0.00000000000E+00 0. -1.
          4   -1    0    0  502    0  0.00000000000E+00 -0.00000000000E+00 -0.62472282012E+03  0.62472282012E+03  0.00000000000E+00 0.  1.
   -9000010    2    1    2    0  501 -0.37110282478E+03 -0.23866875769E+03  0.19500881622E+04  0.22304799175E+04  0.98869446213E+03 0.  0.
    9000010    2    1    2  502    0  0.37110282478E+03  0.23866875769E+03  0.12330025399E+03  0.10923541390E+04  0.99164233966E+03 0.  0.
        -13    1    4    4    0    0  0.53679474672E+03 -0.22589092512E+03 -0.61717617848E+01  0.58242030525E+03  0.10566000000E+00 0.  1.
          4    1    4    4  502    0 -0.16569192194E+03  0.46455968281E+03  0.12947201577E+03  0.50993383371E+03  0.00000000000E+00 0.  1.
         13    1    3    3    0    0 -0.10558711866E+03 -0.42479413688E+03  0.25904264054E+03  0.50862736766E+03  0.10566000000E+00 0. -1.
         -4    1    3    3    0  501 -0.26551570612E+03  0.18612537919E+03  0.16910455216E+04  0.17218525498E+04  0.00000000000E+00 0. -1.
<mgrwt>
<rscale>  0 0.10840259E+04</rscale>
<asrwt>0</asrwt>
<pdfrwt beam="2">  1        4 0.96111204E-01 0.10853730E+04</pdfrwt>
<pdfrwt beam="1">  1       -4 0.41509403E+00 0.10826804E+04</pdfrwt>
<totfact> 0.13140147E-01</totfact>
</mgrwt>
</event>
<event>
 8    1  0.2939692E-006  0.1165225E+04  0.7818608E-02  0.8638559E-01
         -4   -1    0    0    0  501 -0.00000000000E+00  0.00000000000E+00  0.33143326937E+04  0.33143326937E+04  0.00000000000E+00 0. -1.
          4   -1    0    0  502    0  0.00000000000E+00 -0.00000000000E+00 -0.15548433292E+04  0.15548433292E+04  0.00000000000E+00 0.  1.
   -9000010    2    1    2    0  501 -0.92072797598E+02  0.59290214608E+03  0.29721254109E+04  0.31874400916E+04  0.98297229073E+03 0.  0.
    9000010    2    1    2  502    0  0.92072797598E+02 -0.59290214608E+03 -0.12126360463E+04  0.16817359314E+04  0.99886896396E+03 0.  0.
        -13    1    4    4    0    0 -0.15113959540E+03 -0.13997264938E+02 -0.10108612537E+04  0.10221935169E+04  0.10566000000E+00 0.  1.
          4    1    4    4  502    0  0.24321239300E+03 -0.57890488115E+03 -0.20177479268E+03  0.65954241447E+03  0.00000000000E+00 0.  1.
         13    1    3    3    0    0 -0.50177345240E+03  0.12735017158E+03  0.16003257417E+04  0.16819741836E+04  0.10566000000E+00 0. -1.
         -4    1    3    3    0  501  0.40970065480E+03  0.46555197451E+03  0.13717996692E+04  0.15054659079E+04  0.00000000000E+00 0. -1.
<mgrwt>
<rscale>  0 0.11584061E+04</rscale>
<asrwt>0</asrwt>
<pdfrwt beam="2">  1        4 0.23920667E+00 0.11652251E+04</pdfrwt>
<pdfrwt beam="1">  1       -4 0.50989734E+00 0.11516271E+04</pdfrwt>
<totfact> 0.12004254E-02</totfact>
</mgrwt>
</event>
<event>
 8    1  0.2939692E-006  0.1122350E+04  0.7818608E-02  0.8671467E-01
          4   -1    0    0  502    0  0.00000000000E+00  0.00000000000E+00  0.26636345905E+04  0.26636345905E+04  0.00000000000E+00 0.  1.
         -4   -1    0    0    0  501 -0.00000000000E+00 -0.00000000000E+00 -0.16238567390E+04  0.16238567390E+04  0.00000000000E+00 0. -1.
   -9000010    2    1    2    0  501 -0.47196423419E+03  0.12853680594E+03 -0.12887790053E+04  0.17025643538E+04  0.99925077209E+03 0.  0.
    9000010    2    1    2  502    0  0.47196423419E+03 -0.12853680594E+03  0.23285568568E+04  0.25849269757E+04  0.10101477543E+04 0.  0.
        -13    1    4    4    0    0  0.67468797751E+02  0.41362962673E+03  0.63032231076E+03  0.75693311024E+03  0.10566000000E+00 0.  1.
          4    1    4    4  502    0  0.40449543644E+03 -0.54216643267E+03  0.16982345460E+04  0.18279938655E+04  0.00000000000E+00 0.  1.
         13    1    3    3    0    0 -0.33150925385E+03 -0.21881626569E+03 -0.12663864662E+04  0.13272202667E+04  0.10566000000E+00 0. -1.
         -4    1    3    3    0  501 -0.14045498034E+03  0.34735307163E+03 -0.22392539077E+02  0.37534408705E+03  0.00000000000E+00 0. -1.
<mgrwt>
<rscale>  0 0.11174409E+04</rscale>
<asrwt>0</asrwt>
<pdfrwt beam="1">  1        4 0.40978994E+00 0.11223504E+04</pdfrwt>
<pdfrwt beam="2">  1       -4 0.24982411E+00 0.11125529E+04</pdfrwt>
<totfact> 0.32590886E-02</totfact>
</mgrwt>
</event>
<event>
 8    1  0.2939692E-006  0.1388810E+04  0.7818608E-02  0.8480074E-01
          4   -1    0    0  502    0  0.00000000000E+00  0.00000000000E+00  0.12922827960E+04  0.12922827960E+04  0.00000000000E+00 0.  1.
         -4   -1    0    0    0  501 -0.00000000000E+00 -0.00000000000E+00 -0.22920233158E+04  0.22920233158E+04  0.00000000000E+00 0. -1.
   -9000010    2    1    2    0  501 -0.50366543364E+03  0.81676769372E+03 -0.15649476774E+04  0.20848886751E+04  0.98838819305E+03 0.  0.
    9000010    2    1    2  502    0  0.50366543364E+03 -0.81676769372E+03  0.56520715755E+03  0.14994174368E+04  0.10039946137E+04 0.  0.
        -13    1    4    4    0    0 -0.24609948888E+03 -0.37878861857E+03  0.42430696857E+03  0.61974364920E+03  0.10566000000E+00 0.  1.
          4    1    4    4  502    0  0.74976492252E+03 -0.43797907515E+03  0.14090018898E+03  0.87967378758E+03  0.00000000000E+00 0.  1.
         13    1    3    3    0    0 -0.45958601575E+03  0.13415538117E+03 -0.13134530656E+03  0.49645601305E+03  0.10566000000E+00 0. -1.
         -4    1    3    3    0  501 -0.44079417888E+02  0.68261231255E+03 -0.14336023708E+04  0.15884326621E+04  0.00000000000E+00 0. -1.
<mgrwt>
<rscale>  0 0.13831787E+04</rscale>
<asrwt>0</asrwt>
<pdfrwt beam="1">  1        4 0.19881274E+00 0.13888101E+04</pdfrwt>
<pdfrwt beam="2">  1       -4 0.35261897E+00 0.13775702E+04</pdfrwt>
<totfact> 0.70556691E-02</totfact>
</mgrwt>
</event>
<event>
 8    1  0.2939692E-006  0.1262949E+04  0.7818608E-02  0.8565011E-01
         -4   -1    0    0    0  501 -0.00000000000E+00  0.00000000000E+00  0.16976407513E+04  0.16976407513E+04  0.00000000000E+00 0.  1.
          4   -1    0    0  502    0  0.00000000000E+00 -0.00000000000E+00 -0.14374744276E+04  0.14374744276E+04  0.00000000000E+00 0. -1.
   -9000010    2    1    2    0  501 -0.35847708299E+02 -0.73833893052E+03  0.10606962776E+04  0.16398265282E+04  0.10087244494E+04 0.  0.
    9000010    2    1    2  502    0  0.35847708299E+02  0.73833893052E+03 -0.80052995386E+03  0.14952886507E+04  0.10240168492E+04 0.  0.
        -13    1    4    4    0    0  0.16180211762E+03 -0.23289319176E+03 -0.18048823956E+03  0.33614755661E+03  0.10566000000E+00 0.  1.
          4    1    4    4  502    0 -0.12595440932E+03  0.97123212228E+03 -0.62004171430E+03  0.11591410941E+04  0.00000000000E+00 0.  1.
         13    1    3    3    0    0 -0.28923132189E+03  0.20356692275E+02 -0.25296608404E+02  0.29104824694E+03  0.10566000000E+00 0. -1.
         -4    1    3    3    0  501  0.25338361360E+03 -0.75869562279E+03  0.10859928860E+04  0.13487782813E+04  0.00000000000E+00 0. -1.
<mgrwt>
<rscale>  0 0.12567501E+04</rscale>
<asrwt>0</asrwt>
<pdfrwt beam="2">  1        4 0.22114991E+00 0.12629489E+04</pdfrwt>
<pdfrwt beam="1">  1       -4 0.26117550E+00 0.12505816E+04</pdfrwt>
<totfact> 0.11149664E-01</totfact>
</mgrwt>
</event>
<event>
 8    1  0.2939692E-006  0.1534446E+04  0.7818608E-02  0.8391403E-01
         -4   -1    0    0    0  501 -0.00000000000E+00  0.00000000000E+00  0.20529287034E+04  0.20529287034E+04  0.00000000000E+00 0. -1.
          4   -1    0    0  502    0  0.00000000000E+00 -0.00000000000E+00 -0.30770563290E+04  0.30770563290E+04  0.00000000000E+00 0.  1.
   -9000010    2    1    2    0  501  0.42671964039E+03  0.10708805759E+04  0.15211369401E+04  0.21606438058E+04  0.10127434056E+04 0.  0.
    9000010    2    1    2  502    0 -0.42671964039E+03 -0.10708805759E+04 -0.25452645657E+04  0.29693412267E+04  0.10048585728E+04 0.  0.
        -13    1    4    4    0    0 -0.67281951085E+03 -0.10300541769E+04 -0.17751312172E+04  0.21598121564E+04  0.10566000000E+00 0.  1.
          4    1    4    4  502    0  0.24609987046E+03 -0.40826399074E+02 -0.77013334848E+03  0.80952907023E+03  0.00000000000E+00 0.  1.
         13    1    3    3    0    0  0.21037527977E+03 -0.58761597292E+02  0.73679715661E+03  0.76849251447E+03  0.10566000000E+00 0. -1.
         -4    1    3    3    0  501  0.21634436062E+03  0.11296421732E+04  0.78433978352E+03  0.13921512913E+04  0.00000000000E+00 0. -1.
<mgrwt>
<rscale>  0 0.15318474E+04</rscale>
<asrwt>0</asrwt>
<pdfrwt beam="2">  1        4 0.47339328E+00 0.15292533E+04</pdfrwt>
<pdfrwt beam="1">  1       -4 0.31583519E+00 0.15344458E+04</pdfrwt>
<totfact> 0.10768142E-02</totfact>
</mgrwt>
</event>
<event>
 8    1  0.2939692E-006  0.1123105E+04  0.7818608E-02  0.8682620E-01
          4   -1    0    0  502    0  0.00000000000E+00  0.00000000000E+00  0.80145603475E+03  0.80145603475E+03  0.00000000000E+00 0.  1.
         -4   -1    0    0    0  501 -0.00000000000E+00 -0.00000000000E+00 -0.19363142271E+04  0.19363142271E+04  0.00000000000E+00 0. -1.
   -9000010    2    1    2    0  501  0.67258518997E+02  0.50519968352E+03 -0.12089199773E+04  0.16501069727E+04  0.10008072148E+04 0.  0.
    9000010    2    1    2  502    0 -0.67258518997E+02 -0.50519968352E+03  0.74061784961E+02  0.10876632892E+04  0.95800618681E+03 0.  0.
        -13    1    4    4    0    0  0.42397630229E+03 -0.72243920295E+02  0.17897660074E+02  0.43045955249E+03  0.10566000000E+00 0.  1.
          4    1    4    4  502    0 -0.49123482129E+03 -0.43295576323E+03  0.56164124887E+02  0.65720373666E+03  0.00000000000E+00 0.  1.
         13    1    3    3    0    0  0.83523650890E+02 -0.12337121332E+03 -0.96378337923E+03  0.97523077770E+03  0.10566000000E+00 0. -1.
         -4    1    3    3    0  501 -0.16265131894E+02  0.62857089684E+03 -0.24513659811E+03  0.67487619502E+03  0.00000000000E+00 0. -1.
<mgrwt>
<rscale>  0 0.11039589E+04</rscale>
<asrwt>0</asrwt>
<pdfrwt beam="1">  1        4 0.12330093E+00 0.10851388E+04</pdfrwt>
<pdfrwt beam="2">  1       -4 0.29789449E+00 0.11231053E+04</pdfrwt>
<totfact> 0.20877191E-01</totfact>
</mgrwt>
</event>
<event>
 8    1  0.2939692E-006  0.1039377E+04  0.7818608E-02  0.8740014E-01
          4   -1    0    0  502    0  0.00000000000E+00  0.00000000000E+00  0.21954437086E+04  0.21954437086E+04  0.00000000000E+00 0.  1.
         -4   -1    0    0    0  501 -0.00000000000E+00 -0.00000000000E+00 -0.86332444168E+03  0.86332444168E+03  0.00000000000E+00 0. -1.
   -9000010    2    1    2    0  501 -0.17068578173E+03  0.23815337522E+03 -0.33972213004E+03  0.10901751460E+04  0.99358948115E+03 0.  0.
    9000010    2    1    2  502    0  0.17068578173E+03 -0.23815337522E+03  0.16718413969E+04  0.19685930043E+04  0.99722319154E+03 0.  0.
        -13    1    4    4    0    0  0.58071252782E+03 -0.22364419618E+03  0.89522865780E+03  0.10902651638E+04  0.10566000000E+00 0.  1.
          4    1    4    4  502    0 -0.41002674609E+03 -0.14509179037E+02  0.77661273912E+03  0.87832784047E+03  0.00000000000E+00 0.  1.
         13    1    3    3    0    0 -0.86931578379E+02  0.46196648380E+02 -0.68191230587E+03  0.68898159170E+03  0.10566000000E+00 0. -1.
         -4    1    3    3    0  501 -0.83754203347E+02  0.19195672684E+03  0.34219017583E+03  0.40119355427E+03  0.00000000000E+00 0. -1.
<mgrwt>
<rscale>  0 0.10376327E+04</rscale>
<asrwt>0</asrwt>
<pdfrwt beam="1">  1        4 0.33776057E+00 0.10393771E+04</pdfrwt>
<pdfrwt beam="2">  1       -4 0.13281915E+00 0.10358913E+04</pdfrwt>
<totfact> 0.14392527E-01</totfact>
</mgrwt>
</event>
<event>
 8    1  0.2939692E-006  0.1311065E+04  0.7818608E-02  0.8527939E-01
          4   -1    0    0  502    0  0.00000000000E+00  0.00000000000E+00  0.14756941678E+04  0.14756941678E+04  0.00000000000E+00 0.  1.
         -4   -1    0    0    0  501 -0.00000000000E+00 -0.00000000000E+00 -0.13757473706E+04  0.13757473706E+04  0.00000000000E+00 0. -1.
   -9000010    2    1    2    0  501  0.23964933907E+03 -0.81480691506E+03 -0.51049954434E+03  0.14052269039E+04  0.99634871011E+03 0.  0.
    9000010    2    1    2  502    0 -0.23964933907E+03  0.81480691506E+03  0.61044634155E+03  0.14462146344E+04  0.99877420793E+03 0.  0.
        -13    1    4    4    0    0 -0.56160477347E+03  0.44406147493E+03  0.75257306884E+02  0.71989873489E+03  0.10566000000E+00 0.  1.
          4    1    4    4  502    0  0.32195543440E+03  0.37074544013E+03  0.53518903466E+03  0.72631589955E+03  0.00000000000E+00 0.  1.
         13    1    3    3    0    0 -0.11682072888E+03 -0.28642417290E+03  0.26083126682E+03  0.40462186104E+03  0.10566000000E+00 0. -1.
         -4    1    3    3    0  501  0.35647006795E+03 -0.52838274216E+03 -0.77133081117E+03  0.10006050429E+04  0.00000000000E+00 0. -1.
<mgrwt>
<rscale>  0 0.13101415E+04</rscale>
<asrwt>0</asrwt>
<pdfrwt beam="1">  1        4 0.22702987E+00 0.13110652E+04</pdfrwt>
<pdfrwt beam="2">  1       -4 0.21165344E+00 0.13092184E+04</pdfrwt>
<totfact> 0.14223233E-01</totfact>
</mgrwt>
</event>
<event>
 8    1  0.2939692E-006  0.1183855E+04  0.7818608E-02  0.8620638E-01
          4   -1    0    0  502    0  0.00000000000E+00  0.00000000000E+00  0.15924469632E+04  0.15924469632E+04  0.00000000000E+00 0.  1.
         -4   -1    0    0    0  501 -0.00000000000E+00 -0.00000000000E+00 -0.11311481014E+04  0.11311481014E+04  0.00000000000E+00 0. -1.
   -9000010    2    1    2    0  501  0.18161828991E+03 -0.61305989195E+03 -0.41502459597E+03  0.12544948082E+04  0.99633537236E+03 0.  0.
    9000010    2    1    2  502    0 -0.18161828991E+03  0.61305989195E+03  0.87632345779E+03  0.14691002563E+04  0.99069931167E+03 0.  0.
        -13    1    4    4    0    0 -0.40184819372E+03  0.22090243927E+03  0.90903452948E+03  0.10181471629E+04  0.10566000000E+00 0.  1.
          4    1    4    4  502    0  0.22022990381E+03  0.39215745268E+03 -0.32711071688E+02  0.45095309339E+03  0.00000000000E+00 0.  1.
         13    1    3    3    0    0 -0.65052839338E+01  0.25305192855E+03  0.43115538383E+02  0.25678114821E+03  0.10566000000E+00 0. -1.
         -4    1    3    3    0  501  0.18812357384E+03 -0.86611182050E+03 -0.45814013435E+03  0.99771366000E+03  0.00000000000E+00 0. -1.
<mgrwt>
<rscale>  0 0.11814826E+04</rscale>
<asrwt>0</asrwt>
<pdfrwt beam="1">  1        4 0.24499184E+00 0.11791152E+04</pdfrwt>
<pdfrwt beam="2">  1       -4 0.17402279E+00 0.11838546E+04</pdfrwt>
<totfact> 0.16818725E-01</totfact>
</mgrwt>
</event>
<event>
 8    1  0.2939692E-006  0.1088034E+04  0.7818608E-02  0.8707621E-01
         -4   -1    0    0    0  501 -0.00000000000E+00  0.00000000000E+00  0.25260118412E+04  0.25260118412E+04  0.00000000000E+00 0. -1.
          4   -1    0    0  502    0  0.00000000000E+00 -0.00000000000E+00 -0.10489109105E+04  0.10489109105E+04  0.00000000000E+00 0.  1.
   -9000010    2    1    2    0  501  0.34117578425E+03 -0.64065281172E+02  0.20851923752E+04  0.23519875242E+04  0.10311705951E+04 0.  0.
    9000010    2    1    2  502    0 -0.34117578425E+03  0.64065281172E+02 -0.60809144444E+03  0.12229352275E+04  0.10026415561E+04 0.  0.
        -13    1    4    4    0    0 -0.34138546707E+02  0.45498632433E+03 -0.56174645906E+03  0.72369682267E+03  0.10566000000E+00 0.  1.
          4    1    4    4  502    0 -0.30703723754E+03 -0.39092104316E+03 -0.46344985375E+02  0.49923840487E+03  0.00000000000E+00 0.  1.
         13    1    3    3    0    0  0.29261214712E+02  0.98948990296E+02  0.19827563268E+04  0.19854394436E+04  0.10566000000E+00 0. -1.
         -4    1    3    3    0  501  0.31191456953E+03 -0.16301427147E+03  0.10243604840E+03  0.36654808061E+03  0.00000000000E+00 0. -1.
<mgrwt>
<rscale>  0 0.10744497E+04</rscale>
<asrwt>0</asrwt>
<pdfrwt beam="2">  1        4 0.16137091E+00 0.10610350E+04</pdfrwt>
<pdfrwt beam="1">  1       -4 0.38861721E+00 0.10880340E+04</pdfrwt>
<totfact> 0.70907286E-02</totfact>
</mgrwt>
</event>
<event>
 8    1  0.2939692E-006  0.1062261E+04  0.7818608E-02  0.8728267E-01
          4   -1    0    0  502    0  0.00000000000E+00  0.00000000000E+00  0.92244156234E+03  0.92244156234E+03  0.00000000000E+00 0.  1.
         -4   -1    0    0    0  501 -0.00000000000E+00 -0.00000000000E+00 -0.25757782725E+04  0.25757782725E+04  0.00000000000E+00 0. -1.
   -9000010    2    1    2    0  501 -0.32552409022E+03 -0.44581614781E+02 -0.21104257464E+04  0.23626883629E+04  0.10101712803E+04 0.  0.
    9000010    2    1    2  502    0  0.32552409022E+03  0.44581614781E+02  0.45708903623E+03  0.11355314719E+04  0.98617842353E+03 0.  0.
        -13    1    4    4    0    0 -0.14545114301E+03  0.20267367507E+03 -0.19437731199E+03  0.31625180497E+03  0.10566000000E+00 0.  1.
          4    1    4    4  502    0  0.47097523323E+03 -0.15809206029E+03  0.65146634822E+03  0.81927966697E+03  0.00000000000E+00 0.  1.
         13    1    3    3    0    0 -0.20963798650E+03 -0.17644509119E+03 -0.30877208744E+02  0.27574330232E+03  0.10566000000E+00 0. -1.
         -4    1    3    3    0  501 -0.11588610372E+03  0.13186347641E+03 -0.20795485377E+04  0.20869450606E+04  0.00000000000E+00 0. -1.
<mgrwt>
<rscale>  0 0.10508048E+04</rscale>
<asrwt>0</asrwt>
<pdfrwt beam="1">  1        4 0.14191409E+00 0.10394717E+04</pdfrwt>
<pdfrwt beam="2">  1       -4 0.39627358E+00 0.10622615E+04</pdfrwt>
<totfact> 0.80061793E-02</totfact>
</mgrwt>
</event>
<event>
 8    1  0.2939692E-006  0.1116356E+04  0.7818608E-02  0.8710130E-01
         -4   -1    0    0    0  501 -0.00000000000E+00  0.00000000000E+00  0.22562690809E+04  0.22562690809E+04  0.00000000000E+00 0. -1.
          4   -1    0    0  502    0  0.00000000000E+00 -0.00000000000E+00 -0.93871848405E+03  0.93871848405E+03  0.00000000000E+00 0.  1.
   -9000010    2    1    2    0  501 -0.24539170630E+02 -0.24539172299E+03  0.17528341063E+04  0.20781430034E+04  0.10887753074E+04 0.  0.
    9000010    2    1    2  502    0  0.24539170630E+02  0.24539172299E+03 -0.43528350946E+03  0.11168445615E+04  0.99852429730E+03 0.  0.
        -13    1    4    4    0    0  0.25453839119E+03 -0.17779022412E+03  0.16147798250E+03  0.34996329290E+03  0.10566000000E+00 0.  1.
          4    1    4    4  502    0 -0.22999922056E+03  0.42318194711E+03 -0.59676149196E+03  0.76688126858E+03  0.00000000000E+00 0.  1.
         13    1    3    3    0    0 -0.15698159270E+03 -0.65996881530E+03  0.11380568743E+04  0.13249058525E+04  0.10566000000E+00 0. -1.
         -4    1    3    3    0  501  0.13244242207E+03  0.41457709231E+03  0.61477723196E+03  0.75323715095E+03  0.00000000000E+00 0. -1.
<mgrwt>
<rscale>  0 0.10715426E+04</rscale>
<asrwt>0</asrwt>
<pdfrwt beam="2">  1        4 0.14441823E+00 0.10285281E+04</pdfrwt>
<pdfrwt beam="1">  1       -4 0.34711832E+00 0.11163561E+04</pdfrwt>
<totfact> 0.11773628E-01</totfact>
</mgrwt>
</event>
<event>
 8    1  0.2939692E-006  0.1040049E+04  0.7818608E-02  0.8762268E-01
         -4   -1    0    0    0  501 -0.00000000000E+00  0.00000000000E+00  0.12767485789E+04  0.12767485789E+04  0.00000000000E+00 0. -1.
          4   -1    0    0  502    0  0.00000000000E+00 -0.00000000000E+00 -0.30158010733E+04  0.30158010733E+04  0.00000000000E+00 0.  1.
   -9000010    2    1    2    0  501  0.19817923750E+03  0.23446350535E+03  0.97415223247E+03  0.13868343773E+04  0.93813052002E+03 0.  0.
    9000010    2    1    2  502    0 -0.19817923750E+03 -0.23446350535E+03 -0.27132047268E+04  0.29057152749E+04  0.99370680969E+03 0.  0.
        -13    1    4    4    0    0  0.39583382689E+03 -0.81842031529E+02 -0.79510561609E+03  0.89195038457E+03  0.10566000000E+00 0.  1.
          4    1    4    4  502    0 -0.59401306439E+03 -0.15262147382E+03 -0.19180991108E+04  0.20137648904E+04  0.00000000000E+00 0.  1.
         13    1    3    3    0    0  0.43413702854E+03  0.18906359245E+03  0.10492196311E+03  0.48500374333E+03  0.10566000000E+00 0. -1.
         -4    1    3    3    0  501 -0.23595779104E+03  0.45399912899E+02  0.86923026936E+03  0.90183063400E+03  0.00000000000E+00 0. -1.
<mgrwt>
<rscale>  0 0.10132209E+04</rscale>
<asrwt>0</asrwt>
<pdfrwt beam="2">  1        4 0.46396939E+00 0.10400487E+04</pdfrwt>
<pdfrwt beam="1">  1       -4 0.19642286E+00 0.98708511E+03</pdfrwt>
<totfact> 0.25767553E-02</totfact>
</mgrwt>
</event>
<event>
 8    1  0.2939692E-006  0.1183541E+04  0.7818608E-02  0.8624239E-01
          4   -1    0    0  502    0  0.00000000000E+00  0.00000000000E+00  0.11242720526E+04  0.11242720526E+04  0.00000000000E+00 0.  1.
         -4   -1    0    0    0  501 -0.00000000000E+00 -0.00000000000E+00 -0.14319562792E+04  0.14319562792E+04  0.00000000000E+00 0. -1.
   -9000010    2    1    2    0  501 -0.53639285449E+03  0.30477698534E+03 -0.63089652416E+03  0.13293476242E+04  0.99424764353E+03 0.  0.
    9000010    2    1    2  502    0  0.53639285449E+03 -0.30477698534E+03  0.32321229762E+03  0.12268807076E+04  0.10100315718E+04 0.  0.
        -13    1    4    4    0    0  0.51042646958E+03  0.23013547720E+03 -0.67498683583E+02  0.56396241202E+03  0.10566000000E+00 0.  1.
          4    1    4    4  502    0  0.25966384907E+02 -0.53491246255E+03  0.39071098120E+03  0.66291829554E+03  0.00000000000E+00 0.  1.
         13    1    3    3    0    0 -0.44200162557E+03 -0.82602679247E+01 -0.83436737148E+03  0.94424710261E+03  0.10566000000E+00 0. -1.
         -4    1    3    3    0  501 -0.94391228921E+02  0.31303725327E+03  0.20347084732E+03  0.38510052161E+03  0.00000000000E+00 0. -1.
<mgrwt>
<rscale>  0 0.11768016E+04</rscale>
<asrwt>0</asrwt>
<pdfrwt beam="1">  1        4 0.17296493E+00 0.11835413E+04</pdfrwt>
<pdfrwt beam="2">  1       -4 0.22030097E+00 0.11701003E+04</pdfrwt>
<totfact> 0.19506090E-01</totfact>
</mgrwt>
</event>
<event>
 8    1  0.2939692E-006  0.2480101E+04  0.7818608E-02  0.7998362E-01
          4   -1    0    0  502    0  0.00000000000E+00  0.00000000000E+00  0.35693244039E+04  0.35693244039E+04  0.00000000000E+00 0.  1.
         -4   -1    0    0    0  501 -0.00000000000E+00 -0.00000000000E+00 -0.26588268356E+04  0.26588268356E+04  0.00000000000E+00 0. -1.
   -9000010    2    1    2    0  501  0.20026909521E+04  0.10416775703E+04 -0.13989266025E+04  0.28392956171E+04  0.10043608675E+04 0.  0.
    9000010    2    1    2  502    0 -0.20026909521E+04 -0.10416775703E+04  0.23094241708E+04  0.33888556224E+04  0.10271510203E+04 0.  0.
        -13    1    4    4    0    0 -0.14283669273E+04 -0.12022156265E+04  0.15732198870E+04  0.24414289495E+04  0.10566000000E+00 0.  1.
          4    1    4    4  502    0 -0.57432402482E+03  0.16053805618E+03  0.73620428387E+03  0.94742667292E+03  0.00000000000E+00 0.  1.
         13    1    3    3    0    0  0.15467422882E+04  0.65722407644E+03 -0.48710791028E+03  0.17497512167E+04  0.10566000000E+00 0. -1.
         -4    1    3    3    0  501  0.45594866384E+03  0.38445349384E+03 -0.91181869221E+03  0.10895444004E+04  0.00000000000E+00 0. -1.
<mgrwt>
<rscale>  0 0.24754211E+04</rscale>
<asrwt>0</asrwt>
<pdfrwt beam="1">  1        4 0.54912683E+00 0.24801013E+04</pdfrwt>
<pdfrwt beam="2">  1       -4 0.40905028E+00 0.24707497E+04</pdfrwt>
<totfact> 0.19815320E-03</totfact>
</mgrwt>
</event>
<event>
 8    1  0.2939692E-006  0.1078375E+04  0.7818608E-02  0.8706473E-01
         -4   -1    0    0    0  501 -0.00000000000E+00  0.00000000000E+00  0.10431759495E+04  0.10431759495E+04  0.00000000000E+00 0. -1.
          4   -1    0    0  502    0  0.00000000000E+00 -0.00000000000E+00 -0.19039455469E+04  0.19039455469E+04  0.00000000000E+00 0.  1.
   -9000010    2    1    2    0  501 -0.40120767926E+03  0.48433771045E+02  0.52091955557E+03  0.11976016024E+04  0.99978946920E+03 0.  0.
    9000010    2    1    2  502    0  0.40120767926E+03 -0.48433771045E+02 -0.13816891530E+04  0.17495198940E+04  0.99420395885E+03 0.  0.
        -13    1    4    4    0    0  0.70829700278E+03  0.10769143585E+03 -0.10512257751E+04  0.12721468983E+04  0.10566000000E+00 0.  1.
          4    1    4    4  502    0 -0.30708932351E+03 -0.15612520690E+03 -0.33046337790E+03  0.47737299565E+03  0.00000000000E+00 0.  1.
         13    1    3    3    0    0 -0.66645018820E+03  0.26555290234E+03  0.24671385035E+03  0.75864479990E+03  0.10566000000E+00 0. -1.
         -4    1    3    3    0  501  0.26524250894E+03 -0.21711913130E+03  0.27420570522E+03  0.43895680254E+03  0.00000000000E+00 0. -1.
<mgrwt>
<rscale>  0 0.10757836E+04</rscale>
<asrwt>0</asrwt>
<pdfrwt beam="2">  1        4 0.29291470E+00 0.10731985E+04</pdfrwt>
<pdfrwt beam="1">  1       -4 0.16048861E+00 0.10783749E+04</pdfrwt>
<totfact> 0.14435884E-01</totfact>
</mgrwt>
</event>
<event>
 8    1  0.2939692E-006  0.1099153E+04  0.7818608E-02  0.8696921E-01
         -4   -1    0    0    0  501 -0.00000000000E+00  0.00000000000E+00  0.24400515064E+04  0.24400515064E+04  0.00000000000E+00 0. -1.
          4   -1    0    0  502    0  0.00000000000E+00 -0.00000000000E+00 -0.14912764753E+04  0.14912764753E+04  0.00000000000E+00 0.  1.
   -9000010    2    1    2    0  501 -0.25907263036E+03 -0.41970188237E+03  0.20913523921E+04  0.23626028014E+04  0.98227739026E+03 0.  0.
    9000010    2    1    2  502    0  0.25907263036E+03  0.41970188237E+03 -0.11425773610E+04  0.15687251803E+04  0.95506406458E+03 0.  0.
        -13    1    4    4    0    0 -0.29587640456E+03  0.28036922743E+03 -0.17278525881E+03  0.44272396286E+03  0.10566000000E+00 0.  1.
          4    1    4    4  502    0  0.55494903492E+03  0.13933265494E+03 -0.96979210224E+03  0.11260012174E+04  0.00000000000E+00 0.  1.
         13    1    3    3    0    0  0.57773716055E+02  0.30127640571E+03  0.69009704467E+03  0.75520806215E+03  0.10566000000E+00 0. -1.
         -4    1    3    3    0  501 -0.31684634642E+03 -0.72097828807E+03  0.14012553475E+04  0.16073947393E+04  0.00000000000E+00 0. -1.
<mgrwt>
<rscale>  0 0.10869602E+04</rscale>
<asrwt>0</asrwt>
<pdfrwt beam="2">  1        4 0.22942715E+00 0.10749026E+04</pdfrwt>
<pdfrwt beam="1">  1       -4 0.37539254E+00 0.10991529E+04</pdfrwt>
<totfact> 0.49769748E-02</totfact>
</mgrwt>
</event>
<event>
 8    1  0.2939692E-006  0.1068247E+04  0.7818608E-02  0.8718192E-01
         -4   -1    0    0    0  501 -0.00000000000E+00  0.00000000000E+00  0.12520037929E+04  0.12520037929E+04  0.00000000000E+00 0. -1.
          4   -1    0    0  502    0  0.00000000000E+00 -0.00000000000E+00 -0.12712973035E+04  0.12712973035E+04  0.00000000000E+00 0.  1.
   -9000010    2    1    2    0  501  0.24026588101E+03  0.21642833294E+03  0.67101505161E+03  0.12514212684E+04  0.10055968748E+04 0.  0.
    9000010    2    1    2  502    0 -0.24026588101E+03 -0.21642833294E+03 -0.69030856214E+03  0.12718798280E+04  0.10181274326E+04 0.  0.
        -13    1    4    4    0    0  0.22280646021E+03 -0.46074175814E+03 -0.49804531716E+03  0.71412522397E+03  0.10566000000E+00 0.  1.
          4    1    4    4  502    0 -0.46307234123E+03  0.24431342519E+03 -0.19226324498E+03  0.55775460402E+03  0.00000000000E+00 0.  1.
         13    1    3    3    0    0 -0.31508254183E+03  0.27131059208E+03  0.53400939564E+03  0.67679575305E+03  0.10566000000E+00 0. -1.
         -4    1    3    3    0  501  0.55534842285E+03 -0.54882259135E+02  0.13700565596E+03  0.57462551535E+03  0.00000000000E+00 0. -1.
<mgrwt>
<rscale>  0 0.10622627E+04</rscale>
<asrwt>0</asrwt>
<pdfrwt beam="2">  1        4 0.19558420E+00 0.10682473E+04</pdfrwt>
<pdfrwt beam="1">  1       -4 0.19261597E+00 0.10563115E+04</pdfrwt>
<totfact> 0.19692451E-01</totfact>
</mgrwt>
</event>
<event>
 8    1  0.2939692E-006  0.1412343E+04  0.7818608E-02  0.8465537E-01
          4   -1    0    0  502    0  0.00000000000E+00  0.00000000000E+00  0.17548264343E+04  0.17548264343E+04  0.00000000000E+00 0. -1.
         -4   -1    0    0    0  501 -0.00000000000E+00 -0.00000000000E+00 -0.11307594998E+04  0.11307594998E+04  0.00000000000E+00 0.  1.
   -9000010    2    1    2    0  501  0.32260961222E+03  0.93538790680E+03  0.22809754810E+03  0.14187847674E+04  0.99090576070E+03 0.  0.
    9000010    2    1    2  502    0 -0.32260961222E+03 -0.93538790680E+03  0.39596938637E+03  0.14668011668E+04  0.10078126858E+04 0.  0.
        -13    1    4    4    0    0 -0.48390334919E+03 -0.21746646282E+02  0.12465270417E+03  0.50017364565E+03  0.10566000000E+00 0.  1.
          4    1    4    4  502    0  0.16129373697E+03 -0.91364126052E+03  0.27131668221E+03  0.96662752110E+03  0.00000000000E+00 0.  1.
         13    1    3    3    0    0  0.11789614503E+02  0.90114432927E+03 -0.16529205542E+03  0.91625409791E+03  0.10566000000E+00 0. -1.
         -4    1    3    3    0  501  0.31081999772E+03  0.34243577529E+02  0.39338960353E+03  0.50253066946E+03  0.00000000000E+00 0. -1.
<mgrwt>
<rscale>  0 0.14063234E+04</rscale>
<asrwt>0</asrwt>
<pdfrwt beam="1">  1        4 0.26997330E+00 0.14123434E+04</pdfrwt>
<pdfrwt beam="2">  1       -4 0.17396300E+00 0.14003291E+04</pdfrwt>
<totfact> 0.14527045E-01</totfact>
</mgrwt>
</event>
<event>
 8    1  0.2939692E-006  0.1103770E+04  0.7818608E-02  0.8686413E-01
         -4   -1    0    0    0  501 -0.00000000000E+00  0.00000000000E+00  0.19658147537E+04  0.19658147537E+04  0.00000000000E+00 0. -1.
          4   -1    0    0  502    0  0.00000000000E+00 -0.00000000000E+00 -0.15388667860E+04  0.15388667860E+04  0.00000000000E+00 0.  1.
   -9000010    2    1    2    0  501 -0.20489813841E+03  0.39393555248E+03  0.15716537668E+04  0.19205215783E+04  0.10105142768E+04 0.  0.
    9000010    2    1    2  502    0  0.20489813841E+03 -0.39393555248E+03 -0.11447057991E+04  0.15841599613E+04  0.10010209537E+04 0.  0.
        -13    1    4    4    0    0 -0.60821470758E+02 -0.69179177416E+03 -0.76598463148E+03  0.10339282262E+04  0.10566000000E+00 0.  1.
          4    1    4    4  502    0  0.26571960916E+03  0.29785622168E+03 -0.37872116761E+03  0.55023173507E+03  0.00000000000E+00 0.  1.
         13    1    3    3    0    0 -0.16504386826E+03  0.27139212350E+02  0.15412682245E+04  0.15503173115E+04  0.10566000000E+00 0. -1.
         -4    1    3    3    0  501 -0.39854270150E+02  0.36679634013E+03  0.30385542240E+02  0.37020426680E+03  0.00000000000E+00 0. -1.
<mgrwt>
<rscale>  0 0.10994188E+04</rscale>
<asrwt>0</asrwt>
<pdfrwt beam="2">  1        4 0.23674873E+00 0.10950851E+04</pdfrwt>
<pdfrwt beam="1">  1       -4 0.30243304E+00 0.11037697E+04</pdfrwt>
<totfact> 0.80916106E-02</totfact>
</mgrwt>
</event>
<event>
 8    1  0.2939692E-006  0.1471104E+04  0.7818608E-02  0.8426474E-01
          4   -1    0    0  502    0  0.00000000000E+00  0.00000000000E+00  0.18501435896E+04  0.18501435896E+04  0.00000000000E+00 0.  1.
         -4   -1    0    0    0  501 -0.00000000000E+00 -0.00000000000E+00 -0.34758948709E+04  0.34758948709E+04  0.00000000000E+00 0. -1.
   -9000010    2    1    2    0  501  0.86439152197E+03  0.65412423682E+03 -0.29822491790E+04  0.33253505222E+04  0.99453240754E+03 0.  0.
    9000010    2    1    2  502    0 -0.86439152197E+03 -0.65412423682E+03  0.13564978977E+04  0.20006879383E+04  0.99378793475E+03 0.  0.
        -13    1    4    4    0    0 -0.39831752608E+03 -0.45993061357E+03  0.62457887445E+02  0.61163225859E+03  0.10566000000E+00 0.  1.
          4    1    4    4  502    0 -0.46607399590E+03 -0.19419362325E+03  0.12940400103E+04  0.13890556797E+04  0.00000000000E+00 0.  1.
         13    1    3    3    0    0  0.98528557101E+03  0.51251714882E+03 -0.17064334356E+04  0.20360197852E+04  0.10566000000E+00 0. -1.
         -4    1    3    3    0  501 -0.12089404903E+03  0.14160708800E+03 -0.12758157434E+04  0.12893307371E+04  0.00000000000E+00 0. -1.
<mgrwt>
<rscale>  0 0.14708520E+04</rscale>
<asrwt>0</asrwt>
<pdfrwt beam="1">  1        4 0.28463748E+00 0.14706004E+04</pdfrwt>
<pdfrwt beam="2">  1       -4 0.53475305E+00 0.14711036E+04</pdfrwt>
<totfact> 0.68255307E-03</totfact>
</mgrwt>
</event>
<event>
 8    1  0.2939692E-006  0.1278933E+04  0.7818608E-02  0.8568300E-01
         -4   -1    0    0    0  501 -0.00000000000E+00  0.00000000000E+00  0.15370119161E+04  0.15370119161E+04  0.00000000000E+00 0. -1.
          4   -1    0    0  502    0  0.00000000000E+00 -0.00000000000E+00 -0.16383301255E+04  0.16383301255E+04  0.00000000000E+00 0.  1.
   -9000010    2    1    2    0  501 -0.31097199621E+03  0.75622344450E+03  0.92349313959E+03  0.15775010210E+04  0.98340856816E+03 0.  0.
    9000010    2    1    2  502    0  0.31097199621E+03 -0.75622344450E+03 -0.10248113490E+04  0.15978410205E+04  0.91338937234E+03 0.  0.
        -13    1    4    4    0    0  0.59222336650E+02  0.75140209844E+02  0.12461358330E+03  0.15710471858E+03  0.10566000000E+00 0.  1.
          4    1    4    4  502    0  0.25174965956E+03 -0.83136365434E+03 -0.11494249323E+04  0.14407363020E+04  0.00000000000E+00 0.  1.
         13    1    3    3    0    0 -0.62263966137E+03  0.30287790376E+03  0.32598806201E+03  0.76529954935E+03  0.10566000000E+00 0. -1.
         -4    1    3    3    0  501  0.31166766516E+03  0.45334554074E+03  0.59750507758E+03  0.81220147165E+03  0.00000000000E+00 0. -1.
<mgrwt>
<rscale>  0 0.12521414E+04</rscale>
<asrwt>0</asrwt>
<pdfrwt beam="2">  1        4 0.25205079E+00 0.12259109E+04</pdfrwt>
<pdfrwt beam="1">  1       -4 0.23646337E+00 0.12789331E+04</pdfrwt>
<totfact> 0.10727697E-01</totfact>
</mgrwt>
</event>
<event>
 8    1  0.2939692E-006  0.1507024E+04  0.7818608E-02  0.8440008E-01
          4   -1    0    0  502    0  0.00000000000E+00  0.00000000000E+00  0.21544336833E+04  0.21544336833E+04  0.00000000000E+00 0.  1.
         -4   -1    0    0    0  501 -0.00000000000E+00 -0.00000000000E+00 -0.98619013818E+03  0.98619013818E+03  0.00000000000E+00 0. -1.
   -9000010    2    1    2    0  501  0.93543327585E+03  0.42953474756E+03  0.77510155186E+03  0.16946689300E+04  0.11007201524E+04 0.  0.
    9000010    2    1    2  502    0 -0.93543327585E+03 -0.42953474756E+03  0.39314199324E+03  0.14459548914E+04  0.93631693791E+03 0.  0.
        -13    1    4    4    0    0 -0.32676549840E+03 -0.61933571150E+03  0.64534217620E+01  0.70028142364E+03  0.10566000000E+00 0.  1.
          4    1    4    4  502    0 -0.60866777745E+03  0.18980096394E+03  0.38668857148E+03  0.74567346776E+03  0.00000000000E+00 0.  1.
         13    1    3    3    0    0  0.58539113186E+03 -0.32532035490E+03  0.27573615068E+03  0.72425585709E+03  0.10566000000E+00 0. -1.
         -4    1    3    3    0  501  0.35004214399E+03  0.75485510246E+03  0.49936540118E+03  0.97041307296E+03  0.00000000000E+00 0. -1.
<mgrwt>
<rscale>  0 0.14481015E+04</rscale>
<asrwt>0</asrwt>
<pdfrwt beam="1">  1        4 0.33145134E+00 0.13914830E+04</pdfrwt>
<pdfrwt beam="2">  1       -4 0.15172156E+00 0.15070237E+04</pdfrwt>
<totfact> 0.11981612E-01</totfact>
</mgrwt>
</event>
<event>
 8    1  0.2939692E-006  0.1166847E+04  0.7818608E-02  0.8640690E-01
          4   -1    0    0  502    0  0.00000000000E+00  0.00000000000E+00  0.17335264731E+04  0.17335264731E+04  0.00000000000E+00 0.  1.
         -4   -1    0    0    0  501 -0.00000000000E+00 -0.00000000000E+00 -0.89830945431E+03  0.89830945431E+03  0.00000000000E+00 0. -1.
   -9000010    2    1    2    0  501  0.53264029716E+03  0.15133489475E+03 -0.82078979957E+02  0.11475971961E+04  0.10018155664E+04 0.  0.
    9000010    2    1    2  502    0 -0.53264029716E+03 -0.15133489475E+03  0.91729599872E+03  0.14842387313E+04  0.10270952856E+04 0.  0.
        -13    1    4    4    0    0 -0.20837400929E+03  0.43057199106E+03  0.24357559424E+03  0.53678771270E+03  0.10566000000E+00 0.  1.
          4    1    4    4  502    0 -0.32426628787E+03 -0.58190688581E+03  0.67372040448E+03  0.94745101858E+03  0.00000000000E+00 0.  1.
         13    1    3    3    0    0  0.35139521087E+03  0.51812849977E+03  0.19237582049E+03  0.65493832074E+03  0.10566000000E+00 0. -1.
         -4    1    3    3    0  501  0.18124508629E+03 -0.36679360502E+03 -0.27445480044E+03  0.49265887536E+03  0.00000000000E+00 0. -1.
<mgrwt>
<rscale>  0 0.11556995E+04</rscale>
<asrwt>0</asrwt>
<pdfrwt beam="1">  1        4 0.26669638E+00 0.11668473E+04</pdfrwt>
<pdfrwt beam="2">  1       -4 0.13820145E+00 0.11446582E+04</pdfrwt>
<totfact> 0.20872264E-01</totfact>
</mgrwt>
</event>
<event>
 8    1  0.2939692E-006  0.9276493E+03  0.7818608E-02  0.8926651E-01
         -4   -1    0    0    0  501 -0.00000000000E+00  0.00000000000E+00  0.15254059753E+04  0.15254059753E+04  0.00000000000E+00 0. -1.
          4   -1    0    0  502    0  0.00000000000E+00 -0.00000000000E+00 -0.72862623227E+03  0.72862623227E+03  0.00000000000E+00 0.  1.
   -9000010    2    1    2    0  501 -0.10153905085E+03 -0.12126086333E+03  0.10328735569E+04  0.12968104140E+04  0.76803326064E+03 0.  0.
    9000010    2    1    2  502    0  0.10153905085E+03  0.12126086333E+03 -0.23609381383E+03  0.95722179362E+03  0.91406722807E+03 0.  0.
        -13    1    4    4    0    0  0.30509978353E+03  0.44536170012E+03 -0.88638486041E+02  0.54707377401E+03  0.10566000000E+00 0.  1.
          4    1    4    4  502    0 -0.20356073268E+03 -0.32410083679E+03 -0.14745532779E+03  0.41014801961E+03  0.00000000000E+00 0.  1.
         13    1    3    3    0    0 -0.11853809297E+03  0.17133722597E+03 -0.14840599125E+02  0.20887311707E+03  0.10566000000E+00 0. -1.
         -4    1    3    3    0  501  0.16999042117E+02 -0.29259808930E+03  0.10477141560E+04  0.10879372969E+04  0.00000000000E+00 0. -1.
<mgrwt>
<rscale>  0 0.85288638E+03</rscale>
<asrwt>0</asrwt>
<pdfrwt beam="2">  1        4 0.11209634E+00 0.92764933E+03</pdfrwt>
<pdfrwt beam="1">  1       -4 0.23467784E+00 0.78414888E+03</pdfrwt>
<totfact> 0.35484432E-01</totfact>
</mgrwt>
</event>
<event>
 8    1  0.2939692E-006  0.1608847E+04  0.7818608E-02  0.8352549E-01
          4   -1    0    0  502    0  0.00000000000E+00  0.00000000000E+00  0.17420939875E+04  0.17420939875E+04  0.00000000000E+00 0.  1.
         -4   -1    0    0    0  501 -0.00000000000E+00 -0.00000000000E+00 -0.32081885537E+04  0.32081885537E+04  0.00000000000E+00 0. -1.
   -9000010    2    1    2    0  501  0.12450984667E+04  0.21345614326E+03 -0.25534589142E+04  0.30180359846E+04  0.99627057621E+03 0.  0.
    9000010    2    1    2  502    0 -0.12450984667E+04 -0.21345614326E+03  0.10873643480E+04  0.19322465566E+04  0.97743634745E+03 0.  0.
        -13    1    4    4    0    0  0.13777962531E+03 -0.39540845277E+01 -0.31192246674E+02  0.14132171578E+03  0.10566000000E+00 0.  1.
          4    1    4    4  502    0 -0.13828780920E+04 -0.20950205874E+03  0.11185565947E+04  0.17909248408E+04  0.00000000000E+00 0.  1.
         13    1    3    3    0    0  0.62986274195E+03  0.23743521389E+03 -0.41059901871E+03  0.78847582070E+03  0.10566000000E+00 0. -1.
         -4    1    3    3    0  501  0.61523572477E+03 -0.23979070630E+02 -0.21428598955E+04  0.22295601639E+04  0.00000000000E+00 0. -1.
<mgrwt>
<rscale>  0 0.16030393E+04</rscale>
<asrwt>0</asrwt>
<pdfrwt beam="1">  1        4 0.26801446E+00 0.15972525E+04</pdfrwt>
<pdfrwt beam="2">  1       -4 0.49356747E+00 0.16088470E+04</pdfrwt>
<totfact> 0.11566552E-02</totfact>
</mgrwt>
</event>
<event>
 8    1  0.2939692E-006  0.1138499E+04  0.7818608E-02  0.8655460E-01
          4   -1    0    0  502    0  0.00000000000E+00  0.00000000000E+00  0.13639039754E+04  0.13639039754E+04  0.00000000000E+00 0.  1.
         -4   -1    0    0    0  501 -0.00000000000E+00 -0.00000000000E+00 -0.24669095371E+04  0.24669095371E+04  0.00000000000E+00 0. -1.
   -9000010    2    1    2    0  501 -0.43645605216E+03  0.24956080381E+03 -0.20541780419E+04  0.23472677528E+04  0.10184517639E+04 0.  0.
    9000010    2    1    2  502    0  0.43645605216E+03 -0.24956080381E+03  0.95117248014E+03  0.14835457597E+04  0.10214717097E+04 0.  0.
        -13    1    4    4    0    0 -0.17455103172E+03  0.54060932733E+01 -0.12865612920E+03  0.21690942641E+03  0.10566000000E+00 0.  1.
          4    1    4    4  502    0  0.61100708389E+03 -0.25496689708E+03  0.10798286093E+04  0.12666363333E+04  0.00000000000E+00 0.  1.
         13    1    3    3    0    0  0.86549586395E+02 -0.24424360841E+03 -0.12135533696E+04  0.12409099738E+04  0.10566000000E+00 0. -1.
         -4    1    3    3    0  501 -0.52300563856E+03  0.49380441222E+03 -0.84062467232E+03  0.11063577790E+04  0.00000000000E+00 0. -1.
<mgrwt>
<rscale>  0 0.11371434E+04</rscale>
<asrwt>0</asrwt>
<pdfrwt beam="1">  1        4 0.20983138E+00 0.11384985E+04</pdfrwt>
<pdfrwt beam="2">  1       -4 0.37952454E+00 0.11357898E+04</pdfrwt>
<totfact> 0.53625039E-02</totfact>
</mgrwt>
</event>
<event>
 8    1  0.2939692E-006  0.1050695E+04  0.7818608E-02  0.8757439E-01
         -4   -1    0    0    0  501 -0.00000000000E+00  0.00000000000E+00  0.34026880614E+03  0.34026880614E+03  0.00000000000E+00 0. -1.
          4   -1    0    0  502    0  0.00000000000E+00 -0.00000000000E+00 -0.31600119476E+04  0.31600119476E+04  0.00000000000E+00 0.  1.
   -9000010    2    1    2    0  501  0.48134961266E+02  0.31358178737E+03 -0.11278322463E+04  0.15414167143E+04  0.10016533329E+04 0.  0.
    9000010    2    1    2  502    0 -0.48134961266E+02 -0.31358178737E+03 -0.16919108952E+04  0.19588640395E+04  0.93484508666E+03 0.  0.
        -13    1    4    4    0    0  0.32693154128E+03 -0.30726107864E+03 -0.36028782921E+03  0.57541370697E+03  0.10566000000E+00 0.  1.
          4    1    4    4  502    0 -0.37506650254E+03 -0.63207087355E+01 -0.13316230660E+04  0.13834503325E+04  0.00000000000E+00 0.  1.
         13    1    3    3    0    0 -0.22378451653E+03  0.12329884749E+03  0.96332551322E+02  0.27306059262E+03  0.10566000000E+00 0. -1.
         -4    1    3    3    0  501  0.27191947780E+03  0.19028293988E+03 -0.12241647976E+04  0.12683561216E+04  0.00000000000E+00 0. -1.
<mgrwt>
<rscale>  0 0.10184585E+04</rscale>
<asrwt>0</asrwt>
<pdfrwt beam="2">  1        4 0.48615568E+00 0.98721115E+03</pdfrwt>
<pdfrwt beam="1">  1       -4 0.52349048E-01 0.10506950E+04</pdfrwt>
<totfact> 0.22249104E-01</totfact>
</mgrwt>
</event>
<event>
 8    1  0.2939692E-006  0.1024748E+04  0.7818608E-02  0.8752809E-01
         -4   -1    0    0    0  501 -0.00000000000E+00  0.00000000000E+00  0.64411605193E+03  0.64411605193E+03  0.00000000000E+00 0. -1.
          4   -1    0    0  502    0  0.00000000000E+00 -0.00000000000E+00 -0.18457865378E+04  0.18457865378E+04  0.00000000000E+00 0.  1.
   -9000010    2    1    2    0  501 -0.12090790052E+03 -0.15702001864E+03 -0.17224902155E+03  0.10391238779E+04  0.10054027559E+04 0.  0.
    9000010    2    1    2  502    0  0.12090790052E+03  0.15702001864E+03 -0.10294214643E+04  0.14507787118E+04  0.10028839976E+04 0.  0.
        -13    1    4    4    0    0 -0.32014176691E+03  0.36264931789E+03 -0.74153649322E+03  0.88537091697E+03  0.10566000000E+00 0.  1.
          4    1    4    4  502    0  0.44104966743E+03 -0.20562929926E+03 -0.28788497108E+03  0.56540779480E+03  0.00000000000E+00 0.  1.
         13    1    3    3    0    0 -0.36802671186E+03 -0.17860228252E+03 -0.48852051559E+03  0.63717716632E+03  0.10566000000E+00 0. -1.
         -4    1    3    3    0  501  0.24711881133E+03  0.21582263887E+02  0.31627149404E+03  0.40194671161E+03  0.00000000000E+00 0. -1.
<mgrwt>
<rscale>  0 0.10235118E+04</rscale>
<asrwt>0</asrwt>
<pdfrwt beam="2">  1        4 0.28396716E+00 0.10222770E+04</pdfrwt>
<pdfrwt beam="1">  1       -4 0.99094779E-01 0.10247481E+04</pdfrwt>
<totfact> 0.33749515E-01</totfact>
</mgrwt>
</event>
<event>
 8    1  0.2939692E-006  0.1110052E+04  0.7818608E-02  0.8681246E-01
          4   -1    0    0  502    0  0.00000000000E+00  0.00000000000E+00  0.52350278395E+03  0.52350278395E+03  0.00000000000E+00 0.  1.
         -4   -1    0    0    0  501 -0.00000000000E+00 -0.00000000000E+00 -0.34692668685E+04  0.34692668685E+04  0.00000000000E+00 0. -1.
   -9000010    2    1    2    0  501 -0.40737461073E+03 -0.88240742452E+02 -0.26104070002E+04  0.28331660022E+04  0.10192469708E+04 0.  0.
    9000010    2    1    2  502    0  0.40737461073E+03  0.88240742452E+02 -0.33535708434E+03  0.11596036502E+04  0.10288225063E+04 0.  0.
        -13    1    4    4    0    0 -0.65057080235E+02 -0.41483495621E+03 -0.12357936474E+03  0.43771261706E+03  0.10566000000E+00 0.  1.
          4    1    4    4  502    0  0.47243169096E+03  0.50307569866E+03 -0.21177771959E+03  0.72189103314E+03  0.00000000000E+00 0.  1.
         13    1    3    3    0    0  0.30722090995E+03  0.85024265340E+02 -0.12120884308E+04  0.12533045074E+04  0.10566000000E+00 0. -1.
         -4    1    3    3    0  501 -0.71459552068E+03 -0.17326500779E+03 -0.13983185694E+04  0.15798614948E+04  0.00000000000E+00 0. -1.
<mgrwt>
<rscale>  0 0.11056090E+04</rscale>
<asrwt>0</asrwt>
<pdfrwt beam="1">  1        4 0.80538891E-01 0.11100524E+04</pdfrwt>
<pdfrwt beam="2">  1       -4 0.53373336E+00 0.11011834E+04</pdfrwt>
<totfact> 0.53343514E-02</totfact>
</mgrwt>
</event>
<event>
 8    1  0.2939692E-006  0.1013027E+04  0.7818608E-02  0.8771572E-01
         -4   -1    0    0    0  501 -0.00000000000E+00  0.00000000000E+00  0.12130943507E+04  0.12130943507E+04  0.00000000000E+00 0. -1.
          4   -1    0    0  502    0  0.00000000000E+00 -0.00000000000E+00 -0.20801751016E+04  0.20801751016E+04  0.00000000000E+00 0.  1.
   -9000010    2    1    2    0  501  0.18173654321E+03  0.10329502515E+03  0.84478886749E+03  0.13041185786E+04  0.97126670033E+03 0.  0.
    9000010    2    1    2  502    0 -0.18173654321E+03 -0.10329502515E+03 -0.17118696184E+04  0.19891508737E+04  0.99122428073E+03 0.  0.
        -13    1    4    4    0    0 -0.57146059868E+03 -0.12710105324E+03 -0.75274306010E+03  0.95359531211E+03  0.10566000000E+00 0.  1.
          4    1    4    4  502    0  0.38972405547E+03  0.23806028094E+02 -0.95912655826E+03  0.10355555616E+04  0.00000000000E+00 0.  1.
         13    1    3    3    0    0 -0.21630101195E+03 -0.33506643063E+03  0.38648648222E+03  0.55536245174E+03  0.10566000000E+00 0. -1.
         -4    1    3    3    0  501  0.39803755516E+03  0.43836145578E+03  0.45830238528E+03  0.74875612690E+03  0.00000000000E+00 0. -1.
<mgrwt>
<rscale>  0 0.10032197E+04</rscale>
<asrwt>0</asrwt>
<pdfrwt beam="2">  1        4 0.32002693E+00 0.10130270E+04</pdfrwt>
<pdfrwt beam="1">  1       -4 0.18662990E+00 0.99350744E+03</pdfrwt>
<totfact> 0.99344654E-02</totfact>
</mgrwt>
</event>
<event>
 8    1  0.2939692E-006  0.1048553E+04  0.7818608E-02  0.8741777E-01
         -4   -1    0    0    0  501 -0.00000000000E+00  0.00000000000E+00  0.24412674717E+04  0.24412674717E+04  0.00000000000E+00 0. -1.
          4   -1    0    0  502    0  0.00000000000E+00 -0.00000000000E+00 -0.79682402346E+03  0.79682402346E+03  0.00000000000E+00 0.  1.
   -9000010    2    1    2    0  501 -0.87336743137E+02 -0.23554089265E+03  0.19120739665E+04  0.21807084802E+04  0.10180154241E+04 0.  0.
    9000010    2    1    2  502    0  0.87336743137E+02  0.23554089265E+03 -0.26763051828E+03  0.10573830149E+04  0.99162771595E+03 0.  0.
        -13    1    4    4    0    0 -0.54613525784E+02 -0.95239297785E+02  0.33660579619E+03  0.35405738834E+03  0.10566000000E+00 0.  1.
          4    1    4    4  502    0  0.14195026892E+03  0.33078019044E+03 -0.60423631447E+03  0.70332562654E+03  0.00000000000E+00 0.  1.
         13    1    3    3    0    0  0.72277127831E+02 -0.37438042059E+03  0.15605479357E+03  0.41199246630E+03  0.10566000000E+00 0. -1.
         -4    1    3    3    0  501 -0.15961387097E+03  0.13883952794E+03  0.17560191729E+04  0.17687160139E+04  0.00000000000E+00 0. -1.
<mgrwt>
<rscale>  0 0.10356737E+04</rscale>
<asrwt>0</asrwt>
<pdfrwt beam="2">  1        4 0.12258831E+00 0.10229530E+04</pdfrwt>
<pdfrwt beam="1">  1       -4 0.37557961E+00 0.10485526E+04</pdfrwt>
<totfact> 0.12125461E-01</totfact>
</mgrwt>
</event>
<event>
 8    1  0.2939692E-006  0.1010297E+04  0.7818608E-02  0.8787955E-01
          4   -1    0    0  502    0  0.00000000000E+00  0.00000000000E+00  0.25908800333E+04  0.25908800333E+04  0.00000000000E+00 0.  1.
         -4   -1    0    0    0  501 -0.00000000000E+00 -0.00000000000E+00 -0.65645132958E+03  0.65645132958E+03  0.00000000000E+00 0. -1.
   -9000010    2    1    2    0  501  0.14020868761E+03  0.64160760991E+02 -0.10855120747E+03  0.96819419154E+03  0.94965338338E+03 0.  0.
    9000010    2    1    2  502    0 -0.14020868761E+03 -0.64160760991E+02  0.20429799112E+04  0.22791371713E+04  0.99846094010E+03 0.  0.
        -13    1    4    4    0    0 -0.44054834684E+02 -0.52884488062E+03  0.96388366533E+03  0.11003133498E+04  0.10566000000E+00 0.  1.
          4    1    4    4  502    0 -0.96153852923E+02  0.46468411963E+03  0.10790962458E+04  0.11788238216E+04  0.00000000000E+00 0.  1.
         13    1    3    3    0    0 -0.35046505809E+03 -0.17349963778E+03 -0.15579429107E+03  0.42095101086E+03  0.10566000000E+00 0. -1.
         -4    1    3    3    0  501  0.49067374569E+03  0.23766039877E+03  0.47243083593E+02  0.54724318068E+03  0.00000000000E+00 0. -1.
<mgrwt>
<rscale>  0 0.98589859E+03</rscale>
<asrwt>0</asrwt>
<pdfrwt beam="1">  1        4 0.39859692E+00 0.10102967E+04</pdfrwt>
<pdfrwt beam="2">  1       -4 0.10099251E+00 0.96208972E+03</pdfrwt>
<totfact> 0.14004756E-01</totfact>
</mgrwt>
</event>
<event>
 8    1  0.2939692E-006  0.1077465E+04  0.7818608E-02  0.8706049E-01
          4   -1    0    0  502    0  0.00000000000E+00  0.00000000000E+00  0.24088978634E+04  0.24088978634E+04  0.00000000000E+00 0.  1.
         -4   -1    0    0    0  501 -0.00000000000E+00 -0.00000000000E+00 -0.68085341203E+03  0.68085341203E+03  0.00000000000E+00 0. -1.
   -9000010    2    1    2    0  501  0.21368937451E+03  0.30285034656E+03  0.26089580861E+02  0.10754074568E+04  0.10091774129E+04 0.  0.
    9000010    2    1    2  502    0 -0.21368937451E+03 -0.30285034656E+03  0.17019548705E+04  0.20143438186E+04  0.10117060626E+04 0.  0.
        -13    1    4    4    0    0 -0.45807771399E+03 -0.32851034529E+03  0.16747967795E+04  0.17671158713E+04  0.10566000000E+00 0.  1.
          4    1    4    4  502    0  0.24438833948E+03  0.25659998730E+02  0.27158091063E+02  0.24722794729E+03  0.00000000000E+00 0.  1.
         13    1    3    3    0    0  0.17751373899E+03 -0.29672790456E+02 -0.45509351225E+03  0.48938912746E+03  0.10566000000E+00 0. -1.
         -4    1    3    3    0  501  0.36175635525E+02  0.33252313702E+03  0.48118309311E+03  0.58601832937E+03  0.00000000000E+00 0. -1.
<mgrwt>
<rscale>  0 0.10762773E+04</rscale>
<asrwt>0</asrwt>
<pdfrwt beam="1">  1        4 0.37059967E+00 0.10774649E+04</pdfrwt>
<pdfrwt beam="2">  1       -4 0.10474668E+00 0.10750909E+04</pdfrwt>
<totfact> 0.16635835E-01</totfact>
</mgrwt>
</event>
<event>
 8    1  0.2939692E-006  0.1118282E+04  0.7818608E-02  0.8694839E-01
          4   -1    0    0  502    0  0.00000000000E+00  0.00000000000E+00  0.10180765704E+04  0.10180765704E+04  0.00000000000E+00 0.  1.
         -4   -1    0    0    0  501 -0.00000000000E+00 -0.00000000000E+00 -0.17335863074E+04  0.17335863074E+04  0.00000000000E+00 0. -1.
   -9000010    2    1    2    0  501  0.44471518107E+03 -0.25991329677E+02 -0.11507292417E+04  0.16045973772E+04  0.10257230687E+04 0.  0.
    9000010    2    1    2  502    0 -0.44471518107E+03  0.25991329677E+02  0.43521950473E+03  0.11470655006E+04  0.96327363919E+03 0.  0.
        -13    1    4    4    0    0 -0.43156581636E+03 -0.42421893753E+03  0.19024913638E+03  0.63435440084E+03  0.10566000000E+00 0.  1.
          4    1    4    4  502    0 -0.13149364720E+02  0.45021026721E+03  0.24497036835E+03  0.51271109980E+03  0.00000000000E+00 0.  1.
         13    1    3    3    0    0 -0.30103502336E+03  0.86766185352E+02 -0.13917256384E+03  0.34281112862E+03  0.10566000000E+00 0. -1.
         -4    1    3    3    0  501  0.74575020444E+03 -0.11275751503E+03 -0.10115566779E+04  0.12617862486E+04  0.00000000000E+00 0. -1.
<mgrwt>
<rscale>  0 0.10894151E+04</rscale>
<asrwt>0</asrwt>
<pdfrwt beam="1">  1        4 0.15662717E+00 0.10612932E+04</pdfrwt>
<pdfrwt beam="2">  1       -4 0.26670558E+00 0.11182821E+04</pdfrwt>
<totfact> 0.17376421E-01</totfact>
</mgrwt>
</event>
<event>
 8    1  0.2939692E-006  0.1019139E+04  0.7818608E-02  0.8760395E-01
          4   -1    0    0  502    0  0.00000000000E+00  0.00000000000E+00  0.80538435751E+03  0.80538435751E+03  0.00000000000E+00 0.  1.
         -4   -1    0    0    0  501 -0.00000000000E+00 -0.00000000000E+00 -0.16992683206E+04  0.16992683206E+04  0.00000000000E+00 0. -1.
   -9000010    2    1    2    0  501 -0.17870665176E+03  0.63545400675E+01 -0.10704232161E+04  0.14779887669E+04  0.10033287028E+04 0.  0.
    9000010    2    1    2  502    0  0.17870665176E+03 -0.63545400675E+01  0.17653925300E+03  0.10266639113E+04  0.99543770840E+03 0.  0.
        -13    1    4    4    0    0 -0.29785142662E+03 -0.31888220191E+03  0.25508117651E+02  0.43709496252E+03  0.10566000000E+00 0.  1.
          4    1    4    4  502    0  0.47655807838E+03  0.31252766184E+03  0.15103113535E+03  0.58956894875E+03  0.00000000000E+00 0.  1.
         13    1    3    3    0    0  0.29872822547E+03  0.20681323535E+03 -0.98038934574E+02  0.37632686705E+03  0.10566000000E+00 0. -1.
         -4    1    3    3    0  501 -0.47743487723E+03 -0.20045869529E+03 -0.97238428153E+03  0.11016618998E+04  0.00000000000E+00 0. -1.
<mgrwt>
<rscale>  0 0.10152481E+04</rscale>
<asrwt>0</asrwt>
<pdfrwt beam="1">  1        4 0.12390529E+00 0.10113717E+04</pdfrwt>
<pdfrwt beam="2">  1       -4 0.26142589E+00 0.10191393E+04</pdfrwt>
<totfact> 0.25681232E-01</totfact>
</mgrwt>
</event>
<event>
 8    1  0.2939692E-006  0.1851263E+04  0.7818608E-02  0.8233231E-01
          4   -1    0    0  502    0  0.00000000000E+00  0.00000000000E+00  0.35959507064E+04  0.35959507064E+04  0.00000000000E+00 0.  1.
         -4   -1    0    0    0  501 -0.00000000000E+00 -0.00000000000E+00 -0.13892287059E+04  0.13892287059E+04  0.00000000000E+00 0. -1.
   -9000010    2    1    2    0  501 -0.11780097393E+04 -0.10071003462E+04 -0.29726390208E+03  0.18749773829E+04  0.10125296567E+04 0.  0.
    9000010    2    1    2  502    0  0.11780097393E+04  0.10071003462E+04  0.25039859025E+04  0.31102020294E+04  0.10007263413E+04 0.  0.
        -13    1    4    4    0    0  0.12820116356E+04  0.58347259736E+03  0.19243765807E+04  0.23847891607E+04  0.10566000000E+00 0.  1.
          4    1    4    4  502    0 -0.10400189630E+03  0.42362774881E+03  0.57960932186E+03  0.72541286863E+03  0.00000000000E+00 0.  1.
         13    1    3    3    0    0 -0.60476699412E+03  0.25544891611E+02 -0.33782289013E+03  0.69319548104E+03  0.10566000000E+00 0. -1.
         -4    1    3    3    0  501 -0.57324274521E+03 -0.10326452378E+04  0.40558988054E+02  0.11817819019E+04  0.00000000000E+00 0. -1.
<mgrwt>
<rscale>  0 0.18480455E+04</rscale>
<asrwt>0</asrwt>
<pdfrwt beam="1">  1        4 0.55322318E+00 0.18448337E+04</pdfrwt>
<pdfrwt beam="2">  1       -4 0.21372750E+00 0.18512629E+04</pdfrwt>
<totfact> 0.79674616E-03</totfact>
</mgrwt>
</event>
<event>
 8    1  0.2939692E-006  0.1201283E+04  0.7818608E-02  0.8624349E-01
          4   -1    0    0  502    0  0.00000000000E+00  0.00000000000E+00  0.64547429476E+03  0.64547429476E+03  0.00000000000E+00 0.  1.
         -4   -1    0    0    0  501 -0.00000000000E+00 -0.00000000000E+00 -0.22372063677E+04  0.22372063677E+04  0.00000000000E+00 0. -1.
   -9000010    2    1    2    0  501  0.74242163008E+02 -0.55866960133E+03 -0.10711872913E+04  0.15734641324E+04  0.10053474726E+04 0.  0.
    9000010    2    1    2  502    0 -0.74242163008E+02  0.55866960133E+03 -0.52054478165E+03  0.13092165301E+04  0.10608757848E+04 0.  0.
        -13    1    4    4    0    0 -0.30624881508E+03  0.57367564073E+02  0.22284355603E+03  0.38306479318E+03  0.10566000000E+00 0.  1.
          4    1    4    4  502    0  0.23200665208E+03  0.50130203725E+03 -0.74338833768E+03  0.92615173690E+03  0.00000000000E+00 0.  1.
         13    1    3    3    0    0  0.12633946064E+03  0.26894339880E+03 -0.14611806995E+03  0.33112340993E+03  0.10566000000E+00 0. -1.
         -4    1    3    3    0  501 -0.52097297629E+02 -0.82761300013E+03 -0.92506922135E+03  0.12423407225E+04  0.00000000000E+00 0. -1.
<mgrwt>
<rscale>  0 0.11766589E+04</rscale>
<asrwt>0</asrwt>
<pdfrwt beam="1">  1        4 0.99303739E-01 0.12012831E+04</pdfrwt>
<pdfrwt beam="2">  1       -4 0.34418559E+00 0.11525394E+04</pdfrwt>
<totfact> 0.22697543E-01</totfact>
</mgrwt>
</event>
<event>
 8    1  0.2939692E-006  0.1194825E+04  0.7818608E-02  0.8640099E-01
         -4   -1    0    0    0  501 -0.00000000000E+00  0.00000000000E+00  0.21494385032E+04  0.21494385032E+04  0.00000000000E+00 0. -1.
          4   -1    0    0  502    0  0.00000000000E+00 -0.00000000000E+00 -0.75837145881E+03  0.75837145881E+03  0.00000000000E+00 0.  1.
   -9000010    2    1    2    0  501 -0.44740763132E+03  0.30139164705E+03  0.12912078768E+04  0.17088195798E+04  0.98073241085E+03 0.  0.
    9000010    2    1    2  502    0  0.44740763132E+03 -0.30139164705E+03  0.99859167581E+02  0.11989903822E+04  0.10661123626E+04 0.  0.
        -13    1    4    4    0    0  0.52701684779E+03 -0.26202105866E+03 -0.38680627955E+03  0.70428751380E+03  0.10566000000E+00 0.  1.
          4    1    4    4  502    0 -0.79609216463E+02 -0.39370588386E+02  0.48666544713E+03  0.49470286840E+03  0.00000000000E+00 0.  1.
         13    1    3    3    0    0  0.25859706831E+03  0.27672219172E+03  0.66255388233E+03  0.76316791946E+03  0.10566000000E+00 0. -1.
         -4    1    3    3    0  501 -0.70600469964E+03  0.24669455326E+02  0.62865399444E+03  0.94565166032E+03  0.00000000000E+00 0. -1.
<mgrwt>
<rscale>  0 0.11564492E+04</rscale>
<asrwt>0</asrwt>
<pdfrwt beam="2">  1        4 0.11667253E+00 0.11948247E+04</pdfrwt>
<pdfrwt beam="1">  1       -4 0.33068284E+00 0.11193063E+04</pdfrwt>
<totfact> 0.18582614E-01</totfact>
</mgrwt>
</event>
<event>
 8    1  0.2939692E-006  0.1058265E+04  0.7818608E-02  0.8747102E-01
          4   -1    0    0  502    0  0.00000000000E+00  0.00000000000E+00  0.10152975291E+04  0.10152975291E+04  0.00000000000E+00 0.  1.
         -4   -1    0    0    0  501 -0.00000000000E+00 -0.00000000000E+00 -0.11213903271E+04  0.11213903271E+04  0.00000000000E+00 0. -1.
   -9000010    2    1    2    0  501  0.40491375868E+03  0.72714181173E+02 -0.32998246973E+03  0.10549988913E+04  0.91372409742E+03 0.  0.
    9000010    2    1    2  502    0 -0.40491375868E+03 -0.72714181173E+02  0.22388967175E+03  0.10816889650E+04  0.97502919326E+03 0.  0.
        -13    1    4    4    0    0  0.25487280188E+03 -0.22585016121E+03  0.21799344700E+03  0.40433846534E+03  0.10566000000E+00 0.  1.
          4    1    4    4  502    0 -0.65978656056E+03  0.15313598004E+03  0.58962247465E+01  0.67735049963E+03  0.00000000000E+00 0.  1.
         13    1    3    3    0    0  0.68809606676E+03  0.33772504390E+02 -0.11760359898E+03  0.69889011783E+03  0.10566000000E+00 0. -1.
         -4    1    3    3    0  501 -0.28318230808E+03  0.38941676783E+02 -0.21237887075E+03  0.35610877347E+03  0.00000000000E+00 0. -1.
<mgrwt>
<rscale>  0 0.10297816E+04</rscale>
<asrwt>0</asrwt>
<pdfrwt beam="1">  1        4 0.15619962E+00 0.10582648E+04</pdfrwt>
<pdfrwt beam="2">  1       -4 0.17252159E+00 0.10020650E+04</pdfrwt>
<totfact> 0.31177538E-01</totfact>
</mgrwt>
</event>
<event>
 8    1  0.2939692E-006  0.1147617E+04  0.7818608E-02  0.8647456E-01
          4   -1    0    0  502    0  0.00000000000E+00  0.00000000000E+00  0.68580608426E+03  0.68580608426E+03  0.00000000000E+00 0. -1.
         -4   -1    0    0    0  501 -0.00000000000E+00 -0.00000000000E+00 -0.25373895809E+04  0.25373895809E+04  0.00000000000E+00 0.  1.
   -9000010    2    1    2    0  501  0.30688839386E+03  0.45917143561E+03 -0.17217669415E+04  0.20691798276E+04  0.10059845250E+04 0.  0.
    9000010    2    1    2  502    0 -0.30688839386E+03 -0.45917143561E+03 -0.12981655505E+03  0.11540158375E+04  0.10049285157E+04 0.  0.
        -13    1    4    4    0    0  0.16833404181E+03 -0.41771724553E+03 -0.40296393571E+03  0.60432109966E+03  0.10566000000E+00 0.  1.
          4    1    4    4  502    0 -0.47522243567E+03 -0.41454190080E+02  0.27314738066E+03  0.54969473783E+03  0.00000000000E+00 0.  1.
         13    1    3    3    0    0  0.33642154463E+03  0.75179687225E+03 -0.10397244818E+04  0.13264256489E+04  0.10566000000E+00 0. -1.
         -4    1    3    3    0  501 -0.29533150768E+02 -0.29262543663E+03 -0.68204245974E+03  0.74275417875E+03  0.00000000000E+00 0. -1.
<mgrwt>
<rscale>  0 0.11471537E+04</rscale>
<asrwt>0</asrwt>
<pdfrwt beam="1">  1        4 0.10550863E+00 0.11466910E+04</pdfrwt>
<pdfrwt beam="2">  1       -4 0.39036762E+00 0.11476166E+04</pdfrwt>
<totfact> 0.13755328E-01</totfact>
</mgrwt>
</event>
<event>
 8    1  0.2939692E-006  0.1122677E+04  0.7818608E-02  0.8668357E-01
         -4   -1    0    0    0  501 -0.00000000000E+00  0.00000000000E+00  0.79434448439E+03  0.79434448439E+03  0.00000000000E+00 0. -1.
          4   -1    0    0  502    0  0.00000000000E+00 -0.00000000000E+00 -0.26144628349E+04  0.26144628349E+04  0.00000000000E+00 0.  1.
   -9000010    2    1    2    0  501  0.51180431444E+03  0.73896186189E+02  0.16137849556E+03  0.11313671634E+04  0.99324938311E+03 0.  0.
    9000010    2    1    2  502    0 -0.51180431444E+03 -0.73896186189E+02 -0.19814968461E+04  0.22774401559E+04  0.99649365776E+03 0.  0.
        -13    1    4    4    0    0 -0.48191732445E+03 -0.43594805258E+03 -0.16933323721E+04  0.18137446198E+04  0.10566000000E+00 0.  1.
          4    1    4    4  502    0 -0.29886989995E+02  0.36205186639E+03 -0.28816447392E+03  0.46369553606E+03  0.00000000000E+00 0.  1.
         13    1    3    3    0    0  0.55407239566E+02  0.49406188610E+03  0.10774391646E+03  0.50870017907E+03  0.10566000000E+00 0. -1.
         -4    1    3    3    0  501  0.45639707488E+03 -0.42016569991E+03  0.53634579098E+02  0.62266698436E+03  0.00000000000E+00 0. -1.
<mgrwt>
<rscale>  0 0.11212369E+04</rscale>
<asrwt>0</asrwt>
<pdfrwt beam="2">  1        4 0.40222504E+00 0.11226771E+04</pdfrwt>
<pdfrwt beam="1">  1       -4 0.12220685E+00 0.11197985E+04</pdfrwt>
<totfact> 0.95689538E-02</totfact>
</mgrwt>
</event>
<event>
 8    1  0.2939692E-006  0.1857201E+04  0.7818608E-02  0.8229460E-01
         -4   -1    0    0    0  501 -0.00000000000E+00  0.00000000000E+00  0.20687647171E+04  0.20687647171E+04  0.00000000000E+00 0. -1.
          4   -1    0    0  502    0  0.00000000000E+00 -0.00000000000E+00 -0.43864718968E+04  0.43864718968E+04  0.00000000000E+00 0.  1.
   -9000010    2    1    2    0  501 -0.15541676243E+04  0.14978429823E+03  0.13828053762E+04  0.23154584800E+04  0.10056465201E+04 0.  0.
    9000010    2    1    2  502    0  0.15541676243E+04 -0.14978429823E+03 -0.37005125559E+04  0.41397781339E+04  0.10030441070E+04 0.  0.
        -13    1    4    4    0    0  0.11167881764E+04  0.36259929536E+03 -0.21629417398E+04  0.24610995634E+04  0.10566000000E+00 0.  1.
          4    1    4    4  502    0  0.43737944794E+03 -0.51238359359E+03 -0.15375708161E+04  0.16786785705E+04  0.00000000000E+00 0.  1.
         13    1    3    3    0    0 -0.14736480157E+04  0.28954569388E+03  0.14949206376E+04  0.21190240458E+04  0.10566000000E+00 0. -1.
         -4    1    3    3    0  501 -0.80519608646E+02 -0.13976139565E+03 -0.11211526134E+03  0.19643443414E+03  0.00000000000E+00 0. -1.
<mgrwt>
<rscale>  0 0.18564974E+04</rscale>
<asrwt>0</asrwt>
<pdfrwt beam="2">  1        4 0.67484182E+00 0.18557936E+04</pdfrwt>
<pdfrwt beam="1">  1       -4 0.31827150E+00 0.18572015E+04</pdfrwt>
<totfact> 0.92811540E-04</totfact>
</mgrwt>
</event>
<event>
 8    1  0.2939692E-006  0.1164064E+04  0.7818608E-02  0.8641954E-01
          4   -1    0    0  502    0  0.00000000000E+00  0.00000000000E+00  0.13855588198E+04  0.13855588198E+04  0.00000000000E+00 0.  1.
         -4   -1    0    0    0  501 -0.00000000000E+00 -0.00000000000E+00 -0.16702526944E+04  0.16702526944E+04  0.00000000000E+00 0. -1.
   -9000010    2    1    2    0  501  0.42504918274E+03 -0.33604124609E+03 -0.11384177944E+04  0.16282016000E+04  0.10302693088E+04 0.  0.
    9000010    2    1    2  502    0 -0.42504918274E+03  0.33604124609E+03  0.85372391982E+03  0.14276099143E+04  0.10077871845E+04 0.  0.
        -13    1    4    4    0    0  0.24724742649E+03  0.37521072661E+03  0.20999480204E+03  0.49599617672E+03  0.10566000000E+00 0.  1.
          4    1    4    4  502    0 -0.67229660923E+03 -0.39169480519E+02  0.64372911777E+03  0.93161373758E+03  0.00000000000E+00 0.  1.
         13    1    3    3    0    0 -0.33530209029E+03 -0.20103642315E+03 -0.35318888283E+03  0.52686386601E+03  0.10566000000E+00 0. -1.
         -4    1    3    3    0  501  0.76035127303E+03 -0.13500482294E+03 -0.78522891159E+03  0.11013377339E+04  0.00000000000E+00 0. -1.
<mgrwt>
<rscale>  0 0.11540964E+04</rscale>
<asrwt>0</asrwt>
<pdfrwt beam="1">  1        4 0.21316289E+00 0.11442139E+04</pdfrwt>
<pdfrwt beam="2">  1       -4 0.25696195E+00 0.11640642E+04</pdfrwt>
<totfact> 0.12021869E-01</totfact>
</mgrwt>
</event>
<event>
 8    1  0.2939692E-006  0.1078585E+04  0.7818608E-02  0.8708334E-01
         -4   -1    0    0    0  501 -0.00000000000E+00  0.00000000000E+00  0.14703342505E+04  0.14703342505E+04  0.00000000000E+00 0. -1.
          4   -1    0    0  502    0  0.00000000000E+00 -0.00000000000E+00 -0.13803958168E+04  0.13803958168E+04  0.00000000000E+00 0.  1.
   -9000010    2    1    2    0  501  0.10579072119E+03 -0.34620798445E+03  0.98200553436E+03  0.14586572503E+04  0.10160189266E+04 0.  0.
    9000010    2    1    2  502    0 -0.10579072119E+03  0.34620798445E+03 -0.89206710063E+03  0.13920728170E+04  0.10055005572E+04 0.  0.
        -13    1    4    4    0    0  0.93255127228E+02 -0.32679923796E+03 -0.44508905382E+03  0.55999869436E+03  0.10566000000E+00 0.  1.
          4    1    4    4  502    0 -0.19904584842E+03  0.67300722241E+03 -0.44697804681E+03  0.83207412261E+03  0.00000000000E+00 0.  1.
         13    1    3    3    0    0  0.11985222646E+03 -0.47050586371E+03  0.11505284940E+04  0.12487818667E+04  0.10566000000E+00 0. -1.
         -4    1    3    3    0  501 -0.14061505261E+02  0.12429787926E+03 -0.16852295965E+03  0.20987538362E+03  0.00000000000E+00 0. -1.
<mgrwt>
<rscale>  0 0.10736226E+04</rscale>
<asrwt>0</asrwt>
<pdfrwt beam="2">  1        4 0.21236859E+00 0.10686828E+04</pdfrwt>
<pdfrwt beam="1">  1       -4 0.22620527E+00 0.10785852E+04</pdfrwt>
<totfact> 0.14399350E-01</totfact>
</mgrwt>
</event>
<event>
 8    1  0.2939692E-006  0.1462112E+04  0.7818608E-02  0.8438181E-01
          4   -1    0    0  502    0  0.00000000000E+00  0.00000000000E+00  0.96309330480E+03  0.96309330480E+03  0.00000000000E+00 0.  1.
         -4   -1    0    0    0  501 -0.00000000000E+00 -0.00000000000E+00 -0.22341449610E+04  0.22341449610E+04  0.00000000000E+00 0. -1.
   -9000010    2    1    2    0  501 -0.58450794215E+03 -0.89391495982E+03 -0.87327729001E+03  0.17030514399E+04  0.99851764731E+03 0.  0.
    9000010    2    1    2  502    0  0.58450794215E+03  0.89391495982E+03 -0.39777436623E+03  0.14941868259E+04  0.96624858832E+03 0.  0.
        -13    1    4    4    0    0 -0.10558195420E+03  0.47011966530E+03  0.16355863872E+03  0.50883345824E+03  0.10566000000E+00 0.  1.
          4    1    4    4  502    0  0.69008989635E+03  0.42379529452E+03 -0.56133300496E+03  0.98535336766E+03  0.00000000000E+00 0.  1.
         13    1    3    3    0    0 -0.74785019713E+03 -0.23635344999E+03 -0.48440603093E+03  0.92184168089E+03  0.10566000000E+00 0. -1.
         -4    1    3    3    0  501  0.16334225498E+03 -0.65756150984E+03 -0.38887125908E+03  0.78120975904E+03  0.00000000000E+00 0. -1.
<mgrwt>
<rscale>  0 0.14511484E+04</rscale>
<asrwt>0</asrwt>
<pdfrwt beam="1">  1        4 0.14816820E+00 0.14402673E+04</pdfrwt>
<pdfrwt beam="2">  1       -4 0.34371461E+00 0.14621118E+04</pdfrwt>
<totfact> 0.11365238E-01</totfact>
</mgrwt>
</event>
<event>
 8    1  0.2939692E-006  0.1405940E+04  0.7818608E-02  0.8477788E-01
         -4   -1    0    0    0  501 -0.00000000000E+00  0.00000000000E+00  0.13764321543E+04  0.13764321543E+04  0.00000000000E+00 0. -1.
          4   -1    0    0  502    0  0.00000000000E+00 -0.00000000000E+00 -0.24352209385E+04  0.24352209385E+04  0.00000000000E+00 0.  1.
   -9000010    2    1    2    0  501 -0.94225826145E+03  0.10223263095E+03  0.71047936099E+03  0.15752612803E+04  0.10384435645E+04 0.  0.
    9000010    2    1    2  502    0  0.94225826145E+03 -0.10223263095E+03 -0.17692681452E+04  0.22363918125E+04  0.98632470674E+03 0.  0.
        -13    1    4    4    0    0  0.14135214450E+03 -0.29983102334E+03 -0.57785720676E+02  0.33647922966E+03  0.10566000000E+00 0.  1.
          4    1    4    4  502    0  0.80090611695E+03  0.19759839239E+03 -0.17114824245E+04  0.18999125828E+04  0.00000000000E+00 0.  1.
         13    1    3    3    0    0 -0.62542395709E+03  0.56650340018E+03  0.42978014891E+03  0.94699113833E+03  0.10566000000E+00 0. -1.
         -4    1    3    3    0  501 -0.31683430436E+03 -0.46427076923E+03  0.28069921207E+03  0.62827014193E+03  0.00000000000E+00 0. -1.
<mgrwt>
<rscale>  0 0.13867874E+04</rscale>
<asrwt>0</asrwt>
<pdfrwt beam="2">  1        4 0.37464937E+00 0.13678957E+04</pdfrwt>
<pdfrwt beam="1">  1       -4 0.21175879E+00 0.14059400E+04</pdfrwt>
<totfact> 0.54024328E-02</totfact>
</mgrwt>
</event>
<event>
 8    1  0.2939692E-006  0.1100625E+04  0.7818608E-02  0.8690050E-01
          4   -1    0    0  502    0  0.00000000000E+00  0.00000000000E+00  0.32302822265E+04  0.32302822265E+04  0.00000000000E+00 0.  1.
         -4   -1    0    0    0  501 -0.00000000000E+00 -0.00000000000E+00 -0.79422365025E+03  0.79422365025E+03  0.00000000000E+00 0. -1.
   -9000010    2    1    2    0  501  0.42097831474E+03 -0.16755730199E+03 -0.24756681669E+03  0.11281248378E+04  0.10030344610E+04 0.  0.
    9000010    2    1    2  502    0 -0.42097831474E+03  0.16755730199E+03  0.26836253930E+04  0.28963810390E+04  0.99089842182E+03 0.  0.
        -13    1    4    4    0    0 -0.43492832938E+03  0.31955433313E+03  0.26900053394E+04  0.27436119188E+04  0.10566000000E+00 0.  1.
          4    1    4    4  502    0  0.13950014641E+02 -0.15199703114E+03 -0.63799464443E+01  0.15276912024E+03  0.00000000000E+00 0.  1.
         13    1    3    3    0    0 -0.96820636329E+02 -0.35166914326E+03  0.20303296102E+03  0.41745396916E+03  0.10566000000E+00 0. -1.
         -4    1    3    3    0  501  0.51779895107E+03  0.18411184127E+03 -0.45059977771E+03  0.71067086862E+03  0.00000000000E+00 0. -1.
<mgrwt>
<rscale>  0 0.10950872E+04</rscale>
<asrwt>0</asrwt>
<pdfrwt beam="1">  1        4 0.49696649E+00 0.10895769E+04</pdfrwt>
<pdfrwt beam="2">  1       -4 0.12218826E+00 0.11006254E+04</pdfrwt>
<totfact> 0.35917168E-02</totfact>
</mgrwt>
</event>
<event>
 8    1  0.2939692E-006  0.1188421E+04  0.7818608E-02  0.8638822E-01
         -4   -1    0    0    0  501 -0.00000000000E+00  0.00000000000E+00  0.82417159483E+03  0.82417159483E+03  0.00000000000E+00 0. -1.
          4   -1    0    0  502    0  0.00000000000E+00 -0.00000000000E+00 -0.19310788067E+04  0.19310788067E+04  0.00000000000E+00 0.  1.
   -9000010    2    1    2    0  501 -0.52925408619E+03 -0.37656117822E+03  0.39278014949E+01  0.11285057296E+04  0.92282259692E+03 0.  0.
    9000010    2    1    2  502    0  0.52925408619E+03  0.37656117822E+03 -0.11108350134E+04  0.16267446720E+04  0.99520630630E+03 0.  0.
        -13    1    4    4    0    0  0.32052127978E+03  0.66635588562E+03 -0.10171478975E+04  0.12575189516E+04  0.10566000000E+00 0.  1.
          4    1    4    4  502    0  0.20873280641E+03 -0.28979470739E+03 -0.93687115916E+02  0.36922572039E+03  0.00000000000E+00 0.  1.
         13    1    3    3    0    0  0.23308234794E+03 -0.26557284075E+03  0.49424373732E+02  0.35678998662E+03  0.10566000000E+00 0. -1.
         -4    1    3    3    0  501 -0.76233643413E+03 -0.11098833747E+03 -0.45496572237E+02  0.77171574296E+03  0.00000000000E+00 0. -1.
<mgrwt>
<rscale>  0 0.11580723E+04</rscale>
<asrwt>0</asrwt>
<pdfrwt beam="2">  1        4 0.29708904E+00 0.11884207E+04</pdfrwt>
<pdfrwt beam="1">  1       -4 0.12679563E+00 0.11284989E+04</pdfrwt>
<totfact> 0.19971840E-01</totfact>
</mgrwt>
</event>
<event>
 8    1  0.2939692E-006  0.1313523E+04  0.7818608E-02  0.8555397E-01
          4   -1    0    0  502    0  0.00000000000E+00  0.00000000000E+00  0.19226809859E+04  0.19226809859E+04  0.00000000000E+00 0.  1.
         -4   -1    0    0    0  501 -0.00000000000E+00 -0.00000000000E+00 -0.97608320243E+03  0.97608320243E+03  0.00000000000E+00 0. -1.
   -9000010    2    1    2    0  501  0.67252253878E+03  0.24754075905E+03 -0.53474075783E+02  0.13146106332E+04  0.11008081792E+04 0.  0.
    9000010    2    1    2  502    0 -0.67252253878E+03 -0.24754075905E+03  0.10000718592E+04  0.15841535551E+04  0.99791571289E+03 0.  0.
        -13    1    4    4    0    0 -0.78849165535E+03 -0.24669359088E+03  0.30689249750E+03  0.88133979516E+03  0.10566000000E+00 0.  1.
          4    1    4    4  502    0  0.11596911657E+03 -0.84716817176E+00  0.69317936170E+03  0.70281375996E+03  0.00000000000E+00 0.  1.
         13    1    3    3    0    0  0.12718092470E+03 -0.40315821330E+03 -0.17389137776E+03  0.45711022192E+03  0.10566000000E+00 0. -1.
         -4    1    3    3    0  501  0.54534161408E+03  0.65069897235E+03  0.12041730198E+03  0.85750041124E+03  0.00000000000E+00 0. -1.
<mgrwt>
<rscale>  0 0.12703394E+04</rscale>
<asrwt>0</asrwt>
<pdfrwt beam="1">  1        4 0.29579707E+00 0.12285759E+04</pdfrwt>
<pdfrwt beam="2">  1       -4 0.15016665E+00 0.13135226E+04</pdfrwt>
<totfact> 0.15469361E-01</totfact>
</mgrwt>
</event>
<event>
 8    1  0.2939692E-006  0.1497455E+04  0.7818608E-02  0.8420688E-01
          4   -1    0    0  502    0  0.00000000000E+00  0.00000000000E+00  0.21340558314E+04  0.21340558314E+04  0.00000000000E+00 0.  1.
         -4   -1    0    0    0  501 -0.00000000000E+00 -0.00000000000E+00 -0.39543101394E+04  0.39543101394E+04  0.00000000000E+00 0. -1.
   -9000010    2    1    2    0  501  0.58495477721E+03  0.91842834083E+03 -0.35264000295E+04  0.38182769897E+04  0.97880503336E+03 0.  0.
    9000010    2    1    2  502    0 -0.58495477721E+03 -0.91842834083E+03  0.17061457215E+04  0.22700889810E+04  0.10279533308E+04 0.  0.
        -13    1    4    4    0    0  0.25012053189E+03 -0.65864350364E+02  0.12000483663E+03  0.28513078595E+03  0.10566000000E+00 0.  1.
          4    1    4    4  502    0 -0.83507530910E+03 -0.85256399046E+03  0.15861408848E+04  0.19849581951E+04  0.00000000000E+00 0.  1.
         13    1    3    3    0    0  0.98571895198E+02  0.78179848602E+03 -0.11855924373E+04  0.14235711186E+04  0.10566000000E+00 0. -1.
         -4    1    3    3    0  501  0.48638288201E+03  0.13662985481E+03 -0.23408075923E+04  0.23947058711E+04  0.00000000000E+00 0. -1.
<mgrwt>
<rscale>  0 0.14807099E+04</rscale>
<asrwt>0</asrwt>
<pdfrwt beam="1">  1        4 0.32831629E+00 0.14974548E+04</pdfrwt>
<pdfrwt beam="2">  1       -4 0.60835540E+00 0.14641523E+04</pdfrwt>
<totfact> 0.20932683E-03</totfact>
</mgrwt>
</event>
<event>
 8    1  0.2939692E-006  0.1339716E+04  0.7818608E-02  0.8508884E-01
          4   -1    0    0  502    0  0.00000000000E+00  0.00000000000E+00  0.18195984804E+04  0.18195984804E+04  0.00000000000E+00 0.  1.
         -4   -1    0    0    0  501 -0.00000000000E+00 -0.00000000000E+00 -0.14126802173E+04  0.14126802173E+04  0.00000000000E+00 0. -1.
   -9000010    2    1    2    0  501  0.39571662968E+03  0.83523237369E+03 -0.68607519538E+03  0.15032694601E+04  0.96691009239E+03 0.  0.
    9000010    2    1    2  502    0 -0.39571662968E+03 -0.83523237369E+03  0.10929934585E+04  0.17290092376E+04  0.96986260589E+03 0.  0.
        -13    1    4    4    0    0 -0.42651594356E+03 -0.67082750280E+03  0.19895175254E+03  0.81945542870E+03  0.10566000000E+00 0.  1.
          4    1    4    4  502    0  0.30799313877E+02 -0.16440487089E+03  0.89404170592E+03  0.90955380887E+03  0.00000000000E+00 0.  1.
         13    1    3    3    0    0  0.19343960741E+03 -0.10038107368E+03 -0.47562721619E+03  0.52317922514E+03  0.10566000000E+00 0. -1.
         -4    1    3    3    0  501  0.20227702227E+03  0.93561344737E+03 -0.21044797918E+03  0.98009023492E+03  0.00000000000E+00 0. -1.
<mgrwt>
<rscale>  0 0.13386474E+04</rscale>
<asrwt>0</asrwt>
<pdfrwt beam="1">  1        4 0.27993823E+00 0.13397157E+04</pdfrwt>
<pdfrwt beam="2">  1       -4 0.21733542E+00 0.13375799E+04</pdfrwt>
<totfact> 0.10218416E-01</totfact>
</mgrwt>
</event>
<event>
 8    1  0.2939692E-006  0.1211022E+04  0.7818608E-02  0.8604962E-01
         -4   -1    0    0    0  501 -0.00000000000E+00  0.00000000000E+00  0.25676933539E+04  0.25676933539E+04  0.00000000000E+00 0. -1.
          4   -1    0    0  502    0  0.00000000000E+00 -0.00000000000E+00 -0.10686046898E+04  0.10686046898E+04  0.00000000000E+00 0.  1.
   -9000010    2    1    2    0  501  0.66488728994E+03 -0.65435492283E+02  0.19974432500E+04  0.23267441503E+04  0.98873752444E+03 0.  0.
    9000010    2    1    2  502    0 -0.66488728994E+03  0.65435492283E+02 -0.49835458585E+03  0.13095538935E+04  0.10100580155E+04 0.  0.
        -13    1    4    4    0    0  0.23230104444E+03  0.17724848889E+03 -0.37045130871E+02  0.29453888529E+03  0.10566000000E+00 0.  1.
          4    1    4    4  502    0 -0.89718833438E+03 -0.11181299661E+03 -0.46130945498E+03  0.10150150082E+04  0.00000000000E+00 0.  1.
         13    1    3    3    0    0  0.62233518590E+03  0.26307234256E+03  0.64418063372E+03  0.93352923953E+03  0.10566000000E+00 0. -1.
         -4    1    3    3    0  501  0.42552104033E+02 -0.32850783484E+03  0.13532626162E+04  0.13932149108E+04  0.00000000000E+00 0. -1.
<mgrwt>
<rscale>  0 0.12021270E+04</rscale>
<asrwt>0</asrwt>
<pdfrwt beam="2">  1        4 0.16440072E+00 0.12110219E+04</pdfrwt>
<pdfrwt beam="1">  1       -4 0.39502974E+00 0.11932975E+04</pdfrwt>
<totfact> 0.64576848E-02</totfact>
</mgrwt>
</event>
<event>
 8    1  0.2939692E-006  0.1162255E+04  0.7818608E-02  0.8643991E-01
         -4   -1    0    0    0  501 -0.00000000000E+00  0.00000000000E+00  0.21080053666E+04  0.21080053666E+04  0.00000000000E+00 0. -1.
          4   -1    0    0  502    0  0.00000000000E+00 -0.00000000000E+00 -0.14557827115E+04  0.14557827115E+04  0.00000000000E+00 0.  1.
   -9000010    2    1    2    0  501  0.51696484408E+03  0.19830478340E+03  0.16701806061E+04  0.20347824298E+04  0.10218898388E+04 0.  0.
    9000010    2    1    2  502    0 -0.51696484408E+03 -0.19830478340E+03 -0.10179579509E+04  0.15290056483E+04  0.99751814299E+03 0.  0.
        -13    1    4    4    0    0  0.17094433099E+02 -0.51810651596E+03 -0.45965287665E+03  0.69282563441E+03  0.10566000000E+00 0.  1.
          4    1    4    4  502    0 -0.53405927718E+03  0.31980173256E+03 -0.55830507425E+03  0.83618001389E+03  0.00000000000E+00 0.  1.
         13    1    3    3    0    0 -0.10363694166E+03 -0.68405989265E+02 -0.87410465655E+02  0.15185715562E+03  0.10566000000E+00 0. -1.
         -4    1    3    3    0  501  0.62060178574E+03  0.26671077266E+03  0.17575910717E+04  0.18829252742E+04  0.00000000000E+00 0. -1.
<mgrwt>
<rscale>  0 0.11515206E+04</rscale>
<asrwt>0</asrwt>
<pdfrwt beam="2">  1        4 0.22396657E+00 0.11408856E+04</pdfrwt>
<pdfrwt beam="1">  1       -4 0.32430852E+00 0.11622548E+04</pdfrwt>
<totfact> 0.75362821E-02</totfact>
</mgrwt>
</event>
<event>
 8    1  0.2939692E-006  0.1165559E+04  0.7818608E-02  0.8643102E-01
         -4   -1    0    0    0  501 -0.00000000000E+00  0.00000000000E+00  0.14705893935E+04  0.14705893935E+04  0.00000000000E+00 0. -1.
          4   -1    0    0  502    0  0.00000000000E+00 -0.00000000000E+00 -0.14100251353E+04  0.14100251353E+04  0.00000000000E+00 0.  1.
   -9000010    2    1    2    0  501 -0.42905722061E+03  0.41841761321E+03  0.89324966940E+03  0.14481719127E+04  0.96960998303E+03 0.  0.
    9000010    2    1    2  502    0  0.42905722061E+03 -0.41841761321E+03 -0.83268541112E+03  0.14324426161E+04  0.99968167784E+03 0.  0.
        -13    1    4    4    0    0  0.10042400565E+03  0.26051868597E+03 -0.56825922980E+03  0.63314574157E+03  0.10566000000E+00 0.  1.
          4    1    4    4  502    0  0.32863321496E+03 -0.67893629918E+03 -0.26442618132E+03  0.79929687456E+03  0.00000000000E+00 0.  1.
         13    1    3    3    0    0 -0.52943905703E+03  0.30185399737E+03  0.73205879755E+02  0.61382461895E+03  0.10566000000E+00 0. -1.
         -4    1    3    3    0  501  0.10038183642E+03  0.11656361584E+03  0.82004378965E+03  0.83434729373E+03  0.00000000000E+00 0. -1.
<mgrwt>
<rscale>  0 0.11526435E+04</rscale>
<asrwt>0</asrwt>
<pdfrwt beam="2">  1        4 0.21692694E+00 0.11655586E+04</pdfrwt>
<pdfrwt beam="1">  1       -4 0.22624452E+00 0.11398714E+04</pdfrwt>
<totfact> 0.13959853E-01</totfact>
</mgrwt>
</event>
<event>
 8    1  0.2939692E-006  0.1120592E+04  0.7818608E-02  0.8704318E-01
          4   -1    0    0  502    0  0.00000000000E+00  0.00000000000E+00  0.18318484060E+04  0.18318484060E+04  0.00000000000E+00 0.  1.
         -4   -1    0    0    0  501 -0.00000000000E+00 -0.00000000000E+00 -0.25244262498E+04  0.25244262498E+04  0.00000000000E+00 0. -1.
   -9000010    2    1    2    0  501 -0.24328511254E+03 -0.33110533005E+02 -0.22333429757E+04  0.24987091139E+04  0.10933629019E+04 0.  0.
    9000010    2    1    2  502    0  0.24328511254E+03  0.33110533005E+02  0.15407651318E+04  0.18575655419E+04  0.10081213209E+04 0.  0.
        -13    1    4    4    0    0  0.25857526055E+03  0.49742980398E+03  0.69832064330E+03  0.89551622390E+03  0.10566000000E+00 0.  1.
          4    1    4    4  502    0 -0.15290148016E+02 -0.46431927098E+03  0.84244448853E+03  0.96204931801E+03  0.00000000000E+00 0.  1.
         13    1    3    3    0    0  0.19888228127E+02 -0.29943821481E+02 -0.22352209893E+04  0.22355100215E+04  0.10566000000E+00 0. -1.
         -4    1    3    3    0  501 -0.26317334067E+03 -0.31667115239E+01  0.18780135796E+01  0.26319909239E+03  0.00000000000E+00 0. -1.
<mgrwt>
<rscale>  0 0.10782925E+04</rscale>
<asrwt>0</asrwt>
<pdfrwt beam="1">  1        4 0.28182283E+00 0.10375898E+04</pdfrwt>
<pdfrwt beam="2">  1       -4 0.38837327E+00 0.11205920E+04</pdfrwt>
<totfact> 0.33341083E-02</totfact>
</mgrwt>
</event>
<event>
 8    1  0.2939692E-006  0.1129486E+04  0.7818608E-02  0.8681736E-01
          4   -1    0    0  502    0  0.00000000000E+00  0.00000000000E+00  0.19693022385E+04  0.19693022385E+04  0.00000000000E+00 0.  1.
         -4   -1    0    0    0  501 -0.00000000000E+00 -0.00000000000E+00 -0.12496847390E+04  0.12496847390E+04  0.00000000000E+00 0. -1.
   -9000010    2    1    2    0  501 -0.41060081792E+03 -0.31443324882E+03 -0.78613453217E+03  0.13366939028E+04  0.94935861903E+03 0.  0.
    9000010    2    1    2  502    0  0.41060081792E+03  0.31443324882E+03  0.15057520316E+04  0.18822930748E+04  0.10041298416E+04 0.  0.
        -13    1    4    4    0    0 -0.26237814258E+03 -0.13826690699E+03  0.25262395248E+03  0.38958811558E+03  0.10566000000E+00 0.  1.
          4    1    4    4  502    0  0.67297896050E+03  0.45270015581E+03  0.12531280792E+04  0.14927049592E+04  0.00000000000E+00 0.  1.
         13    1    3    3    0    0 -0.46304771432E+03 -0.60783979169E+03 -0.44727409866E+03  0.88540190229E+03  0.10566000000E+00 0. -1.
         -4    1    3    3    0  501  0.52446896393E+02  0.29340654286E+03 -0.33886043351E+03  0.45129200052E+03  0.00000000000E+00 0. -1.
<mgrwt>
<rscale>  0 0.11050200E+04</rscale>
<asrwt>0</asrwt>
<pdfrwt beam="1">  1        4 0.30296957E+00 0.11294857E+04</pdfrwt>
<pdfrwt beam="2">  1       -4 0.19225919E+00 0.10810842E+04</pdfrwt>
<totfact> 0.10544376E-01</totfact>
</mgrwt>
</event>
<event>
 8    1  0.2939692E-006  0.1054165E+04  0.7818608E-02  0.8754796E-01
         -4   -1    0    0    0  501 -0.00000000000E+00  0.00000000000E+00  0.81535751317E+03  0.81535751317E+03  0.00000000000E+00 0.  1.
          4   -1    0    0  502    0  0.00000000000E+00 -0.00000000000E+00 -0.14026252184E+04  0.14026252184E+04  0.00000000000E+00 0. -1.
   -9000010    2    1    2    0  501 -0.32965520618E+02 -0.32900935273E+03  0.24789278531E+02  0.10544563425E+04  0.10009644301E+04 0.  0.
    9000010    2    1    2  502    0  0.32965520618E+02  0.32900935273E+03 -0.61205698373E+03  0.11635263890E+04  0.93265536338E+03 0.  0.
        -13    1    4    4    0    0  0.33697220282E+03  0.45884657950E+03 -0.60801445486E+03  0.83292979144E+03  0.10566000000E+00 0.  1.
          4    1    4    4  502    0 -0.30400668220E+03 -0.12983722677E+03 -0.40425288653E+01  0.33059659756E+03  0.00000000000E+00 0.  1.
         13    1    3    3    0    0 -0.30718254181E+03 -0.55962669117E+03  0.18104445992E+03  0.66356631552E+03  0.10566000000E+00 0. -1.
         -4    1    3    3    0  501  0.27421702120E+03  0.23061733844E+03 -0.15625518139E+03  0.39089002701E+03  0.00000000000E+00 0. -1.
<mgrwt>
<rscale>  0 0.10213390E+04</rscale>
<asrwt>0</asrwt>
<pdfrwt beam="2">  1        4 0.21578849E+00 0.98953520E+03</pdfrwt>
<pdfrwt beam="1">  1       -4 0.12543962E+00 0.10541649E+04</pdfrwt>
<totfact> 0.32471829E-01</totfact>
</mgrwt>
</event>
<event>
 8    1  0.2939692E-006  0.1908102E+04  0.7818608E-02  0.8207848E-01
         -4   -1    0    0    0  501 -0.00000000000E+00  0.00000000000E+00  0.24773933070E+04  0.24773933070E+04  0.00000000000E+00 0. -1.
          4   -1    0    0  502    0  0.00000000000E+00 -0.00000000000E+00 -0.24566356723E+04  0.24566356723E+04  0.00000000000E+00 0.  1.
   -9000010    2    1    2    0  501  0.72006736287E+03 -0.14475663192E+04  0.15768639223E+04  0.24718508384E+04  0.10047892726E+04 0.  0.
    9000010    2    1    2  502    0 -0.72006736287E+03  0.14475663192E+04 -0.15561062876E+04  0.24621781409E+04  0.10133652667E+04 0.  0.
        -13    1    4    4    0    0 -0.22784383618E+03 -0.45789568146E+02 -0.54572866488E+03  0.59315199154E+03  0.10566000000E+00 0.  1.
          4    1    4    4  502    0 -0.49222352669E+03  0.14933558873E+04 -0.10103776227E+04  0.18690261493E+04  0.00000000000E+00 0.  1.
         13    1    3    3    0    0  0.27848613998E+03 -0.13033012442E+04  0.14903343205E+04  0.19993111467E+04  0.10566000000E+00 0. -1.
         -4    1    3    3    0  501  0.44158122289E+03 -0.14426507497E+03  0.86529601835E+02  0.47253969172E+03  0.00000000000E+00 0. -1.
<mgrwt>
<rscale>  0 0.19058306E+04</rscale>
<asrwt>0</asrwt>
<pdfrwt beam="2">  1        4 0.37794395E+00 0.19081023E+04</pdfrwt>
<pdfrwt beam="1">  1       -4 0.38113743E+00 0.19035616E+04</pdfrwt>
<totfact> 0.16264155E-02</totfact>
</mgrwt>
</event>
<event>
 8    1  0.2939692E-006  0.1225104E+04  0.7818608E-02  0.8606257E-01
          4   -1    0    0  502    0  0.00000000000E+00  0.00000000000E+00  0.67268900388E+03  0.67268900388E+03  0.00000000000E+00 0.  1.
         -4   -1    0    0    0  501 -0.00000000000E+00 -0.00000000000E+00 -0.29290885707E+04  0.29290885707E+04  0.00000000000E+00 0. -1.
   -9000010    2    1    2    0  501  0.60752219829E+03  0.29052382994E+02 -0.20778132522E+04  0.24120920579E+04  0.10634627036E+04 0.  0.
    9000010    2    1    2  502    0 -0.60752219829E+03 -0.29052382994E+02 -0.17858631454E+03  0.11896855167E+04  0.10067429138E+04 0.  0.
        -13    1    4    4    0    0 -0.78359213934E+03 -0.58028925853E+02  0.16468097521E+03  0.80280995997E+03  0.10566000000E+00 0.  1.
          4    1    4    4  502    0  0.17606994105E+03  0.28976542860E+02 -0.34326728975E+03  0.38687555672E+03  0.00000000000E+00 0.  1.
         13    1    3    3    0    0  0.78653268220E+03  0.73371718016E+02 -0.20828399015E+04  0.22276083892E+04  0.10566000000E+00 0. -1.
         -4    1    3    3    0  501 -0.17901048391E+03 -0.44319335022E+02  0.50266492328E+01  0.18448366868E+03  0.00000000000E+00 0. -1.
<mgrwt>
<rscale>  0 0.12004057E+04</rscale>
<asrwt>0</asrwt>
<pdfrwt beam="1">  1        4 0.10349062E+00 0.11762052E+04</pdfrwt>
<pdfrwt beam="2">  1       -4 0.45062900E+00 0.12251042E+04</pdfrwt>
<totfact> 0.78591114E-02</totfact>
</mgrwt>
</event>
<event>
 8    1  0.2939692E-006  0.1448951E+04  0.7818608E-02  0.8448427E-01
         -4   -1    0    0    0  501 -0.00000000000E+00  0.00000000000E+00  0.84739113621E+03  0.84739113621E+03  0.00000000000E+00 0. -1.
          4   -1    0    0  502    0  0.00000000000E+00 -0.00000000000E+00 -0.26953502726E+04  0.26953502726E+04  0.00000000000E+00 0.  1.
   -9000010    2    1    2    0  501  0.10162397474E+04  0.24494265966E+03 -0.35705867141E+03  0.14637411671E+04  0.96036825165E+03 0.  0.
    9000010    2    1    2  502    0 -0.10162397474E+04 -0.24494265966E+03 -0.14909004650E+04  0.20790002417E+04  0.10033532169E+04 0.  0.
        -13    1    4    4    0    0 -0.26277858558E+03  0.28774817014E+03 -0.87445222345E+02  0.39937234824E+03  0.10566000000E+00 0.  1.
          4    1    4    4  502    0 -0.75346116177E+03 -0.53269082981E+03 -0.14034552426E+04  0.16796278935E+04  0.00000000000E+00 0.  1.
         13    1    3    3    0    0  0.83524601703E+03  0.51342392825E+03 -0.51056632088E+03  0.11054040068E+04  0.10566000000E+00 0. -1.
         -4    1    3    3    0  501  0.18099373033E+03 -0.26848126858E+03  0.15350764948E+03  0.35833716029E+03  0.00000000000E+00 0. -1.
<mgrwt>
<rscale>  0 0.14341616E+04</rscale>
<asrwt>0</asrwt>
<pdfrwt beam="2">  1        4 0.41466927E+00 0.14489506E+04</pdfrwt>
<pdfrwt beam="1">  1       -4 0.13036787E+00 0.14195236E+04</pdfrwt>
<totfact> 0.74653638E-02</totfact>
</mgrwt>
</event>
<event>
 8    1  0.2939692E-006  0.1180575E+04  0.7818608E-02  0.8626581E-01
          4   -1    0    0  502    0  0.00000000000E+00  0.00000000000E+00  0.18770629593E+04  0.18770629593E+04  0.00000000000E+00 0. -1.
         -4   -1    0    0    0  501 -0.00000000000E+00 -0.00000000000E+00 -0.74987115175E+03  0.74987115175E+03  0.00000000000E+00 0.  1.
   -9000010    2    1    2    0  501  0.38920477973E+03  0.48023103817E+03  0.36936966340E+03  0.12240612971E+04  0.98984337156E+03 0.  0.
    9000010    2    1    2  502    0 -0.38920477973E+03 -0.48023103817E+03  0.75782214410E+03  0.14028728139E+04  0.10058108765E+04 0.  0.
        -13    1    4    4    0    0 -0.46882506055E+03 -0.24398158467E+03 -0.74754360475E+02  0.53377165215E+03  0.10566000000E+00 0.  1.
          4    1    4    4  502    0  0.79620280817E+02 -0.23624945350E+03  0.83257650458E+03  0.86910116176E+03  0.00000000000E+00 0.  1.
         13    1    3    3    0    0  0.18821069013E+03  0.76062511225E+03  0.10742725261E+03  0.79089471551E+03  0.10566000000E+00 0. -1.
         -4    1    3    3    0  501  0.20099408960E+03 -0.28039407407E+03  0.26194241079E+03  0.43316658159E+03  0.00000000000E+00 0. -1.
<mgrwt>
<rscale>  0 0.11737686E+04</rscale>
<asrwt>0</asrwt>
<pdfrwt beam="1">  1        4 0.28877892E+00 0.11805752E+04</pdfrwt>
<pdfrwt beam="2">  1       -4 0.11536479E+00 0.11670013E+04</pdfrwt>
<totfact> 0.24660763E-01</totfact>
</mgrwt>
</event>
<event>
 8    1  0.2939692E-006  0.1066930E+04  0.7818608E-02  0.8726710E-01
         -4   -1    0    0    0  501 -0.00000000000E+00  0.00000000000E+00  0.21919163217E+04  0.21919163217E+04  0.00000000000E+00 0. -1.
          4   -1    0    0  502    0  0.00000000000E+00 -0.00000000000E+00 -0.78905143926E+03  0.78905143926E+03  0.00000000000E+00 0.  1.
   -9000010    2    1    2    0  501  0.62648284940E+02 -0.29614868377E+03  0.16009021815E+04  0.19238573442E+04  0.10230886744E+04 0.  0.
    9000010    2    1    2  502    0 -0.62648284940E+02  0.29614868377E+03 -0.19803729908E+03  0.10571104167E+04  0.99329492642E+03 0.  0.
        -13    1    4    4    0    0  0.45153224506E+03  0.29093387398E+02 -0.14572962442E+03  0.47535768440E+03  0.10566000000E+00 0.  1.
          4    1    4    4  502    0 -0.51418053000E+03  0.26705529637E+03 -0.52307674665E+02  0.58175273234E+03  0.00000000000E+00 0.  1.
         13    1    3    3    0    0  0.16674469568E+03 -0.44112412042E+03  0.20101969501E+03  0.51264335761E+03  0.10566000000E+00 0. -1.
         -4    1    3    3    0  501 -0.10409641074E+03  0.14497543665E+03  0.13998824865E+04  0.14112139866E+04  0.00000000000E+00 0. -1.
<mgrwt>
<rscale>  0 0.10525656E+04</rscale>
<asrwt>0</asrwt>
<pdfrwt beam="2">  1        4 0.12139253E+00 0.10383948E+04</pdfrwt>
<pdfrwt beam="1">  1       -4 0.33721789E+00 0.10669298E+04</pdfrwt>
<totfact> 0.16685757E-01</totfact>
</mgrwt>
</event>
<event>
 8    1  0.2939692E-006  0.1183222E+04  0.7818608E-02  0.8648281E-01
          4   -1    0    0  502    0  0.00000000000E+00  0.00000000000E+00  0.24332794287E+04  0.24332794287E+04  0.00000000000E+00 0.  1.
         -4   -1    0    0    0  501 -0.00000000000E+00 -0.00000000000E+00 -0.17263052739E+04  0.17263052739E+04  0.00000000000E+00 0. -1.
   -9000010    2    1    2    0  501 -0.15964141275E+03  0.45702403632E+03 -0.13735688511E+04  0.17661200335E+04  0.99906568033E+03 0.  0.
    9000010    2    1    2  502    0  0.15964141275E+03 -0.45702403632E+03  0.20805430059E+04  0.23934646692E+04  0.10796562289E+04 0.  0.
        -13    1    4    4    0    0 -0.20368248533E+03 -0.68503358780E+03  0.15810218034E+04  0.17350468366E+04  0.10566000000E+00 0.  1.
          4    1    4    4  502    0  0.36332389807E+03  0.22800955148E+03  0.49952120249E+03  0.65841783255E+03  0.00000000000E+00 0.  1.
         13    1    3    3    0    0  0.19334758737E+03 -0.45133360391E+02 -0.10569955397E+04  0.10754812373E+04  0.10566000000E+00 0. -1.
         -4    1    3    3    0  501 -0.35298900011E+03  0.50215739671E+03 -0.31657331139E+03  0.69063879615E+03  0.00000000000E+00 0. -1.
<mgrwt>
<rscale>  0 0.11461166E+04</rscale>
<asrwt>0</asrwt>
<pdfrwt beam="1">  1        4 0.37435068E+00 0.11832218E+04</pdfrwt>
<pdfrwt beam="2">  1       -4 0.26558543E+00 0.11101750E+04</pdfrwt>
<totfact> 0.40910979E-02</totfact>
</mgrwt>
</event>
<event>
 8    1  0.2939692E-006  0.1197385E+04  0.7818608E-02  0.8618021E-01
          4   -1    0    0  502    0  0.00000000000E+00  0.00000000000E+00  0.21355689857E+04  0.21355689857E+04  0.00000000000E+00 0.  1.
         -4   -1    0    0    0  501 -0.00000000000E+00 -0.00000000000E+00 -0.77303655680E+03  0.77303655680E+03  0.00000000000E+00 0. -1.
   -9000010    2    1    2    0  501 -0.40993115381E+03  0.46334895893E+03  0.11299418455E+03  0.11779764053E+04  0.99605467570E+03 0.  0.
    9000010    2    1    2  502    0  0.40993115381E+03 -0.46334895893E+03  0.12495382443E+04  0.17306291372E+04  0.10251807538E+04 0.  0.
        -13    1    4    4    0    0  0.23755502820E+03  0.75599695877E+02  0.11236217238E+04  0.11509446098E+04  0.10566000000E+00 0.  1.
          4    1    4    4  502    0  0.17237612561E+03 -0.53894865481E+03  0.12591652052E+03  0.57968452743E+03  0.00000000000E+00 0.  1.
         13    1    3    3    0    0  0.29769704115E+03  0.34243309814E+03  0.21106988886E+02  0.45423503955E+03  0.10566000000E+00 0. -1.
         -4    1    3    3    0  501 -0.70762819496E+03  0.12091586079E+03  0.91887195667E+02  0.72374136570E+03  0.00000000000E+00 0. -1.
<mgrwt>
<rscale>  0 0.11848998E+04</rscale>
<asrwt>0</asrwt>
<pdfrwt beam="1">  1        4 0.32854907E+00 0.11973852E+04</pdfrwt>
<pdfrwt beam="2">  1       -4 0.11892870E+00 0.11725446E+04</pdfrwt>
<totfact> 0.18147916E-01</totfact>
</mgrwt>
</event>
<event>
 8    1  0.2939692E-006  0.1183915E+04  0.7818608E-02  0.8619638E-01
         -4   -1    0    0    0  501 -0.00000000000E+00  0.00000000000E+00  0.10080934780E+04  0.10080934780E+04  0.00000000000E+00 0. -1.
          4   -1    0    0  502    0  0.00000000000E+00 -0.00000000000E+00 -0.14918114520E+04  0.14918114520E+04  0.00000000000E+00 0.  1.
   -9000010    2    1    2    0  501 -0.17278159645E+03 -0.57559605870E+03  0.88477705618E+02  0.11849662924E+04  0.10174244477E+04 0.  0.
    9000010    2    1    2  502    0  0.17278159645E+03  0.57559605870E+03 -0.57219567962E+03  0.13149386376E+04  0.10200448137E+04 0.  0.
        -13    1    4    4    0    0 -0.16507676484E+03  0.49803300527E+03 -0.75781575512E+03  0.92172226972E+03  0.10566000000E+00 0.  1.
          4    1    4    4  502    0  0.33785836129E+03  0.77563053430E+02  0.18562007549E+03  0.39321636789E+03  0.00000000000E+00 0.  1.
         13    1    3    3    0    0 -0.56015681070E+03 -0.55176231338E+03  0.12089121868E+03  0.79550738586E+03  0.10566000000E+00 0. -1.
         -4    1    3    3    0  501  0.38737521425E+03 -0.23833745323E+02 -0.32413513061E+02  0.38945890651E+03  0.00000000000E+00 0. -1.
<mgrwt>
<rscale>  0 0.11827864E+04</rscale>
<asrwt>0</asrwt>
<pdfrwt beam="2">  1        4 0.22950945E+00 0.11839154E+04</pdfrwt>
<pdfrwt beam="1">  1       -4 0.15509131E+00 0.11816585E+04</pdfrwt>
<totfact> 0.21526235E-01</totfact>
</mgrwt>
</event>
<event>
 8    1  0.2939692E-006  0.1317281E+04  0.7818608E-02  0.8523652E-01
         -4   -1    0    0    0  501 -0.00000000000E+00  0.00000000000E+00  0.11936268312E+04  0.11936268312E+04  0.00000000000E+00 0. -1.
          4   -1    0    0  502    0  0.00000000000E+00 -0.00000000000E+00 -0.20127720685E+04  0.20127720685E+04  0.00000000000E+00 0.  1.
   -9000010    2    1    2    0  501  0.61996523446E+03 -0.59463589510E+03  0.43646821097E+03  0.13877080769E+04  0.99863930816E+03 0.  0.
    9000010    2    1    2  502    0 -0.61996523446E+03  0.59463589510E+03 -0.12556134483E+04  0.18186908229E+04  0.99655528595E+03 0.  0.
        -13    1    4    4    0    0  0.32922666428E+02  0.54433873334E+03 -0.20880115540E+03  0.58394048690E+03  0.10566000000E+00 0.  1.
          4    1    4    4  502    0 -0.65288790089E+03  0.50297161758E+02 -0.10468122929E+04  0.12347503360E+04  0.00000000000E+00 0.  1.
         13    1    3    3    0    0  0.20568153550E+03  0.28025345995E+03  0.14602860290E+03  0.37705604343E+03  0.10566000000E+00 0. -1.
         -4    1    3    3    0  501  0.41428369896E+03 -0.87488935505E+03  0.29043960807E+03  0.10106520335E+04  0.00000000000E+00 0. -1.
<mgrwt>
<rscale>  0 0.13164911E+04</rscale>
<asrwt>0</asrwt>
<pdfrwt beam="2">  1        4 0.30965724E+00 0.13157018E+04</pdfrwt>
<pdfrwt beam="1">  1       -4 0.18363490E+00 0.13172810E+04</pdfrwt>
<totfact> 0.10601922E-01</totfact>
</mgrwt>
</event>
<event>
 8    1  0.2939692E-006  0.1184802E+04  0.7818608E-02  0.8621139E-01
          4   -1    0    0  502    0  0.00000000000E+00  0.00000000000E+00  0.19100042375E+04  0.19100042375E+04  0.00000000000E+00 0.  1.
         -4   -1    0    0    0  501 -0.00000000000E+00 -0.00000000000E+00 -0.13732400186E+04  0.13732400186E+04  0.00000000000E+00 0. -1.
   -9000010    2    1    2    0  501  0.24267876116E+03  0.59276660683E+03 -0.85463645674E+03  0.14608764750E+04  0.99674037283E+03 0.  0.
    9000010    2    1    2  502    0 -0.24267876116E+03 -0.59276660683E+03  0.13914006757E+04  0.18223677811E+04  0.98730099671E+03 0.  0.
        -13    1    4    4    0    0 -0.13030414679E+03  0.77066811949E+02  0.10524720431E+04  0.10633042259E+04  0.10566000000E+00 0.  1.
          4    1    4    4  502    0 -0.11237461437E+03 -0.66983341878E+03  0.33892863257E+03  0.75906355521E+03  0.00000000000E+00 0.  1.
         13    1    3    3    0    0 -0.27361301231E+03  0.33390261714E+03 -0.76221966361E+03  0.87597595001E+03  0.10566000000E+00 0. -1.
         -4    1    3    3    0  501  0.51629177348E+03  0.25886398969E+03 -0.92416793129E+02  0.58490052502E+03  0.00000000000E+00 0. -1.
<mgrwt>
<rscale>  0 0.11808307E+04</rscale>
<asrwt>0</asrwt>
<pdfrwt beam="1">  1        4 0.29384681E+00 0.11768723E+04</pdfrwt>
<pdfrwt beam="2">  1       -4 0.21126769E+00 0.11848023E+04</pdfrwt>
<totfact> 0.98359204E-02</totfact>
</mgrwt>
</event>
<event>
 8    1  0.2939692E-006  0.1114628E+04  0.7818608E-02  0.8682708E-01
          4   -1    0    0  502    0  0.00000000000E+00  0.00000000000E+00  0.14417612162E+04  0.14417612162E+04  0.00000000000E+00 0.  1.
         -4   -1    0    0    0  501 -0.00000000000E+00 -0.00000000000E+00 -0.15151284154E+04  0.15151284154E+04  0.00000000000E+00 0. -1.
   -9000010    2    1    2    0  501 -0.43726191407E+03  0.78722192462E+02 -0.10199332319E+04  0.15108469191E+04  0.10222521462E+04 0.  0.
    9000010    2    1    2  502    0  0.43726191407E+03 -0.78722192462E+02  0.94656603259E+03  0.14460427125E+04  0.99882786668E+03 0.  0.
        -13    1    4    4    0    0  0.37568020022E+03 -0.36354680735E+03  0.76346152982E+02  0.52832815580E+03  0.10566000000E+00 0.  1.
          4    1    4    4  502    0  0.61581713852E+02  0.28482461489E+03  0.87021987961E+03  0.91771455671E+03  0.00000000000E+00 0.  1.
         13    1    3    3    0    0 -0.25800625062E+02 -0.43186180913E+03 -0.25059854379E+03  0.49996993485E+03  0.10566000000E+00 0. -1.
         -4    1    3    3    0  501 -0.41146128900E+03  0.51058400159E+03 -0.76933468808E+03  0.10108769843E+04  0.00000000000E+00 0. -1.
<mgrwt>
<rscale>  0 0.11038539E+04</rscale>
<asrwt>0</asrwt>
<pdfrwt beam="1">  1        4 0.22180942E+00 0.10931845E+04</pdfrwt>
<pdfrwt beam="2">  1       -4 0.23309668E+00 0.11146276E+04</pdfrwt>
<totfact> 0.13073283E-01</totfact>
</mgrwt>
</event>
<event>
 8    1  0.2939692E-006  0.1529656E+04  0.7818608E-02  0.8399117E-01
          4   -1    0    0  502    0  0.00000000000E+00  0.00000000000E+00  0.25661292874E+04  0.25661292874E+04  0.00000000000E+00 0.  1.
         -4   -1    0    0    0  501 -0.00000000000E+00 -0.00000000000E+00 -0.17465471318E+04  0.17465471318E+04  0.00000000000E+00 0. -1.
   -9000010    2    1    2    0  501 -0.75623131388E+03 -0.84886826255E+03 -0.10945894408E+04  0.18623904168E+04  0.98889276131E+03 0.  0.
    9000010    2    1    2  502    0  0.75623131388E+03  0.84886826255E+03  0.19141715963E+04  0.24502860024E+04  0.10234185196E+04 0.  0.
        -13    1    4    4    0    0  0.89942711672E+01  0.53379679278E+03  0.23052525057E+03  0.58151682281E+03  0.10566000000E+00 0.  1.
          4    1    4    4  502    0  0.74723704271E+03  0.31507146977E+03  0.16836463458E+04  0.18687691796E+04  0.00000000000E+00 0.  1.
         13    1    3    3    0    0  0.13897951493E+03 -0.52347767520E+03 -0.51514375297E+03  0.74747393225E+03  0.10566000000E+00 0. -1.
         -4    1    3    3    0  501 -0.89521082881E+03 -0.32539058735E+03 -0.57944568783E+03  0.11149164845E+04  0.00000000000E+00 0. -1.
<mgrwt>
<rscale>  0 0.15181728E+04</rscale>
<asrwt>0</asrwt>
<pdfrwt beam="1">  1        4 0.39478912E+00 0.15296564E+04</pdfrwt>
<pdfrwt beam="2">  1       -4 0.26869956E+00 0.15067754E+04</pdfrwt>
<totfact> 0.32282908E-02</totfact>
</mgrwt>
</event>
<event>
 8    1  0.2939692E-006  0.1405797E+04  0.7818608E-02  0.8468811E-01
         -4   -1    0    0    0  501 -0.00000000000E+00  0.00000000000E+00  0.88588887669E+03  0.88588887669E+03  0.00000000000E+00 0. -1.
          4   -1    0    0  502    0  0.00000000000E+00 -0.00000000000E+00 -0.24970260343E+04  0.24970260343E+04  0.00000000000E+00 0.  1.
   -9000010    2    1    2    0  501  0.16541500343E+03  0.97630218355E+03 -0.23559385860E+03  0.14160942750E+04  0.98452549619E+03 0.  0.
    9000010    2    1    2  502    0 -0.16541500343E+03 -0.97630218355E+03 -0.13755432990E+04  0.19668206360E+04  0.99786570720E+03 0.  0.
        -13    1    4    4    0    0 -0.13407352032E+03 -0.11213238183E+04 -0.14177583666E+04  0.18125621677E+04  0.10566000000E+00 0.  1.
          4    1    4    4  502    0 -0.31341483106E+02  0.14502163476E+03  0.42215067596E+02  0.15425846830E+03  0.00000000000E+00 0.  1.
         13    1    3    3    0    0 -0.43968927286E+02 -0.11607346575E+03  0.18852355878E+03  0.22571543899E+03  0.10566000000E+00 0. -1.
         -4    1    3    3    0  501  0.20938393071E+03  0.10923756493E+04 -0.42411741738E+03  0.11903788361E+04  0.00000000000E+00 0. -1.
<mgrwt>
<rscale>  0 0.14010699E+04</rscale>
<asrwt>0</asrwt>
<pdfrwt beam="2">  1        4 0.38415785E+00 0.14057966E+04</pdfrwt>
<pdfrwt beam="1">  1       -4 0.13629060E+00 0.13963590E+04</pdfrwt>
<totfact> 0.92375737E-02</totfact>
</mgrwt>
</event>
<event>
 8    1  0.2939692E-006  0.1548366E+04  0.7818608E-02  0.8383404E-01
         -4   -1    0    0    0  501 -0.00000000000E+00  0.00000000000E+00  0.21038197434E+04  0.21038197434E+04  0.00000000000E+00 0. -1.
          4   -1    0    0  502    0  0.00000000000E+00 -0.00000000000E+00 -0.14161552208E+04  0.14161552208E+04  0.00000000000E+00 0.  1.
   -9000010    2    1    2    0  501  0.17222493956E+03 -0.11791050982E+04  0.11257452810E+04  0.19108285089E+04  0.98184158115E+03 0.  0.
    9000010    2    1    2  502    0 -0.17222493956E+03  0.11791050982E+04 -0.43808075845E+03  0.16091464552E+04  0.98867957451E+03 0.  0.
        -13    1    4    4    0    0  0.19963635341E+03  0.31708125758E+03 -0.54807516091E+03  0.66391384281E+03  0.10566000000E+00 0.  1.
          4    1    4    4  502    0 -0.37186129298E+03  0.86202384061E+03  0.10999440245E+03  0.94523261241E+03  0.00000000000E+00 0.  1.
         13    1    3    3    0    0  0.20132114968E+03 -0.87966807411E+02  0.70931966457E+03  0.74256498855E+03  0.10566000000E+00 0. -1.
         -4    1    3    3    0  501 -0.29096210118E+02 -0.10911382908E+04  0.41642561644E+03  0.11682635204E+04  0.00000000000E+00 0. -1.
<mgrwt>
<rscale>  0 0.15461859E+04</rscale>
<asrwt>0</asrwt>
<pdfrwt beam="2">  1        4 0.21787003E+00 0.15483661E+04</pdfrwt>
<pdfrwt beam="1">  1       -4 0.32366458E+00 0.15440088E+04</pdfrwt>
<totfact> 0.76139850E-02</totfact>
</mgrwt>
</event>
<event>
 8    1  0.2939692E-006  0.1075778E+04  0.7818608E-02  0.8714527E-01
          4   -1    0    0  502    0  0.00000000000E+00  0.00000000000E+00  0.14758763411E+04  0.14758763411E+04  0.00000000000E+00 0.  1.
         -4   -1    0    0    0  501 -0.00000000000E+00 -0.00000000000E+00 -0.14199473240E+04  0.14199473240E+04  0.00000000000E+00 0. -1.
   -9000010    2    1    2    0  501 -0.25300574645E+03  0.20738259518E+03 -0.95095606952E+03  0.14358328972E+04  0.10248313100E+04 0.  0.
    9000010    2    1    2  502    0  0.25300574645E+03 -0.20738259518E+03  0.10068850866E+04  0.14599907679E+04  0.10053536772E+04 0.  0.
        -13    1    4    4    0    0 -0.25713806642E+03  0.25934226859E+03  0.32485542901E+03  0.48878365194E+03  0.10566000000E+00 0.  1.
          4    1    4    4  502    0  0.51014381287E+03 -0.46672486378E+03  0.68202965761E+03  0.97120711598E+03  0.00000000000E+00 0.  1.
         13    1    3    3    0    0 -0.22170894999E+03  0.53141809728E+03 -0.94930153204E+03  0.11102853068E+04  0.10566000000E+00 0. -1.
         -4    1    3    3    0  501 -0.31296796458E+02 -0.32403550210E+03 -0.16545374809E+01  0.32554759035E+03  0.00000000000E+00 0. -1.
<mgrwt>
<rscale>  0 0.10664686E+04</rscale>
<asrwt>0</asrwt>
<pdfrwt beam="1">  1        4 0.22705790E+00 0.10572395E+04</pdfrwt>
<pdfrwt beam="2">  1       -4 0.21845343E+00 0.10757782E+04</pdfrwt>
<totfact> 0.13836092E-01</totfact>
</mgrwt>
</event>
<event>
 8    1  0.2939692E-006  0.1157513E+04  0.7818608E-02  0.8683747E-01
         -4   -1    0    0    0  501 -0.00000000000E+00  0.00000000000E+00  0.70711128572E+03  0.70711128572E+03  0.00000000000E+00 0. -1.
          4   -1    0    0  502    0  0.00000000000E+00 -0.00000000000E+00 -0.17246519543E+04  0.17246519543E+04  0.00000000000E+00 0.  1.
   -9000010    2    1    2    0  501  0.30217428135E+03  0.28444737571E+03 -0.45103733848E+03  0.11430572094E+04  0.96484480484E+03 0.  0.
    9000010    2    1    2  502    0 -0.30217428135E+03 -0.28444737571E+03 -0.56650333007E+03  0.12887060306E+04  0.10805635587E+04 0.  0.
        -13    1    4    4    0    0 -0.36566679971E+03 -0.62298937027E+03 -0.60481066705E+03  0.94213795063E+03  0.10566000000E+00 0.  1.
          4    1    4    4  502    0  0.63492518359E+02  0.33854199455E+03  0.38307336980E+02  0.34656807994E+03  0.00000000000E+00 0.  1.
         13    1    3    3    0    0  0.55903899187E+02 -0.35065674738E+03 -0.67896271059E+02  0.36151807038E+03  0.10566000000E+00 0. -1.
         -4    1    3    3    0  501  0.24627038217E+03  0.63510412309E+03 -0.38314106742E+03  0.78153913903E+03  0.00000000000E+00 0. -1.
<mgrwt>
<rscale>  0 0.11026081E+04</rscale>
<asrwt>0</asrwt>
<pdfrwt beam="2">  1        4 0.26533107E+00 0.11575134E+04</pdfrwt>
<pdfrwt beam="1">  1       -4 0.10878635E+00 0.10503071E+04</pdfrwt>
<totfact> 0.31327063E-01</totfact>
</mgrwt>
</event>
<event>
 8    1  0.2939692E-006  0.1134773E+04  0.7818608E-02  0.8670584E-01
         -4   -1    0    0    0  501 -0.00000000000E+00  0.00000000000E+00  0.15256388247E+04  0.15256388247E+04  0.00000000000E+00 0. -1.
          4   -1    0    0  502    0  0.00000000000E+00 -0.00000000000E+00 -0.12297923453E+04  0.12297923453E+04  0.00000000000E+00 0.  1.
   -9000010    2    1    2    0  501 -0.46031913490E+03 -0.33763468461E+02  0.94153233977E+03  0.14498201309E+04  0.10012300371E+04 0.  0.
    9000010    2    1    2  502    0  0.46031913490E+03  0.33763468461E+02 -0.64568586039E+03  0.13056110391E+04  0.10366659430E+04 0.  0.
        -13    1    4    4    0    0 -0.26485153361E+03  0.42411649792E+02  0.79760346876E+02  0.27983353443E+03  0.10566000000E+00 0.  1.
          4    1    4    4  502    0  0.72517066852E+03 -0.86481813311E+01 -0.72544620726E+03  0.10257775047E+04  0.00000000000E+00 0.  1.
         13    1    3    3    0    0 -0.68405546675E+03  0.20473181021E+01  0.10039039120E+04  0.12148082766E+04  0.10566000000E+00 0. -1.
         -4    1    3    3    0  501  0.22373633185E+03 -0.35810786563E+02 -0.62371572259E+02  0.23501185427E+03  0.00000000000E+00 0. -1.
<mgrwt>
<rscale>  0 0.11185176E+04</rscale>
<asrwt>0</asrwt>
<pdfrwt beam="2">  1        4 0.18919882E+00 0.11347731E+04</pdfrwt>
<pdfrwt beam="1">  1       -4 0.23471366E+00 0.11024950E+04</pdfrwt>
<totfact> 0.15889106E-01</totfact>
</mgrwt>
</event>
<event>
 8    1  0.2939692E-006  0.1076327E+04  0.7818608E-02  0.8710982E-01
          4   -1    0    0  502    0  0.00000000000E+00  0.00000000000E+00  0.87640539358E+03  0.87640539358E+03  0.00000000000E+00 0.  1.
         -4   -1    0    0    0  501 -0.00000000000E+00 -0.00000000000E+00 -0.14523616552E+04  0.14523616552E+04  0.00000000000E+00 0. -1.
   -9000010    2    1    2    0  501 -0.21006406275E+03 -0.29932926329E+03 -0.65677675308E+03  0.12608865292E+04  0.10123014462E+04 0.  0.
    9000010    2    1    2  502    0  0.21006406275E+03  0.29932926329E+03  0.80820491466E+02  0.10678805196E+04  0.10000559654E+04 0.  0.
        -13    1    4    4    0    0  0.97551033108E+02  0.54838292487E+03  0.37102335914E+03  0.66925210537E+03  0.10566000000E+00 0.  1.
          4    1    4    4  502    0  0.11251302964E+03 -0.24905366158E+03 -0.29020286767E+03  0.39862841418E+03  0.00000000000E+00 0.  1.
         13    1    3    3    0    0 -0.45289452484E+03  0.11829160173E+02  0.45465258702E+02  0.45532458815E+03  0.10566000000E+00 0. -1.
         -4    1    3    3    0  501  0.24283046209E+03 -0.31115842346E+03 -0.70224201178E+03  0.80556194108E+03  0.00000000000E+00 0. -1.
<mgrwt>
<rscale>  0 0.10705568E+04</rscale>
<asrwt>0</asrwt>
<pdfrwt beam="1">  1        4 0.13483160E+00 0.10648178E+04</pdfrwt>
<pdfrwt beam="2">  1       -4 0.22344025E+00 0.10763267E+04</pdfrwt>
<totfact> 0.27605124E-01</totfact>
</mgrwt>
</event>
<event>
 8    1  0.2939692E-006  0.1048370E+04  0.7818608E-02  0.8731603E-01
         -4   -1    0    0    0  501 -0.00000000000E+00  0.00000000000E+00  0.94833145238E+03  0.94833145238E+03  0.00000000000E+00 0. -1.
          4   -1    0    0  502    0  0.00000000000E+00 -0.00000000000E+00 -0.15681607817E+04  0.15681607817E+04  0.00000000000E+00 0.  1.
   -9000010    2    1    2    0  501 -0.24264371671E+03 -0.15950347398E+03  0.33483497946E+03  0.11005423267E+04  0.10073537700E+04 0.  0.
    9000010    2    1    2  502    0  0.24264371671E+03  0.15950347398E+03 -0.95466430883E+03  0.14159499074E+04  0.10045958722E+04 0.  0.
        -13    1    4    4    0    0  0.39684634425E+03  0.42387084399E+03 -0.94574235324E+03  0.11097666976E+04  0.10566000000E+00 0.  1.
          4    1    4    4  502    0 -0.15420262754E+03 -0.26436737001E+03 -0.89219555932E+01  0.30618320979E+03  0.00000000000E+00 0.  1.
         13    1    3    3    0    0 -0.15912251013E+03  0.37121180936E+03  0.38877681270E+03  0.56059397240E+03  0.10566000000E+00 0. -1.
         -4    1    3    3    0  501 -0.83521206579E+02 -0.53071528334E+03 -0.53941833244E+02  0.53994835428E+03  0.00000000000E+00 0. -1.
<mgrwt>
<rscale>  0 0.10470440E+04</rscale>
<asrwt>0</asrwt>
<pdfrwt beam="2">  1        4 0.24125551E+00 0.10457199E+04</pdfrwt>
<pdfrwt beam="1">  1       -4 0.14589715E+00 0.10483697E+04</pdfrwt>
<totfact> 0.22174678E-01</totfact>
</mgrwt>
</event>
<event>
 8    1  0.2939692E-006  0.1416940E+04  0.7818608E-02  0.8461620E-01
         -4   -1    0    0    0  501 -0.00000000000E+00  0.00000000000E+00  0.18221048858E+04  0.18221048858E+04  0.00000000000E+00 0. -1.
          4   -1    0    0  502    0  0.00000000000E+00 -0.00000000000E+00 -0.14605910477E+04  0.14605910477E+04  0.00000000000E+00 0.  1.
   -9000010    2    1    2    0  501  0.13044639871E+03  0.99777788707E+03  0.10012918182E+04  0.17280143573E+04  0.98532803625E+03 0.  0.
    9000010    2    1    2  502    0 -0.13044639871E+03 -0.99777788707E+03 -0.63977798006E+03  0.15546815762E+04  0.99756802514E+03 0.  0.
        -13    1    4    4    0    0 -0.13493549599E+03 -0.25339150134E+03 -0.74916631164E+03  0.80228736416E+03  0.10566000000E+00 0.  1.
          4    1    4    4  502    0  0.44890972769E+01 -0.74438638573E+03  0.10938833157E+03  0.75239421206E+03  0.00000000000E+00 0.  1.
         13    1    3    3    0    0  0.52735220121E+03  0.62110893970E+03  0.37674965855E+03  0.89767308943E+03  0.10566000000E+00 0. -1.
         -4    1    3    3    0  501 -0.39690580250E+03  0.37666894736E+03  0.62454215967E+03  0.83034126789E+03  0.00000000000E+00 0. -1.
<mgrwt>
<rscale>  0 0.14126382E+04</rscale>
<asrwt>0</asrwt>
<pdfrwt beam="2">  1        4 0.22470631E+00 0.14169400E+04</pdfrwt>
<pdfrwt beam="1">  1       -4 0.28032383E+00 0.14083495E+04</pdfrwt>
<totfact> 0.97151771E-02</totfact>
</mgrwt>
</event>
<event>
 8    1  0.2939692E-006  0.1522454E+04  0.7818608E-02  0.8401030E-01
          4   -1    0    0  502    0  0.00000000000E+00  0.00000000000E+00  0.19877047744E+04  0.19877047744E+04  0.00000000000E+00 0.  1.
         -4   -1    0    0    0  501 -0.00000000000E+00 -0.00000000000E+00 -0.11945415911E+04  0.11945415911E+04  0.00000000000E+00 0. -1.
   -9000010    2    1    2    0  501  0.60519152187E+03  0.96798856743E+03  0.10699335411E+03  0.15262088443E+04  0.10072771285E+04 0.  0.
    9000010    2    1    2  502    0 -0.60519152187E+03 -0.96798856743E+03  0.68616982926E+03  0.16560375212E+04  0.98405924227E+03 0.  0.
        -13    1    4    4    0    0 -0.38299830736E+03 -0.10491280279E+04  0.81880365969E+03  0.13848453945E+04  0.10566000000E+00 0.  1.
          4    1    4    4  502    0 -0.22219321451E+03  0.81139460477E+02 -0.13263383043E+03  0.27119212672E+03  0.00000000000E+00 0.  1.
         13    1    3    3    0    0  0.14748255004E+03 -0.19699025920E+03  0.12153173389E+03  0.27445625934E+03  0.10566000000E+00 0. -1.
         -4    1    3    3    0  501  0.45770897183E+03  0.11649788266E+04 -0.14538379780E+02  0.12517525849E+04  0.00000000000E+00 0. -1.
<mgrwt>
<rscale>  0 0.15148043E+04</rscale>
<asrwt>0</asrwt>
<pdfrwt beam="1">  1        4 0.30580073E+00 0.15071932E+04</pdfrwt>
<pdfrwt beam="2">  1       -4 0.18377563E+00 0.15224539E+04</pdfrwt>
<totfact> 0.10732142E-01</totfact>
</mgrwt>
</event>
<event>
 8    1  0.2939692E-006  0.1096109E+04  0.7818608E-02  0.8701556E-01
          4   -1    0    0  502    0  0.00000000000E+00  0.00000000000E+00  0.17768753211E+04  0.17768753211E+04  0.00000000000E+00 0.  1.
         -4   -1    0    0    0  501 -0.00000000000E+00 -0.00000000000E+00 -0.28791395826E+04  0.28791395826E+04  0.00000000000E+00 0. -1.
   -9000010    2    1    2    0  501  0.31887027404E+02 -0.48065759519E+03 -0.25973480231E+04  0.28191616802E+04  0.98458484630E+03 0.  0.
    9000010    2    1    2  502    0 -0.31887027404E+02  0.48065759519E+03  0.14950837616E+04  0.18368532234E+04  0.95221100799E+03 0.  0.
        -13    1    4    4    0    0  0.23362167090E+03 -0.57326026723E+02  0.16411841206E+02  0.24111142269E+03  0.10566000000E+00 0.  1.
          4    1    4    4  502    0 -0.26550869830E+03  0.53798362191E+03  0.14786719204E+04  0.15957418007E+04  0.00000000000E+00 0.  1.
         13    1    3    3    0    0  0.13991645755E+03 -0.27924650176E+03 -0.25700773114E+04  0.25889867944E+04  0.10566000000E+00 0. -1.
         -4    1    3    3    0  501 -0.10802943014E+03 -0.20141109343E+03 -0.27270711720E+02  0.23017488580E+03  0.00000000000E+00 0. -1.
<mgrwt>
<rscale>  0 0.10815198E+04</rscale>
<asrwt>0</asrwt>
<pdfrwt beam="1">  1        4 0.27336544E+00 0.10671243E+04</pdfrwt>
<pdfrwt beam="2">  1       -4 0.44294455E+00 0.10961094E+04</pdfrwt>
<totfact> 0.20785099E-02</totfact>
</mgrwt>
</event>
<event>
 8    1  0.2939692E-006  0.1564511E+04  0.7818608E-02  0.8377475E-01
         -4   -1    0    0    0  501 -0.00000000000E+00  0.00000000000E+00  0.18415490220E+04  0.18415490220E+04  0.00000000000E+00 0. -1.
          4   -1    0    0  502    0  0.00000000000E+00 -0.00000000000E+00 -0.18499824249E+04  0.18499824249E+04  0.00000000000E+00 0.  1.
   -9000010    2    1    2    0  501  0.11583400197E+04  0.30484748293E+03  0.98714430815E+03  0.18371124376E+04  0.98277394879E+03 0.  0.
    9000010    2    1    2  502    0 -0.11583400197E+04 -0.30484748293E+03 -0.99557771105E+03  0.18544190093E+04  0.10064846221E+04 0.  0.
        -13    1    4    4    0    0 -0.31137941179E+03 -0.57458703133E+03 -0.27043793125E+03  0.70727935110E+03  0.10566000000E+00 0.  1.
          4    1    4    4  502    0 -0.84696060786E+03  0.26973954841E+03 -0.72513977980E+03  0.11471396582E+04  0.00000000000E+00 0.  1.
         13    1    3    3    0    0  0.71846372093E+03 -0.29156132976E+03  0.69255653200E+03  0.10396310348E+04  0.10566000000E+00 0. -1.
         -4    1    3    3    0  501  0.43987629873E+03  0.59640881269E+03  0.29458777615E+03  0.79748140285E+03  0.00000000000E+00 0. -1.
<mgrwt>
<rscale>  0 0.15569190E+04</rscale>
<asrwt>0</asrwt>
<pdfrwt beam="2">  1        4 0.28461268E+00 0.15645111E+04</pdfrwt>
<pdfrwt beam="1">  1       -4 0.28331523E+00 0.15493638E+04</pdfrwt>
<totfact> 0.67214792E-02</totfact>
</mgrwt>
</event>
<event>
 8    1  0.2939692E-006  0.1065584E+04  0.7818608E-02  0.8722305E-01
         -4   -1    0    0    0  501 -0.00000000000E+00  0.00000000000E+00  0.97866230432E+03  0.97866230432E+03  0.00000000000E+00 0. -1.
          4   -1    0    0  502    0  0.00000000000E+00 -0.00000000000E+00 -0.14382089891E+04  0.14382089891E+04  0.00000000000E+00 0.  1.
   -9000010    2    1    2    0  501  0.29422789277E+03 -0.19607562647E+03  0.31917905257E+03  0.10970670540E+04  0.98826370432E+03 0.  0.
    9000010    2    1    2  502    0 -0.29422789277E+03  0.19607562647E+03 -0.77872573740E+03  0.13198042394E+04  0.10052132869E+04 0.  0.
        -13    1    4    4    0    0  0.20011726542E+03 -0.29274963709E+03 -0.15961927817E+03  0.38887992371E+03  0.10566000000E+00 0.  1.
          4    1    4    4  502    0 -0.49434515819E+03  0.48882526357E+03 -0.61910645923E+03  0.93092431572E+03  0.00000000000E+00 0.  1.
         13    1    3    3    0    0  0.34092098147E+03 -0.39714225071E+03 -0.18272000602E+03  0.55437865640E+03  0.10566000000E+00 0. -1.
         -4    1    3    3    0  501 -0.46693088703E+02  0.20106662423E+03  0.50189905859E+03  0.54268839764E+03  0.00000000000E+00 0. -1.
<mgrwt>
<rscale>  0 0.10575668E+04</rscale>
<asrwt>0</asrwt>
<pdfrwt beam="2">  1        4 0.22126292E+00 0.10655841E+04</pdfrwt>
<pdfrwt beam="1">  1       -4 0.15056343E+00 0.10496099E+04</pdfrwt>
<totfact> 0.23683359E-01</totfact>
</mgrwt>
</event>
<event>
 8    1  0.2939692E-006  0.1012083E+04  0.7818608E-02  0.8776221E-01
          4   -1    0    0  502    0  0.00000000000E+00  0.00000000000E+00  0.32349812006E+03  0.32349812006E+03  0.00000000000E+00 0.  1.
         -4   -1    0    0    0  501 -0.00000000000E+00 -0.00000000000E+00 -0.31578560680E+04  0.31578560680E+04  0.00000000000E+00 0. -1.
   -9000010    2    1    2    0  501 -0.23498056810E+02 -0.15930553336E+03 -0.17075587639E+04  0.19849609354E+04  0.99919095843E+03 0.  0.
    9000010    2    1    2  502    0  0.23498056810E+02  0.15930553336E+03 -0.11267991841E+04  0.14963932527E+04  0.97138352557E+03 0.  0.
        -13    1    4    4    0    0  0.26214901147E+03 -0.34022108579E+03 -0.45113454258E+03  0.62289234873E+03  0.10566000000E+00 0.  1.
          4    1    4    4  502    0 -0.23865095466E+03  0.49952661915E+03 -0.67566464149E+03  0.87350090393E+03  0.00000000000E+00 0.  1.
         13    1    3    3    0    0  0.16830453184E+02 -0.43212488200E+03 -0.24582469770E+03  0.49743840922E+03  0.10566000000E+00 0. -1.
         -4    1    3    3    0  501 -0.40328509995E+02  0.27281934865E+03 -0.14617340662E+04  0.14875225262E+04  0.00000000000E+00 0. -1.
<mgrwt>
<rscale>  0 0.99826755E+03</rscale>
<asrwt>0</asrwt>
<pdfrwt beam="1">  1        4 0.49768941E-01 0.98464022E+03</pdfrwt>
<pdfrwt beam="2">  1       -4 0.48582402E+00 0.10120835E+04</pdfrwt>
<totfact> 0.24703787E-01</totfact>
</mgrwt>
</event>
<event>
 8    1  0.2939692E-006  0.1256651E+04  0.7818608E-02  0.8588730E-01
          4   -1    0    0  502    0  0.00000000000E+00  0.00000000000E+00  0.15421966481E+04  0.15421966481E+04  0.00000000000E+00 0.  1.
         -4   -1    0    0    0  501 -0.00000000000E+00 -0.00000000000E+00 -0.51581827970E+04  0.51581827970E+04  0.00000000000E+00 0. -1.
   -9000010    2    1    2    0  501 -0.29578403776E+03  0.56109916655E+03 -0.48168661920E+04  0.49621950516E+04  0.10093856282E+04 0.  0.
    9000010    2    1    2  502    0  0.29578403776E+03 -0.56109916655E+03  0.12008800432E+04  0.17381843935E+04  0.10848279292E+04 0.  0.
        -13    1    4    4    0    0  0.46425759387E+03  0.93768566613E+02  0.85795456743E+03  0.98000699410E+03  0.10566000000E+00 0.  1.
          4    1    4    4  502    0 -0.16847355611E+03 -0.65486773316E+03  0.34292547574E+03  0.75817739939E+03  0.00000000000E+00 0.  1.
         13    1    3    3    0    0  0.30409607927E+03 -0.57989446737E+02 -0.90543291501E+03  0.95689392103E+03  0.10566000000E+00 0. -1.
         -4    1    3    3    0  501 -0.59988011703E+03  0.61908861329E+03 -0.39114332770E+04  0.40053011306E+04  0.00000000000E+00 0. -1.
<mgrwt>
<rscale>  0 0.12239668E+04</rscale>
<asrwt>0</asrwt>
<pdfrwt beam="1">  1        4 0.23726102E+00 0.12566511E+04</pdfrwt>
<pdfrwt beam="2">  1       -4 0.79356659E+00 0.11921325E+04</pdfrwt>
<totfact> 0.28717234E-04</totfact>
</mgrwt>
</event>
<event>
 8    1  0.2939692E-006  0.1206914E+04  0.7818608E-02  0.8609472E-01
          4   -1    0    0  502    0  0.00000000000E+00  0.00000000000E+00  0.11773228666E+04  0.11773228666E+04  0.00000000000E+00 0.  1.
         -4   -1    0    0    0  501 -0.00000000000E+00 -0.00000000000E+00 -0.16993641779E+04  0.16993641779E+04  0.00000000000E+00 0. -1.
   -9000010    2    1    2    0  501 -0.53071901092E+03  0.39807585234E+03 -0.10269384085E+04  0.15684197206E+04  0.98245146057E+03 0.  0.
    9000010    2    1    2  502    0  0.53071901092E+03 -0.39807585234E+03  0.50489709725E+03  0.13082673238E+04  0.10082238139E+04 0.  0.
        -13    1    4    4    0    0  0.73367095047E+03 -0.49694581734E+03  0.59265895190E+03  0.10660548079E+04  0.10566000000E+00 0.  1.
          4    1    4    4  502    0 -0.20295193955E+03  0.98869965004E+02 -0.87761854658E+02  0.24221251594E+03  0.00000000000E+00 0.  1.
         13    1    3    3    0    0 -0.35966713612E+03  0.72015566770E+03 -0.82015276294E+03  0.11491889315E+04  0.10566000000E+00 0. -1.
         -4    1    3    3    0  501 -0.17105187480E+03 -0.32207981537E+03 -0.20678564558E+03  0.41923078913E+03  0.00000000000E+00 0. -1.
<mgrwt>
<rscale>  0 0.11961439E+04</rscale>
<asrwt>0</asrwt>
<pdfrwt beam="1">  1        4 0.18112659E+00 0.12069144E+04</pdfrwt>
<pdfrwt beam="2">  1       -4 0.26144064E+00 0.11854695E+04</pdfrwt>
<totfact> 0.14511834E-01</totfact>
</mgrwt>
</event>
<event>
 8    1  0.2939692E-006  0.1067384E+04  0.7818608E-02  0.8723545E-01
          4   -1    0    0  502    0  0.00000000000E+00  0.00000000000E+00  0.12454675964E+04  0.12454675964E+04  0.00000000000E+00 0.  1.
         -4   -1    0    0    0  501 -0.00000000000E+00 -0.00000000000E+00 -0.24068358545E+04  0.24068358545E+04  0.00000000000E+00 0. -1.
   -9000010    2    1    2    0  501  0.24584132071E+03 -0.13473190101E+03 -0.20253485185E+04  0.22790697153E+04  0.10067430187E+04 0.  0.
    9000010    2    1    2  502    0 -0.24584132071E+03  0.13473190101E+03  0.86398026042E+03  0.13732337356E+04  0.10299118224E+04 0.  0.
        -13    1    4    4    0    0  0.48794190587E+02  0.79157540966E+02 -0.22514452697E+03  0.24359158137E+03  0.10566000000E+00 0.  1.
          4    1    4    4  502    0 -0.29463551130E+03  0.55574360039E+02  0.10891247874E+04  0.11296421542E+04  0.00000000000E+00 0.  1.
         13    1    3    3    0    0  0.19782000550E+03  0.42772102517E+03 -0.77207173923E+03  0.90452905516E+03  0.10566000000E+00 0. -1.
         -4    1    3    3    0  501  0.48021315215E+02 -0.56245292617E+03 -0.12532767793E+04  0.13745406601E+04  0.00000000000E+00 0. -1.
<mgrwt>
<rscale>  0 0.10561563E+04</rscale>
<asrwt>0</asrwt>
<pdfrwt beam="1">  1        4 0.19161040E+00 0.10673842E+04</pdfrwt>
<pdfrwt beam="2">  1       -4 0.37028243E+00 0.10450465E+04</pdfrwt>
<totfact> 0.65895655E-02</totfact>
</mgrwt>
</event>
<event>
 8    1  0.2939692E-006  0.1043765E+04  0.7818608E-02  0.8753371E-01
         -4   -1    0    0    0  501 -0.00000000000E+00  0.00000000000E+00  0.10838706011E+04  0.10838706011E+04  0.00000000000E+00 0. -1.
          4   -1    0    0  502    0  0.00000000000E+00 -0.00000000000E+00 -0.31836525359E+04  0.31836525359E+04  0.00000000000E+00 0.  1.
   -9000010    2    1    2    0  501  0.23470070828E+03  0.87323860534E+02  0.73739140676E+03  0.12444455462E+04  0.97066407766E+03 0.  0.
    9000010    2    1    2  502    0 -0.23470070828E+03 -0.87323860534E+02 -0.28371733415E+04  0.30230775908E+04  0.10132796608E+04 0.  0.
        -13    1    4    4    0    0  0.14512049920E+03  0.25954232672E+03 -0.21186565381E+04  0.21394222856E+04  0.10566000000E+00 0.  1.
          4    1    4    4  502    0 -0.37982120749E+03 -0.34686618725E+03 -0.71851680344E+03  0.88365530516E+03  0.00000000000E+00 0.  1.
         13    1    3    3    0    0 -0.31585640781E+03  0.51402006613E+02 -0.43099334529E+01  0.32004065887E+03  0.10566000000E+00 0. -1.
         -4    1    3    3    0  501  0.55055711610E+03  0.35921853920E+02  0.74170134021E+03  0.92440488735E+03  0.00000000000E+00 0. -1.
<mgrwt>
<rscale>  0 0.10228971E+04</rscale>
<asrwt>0</asrwt>
<pdfrwt beam="2">  1        4 0.48979269E+00 0.10437651E+04</pdfrwt>
<pdfrwt beam="1">  1       -4 0.16674932E+00 0.10024463E+04</pdfrwt>
<totfact> 0.24376296E-02</totfact>
</mgrwt>
</event>
<event>
 8    1  0.2939692E-006  0.1215871E+04  0.7818608E-02  0.8597995E-01
         -4   -1    0    0    0  501 -0.00000000000E+00  0.00000000000E+00  0.13278114090E+04  0.13278114090E+04  0.00000000000E+00 0. -1.
          4   -1    0    0  502    0  0.00000000000E+00 -0.00000000000E+00 -0.13104050411E+04  0.13104050411E+04  0.00000000000E+00 0.  1.
   -9000010    2    1    2    0  501  0.35422243200E+02 -0.70346690802E+03  0.53061737974E+03  0.13266107684E+04  0.99107058335E+03 0.  0.
    9000010    2    1    2  502    0 -0.35422243200E+02  0.70346690802E+03 -0.51321101183E+03  0.13116056816E+04  0.98020584341E+03 0.  0.
        -13    1    4    4    0    0  0.24338651651E+03 -0.16513760499E+03 -0.10671012313E+03  0.31288094628E+03  0.10566000000E+00 0.  1.
          4    1    4    4  502    0 -0.27880875972E+03  0.86860451301E+03 -0.40650088870E+03  0.99872473537E+03  0.00000000000E+00 0.  1.
         13    1    3    3    0    0 -0.11195620621E+03 -0.20159947298E+03  0.73097846797E+03  0.76648944639E+03  0.10566000000E+00 0. -1.
         -4    1    3    3    0  501  0.14737844941E+03 -0.50186743504E+03 -0.20036108824E+03  0.56012132202E+03  0.00000000000E+00 0. -1.
<mgrwt>
<rscale>  0 0.12114428E+04</rscale>
<asrwt>0</asrwt>
<pdfrwt beam="2">  1        4 0.20160077E+00 0.12070310E+04</pdfrwt>
<pdfrwt beam="1">  1       -4 0.20427868E+00 0.12158706E+04</pdfrwt>
<totfact> 0.17437704E-01</totfact>
</mgrwt>
</event>
<event>
 8    1  0.2939692E-006  0.1178504E+04  0.7818608E-02  0.8624152E-01
          4   -1    0    0  502    0  0.00000000000E+00  0.00000000000E+00  0.18490472394E+04  0.18490472394E+04  0.00000000000E+00 0.  1.
         -4   -1    0    0    0  501 -0.00000000000E+00 -0.00000000000E+00 -0.19025943966E+04  0.19025943966E+04  0.00000000000E+00 0. -1.
   -9000010    2    1    2    0  501 -0.11615081343E+03 -0.60694150867E+03 -0.14873661239E+04  0.18976645174E+04  0.10034957039E+04 0.  0.
    9000010    2    1    2  502    0  0.11615081343E+03  0.60694150867E+03  0.14338189667E+04  0.18539771186E+04  0.99976263210E+03 0.  0.
        -13    1    4    4    0    0  0.50711375219E+03  0.10573180877E+03  0.47026414066E+03  0.69963701032E+03  0.10566000000E+00 0.  1.
          4    1    4    4  502    0 -0.39096293876E+03  0.50120969990E+03  0.96355482609E+03  0.11543401083E+04  0.00000000000E+00 0.  1.
         13    1    3    3    0    0 -0.95601708128E+02 -0.49759366802E+03 -0.16356189873E+04  0.17123050627E+04  0.10566000000E+00 0. -1.
         -4    1    3    3    0  501 -0.20549105306E+02 -0.10934784065E+03  0.14825286332E+03  0.18535945475E+03  0.00000000000E+00 0. -1.
<mgrwt>
<rscale>  0 0.11769148E+04</rscale>
<asrwt>0</asrwt>
<pdfrwt beam="1">  1        4 0.28446881E+00 0.11753273E+04</pdfrwt>
<pdfrwt beam="2">  1       -4 0.29270683E+00 0.11785044E+04</pdfrwt>
<totfact> 0.65589829E-02</totfact>
</mgrwt>
</event>
<event>
 8    1  0.2939692E-006  0.2067961E+04  0.7818608E-02  0.8146609E-01
         -4   -1    0    0    0  501 -0.00000000000E+00  0.00000000000E+00  0.26911006297E+04  0.26911006297E+04  0.00000000000E+00 0. -1.
          4   -1    0    0  502    0  0.00000000000E+00 -0.00000000000E+00 -0.19721467741E+04  0.19721467741E+04  0.00000000000E+00 0.  1.
   -9000010    2    1    2    0  501 -0.17522899229E+04  0.24313734014E+03  0.14163815483E+04  0.25065116717E+04  0.10709007097E+04 0.  0.
    9000010    2    1    2  502    0  0.17522899229E+04 -0.24313734014E+03 -0.69742769272E+03  0.21567357320E+04  0.10175794274E+04 0.  0.
        -13    1    4    4    0    0  0.49526858451E+03  0.38971909815E+03 -0.27283681196E+03  0.68674004062E+03  0.10566000000E+00 0.  1.
          4    1    4    4  502    0  0.12570213384E+04 -0.63285643829E+03 -0.42459088075E+03  0.14699956914E+04  0.00000000000E+00 0.  1.
         13    1    3    3    0    0 -0.58457620215E+03 -0.41230958737E+03  0.35958245957E+03  0.80064229737E+03  0.10566000000E+00 0. -1.
         -4    1    3    3    0  501 -0.11677137208E+04  0.65544692750E+03  0.10567990887E+04  0.17058693744E+04  0.00000000000E+00 0. -1.
<mgrwt>
<rscale>  0 0.20543652E+04</rscale>
<asrwt>0</asrwt>
<pdfrwt beam="2">  1        4 0.30340720E+00 0.20408586E+04</pdfrwt>
<pdfrwt beam="1">  1       -4 0.41401548E+00 0.20679613E+04</pdfrwt>
<totfact> 0.20743212E-02</totfact>
</mgrwt>
</event>
<event>
 8    1  0.2939692E-006  0.1029954E+04  0.7818608E-02  0.8750840E-01
          4   -1    0    0  502    0  0.00000000000E+00  0.00000000000E+00  0.88307866610E+03  0.88307866610E+03  0.00000000000E+00 0.  1.
         -4   -1    0    0    0  501 -0.00000000000E+00 -0.00000000000E+00 -0.15963817187E+04  0.15963817187E+04  0.00000000000E+00 0. -1.
   -9000010    2    1    2    0  501 -0.58121741531E+02 -0.30950869476E+03 -0.98225069142E+03  0.14232432773E+04  0.98062798068E+03 0.  0.
    9000010    2    1    2  502    0  0.58121741531E+02  0.30950869476E+03  0.26894763878E+03  0.10562171076E+04  0.97164189751E+03 0.  0.
        -13    1    4    4    0    0  0.32071346699E+03  0.95874388565E+02 -0.26299627453E+03  0.42569481776E+03  0.10566000000E+00 0.  1.
          4    1    4    4  502    0 -0.26259172545E+03  0.21363430620E+03  0.53194391331E+03  0.63052228983E+03  0.00000000000E+00 0.  1.
         13    1    3    3    0    0  0.21958111452E+03  0.22774403733E+03 -0.67374284817E+03  0.74432025971E+03  0.10566000000E+00 0. -1.
         -4    1    3    3    0  501 -0.27770285605E+03 -0.53725273210E+03 -0.30850784325E+03  0.67892301755E+03  0.00000000000E+00 0. -1.
<mgrwt>
<rscale>  0 0.10256690E+04</rscale>
<asrwt>0</asrwt>
<pdfrwt beam="1">  1        4 0.13585826E+00 0.10214019E+04</pdfrwt>
<pdfrwt beam="2">  1       -4 0.24559719E+00 0.10299539E+04</pdfrwt>
<totfact> 0.24149668E-01</totfact>
</mgrwt>
</event>
<event>
 8    1  0.2939692E-006  0.1021050E+04  0.7818608E-02  0.8765663E-01
         -4   -1    0    0    0  501 -0.00000000000E+00  0.00000000000E+00  0.22991955157E+04  0.22991955157E+04  0.00000000000E+00 0. -1.
          4   -1    0    0  502    0  0.00000000000E+00 -0.00000000000E+00 -0.81479174562E+03  0.81479174562E+03  0.00000000000E+00 0.  1.
   -9000010    2    1    2    0  501 -0.52495726152E+01 -0.83928901131E+02  0.17980001648E+04  0.20676913602E+04  0.10175811270E+04 0.  0.
    9000010    2    1    2  502    0  0.52495726152E+01  0.83928901131E+02 -0.31359639478E+03  0.10462959010E+04  0.99464606531E+03 0.  0.
        -13    1    4    4    0    0  0.48229674422E+03  0.17161479213E+03 -0.18703060994E+03  0.54501582232E+03  0.10566000000E+00 0.  1.
          4    1    4    4  502    0 -0.47704717160E+03 -0.87685890997E+02 -0.12656578484E+03  0.50128007871E+03  0.00000000000E+00 0.  1.
         13    1    3    3    0    0  0.43998195892E+03 -0.10197747281E+03  0.41024252118E+03  0.61014954436E+03  0.10566000000E+00 0. -1.
         -4    1    3    3    0  501 -0.44523153153E+03  0.18048571676E+02  0.13877576436E+04  0.14575418159E+04  0.00000000000E+00 0. -1.
<mgrwt>
<rscale>  0 0.10095576E+04</rscale>
<asrwt>0</asrwt>
<pdfrwt beam="2">  1        4 0.12535258E+00 0.99819458E+03</pdfrwt>
<pdfrwt beam="1">  1       -4 0.35372239E+00 0.10210499E+04</pdfrwt>
<totfact> 0.14049383E-01</totfact>
</mgrwt>
</event>
<event>
 8    1  0.2939692E-006  0.1061792E+04  0.7818608E-02  0.8730340E-01
          4   -1    0    0  502    0  0.00000000000E+00  0.00000000000E+00  0.19611858967E+04  0.19611858967E+04  0.00000000000E+00 0.  1.
         -4   -1    0    0    0  501 -0.00000000000E+00 -0.00000000000E+00 -0.17122011255E+04  0.17122011255E+04  0.00000000000E+00 0. -1.
   -9000010    2    1    2    0  501 -0.22683695284E+03 -0.17939975694E+03 -0.13822743936E+04  0.17270037103E+04  0.99409257123E+03 0.  0.
    9000010    2    1    2  502    0  0.22683695284E+03  0.17939975694E+03  0.16312591648E+04  0.19463833120E+04  0.10216468364E+04 0.  0.
        -13    1    4    4    0    0  0.56396902712E+03  0.33707410507E+03  0.79723848613E+03  0.10330872329E+04  0.10566000000E+00 0.  1.
          4    1    4    4  502    0 -0.33713207428E+03 -0.15767434813E+03  0.83402067868E+03  0.91329607907E+03  0.00000000000E+00 0.  1.
         13    1    3    3    0    0 -0.57466949103E+03 -0.25034067957E+03 -0.11275702268E+04  0.12900891858E+04  0.10566000000E+00 0. -1.
         -4    1    3    3    0  501  0.34783253818E+03  0.70940922635E+02 -0.25470416677E+03  0.43691452447E+03  0.00000000000E+00 0. -1.
<mgrwt>
<rscale>  0 0.10484654E+04</rscale>
<asrwt>0</asrwt>
<pdfrwt beam="1">  1        4 0.30172091E+00 0.10617917E+04</pdfrwt>
<pdfrwt beam="2">  1       -4 0.26341556E+00 0.10353064E+04</pdfrwt>
<totfact> 0.70721124E-02</totfact>
</mgrwt>
</event>
<event>
 8    1  0.2939692E-006  0.1074640E+04  0.7818608E-02  0.8710531E-01
         -4   -1    0    0    0  501 -0.00000000000E+00  0.00000000000E+00  0.51067747581E+03  0.51067747581E+03  0.00000000000E+00 0. -1.
          4   -1    0    0  502    0  0.00000000000E+00 -0.00000000000E+00 -0.25986756896E+04  0.25986756896E+04  0.00000000000E+00 0.  1.
   -9000010    2    1    2    0  501 -0.18874114150E+03 -0.39353959142E+03 -0.47464679810E+03  0.11747941862E+04  0.98201586972E+03 0.  0.
    9000010    2    1    2  502    0  0.18874114150E+03  0.39353959142E+03 -0.16133514157E+04  0.19345589793E+04  0.97422739912E+03 0.  0.
        -13    1    4    4    0    0  0.45948848442E+03  0.50004073747E+03 -0.69699627723E+03  0.97312600833E+03  0.10566000000E+00 0.  1.
          4    1    4    4  502    0 -0.27074734293E+03 -0.10650114605E+03 -0.91635513846E+03  0.96143297093E+03  0.00000000000E+00 0.  1.
         13    1    3    3    0    0 -0.13584824279E+03 -0.11258781260E+03 -0.75442648081E+03  0.77478389679E+03  0.10566000000E+00 0. -1.
         -4    1    3    3    0  501 -0.52892898710E+02 -0.28095177881E+03  0.27977968270E+03  0.40001028938E+03  0.00000000000E+00 0. -1.
<mgrwt>
<rscale>  0 0.10710782E+04</rscale>
<asrwt>0</asrwt>
<pdfrwt beam="2">  1        4 0.39979626E+00 0.10675278E+04</pdfrwt>
<pdfrwt beam="1">  1       -4 0.78565766E-01 0.10746403E+04</pdfrwt>
<totfact> 0.22809760E-01</totfact>
</mgrwt>
</event>
<event>
 8    1  0.2939692E-006  0.1120084E+04  0.7818608E-02  0.8672730E-01
          4   -1    0    0  502    0  0.00000000000E+00  0.00000000000E+00  0.50408785049E+03  0.50408785049E+03  0.00000000000E+00 0.  1.
         -4   -1    0    0    0  501 -0.00000000000E+00 -0.00000000000E+00 -0.24820918169E+04  0.24820918169E+04  0.00000000000E+00 0. -1.
   -9000010    2    1    2    0  501 -0.29704892860E+03  0.40208704798E+03 -0.88252515036E+03  0.14194435415E+04  0.99300416232E+03 0.  0.
    9000010    2    1    2  502    0  0.29704892860E+03 -0.40208704798E+03 -0.10954788161E+04  0.15667361259E+04  0.10023353688E+04 0.  0.
        -13    1    4    4    0    0 -0.15682321407E+03 -0.32012030685E+03  0.22681443327E+02  0.35719041191E+03  0.10566000000E+00 0.  1.
          4    1    4    4  502    0  0.45387214267E+03 -0.81966741135E+02 -0.11181602594E+04  0.12095457140E+04  0.00000000000E+00 0.  1.
         13    1    3    3    0    0 -0.72909353700E+02  0.61645705973E+03 -0.91703549167E+03  0.11073794221E+04  0.10566000000E+00 0. -1.
         -4    1    3    3    0  501 -0.22413957490E+03 -0.21437001174E+03  0.34510341306E+02  0.31206411942E+03  0.00000000000E+00 0. -1.
<mgrwt>
<rscale>  0 0.11159050E+04</rscale>
<asrwt>0</asrwt>
<pdfrwt beam="1">  1        4 0.77551977E-01 0.11200840E+04</pdfrwt>
<pdfrwt beam="2">  1       -4 0.38186028E+00 0.11117416E+04</pdfrwt>
<totfact> 0.27394529E-01</totfact>
</mgrwt>
</event>
<event>
 8    1  0.2939692E-006  0.1075971E+04  0.7818608E-02  0.8710919E-01
         -4   -1    0    0    0  501 -0.00000000000E+00  0.00000000000E+00  0.64801151897E+03  0.64801151897E+03  0.00000000000E+00 0. -1.
          4   -1    0    0  502    0  0.00000000000E+00 -0.00000000000E+00 -0.26956799668E+04  0.26956799668E+04  0.00000000000E+00 0.  1.
   -9000010    2    1    2    0  501 -0.34791511556E+03 -0.16773720833E+03 -0.46912330877E+02  0.10769933184E+04  0.10042575081E+04 0.  0.
    9000010    2    1    2  502    0  0.34791511556E+03  0.16773720833E+03 -0.20007561169E+04  0.22666981673E+04  0.99283172974E+03 0.  0.
        -13    1    4    4    0    0 -0.56007258101E+02 -0.34097176188E+03 -0.34590144364E+03  0.48892369061E+03  0.10566000000E+00 0.  1.
          4    1    4    4  502    0  0.40392237366E+03  0.50870897022E+03 -0.16548546733E+04  0.17777744767E+04  0.00000000000E+00 0.  1.
         13    1    3    3    0    0 -0.23112978866E+03  0.41841940985E+03 -0.86122376574E+01  0.47808991157E+03  0.10566000000E+00 0. -1.
         -4    1    3    3    0  501 -0.11678532689E+03 -0.58615661818E+03 -0.38300093219E+02  0.59890340687E+03  0.00000000000E+00 0. -1.
<mgrwt>
<rscale>  0 0.10706297E+04</rscale>
<asrwt>0</asrwt>
<pdfrwt beam="2">  1        4 0.41472001E+00 0.10653148E+04</pdfrwt>
<pdfrwt beam="1">  1       -4 0.99694077E-01 0.10759711E+04</pdfrwt>
<totfact> 0.12312083E-01</totfact>
</mgrwt>
</event>
<event>
 8    1  0.2939692E-006  0.1265589E+04  0.7818608E-02  0.8562039E-01
          4   -1    0    0  502    0  0.00000000000E+00  0.00000000000E+00  0.16548053039E+04  0.16548053039E+04  0.00000000000E+00 0.  1.
         -4   -1    0    0    0  501 -0.00000000000E+00 -0.00000000000E+00 -0.10541636430E+04  0.10541636430E+04  0.00000000000E+00 0. -1.
   -9000010    2    1    2    0  501  0.11772555417E+03  0.76433052903E+03 -0.10171998106E+03  0.12696702453E+04  0.10018258899E+04 0.  0.
    9000010    2    1    2  502    0 -0.11772555417E+03 -0.76433052903E+03  0.70236164193E+03  0.14392987015E+04  0.99005475227E+03 0.  0.
        -13    1    4    4    0    0  0.27273905336E+03 -0.64473509953E+03  0.93638556042E+02  0.70628473730E+03  0.10566000000E+00 0.  1.
          4    1    4    4  502    0 -0.39046460753E+03 -0.11959542950E+03  0.60872308588E+03  0.73301396424E+03  0.00000000000E+00 0.  1.
         13    1    3    3    0    0  0.25346753152E+03  0.44966611004E+03  0.40627548121E+03  0.65689053719E+03  0.10566000000E+00 0. -1.
         -4    1    3    3    0  501 -0.13574197735E+03  0.31466441899E+03 -0.50799546227E+03  0.61277970812E+03  0.00000000000E+00 0. -1.
<mgrwt>
<rscale>  0 0.12609318E+04</rscale>
<asrwt>0</asrwt>
<pdfrwt beam="1">  1        4 0.25458543E+00 0.12562917E+04</pdfrwt>
<pdfrwt beam="2">  1       -4 0.16217902E+00 0.12655890E+04</pdfrwt>
<totfact> 0.17517267E-01</totfact>
</mgrwt>
</event>
<event>
 8    1  0.2939692E-006  0.1756707E+04  0.7818608E-02  0.8275862E-01
          4   -1    0    0  502    0  0.00000000000E+00  0.00000000000E+00  0.22280521385E+04  0.22280521385E+04  0.00000000000E+00 0.  1.
         -4   -1    0    0    0  501 -0.00000000000E+00 -0.00000000000E+00 -0.17448420377E+04  0.17448420377E+04  0.00000000000E+00 0. -1.
   -9000010    2    1    2    0  501 -0.14414032239E+04  0.16044759031E+03 -0.66237146773E+03  0.18774333616E+04  0.99127866054E+03 0.  0.
    9000010    2    1    2  502    0  0.14414032239E+04 -0.16044759031E+03  0.11455815686E+04  0.20954608146E+04  0.98752833494E+03 0.  0.
        -13    1    4    4    0    0  0.36179403497E+03  0.31906175438E+03  0.66176083520E+03  0.81891558846E+03  0.10566000000E+00 0.  1.
          4    1    4    4  502    0  0.10796091889E+04 -0.47950934469E+03  0.48382073340E+03  0.12765452262E+04  0.00000000000E+00 0.  1.
         13    1    3    3    0    0 -0.26164383759E+03  0.38988720671E+03  0.62829992055E+02  0.47372687360E+03  0.10566000000E+00 0. -1.
         -4    1    3    3    0  501 -0.11797593863E+04 -0.22943961640E+03 -0.72520145979E+03  0.14037064880E+04  0.00000000000E+00 0. -1.
<mgrwt>
<rscale>  0 0.17556501E+04</rscale>
<asrwt>0</asrwt>
<pdfrwt beam="1">  1        4 0.34277725E+00 0.17545937E+04</pdfrwt>
<pdfrwt beam="2">  1       -4 0.26843724E+00 0.17567072E+04</pdfrwt>
<totfact> 0.49320364E-02</totfact>
</mgrwt>
</event>
<event>
 8    1  0.2939692E-006  0.1001705E+04  0.7818608E-02  0.8775628E-01
         -4   -1    0    0    0  501 -0.00000000000E+00  0.00000000000E+00  0.90110486563E+03  0.90110486563E+03  0.00000000000E+00 0. -1.
          4   -1    0    0  502    0  0.00000000000E+00 -0.00000000000E+00 -0.11150440006E+04  0.11150440006E+04  0.00000000000E+00 0.  1.
   -9000010    2    1    2    0  501 -0.10165519331E+03 -0.67455468111E+02 -0.23326332377E+02  0.10019768346E+04  0.99424817867E+03 0.  0.
    9000010    2    1    2  502    0  0.10165519331E+03  0.67455468111E+02 -0.19061280254E+03  0.10141720316E+04  0.98859883201E+03 0.  0.
        -13    1    4    4    0    0  0.17098786970E+03  0.36659778639E+03  0.25117302099E+03  0.47614985688E+03  0.10566000000E+00 0.  1.
          4    1    4    4  502    0 -0.69332676393E+02 -0.29914231828E+03 -0.44178582353E+03  0.53802217470E+03  0.00000000000E+00 0.  1.
         13    1    3    3    0    0  0.40108170344E+03 -0.18270711523E+03 -0.15919017143E+03  0.46860425162E+03  0.10566000000E+00 0. -1.
         -4    1    3    3    0  501 -0.50273689675E+03  0.11525164712E+03  0.13586383906E+03  0.53337258298E+03  0.00000000000E+00 0. -1.
<mgrwt>
<rscale>  0 0.99889781E+03</rscale>
<asrwt>0</asrwt>
<pdfrwt beam="2">  1        4 0.17154523E+00 0.99609822E+03</pdfrwt>
<pdfrwt beam="1">  1       -4 0.13863152E+00 0.10017053E+04</pdfrwt>
<totfact> 0.37483194E-01</totfact>
</mgrwt>
</event>
<event>
 8    1  0.2939692E-006  0.1037728E+04  0.7818608E-02  0.8879782E-01
         -4   -1    0    0    0  501 -0.00000000000E+00  0.00000000000E+00  0.12834023594E+04  0.12834023594E+04  0.00000000000E+00 0. -1.
          4   -1    0    0  502    0  0.00000000000E+00 -0.00000000000E+00 -0.15900805950E+04  0.15900805950E+04  0.00000000000E+00 0.  1.
   -9000010    2    1    2    0  501 -0.19117222382E+03 -0.10854693129E+03  0.94445823686E+03  0.14031678009E+04  0.10141741767E+04 0.  0.
    9000010    2    1    2  502    0  0.19117222382E+03  0.10854693129E+03 -0.12511364725E+04  0.14703151535E+04  0.74037485258E+03 0.  0.
        -13    1    4    4    0    0  0.15667943788E+02  0.40680896274E+03 -0.51161541639E+03  0.65382670646E+03  0.10566000000E+00 0.  1.
          4    1    4    4  502    0  0.17550428004E+03 -0.29826203145E+03 -0.73952105611E+03  0.81648844703E+03  0.00000000000E+00 0.  1.
         13    1    3    3    0    0  0.13193796186E+03 -0.27332023458E+03  0.99197936358E+03  0.10373690979E+04  0.10566000000E+00 0. -1.
         -4    1    3    3    0  501 -0.32311018569E+03  0.16477330328E+03 -0.47521126722E+02  0.36579870292E+03  0.00000000000E+00 0. -1.
<mgrwt>
<rscale>  0 0.89524398E+03</rscale>
<asrwt>0</asrwt>
<pdfrwt beam="2">  1        4 0.24462778E+00 0.77232388E+03</pdfrwt>
<pdfrwt beam="1">  1       -4 0.19744652E+00 0.10377276E+04</pdfrwt>
<totfact> 0.14481640E-01</totfact>
</mgrwt>
</event>
<event>
 8    1  0.2939692E-006  0.1207956E+04  0.7818608E-02  0.8629184E-01
         -4   -1    0    0    0  501 -0.00000000000E+00  0.00000000000E+00  0.26574149863E+04  0.26574149863E+04  0.00000000000E+00 0. -1.
          4   -1    0    0  502    0  0.00000000000E+00 -0.00000000000E+00 -0.15312004143E+04  0.15312004143E+04  0.00000000000E+00 0.  1.
   -9000010    2    1    2    0  501  0.52898930078E+03 -0.49063728294E+02  0.22621295652E+04  0.25304658012E+04  0.10018932436E+04 0.  0.
    9000010    2    1    2  502    0 -0.52898930078E+03  0.49063728294E+02 -0.11359149931E+04  0.16581495994E+04  0.10848595727E+04 0.  0.
        -13    1    4    4    0    0 -0.84657864239E+03  0.86120032418E+02 -0.99353584469E+03  0.13081381974E+04  0.10566000000E+00 0.  1.
          4    1    4    4  502    0  0.31758934162E+03 -0.37056304124E+02 -0.14237914844E+03  0.35001140195E+03  0.00000000000E+00 0.  1.
         13    1    3    3    0    0  0.42483348323E+03 -0.34761729849E+03  0.21087580764E+04  0.21790323336E+04  0.10566000000E+00 0. -1.
         -4    1    3    3    0  501  0.10415581755E+03  0.29855357020E+03  0.15337148880E+03  0.35143346765E+03  0.00000000000E+00 0. -1.
<mgrwt>
<rscale>  0 0.11704101E+04</rscale>
<asrwt>0</asrwt>
<pdfrwt beam="2">  1        4 0.23556929E+00 0.12079558E+04</pdfrwt>
<pdfrwt beam="1">  1       -4 0.40883308E+00 0.11340313E+04</pdfrwt>
<totfact> 0.35379396E-02</totfact>
</mgrwt>
</event>
<event>
 8    1  0.2939692E-006  0.1115281E+04  0.7818608E-02  0.8682690E-01
         -4   -1    0    0    0  501 -0.00000000000E+00  0.00000000000E+00  0.18392516022E+04  0.18392516022E+04  0.00000000000E+00 0. -1.
          4   -1    0    0  502    0  0.00000000000E+00 -0.00000000000E+00 -0.97438210483E+03  0.97438210483E+03  0.00000000000E+00 0.  1.
   -9000010    2    1    2    0  501 -0.39485108402E+03 -0.30120822812E+03  0.12251862266E+04  0.16415932759E+04  0.97319752267E+03 0.  0.
    9000010    2    1    2  502    0  0.39485108402E+03  0.30120822812E+03 -0.36031672924E+03  0.11720404312E+04  0.99860745630E+03 0.  0.
        -13    1    4    4    0    0 -0.25272310425E+03  0.32825297406E+03 -0.31850286237E+03  0.52255436742E+03  0.10566000000E+00 0.  1.
          4    1    4    4  502    0  0.64757418827E+03 -0.27044745939E+02 -0.41813866864E+02  0.64948606379E+03  0.00000000000E+00 0.  1.
         13    1    3    3    0    0 -0.38933524919E+03 -0.48489768596E+03  0.28578162509E+03  0.68438209395E+03  0.10566000000E+00 0. -1.
         -4    1    3    3    0  501 -0.55158348273E+01  0.18368945784E+03  0.93940460154E+03  0.95721118190E+03  0.00000000000E+00 0. -1.
<mgrwt>
<rscale>  0 0.11038756E+04</rscale>
<asrwt>0</asrwt>
<pdfrwt beam="2">  1        4 0.14990494E+00 0.11152805E+04</pdfrwt>
<pdfrwt beam="1">  1       -4 0.28296179E+00 0.10925874E+04</pdfrwt>
<totfact> 0.16902918E-01</totfact>
</mgrwt>
</event>
<event>
 8    1  0.2939692E-006  0.1497881E+04  0.7818608E-02  0.8413364E-01
         -4   -1    0    0    0  501 -0.00000000000E+00  0.00000000000E+00  0.12435109315E+04  0.12435109315E+04  0.00000000000E+00 0. -1.
          4   -1    0    0  502    0  0.00000000000E+00 -0.00000000000E+00 -0.18142619054E+04  0.18142619054E+04  0.00000000000E+00 0.  1.
   -9000010    2    1    2    0  501 -0.99716033877E+03  0.48855096560E+03 -0.44890420158E+03  0.15549443722E+04  0.99162807108E+03 0.  0.
    9000010    2    1    2  502    0  0.99716033877E+03 -0.48855096560E+03 -0.12184677232E+03  0.15028284646E+04  0.10053039197E+04 0.  0.
        -13    1    4    4    0    0 -0.31181893041E+02 -0.46557661089E+03  0.34026599971E+01  0.46663206096E+03  0.10566000000E+00 0.  1.
          4    1    4    4  502    0  0.10283422318E+04 -0.22974354713E+02 -0.12524943232E+03  0.10361964037E+04  0.00000000000E+00 0.  1.
         13    1    3    3    0    0 -0.15690277370E+03 -0.26640437904E+03  0.61752861474E+02  0.31528273126E+03  0.10566000000E+00 0. -1.
         -4    1    3    3    0  501 -0.84025756507E+03  0.75495534464E+03 -0.51065706305E+03  0.12396616410E+04  0.00000000000E+00 0. -1.
<mgrwt>
<rscale>  0 0.14933017E+04</rscale>
<asrwt>0</asrwt>
<pdfrwt beam="2">  1        4 0.27911722E+00 0.14978808E+04</pdfrwt>
<pdfrwt beam="1">  1       -4 0.19130937E+00 0.14887367E+04</pdfrwt>
<totfact> 0.12023787E-01</totfact>
</mgrwt>
</event>
<event>
 8    1  0.2939692E-006  0.1875729E+04  0.7818608E-02  0.8221443E-01
          4   -1    0    0  502    0  0.00000000000E+00  0.00000000000E+00  0.24155241160E+04  0.24155241160E+04  0.00000000000E+00 0.  1.
         -4   -1    0    0    0  501 -0.00000000000E+00 -0.00000000000E+00 -0.29649148714E+04  0.29649148714E+04  0.00000000000E+00 0. -1.
   -9000010    2    1    2    0  501 -0.11934080602E+04  0.10413310677E+04 -0.21946872404E+04  0.28870420705E+04  0.10048714560E+04 0.  0.
    9000010    2    1    2  502    0  0.11934080602E+04 -0.10413310677E+04  0.16452964851E+04  0.24933969169E+04  0.10007169783E+04 0.  0.
        -13    1    4    4    0    0 -0.26909961681E+02  0.59830967868E+02 -0.84647782597E+02  0.10709411289E+03  0.10566000000E+00 0.  1.
          4    1    4    4  502    0  0.12203180219E+04 -0.11011620355E+04  0.17299442677E+04  0.23863028040E+04  0.00000000000E+00 0.  1.
         13    1    3    3    0    0 -0.87815435905E+03  0.43310870066E+03 -0.19076633851E+04  0.21442755949E+04  0.10566000000E+00 0. -1.
         -4    1    3    3    0  501 -0.31525370112E+03  0.60822236701E+03 -0.28702385537E+03  0.74276647566E+03  0.00000000000E+00 0. -1.
<mgrwt>
<rscale>  0 0.18746176E+04</rscale>
<asrwt>0</asrwt>
<pdfrwt beam="1">  1        4 0.37161910E+00 0.18735068E+04</pdfrwt>
<pdfrwt beam="2">  1       -4 0.45614075E+00 0.18757291E+04</pdfrwt>
<totfact> 0.82214815E-03</totfact>
</mgrwt>
</event>
<event>
 8    1  0.2939692E-006  0.1433225E+04  0.7818608E-02  0.8454838E-01
          4   -1    0    0  502    0  0.00000000000E+00  0.00000000000E+00  0.19929634615E+04  0.19929634615E+04  0.00000000000E+00 0.  1.
         -4   -1    0    0    0  501 -0.00000000000E+00 -0.00000000000E+00 -0.13374131906E+04  0.13374131906E+04  0.00000000000E+00 0. -1.
   -9000010    2    1    2    0  501  0.37035551188E+03 -0.94442153459E+03 -0.48890901444E+03  0.14962773724E+04  0.98525058262E+03 0.  0.
    9000010    2    1    2  502    0 -0.37035551188E+03  0.94442153459E+03  0.11444592853E+04  0.18340992797E+04  0.10124415401E+04 0.  0.
        -13    1    4    4    0    0 -0.23554496935E+03 -0.17366738080E+03  0.34822613844E+03  0.45486618515E+03  0.10566000000E+00 0.  1.
          4    1    4    4  502    0 -0.13481054252E+03  0.11180889154E+04  0.79623314682E+03  0.13792330946E+04  0.00000000000E+00 0.  1.
         13    1    3    3    0    0  0.56275635934E+03 -0.43943254756E+03  0.71730007792E+02  0.71759381897E+03  0.10566000000E+00 0. -1.
         -4    1    3    3    0  501 -0.19240084747E+03 -0.50498898702E+03 -0.56063902223E+03  0.77868355342E+03  0.00000000000E+00 0. -1.
<mgrwt>
<rscale>  0 0.14236543E+04</rscale>
<asrwt>0</asrwt>
<pdfrwt beam="1">  1        4 0.30660977E+00 0.14332247E+04</pdfrwt>
<pdfrwt beam="2">  1       -4 0.20575587E+00 0.14141478E+04</pdfrwt>
<totfact> 0.92286949E-02</totfact>
</mgrwt>
</event>
<event>
 8    1  0.2939692E-006  0.1569179E+04  0.7818608E-02  0.8376827E-01
         -4   -1    0    0    0  501 -0.00000000000E+00  0.00000000000E+00  0.14473584977E+04  0.14473584977E+04  0.00000000000E+00 0. -1.
          4   -1    0    0  502    0  0.00000000000E+00 -0.00000000000E+00 -0.19339522844E+04  0.19339522844E+04  0.00000000000E+00 0.  1.
   -9000010    2    1    2    0  501  0.58113596109E+03 -0.10288837282E+04  0.37097349539E+03  0.16124338237E+04  0.10324731328E+04 0.  0.
    9000010    2    1    2  502    0 -0.58113596109E+03  0.10288837282E+04 -0.85756728208E+03  0.17688769585E+04  0.99859066666E+03 0.  0.
        -13    1    4    4    0    0 -0.50039023665E+03  0.11874897199E+04 -0.91661366216E+03  0.15813610722E+04  0.10566000000E+00 0.  1.
          4    1    4    4  502    0 -0.80745724447E+02 -0.15860599169E+03  0.59046380079E+02  0.18751588631E+03  0.00000000000E+00 0.  1.
         13    1    3    3    0    0  0.34399176936E+03  0.13643559640E+03  0.12095906579E+02  0.37025846576E+03  0.10566000000E+00 0. -1.
         -4    1    3    3    0  501  0.23714419174E+03 -0.11653193246E+04  0.35887758881E+03  0.12421753579E+04  0.00000000000E+00 0. -1.
<mgrwt>
<rscale>  0 0.15580979E+04</rscale>
<asrwt>0</asrwt>
<pdfrwt beam="2">  1        4 0.29753112E+00 0.15470954E+04</pdfrwt>
<pdfrwt beam="1">  1       -4 0.22267054E+00 0.15691786E+04</pdfrwt>
<totfact> 0.87615375E-02</totfact>
</mgrwt>
</event>
<event>
 8    1  0.2939692E-006  0.1033653E+04  0.7818608E-02  0.8744017E-01
          4   -1    0    0  502    0  0.00000000000E+00  0.00000000000E+00  0.15915381598E+04  0.15915381598E+04  0.00000000000E+00 0.  1.
         -4   -1    0    0    0  501 -0.00000000000E+00 -0.00000000000E+00 -0.94596576582E+03  0.94596576582E+03  0.00000000000E+00 0. -1.
   -9000010    2    1    2    0  501  0.15671111231E+03 -0.18000406490E+03 -0.36149000979E+03  0.10950400800E+04  0.10057225828E+04 0.  0.
    9000010    2    1    2  502    0 -0.15671111231E+03  0.18000406490E+03  0.10070624037E+04  0.14424638456E+04  0.10047723248E+04 0.  0.
        -13    1    4    4    0    0 -0.79426080906E+02  0.59645129229E+03  0.67496965588E+03  0.90423818428E+03  0.10566000000E+00 0.  1.
          4    1    4    4  502    0 -0.77285031401E+02 -0.41644722739E+03  0.33209274784E+03  0.53822566127E+03  0.00000000000E+00 0.  1.
         13    1    3    3    0    0  0.49290797371E+03 -0.38098689322E+03 -0.32223084227E+03  0.70138577846E+03  0.10566000000E+00 0. -1.
         -4    1    3    3    0  501 -0.33619686140E+03  0.20098282832E+03 -0.39259167517E+02  0.39365430156E+03  0.00000000000E+00 0. -1.
<mgrwt>
<rscale>  0 0.10331902E+04</rscale>
<asrwt>0</asrwt>
<pdfrwt beam="1">  1        4 0.24485203E+00 0.10327281E+04</pdfrwt>
<pdfrwt beam="2">  1       -4 0.14553319E+00 0.10336526E+04</pdfrwt>
<totfact> 0.21846566E-01</totfact>
</mgrwt>
</event>
<event>
 8    1  0.2939692E-006  0.1219284E+04  0.7818608E-02  0.8605994E-01
         -4   -1    0    0    0  501 -0.00000000000E+00  0.00000000000E+00  0.24711256137E+04  0.24711256137E+04  0.00000000000E+00 0. -1.
          4   -1    0    0  502    0  0.00000000000E+00 -0.00000000000E+00 -0.94421742458E+03  0.94421742458E+03  0.00000000000E+00 0.  1.
   -9000010    2    1    2    0  501  0.63100310334E+03  0.13882838201E+03  0.18114896983E+04  0.21632886097E+04  0.99039610544E+03 0.  0.
    9000010    2    1    2  502    0 -0.63100310334E+03 -0.13882838201E+03 -0.28458150914E+03  0.12520544286E+04  0.10340287331E+04 0.  0.
        -13    1    4    4    0    0  0.27577828105E+03 -0.13883006743E+03 -0.11547679279E+03  0.32963972570E+03  0.10566000000E+00 0.  1.
          4    1    4    4  502    0 -0.90678138439E+03  0.16854224751E-02 -0.16910471634E+03  0.92241470292E+03  0.00000000000E+00 0.  1.
         13    1    3    3    0    0  0.64900681740E+03  0.45467151352E+03  0.15917955788E+04  0.17781308192E+04  0.10566000000E+00 0. -1.
         -4    1    3    3    0  501 -0.18003714055E+02 -0.31584313151E+03  0.21969411945E+03  0.38515779047E+03  0.00000000000E+00 0. -1.
<mgrwt>
<rscale>  0 0.12007547E+04</rscale>
<asrwt>0</asrwt>
<pdfrwt beam="2">  1        4 0.14526422E+00 0.12192841E+04</pdfrwt>
<pdfrwt beam="1">  1       -4 0.38017317E+00 0.11825069E+04</pdfrwt>
<totfact> 0.88231123E-02</totfact>
</mgrwt>
</event>
<event>
 8    1  0.2939692E-006  0.1126736E+04  0.7818608E-02  0.8709461E-01
          4   -1    0    0  502    0  0.00000000000E+00  0.00000000000E+00  0.11062405330E+04  0.11062405330E+04  0.00000000000E+00 0.  1.
         -4   -1    0    0    0  501 -0.00000000000E+00 -0.00000000000E+00 -0.20624886124E+04  0.20624886124E+04  0.00000000000E+00 0. -1.
   -9000010    2    1    2    0  501  0.33833104887E+01 -0.22395722654E+03 -0.15799540632E+04  0.18808850510E+04  0.99564323279E+03 0.  0.
    9000010    2    1    2  502    0 -0.33833104887E+01  0.22395722654E+03  0.62370598374E+03  0.12878440944E+04  0.11042486003E+04 0.  0.
        -13    1    4    4    0    0  0.17246430307E+03 -0.53851928755E+02 -0.27603717021E+03  0.32990983096E+03  0.10566000000E+00 0.  1.
          4    1    4    4  502    0 -0.17584761356E+03  0.27780915530E+03  0.89974315395E+03  0.95793426343E+03  0.00000000000E+00 0.  1.
         13    1    3    3    0    0 -0.16579131770E+03  0.35235087265E+03 -0.85459630555E+03  0.93913404533E+03  0.10566000000E+00 0. -1.
         -4    1    3    3    0  501  0.16917462819E+03 -0.57630809919E+03 -0.72535775764E+03  0.94175100562E+03  0.00000000000E+00 0. -1.
<mgrwt>
<rscale>  0 0.10723168E+04</rscale>
<asrwt>0</asrwt>
<pdfrwt beam="1">  1        4 0.17019085E+00 0.11267357E+04</pdfrwt>
<pdfrwt beam="2">  1       -4 0.31730594E+00 0.10205262E+04</pdfrwt>
<totfact> 0.11456723E-01</totfact>
</mgrwt>
</event>
<event>
 8    1  0.2939692E-006  0.1055990E+04  0.7818608E-02  0.8725105E-01
         -4   -1    0    0    0  501 -0.00000000000E+00  0.00000000000E+00  0.20783086127E+04  0.20783086127E+04  0.00000000000E+00 0. -1.
          4   -1    0    0  502    0  0.00000000000E+00 -0.00000000000E+00 -0.61720120617E+03  0.61720120617E+03  0.00000000000E+00 0.  1.
   -9000010    2    1    2    0  501  0.25970971982E+03 -0.24778296387E+03  0.12236103360E+04  0.16162723909E+04  0.99311059382E+03 0.  0.
    9000010    2    1    2  502    0 -0.25970971982E+03  0.24778296387E+03  0.23749707060E+03  0.10792374280E+04  0.98969845495E+03 0.  0.
        -13    1    4    4    0    0 -0.24155383263E+03  0.13373886672E+03 -0.36954984261E+03  0.46130406010E+03  0.10566000000E+00 0.  1.
          4    1    4    4  502    0 -0.18155887185E+02  0.11404409715E+03  0.60704691321E+03  0.61793336791E+03  0.00000000000E+00 0.  1.
         13    1    3    3    0    0 -0.19017906799E+03 -0.37815468028E+03  0.15720519944E+03  0.45153352701E+03  0.10566000000E+00 0. -1.
         -4    1    3    3    0  501  0.44988878781E+03  0.13037171642E+03  0.10664051365E+04  0.11647388639E+04  0.00000000000E+00 0. -1.
<mgrwt>
<rscale>  0 0.10543843E+04</rscale>
<asrwt>0</asrwt>
<pdfrwt beam="2">  1        4 0.94954032E-01 0.10527813E+04</pdfrwt>
<pdfrwt beam="1">  1       -4 0.31973978E+00 0.10559897E+04</pdfrwt>
<totfact> 0.29280782E-01</totfact>
</mgrwt>
</event>
<event>
 8    1  0.2939692E-006  0.1558507E+04  0.7818608E-02  0.8377120E-01
          4   -1    0    0  502    0  0.00000000000E+00  0.00000000000E+00  0.19466724964E+04  0.19466724964E+04  0.00000000000E+00 0.  1.
         -4   -1    0    0    0  501 -0.00000000000E+00 -0.00000000000E+00 -0.19964781937E+04  0.19964781937E+04  0.00000000000E+00 0. -1.
   -9000010    2    1    2    0  501 -0.10065804682E+04  0.65619604609E+03 -0.12334926570E+04  0.19860967883E+04  0.98958517960E+03 0.  0.
    9000010    2    1    2  502    0  0.10065804682E+04 -0.65619604609E+03  0.11836869597E+04  0.19570539019E+04  0.99254605255E+03 0.  0.
        -13    1    4    4    0    0  0.78860831510E+03 -0.79298414449E+03  0.49716743200E+03  0.12238882280E+04  0.10566000000E+00 0.  1.
          4    1    4    4  502    0  0.21797215306E+03  0.13678809840E+03  0.68651952774E+03  0.73316567387E+03  0.00000000000E+00 0.  1.
         13    1    3    3    0    0 -0.94464978731E+03  0.50374861380E+02 -0.79479863743E+03  0.12355588746E+04  0.10566000000E+00 0. -1.
         -4    1    3    3    0  501 -0.61930680852E+02  0.60582118471E+03 -0.43869401958E+03  0.75053791369E+03  0.00000000000E+00 0. -1.
<mgrwt>
<rscale>  0 0.15575651E+04</rscale>
<asrwt>0</asrwt>
<pdfrwt beam="1">  1        4 0.29948808E+00 0.15585073E+04</pdfrwt>
<pdfrwt beam="2">  1       -4 0.30715049E+00 0.15566234E+04</pdfrwt>
<totfact> 0.52636172E-02</totfact>
</mgrwt>
</event>
<event>
 8    1  0.2939692E-006  0.1405097E+04  0.7818608E-02  0.8479950E-01
         -4   -1    0    0    0  501 -0.00000000000E+00  0.00000000000E+00  0.13784418364E+04  0.13784418364E+04  0.00000000000E+00 0. -1.
          4   -1    0    0  502    0  0.00000000000E+00 -0.00000000000E+00 -0.15924480175E+04  0.15924480175E+04  0.00000000000E+00 0.  1.
   -9000010    2    1    2    0  501  0.64780540919E+03  0.69158845967E+03  0.42578321569E+03  0.14269897257E+04  0.97829539750E+03 0.  0.
    9000010    2    1    2  502    0 -0.64780540919E+03 -0.69158845967E+03 -0.63978939677E+03  0.15439001282E+04  0.10374732228E+04 0.  0.
        -13    1    4    4    0    0 -0.80878125099E+03 -0.85413170751E+03 -0.53145187972E+03  0.12907785237E+04  0.10566000000E+00 0.  1.
          4    1    4    4  502    0  0.16097584180E+03  0.16254324784E+03 -0.10833751705E+03  0.25312160450E+03  0.00000000000E+00 0.  1.
         13    1    3    3    0    0  0.57903819956E+03  0.61129882320E+02 -0.11503193993E+03  0.59351028419E+03  0.10566000000E+00 0. -1.
         -4    1    3    3    0  501  0.68767209625E+02  0.63045857735E+03  0.54081515562E+03  0.83347944152E+03  0.00000000000E+00 0. -1.
<mgrwt>
<rscale>  0 0.13833740E+04</rscale>
<asrwt>0</asrwt>
<pdfrwt beam="2">  1        4 0.24499200E+00 0.14050968E+04</pdfrwt>
<pdfrwt beam="1">  1       -4 0.21206797E+00 0.13619869E+04</pdfrwt>
<totfact> 0.12781482E-01</totfact>
</mgrwt>
</event>
<event>
 8    1  0.2939692E-006  0.1038640E+04  0.7818608E-02  0.8744922E-01
         -4   -1    0    0    0  501 -0.00000000000E+00  0.00000000000E+00  0.78374467589E+03  0.78374467589E+03  0.00000000000E+00 0.  1.
          4   -1    0    0  502    0  0.00000000000E+00 -0.00000000000E+00 -0.13596857397E+04  0.13596857397E+04  0.00000000000E+00 0. -1.
   -9000010    2    1    2    0  501 -0.24778409744E+03  0.12002743223E+02 -0.27540674549E+03  0.10745334199E+04  0.10085792830E+04 0.  0.
    9000010    2    1    2  502    0  0.24778409744E+03 -0.12002743223E+02 -0.30053431835E+03  0.10688969958E+04  0.99532853182E+03 0.  0.
        -13    1    4    4    0    0  0.55885098574E+03  0.19172478437E+03 -0.36068703806E+03  0.69221959507E+03  0.10566000000E+00 0.  1.
          4    1    4    4  502    0 -0.31106688831E+03 -0.20372752759E+03  0.60152719713E+02  0.37667740069E+03  0.00000000000E+00 0.  1.
         13    1    3    3    0    0 -0.35175335884E+03 -0.89169747331E+02 -0.61003857383E+03  0.70980894755E+03  0.10566000000E+00 0. -1.
         -4    1    3    3    0  501  0.10396926140E+03  0.10117249055E+03  0.33463182834E+03  0.36472447231E+03  0.00000000000E+00 0. -1.
<mgrwt>
<rscale>  0 0.10321889E+04</rscale>
<asrwt>0</asrwt>
<pdfrwt beam="2">  1        4 0.20918242E+00 0.10257777E+04</pdfrwt>
<pdfrwt beam="1">  1       -4 0.12057610E+00 0.10386401E+04</pdfrwt>
<totfact> 0.36011965E-01</totfact>
</mgrwt>
</event>
<event>
 8    1  0.2939692E-006  0.1079221E+04  0.7818608E-02  0.8709858E-01
         -4   -1    0    0    0  501 -0.00000000000E+00  0.00000000000E+00  0.79574284683E+03  0.79574284683E+03  0.00000000000E+00 0. -1.
          4   -1    0    0  502    0  0.00000000000E+00 -0.00000000000E+00 -0.28715758352E+04  0.28715758352E+04  0.00000000000E+00 0.  1.
   -9000010    2    1    2    0  501 -0.19014859181E+03  0.31844558811E+03  0.25859057946E+03  0.10954999615E+04  0.99784116886E+03 0.  0.
    9000010    2    1    2  502    0  0.19014859181E+03 -0.31844558811E+03 -0.23344235678E+04  0.25718187205E+04  0.10134860915E+04 0.  0.
        -13    1    4    4    0    0  0.17790700327E+03 -0.34530760338E+03 -0.19947767097E+03  0.43666874762E+03  0.10566000000E+00 0.  1.
          4    1    4    4  502    0  0.12241588541E+02  0.26862015275E+02 -0.21349458969E+04  0.21351499729E+04  0.00000000000E+00 0.  1.
         13    1    3    3    0    0 -0.37455260832E+03  0.18341765684E+03  0.57182009084E+03  0.70774989982E+03  0.10566000000E+00 0. -1.
         -4    1    3    3    0  501  0.18440401651E+03  0.13502793126E+03 -0.31322951138E+03  0.38775006167E+03  0.00000000000E+00 0. -1.
<mgrwt>
<rscale>  0 0.10718567E+04</rscale>
<asrwt>0</asrwt>
<pdfrwt beam="2">  1        4 0.44178090E+00 0.10792211E+04</pdfrwt>
<pdfrwt beam="1">  1       -4 0.12242198E+00 0.10645427E+04</pdfrwt>
<totfact> 0.65140771E-02</totfact>
</mgrwt>
</event>
<event>
 8    1  0.2939692E-006  0.1241195E+04  0.7818608E-02  0.8593493E-01
          4   -1    0    0  502    0  0.00000000000E+00  0.00000000000E+00  0.11863915998E+04  0.11863915998E+04  0.00000000000E+00 0.  1.
         -4   -1    0    0    0  501 -0.00000000000E+00 -0.00000000000E+00 -0.26220974385E+04  0.26220974385E+04  0.00000000000E+00 0. -1.
   -9000010    2    1    2    0  501  0.71176623385E+03  0.80605010010E+01 -0.20886831062E+04  0.24060106934E+04  0.95896516883E+03 0.  0.
    9000010    2    1    2  502    0 -0.71176623385E+03 -0.80605010010E+01  0.65297726752E+03  0.14024783450E+04  0.10168038419E+04 0.  0.
        -13    1    4    4    0    0  0.78748465301E+02  0.15572605533E+03  0.56388940299E+03  0.59027383058E+03  0.10566000000E+00 0.  1.
          4    1    4    4  502    0 -0.79051469915E+03 -0.16378655633E+03  0.89087864522E+02  0.81220451440E+03  0.00000000000E+00 0.  1.
         13    1    3    3    0    0 -0.15770240135E+03  0.13158885446E+03 -0.92639576431E+02  0.22531705726E+03  0.10566000000E+00 0. -1.
         -4    1    3    3    0  501  0.86946863520E+03 -0.12352835346E+03 -0.19960435298E+04  0.21806936361E+04  0.00000000000E+00 0. -1.
<mgrwt>
<rscale>  0 0.12175087E+04</rscale>
<asrwt>0</asrwt>
<pdfrwt beam="1">  1        4 0.18252179E+00 0.12411955E+04</pdfrwt>
<pdfrwt beam="2">  1       -4 0.40339960E+00 0.11942740E+04</pdfrwt>
<totfact> 0.51698165E-02</totfact>
</mgrwt>
</event>
<event>
 8    1  0.2939692E-006  0.1224187E+04  0.7818608E-02  0.8662909E-01
         -4   -1    0    0    0  501 -0.00000000000E+00  0.00000000000E+00  0.12782305228E+04  0.12782305228E+04  0.00000000000E+00 0. -1.
          4   -1    0    0  502    0  0.00000000000E+00 -0.00000000000E+00 -0.15200222827E+04  0.15200222827E+04  0.00000000000E+00 0.  1.
   -9000010    2    1    2    0  501 -0.85760472000E+02  0.60106941491E+03  0.68758918846E+03  0.14040703717E+04  0.10630124254E+04 0.  0.
    9000010    2    1    2  502    0  0.85760472000E+02 -0.60106941491E+03 -0.92938094837E+03  0.13941824339E+04  0.84341947546E+03 0.  0.
        -13    1    4    4    0    0 -0.33791275954E+03 -0.33453277025E+03 -0.21487096705E+03  0.52179186566E+03  0.10566000000E+00 0.  1.
          4    1    4    4  502    0  0.42367323154E+03 -0.26653664466E+03 -0.71450998132E+03  0.87239056819E+03  0.00000000000E+00 0.  1.
         13    1    3    3    0    0  0.13056983663E+02 -0.10280293025E+03 -0.22477885237E+03  0.24751660737E+03  0.10566000000E+00 0. -1.
         -4    1    3    3    0  501 -0.98817455663E+02  0.70387234515E+03  0.91236804083E+03  0.11565537643E+04  0.00000000000E+00 0. -1.
<mgrwt>
<rscale>  0 0.11279230E+04</rscale>
<asrwt>0</asrwt>
<pdfrwt beam="2">  1        4 0.23384958E+00 0.10392284E+04</pdfrwt>
<pdfrwt beam="1">  1       -4 0.19665085E+00 0.12241874E+04</pdfrwt>
<totfact> 0.15187213E-01</totfact>
</mgrwt>
</event>
<event>
 8    1  0.2939692E-006  0.1127139E+04  0.7818608E-02  0.8678337E-01
         -4   -1    0    0    0  501 -0.00000000000E+00  0.00000000000E+00  0.17759329829E+04  0.17759329829E+04  0.00000000000E+00 0. -1.
          4   -1    0    0  502    0  0.00000000000E+00 -0.00000000000E+00 -0.85686573001E+03  0.85686573001E+03  0.00000000000E+00 0.  1.
   -9000010    2    1    2    0  501 -0.48736511120E+03  0.94204921323E+00  0.10414015831E+04  0.15345879823E+04  0.10163254298E+04 0.  0.
    9000010    2    1    2  502    0  0.48736511120E+03 -0.94204921323E+00 -0.12233433016E+03  0.10982107306E+04  0.97651189514E+03 0.  0.
        -13    1    4    4    0    0  0.31682654093E+03 -0.33388578580E+03  0.28799788176E+03  0.54295632058E+03  0.10566000000E+00 0.  1.
          4    1    4    4  502    0  0.17053857027E+03  0.33294373658E+03 -0.41033221192E+03  0.55525441000E+03  0.00000000000E+00 0.  1.
         13    1    3    3    0    0 -0.60450830281E+03 -0.37850109549E+03  0.79123601337E+03  0.10652454212E+04  0.10566000000E+00 0. -1.
         -4    1    3    3    0  501  0.11714319161E+03  0.37944314471E+03  0.25016556969E+03  0.46934256110E+03  0.00000000000E+00 0. -1.
<mgrwt>
<rscale>  0 0.11091134E+04</rscale>
<asrwt>0</asrwt>
<pdfrwt beam="2">  1        4 0.13182550E+00 0.10913758E+04</pdfrwt>
<pdfrwt beam="1">  1       -4 0.27322046E+00 0.11271393E+04</pdfrwt>
<totfact> 0.21723141E-01</totfact>
</mgrwt>
</event>
<event>
 8    1  0.2939692E-006  0.1049085E+04  0.7818608E-02  0.8733491E-01
          4   -1    0    0  502    0  0.00000000000E+00  0.00000000000E+00  0.21863437626E+04  0.21863437626E+04  0.00000000000E+00 0.  1.
         -4   -1    0    0    0  501 -0.00000000000E+00 -0.00000000000E+00 -0.24263112719E+04  0.24263112719E+04  0.00000000000E+00 0. -1.
   -9000010    2    1    2    0  501 -0.84955562617E+02 -0.37693256948E+03 -0.21753894419E+04  0.24151394820E+04  0.97533783078E+03 0.  0.
    9000010    2    1    2  502    0  0.84955562617E+02  0.37693256948E+03  0.19354219325E+04  0.21975155525E+04  0.96639584902E+03 0.  0.
        -13    1    4    4    0    0  0.31670250770E+03  0.62379337195E+03  0.12297670081E+04  0.14148305745E+04  0.10566000000E+00 0.  1.
          4    1    4    4  502    0 -0.23174694509E+03 -0.24686080247E+03  0.70565492443E+03  0.78268497796E+03  0.00000000000E+00 0.  1.
         13    1    3    3    0    0 -0.26211183681E+03 -0.32999293251E+02 -0.19491401668E+04  0.19669618627E+04  0.10566000000E+00 0. -1.
         -4    1    3    3    0  501  0.17715627419E+03 -0.34393327623E+03 -0.22624927512E+03  0.44817761934E+03  0.00000000000E+00 0. -1.
<mgrwt>
<rscale>  0 0.10449227E+04</rscale>
<asrwt>0</asrwt>
<pdfrwt beam="1">  1        4 0.33636058E+00 0.10407769E+04</pdfrwt>
<pdfrwt beam="2">  1       -4 0.37327866E+00 0.10490851E+04</pdfrwt>
<totfact> 0.27095002E-02</totfact>
</mgrwt>
</event>
<event>
 8    1  0.2939692E-006  0.1118919E+04  0.7818608E-02  0.8671229E-01
         -4   -1    0    0    0  501 -0.00000000000E+00  0.00000000000E+00  0.75169314312E+03  0.75169314312E+03  0.00000000000E+00 0. -1.
          4   -1    0    0  502    0  0.00000000000E+00 -0.00000000000E+00 -0.16663383102E+04  0.16663383102E+04  0.00000000000E+00 0.  1.
   -9000010    2    1    2    0  501 -0.48553519850E+03 -0.73804248702E+02 -0.39620549706E+03  0.11869957884E+04  0.10053798833E+04 0.  0.
    9000010    2    1    2  502    0  0.48553519850E+03  0.73804248702E+02 -0.51843967004E+03  0.12310356649E+04  0.10027350700E+04 0.  0.
        -13    1    4    4    0    0 -0.18747173886E+03 -0.53849053738E+02 -0.50994619998E+03  0.54597665839E+03  0.10566000000E+00 0.  1.
          4    1    4    4  502    0  0.67300693737E+03  0.12765330244E+03 -0.84934700555E+01  0.68505900651E+03  0.00000000000E+00 0.  1.
         13    1    3    3    0    0 -0.73071578659E+03 -0.26544914468E+03 -0.40309735595E+03  0.87572615509E+03  0.10566000000E+00 0. -1.
         -4    1    3    3    0  501  0.24518058808E+03  0.19164489598E+03  0.68918588871E+01  0.31126963335E+03  0.00000000000E+00 0. -1.
<mgrwt>
<rscale>  0 0.11177307E+04</rscale>
<asrwt>0</asrwt>
<pdfrwt beam="2">  1        4 0.25635974E+00 0.11165434E+04</pdfrwt>
<pdfrwt beam="1">  1       -4 0.11564510E+00 0.11189192E+04</pdfrwt>
<totfact> 0.29537847E-01</totfact>
</mgrwt>
</event>
<event>
 8    1  0.2939692E-006  0.1104009E+04  0.7818608E-02  0.8683725E-01
          4   -1    0    0  502    0  0.00000000000E+00  0.00000000000E+00  0.86420362727E+03  0.86420362727E+03  0.00000000000E+00 0.  1.
         -4   -1    0    0    0  501 -0.00000000000E+00 -0.00000000000E+00 -0.21303104000E+04  0.21303104000E+04  0.00000000000E+00 0. -1.
   -9000010    2    1    2    0  501 -0.19172884399E+03  0.41217426724E+03 -0.15050669179E+04  0.18649395111E+04  0.10030580125E+04 0.  0.
    9000010    2    1    2  502    0  0.19172884399E+03 -0.41217426724E+03  0.23896014515E+03  0.11295745162E+04  0.10060760709E+04 0.  0.
        -13    1    4    4    0    0 -0.27351068026E+03 -0.34956030335E+03 -0.20004982625E+03  0.48684745254E+03  0.10566000000E+00 0.  1.
          4    1    4    4  502    0  0.46523952425E+03 -0.62613963887E+02  0.43900997140E+03  0.64272706368E+03  0.00000000000E+00 0.  1.
         13    1    3    3    0    0 -0.40544834787E+03  0.53332394734E+03 -0.51545728207E+03  0.84529226686E+03  0.10566000000E+00 0. -1.
         -4    1    3    3    0  501  0.21371950388E+03 -0.12114968010E+03 -0.98960963583E+03  0.10196472442E+04  0.00000000000E+00 0. -1.
<mgrwt>
<rscale>  0 0.11026337E+04</rscale>
<asrwt>0</asrwt>
<pdfrwt beam="1">  1        4 0.13295441E+00 0.11040093E+04</pdfrwt>
<pdfrwt beam="2">  1       -4 0.32774006E+00 0.11012597E+04</pdfrwt>
<totfact> 0.15287462E-01</totfact>
</mgrwt>
</event>
<event>
 8    1  0.2939692E-006  0.1308132E+04  0.7818608E-02  0.8530952E-01
         -4   -1    0    0    0  501 -0.00000000000E+00  0.00000000000E+00  0.25960528926E+04  0.25960528926E+04  0.00000000000E+00 0.  1.
          4   -1    0    0  502    0  0.00000000000E+00 -0.00000000000E+00 -0.68273265391E+03  0.68273265391E+03  0.00000000000E+00 0. -1.
   -9000010    2    1    2    0  501 -0.78899977128E+03  0.29496151430E+03  0.12784186932E+04  0.18290881162E+04  0.10008426687E+04 0.  0.
    9000010    2    1    2  502    0  0.78899977128E+03 -0.29496151430E+03  0.63490154548E+03  0.14496974303E+04  0.99448465701E+03 0.  0.
        -13    1    4    4    0    0  0.17401848386E+03 -0.21391203140E+02 -0.26999081676E+03  0.32192401059E+03  0.10566000000E+00 0.  1.
          4    1    4    4  502    0  0.61498128743E+03 -0.27357031116E+03  0.90489236224E+03  0.11277734197E+04  0.00000000000E+00 0.  1.
         13    1    3    3    0    0 -0.66785614431E+03 -0.10833978012E+03  0.25609358252E+03  0.72343159430E+03  0.10566000000E+00 0. -1.
         -4    1    3    3    0  501 -0.12114362697E+03  0.40330129443E+03  0.10223251107E+04  0.11056565219E+04  0.00000000000E+00 0. -1.
<mgrwt>
<rscale>  0 0.13057006E+04</rscale>
<asrwt>0</asrwt>
<pdfrwt beam="2">  1        4 0.10503579E+00 0.13032738E+04</pdfrwt>
<pdfrwt beam="1">  1       -4 0.39939275E+00 0.13081319E+04</pdfrwt>
<totfact> 0.12641283E-01</totfact>
</mgrwt>
</event>
<event>
 8    1  0.2939692E-006  0.1826283E+04  0.7818608E-02  0.8249074E-01
         -4   -1    0    0    0  501 -0.00000000000E+00  0.00000000000E+00  0.45844316297E+04  0.45844316297E+04  0.00000000000E+00 0. -1.
          4   -1    0    0  502    0  0.00000000000E+00 -0.00000000000E+00 -0.14036026520E+04  0.14036026520E+04  0.00000000000E+00 0.  1.
   -9000010    2    1    2    0  501 -0.12508077869E+04 -0.86142064827E+03  0.36784264179E+04  0.40951755580E+04  0.96595873941E+03 0.  0.
    9000010    2    1    2  502    0  0.12508077869E+04  0.86142064827E+03 -0.49759744015E+03  0.18928587236E+04  0.10142708129E+04 0.  0.
        -13    1    4    4    0    0  0.14182815651E+04  0.70139050279E+03 -0.50567611944E+03  0.16610778381E+04  0.10566000000E+00 0.  1.
          4    1    4    4  502    0 -0.16747377814E+03  0.16003014549E+03  0.80786792841E+01  0.23178088551E+03  0.00000000000E+00 0.  1.
         13    1    3    3    0    0 -0.14036660350E+04 -0.79355893054E+03  0.34817533525E+04  0.38370067152E+04  0.10566000000E+00 0. -1.
         -4    1    3    3    0  501  0.15285824808E+03 -0.67861717736E+02  0.19667306541E+03  0.25816884281E+03  0.00000000000E+00 0. -1.
<mgrwt>
<rscale>  0 0.18130440E+04</rscale>
<asrwt>0</asrwt>
<pdfrwt beam="2">  1        4 0.21593887E+00 0.18262834E+04</pdfrwt>
<pdfrwt beam="1">  1       -4 0.70529717E+00 0.17999005E+04</pdfrwt>
<totfact> 0.12684144E-03</totfact>
</mgrwt>
</event>
<event>
 8    1  0.2939692E-006  0.1066055E+04  0.7818608E-02  0.8726596E-01
         -4   -1    0    0    0  501 -0.00000000000E+00  0.00000000000E+00  0.16733112530E+04  0.16733112530E+04  0.00000000000E+00 0. -1.
          4   -1    0    0  502    0  0.00000000000E+00 -0.00000000000E+00 -0.11307481751E+04  0.11307481751E+04  0.00000000000E+00 0.  1.
   -9000010    2    1    2    0  501  0.21030896177E+03  0.30364325457E+03  0.11755939719E+04  0.15869768122E+04  0.10000225648E+04 0.  0.
    9000010    2    1    2  502    0 -0.21030896177E+03 -0.30364325457E+03 -0.63303089405E+03  0.12170826160E+04  0.97166501217E+03 0.  0.
        -13    1    4    4    0    0  0.21024593850E+03 -0.17663779572E+03  0.15466646036E+03  0.31516026187E+03  0.10566000000E+00 0.  1.
          4    1    4    4  502    0 -0.42055490028E+03 -0.12700545885E+03 -0.78769735441E+03  0.90192235412E+03  0.00000000000E+00 0.  1.
         13    1    3    3    0    0  0.25521936667E+02 -0.63534275858E+02 -0.16826256267E+03  0.18165977711E+03  0.10566000000E+00 0. -1.
         -4    1    3    3    0  501  0.18478702510E+03  0.36717753043E+03  0.13438565346E+04  0.14053170351E+04  0.00000000000E+00 0. -1.
<mgrwt>
<rscale>  0 0.10526944E+04</rscale>
<asrwt>0</asrwt>
<pdfrwt beam="2">  1        4 0.17396126E+00 0.10395008E+04</pdfrwt>
<pdfrwt beam="1">  1       -4 0.25743250E+00 0.10660554E+04</pdfrwt>
<totfact> 0.15791367E-01</totfact>
</mgrwt>
</event>
<event>
 8    1  0.2939692E-006  0.1123551E+04  0.7818608E-02  0.8680190E-01
         -4   -1    0    0    0  501 -0.00000000000E+00  0.00000000000E+00  0.11635893463E+04  0.11635893463E+04  0.00000000000E+00 0. -1.
          4   -1    0    0  502    0  0.00000000000E+00 -0.00000000000E+00 -0.12441153349E+04  0.12441153349E+04  0.00000000000E+00 0.  1.
   -9000010    2    1    2    0  501 -0.33204616031E+03  0.26806268981E+03  0.43182955980E+03  0.11728466138E+04  0.10034840072E+04 0.  0.
    9000010    2    1    2  502    0  0.33204616031E+03 -0.26806268981E+03 -0.51235554842E+03  0.12348580675E+04  0.10393526738E+04 0.  0.
        -13    1    4    4    0    0  0.44705500996E+03 -0.61100403079E+03 -0.29286338405E+03  0.81175925031E+03  0.10566000000E+00 0.  1.
          4    1    4    4  502    0 -0.11500884965E+03  0.34294134098E+03 -0.21949216437E+03  0.42309881715E+03  0.00000000000E+00 0.  1.
         13    1    3    3    0    0  0.88892989979E+02  0.54826653576E+03  0.36051687993E+03  0.66217111820E+03  0.10566000000E+00 0. -1.
         -4    1    3    3    0  501 -0.42093915029E+03 -0.28020384595E+03  0.71312679876E+02  0.51067549564E+03  0.00000000000E+00 0. -1.
<mgrwt>
<rscale>  0 0.11068792E+04</rscale>
<asrwt>0</asrwt>
<pdfrwt beam="2">  1        4 0.19140236E+00 0.11235507E+04</pdfrwt>
<pdfrwt beam="1">  1       -4 0.17901375E+00 0.10904551E+04</pdfrwt>
<totfact> 0.22322538E-01</totfact>
</mgrwt>
</event>
<event>
 8    1  0.2939692E-006  0.1284682E+04  0.7818608E-02  0.8601824E-01
          4   -1    0    0  502    0  0.00000000000E+00  0.00000000000E+00  0.64912425406E+03  0.64912425406E+03  0.00000000000E+00 0.  1.
         -4   -1    0    0    0  501 -0.00000000000E+00 -0.00000000000E+00 -0.44353469600E+04  0.44353469600E+04  0.00000000000E+00 0. -1.
   -9000010    2    1    2    0  501  0.38727382507E+03 -0.36216221568E+03 -0.37359177817E+04  0.39506313777E+04  0.11701555983E+04 0.  0.
    9000010    2    1    2  502    0 -0.38727382507E+03  0.36216221568E+03 -0.50304924171E+02  0.11338398364E+04  0.10009593913E+04 0.  0.
        -13    1    4    4    0    0  0.16314722136E+03 -0.82818306967E+02 -0.32633562680E+03  0.37412677035E+03  0.10566000000E+00 0.  1.
          4    1    4    4  502    0 -0.55042104643E+03  0.44498052265E+03  0.27603070263E+03  0.75971306602E+03  0.00000000000E+00 0.  1.
         13    1    3    3    0    0 -0.24221801486E+03 -0.48306445581E+03 -0.95978055163E+03  0.11014533824E+04  0.10566000000E+00 0. -1.
         -4    1    3    3    0  501  0.62949183992E+03  0.12090224013E+03 -0.27761372301E+04  0.28491779952E+04  0.00000000000E+00 0. -1.
<mgrwt>
<rscale>  0 0.12063120E+04</rscale>
<asrwt>0</asrwt>
<pdfrwt beam="1">  1        4 0.99865271E-01 0.11327234E+04</pdfrwt>
<pdfrwt beam="2">  1       -4 0.68236106E+00 0.12846815E+04</pdfrwt>
<totfact> 0.54842642E-03</totfact>
</mgrwt>
</event>
<event>
 8    1  0.2939692E-006  0.1023408E+04  0.7818608E-02  0.8787299E-01
          4   -1    0    0  502    0  0.00000000000E+00  0.00000000000E+00  0.12690320632E+04  0.12690320632E+04  0.00000000000E+00 0.  1.
         -4   -1    0    0    0  501 -0.00000000000E+00 -0.00000000000E+00 -0.31794578445E+04  0.31794578445E+04  0.00000000000E+00 0. -1.
   -9000010    2    1    2    0  501  0.16107097389E+03  0.20372120033E+03 -0.28835071508E+04  0.30363102286E+04  0.91494269209E+03 0.  0.
    9000010    2    1    2  502    0 -0.16107097389E+03 -0.20372120033E+03  0.97308136954E+03  0.14121796791E+04  0.98990803015E+03 0.  0.
        -13    1    4    4    0    0  0.20973154120E+02 -0.98916798770E+01  0.11119480649E+04  0.11121898349E+04  0.10566000000E+00 0.  1.
          4    1    4    4  502    0 -0.18204412801E+03 -0.19382952045E+03 -0.13886669539E+03  0.29998984421E+03  0.00000000000E+00 0.  1.
         13    1    3    3    0    0  0.31957281987E+03 -0.17547452654E+03 -0.50669172762E+03  0.62422320901E+03  0.10566000000E+00 0. -1.
         -4    1    3    3    0  501 -0.15850184598E+03  0.37919572687E+03 -0.23768154232E+04  0.24120870196E+04  0.00000000000E+00 0. -1.
<mgrwt>
<rscale>  0 0.98658503E+03</rscale>
<asrwt>0</asrwt>
<pdfrwt beam="1">  1        4 0.19523570E+00 0.10234081E+04</pdfrwt>
<pdfrwt beam="2">  1       -4 0.48914736E+00 0.95108691E+03</pdfrwt>
<totfact> 0.20042023E-02</totfact>
</mgrwt>
</event>
<event>
 8    1  0.2939692E-006  0.1993589E+04  0.7818608E-02  0.8181200E-01
          4   -1    0    0  502    0  0.00000000000E+00  0.00000000000E+00  0.17236264605E+04  0.17236264605E+04  0.00000000000E+00 0.  1.
         -4   -1    0    0    0  501 -0.00000000000E+00 -0.00000000000E+00 -0.22949554281E+04  0.22949554281E+04  0.00000000000E+00 0. -1.
   -9000010    2    1    2    0  501 -0.15900855202E+03 -0.16556228262E+04 -0.57206069208E+01  0.19935971411E+04  0.10991024398E+04 0.  0.
    9000010    2    1    2  502    0  0.15900855202E+03  0.16556228262E+04 -0.56560836067E+03  0.20249847475E+04  0.10071145653E+04 0.  0.
        -13    1    4    4    0    0  0.24872405389E+03  0.19250190744E+03  0.19849903642E+03  0.37191735369E+03  0.10566000000E+00 0.  1.
          4    1    4    4  502    0 -0.89715501870E+02  0.14631209188E+04 -0.76410739709E+03  0.16530673938E+04  0.00000000000E+00 0.  1.
         13    1    3    3    0    0 -0.36283456476E+03 -0.71377954952E+02  0.12650917874E+03  0.39083029221E+03  0.10566000000E+00 0. -1.
         -4    1    3    3    0  501  0.20382601275E+03 -0.15842448713E+04 -0.13222978567E+03  0.16027668489E+04  0.00000000000E+00 0. -1.
<mgrwt>
<rscale>  0 0.19688355E+04</rscale>
<asrwt>0</asrwt>
<pdfrwt beam="1">  1        4 0.26517330E+00 0.19443895E+04</pdfrwt>
<pdfrwt beam="2">  1       -4 0.35307006E+00 0.19935889E+04</pdfrwt>
<totfact> 0.45577746E-02</totfact>
</mgrwt>
</event>
<event>
 8    1  0.2939692E-006  0.1450552E+04  0.7818608E-02  0.8446009E-01
         -4   -1    0    0    0  501 -0.00000000000E+00  0.00000000000E+00  0.17637257695E+04  0.17637257695E+04  0.00000000000E+00 0. -1.
          4   -1    0    0  502    0  0.00000000000E+00 -0.00000000000E+00 -0.13774682951E+04  0.13774682951E+04  0.00000000000E+00 0.  1.
   -9000010    2    1    2    0  501 -0.99257537735E+03 -0.29936850388E+03  0.79999347404E+03  0.16565299653E+04  0.10145317080E+04 0.  0.
    9000010    2    1    2  502    0  0.99257537735E+03  0.29936850388E+03 -0.41373599956E+03  0.14846640993E+04  0.97888846636E+03 0.  0.
        -13    1    4    4    0    0  0.85255556535E+03  0.47951914417E+03  0.37658362670E+02  0.97888087380E+03  0.10566000000E+00 0.  1.
          4    1    4    4  502    0  0.14001981199E+03 -0.18015064028E+03 -0.45139436223E+03  0.50578322550E+03  0.00000000000E+00 0.  1.
         13    1    3    3    0    0 -0.24340412974E+03  0.98478235461E+02  0.76361107871E+03  0.80749329652E+03  0.10566000000E+00 0. -1.
         -4    1    3    3    0  501 -0.74917124761E+03 -0.39784673934E+03  0.36382395329E+02  0.84903666878E+03  0.00000000000E+00 0. -1.
<mgrwt>
<rscale>  0 0.14381484E+04</rscale>
<asrwt>0</asrwt>
<pdfrwt beam="2">  1        4 0.21191820E+00 0.14258506E+04</pdfrwt>
<pdfrwt beam="1">  1       -4 0.27134243E+00 0.14505523E+04</pdfrwt>
<totfact> 0.11031490E-01</totfact>
</mgrwt>
</event>
<event>
 8    1  0.2939692E-006  0.2000128E+04  0.7818608E-02  0.8173401E-01
          4   -1    0    0  502    0  0.00000000000E+00  0.00000000000E+00  0.22996841128E+04  0.22996841128E+04  0.00000000000E+00 0.  1.
         -4   -1    0    0    0  501 -0.00000000000E+00 -0.00000000000E+00 -0.24064251068E+04  0.24064251068E+04  0.00000000000E+00 0. -1.
   -9000010    2    1    2    0  501 -0.94296137336E+03  0.14446228614E+04 -0.13115114702E+04  0.23711607114E+04  0.96240813551E+03 0.  0.
    9000010    2    1    2  502    0  0.94296137336E+03 -0.14446228614E+04  0.12047704762E+04  0.23349485082E+04  0.10121271028E+04 0.  0.
        -13    1    4    4    0    0  0.14753071307E+03 -0.11342102483E+03  0.66878119715E+03  0.69418869265E+03  0.10566000000E+00 0.  1.
          4    1    4    4  502    0  0.79543066030E+03 -0.13312018366E+04  0.53598927903E+03  0.16407598156E+04  0.00000000000E+00 0.  1.
         13    1    3    3    0    0 -0.15512618774E+03  0.77290893823E+03 -0.10322456474E+04  0.12988392698E+04  0.10566000000E+00 0. -1.
         -4    1    3    3    0  501 -0.78783518562E+03  0.67171392320E+03 -0.27926582275E+03  0.10723214416E+04  0.00000000000E+00 0. -1.
<mgrwt>
<rscale>  0 0.19877429E+04</rscale>
<asrwt>0</asrwt>
<pdfrwt beam="1">  1        4 0.35379756E+00 0.20001282E+04</pdfrwt>
<pdfrwt beam="2">  1       -4 0.37021925E+00 0.19754343E+04</pdfrwt>
<totfact> 0.21832448E-02</totfact>
</mgrwt>
</event>
<event>
 8    1  0.2939692E-006  0.1487553E+04  0.7818608E-02  0.8417192E-01
          4   -1    0    0  502    0  0.00000000000E+00  0.00000000000E+00  0.16801892169E+04  0.16801892169E+04  0.00000000000E+00 0.  1.
         -4   -1    0    0    0  501 -0.00000000000E+00 -0.00000000000E+00 -0.13605750069E+04  0.13605750069E+04  0.00000000000E+00 0. -1.
   -9000010    2    1    2    0  501  0.10541952095E+04 -0.30112194062E+03 -0.11701025147E+03  0.14904560781E+04  0.10028788357E+04 0.  0.
    9000010    2    1    2  502    0 -0.10541952095E+04  0.30112194062E+03  0.43662446151E+03  0.15503081457E+04  0.10053916965E+04 0.  0.
        -13    1    4    4    0    0 -0.11623006180E+04  0.24905666909E+03  0.99937231399E+02  0.11928786243E+04  0.10566000000E+00 0.  1.
          4    1    4    4  502    0  0.10810540845E+03  0.52065271524E+02  0.33668723011E+03  0.35742952138E+03  0.00000000000E+00 0.  1.
         13    1    3    3    0    0  0.10967567197E+04 -0.46375201759E+03  0.12334674010E+03  0.11971447973E+04  0.10566000000E+00 0. -1.
         -4    1    3    3    0  501 -0.42561510251E+02  0.16263007697E+03 -0.24035699157E+03  0.29331128087E+03  0.00000000000E+00 0. -1.
<mgrwt>
<rscale>  0 0.14867043E+04</rscale>
<asrwt>0</asrwt>
<pdfrwt beam="1">  1        4 0.25849065E+00 0.14875532E+04</pdfrwt>
<pdfrwt beam="2">  1       -4 0.20931923E+00 0.14858560E+04</pdfrwt>
<totfact> 0.11985102E-01</totfact>
</mgrwt>
</event>
<event>
 8    1  0.2939692E-006  0.1381714E+04  0.7818608E-02  0.8517576E-01
         -4   -1    0    0    0  501 -0.00000000000E+00  0.00000000000E+00  0.16228510288E+04  0.16228510288E+04  0.00000000000E+00 0. -1.
          4   -1    0    0  502    0  0.00000000000E+00 -0.00000000000E+00 -0.13753392888E+04  0.13753392888E+04  0.00000000000E+00 0.  1.
   -9000010    2    1    2    0  501  0.70079936944E+03  0.37064011888E+03  0.80851066739E+03  0.15069311126E+04  0.99431284052E+03 0.  0.
    9000010    2    1    2  502    0 -0.70079936944E+03 -0.37064011888E+03 -0.56099892740E+03  0.14912592050E+04  0.11316538190E+04 0.  0.
        -13    1    4    4    0    0  0.23395671713E+03 -0.36331350679E+03 -0.28094556800E+03  0.51542494415E+03  0.10566000000E+00 0.  1.
          4    1    4    4  502    0 -0.93475608657E+03 -0.73266120920E+01 -0.28005335939E+03  0.97583426089E+03  0.00000000000E+00 0.  1.
         13    1    3    3    0    0 -0.37608583607E+01  0.50320361992E+03  0.54837124340E+03  0.74427082364E+03  0.10566000000E+00 0. -1.
         -4    1    3    3    0  501  0.70456022780E+03 -0.13256350105E+03  0.26013942398E+03  0.76266028893E+03  0.00000000000E+00 0. -1.
<mgrwt>
<rscale>  0 0.13255521E+04</rscale>
<asrwt>0</asrwt>
<pdfrwt beam="2">  1        4 0.21159066E+00 0.13817142E+04</pdfrwt>
<pdfrwt beam="1">  1       -4 0.24966939E+00 0.12716729E+04</pdfrwt>
<totfact> 0.12532609E-01</totfact>
</mgrwt>
</event>
<event>
 8    1  0.2939692E-006  0.2055882E+04  0.7818608E-02  0.8147136E-01
          4   -1    0    0  502    0  0.00000000000E+00  0.00000000000E+00  0.31079692056E+04  0.31079692056E+04  0.00000000000E+00 0.  1.
         -4   -1    0    0    0  501 -0.00000000000E+00 -0.00000000000E+00 -0.23016709841E+04  0.23016709841E+04  0.00000000000E+00 0. -1.
   -9000010    2    1    2    0  501 -0.13054562282E+04  0.12178079582E+04 -0.13301125625E+04  0.24486425060E+04  0.10194991448E+04 0.  0.
    9000010    2    1    2  502    0  0.13054562282E+04 -0.12178079582E+04  0.21364107840E+04  0.29609976837E+04  0.10079603457E+04 0.  0.
        -13    1    4    4    0    0  0.29379680874E+02  0.15910086175E+03  0.26344015173E+03  0.30915525965E+03  0.10566000000E+00 0.  1.
          4    1    4    4  502    0  0.12760765473E+04 -0.13769088199E+04  0.18729706322E+04  0.26518424241E+04  0.00000000000E+00 0.  1.
         13    1    3    3    0    0 -0.63764805879E+03  0.14061280279E+03 -0.62235792085E+02  0.65592706314E+03  0.10566000000E+00 0. -1.
         -4    1    3    3    0  501 -0.66780816941E+03  0.10771951554E+04 -0.12678767704E+04  0.17927154428E+04  0.00000000000E+00 0. -1.
<mgrwt>
<rscale>  0 0.20530312E+04</rscale>
<asrwt>0</asrwt>
<pdfrwt beam="1">  1        4 0.47814911E+00 0.20501844E+04</pdfrwt>
<pdfrwt beam="2">  1       -4 0.35410323E+00 0.20558820E+04</pdfrwt>
<totfact> 0.73552525E-03</totfact>
</mgrwt>
</event>
<event>
 8    1  0.2939692E-006  0.1148696E+04  0.7818608E-02  0.8662490E-01
         -4   -1    0    0    0  501 -0.00000000000E+00  0.00000000000E+00  0.24296865882E+04  0.24296865882E+04  0.00000000000E+00 0. -1.
          4   -1    0    0  502    0  0.00000000000E+00 -0.00000000000E+00 -0.75351334074E+03  0.75351334074E+03  0.00000000000E+00 0.  1.
   -9000010    2    1    2    0  501  0.25273834441E+02  0.57686306930E+03  0.17262748121E+04  0.20735300788E+04  0.99302189983E+03 0.  0.
    9000010    2    1    2  502    0 -0.25273834441E+02 -0.57686306930E+03 -0.50101564586E+02  0.11096698501E+04  0.94628074171E+03 0.  0.
        -13    1    4    4    0    0  0.35300080469E+03 -0.54475930720E+03  0.16976398352E+03  0.67096355501E+03  0.10566000000E+00 0.  1.
          4    1    4    4  502    0 -0.37827463913E+03 -0.32103762105E+02 -0.21986554811E+03  0.43870629514E+03  0.00000000000E+00 0.  1.
         13    1    3    3    0    0 -0.16090284473E+03 -0.92696847861E+02  0.11664293999E+04  0.11811181089E+04  0.10566000000E+00 0. -1.
         -4    1    3    3    0  501  0.18617667917E+03  0.66955991716E+03  0.55984541218E+03  0.89241196993E+03  0.00000000000E+00 0. -1.
<mgrwt>
<rscale>  0 0.11284384E+04</rscale>
<asrwt>0</asrwt>
<pdfrwt beam="2">  1        4 0.11592513E+00 0.11085382E+04</pdfrwt>
<pdfrwt beam="1">  1       -4 0.37379793E+00 0.11486959E+04</pdfrwt>
<totfact> 0.13424064E-01</totfact>
</mgrwt>
</event>
<event>
 8    1  0.2939692E-006  0.1075578E+04  0.7818608E-02  0.8725106E-01
         -4   -1    0    0    0  501 -0.00000000000E+00  0.00000000000E+00  0.26891570196E+04  0.26891570196E+04  0.00000000000E+00 0. -1.
          4   -1    0    0  502    0  0.00000000000E+00 -0.00000000000E+00 -0.10530459768E+04  0.10530459768E+04  0.00000000000E+00 0.  1.
   -9000010    2    1    2    0  501 -0.72962853334E+02  0.37542643333E+03  0.22824266466E+04  0.25231607270E+04  0.10052860650E+04 0.  0.
    9000010    2    1    2  502    0  0.72962853334E+02 -0.37542643333E+03 -0.64631560379E+03  0.12190422693E+04  0.96024559877E+03 0.  0.
        -13    1    4    4    0    0  0.31627909955E+02 -0.69367505143E+03 -0.54429748491E+03  0.88229539550E+03  0.10566000000E+00 0.  1.
          4    1    4    4  502    0  0.41334943379E+02  0.31824861811E+03 -0.10201811888E+03  0.33674687385E+03  0.00000000000E+00 0.  1.
         13    1    3    3    0    0 -0.35302471262E+03  0.32104305255E+03  0.21610783423E+04  0.22131323282E+04  0.10566000000E+00 0. -1.
         -4    1    3    3    0  501  0.28006185929E+03  0.54383380780E+02  0.12134830428E+03  0.31002839884E+03  0.00000000000E+00 0. -1.
<mgrwt>
<rscale>  0 0.10543830E+04</rscale>
<asrwt>0</asrwt>
<pdfrwt beam="2">  1        4 0.16200708E+00 0.10336054E+04</pdfrwt>
<pdfrwt beam="1">  1       -4 0.41371646E+00 0.10755783E+04</pdfrwt>
<totfact> 0.56112635E-02</totfact>
</mgrwt>
</event>
<event>
 8    1  0.2939692E-006  0.1349109E+04  0.7818608E-02  0.8509068E-01
          4   -1    0    0  502    0  0.00000000000E+00  0.00000000000E+00  0.16761172872E+04  0.16761172872E+04  0.00000000000E+00 0.  1.
         -4   -1    0    0    0  501 -0.00000000000E+00 -0.00000000000E+00 -0.18238432201E+04  0.18238432201E+04  0.00000000000E+00 0. -1.
   -9000010    2    1    2    0  501  0.81005364137E+03  0.40525305332E+03 -0.12001921445E+04  0.18057014221E+04  0.99983973850E+03 0.  0.
    9000010    2    1    2  502    0 -0.81005364137E+03 -0.40525305332E+03  0.10524662116E+04  0.16942590853E+04  0.97077895646E+03 0.  0.
        -13    1    4    4    0    0 -0.93674207964E+03 -0.40699770145E+02  0.80508712164E+03  0.12358428216E+04  0.10566000000E+00 0.  1.
          4    1    4    4  502    0  0.12668843827E+03 -0.36455328318E+03  0.24737909001E+03  0.45841626372E+03  0.00000000000E+00 0.  1.
         13    1    3    3    0    0  0.90477419564E+03  0.26396017374E+03 -0.13020999878E+04  0.16074065161E+04  0.10566000000E+00 0. -1.
         -4    1    3    3    0  501 -0.94720554267E+02  0.14129287958E+03  0.10190784328E+03  0.19829490600E+03  0.00000000000E+00 0. -1.
<mgrwt>
<rscale>  0 0.13383698E+04</rscale>
<asrwt>0</asrwt>
<pdfrwt beam="1">  1        4 0.25786420E+00 0.13277156E+04</pdfrwt>
<pdfrwt beam="2">  1       -4 0.28059126E+00 0.13491095E+04</pdfrwt>
<totfact> 0.80803515E-02</totfact>
</mgrwt>
</event>
<event>
 8    1  0.2939692E-006  0.1048999E+04  0.7818608E-02  0.8811464E-01
          4   -1    0    0  502    0  0.00000000000E+00  0.00000000000E+00  0.10536867464E+04  0.10536867464E+04  0.00000000000E+00 0.  1.
         -4   -1    0    0    0  501 -0.00000000000E+00 -0.00000000000E+00 -0.11886186966E+04  0.11886186966E+04  0.00000000000E+00 0. -1.
   -9000010    2    1    2    0  501 -0.29797827531E+03  0.43386320020E+02 -0.62878697001E+03  0.10828698156E+04  0.82858949944E+03 0.  0.
    9000010    2    1    2  502    0  0.29797827531E+03 -0.43386320020E+02  0.49385501983E+03  0.11594356274E+04  0.10048506198E+04 0.  0.
        -13    1    4    4    0    0 -0.33899915647E+03 -0.17124904620E+03  0.77021474336E+02  0.38752933126E+03  0.10566000000E+00 0.  1.
          4    1    4    4  502    0  0.63697743179E+03  0.12786272618E+03  0.41683354549E+03  0.77190629612E+03  0.00000000000E+00 0.  1.
         13    1    3    3    0    0  0.47003538742E+02  0.38860913441E+03 -0.31731512184E+03  0.50390007910E+03  0.10566000000E+00 0. -1.
         -4    1    3    3    0  501 -0.34498181406E+03 -0.34522281439E+03 -0.31147184816E+03  0.57896973651E+03  0.00000000000E+00 0. -1.
<mgrwt>
<rscale>  0 0.96166855E+03</rscale>
<asrwt>0</asrwt>
<pdfrwt beam="1">  1        4 0.16210565E+00 0.10489987E+04</pdfrwt>
<pdfrwt beam="2">  1       -4 0.18286442E+00 0.88160875E+03</pdfrwt>
<totfact> 0.27331970E-01</totfact>
</mgrwt>
</event>
<event>
 8    1  0.2939692E-006  0.1073558E+04  0.7818608E-02  0.8715531E-01
          4   -1    0    0  502    0  0.00000000000E+00  0.00000000000E+00  0.14242227063E+04  0.14242227063E+04  0.00000000000E+00 0.  1.
         -4   -1    0    0    0  501 -0.00000000000E+00 -0.00000000000E+00 -0.11813261471E+04  0.11813261471E+04  0.00000000000E+00 0. -1.
   -9000010    2    1    2    0  501 -0.11426631458E+03  0.30888033939E+03 -0.62107980315E+03  0.12402687853E+04  0.10217938555E+04 0.  0.
    9000010    2    1    2  502    0  0.11426631458E+03 -0.30888033939E+03  0.86397636234E+03  0.13652800682E+04  0.10045250894E+04 0.  0.
        -13    1    4    4    0    0 -0.32621797460E+03  0.20039183830E+03  0.28563627273E+03  0.47766426208E+03  0.10566000000E+00 0.  1.
          4    1    4    4  502    0  0.44048428918E+03 -0.50927217769E+03  0.57834008961E+03  0.88761580610E+03  0.00000000000E+00 0.  1.
         13    1    3    3    0    0 -0.21227255628E+03 -0.32162691486E+03 -0.58849503818E+02  0.38982917512E+03  0.10566000000E+00 0. -1.
         -4    1    3    3    0  501  0.98006241698E+02  0.63050725425E+03 -0.56223029933E+03  0.85043961018E+03  0.00000000000E+00 0. -1.
<mgrwt>
<rscale>  0 0.10653148E+04</rscale>
<asrwt>0</asrwt>
<pdfrwt beam="1">  1        4 0.21911119E+00 0.10571350E+04</pdfrwt>
<pdfrwt beam="2">  1       -4 0.18174248E+00 0.10735579E+04</pdfrwt>
<totfact> 0.18407426E-01</totfact>
</mgrwt>
</event>
<event>
 8    1  0.2939692E-006  0.1077782E+04  0.7818608E-02  0.8717210E-01
         -4   -1    0    0    0  501 -0.00000000000E+00  0.00000000000E+00  0.23605640771E+04  0.23605640771E+04  0.00000000000E+00 0. -1.
          4   -1    0    0  502    0  0.00000000000E+00 -0.00000000000E+00 -0.14546152925E+04  0.14546152925E+04  0.00000000000E+00 0.  1.
   -9000010    2    1    2    0  501  0.30515385887E+03 -0.10363032930E+03  0.20170844592E+04  0.22869727164E+04  0.10284728326E+04 0.  0.
    9000010    2    1    2  502    0 -0.30515385887E+03  0.10363032930E+03 -0.11111356746E+04  0.15282066532E+04  0.99846630627E+03 0.  0.
        -13    1    4    4    0    0 -0.86807391962E+02  0.54414852752E+03 -0.67156847898E+03  0.86869866837E+03  0.10566000000E+00 0.  1.
          4    1    4    4  502    0 -0.21834646691E+03 -0.44051819822E+03 -0.43956719566E+03  0.65950798485E+03  0.00000000000E+00 0.  1.
         13    1    3    3    0    0  0.31320975202E+02  0.42785841628E+03  0.51502229092E+03  0.67029232368E+03  0.10566000000E+00 0. -1.
         -4    1    3    3    0  501  0.27383288367E+03 -0.53148874558E+03  0.15020621683E+04  0.16166803928E+04  0.00000000000E+00 0. -1.
<mgrwt>
<rscale>  0 0.10633884E+04</rscale>
<asrwt>0</asrwt>
<pdfrwt beam="2">  1        4 0.22378697E+00 0.10491869E+04</pdfrwt>
<pdfrwt beam="1">  1       -4 0.36316370E+00 0.10777822E+04</pdfrwt>
<totfact> 0.57197827E-02</totfact>
</mgrwt>
</event>
<event>
 8    1  0.2939692E-006  0.1058665E+04  0.7818608E-02  0.8735291E-01
         -4   -1    0    0    0  501 -0.00000000000E+00  0.00000000000E+00  0.18585602033E+04  0.18585602033E+04  0.00000000000E+00 0. -1.
          4   -1    0    0  502    0  0.00000000000E+00 -0.00000000000E+00 -0.12266910470E+04  0.12266910470E+04  0.00000000000E+00 0.  1.
   -9000010    2    1    2    0  501 -0.32472906705E+03  0.23901763406E+02  0.14290377673E+04  0.17600153748E+04  0.97441516723E+03 0.  0.
    9000010    2    1    2  502    0  0.32472906705E+03 -0.23901763406E+02 -0.79716861101E+03  0.13252358755E+04  0.10073490309E+04 0.  0.
        -13    1    4    4    0    0  0.50289277348E+02  0.30862484998E+03 -0.83577939207E+03  0.89235951993E+03  0.10566000000E+00 0.  1.
          4    1    4    4  502    0  0.27443978970E+03 -0.33252661339E+03  0.38610781057E+02  0.43287635555E+03  0.00000000000E+00 0.  1.
         13    1    3    3    0    0 -0.40695517088E+03 -0.14556656188E+03  0.14982458577E+04  0.15593405004E+04  0.10566000000E+00 0. -1.
         -4    1    3    3    0  501  0.82226103829E+02  0.16946832529E+03 -0.69208090448E+02  0.20067487439E+03  0.00000000000E+00 0. -1.
<mgrwt>
<rscale>  0 0.10429043E+04</rscale>
<asrwt>0</asrwt>
<pdfrwt beam="2">  1        4 0.18872170E+00 0.10586654E+04</pdfrwt>
<pdfrwt beam="1">  1       -4 0.28593234E+00 0.10273778E+04</pdfrwt>
<totfact> 0.12080614E-01</totfact>
</mgrwt>
</event>
<event>
 8    1  0.2939692E-006  0.1388879E+04  0.7818608E-02  0.8500712E-01
         -4   -1    0    0    0  501 -0.00000000000E+00  0.00000000000E+00  0.18679651704E+04  0.18679651704E+04  0.00000000000E+00 0.  1.
          4   -1    0    0  502    0  0.00000000000E+00 -0.00000000000E+00 -0.14067088121E+04  0.14067088121E+04  0.00000000000E+00 0. -1.
   -9000010    2    1    2    0  501 -0.37514539777E+03  0.74784961142E+03  0.11387066374E+04  0.17960059334E+04  0.11085898231E+04 0.  0.
    9000010    2    1    2  502    0  0.37514539777E+03 -0.74784961142E+03 -0.67745027917E+03  0.14786680491E+04  0.10136603021E+04 0.  0.
        -13    1    4    4    0    0  0.67479972391E+03 -0.30818950853E+03 -0.57077861302E+03  0.93601478450E+03  0.10566000000E+00 0.  1.
          4    1    4    4  502    0 -0.29965432614E+03 -0.43966010289E+03 -0.10667166615E+03  0.54265326462E+03  0.00000000000E+00 0.  1.
         13    1    3    3    0    0  0.13212119172E+03  0.46464959014E+03  0.11143267836E+04  0.12145284857E+04  0.10566000000E+00 0. -1.
         -4    1    3    3    0  501 -0.50726658949E+03  0.28320002128E+03  0.24379853830E+02  0.58147744766E+03  0.00000000000E+00 0. -1.
<mgrwt>
<rscale>  0 0.13511015E+04</rscale>
<asrwt>0</asrwt>
<pdfrwt beam="2">  1        4 0.21641674E+00 0.13143517E+04</pdfrwt>
<pdfrwt beam="1">  1       -4 0.28737926E+00 0.13888789E+04</pdfrwt>
<totfact> 0.98047602E-02</totfact>
</mgrwt>
</event>
<event>
 8    1  0.2939692E-006  0.1105886E+04  0.7818608E-02  0.8684718E-01
          4   -1    0    0  502    0  0.00000000000E+00  0.00000000000E+00  0.21570494342E+04  0.21570494342E+04  0.00000000000E+00 0.  1.
         -4   -1    0    0    0  501 -0.00000000000E+00 -0.00000000000E+00 -0.15223169656E+04  0.15223169656E+04  0.00000000000E+00 0. -1.
   -9000010    2    1    2    0  501  0.42765813672E+03 -0.20869043785E+03 -0.11439296983E+04  0.15849395793E+04  0.98844075939E+03 0.  0.
    9000010    2    1    2  502    0 -0.42765813672E+03  0.20869043785E+03  0.17786621669E+04  0.20944268205E+04  0.99826921309E+03 0.  0.
        -13    1    4    4    0    0 -0.48715626607E+03 -0.16703609487E+03  0.36694266802E+03  0.63235213081E+03  0.10566000000E+00 0.  1.
          4    1    4    4  502    0  0.59498129353E+02  0.37572653272E+03  0.14117194989E+04  0.14620746897E+04  0.00000000000E+00 0.  1.
         13    1    3    3    0    0 -0.27097488406E+03 -0.27467379261E+03 -0.30933517944E+03  0.49453143938E+03  0.10566000000E+00 0. -1.
         -4    1    3    3    0  501  0.69863302078E+03  0.65983354760E+02 -0.83459451881E+03  0.10904081399E+04  0.00000000000E+00 0. -1.
<mgrwt>
<rscale>  0 0.11014455E+04</rscale>
<asrwt>0</asrwt>
<pdfrwt beam="1">  1        4 0.33185376E+00 0.11058863E+04</pdfrwt>
<pdfrwt beam="2">  1       -4 0.23420261E+00 0.10970225E+04</pdfrwt>
<totfact> 0.67862962E-02</totfact>
</mgrwt>
</event>
<event>
 8    1  0.2939692E-006  0.1665464E+04  0.7818608E-02  0.8321984E-01
          4   -1    0    0  502    0  0.00000000000E+00  0.00000000000E+00  0.23177537325E+04  0.23177537325E+04  0.00000000000E+00 0.  1.
         -4   -1    0    0    0  501 -0.00000000000E+00 -0.00000000000E+00 -0.14845897648E+04  0.14845897648E+04  0.00000000000E+00 0. -1.
   -9000010    2    1    2    0  501  0.10943607710E+04 -0.75592562300E+03 -0.42728733064E+03  0.17194019781E+04  0.10023570496E+04 0.  0.
    9000010    2    1    2  502    0 -0.10943607710E+04  0.75592562300E+03  0.12604512984E+04  0.20829415192E+04  0.99038318449E+03 0.  0.
        -13    1    4    4    0    0 -0.59573635271E+03  0.94387010887E+03  0.74774998997E+03  0.13434740947E+04  0.10566000000E+00 0.  1.
          4    1    4    4  502    0 -0.49862441826E+03 -0.18794448587E+03  0.51270130845E+03  0.73946742453E+03  0.00000000000E+00 0.  1.
         13    1    3    3    0    0  0.11150506595E+04 -0.84705714530E+03 -0.59968308210E+03  0.15233067947E+04  0.10566000000E+00 0. -1.
         -4    1    3    3    0  501 -0.20689888492E+02  0.91131522307E+02  0.17239575145E+03  0.19609518343E+03  0.00000000000E+00 0. -1.
<mgrwt>
<rscale>  0 0.16618702E+04</rscale>
<asrwt>0</asrwt>
<pdfrwt beam="1">  1        4 0.35657750E+00 0.16582846E+04</pdfrwt>
<pdfrwt beam="2">  1       -4 0.22839843E+00 0.16654635E+04</pdfrwt>
<totfact> 0.55751408E-02</totfact>
</mgrwt>
</event>
<event>
 8    1  0.2939692E-006  0.1155819E+04  0.7818608E-02  0.8652010E-01
         -4   -1    0    0    0  501 -0.00000000000E+00  0.00000000000E+00  0.16989933428E+04  0.16989933428E+04  0.00000000000E+00 0. -1.
          4   -1    0    0  502    0  0.00000000000E+00 -0.00000000000E+00 -0.15082128035E+04  0.15082128035E+04  0.00000000000E+00 0.  1.
   -9000010    2    1    2    0  501 -0.24000939289E+03 -0.44965074919E+03  0.12201474183E+04  0.16806777911E+04  0.10373658034E+04 0.  0.
    9000010    2    1    2  502    0  0.24000939289E+03  0.44965074919E+03 -0.10293668790E+04  0.15265283552E+04  0.10054363942E+04 0.  0.
        -13    1    4    4    0    0  0.32323781260E+03  0.15104141069E+02  0.79017938146E+02  0.33309858043E+03  0.10566000000E+00 0.  1.
          4    1    4    4  502    0 -0.83228419717E+02  0.43454660812E+03 -0.11083848171E+04  0.11934297748E+04  0.00000000000E+00 0.  1.
         13    1    3    3    0    0  0.37871901396E+03 -0.24615866156E+03  0.26219970320E+03  0.52227471097E+03  0.10566000000E+00 0. -1.
         -4    1    3    3    0  501 -0.61872840684E+03 -0.20349208762E+03  0.95794771511E+03  0.11584030801E+04  0.00000000000E+00 0. -1.
<mgrwt>
<rscale>  0 0.11414453E+04</rscale>
<asrwt>0</asrwt>
<pdfrwt beam="2">  1        4 0.23203274E+00 0.11272500E+04</pdfrwt>
<pdfrwt beam="1">  1       -4 0.26138359E+00 0.11558192E+04</pdfrwt>
<totfact> 0.10523247E-01</totfact>
</mgrwt>
</event>
<event>
 8    1  0.2939692E-006  0.1236690E+04  0.7818608E-02  0.8633956E-01
         -4   -1    0    0    0  501 -0.00000000000E+00  0.00000000000E+00  0.26638393004E+04  0.26638393004E+04  0.00000000000E+00 0. -1.
          4   -1    0    0  502    0  0.00000000000E+00 -0.00000000000E+00 -0.99351411521E+03  0.99351411521E+03  0.00000000000E+00 0.  1.
   -9000010    2    1    2    0  501 -0.69510649132E+03  0.22030192520E+03  0.20828604246E+04  0.23536706995E+04  0.81838392013E+03 0.  0.
    9000010    2    1    2  502    0  0.69510649132E+03 -0.22030192520E+03 -0.41253523942E+03  0.13036827161E+04  0.99884800046E+03 0.  0.
        -13    1    4    4    0    0  0.65110724864E+03 -0.42434459487E+03 -0.63132924677E+03  0.10012919721E+04  0.10566000000E+00 0.  1.
          4    1    4    4  502    0  0.43999242677E+02  0.20404266967E+03  0.21879400735E+03  0.30239074400E+03  0.00000000000E+00 0.  1.
         13    1    3    3    0    0  0.16715268770E+03  0.89237952479E+02  0.64226671263E+03  0.66963420947E+03  0.10566000000E+00 0. -1.
         -4    1    3    3    0  501 -0.86225917902E+03  0.13106397272E+03  0.14405937119E+04  0.16840364900E+04  0.00000000000E+00 0. -1.
<mgrwt>
<rscale>  0 0.11642806E+04</rscale>
<asrwt>0</asrwt>
<pdfrwt beam="2">  1        4 0.15284833E+00 0.12366905E+04</pdfrwt>
<pdfrwt beam="1">  1       -4 0.40982143E+00 0.10961105E+04</pdfrwt>
<totfact> 0.63101705E-02</totfact>
</mgrwt>
</event>
<event>
 8    1  0.2939692E-006  0.1207336E+04  0.7818608E-02  0.8601645E-01
          4   -1    0    0  502    0  0.00000000000E+00  0.00000000000E+00  0.80386396404E+03  0.80386396404E+03  0.00000000000E+00 0.  1.
         -4   -1    0    0    0  501 -0.00000000000E+00 -0.00000000000E+00 -0.35643919589E+04  0.35643919589E+04  0.00000000000E+00 0. -1.
   -9000010    2    1    2    0  501 -0.62102992665E+03 -0.24432223373E+03 -0.29126170188E+04  0.31529346830E+04  0.10061250881E+04 0.  0.
    9000010    2    1    2  502    0  0.62102992665E+03  0.24432223373E+03  0.15208902399E+03  0.12153212400E+04  0.10042425610E+04 0.  0.
        -13    1    4    4    0    0  0.47412318709E+03  0.55158417435E+03 -0.16957573767E+03  0.74685596998E+03  0.10566000000E+00 0.  1.
          4    1    4    4  502    0  0.14690673956E+03 -0.30726194062E+03  0.32166476167E+03  0.46846526998E+03  0.00000000000E+00 0.  1.
         13    1    3    3    0    0 -0.58225063536E+03 -0.42997246493E+03 -0.10193201812E+04  0.12501622958E+04  0.10566000000E+00 0. -1.
         -4    1    3    3    0  501 -0.38779291291E+02  0.18565023120E+03 -0.18932968376E+04  0.19027723871E+04  0.00000000000E+00 0. -1.
<mgrwt>
<rscale>  0 0.12065512E+04</rscale>
<asrwt>0</asrwt>
<pdfrwt beam="1">  1        4 0.12367138E+00 0.12057672E+04</pdfrwt>
<pdfrwt beam="2">  1       -4 0.54836798E+00 0.12073356E+04</pdfrwt>
<totfact> 0.19875775E-02</totfact>
</mgrwt>
</event>
<event>
 8    1  0.2939692E-006  0.1113046E+04  0.7818608E-02  0.8681451E-01
         -4   -1    0    0    0  501 -0.00000000000E+00  0.00000000000E+00  0.17728700735E+04  0.17728700735E+04  0.00000000000E+00 0. -1.
          4   -1    0    0  502    0  0.00000000000E+00 -0.00000000000E+00 -0.11919833631E+04  0.11919833631E+04  0.00000000000E+00 0.  1.
   -9000010    2    1    2    0  501  0.40771799778E+03  0.13069022459E+03  0.12520378664E+04  0.16651165863E+04  0.10107920294E+04 0.  0.
    9000010    2    1    2  502    0 -0.40771799778E+03 -0.13069022459E+03 -0.67115115595E+03  0.12997368503E+04  0.10274035747E+04 0.  0.
        -13    1    4    4    0    0 -0.55436546089E+03 -0.48000485238E+03 -0.41758580441E+03  0.84386233340E+03  0.10566000000E+00 0.  1.
          4    1    4    4  502    0  0.14664746310E+03  0.34931462778E+03 -0.25356535154E+03  0.45587451685E+03  0.00000000000E+00 0.  1.
         13    1    3    3    0    0  0.22127567676E+03 -0.33032246711E+03  0.10598741260E+04  0.11319933884E+04  0.10566000000E+00 0. -1.
         -4    1    3    3    0  501  0.18644232102E+03  0.46101269170E+03  0.19216374042E+03  0.53312319788E+03  0.00000000000E+00 0. -1.
<mgrwt>
<rscale>  0 0.11053624E+04</rscale>
<asrwt>0</asrwt>
<pdfrwt beam="2">  1        4 0.18338206E+00 0.11130463E+04</pdfrwt>
<pdfrwt beam="1">  1       -4 0.27274924E+00 0.10977315E+04</pdfrwt>
<totfact> 0.13502571E-01</totfact>
</mgrwt>
</event>
<event>
 8    1  0.2939692E-006  0.1234060E+04  0.7818608E-02  0.8586916E-01
          4   -1    0    0  502    0  0.00000000000E+00  0.00000000000E+00  0.42778025086E+04  0.42778025086E+04  0.00000000000E+00 0.  1.
         -4   -1    0    0    0  501 -0.00000000000E+00 -0.00000000000E+00 -0.11257914135E+04  0.11257914135E+04  0.00000000000E+00 0. -1.
   -9000010    2    1    2    0  501  0.69828254702E+03  0.45659574422E+03 -0.66140182666E+03  0.14001276501E+04  0.90930020963E+03 0.  0.
    9000010    2    1    2  502    0 -0.69828254702E+03 -0.45659574422E+03  0.38134129217E+04  0.40034662719E+04  0.88856394808E+03 0.  0.
        -13    1    4    4    0    0 -0.21486831870E+03 -0.61297305548E+03  0.27391832187E+04  0.28151428166E+04  0.10566000000E+00 0.  1.
          4    1    4    4  502    0 -0.48341422832E+03  0.15637731126E+03  0.10742297030E+04  0.11883234553E+04  0.00000000000E+00 0.  1.
         13    1    3    3    0    0  0.68755603336E+03  0.42893564165E+03 -0.75959630401E+02  0.81393424814E+03  0.10566000000E+00 0. -1.
         -4    1    3    3    0  501  0.10726513665E+02  0.27660102570E+02 -0.58544219626E+03  0.58619340198E+03  0.00000000000E+00 0. -1.
<mgrwt>
<rscale>  0 0.12264376E+04</rscale>
<asrwt>0</asrwt>
<pdfrwt beam="1">  1        4 0.65812346E+00 0.12188618E+04</pdfrwt>
<pdfrwt beam="2">  1       -4 0.17319868E+00 0.12340604E+04</pdfrwt>
<totfact> 0.30551384E-03</totfact>
</mgrwt>
</event>
<event>
 8    1  0.2939692E-006  0.1026069E+04  0.7818608E-02  0.8834672E-01
          4   -1    0    0  502    0  0.00000000000E+00  0.00000000000E+00  0.88987761288E+03  0.88987761288E+03  0.00000000000E+00 0.  1.
         -4   -1    0    0    0  501 -0.00000000000E+00 -0.00000000000E+00 -0.19254345321E+04  0.19254345321E+04  0.00000000000E+00 0. -1.
   -9000010    2    1    2    0  501 -0.13008277353E+03 -0.17323087919E+03 -0.14690599440E+04  0.17014257941E+04  0.83053124469E+03 0.  0.
    9000010    2    1    2  502    0  0.13008277353E+03  0.17323087919E+03  0.43350302469E+03  0.11138863509E+04  0.10029394124E+04 0.  0.
        -13    1    4    4    0    0  0.47600664431E+03  0.20738010963E+03  0.54118892372E+03  0.74998286488E+03  0.10566000000E+00 0.  1.
          4    1    4    4  502    0 -0.34592387078E+03 -0.34149230440E+02 -0.10768589902E+03  0.36390348605E+03  0.00000000000E+00 0.  1.
         13    1    3    3    0    0 -0.31010276837E+03 -0.45672845496E+02 -0.12189829234E+03  0.33631672663E+03  0.10566000000E+00 0. -1.
         -4    1    3    3    0  501  0.18001999484E+03 -0.12755803369E+03 -0.13471616516E+04  0.13651090675E+04  0.00000000000E+00 0. -1.
<mgrwt>
<rscale>  0 0.93845369E+03</rscale>
<asrwt>0</asrwt>
<pdfrwt beam="1">  1        4 0.13690425E+00 0.10260692E+04</pdfrwt>
<pdfrwt beam="2">  1       -4 0.29622069E+00 0.85831965E+03</pdfrwt>
<totfact> 0.18136020E-01</totfact>
</mgrwt>
</event>
<event>
 8    1  0.2939692E-006  0.1131145E+04  0.7818608E-02  0.8670030E-01
         -4   -1    0    0    0  501 -0.00000000000E+00  0.00000000000E+00  0.10556581038E+04  0.10556581038E+04  0.00000000000E+00 0. -1.
          4   -1    0    0  502    0  0.00000000000E+00 -0.00000000000E+00 -0.34564946053E+04  0.34564946053E+04  0.00000000000E+00 0.  1.
   -9000010    2    1    2    0  501 -0.46794445288E+03 -0.69288574802E+02  0.62339743513E+03  0.12915545947E+04  0.10274804092E+04 0.  0.
    9000010    2    1    2  502    0  0.46794445288E+03  0.69288574802E+02 -0.30242339367E+04  0.32205981144E+04  0.10012434237E+04 0.  0.
        -13    1    4    4    0    0  0.27669645374E+03  0.16575334759E+03 -0.18209040690E+03  0.37039442112E+03  0.10566000000E+00 0.  1.
          4    1    4    4  502    0  0.19124799915E+03 -0.96464772784E+02 -0.28421435298E+04  0.28502036933E+04  0.00000000000E+00 0.  1.
         13    1    3    3    0    0 -0.29952011358E+03  0.27050723453E+03 -0.14968825337E+03  0.43045678846E+03  0.10566000000E+00 0. -1.
         -4    1    3    3    0  501 -0.16842433931E+03 -0.33979580934E+03  0.77308568850E+03  0.86109780622E+03  0.00000000000E+00 0. -1.
<mgrwt>
<rscale>  0 0.11191927E+04</rscale>
<asrwt>0</asrwt>
<pdfrwt beam="2">  1        4 0.53176839E+00 0.11073668E+04</pdfrwt>
<pdfrwt beam="1">  1       -4 0.16240894E+00 0.11311450E+04</pdfrwt>
<totfact> 0.15962812E-02</totfact>
</mgrwt>
</event>
<event>
 8    1  0.2939692E-006  0.1777455E+04  0.7818608E-02  0.8273576E-01
         -4   -1    0    0    0  501 -0.00000000000E+00  0.00000000000E+00  0.15670747709E+04  0.15670747709E+04  0.00000000000E+00 0. -1.
          4   -1    0    0  502    0  0.00000000000E+00 -0.00000000000E+00 -0.19779608775E+04  0.19779608775E+04  0.00000000000E+00 0.  1.
   -9000010    2    1    2    0  501  0.13605344513E+04 -0.43136993470E+03 -0.21752649141E+03  0.17907159972E+04  0.10593450780E+04 0.  0.
    9000010    2    1    2  502    0 -0.13605344513E+04  0.43136993470E+03 -0.19335961524E+03  0.17543196513E+04  0.10015565308E+04 0.  0.
        -13    1    4    4    0    0 -0.83989349414E+03 -0.16267282321E+03  0.18992861654E+03  0.87633122702E+03  0.10566000000E+00 0.  1.
          4    1    4    4  502    0 -0.52064095715E+03  0.59404275791E+03 -0.38328823178E+03  0.87798842424E+03  0.00000000000E+00 0.  1.
         13    1    3    3    0    0  0.55909614348E+03 -0.27366032377E+03 -0.62136441608E+03  0.87952954425E+03  0.10566000000E+00 0. -1.
         -4    1    3    3    0  501  0.80143830781E+03 -0.15770961093E+03  0.40383792467E+03  0.91118645293E+03  0.00000000000E+00 0. -1.
<mgrwt>
<rscale>  0 0.17604618E+04</rscale>
<asrwt>0</asrwt>
<pdfrwt beam="2">  1        4 0.30430167E+00 0.17436311E+04</pdfrwt>
<pdfrwt beam="1">  1       -4 0.24108843E+00 0.17774549E+04</pdfrwt>
<totfact> 0.74457773E-02</totfact>
</mgrwt>
</event>
<event>
 8    1  0.2939692E-006  0.1039372E+04  0.7818608E-02  0.8758923E-01
          4   -1    0    0  502    0  0.00000000000E+00  0.00000000000E+00  0.33886730905E+04  0.33886730905E+04  0.00000000000E+00 0.  1.
         -4   -1    0    0    0  501 -0.00000000000E+00 -0.00000000000E+00 -0.19260416636E+04  0.19260416636E+04  0.00000000000E+00 0. -1.
   -9000010    2    1    2    0  501  0.72105629327E+02  0.27556758550E+03 -0.17037370651E+04  0.19957492024E+04  0.99957899945E+03 0.  0.
    9000010    2    1    2  502    0 -0.72105629327E+02 -0.27556758550E+03  0.31663684920E+04  0.33189655517E+04  0.95315591090E+03 0.  0.
        -13    1    4    4    0    0  0.36247765245E+03 -0.19815104110E+03  0.69516203801E+03  0.80864340340E+03  0.10566000000E+00 0.  1.
          4    1    4    4  502    0 -0.43458328177E+03 -0.77416544394E+02  0.24712064540E+04  0.25103221483E+04  0.00000000000E+00 0.  1.
         13    1    3    3    0    0  0.40450086884E+03  0.48745346603E+03 -0.90007956247E+03  0.11006248518E+04  0.10566000000E+00 0. -1.
         -4    1    3    3    0  501 -0.33239523951E+03 -0.21188588053E+03 -0.80365750262E+03  0.89512435066E+03  0.00000000000E+00 0. -1.
<mgrwt>
<rscale>  0 0.10168461E+04</rscale>
<asrwt>0</asrwt>
<pdfrwt beam="1">  1        4 0.52133432E+00 0.99480797E+03</pdfrwt>
<pdfrwt beam="2">  1       -4 0.29631410E+00 0.10393724E+04</pdfrwt>
<totfact> 0.78704844E-03</totfact>
</mgrwt>
</event>
<event>
 8    1  0.2939692E-006  0.1043171E+04  0.7818608E-02  0.8738319E-01
         -4   -1    0    0    0  501 -0.00000000000E+00  0.00000000000E+00  0.23066063840E+04  0.23066063840E+04  0.00000000000E+00 0. -1.
          4   -1    0    0  502    0  0.00000000000E+00 -0.00000000000E+00 -0.74133324511E+03  0.74133324511E+03  0.00000000000E+00 0.  1.
   -9000010    2    1    2    0  501 -0.17057795871E+03 -0.25950465344E+03  0.17054437914E+04  0.19953933854E+04  0.98823920772E+03 0.  0.
    9000010    2    1    2  502    0  0.17057795871E+03  0.25950465344E+03 -0.14017065253E+03  0.10525462437E+04  0.99587462973E+03 0.  0.
        -13    1    4    4    0    0 -0.16292176052E+03 -0.19574855353E+02 -0.47575050346E+03  0.50325463507E+03  0.10566000000E+00 0.  1.
          4    1    4    4  502    0  0.33349971924E+03  0.27907950879E+03  0.33557985093E+03  0.54929160863E+03  0.00000000000E+00 0.  1.
         13    1    3    3    0    0  0.38909515546E+03 -0.21545189854E+03  0.99520860329E+03  0.10900709774E+04  0.10566000000E+00 0. -1.
         -4    1    3    3    0  501 -0.55967311417E+03 -0.44052754903E+02  0.71023518810E+03  0.90532240796E+03  0.00000000000E+00 0. -1.
<mgrwt>
<rscale>  0 0.10395213E+04</rscale>
<asrwt>0</asrwt>
<pdfrwt beam="2">  1        4 0.11405127E+00 0.10431710E+04</pdfrwt>
<pdfrwt beam="1">  1       -4 0.35486252E+00 0.10358843E+04</pdfrwt>
<totfact> 0.16313326E-01</totfact>
</mgrwt>
</event>
<event>
 8    1  0.2939692E-006  0.1282127E+04  0.7818608E-02  0.8550391E-01
         -4   -1    0    0    0  501 -0.00000000000E+00  0.00000000000E+00  0.25900749578E+04  0.25900749578E+04  0.00000000000E+00 0. -1.
          4   -1    0    0  502    0  0.00000000000E+00 -0.00000000000E+00 -0.74010952329E+03  0.74010952329E+03  0.00000000000E+00 0.  1.
   -9000010    2    1    2    0  501 -0.56336134208E+03  0.55721147570E+03  0.15640959627E+04  0.20165749723E+04  0.99615149858E+03 0.  0.
    9000010    2    1    2  502    0  0.56336134208E+03 -0.55721147570E+03  0.28586947184E+03  0.13136095088E+04  0.10079622792E+04 0.  0.
        -13    1    4    4    0    0  0.52647425172E+02  0.26398453141E+03 -0.78173560179E+02  0.28030465725E+03  0.10566000000E+00 0.  1.
          4    1    4    4  502    0  0.51071391691E+03 -0.82119600711E+03  0.36404303202E+03  0.10333048515E+04  0.00000000000E+00 0.  1.
         13    1    3    3    0    0 -0.44299168848E+03  0.66464553624E+03  0.50442182324E+03  0.94468868514E+03  0.10566000000E+00 0. -1.
         -4    1    3    3    0  501 -0.12036965360E+03 -0.10743406053E+03  0.10596741394E+04  0.10718862872E+04  0.00000000000E+00 0. -1.
<mgrwt>
<rscale>  0 0.12774860E+04</rscale>
<asrwt>0</asrwt>
<pdfrwt beam="2">  1        4 0.11386300E+00 0.12821266E+04</pdfrwt>
<pdfrwt beam="1">  1       -4 0.39847307E+00 0.12728623E+04</pdfrwt>
<totfact> 0.11044961E-01</totfact>
</mgrwt>
</event>
<event>
 8    1  0.2939692E-006  0.1067491E+04  0.7818608E-02  0.8714361E-01
          4   -1    0    0  502    0  0.00000000000E+00  0.00000000000E+00  0.26039775782E+04  0.26039775782E+04  0.00000000000E+00 0.  1.
         -4   -1    0    0    0  501 -0.00000000000E+00 -0.00000000000E+00 -0.91044321279E+03  0.91044321279E+03  0.00000000000E+00 0. -1.
   -9000010    2    1    2    0  501 -0.28893912681E+03  0.21289245751E+03 -0.42079732109E+03  0.11458906316E+04  0.10035865367E+04 0.  0.
    9000010    2    1    2  502    0  0.28893912681E+03 -0.21289245751E+03  0.21143316865E+04  0.23685301594E+04  0.10053495005E+04 0.  0.
        -13    1    4    4    0    0  0.27558405530E+03 -0.55706917693E+03  0.17922983036E+04  0.18969991723E+04  0.10566000000E+00 0.  1.
          4    1    4    4  502    0  0.13355071504E+02  0.34417671942E+03  0.32203338293E+03  0.47153098715E+03  0.00000000000E+00 0.  1.
         13    1    3    3    0    0 -0.24852428492E+03  0.40569173919E+03  0.18378408288E+03  0.51002618337E+03  0.10566000000E+00 0. -1.
         -4    1    3    3    0  501 -0.40414841890E+02 -0.19279928168E+03 -0.60458140397E+03  0.63586444820E+03  0.00000000000E+00 0. -1.
<mgrwt>
<rscale>  0 0.10666604E+04</rscale>
<asrwt>0</asrwt>
<pdfrwt beam="1">  1        4 0.40061193E+00 0.10674908E+04</pdfrwt>
<pdfrwt beam="2">  1       -4 0.14006819E+00 0.10658306E+04</pdfrwt>
<totfact> 0.78475716E-02</totfact>
</mgrwt>
</event>
<event>
 8    1  0.2939692E-006  0.1470873E+04  0.7818608E-02  0.8427727E-01
         -4   -1    0    0    0  501 -0.00000000000E+00  0.00000000000E+00  0.14359420515E+04  0.14359420515E+04  0.00000000000E+00 0. -1.
          4   -1    0    0  502    0  0.00000000000E+00 -0.00000000000E+00 -0.20514776926E+04  0.20514776926E+04  0.00000000000E+00 0.  1.
   -9000010    2    1    2    0  501  0.10604527607E+04  0.25876018077E+03  0.59477716436E+03  0.15826039420E+04  0.97946846457E+03 0.  0.
    9000010    2    1    2  502    0 -0.10604527607E+04 -0.25876018077E+03 -0.12103128054E+04  0.19048158020E+04  0.98587487231E+03 0.  0.
        -13    1    4    4    0    0 -0.65112694378E+02 -0.38036451966E+03 -0.65060651902E+03  0.75644278339E+03  0.10566000000E+00 0.  1.
          4    1    4    4  502    0 -0.99534006636E+03  0.12160433889E+03 -0.55970628640E+03  0.11483730187E+04  0.00000000000E+00 0.  1.
         13    1    3    3    0    0  0.66063938856E+03  0.32691462264E+03 -0.13341881630E+03  0.74907820948E+03  0.10566000000E+00 0. -1.
         -4    1    3    3    0  501  0.39981337218E+03 -0.68154441870E+02  0.72819598066E+03  0.83352573252E+03  0.00000000000E+00 0. -1.
<mgrwt>
<rscale>  0 0.14687279E+04</rscale>
<asrwt>0</asrwt>
<pdfrwt beam="2">  1        4 0.31561195E+00 0.14708726E+04</pdfrwt>
<pdfrwt beam="1">  1       -4 0.22091416E+00 0.14665863E+04</pdfrwt>
<totfact> 0.79267096E-02</totfact>
</mgrwt>
</event>
<event>
 8    1  0.2939692E-006  0.1115235E+04  0.7818608E-02  0.8678236E-01
          4   -1    0    0  502    0  0.00000000000E+00  0.00000000000E+00  0.32418860481E+04  0.32418860481E+04  0.00000000000E+00 0.  1.
         -4   -1    0    0    0  501 -0.00000000000E+00 -0.00000000000E+00 -0.86330829535E+03  0.86330829535E+03  0.00000000000E+00 0. -1.
   -9000010    2    1    2    0  501  0.40629845137E+03  0.27496299398E+03 -0.34439896982E+03  0.11672016655E+04  0.10015318257E+04 0.  0.
    9000010    2    1    2  502    0 -0.40629845137E+03 -0.27496299398E+03  0.27229767226E+04  0.29379926780E+04  0.98818807141E+03 0.  0.
        -13    1    4    4    0    0  0.65020025897E+02  0.17007429084E+03  0.51825169946E+02  0.18931119242E+03  0.10566000000E+00 0.  1.
          4    1    4    4  502    0 -0.47131847727E+03 -0.44503728482E+03  0.26711515527E+04  0.27486814856E+04  0.00000000000E+00 0.  1.
         13    1    3    3    0    0 -0.31677317421E+03 -0.50445835841E+02 -0.12725681953E+03  0.34508598281E+03  0.10566000000E+00 0. -1.
         -4    1    3    3    0  501  0.72307162558E+03  0.32540882982E+03 -0.21714215029E+03  0.82211568266E+03  0.00000000000E+00 0. -1.
<mgrwt>
<rscale>  0 0.11092350E+04</rscale>
<asrwt>0</asrwt>
<pdfrwt beam="1">  1        4 0.49875170E+00 0.11032673E+04</pdfrwt>
<pdfrwt beam="2">  1       -4 0.13281666E+00 0.11152350E+04</pdfrwt>
<totfact> 0.30712797E-02</totfact>
</mgrwt>
</event>
<event>
 8    1  0.2939692E-006  0.1317541E+04  0.7818608E-02  0.8623076E-01
         -4   -1    0    0    0  501 -0.00000000000E+00  0.00000000000E+00  0.15165856015E+04  0.15165856015E+04  0.00000000000E+00 0. -1.
          4   -1    0    0  502    0  0.00000000000E+00 -0.00000000000E+00 -0.12841702531E+04  0.12841702531E+04  0.00000000000E+00 0.  1.
   -9000010    2    1    2    0  501 -0.25145196175E+03  0.22884964602E+03  0.84215463580E+03  0.13489653435E+04  0.99743812736E+03 0.  0.
    9000010    2    1    2  502    0  0.25145196175E+03 -0.22884964602E+03 -0.60973928746E+03  0.14517905111E+04  0.12729153310E+04 0.  0.
        -13    1    4    4    0    0  0.27400810535E+03  0.14345455329E+03  0.32302366038E+03  0.44721800834E+03  0.10566000000E+00 0.  1.
          4    1    4    4  502    0 -0.22556143603E+02 -0.37230419931E+03 -0.93276294784E+03  0.10045725028E+04  0.00000000000E+00 0.  1.
         13    1    3    3    0    0 -0.41642714569E+01  0.59482008245E+03  0.36093433875E+03  0.69577430227E+03  0.10566000000E+00 0. -1.
         -4    1    3    3    0  501 -0.24728769029E+03 -0.36597043643E+03  0.48122029705E+03  0.65319104127E+03  0.00000000000E+00 0. -1.
<mgrwt>
<rscale>  0 0.11783112E+04</rscale>
<asrwt>0</asrwt>
<pdfrwt beam="2">  1        4 0.19756465E+00 0.13175408E+04</pdfrwt>
<pdfrwt beam="1">  1       -4 0.23332086E+00 0.10537946E+04</pdfrwt>
<totfact> 0.15109274E-01</totfact>
</mgrwt>
</event>
<event>
 8    1  0.2939692E-006  0.1210931E+04  0.7818608E-02  0.8601933E-01
          4   -1    0    0  502    0  0.00000000000E+00  0.00000000000E+00  0.15982566474E+04  0.15982566474E+04  0.00000000000E+00 0.  1.
         -4   -1    0    0    0  501 -0.00000000000E+00 -0.00000000000E+00 -0.17179969600E+04  0.17179969600E+04  0.00000000000E+00 0. -1.
   -9000010    2    1    2    0  501  0.53590893376E+03  0.39118447014E+03 -0.11966765464E+04  0.16957150828E+04  0.10015943343E+04 0.  0.
    9000010    2    1    2  502    0 -0.53590893376E+03 -0.39118447014E+03  0.10769362338E+04  0.16205385247E+04  0.10129806431E+04 0.  0.
        -13    1    4    4    0    0  0.29943440053E+03 -0.90953274911E+02  0.19213294417E+03  0.36721728968E+03  0.10566000000E+00 0.  1.
          4    1    4    4  502    0 -0.83534333429E+03 -0.30023119523E+03  0.88480328961E+03  0.12533212350E+04  0.00000000000E+00 0.  1.
         13    1    3    3    0    0  0.26015582179E+03  0.64090049406E+03 -0.11192360439E+04  0.13157217897E+04  0.10566000000E+00 0. -1.
         -4    1    3    3    0  501  0.27575311197E+03 -0.24971602392E+03 -0.77440502497E+02  0.37999329309E+03  0.00000000000E+00 0. -1.
<mgrwt>
<rscale>  0 0.12061671E+04</rscale>
<asrwt>0</asrwt>
<pdfrwt beam="1">  1        4 0.24588564E+00 0.12109308E+04</pdfrwt>
<pdfrwt beam="2">  1       -4 0.26430722E+00 0.12014220E+04</pdfrwt>
<totfact> 0.95705244E-02</totfact>
</mgrwt>
</event>
<event>
 8    1  0.2939692E-006  0.1093114E+04  0.7818608E-02  0.8691912E-01
         -4   -1    0    0    0  501 -0.00000000000E+00  0.00000000000E+00  0.12728525014E+04  0.12728525014E+04  0.00000000000E+00 0. -1.
          4   -1    0    0  502    0  0.00000000000E+00 -0.00000000000E+00 -0.19284734178E+04  0.19284734178E+04  0.00000000000E+00 0.  1.
   -9000010    2    1    2    0  501  0.26021539020E+02 -0.45276129867E+03  0.81915574132E+03  0.13656069851E+04  0.99408067844E+03 0.  0.
    9000010    2    1    2  502    0 -0.26021539020E+02  0.45276129867E+03 -0.14747766577E+04  0.18357189340E+04  0.99459936677E+03 0.  0.
        -13    1    4    4    0    0 -0.12397034424E+03  0.41394507414E+02  0.12508841721E+03  0.18091234004E+03  0.10566000000E+00 0.  1.
          4    1    4    4  502    0  0.97948805221E+02  0.41136679125E+03 -0.15998650749E+04  0.16548065940E+04  0.00000000000E+00 0.  1.
         13    1    3    3    0    0 -0.17592194258E+03  0.27704593659E+03  0.32192682093E+03  0.45971716311E+03  0.10566000000E+00 0. -1.
         -4    1    3    3    0  501  0.20194348160E+03 -0.72980723525E+03  0.49722892039E+03  0.90588982203E+03  0.00000000000E+00 0. -1.
<mgrwt>
<rscale>  0 0.10928778E+04</rscale>
<asrwt>0</asrwt>
<pdfrwt beam="2">  1        4 0.29668822E+00 0.10931138E+04</pdfrwt>
<pdfrwt beam="1">  1       -4 0.19582346E+00 0.10926419E+04</pdfrwt>
<totfact> 0.10730955E-01</totfact>
</mgrwt>
</event>
<event>
 8    1  0.2939692E-006  0.1100921E+04  0.7818608E-02  0.8689365E-01
         -4   -1    0    0    0  501 -0.00000000000E+00  0.00000000000E+00  0.89314353738E+03  0.89314353738E+03  0.00000000000E+00 0. -1.
          4   -1    0    0  502    0  0.00000000000E+00 -0.00000000000E+00 -0.14518767569E+04  0.14518767569E+04  0.00000000000E+00 0.  1.
   -9000010    2    1    2    0  501  0.36741385170E+03 -0.21911502966E+03  0.37990937954E+02  0.11015762185E+04  0.10144074720E+04 0.  0.
    9000010    2    1    2  502    0 -0.36741385170E+03  0.21911502966E+03 -0.59672415751E+03  0.12434440758E+04  0.10035283329E+04 0.  0.
        -13    1    4    4    0    0 -0.62016432747E+03  0.38791396815E+03 -0.22926921661E+03  0.76658034452E+03  0.10566000000E+00 0.  1.
          4    1    4    4  502    0  0.25275047576E+03 -0.16879893849E+03 -0.36745494089E+03  0.47686373129E+03  0.00000000000E+00 0.  1.
         13    1    3    3    0    0  0.35119283890E+03  0.12796745617E+02 -0.44411944561E+03  0.56634111623E+03  0.10566000000E+00 0. -1.
         -4    1    3    3    0  501  0.16221012805E+02 -0.23191177527E+03  0.48211038357E+03  0.53523510228E+03  0.00000000000E+00 0. -1.
<mgrwt>
<rscale>  0 0.10959015E+04</rscale>
<asrwt>0</asrwt>
<pdfrwt beam="2">  1        4 0.22336565E+00 0.10909049E+04</pdfrwt>
<pdfrwt beam="1">  1       -4 0.13740670E+00 0.11009209E+04</pdfrwt>
<totfact> 0.26806871E-01</totfact>
</mgrwt>
</event>
<event>
 8    1  0.2939692E-006  0.1040685E+04  0.7818608E-02  0.8740982E-01
          4   -1    0    0  502    0  0.00000000000E+00  0.00000000000E+00  0.98595932213E+03  0.98595932213E+03  0.00000000000E+00 0.  1.
         -4   -1    0    0    0  501 -0.00000000000E+00 -0.00000000000E+00 -0.12496701177E+04  0.12496701177E+04  0.00000000000E+00 0. -1.
   -9000010    2    1    2    0  501 -0.14201990444E+02  0.22631474038E+03 -0.53124764400E+03  0.11611061606E+04  0.10072355229E+04 0.  0.
    9000010    2    1    2  502    0  0.14201990444E+02 -0.22631474038E+03  0.26753684840E+03  0.10745232793E+04  0.10156792083E+04 0.  0.
        -13    1    4    4    0    0 -0.20853240699E+03  0.32394581596E+03  0.28725647090E+03  0.48056523769E+03  0.10566000000E+00 0.  1.
          4    1    4    4  502    0  0.22273439744E+03 -0.55026055633E+03 -0.19719622499E+02  0.59395804159E+03  0.00000000000E+00 0.  1.
         13    1    3    3    0    0  0.34653022590E+03  0.47393840452E+03 -0.23338888034E+03  0.63179995994E+03  0.10566000000E+00 0. -1.
         -4    1    3    3    0  501 -0.36073221634E+03 -0.24762366415E+03 -0.29785876366E+03  0.52930620065E+03  0.00000000000E+00 0. -1.
<mgrwt>
<rscale>  0 0.10365568E+04</rscale>
<asrwt>0</asrwt>
<pdfrwt beam="1">  1        4 0.15168605E+00 0.10406845E+04</pdfrwt>
<pdfrwt beam="2">  1       -4 0.19225694E+00 0.10324454E+04</pdfrwt>
<totfact> 0.28060895E-01</totfact>
</mgrwt>
</event>
<event>
 8    1  0.2939692E-006  0.1242561E+04  0.7818608E-02  0.8597624E-01
          4   -1    0    0  502    0  0.00000000000E+00  0.00000000000E+00  0.10566575188E+04  0.10566575188E+04  0.00000000000E+00 0.  1.
         -4   -1    0    0    0  501 -0.00000000000E+00 -0.00000000000E+00 -0.15757468439E+04  0.15757468439E+04  0.00000000000E+00 0. -1.
   -9000010    2    1    2    0  501 -0.51066629030E+03 -0.38612761478E+03 -0.71592547335E+03  0.14340527974E+04  0.10649335882E+04 0.  0.
    9000010    2    1    2  502    0  0.51066629030E+03  0.38612761478E+03  0.19683614821E+03  0.11983515653E+04  0.99369382097E+03 0.  0.
        -13    1    4    4    0    0  0.45964178378E+02  0.63541550141E+03  0.46940966320E+01  0.63709309432E+03  0.10566000000E+00 0.  1.
          4    1    4    4  502    0  0.46470211192E+03 -0.24928788663E+03  0.19214205158E+03  0.56125847097E+03  0.00000000000E+00 0.  1.
         13    1    3    3    0    0 -0.53588696131E+03  0.14506400214E+03 -0.71121166006E+03  0.90224189472E+03  0.10566000000E+00 0. -1.
         -4    1    3    3    0  501  0.25220671012E+02 -0.53119161691E+03 -0.47138132932E+01  0.53181090263E+03  0.00000000000E+00 0. -1.
<mgrwt>
<rscale>  0 0.12119409E+04</rscale>
<asrwt>0</asrwt>
<pdfrwt beam="1">  1        4 0.16256270E+00 0.11820753E+04</pdfrwt>
<pdfrwt beam="2">  1       -4 0.24242259E+00 0.12425611E+04</pdfrwt>
<totfact> 0.18704824E-01</totfact>
</mgrwt>
</event>
<event>
 8    1  0.2939692E-006  0.1094833E+04  0.7818608E-02  0.8715404E-01
         -4   -1    0    0    0  501 -0.00000000000E+00  0.00000000000E+00  0.26913674629E+04  0.26913674629E+04  0.00000000000E+00 0. -1.
          4   -1    0    0  502    0  0.00000000000E+00 -0.00000000000E+00 -0.26901909002E+04  0.26901909002E+04  0.00000000000E+00 0.  1.
   -9000010    2    1    2    0  501  0.42626547437E+03 -0.96324886617E+02  0.24711198211E+04  0.26798404603E+04  0.94028239603E+03 0.  0.
    9000010    2    1    2  502    0 -0.42626547437E+03  0.96324886617E+02 -0.24699432584E+04  0.27017179028E+04  0.10038322509E+04 0.  0.
        -13    1    4    4    0    0 -0.42970051191E+03 -0.36097029385E+03 -0.18373041319E+04  0.19211008738E+04  0.10566000000E+00 0.  1.
          4    1    4    4  502    0  0.34350375360E+01  0.45729518046E+03 -0.63263912645E+03  0.78061702894E+03  0.00000000000E+00 0.  1.
         13    1    3    3    0    0  0.57587280017E+02 -0.48675096004E+03  0.13633262776E+04  0.14487585521E+04  0.10566000000E+00 0. -1.
         -4    1    3    3    0  501  0.36867819435E+03  0.39042607343E+03  0.11077935435E+04  0.12310819083E+04  0.00000000000E+00 0. -1.
<mgrwt>
<rscale>  0 0.10654606E+04</rscale>
<asrwt>0</asrwt>
<pdfrwt beam="2">  1        4 0.41387552E+00 0.10948333E+04</pdfrwt>
<pdfrwt beam="1">  1       -4 0.41405653E+00 0.10368759E+04</pdfrwt>
<totfact> 0.97295871E-03</totfact>
</mgrwt>
</event>
<event>
 8    1  0.2939692E-006  0.1171049E+04  0.7818608E-02  0.8631258E-01
          4   -1    0    0  502    0  0.00000000000E+00  0.00000000000E+00  0.22789823098E+04  0.22789823098E+04  0.00000000000E+00 0.  1.
         -4   -1    0    0    0  501 -0.00000000000E+00 -0.00000000000E+00 -0.77743399072E+03  0.77743399072E+03  0.00000000000E+00 0. -1.
   -9000010    2    1    2    0  501 -0.94034184226E+01  0.59119421824E+03  0.18946761414E+02  0.11712023603E+04  0.10108199449E+04 0.  0.
    9000010    2    1    2  502    0  0.94034184226E+01 -0.59119421824E+03  0.14826015577E+04  0.18852139402E+04  0.10031576115E+04 0.  0.
        -13    1    4    4    0    0 -0.36801990296E+03 -0.50583754457E+03  0.13290506273E+04  0.14689063454E+04  0.10566000000E+00 0.  1.
          4    1    4    4  502    0  0.37742332139E+03 -0.85356673669E+02  0.15355093035E+03  0.41630759479E+03  0.00000000000E+00 0.  1.
         13    1    3    3    0    0  0.31438070551E+03 -0.13813607779E+03  0.12663670898E+03  0.36599681858E+03  0.10566000000E+00 0. -1.
         -4    1    3    3    0  501 -0.32378412393E+03  0.72933029603E+03 -0.10768994757E+03  0.80520554173E+03  0.00000000000E+00 0. -1.
<mgrwt>
<rscale>  0 0.11677407E+04</rscale>
<asrwt>0</asrwt>
<pdfrwt beam="1">  1        4 0.35061266E+00 0.11644416E+04</pdfrwt>
<pdfrwt beam="2">  1       -4 0.11960523E+00 0.11710491E+04</pdfrwt>
<totfact> 0.15417971E-01</totfact>
</mgrwt>
</event>
<event>
 8    1  0.2939692E-006  0.1463650E+04  0.7818608E-02  0.8436534E-01
          4   -1    0    0  502    0  0.00000000000E+00  0.00000000000E+00  0.12324283055E+04  0.12324283055E+04  0.00000000000E+00 0.  1.
         -4   -1    0    0    0  501 -0.00000000000E+00 -0.00000000000E+00 -0.17594204459E+04  0.17594204459E+04  0.00000000000E+00 0. -1.
   -9000010    2    1    2    0  501 -0.10349600954E+04  0.36139240741E+03 -0.50223535336E+03  0.15474212958E+04  0.96980691145E+03 0.  0.
    9000010    2    1    2  502    0  0.10349600954E+04 -0.36139240741E+03 -0.24756787080E+02  0.14444274556E+04  0.94021854096E+03 0.  0.
        -13    1    4    4    0    0  0.38147988341E+03 -0.11977068218E+03  0.44950983157E+03  0.60160702921E+03  0.10566000000E+00 0.  1.
          4    1    4    4  502    0  0.65348021196E+03 -0.24162172524E+03 -0.47426661865E+03  0.84282042636E+03  0.00000000000E+00 0.  1.
         13    1    3    3    0    0 -0.27999369337E+03  0.42540907964E+02  0.29156950665E+03  0.40647138343E+03  0.10566000000E+00 0. -1.
         -4    1    3    3    0  501 -0.75496640200E+03  0.31885149945E+03 -0.79380486000E+03  0.11409499124E+04  0.00000000000E+00 0. -1.
<mgrwt>
<rscale>  0 0.14539003E+04</rscale>
<asrwt>0</asrwt>
<pdfrwt beam="1">  1        4 0.18960435E+00 0.14442153E+04</pdfrwt>
<pdfrwt beam="2">  1       -4 0.27068007E+00 0.14636503E+04</pdfrwt>
<totfact> 0.12808511E-01</totfact>
</mgrwt>
</event>
<event>
 8    1  0.2939692E-006  0.1024374E+04  0.7818608E-02  0.8757264E-01
          4   -1    0    0  502    0  0.00000000000E+00  0.00000000000E+00  0.19451722125E+04  0.19451722125E+04  0.00000000000E+00 0.  1.
         -4   -1    0    0    0  501 -0.00000000000E+00 -0.00000000000E+00 -0.71876051777E+03  0.71876051777E+03  0.00000000000E+00 0. -1.
   -9000010    2    1    2    0  501  0.10292264186E+03 -0.16206316276E+00 -0.60528482455E+02  0.10261605617E+04  0.10191902201E+04 0.  0.
    9000010    2    1    2  502    0 -0.10292264186E+03  0.16206316276E+00  0.12869401772E+04  0.16377721686E+04  0.10077150192E+04 0.  0.
        -13    1    4    4    0    0  0.16762359589E+03 -0.44540676742E+02 -0.11575799348E+03  0.20852209955E+03  0.10566000000E+00 0.  1.
          4    1    4    4  502    0 -0.27054623775E+03  0.44702739904E+02  0.14026981707E+04  0.14292500690E+04  0.00000000000E+00 0.  1.
         13    1    3    3    0    0 -0.32682109830E+03 -0.34211567773E+03  0.43199150959E+01  0.47315308313E+03  0.10566000000E+00 0. -1.
         -4    1    3    3    0  501  0.42974374016E+03  0.34195361457E+03 -0.64848397551E+02  0.55300747861E+03  0.00000000000E+00 0. -1.
<mgrwt>
<rscale>  0 0.10186496E+04</rscale>
<asrwt>0</asrwt>
<pdfrwt beam="1">  1        4 0.29925726E+00 0.10129574E+04</pdfrwt>
<pdfrwt beam="2">  1       -4 0.11057854E+00 0.10243739E+04</pdfrwt>
<totfact> 0.25105092E-01</totfact>
</mgrwt>
</event>
<event>
 8    1  0.2939692E-006  0.1110501E+04  0.7818608E-02  0.8679556E-01
          4   -1    0    0  502    0  0.00000000000E+00  0.00000000000E+00  0.13667771927E+04  0.13667771927E+04  0.00000000000E+00 0.  1.
         -4   -1    0    0    0  501 -0.00000000000E+00 -0.00000000000E+00 -0.22665150511E+04  0.22665150511E+04  0.00000000000E+00 0. -1.
   -9000010    2    1    2    0  501 -0.41530629763E+03  0.18205278201E+03 -0.18612040295E+04  0.21644050554E+04  0.10074454170E+04 0.  0.
    9000010    2    1    2  502    0  0.41530629763E+03 -0.18205278201E+03  0.96146617104E+03  0.14688871883E+04  0.10137010594E+04 0.  0.
        -13    1    4    4    0    0  0.50626426210E+03 -0.50097924420E+03  0.87098644087E+03  0.11251227033E+04  0.10566000000E+00 0.  1.
          4    1    4    4  502    0 -0.90957964469E+02  0.31892646219E+03  0.90479730170E+02  0.34376448502E+03  0.00000000000E+00 0.  1.
         13    1    3    3    0    0  0.24982963051E+03 -0.12763302795E+03 -0.18885068201E+03  0.33818578528E+03  0.10566000000E+00 0. -1.
         -4    1    3    3    0  501 -0.66513592814E+03  0.30968580996E+03 -0.16723533475E+04  0.18262192701E+04  0.00000000000E+00 0. -1.
<mgrwt>
<rscale>  0 0.11076436E+04</rscale>
<asrwt>0</asrwt>
<pdfrwt beam="1">  1        4 0.21027342E+00 0.11105010E+04</pdfrwt>
<pdfrwt beam="2">  1       -4 0.34869462E+00 0.11047936E+04</pdfrwt>
<totfact> 0.69334323E-02</totfact>
</mgrwt>
</event>
<event>
 8    1  0.2939692E-006  0.1319138E+04  0.7818608E-02  0.8523360E-01
          4   -1    0    0  502    0  0.00000000000E+00  0.00000000000E+00  0.26405121698E+04  0.26405121698E+04  0.00000000000E+00 0.  1.
         -4   -1    0    0    0  501 -0.00000000000E+00 -0.00000000000E+00 -0.84090246630E+03  0.84090246630E+03  0.00000000000E+00 0. -1.
   -9000010    2    1    2    0  501 -0.27034676516E+03 -0.80660866731E+03  0.86507392423E+02  0.13219715830E+04  0.10081767810E+04 0.  0.
    9000010    2    1    2  502    0  0.27034676516E+03  0.80660866731E+03  0.17131023111E+04  0.21594430531E+04  0.10023820907E+04 0.  0.
        -13    1    4    4    0    0  0.38646508508E+02  0.25764782148E+03 -0.77896568048E+02  0.27192616463E+03  0.10566000000E+00 0.  1.
          4    1    4    4  502    0  0.23170025665E+03  0.54896084582E+03  0.17909988791E+04  0.18875168884E+04  0.00000000000E+00 0.  1.
         13    1    3    3    0    0 -0.55584470975E+03 -0.78253892634E+03 -0.12205600194E+03  0.96758885451E+03  0.10566000000E+00 0. -1.
         -4    1    3    3    0  501  0.28549794460E+03 -0.24069740968E+02  0.20856339436E+03  0.35438272851E+03  0.00000000000E+00 0. -1.
<mgrwt>
<rscale>  0 0.13169246E+04</rscale>
<asrwt>0</asrwt>
<pdfrwt beam="1">  1        4 0.40623264E+00 0.13147147E+04</pdfrwt>
<pdfrwt beam="2">  1       -4 0.12936961E+00 0.13191381E+04</pdfrwt>
<totfact> 0.82687733E-02</totfact>
</mgrwt>
</event>
<event>
 8    1  0.2939692E-006  0.1145983E+04  0.7818608E-02  0.8666035E-01
         -4   -1    0    0    0  501 -0.00000000000E+00  0.00000000000E+00  0.14463168573E+04  0.14463168573E+04  0.00000000000E+00 0. -1.
          4   -1    0    0  502    0  0.00000000000E+00 -0.00000000000E+00 -0.11828435938E+04  0.11828435938E+04  0.00000000000E+00 0.  1.
   -9000010    2    1    2    0  501  0.38651396500E+03 -0.24918602869E+03  0.80153348261E+03  0.13631483416E+04  0.10021131451E+04 0.  0.
    9000010    2    1    2  502    0 -0.38651396500E+03  0.24918602869E+03 -0.53806021902E+03  0.12660121095E+04  0.10496623933E+04 0.  0.
        -13    1    4    4    0    0 -0.69986818461E+03  0.28810776167E+02 -0.14145147602E+03  0.71460063524E+03  0.10566000000E+00 0.  1.
          4    1    4    4  502    0  0.31335421961E+03  0.22037525252E+03 -0.39660874300E+03  0.55141147422E+03  0.00000000000E+00 0.  1.
         13    1    3    3    0    0 -0.29198837942E+03  0.12205397013E+03  0.14271420692E+03  0.34716241353E+03  0.10566000000E+00 0. -1.
         -4    1    3    3    0  501  0.67850234442E+03 -0.37123999882E+03  0.65881927569E+03  0.10159859281E+04  0.00000000000E+00 0. -1.
<mgrwt>
<rscale>  0 0.11240803E+04</rscale>
<asrwt>0</asrwt>
<pdfrwt beam="2">  1        4 0.18197594E+00 0.11459834E+04</pdfrwt>
<pdfrwt beam="1">  1       -4 0.22251029E+00 0.11025958E+04</pdfrwt>
<totfact> 0.17975212E-01</totfact>
</mgrwt>
</event>
<event>
 8    1  0.2939692E-006  0.1497609E+04  0.7818608E-02  0.8413559E-01
         -4   -1    0    0    0  501 -0.00000000000E+00  0.00000000000E+00  0.72001037848E+03  0.72001037848E+03  0.00000000000E+00 0. -1.
          4   -1    0    0  502    0  0.00000000000E+00 -0.00000000000E+00 -0.42892129734E+04  0.42892129734E+04  0.00000000000E+00 0.  1.
   -9000010    2    1    2    0  501  0.11007234881E+04 -0.14948539329E+03 -0.46744034795E+03  0.15688635949E+04  0.10044373651E+04 0.  0.
    9000010    2    1    2  502    0 -0.11007234881E+04  0.14948539329E+03 -0.31017622470E+04  0.34403597570E+04  0.99055950897E+03 0.  0.
        -13    1    4    4    0    0 -0.53468211948E+03 -0.23993489120E+03 -0.23498178652E+04  0.24217963853E+04  0.10566000000E+00 0.  1.
          4    1    4    4  502    0 -0.56604136863E+03  0.38942028449E+03 -0.75194438178E+03  0.10185633717E+04  0.00000000000E+00 0.  1.
         13    1    3    3    0    0 -0.19173991861E+02 -0.17169864424E+03  0.20053686642E+03  0.26469437538E+03  0.10566000000E+00 0. -1.
         -4    1    3    3    0  501  0.11198974800E+04  0.22213250955E+02 -0.66797721437E+03  0.13041692195E+04  0.00000000000E+00 0. -1.
<mgrwt>
<rscale>  0 0.14929656E+04</rscale>
<asrwt>0</asrwt>
<pdfrwt beam="2">  1        4 0.65987891E+00 0.14883367E+04</pdfrwt>
<pdfrwt beam="1">  1       -4 0.11077083E+00 0.14976089E+04</pdfrwt>
<totfact> 0.58269594E-03</totfact>
</mgrwt>
</event>
<event>
 8    1  0.2939692E-006  0.1683251E+04  0.7818608E-02  0.8317423E-01
         -4   -1    0    0    0  501 -0.00000000000E+00  0.00000000000E+00  0.35822878387E+04  0.35822878387E+04  0.00000000000E+00 0. -1.
          4   -1    0    0  502    0  0.00000000000E+00 -0.00000000000E+00 -0.14547759352E+04  0.14547759352E+04  0.00000000000E+00 0.  1.
   -9000010    2    1    2    0  501  0.13153798357E+04 -0.16877575815E+03  0.27839860001E+04  0.32532925327E+04  0.10366411559E+04 0.  0.
    9000010    2    1    2  502    0 -0.13153798357E+04  0.16877575815E+03 -0.65647409663E+03  0.17837712412E+04  0.99607842703E+03 0.  0.
        -13    1    4    4    0    0 -0.83449112387E+03 -0.16623241740E+03  0.66036315418E+02  0.85344563888E+03  0.10566000000E+00 0.  1.
          4    1    4    4  502    0 -0.48088871179E+03  0.33500817555E+03 -0.72251041205E+03  0.93032560232E+03  0.00000000000E+00 0.  1.
         13    1    3    3    0    0  0.43996959616E+03 -0.39142998434E+03  0.42200841686E+03  0.72448726231E+03  0.10566000000E+00 0. -1.
         -4    1    3    3    0  501  0.87541023950E+03  0.22265422619E+03  0.23619775832E+04  0.25288052704E+04  0.00000000000E+00 0. -1.
<mgrwt>
<rscale>  0 0.16708691E+04</rscale>
<asrwt>0</asrwt>
<pdfrwt beam="2">  1        4 0.22381168E+00 0.16585782E+04</pdfrwt>
<pdfrwt beam="1">  1       -4 0.55112120E+00 0.16832511E+04</pdfrwt>
<totfact> 0.78181016E-03</totfact>
</mgrwt>
</event>
<event>
 8    1  0.2939692E-006  0.1388189E+04  0.7818608E-02  0.8494249E-01
          4   -1    0    0  502    0  0.00000000000E+00  0.00000000000E+00  0.16739828146E+04  0.16739828146E+04  0.00000000000E+00 0.  1.
         -4   -1    0    0    0  501 -0.00000000000E+00 -0.00000000000E+00 -0.32680282697E+04  0.32680282697E+04  0.00000000000E+00 0. -1.
   -9000010    2    1    2    0  501  0.77556686230E+02  0.88179390058E+03 -0.28009129008E+04  0.31025550902E+04  0.99857873363E+03 0.  0.
    9000010    2    1    2  502    0 -0.77556686230E+02 -0.88179390058E+03  0.12068674456E+04  0.18394559941E+04  0.10693426954E+04 0.  0.
        -13    1    4    4    0    0 -0.45143183151E+02 -0.72758862922E+03  0.11707324130E+03  0.73832870414E+03  0.10566000000E+00 0.  1.
          4    1    4    4  502    0 -0.32413503079E+02 -0.15420527135E+03  0.10897942043E+04  0.11011272899E+04  0.00000000000E+00 0.  1.
         13    1    3    3    0    0  0.15543203496E+03  0.61082860866E+03 -0.55743051807E+03  0.84142706178E+03  0.10566000000E+00 0. -1.
         -4    1    3    3    0  501 -0.77875348733E+02  0.27096529191E+03 -0.22434823827E+04  0.22611280284E+04  0.00000000000E+00 0. -1.
<mgrwt>
<rscale>  0 0.13610502E+04</rscale>
<asrwt>0</asrwt>
<pdfrwt beam="1">  1        4 0.25753582E+00 0.13881892E+04</pdfrwt>
<pdfrwt beam="2">  1       -4 0.50277358E+00 0.13344418E+04</pdfrwt>
<totfact> 0.11399064E-02</totfact>
</mgrwt>
</event>
<event>
 8    1  0.2939692E-006  0.1076643E+04  0.7818608E-02  0.8706733E-01
          4   -1    0    0  502    0  0.00000000000E+00  0.00000000000E+00  0.10792824039E+04  0.10792824039E+04  0.00000000000E+00 0.  1.
         -4   -1    0    0    0  501 -0.00000000000E+00 -0.00000000000E+00 -0.11203376743E+04  0.11203376743E+04  0.00000000000E+00 0. -1.
   -9000010    2    1    2    0  501  0.12902028747E+03  0.36793073825E+03 -0.24971418267E+03  0.11052226037E+04  0.10035639332E+04 0.  0.
    9000010    2    1    2  502    0 -0.12902028747E+03 -0.36793073825E+03  0.20865891224E+03  0.10943974745E+04  0.10010734378E+04 0.  0.
        -13    1    4    4    0    0 -0.32564458758E+03  0.90358464557E+02  0.43158034865E+03  0.54815203917E+03  0.10566000000E+00 0.  1.
          4    1    4    4  502    0  0.19662430012E+03 -0.45828920281E+03 -0.22292143641E+03  0.54624543533E+03  0.00000000000E+00 0.  1.
         13    1    3    3    0    0  0.15707956435E+03 -0.31329994466E+03 -0.23739107937E+03  0.42330294186E+03  0.10566000000E+00 0. -1.
         -4    1    3    3    0  501 -0.28059276881E+02  0.68123068291E+03 -0.12323103295E+02  0.68191966186E+03  0.00000000000E+00 0. -1.
<mgrwt>
<rscale>  0 0.10754817E+04</rscale>
<asrwt>0</asrwt>
<pdfrwt beam="1">  1        4 0.16604345E+00 0.10743218E+04</pdfrwt>
<pdfrwt beam="2">  1       -4 0.17235964E+00 0.10766429E+04</pdfrwt>
<totfact> 0.28617360E-01</totfact>
</mgrwt>
</event>
<event>
 8    1  0.2939692E-006  0.1488640E+04  0.7818608E-02  0.8417578E-01
         -4   -1    0    0    0  501 -0.00000000000E+00  0.00000000000E+00  0.27639009454E+04  0.27639009454E+04  0.00000000000E+00 0. -1.
          4   -1    0    0  502    0  0.00000000000E+00 -0.00000000000E+00 -0.87478681690E+03  0.87478681690E+03  0.00000000000E+00 0.  1.
   -9000010    2    1    2    0  501  0.58010227660E+03  0.91556302389E+03  0.14816060252E+04  0.21002866903E+04  0.10204280795E+04 0.  0.
    9000010    2    1    2  502    0 -0.58010227660E+03 -0.91556302389E+03  0.40750810329E+03  0.15384010720E+04  0.10128379446E+04 0.  0.
        -13    1    4    4    0    0 -0.71824784483E+03 -0.18946357580E+03  0.23891469909E+03  0.78029267443E+03  0.10566000000E+00 0.  1.
          4    1    4    4  502    0  0.13814556823E+03 -0.72609944809E+03  0.16859340420E+03  0.75810839758E+03  0.00000000000E+00 0.  1.
         13    1    3    3    0    0  0.52979629898E+03  0.70783539610E+03  0.35363719729E+03  0.95224699782E+03  0.10566000000E+00 0. -1.
         -4    1    3    3    0  501  0.50305977617E+02  0.20772762780E+03  0.11279688279E+04  0.11480396924E+04  0.00000000000E+00 0. -1.
<mgrwt>
<rscale>  0 0.14860410E+04</rscale>
<asrwt>0</asrwt>
<pdfrwt beam="2">  1        4 0.13458259E+00 0.14834470E+04</pdfrwt>
<pdfrwt beam="1">  1       -4 0.42521553E+00 0.14886396E+04</pdfrwt>
<totfact> 0.63866831E-02</totfact>
</mgrwt>
</event>
<event>
 8    1  0.2939692E-006  0.1389630E+04  0.7818608E-02  0.8479650E-01
         -4   -1    0    0    0  501 -0.00000000000E+00  0.00000000000E+00  0.22848421035E+04  0.22848421035E+04  0.00000000000E+00 0. -1.
          4   -1    0    0  502    0  0.00000000000E+00 -0.00000000000E+00 -0.20138211860E+04  0.20138211860E+04  0.00000000000E+00 0.  1.
   -9000010    2    1    2    0  501  0.91980298620E+03 -0.18068450527E+03  0.17779696220E+04  0.22566006915E+04  0.10258588013E+04 0.  0.
    9000010    2    1    2  502    0 -0.91980298620E+03  0.18068450527E+03 -0.15069487046E+04  0.20420625980E+04  0.10101687145E+04 0.  0.
        -13    1    4    4    0    0 -0.13939954769E+03  0.33968718201E+03 -0.35487152664E+02  0.36888882429E+03  0.10566000000E+00 0.  1.
          4    1    4    4  502    0 -0.78040343851E+03 -0.15900267674E+03 -0.14714615520E+04  0.16731737737E+04  0.00000000000E+00 0.  1.
         13    1    3    3    0    0  0.89401101385E+03 -0.20058902315E+03  0.63874309953E+03  0.11169084150E+04  0.10566000000E+00 0. -1.
         -4    1    3    3    0  501  0.25791972350E+02  0.19904517881E+02  0.11392265225E+04  0.11396922766E+04  0.00000000000E+00 0. -1.
<mgrwt>
<rscale>  0 0.13838466E+04</rscale>
<asrwt>0</asrwt>
<pdfrwt beam="2">  1        4 0.30981865E+00 0.13780875E+04</pdfrwt>
<pdfrwt beam="1">  1       -4 0.35151417E+00 0.13896297E+04</pdfrwt>
<totfact> 0.36899523E-02</totfact>
</mgrwt>
</event>
<event>
 8    1  0.2939692E-006  0.1153157E+04  0.7818608E-02  0.8645800E-01
          4   -1    0    0  502    0  0.00000000000E+00  0.00000000000E+00  0.79504369012E+03  0.79504369012E+03  0.00000000000E+00 0.  1.
         -4   -1    0    0    0  501 -0.00000000000E+00 -0.00000000000E+00 -0.26787035601E+04  0.26787035601E+04  0.00000000000E+00 0. -1.
   -9000010    2    1    2    0  501  0.55868852974E+03  0.21690381729E+02 -0.20102814235E+04  0.23136589173E+04  0.99959133550E+03 0.  0.
    9000010    2    1    2  502    0 -0.55868852974E+03 -0.21690381729E+02  0.12662155359E+03  0.11600883329E+04  0.10085477561E+04 0.  0.
        -13    1    4    4    0    0 -0.54057260237E+03  0.16332894652E+03  0.49275095460E+03  0.74946554132E+03  0.10566000000E+00 0.  1.
          4    1    4    4  502    0 -0.18115927372E+02 -0.18501932825E+03 -0.36612940101E+03  0.41062279154E+03  0.00000000000E+00 0.  1.
         13    1    3    3    0    0 -0.15365068592E+03 -0.11000554793E+03 -0.12474010345E+04  0.12616335070E+04  0.10566000000E+00 0. -1.
         -4    1    3    3    0  501  0.71233921566E+03  0.13169592966E+03 -0.76288038899E+03  0.10520254103E+04  0.00000000000E+00 0. -1.
<mgrwt>
<rscale>  0 0.11492382E+04</rscale>
<asrwt>0</asrwt>
<pdfrwt beam="1">  1        4 0.12231441E+00 0.11531574E+04</pdfrwt>
<pdfrwt beam="2">  1       -4 0.41210824E+00 0.11453323E+04</pdfrwt>
<totfact> 0.86967711E-02</totfact>
</mgrwt>
</event>
<event>
 8    1  0.2939692E-006  0.1223068E+04  0.7818608E-02  0.8591419E-01
          4   -1    0    0  502    0  0.00000000000E+00  0.00000000000E+00  0.10746308024E+04  0.10746308024E+04  0.00000000000E+00 0.  1.
         -4   -1    0    0    0  501 -0.00000000000E+00 -0.00000000000E+00 -0.14644946966E+04  0.14644946966E+04  0.00000000000E+00 0. -1.
   -9000010    2    1    2    0  501  0.19491468550E+03 -0.66427308322E+03 -0.48972126886E+03  0.13174684231E+04  0.10082884811E+04 0.  0.
    9000010    2    1    2  502    0 -0.19491468550E+03  0.66427308322E+03  0.99857374604E+02  0.12216570759E+04  0.10016107288E+04 0.  0.
        -13    1    4    4    0    0 -0.41140158211E+03  0.34689942229E+03 -0.34085537554E+03  0.63700303700E+03  0.10566000000E+00 0.  1.
          4    1    4    4  502    0  0.21648689661E+03  0.31737366093E+03  0.44071275015E+03  0.58465403889E+03  0.00000000000E+00 0.  1.
         13    1    3    3    0    0  0.31191116285E+03 -0.20401200787E+02  0.19651369195E+03  0.36921866799E+03  0.10566000000E+00 0. -1.
         -4    1    3    3    0  501 -0.11699647736E+03 -0.64387188243E+03 -0.68623496081E+03  0.94824975515E+03  0.00000000000E+00 0. -1.
<mgrwt>
<rscale>  0 0.12203156E+04</rscale>
<asrwt>0</asrwt>
<pdfrwt beam="1">  1        4 0.16532782E+00 0.12175691E+04</pdfrwt>
<pdfrwt beam="2">  1       -4 0.22530688E+00 0.12230683E+04</pdfrwt>
<totfact> 0.20125727E-01</totfact>
</mgrwt>
</event>
<event>
 8    1  0.2939692E-006  0.1133025E+04  0.7818608E-02  0.8662795E-01
         -4   -1    0    0    0  501 -0.00000000000E+00  0.00000000000E+00  0.25011275583E+04  0.25011275583E+04  0.00000000000E+00 0. -1.
          4   -1    0    0  502    0  0.00000000000E+00 -0.00000000000E+00 -0.53094108466E+03  0.53094108466E+03  0.00000000000E+00 0.  1.
   -9000010    2    1    2    0  501  0.19163494947E+03 -0.48952689339E+03  0.12906028255E+04  0.17108647507E+04  0.99249282557E+03 0.  0.
    9000010    2    1    2  502    0 -0.19163494947E+03  0.48952689339E+03  0.67958364814E+03  0.13212038923E+04  0.10036858358E+04 0.  0.
        -13    1    4    4    0    0 -0.10366184144E+03  0.79458886071E+03  0.57737786501E+03  0.98766514826E+03  0.10566000000E+00 0.  1.
          4    1    4    4  502    0 -0.87973108023E+02 -0.30506196732E+03  0.10220578314E+03  0.33353874400E+03  0.00000000000E+00 0.  1.
         13    1    3    3    0    0 -0.22462772013E+02  0.30095377863E+03  0.29948247754E+03  0.42516763578E+03  0.10566000000E+00 0. -1.
         -4    1    3    3    0  501  0.21409772148E+03 -0.79048067202E+03  0.99112034801E+03  0.12856971150E+04  0.00000000000E+00 0. -1.
<mgrwt>
<rscale>  0 0.11280626E+04</rscale>
<asrwt>0</asrwt>
<pdfrwt beam="2">  1        4 0.81683245E-01 0.11330251E+04</pdfrwt>
<pdfrwt beam="1">  1       -4 0.38478885E+00 0.11231218E+04</pdfrwt>
<totfact> 0.23992134E-01</totfact>
</mgrwt>
</event>
<event>
 8    1  0.2939692E-006  0.1124704E+04  0.7818608E-02  0.8747119E-01
         -4   -1    0    0    0  501 -0.00000000000E+00  0.00000000000E+00  0.20667422567E+04  0.20667422567E+04  0.00000000000E+00 0. -1.
          4   -1    0    0  502    0  0.00000000000E+00 -0.00000000000E+00 -0.53806277913E+03  0.53806277913E+03  0.00000000000E+00 0.  1.
   -9000010    2    1    2    0  501  0.34911168543E+03 -0.42154131046E+03  0.10851631910E+04  0.15628623439E+04  0.98253931710E+03 0.  0.
    9000010    2    1    2  502    0 -0.34911168543E+03  0.42154131046E+03  0.44351628659E+03  0.10419426919E+04  0.76769905004E+03 0.  0.
        -13    1    4    4    0    0  0.15873095616E+03  0.23652689183E+03  0.41153680428E+03  0.50050278665E+03  0.10566000000E+00 0.  1.
          4    1    4    4  502    0 -0.50784264159E+03  0.18501441864E+03  0.31979482306E+02  0.54143990526E+03  0.00000000000E+00 0.  1.
         13    1    3    3    0    0  0.85659699620E+02 -0.39303979874E+03  0.12062217728E+04  0.12715301191E+04  0.10566000000E+00 0. -1.
         -4    1    3    3    0  501  0.26345198581E+03 -0.28501511719E+02 -0.12105858177E+03  0.29133222482E+03  0.00000000000E+00 0. -1.
<mgrwt>
<rscale>  0 0.10297624E+04</rscale>
<asrwt>0</asrwt>
<pdfrwt beam="2">  1        4 0.82778891E-01 0.94283502E+03</pdfrwt>
<pdfrwt beam="1">  1       -4 0.31796034E+00 0.11247042E+04</pdfrwt>
<totfact> 0.38812940E-01</totfact>
</mgrwt>
</event>
<event>
 8    1  0.2939692E-006  0.1129575E+04  0.7818608E-02  0.8664038E-01
          4   -1    0    0  502    0  0.00000000000E+00  0.00000000000E+00  0.14687178780E+04  0.14687178780E+04  0.00000000000E+00 0.  1.
         -4   -1    0    0    0  501 -0.00000000000E+00 -0.00000000000E+00 -0.13057666879E+04  0.13057666879E+04  0.00000000000E+00 0. -1.
   -9000010    2    1    2    0  501 -0.40009459396E+03  0.32796915921E+03 -0.72549026767E+03  0.13373805237E+04  0.99730190172E+03 0.  0.
    9000010    2    1    2  502    0  0.40009459396E+03 -0.32796915921E+03  0.88844145773E+03  0.14371040422E+04  0.10041415990E+04 0.  0.
        -13    1    4    4    0    0 -0.63130212130E+02 -0.10168762913E+03  0.91316194688E+03  0.92097261088E+03  0.10566000000E+00 0.  1.
          4    1    4    4  502    0  0.46322480609E+03 -0.22628153008E+03 -0.24720489148E+02  0.51613143134E+03  0.00000000000E+00 0.  1.
         13    1    3    3    0    0  0.17633378144E+03  0.48072700750E+03 -0.22684952932E+03  0.56004712153E+03  0.10566000000E+00 0. -1.
         -4    1    3    3    0  501 -0.57642837541E+03 -0.15275784829E+03 -0.49864073835E+03  0.77733340217E+03  0.00000000000E+00 0. -1.
<mgrwt>
<rscale>  0 0.11265331E+04</rscale>
<asrwt>0</asrwt>
<pdfrwt beam="1">  1        4 0.22595660E+00 0.11295751E+04</pdfrwt>
<pdfrwt beam="2">  1       -4 0.20088718E+00 0.11234992E+04</pdfrwt>
<totfact> 0.15445425E-01</totfact>
</mgrwt>
</event>
<event>
 8    1  0.2939692E-006  0.1185707E+04  0.7818608E-02  0.8669753E-01
         -4   -1    0    0    0  501 -0.00000000000E+00  0.00000000000E+00  0.12036649407E+04  0.12036649407E+04  0.00000000000E+00 0. -1.
          4   -1    0    0  502    0  0.00000000000E+00 -0.00000000000E+00 -0.11859506422E+04  0.11859506422E+04  0.00000000000E+00 0.  1.
   -9000010    2    1    2    0  501  0.41708050823E+03 -0.78384162774E+02  0.42102875637E+03  0.12582389591E+04  0.11071584518E+04 0.  0.
    9000010    2    1    2  502    0 -0.41708050823E+03  0.78384162774E+02 -0.40331445795E+03  0.11313766238E+04  0.96811687596E+03 0.  0.
        -13    1    4    4    0    0 -0.68364231884E+02  0.10579628201E+03  0.31126007979E+03  0.33578172959E+03  0.10566000000E+00 0.  1.
          4    1    4    4  502    0 -0.34871627634E+03 -0.27412119235E+02 -0.71457453774E+03  0.79559489419E+03  0.00000000000E+00 0.  1.
         13    1    3    3    0    0  0.36898410133E+03  0.26179986137E+02  0.78968686332E+03  0.87203211636E+03  0.10566000000E+00 0. -1.
         -4    1    3    3    0  501  0.48096406897E+02 -0.10456414891E+03 -0.36865810694E+03  0.38620684278E+03  0.00000000000E+00 0. -1.
<mgrwt>
<rscale>  0 0.11195306E+04</rscale>
<asrwt>0</asrwt>
<pdfrwt beam="2">  1        4 0.18245394E+00 0.10570480E+04</pdfrwt>
<pdfrwt beam="1">  1       -4 0.18517922E+00 0.11857066E+04</pdfrwt>
<totfact> 0.22705899E-01</totfact>
</mgrwt>
</event>
<event>
 8    1  0.2939692E-006  0.1184258E+04  0.7818608E-02  0.8647102E-01
         -4   -1    0    0    0  501 -0.00000000000E+00  0.00000000000E+00  0.87516658705E+03  0.87516658705E+03  0.00000000000E+00 0. -1.
          4   -1    0    0  502    0  0.00000000000E+00 -0.00000000000E+00 -0.21001303091E+04  0.21001303091E+04  0.00000000000E+00 0.  1.
   -9000010    2    1    2    0  501 -0.40345724283E+03  0.58768295849E+03  0.19208745406E+03  0.11285425884E+04  0.85355830339E+03 0.  0.
    9000010    2    1    2  502    0  0.40345724283E+03 -0.58768295849E+03 -0.14170511761E+04  0.18467543077E+04  0.94568410741E+03 0.  0.
        -13    1    4    4    0    0 -0.89376602354E+01  0.17749614775E+03 -0.69311556584E+03  0.71553753431E+03  0.10566000000E+00 0.  1.
          4    1    4    4  502    0  0.41239490306E+03 -0.76517910624E+03 -0.72393561024E+03  0.11312167734E+04  0.00000000000E+00 0.  1.
         13    1    3    3    0    0 -0.49555118633E+02  0.57201253748E+03 -0.19259494344E+03  0.60559629806E+03  0.10566000000E+00 0. -1.
         -4    1    3    3    0  501 -0.35390212419E+03  0.15670421010E+02  0.38468239751E+03  0.52294629032E+03  0.00000000000E+00 0. -1.
<mgrwt>
<rscale>  0 0.11475992E+04</rscale>
<asrwt>0</asrwt>
<pdfrwt beam="2">  1        4 0.32309697E+00 0.11842582E+04</pdfrwt>
<pdfrwt beam="1">  1       -4 0.13464102E+00 0.11120750E+04</pdfrwt>
<totfact> 0.15374269E-01</totfact>
</mgrwt>
</event>
<event>
 8    1  0.2939692E-006  0.1511915E+04  0.7818608E-02  0.8410448E-01
         -4   -1    0    0    0  501 -0.00000000000E+00  0.00000000000E+00  0.20675292102E+04  0.20675292102E+04  0.00000000000E+00 0. -1.
          4   -1    0    0  502    0  0.00000000000E+00 -0.00000000000E+00 -0.18293919718E+04  0.18293919718E+04  0.00000000000E+00 0.  1.
   -9000010    2    1    2    0  501 -0.16203921903E+03 -0.10837208373E+04  0.13605127627E+04  0.20139410102E+04  0.10021256675E+04 0.  0.
    9000010    2    1    2  502    0  0.16203921903E+03  0.10837208373E+04 -0.11223755243E+04  0.18829801718E+04  0.10417197072E+04 0.  0.
        -13    1    4    4    0    0  0.34655933990E+02 -0.19486740732E+03 -0.29319071245E+03  0.35374446318E+03  0.10566000000E+00 0.  1.
          4    1    4    4  502    0  0.12738328504E+03  0.12785882446E+04 -0.82918481180E+03  0.15292357087E+04  0.00000000000E+00 0.  1.
         13    1    3    3    0    0 -0.29598893359E+02 -0.21597074706E+03  0.10659889389E+04  0.10880495794E+04  0.10566000000E+00 0. -1.
         -4    1    3    3    0  501 -0.13244032567E+03 -0.86775009022E+03  0.29452382373E+03  0.92589143083E+03  0.00000000000E+00 0. -1.
<mgrwt>
<rscale>  0 0.14983527E+04</rscale>
<asrwt>0</asrwt>
<pdfrwt beam="2">  1        4 0.28144492E+00 0.15119152E+04</pdfrwt>
<pdfrwt beam="1">  1       -4 0.31808142E+00 0.14849119E+04</pdfrwt>
<totfact> 0.55191244E-02</totfact>
</mgrwt>
</event>
<event>
 8    1  0.2939692E-006  0.1469119E+04  0.7818608E-02  0.8449039E-01
         -4   -1    0    0    0  501 -0.00000000000E+00  0.00000000000E+00  0.21468007843E+04  0.21468007843E+04  0.00000000000E+00 0. -1.
          4   -1    0    0  502    0  0.00000000000E+00 -0.00000000000E+00 -0.11689004373E+04  0.11689004373E+04  0.00000000000E+00 0.  1.
   -9000010    2    1    2    0  501  0.67065827258E+02  0.98662197920E+03  0.12040132275E+04  0.18994624829E+04  0.10864571400E+04 0.  0.
    9000010    2    1    2  502    0 -0.67065827258E+02 -0.98662197920E+03 -0.22611288043E+03  0.14162387387E+04  0.98827343149E+03 0.  0.
        -13    1    4    4    0    0 -0.28601760906E+03 -0.63700751767E+03 -0.55233963163E+03  0.89031664597E+03  0.10566000000E+00 0.  1.
          4    1    4    4  502    0  0.21895178180E+03 -0.34961446153E+03  0.32622675120E+03  0.52592209277E+03  0.00000000000E+00 0.  1.
         13    1    3    3    0    0 -0.18946836337E+02  0.34975869082E+03  0.12070135060E+04  0.12568101445E+04  0.10566000000E+00 0. -1.
         -4    1    3    3    0  501  0.86012663595E+02  0.63686328838E+03 -0.30002785646E+01  0.64265233840E+03  0.00000000000E+00 0. -1.
<mgrwt>
<rscale>  0 0.14331551E+04</rscale>
<asrwt>0</asrwt>
<pdfrwt beam="2">  1        4 0.17983084E+00 0.13980719E+04</pdfrwt>
<pdfrwt beam="1">  1       -4 0.33027704E+00 0.14691187E+04</pdfrwt>
<totfact> 0.94485692E-02</totfact>
</mgrwt>
</event>
<event>
 8    1  0.2939692E-006  0.1087176E+04  0.7818608E-02  0.8707946E-01
         -4   -1    0    0    0  501 -0.00000000000E+00  0.00000000000E+00  0.27150471043E+04  0.27150471043E+04  0.00000000000E+00 0. -1.
          4   -1    0    0  502    0  0.00000000000E+00 -0.00000000000E+00 -0.53283538779E+03  0.53283538779E+03  0.00000000000E+00 0.  1.
   -9000010    2    1    2    0  501  0.35643983847E+03 -0.95054829619E+02  0.18322888960E+04  0.21305481017E+04  0.10226767995E+04 0.  0.
    9000010    2    1    2  502    0 -0.35643983847E+03  0.95054829619E+02  0.34992282053E+03  0.11173343904E+04  0.99493988790E+03 0.  0.
        -13    1    4    4    0    0 -0.34755139779E+03  0.62564675022E+02 -0.30192746896E+03  0.46461437810E+03  0.10566000000E+00 0.  1.
          4    1    4    4  502    0 -0.88884406797E+01  0.32490154597E+02  0.65185028949E+03  0.65272001228E+03  0.00000000000E+00 0.  1.
         13    1    3    3    0    0 -0.29520766481E+03 -0.24413732311E+03  0.94445627453E+03  0.10191900037E+04  0.10566000000E+00 0. -1.
         -4    1    3    3    0  501  0.65164750327E+03  0.14908249349E+03  0.88783262142E+03  0.11113580980E+04  0.00000000000E+00 0. -1.
<mgrwt>
<rscale>  0 0.10740727E+04</rscale>
<asrwt>0</asrwt>
<pdfrwt beam="2">  1        4 0.81974676E-01 0.10611268E+04</pdfrwt>
<pdfrwt beam="1">  1       -4 0.41769955E+00 0.10871764E+04</pdfrwt>
<totfact> 0.17648633E-01</totfact>
</mgrwt>
</event>
<event>
 8    1  0.2939692E-006  0.1275378E+04  0.7818608E-02  0.8583693E-01
         -4   -1    0    0    0  501 -0.00000000000E+00  0.00000000000E+00  0.70205786305E+03  0.70205786305E+03  0.00000000000E+00 0. -1.
          4   -1    0    0  502    0  0.00000000000E+00 -0.00000000000E+00 -0.29598604328E+04  0.29598604328E+04  0.00000000000E+00 0.  1.
   -9000010    2    1    2    0  501  0.33187724627E+03 -0.52905650100E+03 -0.14862621769E+03  0.11971235104E+04  0.10104314221E+04 0.  0.
    9000010    2    1    2  502    0 -0.33187724627E+03  0.52905650100E+03 -0.21091763520E+04  0.24647947854E+04  0.11120005226E+04 0.  0.
        -13    1    4    4    0    0 -0.19002180015E+02 -0.75674406856E+02 -0.16308072005E+04  0.16326726050E+04  0.10566000000E+00 0.  1.
          4    1    4    4  502    0 -0.31287506625E+03  0.60473090786E+03 -0.47836915154E+03  0.83212218042E+03  0.00000000000E+00 0.  1.
         13    1    3    3    0    0  0.60305800599E+03 -0.21460473958E+03  0.18296112648E+03  0.66573939181E+03  0.10566000000E+00 0. -1.
         -4    1    3    3    0  501 -0.27118075972E+03 -0.31445176142E+03 -0.33158734417E+03  0.53138411862E+03  0.00000000000E+00 0. -1.
<mgrwt>
<rscale>  0 0.12308420E+04</rscale>
<asrwt>0</asrwt>
<pdfrwt beam="2">  1        4 0.45536316E+00 0.12753778E+04</pdfrwt>
<pdfrwt beam="1">  1       -4 0.10800890E+00 0.11878615E+04</pdfrwt>
<totfact> 0.68642891E-02</totfact>
</mgrwt>
</event>
<event>
 8    1  0.2939692E-006  0.2163062E+04  0.7818608E-02  0.8106205E-01
          4   -1    0    0  502    0  0.00000000000E+00  0.00000000000E+00  0.22547496929E+04  0.22547496929E+04  0.00000000000E+00 0.  1.
         -4   -1    0    0    0  501 -0.00000000000E+00 -0.00000000000E+00 -0.22114079723E+04  0.22114079723E+04  0.00000000000E+00 0. -1.
   -9000010    2    1    2    0  501 -0.34524931707E+03 -0.18827695327E+04 -0.54474200760E+03  0.22245779706E+04  0.99397439009E+03 0.  0.
    9000010    2    1    2  502    0  0.34524931707E+03  0.18827695327E+04  0.58808372818E+03  0.22415796946E+04  0.10073821776E+04 0.  0.
        -13    1    4    4    0    0  0.38723653064E+03  0.19728233927E+04  0.66318861487E+03  0.21170270238E+04  0.10566000000E+00 0.  1.
          4    1    4    4  502    0 -0.41987213572E+02 -0.90053860005E+02 -0.75104886691E+02  0.12455267083E+03  0.00000000000E+00 0.  1.
         13    1    3    3    0    0 -0.54214380749E+03 -0.18218490133E+04 -0.33422068887E+03  0.19299630088E+04  0.10566000000E+00 0. -1.
         -4    1    3    3    0  501  0.19689449043E+03 -0.60920519333E+02 -0.21052131873E+03  0.29461496173E+03  0.00000000000E+00 0. -1.
<mgrwt>
<rscale>  0 0.21599539E+04</rscale>
<asrwt>0</asrwt>
<pdfrwt beam="1">  1        4 0.34688457E+00 0.21630620E+04</pdfrwt>
<pdfrwt beam="2">  1       -4 0.34021661E+00 0.21568503E+04</pdfrwt>
<totfact> 0.29123187E-02</totfact>
</mgrwt>
</event>
<event>
 8    1  0.2939692E-006  0.1019350E+04  0.7818608E-02  0.8759727E-01
          4   -1    0    0  502    0  0.00000000000E+00  0.00000000000E+00  0.14193223588E+04  0.14193223588E+04  0.00000000000E+00 0.  1.
         -4   -1    0    0    0  501 -0.00000000000E+00 -0.00000000000E+00 -0.49641534626E+04  0.49641534626E+04  0.00000000000E+00 0. -1.
   -9000010    2    1    2    0  501  0.85220773944E+02  0.16744443649E+03 -0.47219608418E+04  0.48307337307E+04  0.10018852061E+04 0.  0.
    9000010    2    1    2  502    0 -0.85220773944E+02 -0.16744443649E+03  0.11771297379E+04  0.15527420907E+04  0.99502430152E+03 0.  0.
        -13    1    4    4    0    0 -0.29005947158E+03 -0.52062967731E+03  0.79448384880E+03  0.99317387960E+03  0.10566000000E+00 0.  1.
          4    1    4    4  502    0  0.20483869763E+03  0.35318524082E+03  0.38264588913E+03  0.55956821108E+03  0.00000000000E+00 0.  1.
         13    1    3    3    0    0  0.11448327462E+03 -0.32672396692E+02 -0.45848442141E+04  0.45863896896E+04  0.10566000000E+00 0. -1.
         -4    1    3    3    0  501 -0.29262500672E+02  0.20011683318E+03 -0.13711662769E+03  0.24434404117E+03  0.00000000000E+00 0. -1.
<mgrwt>
<rscale>  0 0.10159730E+04</rscale>
<asrwt>0</asrwt>
<pdfrwt beam="1">  1        4 0.21835728E+00 0.10126073E+04</pdfrwt>
<pdfrwt beam="2">  1       -4 0.76371594E+00 0.10193499E+04</pdfrwt>
<totfact> 0.61673702E-04</totfact>
</mgrwt>
</event>
<event>
 8    1  0.2939692E-006  0.2126682E+04  0.7818608E-02  0.8122331E-01
         -4   -1    0    0    0  501 -0.00000000000E+00  0.00000000000E+00  0.36342142488E+04  0.36342142488E+04  0.00000000000E+00 0. -1.
          4   -1    0    0  502    0  0.00000000000E+00 -0.00000000000E+00 -0.15344305914E+04  0.15344305914E+04  0.00000000000E+00 0.  1.
   -9000010    2    1    2    0  501  0.16924798602E+04 -0.81782127362E+03  0.21986156685E+04  0.30588704144E+04  0.99471485461E+03 0.  0.
    9000010    2    1    2  502    0 -0.16924798602E+04  0.81782127362E+03 -0.98832011064E+02  0.21097744258E+04  0.95292216302E+03 0.  0.
        -13    1    4    4    0    0  0.32163640925E+02  0.30608793826E+03 -0.33980191169E+02  0.30964332756E+03  0.10566000000E+00 0.  1.
          4    1    4    4  502    0 -0.17246435011E+04  0.51173333535E+03 -0.64851819895E+02  0.18001310983E+04  0.00000000000E+00 0.  1.
         13    1    3    3    0    0  0.89540540362E+03 -0.92393435233E+02  0.15739225949E+04  0.18131518771E+04  0.10566000000E+00 0. -1.
         -4    1    3    3    0  501  0.79707445655E+03 -0.72542783838E+03  0.62469307359E+03  0.12457185373E+04  0.00000000000E+00 0. -1.
<mgrwt>
<rscale>  0 0.21170484E+04</rscale>
<asrwt>0</asrwt>
<pdfrwt beam="2">  1        4 0.23606625E+00 0.21074583E+04</pdfrwt>
<pdfrwt beam="1">  1       -4 0.55910988E+00 0.21266822E+04</pdfrwt>
<totfact> 0.63122033E-03</totfact>
</mgrwt>
</event>
<event>
 8    1  0.2939692E-006  0.1174042E+04  0.7818608E-02  0.8632987E-01
          4   -1    0    0  502    0  0.00000000000E+00  0.00000000000E+00  0.14756740769E+04  0.14756740769E+04  0.00000000000E+00 0.  1.
         -4   -1    0    0    0  501 -0.00000000000E+00 -0.00000000000E+00 -0.11437447989E+04  0.11437447989E+04  0.00000000000E+00 0. -1.
   -9000010    2    1    2    0  501 -0.13402483509E+03 -0.58925713163E+03 -0.41154365344E+03  0.12440834558E+04  0.10065728204E+04 0.  0.
    9000010    2    1    2  502    0  0.13402483509E+03  0.58925713163E+03  0.74347293141E+03  0.13753354200E+04  0.98671621762E+03 0.  0.
        -13    1    4    4    0    0 -0.38135638347E+03  0.10398513637E+03  0.76263980976E+02  0.40256900744E+03  0.10566000000E+00 0.  1.
          4    1    4    4  502    0  0.51538121856E+03  0.48527199526E+03  0.66720895043E+03  0.97276641254E+03  0.00000000000E+00 0.  1.
         13    1    3    3    0    0 -0.26880675136E+03 -0.51218288136E+03 -0.70509427858E+03  0.91200127543E+03  0.10566000000E+00 0. -1.
         -4    1    3    3    0  501  0.13478191626E+03 -0.77074250269E+02  0.29355062514E+03  0.33208218038E+03  0.00000000000E+00 0. -1.
<mgrwt>
<rscale>  0 0.11655219E+04</rscale>
<asrwt>0</asrwt>
<pdfrwt beam="1">  1        4 0.22702678E+00 0.11570633E+04</pdfrwt>
<pdfrwt beam="2">  1       -4 0.17596074E+00 0.11740424E+04</pdfrwt>
<totfact> 0.18310138E-01</totfact>
</mgrwt>
</event>
<event>
 8    1  0.2939692E-006  0.1430241E+04  0.7818608E-02  0.8458766E-01
          4   -1    0    0  502    0  0.00000000000E+00  0.00000000000E+00  0.12765674435E+04  0.12765674435E+04  0.00000000000E+00 0.  1.
         -4   -1    0    0    0  501 -0.00000000000E+00 -0.00000000000E+00 -0.21154332941E+04  0.21154332941E+04  0.00000000000E+00 0. -1.
   -9000010    2    1    2    0  501 -0.10018834576E+04  0.11728903146E+03 -0.12805946829E+04  0.19197689568E+04  0.10139343796E+04 0.  0.
    9000010    2    1    2  502    0  0.10018834576E+04 -0.11728903146E+03  0.44172883223E+03  0.14722317808E+04  0.97714629186E+03 0.  0.
        -13    1    4    4    0    0  0.12553588322E+03  0.31850735784E+03 -0.95941740378E+02  0.35554327962E+03  0.10566000000E+00 0.  1.
          4    1    4    4  502    0  0.87634757438E+03 -0.43579638930E+03  0.53767057261E+03  0.11166885012E+04  0.00000000000E+00 0.  1.
         13    1    3    3    0    0 -0.10552475589E+04 -0.22384765519E+03 -0.89040308632E+03  0.13987397366E+04  0.10566000000E+00 0. -1.
         -4    1    3    3    0  501  0.53364101312E+02  0.34113668666E+03 -0.39019159660E+03  0.52102922024E+03  0.00000000000E+00 0. -1.
<mgrwt>
<rscale>  0 0.14172622E+04</rscale>
<asrwt>0</asrwt>
<pdfrwt beam="1">  1        4 0.19639499E+00 0.14044010E+04</pdfrwt>
<pdfrwt beam="2">  1       -4 0.32545128E+00 0.14302413E+04</pdfrwt>
<totfact> 0.86826522E-02</totfact>
</mgrwt>
</event>
<event>
 8    1  0.2939692E-006  0.1169409E+04  0.7818608E-02  0.8660544E-01
          4   -1    0    0  502    0  0.00000000000E+00  0.00000000000E+00  0.21395705064E+04  0.21395705064E+04  0.00000000000E+00 0.  1.
         -4   -1    0    0    0  501 -0.00000000000E+00 -0.00000000000E+00 -0.25811006750E+04  0.25811006750E+04  0.00000000000E+00 0. -1.
   -9000010    2    1    2    0  501  0.34812552623E+03 -0.29192933182E+03 -0.22875103124E+04  0.25354572940E+04  0.99469902163E+03 0.  0.
    9000010    2    1    2  502    0 -0.34812552623E+03  0.29192933182E+03  0.18459801439E+04  0.21852138873E+04  0.10775448599E+04 0.  0.
        -13    1    4    4    0    0 -0.52261126825E+03  0.45618091836E+03  0.60239440220E+03  0.91875056187E+03  0.10566000000E+00 0.  1.
          4    1    4    4  502    0  0.17448574202E+03 -0.16425158654E+03  0.12435857417E+04  0.12664633254E+04  0.00000000000E+00 0.  1.
         13    1    3    3    0    0  0.46055588938E+02  0.78595450674E+02 -0.19455677065E+04  0.19476991744E+04  0.10566000000E+00 0. -1.
         -4    1    3    3    0  501  0.30206993729E+03 -0.37052478250E+03 -0.34194260590E+03  0.58775811963E+03  0.00000000000E+00 0. -1.
<mgrwt>
<rscale>  0 0.11308408E+04</rscale>
<asrwt>0</asrwt>
<pdfrwt beam="1">  1        4 0.32916469E+00 0.11694088E+04</pdfrwt>
<pdfrwt beam="2">  1       -4 0.39709241E+00 0.10935448E+04</pdfrwt>
<totfact> 0.22756162E-02</totfact>
</mgrwt>
</event>
<event>
 8    1  0.2939692E-006  0.1142114E+04  0.7818608E-02  0.8666305E-01
          4   -1    0    0  502    0  0.00000000000E+00  0.00000000000E+00  0.12977490108E+04  0.12977490108E+04  0.00000000000E+00 0.  1.
         -4   -1    0    0    0  501 -0.00000000000E+00 -0.00000000000E+00 -0.13968275424E+04  0.13968275424E+04  0.00000000000E+00 0. -1.
   -9000010    2    1    2    0  501 -0.50560957911E+03  0.64110014023E+02 -0.79187481828E+03  0.13897805577E+04  0.10220925254E+04 0.  0.
    9000010    2    1    2  502    0  0.50560957911E+03 -0.64110014023E+02  0.69279628662E+03  0.13047959955E+04  0.98121086148E+03 0.  0.
        -13    1    4    4    0    0 -0.47824436688E+02  0.38623184010E+03  0.29087878909E+03  0.48587312351E+03  0.10566000000E+00 0.  1.
          4    1    4    4  502    0  0.55343401580E+03 -0.45034185412E+03  0.40191749754E+03  0.81892287197E+03  0.00000000000E+00 0.  1.
         13    1    3    3    0    0 -0.31503645740E+03 -0.32075291742E+03  0.42270186793E+02  0.45157190278E+03  0.10566000000E+00 0. -1.
         -4    1    3    3    0  501 -0.19057312171E+03  0.38486293144E+03 -0.83414500507E+03  0.93820865494E+03  0.00000000000E+00 0. -1.
<mgrwt>
<rscale>  0 0.11237488E+04</rscale>
<asrwt>0</asrwt>
<pdfrwt beam="1">  1        4 0.19965369E+00 0.11056789E+04</pdfrwt>
<pdfrwt beam="2">  1       -4 0.21489654E+00 0.11421139E+04</pdfrwt>
<totfact> 0.16610103E-01</totfact>
</mgrwt>
</event>
<event>
 8    1  0.2939692E-006  0.1315971E+04  0.7818608E-02  0.8526517E-01
          4   -1    0    0  502    0  0.00000000000E+00  0.00000000000E+00  0.25341394323E+04  0.25341394323E+04  0.00000000000E+00 0.  1.
         -4   -1    0    0    0  501 -0.00000000000E+00 -0.00000000000E+00 -0.12606919428E+04  0.12606919428E+04  0.00000000000E+00 0. -1.
   -9000010    2    1    2    0  501  0.79434259653E+03  0.32804498220E+03 -0.65252801083E+03  0.14622017254E+04  0.98673573459E+03 0.  0.
    9000010    2    1    2  502    0 -0.79434259653E+03 -0.32804498220E+03  0.19259755004E+04  0.23326296496E+04  0.99658706764E+03 0.  0.
        -13    1    4    4    0    0 -0.10161859309E+04 -0.16179991807E+03  0.16254130030E+04  0.19237412771E+04  0.10566000000E+00 0.  1.
          4    1    4    4  502    0  0.22184333442E+03 -0.16624506413E+03  0.30056249731E+03  0.40888837249E+03  0.00000000000E+00 0.  1.
         13    1    3    3    0    0  0.12293575926E+03 -0.29755541477E+03  0.22867906358E+02  0.32276210755E+03  0.10566000000E+00 0. -1.
         -4    1    3    3    0  501  0.67140683727E+03  0.62560039697E+03 -0.67539591719E+03  0.11394396179E+04  0.00000000000E+00 0. -1.
<mgrwt>
<rscale>  0 0.13122433E+04</rscale>
<asrwt>0</asrwt>
<pdfrwt beam="1">  1        4 0.38986760E+00 0.13159709E+04</pdfrwt>
<pdfrwt beam="2">  1       -4 0.19395261E+00 0.13085263E+04</pdfrwt>
<totfact> 0.53309976E-02</totfact>
</mgrwt>
</event>
<event>
 8    1  0.2939692E-006  0.1004326E+04  0.7818608E-02  0.8784995E-01
          4   -1    0    0  502    0  0.00000000000E+00  0.00000000000E+00  0.63131488292E+03  0.63131488292E+03  0.00000000000E+00 0.  1.
         -4   -1    0    0    0  501 -0.00000000000E+00 -0.00000000000E+00 -0.19903238278E+04  0.19903238278E+04  0.00000000000E+00 0. -1.
   -9000010    2    1    2    0  501  0.12616033764E+03  0.12103207960E+03 -0.13043335666E+04  0.16461947181E+04  0.98899231636E+03 0.  0.
    9000010    2    1    2  502    0 -0.12616033764E+03 -0.12103207960E+03 -0.54675378305E+02  0.97544399266E+03  0.95808997006E+03 0.  0.
        -13    1    4    4    0    0  0.92374051176E+02 -0.37744502615E+03  0.29650676760E+03  0.48878828494E+03  0.10566000000E+00 0.  1.
          4    1    4    4  502    0 -0.21853438882E+03  0.25641294655E+03 -0.35118214590E+03  0.48665570772E+03  0.00000000000E+00 0.  1.
         13    1    3    3    0    0 -0.10745094398E+03  0.80521589904E+02  0.13326245377E+03  0.18917802344E+03  0.10566000000E+00 0. -1.
         -4    1    3    3    0  501  0.23361128162E+03  0.40510489699E+02 -0.14375960204E+04  0.14570166947E+04  0.00000000000E+00 0. -1.
<mgrwt>
<rscale>  0 0.98900138E+03</rscale>
<asrwt>0</asrwt>
<pdfrwt beam="1">  1        4 0.97125369E-01 0.97391046E+03</pdfrwt>
<pdfrwt beam="2">  1       -4 0.30620366E+00 0.10043261E+04</pdfrwt>
<totfact> 0.30586065E-01</totfact>
</mgrwt>
</event>
<event>
 8    1  0.2939692E-006  0.1117666E+04  0.7818608E-02  0.8671699E-01
          4   -1    0    0  502    0  0.00000000000E+00  0.00000000000E+00  0.15256950519E+04  0.15256950519E+04  0.00000000000E+00 0.  1.
         -4   -1    0    0    0  501 -0.00000000000E+00 -0.00000000000E+00 -0.24499337167E+04  0.24499337167E+04  0.00000000000E+00 0. -1.
   -9000010    2    1    2    0  501  0.20943160526E+03 -0.43140011858E+03 -0.20845505475E+04  0.23652755680E+04  0.10095592444E+04 0.  0.
    9000010    2    1    2  502    0 -0.20943160526E+03  0.43140011858E+03  0.11603118827E+04  0.16103532006E+04  0.10084374577E+04 0.  0.
        -13    1    4    4    0    0 -0.11287065857E+01 -0.13059847149E+03  0.97397960164E+03  0.98269705928E+03  0.10566000000E+00 0.  1.
          4    1    4    4  502    0 -0.20830289867E+03  0.56199859007E+03  0.18633228106E+03  0.62765614137E+03  0.00000000000E+00 0.  1.
         13    1    3    3    0    0 -0.39187272943E+03 -0.42332052096E+02 -0.87326991175E+03  0.95810051072E+03  0.10566000000E+00 0. -1.
         -4    1    3    3    0  501  0.60130433469E+03 -0.38906806649E+03 -0.12112806357E+04  0.14071750573E+04  0.00000000000E+00 0. -1.
<mgrwt>
<rscale>  0 0.11171594E+04</rscale>
<asrwt>0</asrwt>
<pdfrwt beam="1">  1        4 0.23472232E+00 0.11166529E+04</pdfrwt>
<pdfrwt beam="2">  1       -4 0.37691288E+00 0.11176661E+04</pdfrwt>
<totfact> 0.47526770E-02</totfact>
</mgrwt>
</event>
<event>
 8    1  0.2939692E-006  0.1008828E+04  0.7818608E-02  0.8770523E-01
          4   -1    0    0  502    0  0.00000000000E+00  0.00000000000E+00  0.28260735265E+04  0.28260735265E+04  0.00000000000E+00 0.  1.
         -4   -1    0    0    0  501 -0.00000000000E+00 -0.00000000000E+00 -0.26162405668E+04  0.26162405668E+04  0.00000000000E+00 0. -1.
   -9000010    2    1    2    0  501 -0.13942151382E+03  0.45685971497E+02 -0.24237457959E+04  0.26253149477E+04  0.99810286288E+03 0.  0.
    9000010    2    1    2  502    0  0.13942151382E+03 -0.45685971497E+02  0.26335787557E+04  0.28169991456E+04  0.98905083662E+03 0.  0.
        -13    1    4    4    0    0 -0.21643184617E+03 -0.34341012534E+03  0.55700075003E+03  0.68921919947E+03  0.10566000000E+00 0.  1.
          4    1    4    4  502    0  0.35585335999E+03  0.29772415384E+03  0.20765780057E+04  0.21277799461E+04  0.00000000000E+00 0.  1.
         13    1    3    3    0    0 -0.46516650437E+03  0.51172034256E+02 -0.54419287595E+03  0.71773557197E+03  0.10566000000E+00 0. -1.
         -4    1    3    3    0  501  0.32574499055E+03 -0.54860627589E+01 -0.18795529200E+04  0.19075793757E+04  0.00000000000E+00 0. -1.
<mgrwt>
<rscale>  0 0.10043410E+04</rscale>
<asrwt>0</asrwt>
<pdfrwt beam="1">  1        4 0.43478054E+00 0.99987355E+03</pdfrwt>
<pdfrwt beam="2">  1       -4 0.40249855E+00 0.10088285E+04</pdfrwt>
<totfact> 0.89528437E-03</totfact>
</mgrwt>
</event>
<event>
 8    1  0.2939692E-006  0.1610654E+04  0.7818608E-02  0.8355371E-01
         -4   -1    0    0    0  501 -0.00000000000E+00  0.00000000000E+00  0.22230928476E+04  0.22230928476E+04  0.00000000000E+00 0. -1.
          4   -1    0    0  502    0  0.00000000000E+00 -0.00000000000E+00 -0.12135600827E+04  0.12135600827E+04  0.00000000000E+00 0.  1.
   -9000010    2    1    2    0  501 -0.42286067568E+03  0.11839475046E+04  0.90687134823E+03  0.18484103565E+04  0.10068080051E+04 0.  0.
    9000010    2    1    2  502    0  0.42286067568E+03 -0.11839475046E+04  0.10266141665E+03  0.15882425739E+04  0.96510738388E+03 0.  0.
        -13    1    4    4    0    0  0.71656008094E+02 -0.13559352540E+03 -0.35878838092E+03  0.39019136468E+03  0.10566000000E+00 0.  1.
          4    1    4    4  502    0  0.35120466758E+03 -0.10483539792E+04  0.46144979757E+03  0.11980512092E+04  0.00000000000E+00 0.  1.
         13    1    3    3    0    0 -0.70782269027E+03  0.10851365841E+04  0.82475629809E+03  0.15358246415E+04  0.10566000000E+00 0. -1.
         -4    1    3    3    0  501  0.28496201459E+03  0.98810920491E+02  0.82115050144E+02  0.31258571501E+03  0.00000000000E+00 0. -1.
<mgrwt>
<rscale>  0 0.15977356E+04</rscale>
<asrwt>0</asrwt>
<pdfrwt beam="2">  1        4 0.18670155E+00 0.15849212E+04</pdfrwt>
<pdfrwt beam="1">  1       -4 0.34201428E+00 0.16106537E+04</pdfrwt>
<totfact> 0.82007996E-02</totfact>
</mgrwt>
</event>
<event>
 8    1  0.2939692E-006  0.1022838E+04  0.7818608E-02  0.8753456E-01
          4   -1    0    0  502    0  0.00000000000E+00  0.00000000000E+00  0.17525283056E+04  0.17525283056E+04  0.00000000000E+00 0.  1.
         -4   -1    0    0    0  501 -0.00000000000E+00 -0.00000000000E+00 -0.25238402047E+04  0.25238402047E+04  0.00000000000E+00 0. -1.
   -9000010    2    1    2    0  501 -0.22275057707E+03 -0.11243468892E+03 -0.22539544961E+04  0.24751785905E+04  0.99193689578E+03 0.  0.
    9000010    2    1    2  502    0  0.22275057707E+03  0.11243468892E+03  0.14826425970E+04  0.18011899198E+04  0.99186525195E+03 0.  0.
        -13    1    4    4    0    0  0.49663795920E+03 -0.12202913969E+03  0.36898861125E+03  0.63062903505E+03  0.10566000000E+00 0.  1.
          4    1    4    4  502    0 -0.27388738213E+03  0.23446382862E+03  0.11136539857E+04  0.11705608848E+04  0.00000000000E+00 0.  1.
         13    1    3    3    0    0 -0.55276242532E+03  0.18058168722E+03 -0.12843797654E+04  0.14098891579E+04  0.10566000000E+00 0. -1.
         -4    1    3    3    0  501  0.33001184825E+03 -0.29301637615E+03 -0.96957473077E+03  0.10652894326E+04  0.00000000000E+00 0. -1.
<mgrwt>
<rscale>  0 0.10228036E+04</rscale>
<asrwt>0</asrwt>
<pdfrwt beam="1">  1        4 0.26961974E+00 0.10227688E+04</pdfrwt>
<pdfrwt beam="2">  1       -4 0.38828311E+00 0.10228383E+04</pdfrwt>
<totfact> 0.36135934E-02</totfact>
</mgrwt>
</event>
<event>
 8    1  0.2939692E-006  0.1062012E+04  0.7818608E-02  0.8723622E-01
          4   -1    0    0  502    0  0.00000000000E+00  0.00000000000E+00  0.35282873007E+04  0.35282873007E+04  0.00000000000E+00 0.  1.
         -4   -1    0    0    0  501 -0.00000000000E+00 -0.00000000000E+00 -0.44727003539E+03  0.44727003539E+03  0.00000000000E+00 0. -1.
   -9000010    2    1    2    0  501 -0.18246213996E+03 -0.28625321693E+03  0.45797377485E+03  0.11456762330E+04  0.99378102002E+03 0.  0.
    9000010    2    1    2  502    0  0.18246213996E+03  0.28625321693E+03  0.26230434904E+04  0.28298811030E+04  0.10062984487E+04 0.  0.
        -13    1    4    4    0    0  0.14813505892E+03  0.29773535925E+03  0.27127967620E+04  0.27331038441E+04  0.10566000000E+00 0.  1.
          4    1    4    4  502    0  0.34327081032E+02 -0.11482142322E+02 -0.89753271554E+02  0.96777258895E+02  0.00000000000E+00 0.  1.
         13    1    3    3    0    0 -0.25913041331E+02 -0.23363612414E+03  0.76322817364E+03  0.79860790155E+03  0.10566000000E+00 0. -1.
         -4    1    3    3    0  501 -0.15654909862E+03 -0.52617092791E+02 -0.30525439879E+03  0.34706833148E+03  0.00000000000E+00 0. -1.
<mgrwt>
<rscale>  0 0.10560690E+04</rscale>
<asrwt>0</asrwt>
<pdfrwt beam="1">  1        4 0.54281341E+00 0.10620122E+04</pdfrwt>
<pdfrwt beam="2">  1       -4 0.68810777E-01 0.10501591E+04</pdfrwt>
<totfact> 0.67150501E-02</totfact>
</mgrwt>
</event>
<event>
 8    1  0.2939692E-006  0.1203997E+04  0.7818608E-02  0.8606637E-01
          4   -1    0    0  502    0  0.00000000000E+00  0.00000000000E+00  0.14830559806E+04  0.14830559806E+04  0.00000000000E+00 0.  1.
         -4   -1    0    0    0  501 -0.00000000000E+00 -0.00000000000E+00 -0.13860494480E+04  0.13860494480E+04  0.00000000000E+00 0. -1.
   -9000010    2    1    2    0  501 -0.49795351558E+03 -0.43170780058E+03 -0.73679436279E+03  0.14045806982E+04  0.99782346937E+03 0.  0.
    9000010    2    1    2  502    0  0.49795351558E+03  0.43170780058E+03  0.83380089542E+03  0.14645247304E+04  0.10076107502E+04 0.  0.
        -13    1    4    4    0    0  0.43764928244E+03 -0.10601270279E+03  0.80534003820E+03  0.92268530706E+03  0.10566000000E+00 0.  1.
          4    1    4    4  502    0  0.60304233141E+02  0.53772050337E+03  0.28460857216E+02  0.54183942333E+03  0.00000000000E+00 0.  1.
         13    1    3    3    0    0 -0.35295632032E+02  0.40435928624E+02  0.22845501242E+03  0.23467541377E+03  0.10566000000E+00 0. -1.
         -4    1    3    3    0  501 -0.46265788355E+03 -0.47214372920E+03 -0.96524937521E+03  0.11699052844E+04  0.00000000000E+00 0. -1.
<mgrwt>
<rscale>  0 0.11999006E+04</rscale>
<asrwt>0</asrwt>
<pdfrwt beam="1">  1        4 0.22816246E+00 0.12039970E+04</pdfrwt>
<pdfrwt beam="2">  1       -4 0.21323838E+00 0.11958181E+04</pdfrwt>
<totfact> 0.14068052E-01</totfact>
</mgrwt>
</event>
<event>
 8    1  0.2939692E-006  0.1066801E+04  0.7818608E-02  0.8719271E-01
         -4   -1    0    0    0  501 -0.00000000000E+00  0.00000000000E+00  0.22213793782E+04  0.22213793782E+04  0.00000000000E+00 0. -1.
          4   -1    0    0  502    0  0.00000000000E+00 -0.00000000000E+00 -0.14117580566E+04  0.14117580566E+04  0.00000000000E+00 0.  1.
   -9000010    2    1    2    0  501 -0.28406530929E+03 -0.23255293286E+03  0.18584144448E+04  0.21371320791E+04  0.98937116826E+03 0.  0.
    9000010    2    1    2  502    0  0.28406530929E+03  0.23255293286E+03 -0.10487931232E+04  0.14960053557E+04  0.10016441696E+04 0.  0.
        -13    1    4    4    0    0  0.38799463053E+03  0.11029052579E+03 -0.12058159023E+04  0.12714935449E+04  0.10566000000E+00 0.  1.
          4    1    4    4  502    0 -0.10392932124E+03  0.12226240707E+03  0.15702277913E+03  0.22451181074E+03  0.00000000000E+00 0.  1.
         13    1    3    3    0    0  0.27698773355E+03 -0.35897729050E+03  0.58729139267E+03  0.74195558539E+03  0.10566000000E+00 0. -1.
         -4    1    3    3    0  501 -0.56105304284E+03  0.12642435764E+03  0.12711230521E+04  0.13951764937E+04  0.00000000000E+00 0. -1.
<mgrwt>
<rscale>  0 0.10610282E+04</rscale>
<asrwt>0</asrwt>
<pdfrwt beam="2">  1        4 0.21719355E+00 0.10668013E+04</pdfrwt>
<pdfrwt beam="1">  1       -4 0.34175067E+00 0.10552863E+04</pdfrwt>
<totfact> 0.70458679E-02</totfact>
</mgrwt>
</event>
<event>
 8    1  0.2939692E-006  0.1050891E+04  0.7818608E-02  0.8732696E-01
          4   -1    0    0  502    0  0.00000000000E+00  0.00000000000E+00  0.12014307165E+04  0.12014307165E+04  0.00000000000E+00 0.  1.
         -4   -1    0    0    0  501 -0.00000000000E+00 -0.00000000000E+00 -0.16362862917E+04  0.16362862917E+04  0.00000000000E+00 0. -1.
   -9000010    2    1    2    0  501 -0.97325240237E+02  0.32539466342E+03 -0.11618775748E+04  0.15598544853E+04  0.98378484796E+03 0.  0.
    9000010    2    1    2  502    0  0.97325240237E+02 -0.32539466342E+03  0.72702199956E+03  0.12778625229E+04  0.99449371548E+03 0.  0.
        -13    1    4    4    0    0 -0.19690702629E+03 -0.66372427490E+02 -0.18937628088E+03  0.28114242486E+03  0.10566000000E+00 0.  1.
          4    1    4    4  502    0  0.29423226653E+03 -0.25902223593E+03  0.91639828043E+03  0.99672009800E+03  0.00000000000E+00 0.  1.
         13    1    3    3    0    0  0.35138422470E+03  0.21252264018E+03 -0.13287858848E+03  0.43161728000E+03  0.10566000000E+00 0. -1.
         -4    1    3    3    0  501 -0.44870946494E+03  0.11287202324E+03 -0.10289989863E+04  0.11282372053E+04  0.00000000000E+00 0. -1.
<mgrwt>
<rscale>  0 0.10458144E+04</rscale>
<asrwt>0</asrwt>
<pdfrwt beam="1">  1        4 0.18483549E+00 0.10508909E+04</pdfrwt>
<pdfrwt beam="2">  1       -4 0.25173635E+00 0.10407625E+04</pdfrwt>
<totfact> 0.14998562E-01</totfact>
</mgrwt>
</event>
<event>
 8    1  0.2939692E-006  0.1207849E+04  0.7818608E-02  0.8614116E-01
         -4   -1    0    0    0  501 -0.00000000000E+00  0.00000000000E+00  0.86252448483E+03  0.86252448483E+03  0.00000000000E+00 0. -1.
          4   -1    0    0  502    0  0.00000000000E+00 -0.00000000000E+00 -0.24401485115E+04  0.24401485115E+04  0.00000000000E+00 0.  1.
   -9000010    2    1    2    0  501  0.57178266888E+03 -0.37015320574E+03  0.14751844666E+03  0.12168241291E+04  0.99747203114E+03 0.  0.
    9000010    2    1    2  502    0 -0.57178266888E+03  0.37015320574E+03 -0.17251424733E+04  0.20858488672E+04  0.95430609737E+03 0.  0.
        -13    1    4    4    0    0 -0.21313209989E+03 -0.86166607966E+01  0.63611239865E+02  0.22258917280E+03  0.10566000000E+00 0.  1.
          4    1    4    4  502    0 -0.35865056899E+03  0.37876986654E+03 -0.17887537132E+04  0.18632596944E+04  0.00000000000E+00 0.  1.
         13    1    3    3    0    0  0.36707575434E+03 -0.68923014104E+03 -0.62598864086E+02  0.78339097881E+03  0.10566000000E+00 0. -1.
         -4    1    3    3    0  501  0.20470691454E+03  0.31907693530E+03  0.21011731074E+03  0.43343315029E+03  0.00000000000E+00 0. -1.
<mgrwt>
<rscale>  0 0.11900200E+04</rscale>
<asrwt>0</asrwt>
<pdfrwt beam="2">  1        4 0.37540746E+00 0.11724542E+04</pdfrwt>
<pdfrwt beam="1">  1       -4 0.13269607E+00 0.12078490E+04</pdfrwt>
<totfact> 0.10574795E-01</totfact>
</mgrwt>
</event>
<event>
 8    1  0.2939692E-006  0.1459017E+04  0.7818608E-02  0.8466120E-01
          4   -1    0    0  502    0  0.00000000000E+00  0.00000000000E+00  0.86279608888E+03  0.86279608888E+03  0.00000000000E+00 0. -1.
         -4   -1    0    0    0  501 -0.00000000000E+00 -0.00000000000E+00 -0.22996794596E+04  0.22996794596E+04  0.00000000000E+00 0.  1.
   -9000010    2    1    2    0  501 -0.10767937695E+04 -0.27024254255E+02 -0.65639067079E+03  0.15998684224E+04  0.98413165987E+03 0.  0.
    9000010    2    1    2  502    0  0.10767937695E+04  0.27024254255E+02 -0.78049269988E+03  0.15626071261E+04  0.81997380665E+03 0.  0.
        -13    1    4    4    0    0  0.48773257518E+03 -0.33487472189E+02  0.10242896433E+03  0.49949592549E+03  0.10566000000E+00 0.  1.
          4    1    4    4  502    0  0.58906119428E+03  0.60511726443E+02 -0.88292166421E+03  0.10631112006E+04  0.00000000000E+00 0.  1.
         13    1    3    3    0    0 -0.11215597390E+04  0.53377708908E+02 -0.20774968227E+03  0.11418867587E+04  0.10566000000E+00 0. -1.
         -4    1    3    3    0  501  0.44765969554E+02 -0.80401963163E+02 -0.44864098852E+03  0.45798166371E+03  0.00000000000E+00 0. -1.
<mgrwt>
<rscale>  0 0.14053854E+04</rscale>
<asrwt>0</asrwt>
<pdfrwt beam="1">  1        4 0.13273786E+00 0.13537253E+04</pdfrwt>
<pdfrwt beam="2">  1       -4 0.35379684E+00 0.14590169E+04</pdfrwt>
<totfact> 0.12431608E-01</totfact>
</mgrwt>
</event>
<event>
 8    1  0.2939692E-006  0.1255313E+04  0.7818608E-02  0.8571316E-01
          4   -1    0    0  502    0  0.00000000000E+00  0.00000000000E+00  0.30045116116E+04  0.30045116116E+04  0.00000000000E+00 0.  1.
         -4   -1    0    0    0  501 -0.00000000000E+00 -0.00000000000E+00 -0.97548894242E+03  0.97548894242E+03  0.00000000000E+00 0. -1.
   -9000010    2    1    2    0  501  0.23242695522E+03 -0.68167941637E+03 -0.34457492367E+03  0.13017460786E+04  0.10281545890E+04 0.  0.
    9000010    2    1    2  502    0 -0.23242695522E+03  0.68167941637E+03  0.23735975929E+04  0.26782544754E+04  0.10101348356E+04 0.  0.
        -13    1    4    4    0    0  0.20162995631E+03 -0.15471152622E+03  0.25733506756E+03  0.36167892362E+03  0.10566000000E+00 0.  1.
          4    1    4    4  502    0 -0.43405691153E+03  0.83639094260E+03  0.21162625253E+04  0.23165755518E+04  0.00000000000E+00 0.  1.
         13    1    3    3    0    0 -0.17508911483E+02 -0.83699519619E+03  0.14746154139E+02  0.83730817544E+03  0.10566000000E+00 0. -1.
         -4    1    3    3    0  501  0.24993586670E+03  0.15531577982E+03 -0.35932107781E+03  0.46443790315E+03  0.00000000000E+00 0. -1.
<mgrwt>
<rscale>  0 0.12479335E+04</rscale>
<asrwt>0</asrwt>
<pdfrwt beam="1">  1        4 0.46223255E+00 0.12405972E+04</pdfrwt>
<pdfrwt beam="2">  1       -4 0.15007522E+00 0.12553131E+04</pdfrwt>
<totfact> 0.37267804E-02</totfact>
</mgrwt>
</event>
<event>
 8    1  0.2939692E-006  0.1336000E+04  0.7818608E-02  0.8512297E-01
          4   -1    0    0  502    0  0.00000000000E+00  0.00000000000E+00  0.18259295090E+04  0.18259295090E+04  0.00000000000E+00 0.  1.
         -4   -1    0    0    0  501 -0.00000000000E+00 -0.00000000000E+00 -0.21277126703E+04  0.21277126703E+04  0.00000000000E+00 0. -1.
   -9000010    2    1    2    0  501 -0.26495473140E+02 -0.88374761471E+03 -0.16065098531E+04  0.20862357681E+04  0.99488387041E+03 0.  0.
    9000010    2    1    2  502    0  0.26495473140E+02  0.88374761471E+03  0.13047266918E+04  0.18674064111E+04  0.10015902892E+04 0.  0.
        -13    1    4    4    0    0 -0.15399241234E+03 -0.18805541824E+03  0.31097356202E+03  0.39469364174E+03  0.10566000000E+00 0.  1.
          4    1    4    4  502    0  0.18048788548E+03  0.10718030330E+04  0.99375312974E+03  0.14727127694E+04  0.00000000000E+00 0.  1.
         13    1    3    3    0    0  0.35737793629E+03 -0.17347226868E+03 -0.15722443300E+03  0.42723664502E+03  0.10566000000E+00 0. -1.
         -4    1    3    3    0  501 -0.38387340943E+03 -0.71027534604E+03 -0.14492854201E+04  0.16589991231E+04  0.00000000000E+00 0. -1.
<mgrwt>
<rscale>  0 0.13334871E+04</rscale>
<asrwt>0</asrwt>
<pdfrwt beam="1">  1        4 0.28091223E+00 0.13359996E+04</pdfrwt>
<pdfrwt beam="2">  1       -4 0.32734041E+00 0.13309793E+04</pdfrwt>
<totfact> 0.52831685E-02</totfact>
</mgrwt>
</event>
<event>
 8    1  0.2939692E-006  0.1169313E+04  0.7818608E-02  0.8635075E-01
          4   -1    0    0  502    0  0.00000000000E+00  0.00000000000E+00  0.11696521496E+04  0.11696521496E+04  0.00000000000E+00 0.  1.
         -4   -1    0    0    0  501 -0.00000000000E+00 -0.00000000000E+00 -0.13760831151E+04  0.13760831151E+04  0.00000000000E+00 0. -1.
   -9000010    2    1    2    0  501 -0.48608834896E+03 -0.30796451135E+03 -0.61163023506E+03  0.13082059506E+04  0.10030888503E+04 0.  0.
    9000010    2    1    2  502    0  0.48608834896E+03  0.30796451135E+03  0.40519926955E+03  0.12375293141E+04  0.10179235394E+04 0.  0.
        -13    1    4    4    0    0  0.46127369254E+03  0.34398151887E+03  0.71888406074E+03  0.92080997427E+03  0.10566000000E+00 0.  1.
          4    1    4    4  502    0  0.24814656423E+02 -0.36017007523E+02 -0.31368479119E+03  0.31671933984E+03  0.00000000000E+00 0.  1.
         13    1    3    3    0    0 -0.72461856313E+03 -0.47116315628E+03 -0.41619981521E+03  0.95931698579E+03  0.10566000000E+00 0. -1.
         -4    1    3    3    0  501  0.23853021417E+03  0.16319864493E+03 -0.19543041985E+03  0.34888896484E+03  0.00000000000E+00 0. -1.
<mgrwt>
<rscale>  0 0.11628494E+04</rscale>
<asrwt>0</asrwt>
<pdfrwt beam="1">  1        4 0.17994648E+00 0.11693128E+04</pdfrwt>
<pdfrwt beam="2">  1       -4 0.21170509E+00 0.11564218E+04</pdfrwt>
<totfact> 0.19414328E-01</totfact>
</mgrwt>
</event>
<event>
 8    1  0.2939692E-006  0.1245651E+04  0.7818608E-02  0.8583086E-01
         -4   -1    0    0    0  501 -0.00000000000E+00  0.00000000000E+00  0.16559776726E+04  0.16559776726E+04  0.00000000000E+00 0. -1.
          4   -1    0    0  502    0  0.00000000000E+00 -0.00000000000E+00 -0.23853682708E+04  0.23853682708E+04  0.00000000000E+00 0.  1.
   -9000010    2    1    2    0  501 -0.55753138484E+03 -0.40188310345E+03  0.12195048616E+04  0.17432261733E+04  0.10388908075E+04 0.  0.
    9000010    2    1    2  502    0  0.55753138484E+03  0.40188310345E+03 -0.19488954598E+04  0.22981197701E+04  0.10053903174E+04 0.  0.
        -13    1    4    4    0    0  0.61662226569E+03 -0.11586995028E+03 -0.67397520976E+03  0.92081021848E+03  0.10566000000E+00 0.  1.
          4    1    4    4  502    0 -0.59090880855E+02  0.51775305373E+03 -0.12749202501E+04  0.13773095516E+04  0.00000000000E+00 0.  1.
         13    1    3    3    0    0  0.91452196595E+02  0.10323034691E+03 -0.11238038014E+03  0.17790269754E+03  0.10566000000E+00 0. -1.
         -4    1    3    3    0  501 -0.64898358143E+03 -0.50511345036E+03  0.13318852417E+04  0.15653234758E+04  0.00000000000E+00 0. -1.
<mgrwt>
<rscale>  0 0.12316723E+04</rscale>
<asrwt>0</asrwt>
<pdfrwt beam="2">  1        4 0.36697974E+00 0.12178510E+04</pdfrwt>
<pdfrwt beam="1">  1       -4 0.25476579E+00 0.12456506E+04</pdfrwt>
<totfact> 0.45759670E-02</totfact>
</mgrwt>
</event>
<event>
 8    1  0.2939692E-006  0.1195024E+04  0.7818608E-02  0.8613121E-01
          4   -1    0    0  502    0  0.00000000000E+00  0.00000000000E+00  0.99123991688E+03  0.99123991688E+03  0.00000000000E+00 0.  1.
         -4   -1    0    0    0  501 -0.00000000000E+00 -0.00000000000E+00 -0.16194413728E+04  0.16194413728E+04  0.00000000000E+00 0. -1.
   -9000010    2    1    2    0  501  0.28103743490E+02  0.64653477969E+03 -0.75754474922E+03  0.14086784302E+04  0.99584327631E+03 0.  0.
    9000010    2    1    2  502    0 -0.28103743490E+02 -0.64653477969E+03  0.12934329330E+03  0.12020028594E+04  0.10046313477E+04 0.  0.
        -13    1    4    4    0    0 -0.26191285468E+02 -0.91826724961E+03  0.14404898652E+03  0.92986603703E+03  0.10566000000E+00 0.  1.
          4    1    4    4  502    0 -0.19124580222E+01  0.27173246991E+03 -0.14705693222E+02  0.27213682241E+03  0.00000000000E+00 0.  1.
         13    1    3    3    0    0 -0.17690837975E+03  0.75864795671E+03 -0.20017284169E+03  0.80430869370E+03  0.10566000000E+00 0. -1.
         -4    1    3    3    0  501  0.20501212324E+03 -0.11211317701E+03 -0.55737190753E+03  0.60436973654E+03  0.00000000000E+00 0. -1.
<mgrwt>
<rscale>  0 0.11913286E+04</rscale>
<asrwt>0</asrwt>
<pdfrwt beam="1">  1        4 0.15249845E+00 0.11950235E+04</pdfrwt>
<pdfrwt beam="2">  1       -4 0.24914482E+00 0.11876451E+04</pdfrwt>
<totfact> 0.19794936E-01</totfact>
</mgrwt>
</event>
<event>
 8    1  0.2939692E-006  0.1050731E+04  0.7818608E-02  0.8809312E-01
         -4   -1    0    0    0  501 -0.00000000000E+00  0.00000000000E+00  0.19500587509E+04  0.19500587509E+04  0.00000000000E+00 0. -1.
          4   -1    0    0  502    0  0.00000000000E+00 -0.00000000000E+00 -0.52069439992E+03  0.52069439992E+03  0.00000000000E+00 0.  1.
   -9000010    2    1    2    0  501 -0.25530915236E+03  0.16306158454E+03  0.11157311371E+04  0.15326093006E+04  0.10061130426E+04 0.  0.
    9000010    2    1    2  502    0  0.25530915236E+03 -0.16306158454E+03  0.31363321390E+03  0.93814385020E+03  0.83064808865E+03 0.  0.
        -13    1    4    4    0    0 -0.27037253476E+03 -0.76641799291E+02  0.29156200792E+03  0.40494899503E+03  0.10566000000E+00 0.  1.
          4    1    4    4  502    0  0.52568168712E+03 -0.86419785245E+02  0.22071205985E+02  0.53319485518E+03  0.00000000000E+00 0.  1.
         13    1    3    3    0    0 -0.28193995810E+03 -0.31606779721E+02 -0.10021903524E+03  0.30088701316E+03  0.10566000000E+00 0. -1.
         -4    1    3    3    0  501  0.26630805741E+02  0.19466836426E+03  0.12159501723E+04  0.12317222874E+04  0.00000000000E+00 0. -1.
<mgrwt>
<rscale>  0 0.96385665E+03</rscale>
<asrwt>0</asrwt>
<pdfrwt beam="2">  1        4 0.80106832E-01 0.88416519E+03</pdfrwt>
<pdfrwt beam="1">  1       -4 0.30000904E+00 0.10507308E+04</pdfrwt>
<totfact> 0.46613883E-01</totfact>
</mgrwt>
</event>
<event>
 8    1  0.2939692E-006  0.1312087E+04  0.7818608E-02  0.8572820E-01
         -4   -1    0    0    0  501 -0.00000000000E+00  0.00000000000E+00  0.14329925141E+04  0.14329925141E+04  0.00000000000E+00 0. -1.
          4   -1    0    0  502    0  0.00000000000E+00 -0.00000000000E+00 -0.11800776272E+04  0.11800776272E+04  0.00000000000E+00 0.  1.
   -9000010    2    1    2    0  501  0.16010598713E+03 -0.60259077972E+03  0.48879906761E+03  0.12799484729E+04  0.10052830397E+04 0.  0.
    9000010    2    1    2  502    0 -0.16010598713E+03  0.60259077972E+03 -0.23588418063E+03  0.13331216684E+04  0.11544793031E+04 0.  0.
        -13    1    4    4    0    0 -0.96781273327E+02 -0.30368496897E+03  0.14230970462E+03  0.34906050827E+03  0.10566000000E+00 0.  1.
          4    1    4    4  502    0 -0.63324713808E+02  0.90627574869E+03 -0.37819388525E+03  0.98406116013E+03  0.00000000000E+00 0.  1.
         13    1    3    3    0    0  0.19306781631E+03 -0.22561640876E+03 -0.28938570504E+03  0.41463483096E+03  0.10566000000E+00 0. -1.
         -4    1    3    3    0  501 -0.32961829178E+02 -0.37697437096E+03  0.77818477264E+03  0.86531364193E+03  0.00000000000E+00 0. -1.
<mgrwt>
<rscale>  0 0.12458403E+04</rscale>
<asrwt>0</asrwt>
<pdfrwt beam="2">  1        4 0.18155040E+00 0.13120869E+04</pdfrwt>
<pdfrwt beam="1">  1       -4 0.22046039E+00 0.11829385E+04</pdfrwt>
<totfact> 0.18175646E-01</totfact>
</mgrwt>
</event>
<event>
 8    1  0.2939692E-006  0.1207836E+04  0.7818608E-02  0.8602127E-01
          4   -1    0    0  502    0  0.00000000000E+00  0.00000000000E+00  0.22823700936E+04  0.22823700936E+04  0.00000000000E+00 0.  1.
         -4   -1    0    0    0  501 -0.00000000000E+00 -0.00000000000E+00 -0.10493041455E+04  0.10493041455E+04  0.00000000000E+00 0. -1.
   -9000010    2    1    2    0  501 -0.54480886542E+03  0.38405111885E+03 -0.42689176653E+03  0.12810557965E+04  0.10072514144E+04 0.  0.
    9000010    2    1    2  502    0  0.54480886542E+03 -0.38405111885E+03  0.16599577146E+04  0.20506184426E+04  0.10026287555E+04 0.  0.
        -13    1    4    4    0    0  0.68387025773E+03 -0.57124005192E+03  0.94616610981E+03  0.12997015214E+04  0.10566000000E+00 0.  1.
          4    1    4    4  502    0 -0.13906139231E+03  0.18718893307E+03  0.71379160477E+03  0.75091692119E+03  0.00000000000E+00 0.  1.
         13    1    3    3    0    0 -0.74028244990E+03  0.13003258126E+03 -0.55661220046E+03  0.93527735495E+03  0.10566000000E+00 0. -1.
         -4    1    3    3    0  501  0.19547358448E+03  0.25401853759E+03  0.12972043394E+03  0.34577844156E+03  0.00000000000E+00 0. -1.
<mgrwt>
<rscale>  0 0.12059081E+04</rscale>
<asrwt>0</asrwt>
<pdfrwt beam="1">  1        4 0.35113386E+00 0.12039835E+04</pdfrwt>
<pdfrwt beam="2">  1       -4 0.16143141E+00 0.12078358E+04</pdfrwt>
<totfact> 0.96327698E-02</totfact>
</mgrwt>
</event>
<event>
 8    1  0.2939692E-006  0.1069861E+04  0.7818608E-02  0.8714733E-01
         -4   -1    0    0    0  501 -0.00000000000E+00  0.00000000000E+00  0.29822668211E+04  0.29822668211E+04  0.00000000000E+00 0. -1.
          4   -1    0    0  502    0  0.00000000000E+00 -0.00000000000E+00 -0.82996728626E+03  0.82996728626E+03  0.00000000000E+00 0.  1.
   -9000010    2    1    2    0  501  0.22447506718E+03 -0.28122403477E+03  0.24760720385E+04  0.26944544955E+04  0.99983812440E+03 0.  0.
    9000010    2    1    2  502    0 -0.22447506718E+03  0.28122403477E+03 -0.32377250358E+03  0.11177796119E+04  0.10075349191E+04 0.  0.
        -13    1    4    4    0    0 -0.15533432234E+03 -0.31074306246E+03 -0.38509648544E+03  0.51864180012E+03  0.10566000000E+00 0.  1.
          4    1    4    4  502    0 -0.69140744835E+02  0.59196709723E+03  0.61323981857E+02  0.59913781182E+03  0.00000000000E+00 0.  1.
         13    1    3    3    0    0  0.39395560851E+02 -0.64839283714E+03  0.15927414409E+04  0.17201135399E+04  0.10566000000E+00 0. -1.
         -4    1    3    3    0  501  0.18507950633E+03  0.36716880237E+03  0.88333059759E+03  0.97434095559E+03  0.00000000000E+00 0. -1.
<mgrwt>
<rscale>  0 0.10662322E+04</rscale>
<asrwt>0</asrwt>
<pdfrwt beam="2">  1        4 0.12768728E+00 0.10698610E+04</pdfrwt>
<pdfrwt beam="1">  1       -4 0.45881028E+00 0.10626158E+04</pdfrwt>
<totfact> 0.50569018E-02</totfact>
</mgrwt>
</event>
<event>
 8    1  0.2939692E-006  0.1216950E+04  0.7818608E-02  0.8595976E-01
         -4   -1    0    0    0  501 -0.00000000000E+00  0.00000000000E+00  0.24246582417E+04  0.24246582417E+04  0.00000000000E+00 0. -1.
          4   -1    0    0  502    0  0.00000000000E+00 -0.00000000000E+00 -0.15422262715E+04  0.15422262715E+04  0.00000000000E+00 0.  1.
   -9000010    2    1    2    0  501  0.62969214323E+03 -0.29133680334E+03  0.19845463549E+04  0.23250488334E+04  0.99299472039E+03 0.  0.
    9000010    2    1    2  502    0 -0.62969214323E+03  0.29133680334E+03 -0.11021143848E+04  0.16418356797E+04  0.99978945482E+03 0.  0.
        -13    1    4    4    0    0 -0.16910656651E+03  0.13007967332E+02 -0.10904473857E+04  0.11035586755E+04  0.10566000000E+00 0.  1.
          4    1    4    4  502    0 -0.46058557672E+03  0.27832883601E+03 -0.11666999022E+02  0.53827700425E+03  0.00000000000E+00 0.  1.
         13    1    3    3    0    0 -0.11117648665E+03  0.25861265892E+03  0.36279939923E+03  0.45919944880E+03  0.10566000000E+00 0. -1.
         -4    1    3    3    0  501  0.74086862988E+03 -0.54994946226E+03  0.16217469557E+04  0.18658493846E+04  0.00000000000E+00 0. -1.
<mgrwt>
<rscale>  0 0.12141592E+04</rscale>
<asrwt>0</asrwt>
<pdfrwt beam="2">  1        4 0.23726558E+00 0.12169504E+04</pdfrwt>
<pdfrwt beam="1">  1       -4 0.37302435E+00 0.12113744E+04</pdfrwt>
<totfact> 0.47945809E-02</totfact>
</mgrwt>
</event>
<event>
 8    1  0.2939692E-006  0.1248037E+04  0.7818608E-02  0.8603896E-01
          4   -1    0    0  502    0  0.00000000000E+00  0.00000000000E+00  0.19924727114E+04  0.19924727114E+04  0.00000000000E+00 0.  1.
         -4   -1    0    0    0  501 -0.00000000000E+00 -0.00000000000E+00 -0.73147737010E+03  0.73147737010E+03  0.00000000000E+00 0. -1.
   -9000010    2    1    2    0  501 -0.72619710754E+03 -0.15602035198E+03  0.51332369986E+03  0.12690929797E+04  0.89184706144E+03 0.  0.
    9000010    2    1    2  502    0  0.72619710754E+03  0.15602035198E+03  0.74767164144E+03  0.14548571018E+04  0.10029415307E+04 0.  0.
        -13    1    4    4    0    0  0.12145402758E+03  0.35525951164E+03  0.72650890390E+03  0.81778701386E+03  0.10566000000E+00 0.  1.
          4    1    4    4  502    0  0.60474307996E+03 -0.19923915966E+03  0.21162737544E+02  0.63707008796E+03  0.00000000000E+00 0.  1.
         13    1    3    3    0    0 -0.85489084168E+02 -0.36494147280E+03  0.45957501356E+03  0.59304288743E+03  0.10566000000E+00 0. -1.
         -4    1    3    3    0  501 -0.64070802337E+03  0.20892112082E+03  0.53748686299E+02  0.67605009224E+03  0.00000000000E+00 0. -1.
<mgrwt>
<rscale>  0 0.12035478E+04</rscale>
<asrwt>0</asrwt>
<pdfrwt beam="1">  1        4 0.30653426E+00 0.12480370E+04</pdfrwt>
<pdfrwt beam="2">  1       -4 0.11253498E+00 0.11606445E+04</pdfrwt>
<totfact> 0.22960028E-01</totfact>
</mgrwt>
</event>
<event>
 8    1  0.2939692E-006  0.1169640E+04  0.7818608E-02  0.8630826E-01
          4   -1    0    0  502    0  0.00000000000E+00  0.00000000000E+00  0.33531146650E+04  0.33531146650E+04  0.00000000000E+00 0.  1.
         -4   -1    0    0    0  501 -0.00000000000E+00 -0.00000000000E+00 -0.61509748643E+03  0.61509748643E+03  0.00000000000E+00 0. -1.
   -9000010    2    1    2    0  501 -0.33008215883E+03  0.49237488394E+03  0.21408046479E+03  0.11864296901E+04  0.10051854088E+04 0.  0.
    9000010    2    1    2  502    0  0.33008215883E+03 -0.49237488394E+03  0.25239367138E+04  0.27817824614E+04  0.10083004856E+04 0.  0.
        -13    1    4    4    0    0  0.56936361013E+03 -0.57834419777E+03  0.23135503543E+04  0.24517691948E+04  0.10566000000E+00 0.  1.
          4    1    4    4  502    0 -0.23928145129E+03  0.85969313827E+02  0.21038635952E+03  0.33001326659E+03  0.00000000000E+00 0.  1.
         13    1    3    3    0    0 -0.45838530036E+02  0.40432967523E+03  0.58393384431E+03  0.71173197399E+03  0.10566000000E+00 0. -1.
         -4    1    3    3    0  501 -0.28424362880E+03  0.88045208719E+02 -0.36985337952E+03  0.47469771606E+03  0.00000000000E+00 0. -1.
<mgrwt>
<rscale>  0 0.11682968E+04</rscale>
<asrwt>0</asrwt>
<pdfrwt beam="1">  1        4 0.51586378E+00 0.11696397E+04</pdfrwt>
<pdfrwt beam="2">  1       -4 0.94630384E-01 0.11669554E+04</pdfrwt>
<totfact> 0.46300344E-02</totfact>
</mgrwt>
</event>
<event>
 8    1  0.2939692E-006  0.1203900E+04  0.7818608E-02  0.8605903E-01
          4   -1    0    0  502    0  0.00000000000E+00  0.00000000000E+00  0.53792630812E+03  0.53792630812E+03  0.00000000000E+00 0. -1.
         -4   -1    0    0    0  501 -0.00000000000E+00 -0.00000000000E+00 -0.28134640100E+04  0.28134640100E+04  0.00000000000E+00 0.  1.
   -9000010    2    1    2    0  501  0.37836142467E+03 -0.55685216343E+03 -0.77126541297E+03  0.14246806761E+04  0.99076888929E+03 0.  0.
    9000010    2    1    2  502    0 -0.37836142467E+03  0.55685216343E+03 -0.15042722889E+04  0.19267096420E+04  0.99806474034E+03 0.  0.
        -13    1    4    4    0    0  0.91832591829E+02  0.43766537499E+03 -0.12456781742E+03  0.46422123787E+03  0.10566000000E+00 0.  1.
          4    1    4    4  502    0 -0.47019401650E+03  0.11918678844E+03 -0.13797044714E+04  0.14624884041E+04  0.00000000000E+00 0.  1.
         13    1    3    3    0    0  0.34800009676E+03 -0.81612481544E+03 -0.40595397976E+03  0.97568561871E+03  0.10566000000E+00 0. -1.
         -4    1    3    3    0  501  0.30361327908E+02  0.25927265201E+03 -0.36531143320E+03  0.44899505737E+03  0.00000000000E+00 0. -1.
<mgrwt>
<rscale>  0 0.12008753E+04</rscale>
<asrwt>0</asrwt>
<pdfrwt beam="1">  1        4 0.82757893E-01 0.12038999E+04</pdfrwt>
<pdfrwt beam="2">  1       -4 0.43284062E+00 0.11978584E+04</pdfrwt>
<totfact> 0.14801243E-01</totfact>
</mgrwt>
</event>
<event>
 8    1  0.2939692E-006  0.1125699E+04  0.7818608E-02  0.8668030E-01
         -4   -1    0    0    0  501 -0.00000000000E+00  0.00000000000E+00  0.31493315480E+04  0.31493315480E+04  0.00000000000E+00 0. -1.
          4   -1    0    0  502    0  0.00000000000E+00 -0.00000000000E+00 -0.66512849934E+03  0.66512849934E+03  0.00000000000E+00 0.  1.
   -9000010    2    1    2    0  501  0.24096918126E+03  0.43088013123E+03  0.24501261956E+04  0.26963524126E+04  0.10116689798E+04 0.  0.
    9000010    2    1    2  502    0 -0.24096918126E+03 -0.43088013123E+03  0.34076853059E+02  0.11181076347E+04  0.10026363334E+04 0.  0.
        -13    1    4    4    0    0 -0.22757729447E+03 -0.57151587345E+03  0.39463464376E+03  0.73086136290E+03  0.10566000000E+00 0.  1.
          4    1    4    4  502    0 -0.13391886787E+02  0.14063574221E+03 -0.36055779070E+03  0.38724627184E+03  0.00000000000E+00 0.  1.
         13    1    3    3    0    0 -0.31273759344E+03  0.36411421691E+03  0.62577606308E+03  0.78865686936E+03  0.10566000000E+00 0. -1.
         -4    1    3    3    0  501  0.55370677470E+03  0.66765914323E+02  0.18243501325E+04  0.19076955432E+04  0.00000000000E+00 0. -1.
<mgrwt>
<rscale>  0 0.11216362E+04</rscale>
<asrwt>0</asrwt>
<pdfrwt beam="2">  1        4 0.10232746E+00 0.11175882E+04</pdfrwt>
<pdfrwt beam="1">  1       -4 0.48451253E+00 0.11256989E+04</pdfrwt>
<totfact> 0.56022562E-02</totfact>
</mgrwt>
</event>
<event>
 8    1  0.2939692E-006  0.1149987E+04  0.7818608E-02  0.8645725E-01
          4   -1    0    0  502    0  0.00000000000E+00  0.00000000000E+00  0.13429112129E+04  0.13429112129E+04  0.00000000000E+00 0.  1.
         -4   -1    0    0    0  501 -0.00000000000E+00 -0.00000000000E+00 -0.26162301430E+04  0.26162301430E+04  0.00000000000E+00 0. -1.
   -9000010    2    1    2    0  501 -0.30477802635E+03 -0.48189027456E+03 -0.22002801956E+04  0.24820744878E+04  0.99717247330E+03 0.  0.
    9000010    2    1    2  502    0  0.30477802635E+03  0.48189027456E+03  0.92696126553E+03  0.14770668682E+04  0.99867986023E+03 0.  0.
        -13    1    4    4    0    0  0.31450863037E+03  0.50743929774E+03  0.49358162048E+02  0.59903802784E+03  0.10566000000E+00 0.  1.
          4    1    4    4  502    0 -0.97306040208E+01 -0.25549023181E+02  0.87760310349E+03  0.87802884035E+03  0.00000000000E+00 0.  1.
         13    1    3    3    0    0 -0.20726861165E+03 -0.16317238670E+03 -0.72803545301E+01  0.26389111369E+03  0.10566000000E+00 0. -1.
         -4    1    3    3    0  501 -0.97509414703E+02 -0.31871788786E+03 -0.21929998411E+04  0.22181833741E+04  0.00000000000E+00 0. -1.
<mgrwt>
<rscale>  0 0.11493321E+04</rscale>
<asrwt>0</asrwt>
<pdfrwt beam="1">  1        4 0.20660173E+00 0.11499867E+04</pdfrwt>
<pdfrwt beam="2">  1       -4 0.40249694E+00 0.11486779E+04</pdfrwt>
<totfact> 0.44506290E-02</totfact>
</mgrwt>
</event>
<event>
 8    1  0.2939692E-006  0.1021214E+04  0.7818608E-02  0.8761464E-01
          4   -1    0    0  502    0  0.00000000000E+00  0.00000000000E+00  0.58832686541E+03  0.58832686541E+03  0.00000000000E+00 0.  1.
         -4   -1    0    0    0  501 -0.00000000000E+00 -0.00000000000E+00 -0.32435650449E+04  0.32435650449E+04  0.00000000000E+00 0. -1.
   -9000010    2    1    2    0  501  0.11771826526E+03 -0.29999385549E+02 -0.26235600148E+04  0.28101870850E+04  0.99966331755E+03 0.  0.
    9000010    2    1    2  502    0 -0.11771826526E+03  0.29999385549E+02 -0.31678164698E+02  0.10217048253E+04  0.10139623715E+04 0.  0.
        -13    1    4    4    0    0 -0.56493694899E+03 -0.43859871527E+02  0.80136874716E+01  0.56669363417E+03  0.10566000000E+00 0.  1.
          4    1    4    4  502    0  0.44721868372E+03  0.73859257076E+02 -0.39691852170E+02  0.45501119113E+03  0.00000000000E+00 0.  1.
         13    1    3    3    0    0 -0.33311597975E+03  0.14264182493E+03 -0.19387219063E+04  0.19722970332E+04  0.10566000000E+00 0. -1.
         -4    1    3    3    0  501  0.45083424501E+03 -0.17264121048E+03 -0.68483810850E+03  0.83789005179E+03  0.00000000000E+00 0. -1.
<mgrwt>
<rscale>  0 0.10140907E+04</rscale>
<asrwt>0</asrwt>
<pdfrwt beam="1">  1        4 0.90511828E-01 0.10212136E+04</pdfrwt>
<pdfrwt beam="2">  1       -4 0.49900999E+00 0.10070175E+04</pdfrwt>
<totfact> 0.61535589E-02</totfact>
</mgrwt>
</event>
<event>
 8    1  0.2939692E-006  0.1008766E+04  0.7818608E-02  0.8778029E-01
         -4   -1    0    0    0  501 -0.00000000000E+00  0.00000000000E+00  0.23646783838E+04  0.23646783838E+04  0.00000000000E+00 0. -1.
          4   -1    0    0  502    0  0.00000000000E+00 -0.00000000000E+00 -0.63150049790E+03  0.63150049790E+03  0.00000000000E+00 0.  1.
   -9000010    2    1    2    0  501 -0.96419889973E+02  0.13219917814E+02  0.17409151739E+04  0.20120620806E+04  0.10040600640E+04 0.  0.
    9000010    2    1    2  502    0  0.96419889973E+02 -0.13219917814E+02 -0.77372880237E+01  0.98411680105E+03  0.97926219731E+03 0.  0.
        -13    1    4    4    0    0 -0.35535480652E+03  0.24625469945E+03  0.11803429110E+03  0.44816349757E+03  0.10566000000E+00 0.  1.
          4    1    4    4  502    0  0.45177469649E+03 -0.25947461727E+03 -0.12577157913E+03  0.53595330348E+03  0.00000000000E+00 0.  1.
         13    1    3    3    0    0 -0.13869353711E+03 -0.64670716592E+01 -0.99652018216E+02  0.17090423094E+03  0.10566000000E+00 0. -1.
         -4    1    3    3    0  501  0.42273647142E+02  0.19686989473E+02  0.18405671921E+04  0.18411578497E+04  0.00000000000E+00 0. -1.
<mgrwt>
<rscale>  0 0.99634962E+03</rscale>
<asrwt>0</asrwt>
<pdfrwt beam="2">  1        4 0.97153924E-01 0.98408638E+03</pdfrwt>
<pdfrwt beam="1">  1       -4 0.36379667E+00 0.10087657E+04</pdfrwt>
<totfact> 0.20404224E-01</totfact>
</mgrwt>
</event>
<event>
 8    1  0.2939692E-006  0.1242973E+04  0.7818608E-02  0.8585777E-01
         -4   -1    0    0    0  501 -0.00000000000E+00  0.00000000000E+00  0.23999652055E+04  0.23999652055E+04  0.00000000000E+00 0. -1.
          4   -1    0    0  502    0  0.00000000000E+00 -0.00000000000E+00 -0.80334522460E+03  0.80334522460E+03  0.00000000000E+00 0.  1.
   -9000010    2    1    2    0  501 -0.52424185070E+03 -0.44864017779E+03  0.15380800239E+04  0.19589600342E+04  0.99786107675E+03 0.  0.
    9000010    2    1    2  502    0  0.52424185070E+03  0.44864017779E+03  0.58539957037E+02  0.12443503959E+04  0.10338633634E+04 0.  0.
        -13    1    4    4    0    0  0.43710223710E+03  0.87700821571E+02  0.49841858075E+03  0.66870837634E+03  0.10566000000E+00 0.  1.
          4    1    4    4  502    0  0.87139613608E+02  0.36093935622E+03 -0.43987862371E+03  0.57564201960E+03  0.00000000000E+00 0.  1.
         13    1    3    3    0    0 -0.39789459768E+03 -0.33581843833E+03  0.12460229261E+03  0.53536891661E+03  0.10566000000E+00 0. -1.
         -4    1    3    3    0  501 -0.12634725303E+03 -0.11282173946E+03  0.14134777312E+04  0.14235911176E+04  0.00000000000E+00 0. -1.
<mgrwt>
<rscale>  0 0.12279919E+04</rscale>
<asrwt>0</asrwt>
<pdfrwt beam="2">  1        4 0.12359157E+00 0.12429726E+04</pdfrwt>
<pdfrwt beam="1">  1       -4 0.36922541E+00 0.12131918E+04</pdfrwt>
<totfact> 0.12476131E-01</totfact>
</mgrwt>
</event>
<event>
 8    1  0.2939692E-006  0.1158692E+04  0.7818608E-02  0.8647791E-01
         -4   -1    0    0    0  501 -0.00000000000E+00  0.00000000000E+00  0.35052065856E+04  0.35052065856E+04  0.00000000000E+00 0. -1.
          4   -1    0    0  502    0  0.00000000000E+00 -0.00000000000E+00 -0.38298082804E+03  0.38298082804E+03  0.00000000000E+00 0.  1.
   -9000010    2    1    2    0  501 -0.40277093371E+03 -0.33605492549E+03  0.12680767047E+04  0.17017668332E+04  0.10063967844E+04 0.  0.
    9000010    2    1    2  502    0  0.40277093371E+03  0.33605492549E+03  0.18541490528E+04  0.21864205804E+04  0.10331548317E+04 0.  0.
        -13    1    4    4    0    0  0.14346731543E+03  0.30306179617E+03  0.18927243975E+04  0.19221953540E+04  0.10566000000E+00 0.  1.
          4    1    4    4  502    0  0.25930361828E+03  0.32993129319E+02 -0.38575344691E+02  0.26422522637E+03  0.00000000000E+00 0.  1.
         13    1    3    3    0    0  0.12039367116E+03  0.22720568999E+03  0.50849497244E+02  0.26211208318E+03  0.10566000000E+00 0. -1.
         -4    1    3    3    0  501 -0.52316460486E+03 -0.56326061548E+03  0.12172272075E+04  0.14396547501E+04  0.00000000000E+00 0. -1.
<mgrwt>
<rscale>  0 0.11467327E+04</rscale>
<asrwt>0</asrwt>
<pdfrwt beam="2">  1        4 0.58920130E-01 0.11586916E+04</pdfrwt>
<pdfrwt beam="1">  1       -4 0.53926253E+00 0.11348973E+04</pdfrwt>
<totfact> 0.96499779E-02</totfact>
</mgrwt>
</event>
<event>
 8    1  0.2939692E-006  0.1300636E+04  0.7818608E-02  0.8542022E-01
         -4   -1    0    0    0  501 -0.00000000000E+00  0.00000000000E+00  0.11557748300E+04  0.11557748300E+04  0.00000000000E+00 0. -1.
          4   -1    0    0  502    0  0.00000000000E+00 -0.00000000000E+00 -0.17087884390E+04  0.17087884390E+04  0.00000000000E+00 0.  1.
   -9000010    2    1    2    0  501 -0.13317235093E+03  0.78753162888E+03  0.29069901426E+03  0.13327260242E+04  0.10265046503E+04 0.  0.
    9000010    2    1    2  502    0  0.13317235093E+03 -0.78753162888E+03 -0.84371262331E+03  0.15318372448E+04  0.99836537008E+03 0.  0.
        -13    1    4    4    0    0  0.28001548445E+02 -0.10160669654E+04 -0.75071296804E+03  0.12636242070E+04  0.10566000000E+00 0.  1.
          4    1    4    4  502    0  0.10517080249E+03  0.22853533655E+03 -0.92999655272E+02  0.26821303777E+03  0.00000000000E+00 0.  1.
         13    1    3    3    0    0  0.10599928400E+03  0.78310546929E+03 -0.17481035907E+03  0.80935078739E+03  0.10566000000E+00 0. -1.
         -4    1    3    3    0  501 -0.23917163493E+03  0.44261595869E+01  0.46550937333E+03  0.52337523681E+03  0.00000000000E+00 0. -1.
<mgrwt>
<rscale>  0 0.12895424E+04</rscale>
<asrwt>0</asrwt>
<pdfrwt beam="2">  1        4 0.26289053E+00 0.12785438E+04</pdfrwt>
<pdfrwt beam="1">  1       -4 0.17781151E+00 0.13006355E+04</pdfrwt>
<totfact> 0.14712853E-01</totfact>
</mgrwt>
</event>
<event>
 8    1  0.2939692E-006  0.1186915E+04  0.7818608E-02  0.8670995E-01
         -4   -1    0    0    0  501 -0.00000000000E+00  0.00000000000E+00  0.91391414574E+03  0.91391414574E+03  0.00000000000E+00 0. -1.
          4   -1    0    0  502    0  0.00000000000E+00 -0.00000000000E+00 -0.18401991429E+04  0.18401991429E+04  0.00000000000E+00 0.  1.
   -9000010    2    1    2    0  501  0.38385924644E+03  0.10166995553E+03  0.20945551216E+03  0.12052542683E+04  0.11185175630E+04 0.  0.
    9000010    2    1    2  502    0 -0.38385924644E+03 -0.10166995553E+03 -0.11357405093E+04  0.15488590203E+04  0.97538354475E+03 0.  0.
        -13    1    4    4    0    0  0.30271524574E+03  0.61877999115E+02 -0.16984936015E+03  0.35258222174E+03  0.10566000000E+00 0.  1.
          4    1    4    4  502    0 -0.68657449218E+03 -0.16354795465E+03 -0.96589114919E+03  0.11962767986E+04  0.00000000000E+00 0.  1.
         13    1    3    3    0    0  0.30282415475E+03 -0.45335382241E+03  0.32198178122E+03  0.63317014743E+03  0.10566000000E+00 0. -1.
         -4    1    3    3    0  501  0.81035091691E+02  0.55502377794E+03 -0.11252626906E+03  0.57208412091E+03  0.00000000000E+00 0. -1.
<mgrwt>
<rscale>  0 0.11180167E+04</rscale>
<asrwt>0</asrwt>
<pdfrwt beam="2">  1        4 0.28310756E+00 0.10531181E+04</pdfrwt>
<pdfrwt beam="1">  1       -4 0.14060218E+00 0.11869146E+04</pdfrwt>
<totfact> 0.18620585E-01</totfact>
</mgrwt>
</event>
<event>
 8    1  0.2939692E-006  0.1022775E+04  0.7818608E-02  0.8805942E-01
         -4   -1    0    0    0  501 -0.00000000000E+00  0.00000000000E+00  0.16613856244E+04  0.16613856244E+04  0.00000000000E+00 0. -1.
          4   -1    0    0  502    0  0.00000000000E+00 -0.00000000000E+00 -0.13817937558E+04  0.13817937558E+04  0.00000000000E+00 0.  1.
   -9000010    2    1    2    0  501  0.19083843755E+03  0.16556383909E+03  0.13057719183E+04  0.15943470724E+04  0.87924489791E+03 0.  0.
    9000010    2    1    2  502    0 -0.19083843755E+03 -0.16556383909E+03 -0.10261800497E+04  0.14488323078E+04  0.99107964751E+03 0.  0.
        -13    1    4    4    0    0 -0.18698061135E+03  0.40362629275E+03 -0.54502959855E+03  0.70351489514E+03  0.10566000000E+00 0.  1.
          4    1    4    4  502    0 -0.38578261924E+01 -0.56919013183E+03 -0.48115045115E+03  0.74531741268E+03  0.00000000000E+00 0.  1.
         13    1    3    3    0    0  0.40946828622E+03 -0.22505463463E+02  0.20896138937E+03  0.46025606647E+03  0.10566000000E+00 0. -1.
         -4    1    3    3    0  501 -0.21862984868E+03  0.18806930255E+03  0.10968105289E+04  0.11340910059E+04  0.00000000000E+00 0. -1.
<mgrwt>
<rscale>  0 0.96729475E+03</rscale>
<asrwt>0</asrwt>
<pdfrwt beam="2">  1        4 0.21258366E+00 0.10227754E+04</pdfrwt>
<pdfrwt beam="1">  1       -4 0.25559779E+00 0.91482364E+03</pdfrwt>
<totfact> 0.12321691E-01</totfact>
</mgrwt>
</event>
<event>
 8    1  0.2939692E-006  0.1199892E+04  0.7818608E-02  0.8621303E-01
         -4   -1    0    0    0  501 -0.00000000000E+00  0.00000000000E+00  0.95211225713E+03  0.95211225713E+03  0.00000000000E+00 0. -1.
          4   -1    0    0  502    0  0.00000000000E+00 -0.00000000000E+00 -0.29890873943E+04  0.29890873943E+04  0.00000000000E+00 0.  1.
   -9000010    2    1    2    0  501 -0.57277340477E+03  0.23312497749E+03  0.39693324526E+03  0.12275947057E+04  0.98336978392E+03 0.  0.
    9000010    2    1    2  502    0  0.57277340477E+03 -0.23312497749E+03 -0.24339083824E+04  0.27136049457E+04  0.10282631760E+04 0.  0.
        -13    1    4    4    0    0 -0.28320603188E+03 -0.27895284466E+02 -0.34777781843E+03  0.44936980934E+03  0.10566000000E+00 0.  1.
          4    1    4    4  502    0  0.85597943665E+03 -0.20522969302E+03 -0.20861305640E+04  0.22642351364E+04  0.00000000000E+00 0.  1.
         13    1    3    3    0    0 -0.17113448874E+03  0.47018324043E+02 -0.33103257599E+03  0.37560659414E+03  0.10566000000E+00 0. -1.
         -4    1    3    3    0  501 -0.40163891603E+03  0.18610665344E+03  0.72796582125E+03  0.85198811155E+03  0.00000000000E+00 0. -1.
<mgrwt>
<rscale>  0 0.11806168E+04</rscale>
<asrwt>0</asrwt>
<pdfrwt beam="2">  1        4 0.45985959E+00 0.11998924E+04</pdfrwt>
<pdfrwt beam="1">  1       -4 0.14647881E+00 0.11616509E+04</pdfrwt>
<totfact> 0.39834775E-02</totfact>
</mgrwt>
</event>
<event>
 8    1  0.2939692E-006  0.1153440E+04  0.7818608E-02  0.8667745E-01
         -4   -1    0    0    0  501 -0.00000000000E+00  0.00000000000E+00  0.30650405595E+04  0.30650405595E+04  0.00000000000E+00 0. -1.
          4   -1    0    0  502    0  0.00000000000E+00 -0.00000000000E+00 -0.11345380588E+04  0.11345380588E+04  0.00000000000E+00 0.  1.
   -9000010    2    1    2    0  501  0.17552281624E+03 -0.11902309848E+03  0.26321822773E+04  0.28494751900E+04  0.10705842146E+04 0.  0.
    9000010    2    1    2  502    0 -0.17552281624E+03  0.11902309848E+03 -0.70167977658E+03  0.13501034282E+04  0.11337768745E+04 0.  0.
        -13    1    4    4    0    0  0.13848865347E+03 -0.14924276722E+03  0.24422932684E+03  0.31796302609E+03  0.10566000000E+00 0.  1.
          4    1    4    4  502    0 -0.31401146971E+03  0.26826586570E+03 -0.94590910342E+03  0.10321404021E+04  0.00000000000E+00 0.  1.
         13    1    3    3    0    0  0.10076110988E+03 -0.49391136369E+03  0.60929506707E+03  0.79078551224E+03  0.10566000000E+00 0. -1.
         -4    1    3    3    0  501  0.74761706354E+02  0.37488826521E+03  0.20228872102E+04  0.20586896778E+04  0.00000000000E+00 0. -1.
<mgrwt>
<rscale>  0 0.11219847E+04</rscale>
<asrwt>0</asrwt>
<pdfrwt beam="2">  1        4 0.17454432E+00 0.11534404E+04</pdfrwt>
<pdfrwt beam="1">  1       -4 0.47154470E+00 0.10913869E+04</pdfrwt>
<totfact> 0.27610326E-02</totfact>
</mgrwt>
</event>
<event>
 8    1  0.2939692E-006  0.1208916E+04  0.7818608E-02  0.8636555E-01
         -4   -1    0    0    0  501 -0.00000000000E+00  0.00000000000E+00  0.21899723293E+04  0.21899723293E+04  0.00000000000E+00 0. -1.
          4   -1    0    0  502    0  0.00000000000E+00 -0.00000000000E+00 -0.13526264492E+04  0.13526264492E+04  0.00000000000E+00 0.  1.
   -9000010    2    1    2    0  501 -0.43086494431E+02 -0.50708079718E+03  0.17172086304E+04  0.20473939621E+04  0.99198244687E+03 0.  0.
    9000010    2    1    2  502    0  0.43086494431E+02  0.50708079718E+03 -0.87986275037E+03  0.14952048163E+04  0.10965817810E+04 0.  0.
        -13    1    4    4    0    0  0.28502518203E+03  0.52379653089E+02 -0.93341549348E+03  0.97736762637E+03  0.10566000000E+00 0.  1.
          4    1    4    4  502    0 -0.24193868760E+03  0.45470114409E+03  0.53552743113E+02  0.51783718995E+03  0.00000000000E+00 0.  1.
         13    1    3    3    0    0  0.12531935336E+02 -0.62617995917E+03  0.44472627579E+03  0.76814052244E+03  0.10566000000E+00 0. -1.
         -4    1    3    3    0  501 -0.55618429767E+02  0.11909916198E+03  0.12724823546E+04  0.12792534397E+04  0.00000000000E+00 0. -1.
<mgrwt>
<rscale>  0 0.11609603E+04</rscale>
<asrwt>0</asrwt>
<pdfrwt beam="2">  1        4 0.20809638E+00 0.12089165E+04</pdfrwt>
<pdfrwt beam="1">  1       -4 0.33691882E+00 0.11149065E+04</pdfrwt>
<totfact> 0.76247106E-02</totfact>
</mgrwt>
</event>
<event>
 8    1  0.2939692E-006  0.1325206E+04  0.7818608E-02  0.8537285E-01
          4   -1    0    0  502    0  0.00000000000E+00  0.00000000000E+00  0.31772111314E+04  0.31772111314E+04  0.00000000000E+00 0.  1.
         -4   -1    0    0    0  501 -0.00000000000E+00 -0.00000000000E+00 -0.18724107366E+04  0.18724107366E+04  0.00000000000E+00 0. -1.
   -9000010    2    1    2    0  501 -0.21069997611E+03 -0.77601747241E+03 -0.14899197420E+04  0.19566245309E+04  0.98077577456E+03 0.  0.
    9000010    2    1    2  502    0  0.21069997611E+03  0.77601747241E+03  0.27947201367E+04  0.30929973371E+04  0.10533633217E+04 0.  0.
        -13    1    4    4    0    0 -0.11556791546E+03 -0.34514655813E+01  0.17293219279E+04  0.17331826785E+04  0.10566000000E+00 0.  1.
          4    1    4    4  502    0  0.32626789157E+03  0.77946893799E+03  0.10653982089E+04  0.13598146586E+04  0.00000000000E+00 0.  1.
         13    1    3    3    0    0 -0.45548452178E+03 -0.41868586170E+03 -0.13761084687E+04  0.15087871054E+04  0.10566000000E+00 0. -1.
         -4    1    3    3    0  501  0.24478454566E+03 -0.35733161071E+03 -0.11381127324E+03  0.44783742555E+03  0.00000000000E+00 0. -1.
<mgrwt>
<rscale>  0 0.12964276E+04</rscale>
<asrwt>0</asrwt>
<pdfrwt beam="1">  1        4 0.48880171E+00 0.13252064E+04</pdfrwt>
<pdfrwt beam="2">  1       -4 0.28806319E+00 0.12682739E+04</pdfrwt>
<totfact> 0.11212872E-02</totfact>
</mgrwt>
</event>
<event>
 8    1  0.2939692E-006  0.1899635E+04  0.7818608E-02  0.8211458E-01
         -4   -1    0    0    0  501 -0.00000000000E+00  0.00000000000E+00  0.27267254176E+04  0.27267254176E+04  0.00000000000E+00 0. -1.
          4   -1    0    0  502    0  0.00000000000E+00 -0.00000000000E+00 -0.31661398495E+04  0.31661398495E+04  0.00000000000E+00 0.  1.
   -9000010    2    1    2    0  501  0.48790387504E+03  0.15387429249E+04  0.20300380316E+04  0.27772899831E+04  0.99322971169E+03 0.  0.
    9000010    2    1    2  502    0 -0.48790387504E+03 -0.15387429249E+04 -0.24694524635E+04  0.31155752841E+04  0.10014159482E+04 0.  0.
        -13    1    4    4    0    0 -0.67416819887E+03 -0.48736851395E+03 -0.10779440000E+04  0.13616145222E+04  0.10566000000E+00 0.  1.
          4    1    4    4  502    0  0.18626432383E+03 -0.10513744109E+04 -0.13915084634E+04  0.17539607618E+04  0.00000000000E+00 0.  1.
         13    1    3    3    0    0  0.61042411876E+03  0.16153188210E+04  0.17303011648E+04  0.24445479399E+04  0.10566000000E+00 0. -1.
         -4    1    3    3    0  501 -0.12252024372E+03 -0.76575896147E+02  0.29973686674E+03  0.33274204314E+03  0.00000000000E+00 0. -1.
<mgrwt>
<rscale>  0 0.18974826E+04</rscale>
<asrwt>0</asrwt>
<pdfrwt beam="2">  1        4 0.48709844E+00 0.18996352E+04</pdfrwt>
<pdfrwt beam="1">  1       -4 0.41949622E+00 0.18953325E+04</pdfrwt>
<totfact> 0.37658578E-03</totfact>
</mgrwt>
</event>
<event>
 8    1  0.2939692E-006  0.1406893E+04  0.7818608E-02  0.8466809E-01
         -4   -1    0    0    0  501 -0.00000000000E+00  0.00000000000E+00  0.12218656701E+04  0.12218656701E+04  0.00000000000E+00 0. -1.
          4   -1    0    0  502    0  0.00000000000E+00 -0.00000000000E+00 -0.22446514141E+04  0.22446514141E+04  0.00000000000E+00 0.  1.
   -9000010    2    1    2    0  501 -0.79349693496E+03 -0.59152873947E+03  0.40805974910E+03  0.14598613379E+04  0.99254155163E+03 0.  0.
    9000010    2    1    2  502    0  0.79349693496E+03  0.59152873947E+03 -0.14308454930E+04  0.20066557463E+04  0.99990240705E+03 0.  0.
        -13    1    4    4    0    0 -0.17633689664E+03  0.18385764410E+03 -0.32587245917E+02  0.25682732365E+03  0.10566000000E+00 0.  1.
          4    1    4    4  502    0  0.96983383160E+03  0.40767109537E+03 -0.13982582471E+04  0.17498284226E+04  0.00000000000E+00 0.  1.
         13    1    3    3    0    0 -0.74806531900E+03 -0.64406032252E+02  0.52732524486E+03  0.91750846509E+03  0.10566000000E+00 0. -1.
         -4    1    3    3    0  501 -0.45431615958E+02 -0.52712270722E+03 -0.11926549575E+03  0.54235287284E+03  0.00000000000E+00 0. -1.
<mgrwt>
<rscale>  0 0.14042798E+04</rscale>
<asrwt>0</asrwt>
<pdfrwt beam="2">  1        4 0.34533098E+00 0.14068932E+04</pdfrwt>
<pdfrwt beam="1">  1       -4 0.18797934E+00 0.14016713E+04</pdfrwt>
<totfact> 0.80333162E-02</totfact>
</mgrwt>
</event>
<event>
 8    1  0.2939692E-006  0.1242984E+04  0.7818608E-02  0.8576307E-01
          4   -1    0    0  502    0  0.00000000000E+00  0.00000000000E+00  0.12586330650E+04  0.12586330650E+04  0.00000000000E+00 0.  1.
         -4   -1    0    0    0  501 -0.00000000000E+00 -0.00000000000E+00 -0.20664099109E+04  0.20664099109E+04  0.00000000000E+00 0. -1.
   -9000010    2    1    2    0  501 -0.64016147309E+03 -0.36999228656E+03 -0.14652415627E+04  0.19188887460E+04  0.99423346290E+03 0.  0.
    9000010    2    1    2  502    0  0.64016147309E+03  0.36999228656E+03  0.65746471688E+03  0.14061542299E+04  0.99915407252E+03 0.  0.
        -13    1    4    4    0    0  0.78505365847E+03  0.22469943662E+03  0.81023335869E+03  0.11503378592E+04  0.10566000000E+00 0.  1.
          4    1    4    4  502    0 -0.14489218538E+03  0.14529284994E+03 -0.15276864181E+03  0.25581637077E+03  0.00000000000E+00 0.  1.
         13    1    3    3    0    0 -0.60141387450E+03 -0.23153911092E+03 -0.15980890967E+04  0.17231360308E+04  0.10566000000E+00 0. -1.
         -4    1    3    3    0  501 -0.38747598586E+02 -0.13845317564E+03  0.13284753399E+03  0.19575271526E+03  0.00000000000E+00 0. -1.
<mgrwt>
<rscale>  0 0.12410067E+04</rscale>
<asrwt>0</asrwt>
<pdfrwt beam="1">  1        4 0.19363586E+00 0.12429843E+04</pdfrwt>
<pdfrwt beam="2">  1       -4 0.31790922E+00 0.12390324E+04</pdfrwt>
<totfact> 0.94189029E-02</totfact>
</mgrwt>
</event>
<event>
 8    1  0.2939692E-006  0.1193271E+04  0.7818608E-02  0.8614558E-01
          4   -1    0    0  502    0  0.00000000000E+00  0.00000000000E+00  0.22254954254E+04  0.22254954254E+04  0.00000000000E+00 0.  1.
         -4   -1    0    0    0  501 -0.00000000000E+00 -0.00000000000E+00 -0.12186634048E+04  0.12186634048E+04  0.00000000000E+00 0. -1.
   -9000010    2    1    2    0  501 -0.37013531611E+03 -0.54225475267E+03 -0.68846646924E+03  0.13710132626E+04  0.98724410246E+03 0.  0.
    9000010    2    1    2  502    0  0.37013531611E+03  0.54225475267E+03  0.16952984898E+04  0.20731455676E+04  0.99642119908E+03 0.  0.
        -13    1    4    4    0    0  0.19813885367E+03  0.65942466331E+03  0.47804239603E+03  0.83822695941E+03  0.10566000000E+00 0.  1.
          4    1    4    4  502    0  0.17199646244E+03 -0.11716991064E+03  0.12172560938E+04  0.12349186082E+04  0.00000000000E+00 0.  1.
         13    1    3    3    0    0 -0.46187542207E+02 -0.69326343386E+03 -0.73401706406E+03  0.10107069502E+04  0.10566000000E+00 0. -1.
         -4    1    3    3    0  501 -0.32394777390E+03  0.15100868119E+03  0.45550594821E+02  0.36030631232E+03  0.00000000000E+00 0. -1.
<mgrwt>
<rscale>  0 0.11894386E+04</rscale>
<asrwt>0</asrwt>
<pdfrwt beam="1">  1        4 0.34238391E+00 0.11932710E+04</pdfrwt>
<pdfrwt beam="2">  1       -4 0.18748668E+00 0.11856185E+04</pdfrwt>
<totfact> 0.83759849E-02</totfact>
</mgrwt>
</event>
<event>
 8    1  0.2939692E-006  0.1250031E+04  0.7818608E-02  0.8574157E-01
         -4   -1    0    0    0  501 -0.00000000000E+00  0.00000000000E+00  0.24601989878E+04  0.24601989878E+04  0.00000000000E+00 0. -1.
          4   -1    0    0  502    0  0.00000000000E+00 -0.00000000000E+00 -0.97537543985E+03  0.97537543985E+03  0.00000000000E+00 0.  1.
   -9000010    2    1    2    0  501  0.38424130248E+03 -0.62950947510E+03  0.17683464832E+04  0.21655548279E+04  0.10092843358E+04 0.  0.
    9000010    2    1    2  502    0 -0.38424130248E+03  0.62950947510E+03 -0.28352293520E+03  0.12700195997E+04  0.99430426488E+03 0.  0.
        -13    1    4    4    0    0 -0.34837409761E+03  0.69673282471E+03  0.18063973285E+03  0.79964483689E+03  0.10566000000E+00 0.  1.
          4    1    4    4  502    0 -0.35867204865E+02 -0.67223349610E+02 -0.46416266805E+03  0.47037476285E+03  0.00000000000E+00 0.  1.
         13    1    3    3    0    0  0.71305729958E+03 -0.35963166508E+03  0.13524554161E+04  0.15706435976E+04  0.10566000000E+00 0. -1.
         -4    1    3    3    0  501 -0.32881599710E+03 -0.26987781002E+03  0.41589106711E+03  0.59491123035E+03  0.00000000000E+00 0. -1.
<mgrwt>
<rscale>  0 0.12439850E+04</rscale>
<asrwt>0</asrwt>
<pdfrwt beam="2">  1        4 0.15005776E+00 0.12379679E+04</pdfrwt>
<pdfrwt beam="1">  1       -4 0.37849215E+00 0.12500314E+04</pdfrwt>
<totfact> 0.84860309E-02</totfact>
</mgrwt>
</event>
<event>
 8    1  0.2939692E-006  0.1005300E+04  0.7818608E-02  0.8779571E-01
          4   -1    0    0  502    0  0.00000000000E+00  0.00000000000E+00  0.70719824698E+03  0.70719824698E+03  0.00000000000E+00 0.  1.
         -4   -1    0    0    0  501 -0.00000000000E+00 -0.00000000000E+00 -0.14310247640E+04  0.14310247640E+04  0.00000000000E+00 0. -1.
   -9000010    2    1    2    0  501 -0.63908171965E+01  0.10996108035E+03 -0.52486734290E+03  0.11340697066E+04  0.99924776205E+03 0.  0.
    9000010    2    1    2  502    0  0.63908171965E+01 -0.10996108035E+03 -0.19895917413E+03  0.10041533044E+04  0.97806279150E+03 0.  0.
        -13    1    4    4    0    0  0.40823784931E+03 -0.21476766364E+03  0.12446389183E+03  0.47778087287E+03  0.10566000000E+00 0.  1.
          4    1    4    4  502    0 -0.40184703211E+03  0.10480658329E+03 -0.32342306596E+03  0.52637243157E+03  0.00000000000E+00 0.  1.
         13    1    3    3    0    0  0.15635061164E+03  0.47894555719E+03 -0.52932412706E+03  0.73076562806E+03  0.10566000000E+00 0. -1.
         -4    1    3    3    0  501 -0.16274142884E+03 -0.36898447684E+03  0.44567841540E+01  0.40330407850E+03  0.00000000000E+00 0. -1.
<mgrwt>
<rscale>  0 0.99471709E+03</rscale>
<asrwt>0</asrwt>
<pdfrwt beam="1">  1        4 0.10879973E+00 0.98424545E+03</pdfrwt>
<pdfrwt beam="2">  1       -4 0.22015766E+00 0.10053001E+04</pdfrwt>
<totfact> 0.40385105E-01</totfact>
</mgrwt>
</event>
<event>
 8    1  0.2939692E-006  0.1173925E+04  0.7818608E-02  0.8629082E-01
         -4   -1    0    0    0  501 -0.00000000000E+00  0.00000000000E+00  0.64796406490E+03  0.64796406490E+03  0.00000000000E+00 0.  1.
          4   -1    0    0  502    0  0.00000000000E+00 -0.00000000000E+00 -0.23678971925E+04  0.23678971925E+04  0.00000000000E+00 0. -1.
   -9000010    2    1    2    0  501 -0.24049608076E+03  0.56318174664E+03 -0.36454847188E+03  0.12227724583E+04  0.99361202280E+03 0.  0.
    9000010    2    1    2  502    0  0.24049608076E+03 -0.56318174664E+03 -0.13553846557E+04  0.17930887990E+04  0.10015427259E+04 0.  0.
        -13    1    4    4    0    0 -0.36501033470E+03 -0.10789787768E+03 -0.25883375986E+03  0.46029275777E+03  0.10566000000E+00 0.  1.
          4    1    4    4  502    0  0.60550641546E+03 -0.45528386896E+03 -0.10965508958E+04  0.13327960413E+04  0.00000000000E+00 0.  1.
         13    1    3    3    0    0 -0.58064714467E+03  0.58260571780E+03 -0.21169366496E+03  0.84934960292E+03  0.10566000000E+00 0. -1.
         -4    1    3    3    0  501  0.34015106391E+03 -0.19423971163E+02 -0.15285480691E+03  0.37342285539E+03  0.00000000000E+00 0. -1.
<mgrwt>
<rscale>  0 0.11705407E+04</rscale>
<asrwt>0</asrwt>
<pdfrwt beam="2">  1        4 0.36429188E+00 0.11739250E+04</pdfrwt>
<pdfrwt beam="1">  1       -4 0.99686777E-01 0.11671662E+04</pdfrwt>
<totfact> 0.19131468E-01</totfact>
</mgrwt>
</event>
<event>
 8    1  0.2939692E-006  0.1504499E+04  0.7818608E-02  0.8407196E-01
          4   -1    0    0  502    0  0.00000000000E+00  0.00000000000E+00  0.21032442166E+04  0.21032442166E+04  0.00000000000E+00 0.  1.
         -4   -1    0    0    0  501 -0.00000000000E+00 -0.00000000000E+00 -0.32811603817E+04  0.32811603817E+04  0.00000000000E+00 0. -1.
   -9000010    2    1    2    0  501  0.97430991131E+01 -0.11300381307E+04 -0.27963304907E+04  0.31753711650E+04  0.99319520620E+03 0.  0.
    9000010    2    1    2  502    0 -0.97430991131E+01  0.11300381307E+04  0.16184143256E+04  0.22090334333E+04  0.99170695039E+03 0.  0.
        -13    1    4    4    0    0  0.60168640394E+02  0.10953678847E+04  0.73115042144E+03  0.13183444231E+04  0.10566000000E+00 0.  1.
          4    1    4    4  502    0 -0.69911739507E+02  0.34670246034E+02  0.88726390416E+03  0.89068901021E+03  0.00000000000E+00 0.  1.
         13    1    3    3    0    0 -0.80888702153E+02 -0.93698381379E+03 -0.10243487181E+04  0.13906012933E+04  0.10566000000E+00 0. -1.
         -4    1    3    3    0  501  0.90631801266E+02 -0.19305431692E+03 -0.17719817726E+04  0.17847698717E+04  0.00000000000E+00 0. -1.
<mgrwt>
<rscale>  0 0.15040081E+04</rscale>
<asrwt>0</asrwt>
<pdfrwt beam="1">  1        4 0.32357603E+00 0.15035171E+04</pdfrwt>
<pdfrwt beam="2">  1       -4 0.50479390E+00 0.15044992E+04</pdfrwt>
<totfact> 0.73181290E-03</totfact>
</mgrwt>
</event>
<event>
 8    1  0.2939692E-006  0.1958045E+04  0.7818608E-02  0.8188291E-01
          4   -1    0    0  502    0  0.00000000000E+00  0.00000000000E+00  0.10497203166E+04  0.10497203166E+04  0.00000000000E+00 0.  1.
         -4   -1    0    0    0  501 -0.00000000000E+00 -0.00000000000E+00 -0.36307197495E+04  0.36307197495E+04  0.00000000000E+00 0. -1.
   -9000010    2    1    2    0  501  0.51482252687E+03 -0.15920113367E+04 -0.12390206547E+04  0.23066565068E+04  0.99295001237E+03 0.  0.
    9000010    2    1    2  502    0 -0.51482252687E+03  0.15920113367E+04 -0.13419787783E+04  0.23737835593E+04  0.10170540865E+04 0.  0.
        -13    1    4    4    0    0  0.18402256222E+02  0.89090545901E+03 -0.11792043042E+04  0.14780304402E+04  0.10566000000E+00 0.  1.
          4    1    4    4  502    0 -0.53322478310E+03  0.70110587769E+03 -0.16277447405E+03  0.89575311914E+03  0.00000000000E+00 0.  1.
         13    1    3    3    0    0  0.26423489518E+03 -0.32090709309E+03  0.11636224083E+03  0.43167305276E+03  0.10566000000E+00 0. -1.
         -4    1    3    3    0  501  0.25058763169E+03 -0.12711042436E+04 -0.13553828955E+04  0.18749834540E+04  0.00000000000E+00 0. -1.
<mgrwt>
<rscale>  0 0.19518298E+04</rscale>
<asrwt>0</asrwt>
<pdfrwt beam="1">  1        4 0.16149543E+00 0.19580453E+04</pdfrwt>
<pdfrwt beam="2">  1       -4 0.55857227E+00 0.19456341E+04</pdfrwt>
<totfact> 0.10859829E-02</totfact>
</mgrwt>
</event>
<event>
 8    1  0.2939692E-006  0.1292945E+04  0.7818608E-02  0.8541922E-01
         -4   -1    0    0    0  501 -0.00000000000E+00  0.00000000000E+00  0.10422285740E+04  0.10422285740E+04  0.00000000000E+00 0. -1.
          4   -1    0    0  502    0  0.00000000000E+00 -0.00000000000E+00 -0.20319012822E+04  0.20319012822E+04  0.00000000000E+00 0.  1.
   -9000010    2    1    2    0  501  0.14765198795E+03 -0.77068710425E+03  0.21618118227E+03  0.13108934068E+04  0.10275930606E+04 0.  0.
    9000010    2    1    2  502    0 -0.14765198795E+03  0.77068710425E+03 -0.12058538904E+04  0.17632364494E+04  0.10193917055E+04 0.  0.
        -13    1    4    4    0    0 -0.94024238559E+02 -0.95503247262E+02  0.11914416923E+03  0.17932309360E+03  0.10566000000E+00 0.  1.
          4    1    4    4  502    0 -0.53627749392E+02  0.86619035152E+03 -0.13249980596E+04  0.15839133558E+04  0.00000000000E+00 0.  1.
         13    1    3    3    0    0 -0.18387879287E+03 -0.90256817513E+03  0.24439989348E+03  0.95298060857E+03  0.10566000000E+00 0. -1.
         -4    1    3    3    0  501  0.33153078082E+03  0.13188107087E+03 -0.28218711213E+02  0.35791279824E+03  0.00000000000E+00 0. -1.
<mgrwt>
<rscale>  0 0.12896868E+04</rscale>
<asrwt>0</asrwt>
<pdfrwt beam="2">  1        4 0.31260019E+00 0.12864366E+04</pdfrwt>
<pdfrwt beam="1">  1       -4 0.16034286E+00 0.12929452E+04</pdfrwt>
<totfact> 0.12604375E-01</totfact>
</mgrwt>
</event>
<event>
 8    1  0.2939692E-006  0.1033613E+04  0.7818608E-02  0.8745050E-01
         -4   -1    0    0    0  501 -0.00000000000E+00  0.00000000000E+00  0.12260948577E+04  0.12260948577E+04  0.00000000000E+00 0. -1.
          4   -1    0    0  502    0  0.00000000000E+00 -0.00000000000E+00 -0.96926053615E+03  0.96926053615E+03  0.00000000000E+00 0.  1.
   -9000010    2    1    2    0  501  0.13910152562E+03  0.23248366937E+03  0.48213310821E+03  0.11405296335E+04  0.99747562373E+03 0.  0.
    9000010    2    1    2  502    0 -0.13910152562E+03 -0.23248366937E+03 -0.22529878667E+03  0.10548257603E+04  0.99423334807E+03 0.  0.
        -13    1    4    4    0    0 -0.18794138600E+03 -0.60466985802E+03 -0.24495759858E+03  0.67893434001E+03  0.10566000000E+00 0.  1.
          4    1    4    4  502    0  0.48839860376E+02  0.37218618865E+03  0.19658811908E+02  0.37589142032E+03  0.00000000000E+00 0.  1.
         13    1    3    3    0    0  0.12290210685E+03  0.13520697853E+03 -0.30050948283E+03  0.35169847220E+03  0.10566000000E+00 0. -1.
         -4    1    3    3    0  501  0.16199418775E+02  0.97276690843E+02  0.78264259104E+03  0.78883116132E+03  0.00000000000E+00 0. -1.
<mgrwt>
<rscale>  0 0.10320474E+04</rscale>
<asrwt>0</asrwt>
<pdfrwt beam="2">  1        4 0.14911700E+00 0.10304843E+04</pdfrwt>
<pdfrwt beam="1">  1       -4 0.18862998E+00 0.10336128E+04</pdfrwt>
<totfact> 0.29497307E-01</totfact>
</mgrwt>
</event>
<event>
 8    1  0.2939692E-006  0.1185594E+04  0.7818608E-02  0.8628540E-01
         -4   -1    0    0    0  501 -0.00000000000E+00  0.00000000000E+00  0.17133766327E+04  0.17133766327E+04  0.00000000000E+00 0. -1.
          4   -1    0    0  502    0  0.00000000000E+00 -0.00000000000E+00 -0.16895901513E+04  0.16895901513E+04  0.00000000000E+00 0.  1.
   -9000010    2    1    2    0  501  0.35290139564E+03 -0.45785182277E+03  0.12460069172E+04  0.17199321314E+04  0.10351162312E+04 0.  0.
    9000010    2    1    2  502    0 -0.35290139564E+03  0.45785182277E+03 -0.12222204359E+04  0.16830346527E+04  0.10023049244E+04 0.  0.
        -13    1    4    4    0    0 -0.39860247209E+03  0.75615855094E+03 -0.92444466411E+03  0.12590701462E+04  0.10566000000E+00 0.  1.
          4    1    4    4  502    0  0.45701076450E+02 -0.29830672817E+03 -0.29777577179E+03  0.42396450645E+03  0.00000000000E+00 0.  1.
         13    1    3    3    0    0  0.45602919319E+03  0.13007485988E+03  0.19806982699E+03  0.51391999547E+03  0.10566000000E+00 0. -1.
         -4    1    3    3    0  501 -0.10312779755E+03 -0.58792668266E+03  0.10479370903E+04  0.12060121359E+04  0.00000000000E+00 0. -1.
<mgrwt>
<rscale>  0 0.11712391E+04</rscale>
<asrwt>0</asrwt>
<pdfrwt beam="2">  1        4 0.25993695E+00 0.11570578E+04</pdfrwt>
<pdfrwt beam="1">  1       -4 0.26359640E+00 0.11855941E+04</pdfrwt>
<totfact> 0.89064460E-02</totfact>
</mgrwt>
</event>
<event>
 8    1  0.2939692E-006  0.1138585E+04  0.7818608E-02  0.8658037E-01
         -4   -1    0    0    0  501 -0.00000000000E+00  0.00000000000E+00  0.26317476306E+04  0.26317476306E+04  0.00000000000E+00 0. -1.
          4   -1    0    0  502    0  0.00000000000E+00 -0.00000000000E+00 -0.14622397882E+04  0.14622397882E+04  0.00000000000E+00 0.  1.
   -9000010    2    1    2    0  501 -0.53925980515E+03  0.40075734005E+02  0.22543045118E+04  0.25213589425E+04  0.99144081168E+03 0.  0.
    9000010    2    1    2  502    0  0.53925980515E+03 -0.40075734005E+02 -0.10847966693E+04  0.15726284764E+04  0.10019826889E+04 0.  0.
        -13    1    4    4    0    0 -0.58539890101E+02 -0.29683904741E+03  0.59116439583E+01  0.30261410658E+03  0.10566000000E+00 0.  1.
          4    1    4    4  502    0  0.59779969525E+03  0.25676331341E+03 -0.10907083133E+04  0.12700143698E+04  0.00000000000E+00 0.  1.
         13    1    3    3    0    0  0.26314882127E+02 -0.30386080990E+03  0.14400222135E+04  0.14719673404E+04  0.10566000000E+00 0. -1.
         -4    1    3    3    0  501 -0.56557468728E+03  0.34393654391E+03  0.81428229830E+03  0.10493916020E+04  0.00000000000E+00 0. -1.
<mgrwt>
<rscale>  0 0.11339428E+04</rscale>
<asrwt>0</asrwt>
<pdfrwt beam="2">  1        4 0.22495997E+00 0.11385853E+04</pdfrwt>
<pdfrwt beam="1">  1       -4 0.40488425E+00 0.11293193E+04</pdfrwt>
<totfact> 0.39127225E-02</totfact>
</mgrwt>
</event>
<event>
 8    1  0.2939692E-006  0.1243394E+04  0.7818608E-02  0.8575302E-01
          4   -1    0    0  502    0  0.00000000000E+00  0.00000000000E+00  0.30935212848E+04  0.30935212848E+04  0.00000000000E+00 0.  1.
         -4   -1    0    0    0  501 -0.00000000000E+00 -0.00000000000E+00 -0.19776956921E+04  0.19776956921E+04  0.00000000000E+00 0. -1.
   -9000010    2    1    2    0  501 -0.54698728217E+03 -0.50408835096E+03 -0.16347388218E+04  0.20526687714E+04  0.99387017110E+03 0.  0.
    9000010    2    1    2  502    0  0.54698728217E+03  0.50408835096E+03  0.27505644146E+04  0.30185482055E+04  0.99635762535E+03 0.  0.
        -13    1    4    4    0    0 -0.84837117069E+02  0.17226776720E+03  0.16335622435E+02  0.19271840538E+03  0.10566000000E+00 0.  1.
          4    1    4    4  502    0  0.63182439924E+03  0.33182058375E+03  0.27342287922E+04  0.28258298001E+04  0.00000000000E+00 0.  1.
         13    1    3    3    0    0 -0.61935567465E+03 -0.27883590149E+02 -0.13683236190E+04  0.15022278402E+04  0.10566000000E+00 0. -1.
         -4    1    3    3    0  501  0.72368392476E+02 -0.47620476081E+03 -0.26641520281E+03  0.55044093120E+03  0.00000000000E+00 0. -1.
<mgrwt>
<rscale>  0 0.12423974E+04</rscale>
<asrwt>0</asrwt>
<pdfrwt beam="1">  1        4 0.47592635E+00 0.12433940E+04</pdfrwt>
<pdfrwt beam="2">  1       -4 0.30426088E+00 0.12414017E+04</pdfrwt>
<totfact> 0.11726535E-02</totfact>
</mgrwt>
</event>
<event>
 8    1  0.2939692E-006  0.1280107E+04  0.7818608E-02  0.8645288E-01
          4   -1    0    0  502    0  0.00000000000E+00  0.00000000000E+00  0.12695124960E+04  0.12695124960E+04  0.00000000000E+00 0.  1.
         -4   -1    0    0    0  501 -0.00000000000E+00 -0.00000000000E+00 -0.14567472714E+04  0.14567472714E+04  0.00000000000E+00 0. -1.
   -9000010    2    1    2    0  501 -0.24033383235E+03 -0.20989342848E+03 -0.80054377822E+03  0.13068159625E+04  0.98238587979E+03 0.  0.
    9000010    2    1    2  502    0  0.24033383235E+03  0.20989342848E+03  0.61330900282E+03  0.14194438048E+04  0.12397004395E+04 0.  0.
        -13    1    4    4    0    0 -0.23324500843E+03  0.42503793097E+03  0.73943938181E+03  0.88421212798E+03  0.10566000000E+00 0.  1.
          4    1    4    4  502    0  0.47357884078E+03 -0.21514450248E+03 -0.12613037899E+03  0.53523167683E+03  0.00000000000E+00 0.  1.
         13    1    3    3    0    0 -0.38176749879E+03 -0.24698387266E+03  0.37381682227E+02  0.45622895328E+03  0.10566000000E+00 0. -1.
         -4    1    3    3    0  501  0.14143366644E+03  0.37090444172E+02 -0.83792546044E+03  0.85058700925E+03  0.00000000000E+00 0. -1.
<mgrwt>
<rscale>  0 0.11498832E+04</rscale>
<asrwt>0</asrwt>
<pdfrwt beam="1">  1        4 0.19530962E+00 0.12801066E+04</pdfrwt>
<pdfrwt beam="2">  1       -4 0.22411496E+00 0.10329074E+04</pdfrwt>
<totfact> 0.16202172E-01</totfact>
</mgrwt>
</event>
<event>
 8    1  0.2939692E-006  0.1157551E+04  0.7818608E-02  0.8648606E-01
         -4   -1    0    0    0  501 -0.00000000000E+00  0.00000000000E+00  0.46522245940E+03  0.46522245940E+03  0.00000000000E+00 0.  1.
          4   -1    0    0  502    0  0.00000000000E+00 -0.00000000000E+00 -0.28757019536E+04  0.28757019536E+04  0.00000000000E+00 0. -1.
   -9000010    2    1    2    0  501 -0.47446562743E+03  0.26131891656E+03 -0.98881181910E+03  0.15223906047E+04  0.10229951769E+04 0.  0.
    9000010    2    1    2  502    0  0.47446562743E+03 -0.26131891656E+03 -0.14216676751E+04  0.18185338083E+04  0.99625349470E+03 0.  0.
        -13    1    4    4    0    0  0.27031418804E+03 -0.55420714586E+03 -0.13043148416E+04  0.14427239992E+04  0.10566000000E+00 0.  1.
          4    1    4    4  502    0  0.20415143939E+03  0.29288822930E+03 -0.11735283353E+03  0.37580980908E+03  0.00000000000E+00 0.  1.
         13    1    3    3    0    0 -0.66099477522E+03  0.21787317888E+03 -0.10994416564E+04  0.13012128120E+04  0.10566000000E+00 0. -1.
         -4    1    3    3    0  501  0.18652914779E+03  0.43445737676E+02  0.11062983734E+03  0.22117779275E+03  0.00000000000E+00 0. -1.
<mgrwt>
<rscale>  0 0.11457084E+04</rscale>
<asrwt>0</asrwt>
<pdfrwt beam="2">  1        4 0.44241569E+00 0.11339869E+04</pdfrwt>
<pdfrwt beam="1">  1       -4 0.71572685E-01 0.11575510E+04</pdfrwt>
<totfact> 0.18184193E-01</totfact>
</mgrwt>
</event>
<event>
 8    1  0.2939692E-006  0.2092141E+04  0.7818608E-02  0.8132050E-01
         -4   -1    0    0    0  501 -0.00000000000E+00  0.00000000000E+00  0.26655281118E+04  0.26655281118E+04  0.00000000000E+00 0. -1.
          4   -1    0    0  502    0  0.00000000000E+00 -0.00000000000E+00 -0.22626491337E+04  0.22626491337E+04  0.00000000000E+00 0.  1.
   -9000010    2    1    2    0  501 -0.12761076027E+04  0.13151699904E+04  0.14926547026E+04  0.25700331941E+04  0.10094205468E+04 0.  0.
    9000010    2    1    2  502    0  0.12761076027E+04 -0.13151699904E+04 -0.10897757245E+04  0.23581440514E+04  0.10075264365E+04 0.  0.
        -13    1    4    4    0    0  0.10323647127E+04 -0.66405250832E+03 -0.11207999731E+04  0.16622079366E+04  0.10566000000E+00 0.  1.
          4    1    4    4  502    0  0.24374289004E+03 -0.65111748206E+03  0.31024248586E+02  0.69593611481E+03  0.00000000000E+00 0.  1.
         13    1    3    3    0    0 -0.13996666135E+04  0.12713782693E+04  0.15315070110E+04  0.24333070231E+04  0.10566000000E+00 0. -1.
         -4    1    3    3    0  501  0.12355901078E+03  0.43791721043E+02 -0.38852308381E+02  0.13672617103E+03  0.00000000000E+00 0. -1.
<mgrwt>
<rscale>  0 0.20916840E+04</rscale>
<asrwt>0</asrwt>
<pdfrwt beam="2">  1        4 0.34809987E+00 0.20912274E+04</pdfrwt>
<pdfrwt beam="1">  1       -4 0.41008125E+00 0.20921407E+04</pdfrwt>
<totfact> 0.15777633E-02</totfact>
</mgrwt>
</event>
<event>
 8    1  0.2939692E-006  0.1360115E+04  0.7818608E-02  0.8496143E-01
         -4   -1    0    0    0  501 -0.00000000000E+00  0.00000000000E+00  0.19081793393E+04  0.19081793393E+04  0.00000000000E+00 0. -1.
          4   -1    0    0  502    0  0.00000000000E+00 -0.00000000000E+00 -0.31342231690E+04  0.31342231690E+04  0.00000000000E+00 0.  1.
   -9000010    2    1    2    0  501 -0.90486889095E+03  0.18669692513E+03  0.14833757033E+04  0.20125400133E+04  0.99813344615E+03 0.  0.
    9000010    2    1    2  502    0  0.90486889095E+03 -0.18669692513E+03 -0.27094195329E+04  0.30298624950E+04  0.99270795375E+03 0.  0.
        -13    1    4    4    0    0  0.83665084050E+03  0.28022786020E+03 -0.16872708260E+04  0.19040470409E+04  0.10566000000E+00 0.  1.
          4    1    4    4  502    0  0.68218050447E+02 -0.46692478533E+03 -0.10221487069E+04  0.11258154540E+04  0.00000000000E+00 0.  1.
         13    1    3    3    0    0  0.66977680779E+02  0.21691032387E+02 -0.11488185573E+03  0.13473812582E+03  0.10566000000E+00 0. -1.
         -4    1    3    3    0  501 -0.97184657173E+03  0.16500589274E+03  0.15982575590E+04  0.18778018875E+04  0.00000000000E+00 0. -1.
<mgrwt>
<rscale>  0 0.13581256E+04</rscale>
<asrwt>0</asrwt>
<pdfrwt beam="2">  1        4 0.48218818E+00 0.13561388E+04</pdfrwt>
<pdfrwt beam="1">  1       -4 0.29356605E+00 0.13601154E+04</pdfrwt>
<totfact> 0.11548079E-02</totfact>
</mgrwt>
</event>
<event>
 8    1  0.2939692E-006  0.1265054E+04  0.7818608E-02  0.8630159E-01
         -4   -1    0    0    0  501 -0.00000000000E+00  0.00000000000E+00  0.40002052191E+04  0.40002052191E+04  0.00000000000E+00 0. -1.
          4   -1    0    0  502    0  0.00000000000E+00 -0.00000000000E+00 -0.35227303389E+03  0.35227303389E+03  0.00000000000E+00 0.  1.
   -9000010    2    1    2    0  501  0.35569946169E+03 -0.14592474123E+03  0.20195789026E+04  0.22904658280E+04  0.10098111844E+04 0.  0.
    9000010    2    1    2  502    0 -0.35569946169E+03  0.14592474123E+03  0.16283532826E+04  0.20620124250E+04  0.12052156200E+04 0.  0.
        -13    1    4    4    0    0  0.34578136446E+03  0.37608959633E+03  0.50943464409E+03  0.72147890076E+03  0.10566000000E+00 0.  1.
          4    1    4    4  502    0 -0.70148082616E+03 -0.23016485510E+03  0.11189186385E+04  0.13405335242E+04  0.00000000000E+00 0.  1.
         13    1    3    3    0    0  0.56694315428E+03  0.11700909856E+03  0.60945193401E+03  0.84056370393E+03  0.10566000000E+00 0. -1.
         -4    1    3    3    0  501 -0.21124369259E+03 -0.26293383980E+03  0.14101269686E+04  0.14499021241E+04  0.00000000000E+00 0. -1.
<mgrwt>
<rscale>  0 0.11691546E+04</rscale>
<asrwt>0</asrwt>
<pdfrwt beam="2">  1        4 0.54195854E-01 0.12650537E+04</pdfrwt>
<pdfrwt beam="1">  1       -4 0.61541615E+00 0.10805252E+04</pdfrwt>
<totfact> 0.45653790E-02</totfact>
</mgrwt>
</event>
<event>
 8    1  0.2939692E-006  0.1115637E+04  0.7818608E-02  0.8695998E-01
         -4   -1    0    0    0  501 -0.00000000000E+00  0.00000000000E+00  0.13122259512E+04  0.13122259512E+04  0.00000000000E+00 0. -1.
          4   -1    0    0  502    0  0.00000000000E+00 -0.00000000000E+00 -0.12871827035E+04  0.12871827035E+04  0.00000000000E+00 0.  1.
   -9000010    2    1    2    0  501 -0.46103474029E+03 -0.31512435729E+03  0.72288928549E+03  0.13293665466E+04  0.96581059423E+03 0.  0.
    9000010    2    1    2  502    0  0.46103474029E+03  0.31512435729E+03 -0.69784603777E+03  0.12700421081E+04  0.90230896677E+03 0.  0.
        -13    1    4    4    0    0  0.53679364027E+03  0.56406497414E+03 -0.62872369569E+03  0.10008047782E+04  0.10566000000E+00 0.  1.
          4    1    4    4  502    0 -0.75758899980E+02 -0.24894061685E+03 -0.69122342073E+02  0.26923732991E+03  0.00000000000E+00 0.  1.
         13    1    3    3    0    0  0.14988756391E+03 -0.39944217579E+03  0.53577795836E+03  0.68489295911E+03  0.10566000000E+00 0. -1.
         -4    1    3    3    0  501 -0.61092230420E+03  0.84317818492E+02  0.18711132712E+03  0.64447358753E+03  0.00000000000E+00 0. -1.
<mgrwt>
<rscale>  0 0.10880474E+04</rscale>
<asrwt>0</asrwt>
<pdfrwt beam="2">  1        4 0.19802811E+00 0.10611399E+04</pdfrwt>
<pdfrwt beam="1">  1       -4 0.20188092E+00 0.11156373E+04</pdfrwt>
<totfact> 0.18210526E-01</totfact>
</mgrwt>
</event>
<event>
 8    1  0.2939692E-006  0.1137049E+04  0.7818608E-02  0.8658854E-01
          4   -1    0    0  502    0  0.00000000000E+00  0.00000000000E+00  0.90831110971E+03  0.90831110971E+03  0.00000000000E+00 0.  1.
         -4   -1    0    0    0  501 -0.00000000000E+00 -0.00000000000E+00 -0.16083668566E+04  0.16083668566E+04  0.00000000000E+00 0. -1.
   -9000010    2    1    2    0  501  0.48366065803E+03 -0.20014787189E+03 -0.78734115819E+03  0.13762839448E+04  0.10001322886E+04 0.  0.
    9000010    2    1    2  502    0 -0.48366065803E+03  0.20014787189E+03  0.87285411300E+02  0.11403940215E+04  0.10094022878E+04 0.  0.
        -13    1    4    4    0    0 -0.29731235608E+03 -0.39644766680E+03 -0.57357818785E+02  0.49885400683E+03  0.10566000000E+00 0.  1.
          4    1    4    4  502    0 -0.18634830195E+03  0.59659553869E+03  0.14464323008E+03  0.64154001468E+03  0.00000000000E+00 0.  1.
         13    1    3    3    0    0  0.40066306538E+03  0.86501804559E+02  0.11512658247E+03  0.42575532329E+03  0.10566000000E+00 0. -1.
         -4    1    3    3    0  501  0.82997592643E+02 -0.28664967645E+03 -0.90246774066E+03  0.95052862151E+03  0.00000000000E+00 0. -1.
<mgrwt>
<rscale>  0 0.11329306E+04</rscale>
<asrwt>0</asrwt>
<pdfrwt beam="1">  1        4 0.13974017E+00 0.11370487E+04</pdfrwt>
<pdfrwt beam="2">  1       -4 0.24744105E+00 0.11288274E+04</pdfrwt>
<totfact> 0.22811761E-01</totfact>
</mgrwt>
</event>
<event>
 8    1  0.2939692E-006  0.1183189E+04  0.7818608E-02  0.8624898E-01
          4   -1    0    0  502    0  0.00000000000E+00  0.00000000000E+00  0.68433748206E+03  0.68433748206E+03  0.00000000000E+00 0.  1.
         -4   -1    0    0    0  501 -0.00000000000E+00 -0.00000000000E+00 -0.24158198089E+04  0.24158198089E+04  0.00000000000E+00 0. -1.
   -9000010    2    1    2    0  501 -0.12932032058E+03  0.58212193903E+03 -0.14880953562E+04  0.18921950637E+04  0.10051789257E+04 0.  0.
    9000010    2    1    2  502    0  0.12932032058E+03 -0.58212193903E+03 -0.24338697061E+03  0.12079622272E+04  0.10219323988E+04 0.  0.
        -13    1    4    4    0    0 -0.69642780072E+02 -0.12936463129E+02  0.35290955276E+03  0.35994809694E+03  0.10566000000E+00 0.  1.
          4    1    4    4  502    0  0.19896310065E+03 -0.56918547590E+03 -0.59629652338E+03  0.84801413030E+03  0.00000000000E+00 0.  1.
         13    1    3    3    0    0 -0.29136649057E+02 -0.33819637290E+02 -0.12069090286E+04  0.12077342947E+04  0.10566000000E+00 0. -1.
         -4    1    3    3    0  501 -0.10018367152E+03  0.61594157632E+03 -0.28118632768E+03  0.68446076904E+03  0.00000000000E+00 0. -1.
<mgrwt>
<rscale>  0 0.11759467E+04</rscale>
<asrwt>0</asrwt>
<pdfrwt beam="1">  1        4 0.10528269E+00 0.11831887E+04</pdfrwt>
<pdfrwt beam="2">  1       -4 0.37166459E+00 0.11687491E+04</pdfrwt>
<totfact> 0.16230712E-01</totfact>
</mgrwt>
</event>
<event>
 8    1  0.2939692E-006  0.1058332E+04  0.7818608E-02  0.8722128E-01
          4   -1    0    0  502    0  0.00000000000E+00  0.00000000000E+00  0.19123990729E+04  0.19123990729E+04  0.00000000000E+00 0.  1.
         -4   -1    0    0    0  501 -0.00000000000E+00 -0.00000000000E+00 -0.19438431239E+04  0.19438431239E+04  0.00000000000E+00 0. -1.
   -9000010    2    1    2    0  501  0.34914897523E+03 -0.14470955897E+03 -0.16277685362E+04  0.19409566775E+04  0.98733811488E+03 0.  0.
    9000010    2    1    2  502    0 -0.34914897523E+03  0.14470955897E+03  0.15963244852E+04  0.19152855194E+04  0.98854483721E+03 0.  0.
        -13    1    4    4    0    0  0.26706746736E+03  0.21965230875E+03  0.98546843898E+03  0.10443755188E+04  0.10566000000E+00 0.  1.
          4    1    4    4  502    0 -0.61621644258E+03 -0.74942749778E+02  0.61085604624E+03  0.87091000056E+03  0.00000000000E+00 0.  1.
         13    1    3    3    0    0 -0.27214212552E+03 -0.18580514642E+03 -0.10158257841E+04  0.10679358237E+04  0.10566000000E+00 0. -1.
         -4    1    3    3    0  501  0.62129110075E+03  0.41095587445E+02 -0.61194275217E+03  0.87302085376E+03  0.00000000000E+00 0. -1.
<mgrwt>
<rscale>  0 0.10577684E+04</rscale>
<asrwt>0</asrwt>
<pdfrwt beam="1">  1        4 0.29421524E+00 0.10583321E+04</pdfrwt>
<pdfrwt beam="2">  1       -4 0.29905279E+00 0.10572050E+04</pdfrwt>
<totfact> 0.60186209E-02</totfact>
</mgrwt>
</event>
<event>
 8    1  0.2939692E-006  0.1861110E+04  0.7818608E-02  0.8240413E-01
          4   -1    0    0  502    0  0.00000000000E+00  0.00000000000E+00  0.27169507691E+04  0.27169507691E+04  0.00000000000E+00 0.  1.
         -4   -1    0    0    0  501 -0.00000000000E+00 -0.00000000000E+00 -0.16394166880E+04  0.16394166880E+04  0.00000000000E+00 0. -1.
   -9000010    2    1    2    0  501  0.83384382537E+03  0.12528582698E+04 -0.54841773063E+03  0.18850416417E+04  0.99381618740E+03 0.  0.
    9000010    2    1    2  502    0 -0.83384382537E+03 -0.12528582698E+04  0.16259518118E+04  0.24713258154E+04  0.10948893197E+04 0.  0.
        -13    1    4    4    0    0 -0.90330049001E+03 -0.61172110482E+03  0.14274088266E+04  0.17965662957E+04  0.10566000000E+00 0.  1.
          4    1    4    4  502    0  0.69456664635E+02 -0.64113716493E+03  0.19854298522E+03  0.67475951975E+03  0.00000000000E+00 0.  1.
         13    1    3    3    0    0  0.41488711815E+03  0.12990209641E+03 -0.53110664226E+03  0.68635278981E+03  0.10566000000E+00 0. -1.
         -4    1    3    3    0  501  0.41895670722E+03  0.11229561733E+04 -0.17311088371E+02  0.11986888519E+04  0.00000000000E+00 0. -1.
<mgrwt>
<rscale>  0 0.18320799E+04</rscale>
<asrwt>0</asrwt>
<pdfrwt beam="1">  1        4 0.41799243E+00 0.18611104E+04</pdfrwt>
<pdfrwt beam="2">  1       -4 0.25221795E+00 0.18035021E+04</pdfrwt>
<totfact> 0.27622956E-02</totfact>
</mgrwt>
</event>
<event>
 8    1  0.2939692E-006  0.1120831E+04  0.7818608E-02  0.8687147E-01
          4   -1    0    0  502    0  0.00000000000E+00  0.00000000000E+00  0.20955007475E+04  0.20955007475E+04  0.00000000000E+00 0.  1.
         -4   -1    0    0    0  501 -0.00000000000E+00 -0.00000000000E+00 -0.10080413539E+04  0.10080413539E+04  0.00000000000E+00 0. -1.
   -9000010    2    1    2    0  501 -0.31684812219E+03 -0.17729593089E+03 -0.47814070351E+03  0.11780900927E+04  0.10136326527E+04 0.  0.
    9000010    2    1    2  502    0  0.31684812219E+03  0.17729593089E+03  0.15656000971E+04  0.19254520088E+04  0.10603938863E+04 0.  0.
        -13    1    4    4    0    0 -0.35457443969E+03  0.17762035745E+03  0.88306647887E+03  0.96802812042E+03  0.10566000000E+00 0.  1.
          4    1    4    4  502    0  0.67142256189E+03 -0.32442656729E+00  0.68253361827E+03  0.95742388833E+03  0.00000000000E+00 0.  1.
         13    1    3    3    0    0 -0.25324357820E+03 -0.42514644089E+03 -0.68777555723E+03  0.84729984916E+03  0.10566000000E+00 0. -1.
         -4    1    3    3    0  501 -0.63604543989E+02  0.24785051000E+03  0.20963485372E+03  0.33079024354E+03  0.00000000000E+00 0. -1.
<mgrwt>
<rscale>  0 0.10985426E+04</rscale>
<asrwt>0</asrwt>
<pdfrwt beam="1">  1        4 0.32238473E+00 0.11208308E+04</pdfrwt>
<pdfrwt beam="2">  1       -4 0.15508329E+00 0.10766976E+04</pdfrwt>
<totfact> 0.12549724E-01</totfact>
</mgrwt>
</event>
<event>
 8    1  0.2939692E-006  0.1051189E+04  0.7818608E-02  0.8733145E-01
         -4   -1    0    0    0  501 -0.00000000000E+00  0.00000000000E+00  0.32173589815E+04  0.32173589815E+04  0.00000000000E+00 0. -1.
          4   -1    0    0  502    0  0.00000000000E+00 -0.00000000000E+00 -0.52280755028E+03  0.52280755028E+03  0.00000000000E+00 0.  1.
   -9000010    2    1    2    0  501 -0.27209558274E+03  0.17799176931E+03  0.24493047287E+04  0.26607482442E+04  0.98730465862E+03 0.  0.
    9000010    2    1    2  502    0  0.27209558274E+03 -0.17799176931E+03  0.24524670245E+03  0.10794182875E+04  0.99964034445E+03 0.  0.
        -13    1    4    4    0    0 -0.23582062792E+03 -0.30677126685E+03 -0.15828038554E+03  0.41805821404E+03  0.10566000000E+00 0.  1.
          4    1    4    4  502    0  0.50791621066E+03  0.12877949754E+03  0.40352708799E+03  0.66136007347E+03  0.00000000000E+00 0.  1.
         13    1    3    3    0    0 -0.36860278958E+03  0.22183439930E+03  0.25045407119E+04  0.25412207118E+04  0.10566000000E+00 0. -1.
         -4    1    3    3    0  501  0.96507206843E+02 -0.43842629989E+02 -0.55235983180E+02  0.11952753246E+03  0.00000000000E+00 0. -1.
<mgrwt>
<rscale>  0 0.10453105E+04</rscale>
<asrwt>0</asrwt>
<pdfrwt beam="2">  1        4 0.80431933E-01 0.10511888E+04</pdfrwt>
<pdfrwt beam="1">  1       -4 0.49497829E+00 0.10394650E+04</pdfrwt>
<totfact> 0.81560473E-02</totfact>
</mgrwt>
</event>
<event>
 8    1  0.2939692E-006  0.1063973E+04  0.7818608E-02  0.8734156E-01
          4   -1    0    0  502    0  0.00000000000E+00  0.00000000000E+00  0.15486947954E+04  0.15486947954E+04  0.00000000000E+00 0.  1.
         -4   -1    0    0    0  501 -0.00000000000E+00 -0.00000000000E+00 -0.20660611990E+04  0.20660611990E+04  0.00000000000E+00 0. -1.
   -9000010    2    1    2    0  501 -0.12119368418E+03 -0.30080347225E+03 -0.17276012447E+04  0.20289516006E+04  0.10133449062E+04 0.  0.
    9000010    2    1    2  502    0  0.12119368418E+03  0.30080347225E+03  0.12102348411E+04  0.15858043938E+04  0.97207847763E+03 0.  0.
        -13    1    4    4    0    0  0.24850720983E+03  0.50329707164E+03  0.12236392038E+04  0.13462379760E+04  0.10566000000E+00 0.  1.
          4    1    4    4  502    0 -0.12731352565E+03 -0.20249359939E+03 -0.13404362691E+02  0.23956641781E+03  0.00000000000E+00 0.  1.
         13    1    3    3    0    0 -0.25315735601E+03 -0.59130711654E+03 -0.15140322753E+04  0.16450004544E+04  0.10566000000E+00 0. -1.
         -4    1    3    3    0  501  0.13196367183E+03  0.29050364429E+03 -0.21356896932E+03  0.38395114622E+03  0.00000000000E+00 0. -1.
<mgrwt>
<rscale>  0 0.10441760E+04</rscale>
<asrwt>0</asrwt>
<pdfrwt beam="1">  1        4 0.23826074E+00 0.10247474E+04</pdfrwt>
<pdfrwt beam="2">  1       -4 0.31785557E+00 0.10639730E+04</pdfrwt>
<totfact> 0.73201546E-02</totfact>
</mgrwt>
</event>
<event>
 8    1  0.2939692E-006  0.1226770E+04  0.7818608E-02  0.8591007E-01
         -4   -1    0    0    0  501 -0.00000000000E+00  0.00000000000E+00  0.13772503468E+04  0.13772503468E+04  0.00000000000E+00 0. -1.
          4   -1    0    0  502    0  0.00000000000E+00 -0.00000000000E+00 -0.11246750125E+04  0.11246750125E+04  0.00000000000E+00 0.  1.
   -9000010    2    1    2    0  501  0.14297801126E+03  0.68997374362E+03  0.36857867449E+03  0.12696827170E+04  0.98981689416E+03 0.  0.
    9000010    2    1    2  502    0 -0.14297801126E+03 -0.68997374362E+03 -0.11600334018E+03  0.12322426423E+04  0.10042204320E+04 0.  0.
        -13    1    4    4    0    0  0.13889655425E+03 -0.86128809920E+03  0.26750045528E+02  0.87282588109E+03  0.10566000000E+00 0.  1.
          4    1    4    4  502    0 -0.28187456551E+03  0.17131435558E+03 -0.14275338571E+03  0.35941676121E+03  0.00000000000E+00 0.  1.
         13    1    3    3    0    0  0.15475393935E+03  0.11170608207E+03 -0.31866075598E+03  0.37144544563E+03  0.10566000000E+00 0. -1.
         -4    1    3    3    0  501 -0.11775928093E+02  0.57826766155E+03  0.68723943047E+03  0.89823727137E+03  0.00000000000E+00 0. -1.
<mgrwt>
<rscale>  0 0.12208748E+04</rscale>
<asrwt>0</asrwt>
<pdfrwt beam="2">  1        4 0.17302693E+00 0.12267702E+04</pdfrwt>
<pdfrwt beam="1">  1       -4 0.21188467E+00 0.12150078E+04</pdfrwt>
<totfact> 0.20450359E-01</totfact>
</mgrwt>
</event>
<event>
 8    1  0.2939692E-006  0.1380776E+04  0.7818608E-02  0.8489090E-01
          4   -1    0    0  502    0  0.00000000000E+00  0.00000000000E+00  0.31420469437E+04  0.31420469437E+04  0.00000000000E+00 0.  1.
         -4   -1    0    0    0  501 -0.00000000000E+00 -0.00000000000E+00 -0.97293476272E+03  0.97293476272E+03  0.00000000000E+00 0. -1.
   -9000010    2    1    2    0  501 -0.92956721935E+03 -0.20886074176E+03 -0.18942691074E+03  0.13937094935E+04  0.99941261398E+03 0.  0.
    9000010    2    1    2  502    0  0.92956721935E+03  0.20886074176E+03  0.23585390918E+04  0.27212722130E+04  0.96690112471E+03 0.  0.
        -13    1    4    4    0    0  0.45845722925E+03  0.56556260634E+03  0.97502047407E+03  0.12168438802E+04  0.10566000000E+00 0.  1.
          4    1    4    4  502    0  0.47110999010E+03 -0.35670186457E+03  0.13835186177E+04  0.15044283328E+04  0.00000000000E+00 0.  1.
         13    1    3    3    0    0 -0.55140367382E+03 -0.43947118793E+03  0.27046539353E+03  0.75520359956E+03  0.10566000000E+00 0. -1.
         -4    1    3    3    0  501 -0.37816354553E+03  0.23061044617E+03 -0.45989230427E+03  0.63850589393E+03  0.00000000000E+00 0. -1.
<mgrwt>
<rscale>  0 0.13690534E+04</rscale>
<asrwt>0</asrwt>
<pdfrwt beam="1">  1        4 0.48339183E+00 0.13574299E+04</pdfrwt>
<pdfrwt beam="2">  1       -4 0.14968227E+00 0.13807764E+04</pdfrwt>
<totfact> 0.29452192E-02</totfact>
</mgrwt>
</event>
<event>
 8    1  0.2939692E-006  0.1116507E+04  0.7818608E-02  0.8677121E-01
          4   -1    0    0  502    0  0.00000000000E+00  0.00000000000E+00  0.11199265815E+04  0.11199265815E+04  0.00000000000E+00 0.  1.
         -4   -1    0    0    0  501 -0.00000000000E+00 -0.00000000000E+00 -0.24047655613E+04  0.24047655613E+04  0.00000000000E+00 0. -1.
   -9000010    2    1    2    0  501 -0.18929778738E+02  0.48908114878E+03 -0.19414451143E+04  0.22395972800E+04  0.10035079165E+04 0.  0.
    9000010    2    1    2  502    0  0.18929778738E+02 -0.48908114878E+03  0.65660613444E+03  0.12850948628E+04  0.99034260934E+03 0.  0.
        -13    1    4    4    0    0  0.16349698734E+03 -0.94293243095E+02  0.81443709878E+03  0.83602050190E+03  0.10566000000E+00 0.  1.
          4    1    4    4  502    0 -0.14456720860E+03 -0.39478790569E+03 -0.15783096433E+03  0.44907436086E+03  0.00000000000E+00 0.  1.
         13    1    3    3    0    0  0.40777650283E+03  0.42343635707E+03 -0.15465491725E+04  0.16545072919E+04  0.10566000000E+00 0. -1.
         -4    1    3    3    0  501 -0.42670628157E+03  0.65644791716E+02 -0.39489594174E+03  0.58508998813E+03  0.00000000000E+00 0. -1.
<mgrwt>
<rscale>  0 0.11105819E+04</rscale>
<asrwt>0</asrwt>
<pdfrwt beam="1">  1        4 0.17229640E+00 0.11046887E+04</pdfrwt>
<pdfrwt beam="2">  1       -4 0.36996393E+00 0.11165065E+04</pdfrwt>
<totfact> 0.75896151E-02</totfact>
</mgrwt>
</event>
<event>
 8    1  0.2939692E-006  0.1328140E+04  0.7818608E-02  0.8517311E-01
         -4   -1    0    0    0  501 -0.00000000000E+00  0.00000000000E+00  0.49793667530E+03  0.49793667530E+03  0.00000000000E+00 0. -1.
          4   -1    0    0  502    0  0.00000000000E+00 -0.00000000000E+00 -0.35385605766E+04  0.35385605766E+04  0.00000000000E+00 0.  1.
   -9000010    2    1    2    0  501  0.15954711881E+03  0.86510951280E+03 -0.14287200454E+04  0.19506915485E+04  0.99503105324E+03 0.  0.
    9000010    2    1    2  502    0 -0.15954711881E+03 -0.86510951280E+03 -0.16119038559E+04  0.20858057034E+04  0.98918230852E+03 0.  0.
        -13    1    4    4    0    0 -0.32976128422E+03 -0.36575723913E+03 -0.14539724624E+04  0.15351080728E+04  0.10566000000E+00 0.  1.
          4    1    4    4  502    0  0.17021416541E+03 -0.49935227367E+03 -0.15793139348E+03  0.55069763062E+03  0.00000000000E+00 0.  1.
         13    1    3    3    0    0 -0.33154264163E+03  0.93506332765E+02 -0.70395228007E+03  0.78371728402E+03  0.10566000000E+00 0. -1.
         -4    1    3    3    0  501  0.49108976044E+03  0.77160318003E+03 -0.72476776532E+03  0.11669742645E+04  0.00000000000E+00 0. -1.
<mgrwt>
<rscale>  0 0.13259504E+04</rscale>
<asrwt>0</asrwt>
<pdfrwt beam="2">  1        4 0.54439392E+00 0.13237641E+04</pdfrwt>
<pdfrwt beam="1">  1       -4 0.76605644E-01 0.13281403E+04</pdfrwt>
<totfact> 0.51452833E-02</totfact>
</mgrwt>
</event>
<event>
 8    1  0.2939692E-006  0.1199749E+04  0.7818608E-02  0.8620271E-01
         -4   -1    0    0    0  501 -0.00000000000E+00  0.00000000000E+00  0.34512566705E+04  0.34512566705E+04  0.00000000000E+00 0. -1.
          4   -1    0    0  502    0  0.00000000000E+00 -0.00000000000E+00 -0.10534408701E+04  0.10534408701E+04  0.00000000000E+00 0.  1.
   -9000010    2    1    2    0  501 -0.65941293511E+03 -0.11369582999E+03  0.29592322065E+04  0.31800892598E+04  0.95297444230E+03 0.  0.
    9000010    2    1    2  502    0  0.65941293511E+03  0.11369582999E+03 -0.56141640606E+03  0.13246082807E+04  0.99581451869E+03 0.  0.
        -13    1    4    4    0    0 -0.23115702439E+03  0.11201564567E+03  0.25345631926E+02  0.25811525918E+03  0.10566000000E+00 0.  1.
          4    1    4    4  502    0  0.89056995950E+03  0.16801843241E+01 -0.58676203798E+03  0.10664930215E+04  0.00000000000E+00 0.  1.
         13    1    3    3    0    0 -0.36154483378E+03  0.19294597283E+03  0.35859154438E+03  0.54454634525E+03  0.10566000000E+00 0. -1.
         -4    1    3    3    0  501 -0.29786810133E+03 -0.30664180282E+03  0.26006406621E+04  0.26355429146E+04  0.00000000000E+00 0. -1.
<mgrwt>
<rscale>  0 0.11819611E+04</rscale>
<asrwt>0</asrwt>
<pdfrwt beam="2">  1        4 0.16206783E+00 0.11997494E+04</pdfrwt>
<pdfrwt beam="1">  1       -4 0.53096256E+00 0.11644365E+04</pdfrwt>
<totfact> 0.16030952E-02</totfact>
</mgrwt>
</event>
<event>
 8    1  0.2939692E-006  0.1036144E+04  0.7818608E-02  0.8753826E-01
         -4   -1    0    0    0  501 -0.00000000000E+00  0.00000000000E+00  0.47326658786E+04  0.47326658786E+04  0.00000000000E+00 0. -1.
          4   -1    0    0  502    0  0.00000000000E+00 -0.00000000000E+00 -0.13599103726E+04  0.13599103726E+04  0.00000000000E+00 0.  1.
   -9000010    2    1    2    0  501  0.26856221034E+03  0.51119933891E+02  0.44705848131E+04  0.45829989088E+04  0.97108780185E+03 0.  0.
    9000010    2    1    2  502    0 -0.26856221034E+03 -0.51119933891E+02 -0.10978293070E+04  0.15095773424E+04  0.99942766465E+03 0.  0.
        -13    1    4    4    0    0  0.19797810630E+03 -0.13700932191E+03  0.68623392433E+02  0.25035188439E+03  0.10566000000E+00 0.  1.
          4    1    4    4  502    0 -0.46654031664E+03  0.85889388024E+02 -0.11664526995E+04  0.12592254580E+04  0.00000000000E+00 0.  1.
         13    1    3    3    0    0  0.27218576602E+03 -0.37084569466E+03  0.34205645747E+04  0.34513582314E+04  0.10566000000E+00 0. -1.
         -4    1    3    3    0  501 -0.36235556748E+01  0.42196562855E+03  0.10500202384E+04  0.11316406774E+04  0.00000000000E+00 0. -1.
<mgrwt>
<rscale>  0 0.10223990E+04</rscale>
<asrwt>0</asrwt>
<pdfrwt beam="2">  1        4 0.20921698E+00 0.10361441E+04</pdfrwt>
<pdfrwt beam="1">  1       -4 0.72810244E+00 0.10088362E+04</pdfrwt>
<totfact> 0.11565248E-03</totfact>
</mgrwt>
</event>
<event>
 8    1  0.2939692E-006  0.1087499E+04  0.7818608E-02  0.8704277E-01
         -4   -1    0    0    0  501 -0.00000000000E+00  0.00000000000E+00  0.36549524616E+04  0.36549524616E+04  0.00000000000E+00 0. -1.
          4   -1    0    0  502    0  0.00000000000E+00 -0.00000000000E+00 -0.13907721493E+04  0.13907721493E+04  0.00000000000E+00 0.  1.
   -9000010    2    1    2    0  501  0.36189972429E+03  0.38294662376E+02  0.33498272994E+04  0.35219308944E+04  0.10248006625E+04 0.  0.
    9000010    2    1    2  502    0 -0.36189972429E+03 -0.38294662376E+02 -0.10856469871E+04  0.15237937165E+04  0.10054252923E+04 0.  0.
        -13    1    4    4    0    0 -0.63015225511E+03 -0.23956882341E+03 -0.94336687813E+03  0.11594939257E+04  0.10566000000E+00 0.  1.
          4    1    4    4  502    0  0.26825253082E+03  0.20127416103E+03 -0.14228010894E+03  0.36429979082E+03  0.00000000000E+00 0.  1.
         13    1    3    3    0    0  0.11035062824E+03 -0.17865886179E+03  0.64245062379E+02  0.21959892817E+03  0.10566000000E+00 0. -1.
         -4    1    3    3    0  501  0.25154909605E+03  0.21695352417E+03  0.32855822370E+04  0.33023319663E+04  0.00000000000E+00 0. -1.
<mgrwt>
<rscale>  0 0.10783412E+04</rscale>
<asrwt>0</asrwt>
<pdfrwt beam="2">  1        4 0.21396495E+00 0.10692604E+04</pdfrwt>
<pdfrwt beam="1">  1       -4 0.56230037E+00 0.10874991E+04</pdfrwt>
<totfact> 0.77231035E-03</totfact>
</mgrwt>
</event>
<event>
 8    1  0.2939692E-006  0.1171132E+04  0.7818608E-02  0.8638348E-01
          4   -1    0    0  502    0  0.00000000000E+00  0.00000000000E+00  0.12136506909E+04  0.12136506909E+04  0.00000000000E+00 0.  1.
         -4   -1    0    0    0  501 -0.00000000000E+00 -0.00000000000E+00 -0.12987083586E+04  0.12987083586E+04  0.00000000000E+00 0. -1.
   -9000010    2    1    2    0  501 -0.11350418922E+03  0.53743146022E+03 -0.52638541101E+03  0.12839905376E+04  0.10343279578E+04 0.  0.
    9000010    2    1    2  502    0  0.11350418922E+03 -0.53743146022E+03  0.44132774331E+03  0.12283685119E+04  0.10061825126E+04 0.  0.
        -13    1    4    4    0    0 -0.37492613975E+02 -0.57842000208E+03  0.71055058429E+03  0.91698284548E+03  0.10566000000E+00 0.  1.
          4    1    4    4  502    0  0.15099680320E+03  0.40988541853E+02 -0.26922284099E+03  0.31138566641E+03  0.00000000000E+00 0.  1.
         13    1    3    3    0    0 -0.19009784975E+03  0.23481102706E+03 -0.80858316805E+03  0.86318026027E+03  0.10566000000E+00 0. -1.
         -4    1    3    3    0  501  0.76593660525E+02  0.30262043317E+03  0.28219775705E+03  0.42081027730E+03  0.00000000000E+00 0. -1.
<mgrwt>
<rscale>  0 0.11586749E+04</rscale>
<asrwt>0</asrwt>
<pdfrwt beam="1">  1        4 0.18671549E+00 0.11463503E+04</pdfrwt>
<pdfrwt beam="2">  1       -4 0.19980129E+00 0.11711320E+04</pdfrwt>
<totfact> 0.19887035E-01</totfact>
</mgrwt>
</event>
<event>
 8    1  0.2939692E-006  0.1050650E+04  0.7818608E-02  0.8733562E-01
         -4   -1    0    0    0  501 -0.00000000000E+00  0.00000000000E+00  0.15921165255E+04  0.15921165255E+04  0.00000000000E+00 0. -1.
          4   -1    0    0  502    0  0.00000000000E+00 -0.00000000000E+00 -0.17377133566E+04  0.17377133566E+04  0.00000000000E+00 0.  1.
   -9000010    2    1    2    0  501  0.15814543088E+03 -0.26491708172E+03  0.12224576558E+04  0.16119141477E+04  0.10043273679E+04 0.  0.
    9000010    2    1    2  502    0 -0.15814543088E+03  0.26491708172E+03 -0.13680544869E+04  0.17179157343E+04  0.99220479424E+03 0.  0.
        -13    1    4    4    0    0  0.13774566375E+03 -0.41336114600E+02  0.10915727177E+03  0.18054878398E+03  0.10566000000E+00 0.  1.
          4    1    4    4  502    0 -0.29589109463E+03  0.30625319632E+03 -0.14772117587E+04  0.15373669504E+04  0.00000000000E+00 0.  1.
         13    1    3    3    0    0  0.57922048846E+02 -0.45617663818E+03  0.13027628248E+04  0.13815364916E+04  0.10566000000E+00 0. -1.
         -4    1    3    3    0  501  0.10022338204E+03  0.19125955646E+03 -0.80305168995E+02  0.23037765606E+03  0.00000000000E+00 0. -1.
<mgrwt>
<rscale>  0 0.10448425E+04</rscale>
<asrwt>0</asrwt>
<pdfrwt beam="2">  1        4 0.26734052E+00 0.10390676E+04</pdfrwt>
<pdfrwt beam="1">  1       -4 0.24494100E+00 0.10506496E+04</pdfrwt>
<totfact> 0.95935592E-02</totfact>
</mgrwt>
</event>
<event>
 8    1  0.2939692E-006  0.1069713E+04  0.7818608E-02  0.8715808E-01
          4   -1    0    0  502    0  0.00000000000E+00  0.00000000000E+00  0.94086132864E+03  0.94086132864E+03  0.00000000000E+00 0.  1.
         -4   -1    0    0    0  501 -0.00000000000E+00 -0.00000000000E+00 -0.12317793863E+04  0.12317793863E+04  0.00000000000E+00 0. -1.
   -9000010    2    1    2    0  501  0.22643630720E+03 -0.19429826712E+03 -0.30340113220E+03  0.11028544183E+04  0.10174528997E+04 0.  0.
    9000010    2    1    2  502    0 -0.22643630720E+03  0.19429826712E+03  0.12483074548E+02  0.10697862966E+04  0.10272593029E+04 0.  0.
        -13    1    4    4    0    0 -0.93934206990E+01  0.29263839422E+03 -0.45731614555E+03  0.54301338314E+03  0.10566000000E+00 0.  1.
          4    1    4    4  502    0 -0.21704288650E+03 -0.98340127098E+02  0.46979922010E+03  0.52677291349E+03  0.00000000000E+00 0.  1.
         13    1    3    3    0    0  0.44052013864E+03 -0.49952889177E+03 -0.86741968648E+02  0.67164818659E+03  0.10566000000E+00 0. -1.
         -4    1    3    3    0  501 -0.21408383144E+03  0.30523062465E+03 -0.21665916355E+03  0.43120623170E+03  0.00000000000E+00 0. -1.
<mgrwt>
<rscale>  0 0.10649962E+04</rscale>
<asrwt>0</asrwt>
<pdfrwt beam="1">  1        4 0.14474790E+00 0.10697135E+04</pdfrwt>
<pdfrwt beam="2">  1       -4 0.18950452E+00 0.10602998E+04</pdfrwt>
<totfact> 0.30622551E-01</totfact>
</mgrwt>
</event>
<event>
 8    1  0.2939692E-006  0.1120284E+04  0.7818608E-02  0.8760656E-01
          4   -1    0    0  502    0  0.00000000000E+00  0.00000000000E+00  0.19307947768E+04  0.19307947768E+04  0.00000000000E+00 0.  1.
         -4   -1    0    0    0  501 -0.00000000000E+00 -0.00000000000E+00 -0.63873867520E+03  0.63873867520E+03  0.00000000000E+00 0. -1.
   -9000010    2    1    2    0  501 -0.20663683394E+03  0.48206946536E+03  0.19342700968E+03  0.11368593852E+04  0.98992196816E+03 0.  0.
    9000010    2    1    2  502    0  0.20663683394E+03 -0.48206946536E+03  0.10986290920E+04  0.14326740669E+04  0.75530083381E+03 0.  0.
        -13    1    4    4    0    0  0.40925992702E+03 -0.42689653150E+03  0.10675193178E+04  0.12203818425E+04  0.10566000000E+00 0.  1.
          4    1    4    4  502    0 -0.20262309308E+03 -0.55172933864E+02  0.31109774187E+02  0.21229222437E+03  0.00000000000E+00 0.  1.
         13    1    3    3    0    0  0.17680757357E+03  0.24564443935E+03 -0.32899851014E+03  0.44703706725E+03  0.10566000000E+00 0. -1.
         -4    1    3    3    0  501 -0.38344440751E+03  0.23642502601E+03  0.52242551982E+03  0.68982231795E+03  0.00000000000E+00 0. -1.
<mgrwt>
<rscale>  0 0.10149654E+04</rscale>
<asrwt>0</asrwt>
<pdfrwt beam="1">  1        4 0.29704535E+00 0.91954831E+03</pdfrwt>
<pdfrwt beam="2">  1       -4 0.98267489E-01 0.11202836E+04</pdfrwt>
<totfact> 0.31930043E-01</totfact>
</mgrwt>
</event>
<event>
 8    1  0.2939692E-006  0.1110732E+04  0.7818608E-02  0.8683711E-01
          4   -1    0    0  502    0  0.00000000000E+00  0.00000000000E+00  0.13056087040E+04  0.13056087040E+04  0.00000000000E+00 0.  1.
         -4   -1    0    0    0  501 -0.00000000000E+00 -0.00000000000E+00 -0.93929563600E+03  0.93929563600E+03  0.00000000000E+00 0. -1.
   -9000010    2    1    2    0  501  0.36375891964E+03 -0.32492251958E+03  0.78220636982E+02  0.10974192481E+04  0.97995680656E+03 0.  0.
    9000010    2    1    2  502    0 -0.36375891964E+03  0.32492251958E+03  0.28809243097E+03  0.11474850919E+04  0.99791261736E+03 0.  0.
        -13    1    4    4    0    0 -0.13905860198E+03  0.25653515098E+03 -0.35693112144E+03  0.46102864888E+03  0.10566000000E+00 0.  1.
          4    1    4    4  502    0 -0.22470031766E+03  0.68387368605E+02  0.64502355241E+03  0.68645644298E+03  0.00000000000E+00 0.  1.
         13    1    3    3    0    0  0.29777274364E+03  0.31411536165E+03  0.13261451052E+03  0.45268497528E+03  0.10566000000E+00 0. -1.
         -4    1    3    3    0  501  0.65986175999E+02 -0.63903788124E+03 -0.54393873539E+02  0.64473427283E+03  0.00000000000E+00 0. -1.
<mgrwt>
<rscale>  0 0.11026504E+04</rscale>
<asrwt>0</asrwt>
<pdfrwt beam="1">  1        4 0.20086288E+00 0.11107316E+04</pdfrwt>
<pdfrwt beam="2">  1       -4 0.14450702E+00 0.10946280E+04</pdfrwt>
<totfact> 0.28430615E-01</totfact>
</mgrwt>
</event>
<event>
 8    1  0.2939692E-006  0.1090212E+04  0.7818608E-02  0.8718045E-01
         -4   -1    0    0    0  501 -0.00000000000E+00  0.00000000000E+00  0.34724630268E+04  0.34724630268E+04  0.00000000000E+00 0. -1.
          4   -1    0    0  502    0  0.00000000000E+00 -0.00000000000E+00 -0.72780377338E+03  0.72780377338E+03  0.00000000000E+00 0.  1.
   -9000010    2    1    2    0  501 -0.51669418706E+02  0.31517444237E+03  0.29181109692E+04  0.30963425494E+04  0.98486592812E+03 0.  0.
    9000010    2    1    2  502    0  0.51669418706E+02 -0.31517444237E+03 -0.17345171578E+03  0.11039242508E+04  0.10423812143E+04 0.  0.
        -13    1    4    4    0    0 -0.13895571011E+03 -0.55454441711E+02  0.41054550822E+03  0.43695710312E+03  0.10566000000E+00 0.  1.
          4    1    4    4  502    0  0.19062512882E+03 -0.25972000066E+03 -0.58399722401E+03  0.66696714771E+03  0.00000000000E+00 0.  1.
         13    1    3    3    0    0 -0.73676580828E+02 -0.19308916295E+02  0.26895515755E+04  0.26906298076E+04  0.10566000000E+00 0. -1.
         -4    1    3    3    0  501  0.22007162122E+02  0.33448335867E+03  0.22855939371E+03  0.40571274181E+03  0.00000000000E+00 0. -1.
<mgrwt>
<rscale>  0 0.10624311E+04</rscale>
<asrwt>0</asrwt>
<pdfrwt beam="2">  1        4 0.11196981E+00 0.10902125E+04</pdfrwt>
<pdfrwt beam="1">  1       -4 0.53422507E+00 0.10353577E+04</pdfrwt>
<totfact> 0.28172112E-02</totfact>
</mgrwt>
</event>
<event>
 8    1  0.2939692E-006  0.1222517E+04  0.7818608E-02  0.8596412E-01
         -4   -1    0    0    0  501 -0.00000000000E+00  0.00000000000E+00  0.19262317554E+04  0.19262317554E+04  0.00000000000E+00 0. -1.
          4   -1    0    0  502    0  0.00000000000E+00 -0.00000000000E+00 -0.22943646929E+04  0.22943646929E+04  0.00000000000E+00 0.  1.
   -9000010    2    1    2    0  501  0.28023924068E+03  0.62362417900E+03  0.15386139236E+04  0.19651665433E+04  0.10134621790E+04 0.  0.
    9000010    2    1    2  502    0 -0.28023924068E+03 -0.62362417900E+03 -0.19067468611E+04  0.22554299050E+04  0.99188674523E+03 0.  0.
        -13    1    4    4    0    0  0.13446035807E+03 -0.29142050872E+03 -0.16203101560E+04  0.16517900937E+04  0.10566000000E+00 0.  1.
          4    1    4    4  502    0 -0.41469959875E+03 -0.33220367027E+03 -0.28643670507E+03  0.60363981128E+03  0.00000000000E+00 0.  1.
         13    1    3    3    0    0  0.26145288716E+03  0.90085712231E+03  0.12684166582E+04  0.15775873976E+04  0.10566000000E+00 0. -1.
         -4    1    3    3    0  501  0.18786353527E+02 -0.27723294332E+03  0.27019726541E+03  0.38757914569E+03  0.00000000000E+00 0. -1.
<mgrwt>
<rscale>  0 0.12135711E+04</rscale>
<asrwt>0</asrwt>
<pdfrwt beam="2">  1        4 0.35297918E+00 0.12046910E+04</pdfrwt>
<pdfrwt beam="1">  1       -4 0.29634335E+00 0.12225166E+04</pdfrwt>
<totfact> 0.40530858E-02</totfact>
</mgrwt>
</event>
<event>
 8    1  0.2939692E-006  0.1089719E+04  0.7818608E-02  0.8701177E-01
          4   -1    0    0  502    0  0.00000000000E+00  0.00000000000E+00  0.11511561659E+04  0.11511561659E+04  0.00000000000E+00 0.  1.
         -4   -1    0    0    0  501 -0.00000000000E+00 -0.00000000000E+00 -0.15813750899E+04  0.15813750899E+04  0.00000000000E+00 0. -1.
   -9000010    2    1    2    0  501 -0.47198029993E+03  0.12309317698E+03 -0.10323069942E+04  0.15010482233E+04  0.97445918567E+03 0.  0.
    9000010    2    1    2  502    0  0.47198029993E+03 -0.12309317698E+03  0.60208807020E+03  0.12314830325E+04  0.95714318740E+03 0.  0.
        -13    1    4    4    0    0  0.23272120018E+02 -0.48462937327E+03  0.37040627114E+03  0.61041628244E+03  0.10566000000E+00 0.  1.
          4    1    4    4  502    0  0.44870817991E+03  0.36153619629E+03  0.23168179906E+03  0.62106675001E+03  0.00000000000E+00 0.  1.
         13    1    3    3    0    0 -0.31711610664E+03  0.17722034219E+03 -0.12075444212E+04  0.12610048434E+04  0.10566000000E+00 0. -1.
         -4    1    3    3    0  501 -0.15486419329E+03 -0.54127165210E+02  0.17523742701E+03  0.24004337983E+03  0.00000000000E+00 0. -1.
<mgrwt>
<rscale>  0 0.10819634E+04</rscale>
<asrwt>0</asrwt>
<pdfrwt beam="1">  1        4 0.17710095E+00 0.10742627E+04</pdfrwt>
<pdfrwt beam="2">  1       -4 0.24328848E+00 0.10897192E+04</pdfrwt>
<totfact> 0.16634545E-01</totfact>
</mgrwt>
</event>
<event>
 8    1  0.2939692E-006  0.1196075E+04  0.7818608E-02  0.8616042E-01
         -4   -1    0    0    0  501 -0.00000000000E+00  0.00000000000E+00  0.10436887051E+04  0.10436887051E+04  0.00000000000E+00 0. -1.
          4   -1    0    0  502    0  0.00000000000E+00 -0.00000000000E+00 -0.17668799658E+04  0.17668799658E+04  0.00000000000E+00 0.  1.
   -9000010    2    1    2    0  501 -0.57988693261E+03  0.29333496870E+03  0.32201707465E+03  0.12221559365E+04  0.98369501284E+03 0.  0.
    9000010    2    1    2  502    0  0.57988693261E+03 -0.29333496870E+03 -0.10452083354E+04  0.15884127344E+04  0.10041316108E+04 0.  0.
        -13    1    4    4    0    0  0.27880222625E+03  0.14954861152E+03  0.93628896319E+02  0.32994219185E+03  0.10566000000E+00 0.  1.
          4    1    4    4  502    0  0.30108470635E+03 -0.44288358022E+03 -0.11388372317E+04  0.12584705425E+04  0.00000000000E+00 0.  1.
         13    1    3    3    0    0 -0.58498176297E+03  0.48175137856E+03  0.54257740732E+03  0.93202913466E+03  0.10566000000E+00 0. -1.
         -4    1    3    3    0  501  0.50948303645E+01 -0.18841640986E+03 -0.22056033267E+03  0.29012680184E+03  0.00000000000E+00 0. -1.
<mgrwt>
<rscale>  0 0.11874915E+04</rscale>
<asrwt>0</asrwt>
<pdfrwt beam="2">  1        4 0.27182769E+00 0.11960746E+04</pdfrwt>
<pdfrwt beam="1">  1       -4 0.16056749E+00 0.11789699E+04</pdfrwt>
<totfact> 0.16245484E-01</totfact>
</mgrwt>
</event>
<event>
 8    1  0.2939692E-006  0.1463848E+04  0.7818608E-02  0.8434607E-01
          4   -1    0    0  502    0  0.00000000000E+00  0.00000000000E+00  0.10976661115E+04  0.10976661115E+04  0.00000000000E+00 0.  1.
         -4   -1    0    0    0  501 -0.00000000000E+00 -0.00000000000E+00 -0.28960362035E+04  0.28960362035E+04  0.00000000000E+00 0. -1.
   -9000010    2    1    2    0  501  0.89180418852E+03  0.56216294076E+03 -0.20526339550E+04  0.25211420290E+04  0.10156323619E+04 0.  0.
    9000010    2    1    2  502    0 -0.89180418852E+03 -0.56216294076E+03  0.25426386303E+03  0.14725602859E+04  0.99621373255E+03 0.  0.
        -13    1    4    4    0    0 -0.61156693835E+03  0.50283390244E+02 -0.21663894392E+03  0.65074955444E+03  0.10566000000E+00 0.  1.
          4    1    4    4  502    0 -0.28023725017E+03 -0.61244633100E+03  0.47090280695E+03  0.82181073145E+03  0.00000000000E+00 0.  1.
         13    1    3    3    0    0 -0.22671288686E+02  0.41549111934E+02 -0.11020775665E+04  0.11030935091E+04  0.10566000000E+00 0. -1.
         -4    1    3    3    0  501  0.91447547721E+03  0.52061382882E+03 -0.95055638855E+03  0.14180485200E+04  0.00000000000E+00 0. -1.
<mgrwt>
<rscale>  0 0.14571299E+04</rscale>
<asrwt>0</asrwt>
<pdfrwt beam="1">  1        4 0.16887171E+00 0.14504426E+04</pdfrwt>
<pdfrwt beam="2">  1       -4 0.44554403E+00 0.14638480E+04</pdfrwt>
<totfact> 0.37097171E-02</totfact>
</mgrwt>
</event>
<event>
 8    1  0.2939692E-006  0.1291370E+04  0.7818608E-02  0.8543335E-01
          4   -1    0    0  502    0  0.00000000000E+00  0.00000000000E+00  0.20945142822E+04  0.20945142822E+04  0.00000000000E+00 0.  1.
         -4   -1    0    0    0  501 -0.00000000000E+00 -0.00000000000E+00 -0.79165053790E+03  0.79165053790E+03  0.00000000000E+00 0. -1.
   -9000010    2    1    2    0  501  0.67522129200E+03  0.46377915983E+03  0.66377331067E+03  0.14519746316E+04  0.99830878018E+03 0.  0.
    9000010    2    1    2  502    0 -0.67522129200E+03 -0.46377915983E+03  0.63909043367E+03  0.14341901885E+04  0.98866071645E+03 0.  0.
        -13    1    4    4    0    0  0.22933207669E+03 -0.15596222588E+03 -0.12580309122E+02  0.27762509368E+03  0.10566000000E+00 0.  1.
          4    1    4    4  502    0 -0.90455336869E+03 -0.30781693396E+03  0.65167074280E+03  0.11565650949E+04  0.00000000000E+00 0.  1.
         13    1    3    3    0    0  0.15173184989E+03  0.53551768277E+03  0.73159594891E+03  0.91925751912E+03  0.10566000000E+00 0. -1.
         -4    1    3    3    0  501  0.52348944211E+03 -0.71738522936E+02 -0.67822638240E+02  0.53271711248E+03  0.00000000000E+00 0. -1.
<mgrwt>
<rscale>  0 0.12876422E+04</rscale>
<asrwt>0</asrwt>
<pdfrwt beam="1">  1        4 0.32223296E+00 0.12839256E+04</pdfrwt>
<pdfrwt beam="2">  1       -4 0.12179239E+00 0.12913696E+04</pdfrwt>
<totfact> 0.18108878E-01</totfact>
</mgrwt>
</event>
<event>
 8    1  0.2939692E-006  0.1525207E+04  0.7818608E-02  0.8398037E-01
          4   -1    0    0  502    0  0.00000000000E+00  0.00000000000E+00  0.23540989085E+04  0.23540989085E+04  0.00000000000E+00 0.  1.
         -4   -1    0    0    0  501 -0.00000000000E+00 -0.00000000000E+00 -0.10085924344E+04  0.10085924344E+04  0.00000000000E+00 0. -1.
   -9000010    2    1    2    0  501  0.10609466774E+04 -0.41995967922E+03  0.39964876010E+03  0.15766972747E+04  0.10120677746E+04 0.  0.
    9000010    2    1    2  502    0 -0.10609466774E+04  0.41995967922E+03  0.94585771403E+03  0.17859940682E+04  0.99657112741E+03 0.  0.
        -13    1    4    4    0    0 -0.11334054655E+04  0.53588491981E+03  0.10325008088E+04  0.16241423976E+04  0.10566000000E+00 0.  1.
          4    1    4    4  502    0  0.72458788168E+02 -0.11592524058E+03 -0.86643094736E+02  0.16185167053E+03  0.00000000000E+00 0.  1.
         13    1    3    3    0    0  0.82862314215E+03  0.20461217245E+03  0.28950565652E+03  0.90127464690E+03  0.10566000000E+00 0. -1.
         -4    1    3    3    0  501  0.23232353521E+03 -0.62457185167E+03  0.11014310358E+03  0.67542262782E+03  0.00000000000E+00 0. -1.
<mgrwt>
<rscale>  0 0.15200787E+04</rscale>
<asrwt>0</asrwt>
<pdfrwt beam="1">  1        4 0.36216906E+00 0.15149680E+04</pdfrwt>
<pdfrwt beam="2">  1       -4 0.15516807E+00 0.15252066E+04</pdfrwt>
<totfact> 0.91174624E-02</totfact>
</mgrwt>
</event>
<event>
 8    1  0.2939692E-006  0.1439049E+04  0.7818608E-02  0.8465621E-01
         -4   -1    0    0    0  501 -0.00000000000E+00  0.00000000000E+00  0.11894215250E+04  0.11894215250E+04  0.00000000000E+00 0. -1.
          4   -1    0    0  502    0  0.00000000000E+00 -0.00000000000E+00 -0.29414635004E+04  0.29414635004E+04  0.00000000000E+00 0.  1.
   -9000010    2    1    2    0  501  0.92260127700E+03 -0.20715158604E+03  0.49671253780E+03  0.14610987325E+04  0.99698609069E+03 0.  0.
    9000010    2    1    2  502    0 -0.92260127700E+03  0.20715158604E+03 -0.22487545132E+04  0.26697862928E+04  0.10847843533E+04 0.  0.
        -13    1    4    4    0    0  0.96599086166E+02  0.22053742513E+02  0.75878565691E+02  0.12480111739E+03  0.10566000000E+00 0.  1.
          4    1    4    4  502    0 -0.10192003632E+04  0.18509784353E+03 -0.23246330789E+04  0.25449851755E+04  0.00000000000E+00 0.  1.
         13    1    3    3    0    0  0.45707446884E+03  0.91297486131E+02 -0.25235227505E+03  0.53003205840E+03  0.10566000000E+00 0. -1.
         -4    1    3    3    0  501  0.46552680816E+03 -0.29844907217E+03  0.74906481286E+03  0.93106667412E+03  0.00000000000E+00 0. -1.
<mgrwt>
<rscale>  0 0.14061875E+04</rscale>
<asrwt>0</asrwt>
<pdfrwt beam="2">  1        4 0.45253284E+00 0.14390490E+04</pdfrwt>
<pdfrwt beam="1">  1       -4 0.18298793E+00 0.13740765E+04</pdfrwt>
<totfact> 0.30786461E-02</totfact>
</mgrwt>
</event>
<event>
 8    1  0.2939692E-006  0.1316821E+04  0.7818608E-02  0.8523694E-01
         -4   -1    0    0    0  501 -0.00000000000E+00  0.00000000000E+00  0.10918206342E+04  0.10918206342E+04  0.00000000000E+00 0. -1.
          4   -1    0    0  502    0  0.00000000000E+00 -0.00000000000E+00 -0.16988514108E+04  0.16988514108E+04  0.00000000000E+00 0.  1.
   -9000010    2    1    2    0  501 -0.66911795774E+03  0.53958584422E+03  0.54046053827E+02  0.13179296980E+04  0.99757004185E+03 0.  0.
    9000010    2    1    2  502    0  0.66911795774E+03 -0.53958584422E+03 -0.66107683045E+03  0.14727423470E+04  0.99653184604E+03 0.  0.
        -13    1    4    4    0    0  0.43387631083E+03  0.23526431773E+03 -0.35097049563E+03  0.60562220259E+03  0.10566000000E+00 0.  1.
          4    1    4    4  502    0  0.23524164691E+03 -0.77485016195E+03 -0.31010633482E+03  0.86712014439E+03  0.00000000000E+00 0.  1.
         13    1    3    3    0    0 -0.30833000260E+03 -0.19476740336E+03  0.29049989927E+03  0.46625307994E+03  0.10566000000E+00 0. -1.
         -4    1    3    3    0  501 -0.36078795514E+03  0.73435324758E+03 -0.23645384544E+03  0.85167661810E+03  0.00000000000E+00 0. -1.
<mgrwt>
<rscale>  0 0.13164278E+04</rscale>
<asrwt>0</asrwt>
<pdfrwt beam="2">  1        4 0.26136176E+00 0.13160347E+04</pdfrwt>
<pdfrwt beam="1">  1       -4 0.16797241E+00 0.13168211E+04</pdfrwt>
<totfact> 0.16034990E-01</totfact>
</mgrwt>
</event>
<event>
 8    1  0.2939692E-006  0.1323533E+04  0.7818608E-02  0.8525822E-01
          4   -1    0    0  502    0  0.00000000000E+00  0.00000000000E+00  0.18921041217E+04  0.18921041217E+04  0.00000000000E+00 0.  1.
         -4   -1    0    0    0  501 -0.00000000000E+00 -0.00000000000E+00 -0.24687154602E+04  0.24687154602E+04  0.00000000000E+00 0. -1.
   -9000010    2    1    2    0  501 -0.82274782143E+03 -0.98833361582E+02 -0.20207927242E+04  0.24156454716E+04  0.10320163755E+04 0.  0.
    9000010    2    1    2  502    0  0.82274782143E+03  0.98833361582E+02  0.14441813857E+04  0.19451741103E+04  0.10056641754E+04 0.  0.
        -13    1    4    4    0    0  0.68941834072E+03  0.41710271718E+03  0.13742988991E+04  0.15931006875E+04  0.10566000000E+00 0.  1.
          4    1    4    4  502    0  0.13332948071E+03 -0.31826935559E+03  0.69882486539E+02  0.35207342283E+03  0.00000000000E+00 0.  1.
         13    1    3    3    0    0 -0.10534235541E+04 -0.10535371000E+03 -0.18386404305E+04  0.21216501201E+04  0.10566000000E+00 0. -1.
         -4    1    3    3    0  501  0.23067573266E+03  0.65203484134E+01 -0.18215229372E+03  0.29399535148E+03  0.00000000000E+00 0. -1.
<mgrwt>
<rscale>  0 0.13132715E+04</rscale>
<asrwt>0</asrwt>
<pdfrwt beam="1">  1        4 0.29109294E+00 0.13030896E+04</pdfrwt>
<pdfrwt beam="2">  1       -4 0.37980238E+00 0.13235331E+04</pdfrwt>
<totfact> 0.32998194E-02</totfact>
</mgrwt>
</event>
<event>
 8    1  0.2939692E-006  0.1171194E+04  0.7818608E-02  0.8662457E-01
         -4   -1    0    0    0  501 -0.00000000000E+00  0.00000000000E+00  0.97793481084E+03  0.97793481084E+03  0.00000000000E+00 0. -1.
          4   -1    0    0  502    0  0.00000000000E+00 -0.00000000000E+00 -0.34146069399E+04  0.34146069399E+04  0.00000000000E+00 0.  1.
   -9000010    2    1    2    0  501  0.27623611511E+03  0.55868526331E+03  0.52519663208E+03  0.12075202238E+04  0.89097585482E+03 0.  0.
    9000010    2    1    2  502    0 -0.27623611511E+03 -0.55868526331E+03 -0.29618687612E+04  0.31850215269E+04  0.99159465202E+03 0.  0.
        -13    1    4    4    0    0  0.83983875178E+02 -0.71895444719E+03 -0.14239211933E+04  0.15973416554E+04  0.10566000000E+00 0.  1.
          4    1    4    4  502    0 -0.36021999029E+03  0.16026918388E+03 -0.15379475679E+04  0.15876798715E+04  0.00000000000E+00 0.  1.
         13    1    3    3    0    0 -0.48086690937E+02  0.17438310119E+03 -0.23468934658E+03  0.29631216038E+03  0.10566000000E+00 0. -1.
         -4    1    3    3    0  501  0.32432280605E+03  0.38430216212E+03  0.75988597866E+03  0.91120806346E+03  0.00000000000E+00 0. -1.
<mgrwt>
<rscale>  0 0.11284802E+04</rscale>
<asrwt>0</asrwt>
<pdfrwt beam="2">  1        4 0.52532413E+00 0.11711941E+04</pdfrwt>
<pdfrwt beam="1">  1       -4 0.15045151E+00 0.10873240E+04</pdfrwt>
<totfact> 0.18932599E-02</totfact>
</mgrwt>
</event>
<event>
 8    1  0.2939692E-006  0.1377563E+04  0.7818608E-02  0.8484337E-01
          4   -1    0    0  502    0  0.00000000000E+00  0.00000000000E+00  0.13114047159E+04  0.13114047159E+04  0.00000000000E+00 0.  1.
         -4   -1    0    0    0  501 -0.00000000000E+00 -0.00000000000E+00 -0.19023411256E+04  0.19023411256E+04  0.00000000000E+00 0. -1.
   -9000010    2    1    2    0  501  0.75567338688E+03 -0.54566399224E+03 -0.10833529570E+04  0.17508197669E+04  0.10113974325E+04 0.  0.
    9000010    2    1    2  502    0 -0.75567338688E+03  0.54566399224E+03  0.49241654738E+03  0.14629260746E+04  0.10143407630E+04 0.  0.
        -13    1    4    4    0    0 -0.95310767699E+03  0.34391094214E+03  0.57981393379E+03  0.11674215987E+04  0.10566000000E+00 0.  1.
          4    1    4    4  502    0  0.19743429011E+03  0.20175305010E+03 -0.87397386408E+02  0.29550447592E+03  0.00000000000E+00 0.  1.
         13    1    3    3    0    0 -0.89108390438E+02 -0.68826320353E+01  0.14211085026E+03  0.16787847031E+03  0.10566000000E+00 0. -1.
         -4    1    3    3    0  501  0.84478177732E+03 -0.53878136020E+03 -0.12254638073E+04  0.15829412966E+04  0.00000000000E+00 0. -1.
<mgrwt>
<rscale>  0 0.13764792E+04</rscale>
<asrwt>0</asrwt>
<pdfrwt beam="1">  1        4 0.20175457E+00 0.13775626E+04</pdfrwt>
<pdfrwt beam="2">  1       -4 0.29266786E+00 0.13753968E+04</pdfrwt>
<totfact> 0.10380842E-01</totfact>
</mgrwt>
</event>
<event>
 8    1  0.2939692E-006  0.1134044E+04  0.7818608E-02  0.8659039E-01
          4   -1    0    0  502    0  0.00000000000E+00  0.00000000000E+00  0.10074541589E+04  0.10074541589E+04  0.00000000000E+00 0.  1.
         -4   -1    0    0    0  501 -0.00000000000E+00 -0.00000000000E+00 -0.25265083475E+04  0.25265083475E+04  0.00000000000E+00 0. -1.
   -9000010    2    1    2    0  501  0.40777929321E+03 -0.28419280152E+03 -0.20043363215E+04  0.23029157602E+04  0.10193171285E+04 0.  0.
    9000010    2    1    2  502    0 -0.40777929321E+03  0.28419280152E+03  0.48528213295E+03  0.12310467462E+04  0.10163305773E+04 0.  0.
        -13    1    4    4    0    0 -0.56566634634E+03  0.55468473520E+03  0.46169444430E+03  0.91695983658E+03  0.10566000000E+00 0.  1.
          4    1    4    4  502    0  0.15788705313E+03 -0.27049193368E+03  0.23587688652E+02  0.31408690961E+03  0.00000000000E+00 0.  1.
         13    1    3    3    0    0  0.64935813312E+03  0.11973517307E+03 -0.10856606706E+04  0.12706933539E+04  0.10566000000E+00 0. -1.
         -4    1    3    3    0  501 -0.24157883991E+03 -0.40392797459E+03 -0.91867565088E+03  0.10322224063E+04  0.00000000000E+00 0. -1.
<mgrwt>
<rscale>  0 0.11327019E+04</rscale>
<asrwt>0</asrwt>
<pdfrwt beam="1">  1        4 0.15499295E+00 0.11313608E+04</pdfrwt>
<pdfrwt beam="2">  1       -4 0.38869359E+00 0.11340445E+04</pdfrwt>
<totfact> 0.74731510E-02</totfact>
</mgrwt>
</event>
<event>
 8    1  0.2939692E-006  0.1193604E+04  0.7818608E-02  0.8616484E-01
         -4   -1    0    0    0  501 -0.00000000000E+00  0.00000000000E+00  0.18185564930E+04  0.18185564930E+04  0.00000000000E+00 0.  1.
          4   -1    0    0  502    0  0.00000000000E+00 -0.00000000000E+00 -0.10689943043E+04  0.10689943043E+04  0.00000000000E+00 0. -1.
   -9000010    2    1    2    0  501 -0.62839666513E+03  0.22677754263E+03  0.11308031237E+04  0.16345400321E+04  0.97298252258E+03 0.  0.
    9000010    2    1    2  502    0  0.62839666513E+03 -0.22677754263E+03 -0.38124093504E+03  0.12530107652E+04  0.98913138891E+03 0.  0.
        -13    1    4    4    0    0  0.80288628944E+03  0.11171907054E+03 -0.22399662316E+03  0.84100062000E+03  0.10566000000E+00 0.  1.
          4    1    4    4  502    0 -0.17448962431E+03 -0.33849661317E+03 -0.15724431188E+03  0.41201014519E+03  0.00000000000E+00 0.  1.
         13    1    3    3    0    0 -0.31084386665E+03  0.52511003738E+03  0.26497960503E+03  0.66526585891E+03  0.10566000000E+00 0. -1.
         -4    1    3    3    0  501 -0.31755279848E+03 -0.29833249475E+03  0.86582351868E+03  0.96927417315E+03  0.00000000000E+00 0. -1.
<mgrwt>
<rscale>  0 0.11869117E+04</rscale>
<asrwt>0</asrwt>
<pdfrwt beam="2">  1        4 0.16446066E+00 0.11936043E+04</pdfrwt>
<pdfrwt beam="1">  1       -4 0.27977792E+00 0.11802565E+04</pdfrwt>
<totfact> 0.15007195E-01</totfact>
</mgrwt>
</event>
<event>
 8    1  0.2939692E-006  0.1167410E+04  0.7818608E-02  0.8634721E-01
         -4   -1    0    0    0  501 -0.00000000000E+00  0.00000000000E+00  0.49867396071E+03  0.49867396071E+03  0.00000000000E+00 0. -1.
          4   -1    0    0  502    0  0.00000000000E+00 -0.00000000000E+00 -0.30586605287E+04  0.30586605287E+04  0.00000000000E+00 0.  1.
   -9000010    2    1    2    0  501 -0.56711398503E+03 -0.15421861530E+03 -0.67872941577E+03  0.13432940539E+04  0.99918148610E+03 0.  0.
    9000010    2    1    2  502    0  0.56711398503E+03  0.15421861530E+03 -0.18812571522E+04  0.22140404355E+04  0.10086847495E+04 0.  0.
        -13    1    4    4    0    0  0.20848818848E+03  0.19243077764E+03 -0.18275090378E+04  0.18494015852E+04  0.10566000000E+00 0.  1.
          4    1    4    4  502    0  0.35862579655E+03 -0.38212162337E+02 -0.53748114382E+02  0.36463885024E+03  0.00000000000E+00 0.  1.
         13    1    3    3    0    0  0.24785375880E+03 -0.10759408128E+03  0.16999373558E+02  0.27073411670E+03  0.10566000000E+00 0. -1.
         -4    1    3    3    0  501 -0.81496774383E+03 -0.46624534019E+02 -0.69572878933E+03  0.10725599372E+04  0.00000000000E+00 0. -1.
<mgrwt>
<rscale>  0 0.11633023E+04</rscale>
<asrwt>0</asrwt>
<pdfrwt beam="2">  1        4 0.47056316E+00 0.11674102E+04</pdfrwt>
<pdfrwt beam="1">  1       -4 0.76719071E-01 0.11592089E+04</pdfrwt>
<totfact> 0.11528280E-01</totfact>
</mgrwt>
</event>
<event>
 8    1  0.2939692E-006  0.1321347E+04  0.7818608E-02  0.8525818E-01
          4   -1    0    0  502    0  0.00000000000E+00  0.00000000000E+00  0.53483404595E+03  0.53483404595E+03  0.00000000000E+00 0.  1.
         -4   -1    0    0    0  501 -0.00000000000E+00 -0.00000000000E+00 -0.32599482430E+04  0.32599482430E+04  0.00000000000E+00 0. -1.
   -9000010    2    1    2    0  501  0.70034108619E+03  0.52697836762E+03 -0.15676642595E+04  0.20502511173E+04  0.98882484621E+03 0.  0.
    9000010    2    1    2  502    0 -0.70034108619E+03 -0.52697836762E+03 -0.11574499375E+04  0.17445311716E+04  0.96722014763E+03 0.  0.
        -13    1    4    4    0    0 -0.83336784526E+03 -0.59189192899E+03 -0.12131569423E+04  0.15863756802E+04  0.10566000000E+00 0.  1.
          4    1    4    4  502    0  0.13302675907E+03  0.64913561367E+02  0.55707004749E+02  0.15815549139E+03  0.00000000000E+00 0.  1.
         13    1    3    3    0    0  0.78800268015E+03  0.67483337957E+02 -0.12689187742E+04  0.14952113869E+04  0.10566000000E+00 0. -1.
         -4    1    3    3    0  501 -0.87661593960E+02  0.45949502966E+03 -0.29874548535E+03  0.55503973043E+03  0.00000000000E+00 0. -1.
<mgrwt>
<rscale>  0 0.13132780E+04</rscale>
<asrwt>0</asrwt>
<pdfrwt beam="1">  1        4 0.82282163E-01 0.13052581E+04</pdfrwt>
<pdfrwt beam="2">  1       -4 0.50153049E+00 0.13213472E+04</pdfrwt>
<totfact> 0.70708786E-02</totfact>
</mgrwt>
</event>
<event>
 8    1  0.2939692E-006  0.1114237E+04  0.7818608E-02  0.8674882E-01
         -4   -1    0    0    0  501 -0.00000000000E+00  0.00000000000E+00  0.10625424478E+04  0.10625424478E+04  0.00000000000E+00 0. -1.
          4   -1    0    0  502    0  0.00000000000E+00 -0.00000000000E+00 -0.19365950561E+04  0.19365950561E+04  0.00000000000E+00 0.  1.
   -9000010    2    1    2    0  501  0.46513073038E+03 -0.22187995225E+03  0.50884367750E+03  0.12232079447E+04  0.98576796372E+03 0.  0.
    9000010    2    1    2  502    0 -0.46513073038E+03  0.22187995225E+03 -0.13828962858E+04  0.17759295592E+04  0.98789997093E+03 0.  0.
        -13    1    4    4    0    0  0.11419074354E+03  0.42821067414E+03 -0.31534229588E+03  0.54391606163E+03  0.10566000000E+00 0.  1.
          4    1    4    4  502    0 -0.57932147392E+03 -0.20633072189E+03 -0.10675539899E+04  0.12320134976E+04  0.00000000000E+00 0.  1.
         13    1    3    3    0    0  0.47150736220E+03  0.31271950084E+03  0.35074828504E+03  0.66568539825E+03  0.10566000000E+00 0. -1.
         -4    1    3    3    0  501 -0.63766318245E+01 -0.53459945310E+03  0.15809539246E+03  0.55752254645E+03  0.00000000000E+00 0. -1.
<mgrwt>
<rscale>  0 0.11132915E+04</rscale>
<asrwt>0</asrwt>
<pdfrwt beam="2">  1        4 0.29793770E+00 0.11142368E+04</pdfrwt>
<pdfrwt beam="1">  1       -4 0.16346807E+00 0.11123470E+04</pdfrwt>
<totfact> 0.13600655E-01</totfact>
</mgrwt>
</event>
<event>
 8    1  0.2939692E-006  0.1115889E+04  0.7818608E-02  0.8682107E-01
         -4   -1    0    0    0  501 -0.00000000000E+00  0.00000000000E+00  0.12503192511E+04  0.12503192511E+04  0.00000000000E+00 0. -1.
          4   -1    0    0  502    0  0.00000000000E+00 -0.00000000000E+00 -0.10693848659E+04  0.10693848659E+04  0.00000000000E+00 0.  1.
   -9000010    2    1    2    0  501  0.62327849895E+02 -0.46871360468E+03  0.43250324543E+03  0.11758089011E+04  0.98584497288E+03 0.  0.
    9000010    2    1    2  502    0 -0.62327849895E+02  0.46871360468E+03 -0.25156886030E+03  0.11438952159E+04  0.10107582151E+04 0.  0.
        -13    1    4    4    0    0 -0.34142831690E+03  0.60999967443E+03  0.60959467524E+02  0.70170432964E+03  0.10566000000E+00 0.  1.
          4    1    4    4  502    0  0.27910046700E+03 -0.14128606976E+03 -0.31252832783E+03  0.44219088625E+03  0.00000000000E+00 0.  1.
         13    1    3    3    0    0  0.44440252459E+03  0.29137692319E+02  0.29248773121E+03  0.53281487690E+03  0.10566000000E+00 0. -1.
         -4    1    3    3    0  501 -0.38207467469E+03 -0.49785129699E+03  0.14001551423E+03  0.64299402422E+03  0.00000000000E+00 0. -1.
<mgrwt>
<rscale>  0 0.11045746E+04</rscale>
<asrwt>0</asrwt>
<pdfrwt beam="2">  1        4 0.16452075E+00 0.11158895E+04</pdfrwt>
<pdfrwt beam="1">  1       -4 0.19235681E+00 0.10933744E+04</pdfrwt>
<totfact> 0.24937724E-01</totfact>
</mgrwt>
</event>
<event>
 8    1  0.2939692E-006  0.1227980E+04  0.7818608E-02  0.8607028E-01
         -4   -1    0    0    0  501 -0.00000000000E+00  0.00000000000E+00  0.20996900079E+04  0.20996900079E+04  0.00000000000E+00 0. -1.
          4   -1    0    0  502    0  0.00000000000E+00 -0.00000000000E+00 -0.11445534268E+04  0.11445534268E+04  0.00000000000E+00 0.  1.
   -9000010    2    1    2    0  501 -0.33987979317E+02  0.61161992809E+03  0.14979694261E+04  0.19016332476E+04  0.99853016365E+03 0.  0.
    9000010    2    1    2  502    0  0.33987979317E+02 -0.61161992809E+03 -0.54283284502E+03  0.13426101871E+04  0.10642840306E+04 0.  0.
        -13    1    4    4    0    0  0.12702063447E+03 -0.41795052100E+03 -0.85705408910E+03  0.96195561352E+03  0.10566000000E+00 0.  1.
          4    1    4    4  502    0 -0.93032655157E+02 -0.19366940709E+03  0.31422124408E+03  0.38065457359E+03  0.00000000000E+00 0.  1.
         13    1    3    3    0    0 -0.21267606020E+02  0.22955243315E+03 -0.10528074786E+03  0.25343771950E+03  0.10566000000E+00 0. -1.
         -4    1    3    3    0  501 -0.12720373297E+02  0.38206749494E+03  0.16032501740E+04  0.16481955281E+04  0.00000000000E+00 0. -1.
<mgrwt>
<rscale>  0 0.11993823E+04</rscale>
<asrwt>0</asrwt>
<pdfrwt beam="2">  1        4 0.17608514E+00 0.12279799E+04</pdfrwt>
<pdfrwt beam="1">  1       -4 0.32302923E+00 0.11714506E+04</pdfrwt>
<totfact> 0.10411750E-01</totfact>
</mgrwt>
</event>
<event>
 8    1  0.2939692E-006  0.1077882E+04  0.7818608E-02  0.8714426E-01
         -4   -1    0    0    0  501 -0.00000000000E+00  0.00000000000E+00  0.21675022943E+04  0.21675022943E+04  0.00000000000E+00 0. -1.
          4   -1    0    0  502    0  0.00000000000E+00 -0.00000000000E+00 -0.65269392623E+03  0.65269392623E+03  0.00000000000E+00 0.  1.
   -9000010    2    1    2    0  501  0.96884568525E+02 -0.38209193844E+03  0.13748989463E+04  0.17332724608E+04  0.97903291155E+03 0.  0.
    9000010    2    1    2  502    0 -0.96884568525E+02  0.38209193844E+03  0.13990942172E+03  0.10869237597E+04  0.10032186920E+04 0.  0.
        -13    1    4    4    0    0  0.11879563384E+03  0.36911156362E+03 -0.36823703223E+03  0.53474692341E+03  0.10566000000E+00 0.  1.
          4    1    4    4  502    0 -0.21568020236E+03  0.12980374813E+02  0.50814645395E+03  0.55217683624E+03  0.00000000000E+00 0.  1.
         13    1    3    3    0    0 -0.17710253083E+03 -0.42977235468E+03  0.16723575288E+03  0.49400140838E+03  0.10566000000E+00 0. -1.
         -4    1    3    3    0  501  0.27398709936E+03  0.47680416245E+02  0.12076631934E+04  0.12392710525E+04  0.00000000000E+00 0. -1.
<mgrwt>
<rscale>  0 0.10665856E+04</rscale>
<asrwt>0</asrwt>
<pdfrwt beam="2">  1        4 0.10041445E+00 0.10778815E+04</pdfrwt>
<pdfrwt beam="1">  1       -4 0.33346189E+00 0.10554081E+04</pdfrwt>
<totfact> 0.24031289E-01</totfact>
</mgrwt>
</event>
<event>
 8    1  0.2939692E-006  0.1284489E+04  0.7818608E-02  0.8551699E-01
          4   -1    0    0  502    0  0.00000000000E+00  0.00000000000E+00  0.23706619120E+04  0.23706619120E+04  0.00000000000E+00 0.  1.
         -4   -1    0    0    0  501 -0.00000000000E+00 -0.00000000000E+00 -0.18309195432E+04  0.18309195432E+04  0.00000000000E+00 0. -1.
   -9000010    2    1    2    0  501 -0.59556761085E+03  0.49492869564E+03 -0.13917634537E+04  0.18819636655E+04  0.10025599905E+04 0.  0.
    9000010    2    1    2  502    0  0.59556761085E+03 -0.49492869564E+03  0.19315058225E+04  0.23196177896E+04  0.10248203524E+04 0.  0.
        -13    1    4    4    0    0  0.53652677407E+03  0.15867597419E+03  0.52366876892E+03  0.76633415348E+03  0.10566000000E+00 0.  1.
          4    1    4    4  502    0  0.59040836781E+02 -0.65360466984E+03  0.14078370535E+04  0.15532836361E+04  0.00000000000E+00 0.  1.
         13    1    3    3    0    0 -0.72901589661E+02 -0.18968762681E+03  0.43752808625E+02  0.20787101040E+03  0.10566000000E+00 0. -1.
         -4    1    3    3    0  501 -0.52266602119E+03  0.68461632245E+03 -0.14355162623E+04  0.16740926551E+04  0.00000000000E+00 0. -1.
<mgrwt>
<rscale>  0 0.12756137E+04</rscale>
<asrwt>0</asrwt>
<pdfrwt beam="1">  1        4 0.36471722E+00 0.12844890E+04</pdfrwt>
<pdfrwt beam="2">  1       -4 0.28167993E+00 0.12667998E+04</pdfrwt>
<totfact> 0.39943925E-02</totfact>
</mgrwt>
</event>
<event>
 8    1  0.2939692E-006  0.1200990E+04  0.7818608E-02  0.8606755E-01
          4   -1    0    0  502    0  0.00000000000E+00  0.00000000000E+00  0.12616981299E+04  0.12616981299E+04  0.00000000000E+00 0.  1.
         -4   -1    0    0    0  501 -0.00000000000E+00 -0.00000000000E+00 -0.19064407079E+04  0.19064407079E+04  0.00000000000E+00 0. -1.
   -9000010    2    1    2    0  501  0.44679554983E+03  0.48729968173E+03 -0.13264133061E+04  0.17893429092E+04  0.10026407856E+04 0.  0.
    9000010    2    1    2  502    0 -0.44679554983E+03 -0.48729968173E+03  0.68167072810E+03  0.13787959285E+04  0.99965793543E+03 0.  0.
        -13    1    4    4    0    0  0.30534304764E+03 -0.28595973595E+03  0.27183891047E+03  0.49890254734E+03  0.10566000000E+00 0.  1.
          4    1    4    4  502    0 -0.75213859747E+03 -0.20133994578E+03  0.40983181763E+03  0.87989338121E+03  0.00000000000E+00 0.  1.
         13    1    3    3    0    0  0.21472223374E+03 -0.11951716930E+03  0.64597219866E+02  0.25409211597E+03  0.10566000000E+00 0. -1.
         -4    1    3    3    0  501  0.23207331609E+03  0.60681685103E+03 -0.13910105260E+04  0.15352507933E+04  0.00000000000E+00 0. -1.
<mgrwt>
<rscale>  0 0.11997443E+04</rscale>
<asrwt>0</asrwt>
<pdfrwt beam="1">  1        4 0.19410740E+00 0.11985004E+04</pdfrwt>
<pdfrwt beam="2">  1       -4 0.29329857E+00 0.12009895E+04</pdfrwt>
<totfact> 0.11001141E-01</totfact>
</mgrwt>
</event>
<event>
 8    1  0.2939692E-006  0.1167166E+04  0.7818608E-02  0.8649664E-01
         -4   -1    0    0    0  501 -0.00000000000E+00  0.00000000000E+00  0.20837406142E+04  0.20837406142E+04  0.00000000000E+00 0. -1.
          4   -1    0    0  502    0  0.00000000000E+00 -0.00000000000E+00 -0.90053098090E+03  0.90053098090E+03  0.00000000000E+00 0.  1.
   -9000010    2    1    2    0  501  0.31678093520E+03  0.52843199636E+03  0.14193860699E+04  0.18376432316E+04  0.99130484496E+03 0.  0.
    9000010    2    1    2  502    0 -0.31678093520E+03 -0.52843199636E+03 -0.23617643666E+03  0.11466283634E+04  0.93775623637E+03 0.  0.
        -13    1    4    4    0    0  0.52114028642E+02 -0.15694455963E+03  0.33391346822E+03  0.37262002389E+03  0.10566000000E+00 0.  1.
          4    1    4    4  502    0 -0.36889496384E+03 -0.37148743674E+03 -0.57008990488E+03  0.77400833952E+03  0.00000000000E+00 0.  1.
         13    1    3    3    0    0  0.23517462703E+03  0.31819053803E+03  0.15343236769E+04  0.15845193216E+04  0.10566000000E+00 0. -1.
         -4    1    3    3    0  501  0.81606308170E+02  0.21024145834E+03 -0.11493760702E+03  0.25312391006E+03  0.00000000000E+00 0. -1.
<mgrwt>
<rscale>  0 0.11443813E+04</rscale>
<asrwt>0</asrwt>
<pdfrwt beam="2">  1        4 0.13854323E+00 0.11220416E+04</pdfrwt>
<pdfrwt beam="1">  1       -4 0.32057548E+00 0.11671657E+04</pdfrwt>
<totfact> 0.14968819E-01</totfact>
</mgrwt>
</event>
<event>
 8    1  0.2939692E-006  0.1232151E+04  0.7818608E-02  0.8588886E-01
         -4   -1    0    0    0  501 -0.00000000000E+00  0.00000000000E+00  0.12784297338E+04  0.12784297338E+04  0.00000000000E+00 0. -1.
          4   -1    0    0  502    0  0.00000000000E+00 -0.00000000000E+00 -0.16228819094E+04  0.16228819094E+04  0.00000000000E+00 0.  1.
   -9000010    2    1    2    0  501  0.66443533903E+03 -0.13671918678E+03  0.59198928448E+03  0.13669848825E+04  0.10286058042E+04 0.  0.
    9000010    2    1    2  502    0 -0.66443533903E+03  0.13671918678E+03 -0.93644146008E+03  0.15343267607E+04  0.10084986587E+04 0.  0.
        -13    1    4    4    0    0  0.12594120109E+03  0.35066873047E+03 -0.44080826445E+03  0.57718427026E+03  0.10566000000E+00 0.  1.
          4    1    4    4  502    0 -0.79037654012E+03 -0.21394954369E+03 -0.49563319563E+03  0.95714249045E+03  0.00000000000E+00 0.  1.
         13    1    3    3    0    0  0.12824742844E+03  0.42612730013E+03  0.29954817394E+03  0.53643359187E+03  0.10566000000E+00 0. -1.
         -4    1    3    3    0  501  0.53618791060E+03 -0.56284648691E+03  0.29244111054E+03  0.83055129067E+03  0.00000000000E+00 0. -1.
<mgrwt>
<rscale>  0 0.12237549E+04</rscale>
<asrwt>0</asrwt>
<pdfrwt beam="2">  1        4 0.24967414E+00 0.12154160E+04</pdfrwt>
<pdfrwt beam="1">  1       -4 0.19668150E+00 0.12321511E+04</pdfrwt>
<totfact> 0.13849016E-01</totfact>
</mgrwt>
</event>
<event>
 8    1  0.2939692E-006  0.1646053E+04  0.7818608E-02  0.8331988E-01
         -4   -1    0    0    0  501 -0.00000000000E+00  0.00000000000E+00  0.90377812219E+03  0.90377812219E+03  0.00000000000E+00 0. -1.
          4   -1    0    0  502    0  0.00000000000E+00 -0.00000000000E+00 -0.31427833471E+04  0.31427833471E+04  0.00000000000E+00 0.  1.
   -9000010    2    1    2    0  501  0.12190257687E+04  0.44604760848E+03 -0.66293778528E+03  0.17676407717E+04  0.10000425474E+04 0.  0.
    9000010    2    1    2  502    0 -0.12190257687E+04 -0.44604760848E+03 -0.15760674396E+04  0.22789206976E+04  0.10121801608E+04 0.  0.
        -13    1    4    4    0    0 -0.96956488464E+03 -0.13814558647E+03 -0.16064936409E+04  0.18814786998E+04  0.10566000000E+00 0.  1.
          4    1    4    4  502    0 -0.24946088410E+03 -0.30790202202E+03  0.30426201264E+02  0.39744199776E+03  0.00000000000E+00 0.  1.
         13    1    3    3    0    0  0.12273755659E+03  0.29410699388E+03  0.18938875671E+03  0.37071760678E+03  0.10566000000E+00 0. -1.
         -4    1    3    3    0  501  0.10962882122E+04  0.15194061460E+03 -0.85232654199E+03  0.13969231649E+04  0.00000000000E+00 0. -1.
<mgrwt>
<rscale>  0 0.16423311E+04</rscale>
<asrwt>0</asrwt>
<pdfrwt beam="2">  1        4 0.48350513E+00 0.16460531E+04</pdfrwt>
<pdfrwt beam="1">  1       -4 0.13904279E+00 0.16386175E+04</pdfrwt>
<totfact> 0.32133891E-02</totfact>
</mgrwt>
</event>
<event>
 8    1  0.2939692E-006  0.1774596E+04  0.7818608E-02  0.8267740E-01
          4   -1    0    0  502    0  0.00000000000E+00  0.00000000000E+00  0.14361588564E+04  0.14361588564E+04  0.00000000000E+00 0.  1.
         -4   -1    0    0    0  501 -0.00000000000E+00 -0.00000000000E+00 -0.21952745448E+04  0.21952745448E+04  0.00000000000E+00 0. -1.
   -9000010    2    1    2    0  501  0.12340250282E+04 -0.80190095216E+03 -0.48080283807E+03  0.18351456317E+04  0.98525388256E+03 0.  0.
    9000010    2    1    2  502    0 -0.12340250282E+04  0.80190095216E+03 -0.27831285033E+03  0.17962877695E+04  0.99162936658E+03 0.  0.
        -13    1    4    4    0    0 -0.10296490801E+04  0.55462106210E+03  0.23315460846E+03  0.11925363027E+04  0.10566000000E+00 0.  1.
          4    1    4    4  502    0 -0.20437594814E+03  0.24727989006E+03 -0.51146745879E+03  0.60375146675E+03  0.00000000000E+00 0.  1.
         13    1    3    3    0    0 -0.19257237646E+02 -0.13932279606E+03 -0.39000713470E+03  0.41459288342E+03  0.10566000000E+00 0. -1.
         -4    1    3    3    0  501  0.12532822659E+04 -0.66257815611E+03 -0.90795703373E+02  0.14205527483E+04  0.00000000000E+00 0. -1.
<mgrwt>
<rscale>  0 0.17728180E+04</rscale>
<asrwt>0</asrwt>
<pdfrwt beam="1">  1        4 0.22094752E+00 0.17745962E+04</pdfrwt>
<pdfrwt beam="2">  1       -4 0.33773454E+00 0.17710415E+04</pdfrwt>
<totfact> 0.66957336E-02</totfact>
</mgrwt>
</event>
<event>
 8    1  0.2939692E-006  0.1386080E+04  0.7818608E-02  0.8482478E-01
          4   -1    0    0  502    0  0.00000000000E+00  0.00000000000E+00  0.29637330623E+04  0.29637330623E+04  0.00000000000E+00 0.  1.
         -4   -1    0    0    0  501 -0.00000000000E+00 -0.00000000000E+00 -0.92615306181E+03  0.92615306181E+03  0.00000000000E+00 0. -1.
   -9000010    2    1    2    0  501  0.92267984483E+03  0.24981499371E+03 -0.61888254558E+02  0.13741385802E+04  0.98523147250E+03 0.  0.
    9000010    2    1    2  502    0 -0.92267984483E+03 -0.24981499371E+03  0.20994682550E+04  0.25157475439E+04  0.10037296068E+04 0.  0.
        -13    1    4    4    0    0 -0.15123701501E+03 -0.54032224040E+03  0.81229345846E+03  0.98723929825E+03  0.10566000000E+00 0.  1.
          4    1    4    4  502    0 -0.77144282982E+03  0.29050724669E+03  0.12871747966E+04  0.15285082456E+04  0.00000000000E+00 0.  1.
         13    1    3    3    0    0  0.52465679867E+03 -0.30189813624E+03 -0.26987815023E+03  0.66275294657E+03  0.10566000000E+00 0. -1.
         -4    1    3    3    0  501  0.39802304616E+03  0.55171312995E+03  0.20798989567E+03  0.71138563363E+03  0.00000000000E+00 0. -1.
<mgrwt>
<rscale>  0 0.13793962E+04</rscale>
<asrwt>0</asrwt>
<pdfrwt beam="1">  1        4 0.45595893E+00 0.13860804E+04</pdfrwt>
<pdfrwt beam="2">  1       -4 0.14248509E+00 0.13727442E+04</pdfrwt>
<totfact> 0.42651473E-02</totfact>
</mgrwt>
</event>
<event>
 8    1  0.2939692E-006  0.2035421E+04  0.7818608E-02  0.8154180E-01
         -4   -1    0    0    0  501 -0.00000000000E+00  0.00000000000E+00  0.15484023487E+04  0.15484023487E+04  0.00000000000E+00 0. -1.
          4   -1    0    0  502    0  0.00000000000E+00 -0.00000000000E+00 -0.27262810124E+04  0.27262810124E+04  0.00000000000E+00 0.  1.
   -9000010    2    1    2    0  501 -0.56016950734E+03 -0.16814923408E+04 -0.29651184495E+03  0.20569048667E+04  0.10008656189E+04 0.  0.
    9000010    2    1    2  502    0  0.56016950734E+03  0.16814923408E+04 -0.88136681878E+03  0.22177784944E+04  0.10002637711E+04 0.  0.
        -13    1    4    4    0    0  0.48729211216E+03  0.16616862687E+04 -0.10554902738E+04  0.20279828864E+04  0.10566000000E+00 0.  1.
          4    1    4    4  502    0  0.72877395181E+02  0.19806072163E+02  0.17412345506E+03  0.18979560803E+03  0.00000000000E+00 0.  1.
         13    1    3    3    0    0  0.21848274221E+03 -0.88163304441E+03 -0.23864599698E+03  0.93912909479E+03  0.10566000000E+00 0. -1.
         -4    1    3    3    0  501 -0.77865224955E+03 -0.79985929643E+03 -0.57865847973E+02  0.11177757719E+04  0.00000000000E+00 0. -1.
<mgrwt>
<rscale>  0 0.20352730E+04</rscale>
<asrwt>0</asrwt>
<pdfrwt beam="2">  1        4 0.41942785E+00 0.20351251E+04</pdfrwt>
<pdfrwt beam="1">  1       -4 0.23821575E+00 0.20354209E+04</pdfrwt>
<totfact> 0.29083042E-02</totfact>
</mgrwt>
</event>
<event>
 8    1  0.2939692E-006  0.1033486E+04  0.7818608E-02  0.8753684E-01
         -4   -1    0    0    0  501 -0.00000000000E+00  0.00000000000E+00  0.15926242249E+04  0.15926242249E+04  0.00000000000E+00 0. -1.
          4   -1    0    0  502    0  0.00000000000E+00 -0.00000000000E+00 -0.17034352428E+04  0.17034352428E+04  0.00000000000E+00 0.  1.
   -9000010    2    1    2    0  501 -0.23133804832E+02 -0.20443152817E+03  0.12367236417E+04  0.15978420946E+04  0.99059909680E+03 0.  0.
    9000010    2    1    2  502    0  0.23133804832E+02  0.20443152817E+03 -0.13475346596E+04  0.16982173732E+04  0.10128006543E+04 0.  0.
        -13    1    4    4    0    0  0.61148119639E+02  0.61321344238E+03 -0.90150330005E+03  0.10920064238E+04  0.10566000000E+00 0.  1.
          4    1    4    4  502    0 -0.38014314807E+02 -0.40878191420E+03 -0.44603135954E+03  0.60621094942E+03  0.00000000000E+00 0.  1.
         13    1    3    3    0    0 -0.36578116358E+03 -0.22955503800E+03  0.11709380377E+04  0.12480333627E+04  0.10566000000E+00 0. -1.
         -4    1    3    3    0  501  0.34264735875E+03  0.25123509830E+02  0.65785604003E+02  0.34980873188E+03  0.00000000000E+00 0. -1.
<mgrwt>
<rscale>  0 0.10225541E+04</rscale>
<asrwt>0</asrwt>
<pdfrwt beam="2">  1        4 0.26206696E+00 0.10334856E+04</pdfrwt>
<pdfrwt beam="1">  1       -4 0.24501911E+00 0.10117381E+04</pdfrwt>
<totfact> 0.98686543E-02</totfact>
</mgrwt>
</event>
<event>
 8    1  0.2939692E-006  0.1083957E+04  0.7818608E-02  0.8702687E-01
         -4   -1    0    0    0  501 -0.00000000000E+00  0.00000000000E+00  0.27648623325E+04  0.27648623325E+04  0.00000000000E+00 0. -1.
          4   -1    0    0  502    0  0.00000000000E+00 -0.00000000000E+00 -0.90197345697E+03  0.90197345697E+03  0.00000000000E+00 0.  1.
   -9000010    2    1    2    0  501  0.18035504689E+03  0.37205286323E+03  0.22703579923E+04  0.25158472642E+04  0.10020033772E+04 0.  0.
    9000010    2    1    2  502    0 -0.18035504689E+03 -0.37205286323E+03 -0.40746911678E+03  0.11509885252E+04  0.99387737071E+03 0.  0.
        -13    1    4    4    0    0 -0.22253581492E+03 -0.44863064485E+03 -0.69150740364E+03  0.85379982717E+03  0.10566000000E+00 0.  1.
          4    1    4    4  502    0  0.42180768033E+02  0.76577781624E+02  0.28403828686E+03  0.29718869802E+03  0.00000000000E+00 0.  1.
         13    1    3    3    0    0  0.22118472166E+03 -0.30692217151E+03  0.10866494783E+04  0.11506220058E+04  0.10566000000E+00 0. -1.
         -4    1    3    3    0  501 -0.40829674777E+02  0.67897503474E+03  0.11837085140E+04  0.13652252584E+04  0.00000000000E+00 0. -1.
<mgrwt>
<rscale>  0 0.10801966E+04</rscale>
<asrwt>0</asrwt>
<pdfrwt beam="2">  1        4 0.13876515E+00 0.10764495E+04</pdfrwt>
<pdfrwt beam="1">  1       -4 0.42536343E+00 0.10839567E+04</pdfrwt>
<totfact> 0.62887071E-02</totfact>
</mgrwt>
</event>
<event>
 8    1  0.2939692E-006  0.1267557E+04  0.7818608E-02  0.8560937E-01
         -4   -1    0    0    0  501 -0.00000000000E+00  0.00000000000E+00  0.13203110034E+04  0.13203110034E+04  0.00000000000E+00 0. -1.
          4   -1    0    0  502    0  0.00000000000E+00 -0.00000000000E+00 -0.12244007056E+04  0.12244007056E+04  0.00000000000E+00 0.  1.
   -9000010    2    1    2    0  501  0.68964827103E+03 -0.37708333568E+03  0.19850700890E+03  0.12730096141E+04  0.98149980405E+03 0.  0.
    9000010    2    1    2  502    0 -0.68964827103E+03  0.37708333568E+03 -0.10259671109E+03  0.12717020949E+04  0.99443127126E+03 0.  0.
        -13    1    4    4    0    0 -0.42217015829E+03  0.71875535420E+03 -0.61103835527E+02  0.83580535511E+03  0.10566000000E+00 0.  1.
          4    1    4    4  502    0 -0.26747811273E+03 -0.34167201852E+03 -0.41492875564E+02  0.43589673979E+03  0.00000000000E+00 0.  1.
         13    1    3    3    0    0 -0.37863788962E+02 -0.49247038735E+03 -0.48001137434E+02  0.49625081289E+03  0.10566000000E+00 0. -1.
         -4    1    3    3    0  501  0.72751205999E+03  0.11538705167E+03  0.24650814633E+03  0.77675880126E+03  0.00000000000E+00 0. -1.
<mgrwt>
<rscale>  0 0.12624869E+04</rscale>
<asrwt>0</asrwt>
<pdfrwt beam="2">  1        4 0.18836934E+00 0.12675568E+04</pdfrwt>
<pdfrwt beam="1">  1       -4 0.20312477E+00 0.12574373E+04</pdfrwt>
<totfact> 0.19171910E-01</totfact>
</mgrwt>
</event>
<event>
 8    1  0.2939692E-006  0.1095110E+04  0.7818608E-02  0.8750174E-01
         -4   -1    0    0    0  501 -0.00000000000E+00  0.00000000000E+00  0.83752907076E+03  0.83752907076E+03  0.00000000000E+00 0. -1.
          4   -1    0    0  502    0  0.00000000000E+00 -0.00000000000E+00 -0.18998655245E+04  0.18998655245E+04  0.00000000000E+00 0.  1.
   -9000010    2    1    2    0  501 -0.12973652157E+03  0.42264732509E+03  0.28292961210E+03  0.10027454108E+04  0.85439268899E+03 0.  0.
    9000010    2    1    2  502    0  0.12973652157E+03 -0.42264732509E+03 -0.13452660658E+04  0.17346491845E+04  0.10019005335E+04 0.  0.
        -13    1    4    4    0    0  0.54963100502E+03 -0.10849702622E+03 -0.57486492816E+03  0.80270514087E+03  0.10566000000E+00 0.  1.
          4    1    4    4  502    0 -0.41989448345E+03 -0.31415029887E+03 -0.77040113768E+03  0.93194404363E+03  0.00000000000E+00 0.  1.
         13    1    3    3    0    0 -0.34390060579E+03  0.57638543541E+03  0.92495448558E+02  0.67752728062E+03  0.10566000000E+00 0. -1.
         -4    1    3    3    0  501  0.21416408422E+03 -0.15373811032E+03  0.19043416354E+03  0.32521813015E+03  0.00000000000E+00 0. -1.
<mgrwt>
<rscale>  0 0.10264011E+04</rscale>
<asrwt>0</asrwt>
<pdfrwt beam="2">  1        4 0.29228700E+00 0.10951105E+04</pdfrwt>
<pdfrwt beam="1">  1       -4 0.12885063E+00 0.96200270E+03</pdfrwt>
<totfact> 0.20126184E-01</totfact>
</mgrwt>
</event>
<event>
 8    1  0.2939692E-006  0.1323730E+04  0.7818608E-02  0.8524775E-01
         -4   -1    0    0    0  501 -0.00000000000E+00  0.00000000000E+00  0.15863668826E+04  0.15863668826E+04  0.00000000000E+00 0. -1.
          4   -1    0    0  502    0  0.00000000000E+00 -0.00000000000E+00 -0.27834850549E+04  0.27834850549E+04  0.00000000000E+00 0.  1.
   -9000010    2    1    2    0  501  0.33687092933E+03 -0.76064565648E+03  0.11073508745E+04  0.17122517397E+04  0.10067354285E+04 0.  0.
    9000010    2    1    2  502    0 -0.33687092933E+03  0.76064565648E+03 -0.23044690467E+04  0.26576001978E+04  0.10296588690E+04 0.  0.
        -13    1    4    4    0    0 -0.30677093636E+03  0.76500592624E+03 -0.24103817693E+04  0.25474070659E+04  0.10566000000E+00 0.  1.
          4    1    4    4  502    0 -0.30099992968E+02 -0.43602697547E+01  0.10591272256E+03  0.11019313195E+03  0.00000000000E+00 0.  1.
         13    1    3    3    0    0  0.35481561238E+03 -0.28234233448E+03  0.11456102061E+04  0.12320852519E+04  0.10566000000E+00 0. -1.
         -4    1    3    3    0  501 -0.17944683051E+02 -0.47830332200E+03 -0.38259331586E+02  0.48016648773E+03  0.00000000000E+00 0. -1.
<mgrwt>
<rscale>  0 0.13148244E+04</rscale>
<asrwt>0</asrwt>
<pdfrwt beam="2">  1        4 0.42822846E+00 0.13237300E+04</pdfrwt>
<pdfrwt beam="1">  1       -4 0.24405645E+00 0.13059786E+04</pdfrwt>
<totfact> 0.27491235E-02</totfact>
</mgrwt>
</event>
<event>
 8    1  0.2939692E-006  0.1078678E+04  0.7818608E-02  0.8718279E-01
          4   -1    0    0  502    0  0.00000000000E+00  0.00000000000E+00  0.20038516332E+04  0.20038516332E+04  0.00000000000E+00 0.  1.
         -4   -1    0    0    0  501 -0.00000000000E+00 -0.00000000000E+00 -0.17052785225E+04  0.17052785225E+04  0.00000000000E+00 0. -1.
   -9000010    2    1    2    0  501  0.10461968153E+03 -0.30453500118E+03 -0.13691729865E+04  0.17229472513E+04  0.99510085876E+03 0.  0.
    9000010    2    1    2  502    0 -0.10461968153E+03  0.30453500118E+03  0.16677460972E+04  0.19861829044E+04  0.10294943616E+04 0.  0.
        -13    1    4    4    0    0  0.74989116929E+02  0.53749806522E+03  0.37320812209E+03  0.65864394883E+03  0.10566000000E+00 0.  1.
          4    1    4    4  502    0 -0.17960879846E+03 -0.23296306404E+03  0.12945379751E+04  0.13275389556E+04  0.00000000000E+00 0.  1.
         13    1    3    3    0    0 -0.22186772590E+03 -0.19854881564E+03  0.13756425244E+02  0.29805397228E+03  0.10566000000E+00 0. -1.
         -4    1    3    3    0  501  0.32648740743E+03 -0.10598618554E+03 -0.13829294117E+04  0.14248932790E+04  0.00000000000E+00 0. -1.
<mgrwt>
<rscale>  0 0.10621638E+04</rscale>
<asrwt>0</asrwt>
<pdfrwt beam="1">  1        4 0.30828487E+00 0.10786777E+04</pdfrwt>
<pdfrwt beam="2">  1       -4 0.26235054E+00 0.10459028E+04</pdfrwt>
<totfact> 0.68122792E-02</totfact>
</mgrwt>
</event>
<event>
 8    1  0.2939692E-006  0.1328432E+04  0.7818608E-02  0.8516764E-01
         -4   -1    0    0    0  501 -0.00000000000E+00  0.00000000000E+00  0.15416355765E+04  0.15416355765E+04  0.00000000000E+00 0. -1.
          4   -1    0    0  502    0  0.00000000000E+00 -0.00000000000E+00 -0.22157694550E+04  0.22157694550E+04  0.00000000000E+00 0.  1.
   -9000010    2    1    2    0  501 -0.81579989132E+03  0.28200921202E+03  0.97106894697E+03  0.16428305489E+04  0.10054146679E+04 0.  0.
    9000010    2    1    2  502    0  0.81579989132E+03 -0.28200921202E+03 -0.16452028254E+04  0.21145744825E+04  0.10097892092E+04 0.  0.
        -13    1    4    4    0    0  0.38093733454E+03  0.16464820207E+03 -0.13730089348E+04  0.14343555450E+04  0.10566000000E+00 0.  1.
          4    1    4    4  502    0  0.43486255678E+03 -0.44665741409E+03 -0.27219389062E+03  0.68021893751E+03  0.00000000000E+00 0.  1.
         13    1    3    3    0    0 -0.10304163887E+04  0.21736487078E+03  0.94899992635E+03  0.14176058312E+04  0.10566000000E+00 0. -1.
         -4    1    3    3    0  501  0.21461649740E+03  0.64644341243E+02  0.22069020620E+02  0.22522471774E+03  0.00000000000E+00 0. -1.
<mgrwt>
<rscale>  0 0.13267704E+04</rscale>
<asrwt>0</asrwt>
<pdfrwt beam="2">  1        4 0.34088761E+00 0.13284325E+04</pdfrwt>
<pdfrwt beam="1">  1       -4 0.23717470E+00 0.13251103E+04</pdfrwt>
<totfact> 0.61519009E-02</totfact>
</mgrwt>
</event>
<event>
 8    1  0.2939692E-006  0.1305802E+04  0.7818608E-02  0.8544326E-01
         -4   -1    0    0    0  501 -0.00000000000E+00  0.00000000000E+00  0.14253821321E+04  0.14253821321E+04  0.00000000000E+00 0. -1.
          4   -1    0    0  502    0  0.00000000000E+00 -0.00000000000E+00 -0.16768535761E+04  0.16768535761E+04  0.00000000000E+00 0.  1.
   -9000010    2    1    2    0  501  0.39427438238E+03 -0.68054864665E+03  0.73592272832E+03  0.14651453257E+04  0.99321186784E+03 0.  0.
    9000010    2    1    2  502    0 -0.39427438238E+03  0.68054864665E+03 -0.98739417238E+03  0.16370903824E+04  0.10423621825E+04 0.  0.
        -13    1    4    4    0    0 -0.63349970255E+03  0.59455687626E+03 -0.32501821224E+03  0.92760800001E+03  0.10566000000E+00 0.  1.
          4    1    4    4  502    0  0.23922532016E+03  0.85991770399E+02 -0.66237596014E+03  0.70948238242E+03  0.00000000000E+00 0.  1.
         13    1    3    3    0    0  0.43028874692E+03 -0.92383657604E+03  0.56088570075E+03  0.11632777852E+04  0.10566000000E+00 0. -1.
         -4    1    3    3    0  501 -0.36014364533E+02  0.24328792939E+03  0.17503702757E+03  0.30186754059E+03  0.00000000000E+00 0. -1.
<mgrwt>
<rscale>  0 0.12862103E+04</rscale>
<asrwt>0</asrwt>
<pdfrwt beam="2">  1        4 0.25797747E+00 0.13058015E+04</pdfrwt>
<pdfrwt beam="1">  1       -4 0.21928956E+00 0.12669130E+04</pdfrwt>
<totfact> 0.11442201E-01</totfact>
</mgrwt>
</event>
<event>
 8    1  0.2939692E-006  0.1126573E+04  0.7818608E-02  0.8688542E-01
          4   -1    0    0  502    0  0.00000000000E+00  0.00000000000E+00  0.21892463031E+04  0.21892463031E+04  0.00000000000E+00 0.  1.
         -4   -1    0    0    0  501 -0.00000000000E+00 -0.00000000000E+00 -0.19822300780E+04  0.19822300780E+04  0.00000000000E+00 0. -1.
   -9000010    2    1    2    0  501  0.86786312340E+02 -0.33734381568E+03 -0.16684921989E+04  0.20132143797E+04  0.10713697805E+04 0.  0.
    9000010    2    1    2  502    0 -0.86786312340E+02  0.33734381568E+03  0.18755084241E+04  0.21582620014E+04  0.10095693656E+04 0.  0.
        -13    1    4    4    0    0 -0.32092390564E+03  0.59359935344E+03  0.15114554034E+04  0.16552491635E+04  0.10566000000E+00 0.  1.
          4    1    4    4  502    0  0.23413759330E+03 -0.25625553776E+03  0.36405302069E+03  0.50301283792E+03  0.00000000000E+00 0.  1.
         13    1    3    3    0    0 -0.16510899401E+03 -0.28740780111E+03 -0.17197081741E+04  0.17513595973E+04  0.10566000000E+00 0. -1.
         -4    1    3    3    0  501  0.25189530635E+03 -0.49936014565E+02  0.51215975143E+02  0.26185478232E+03  0.00000000000E+00 0. -1.
<mgrwt>
<rscale>  0 0.10968808E+04</rscale>
<asrwt>0</asrwt>
<pdfrwt beam="1">  1        4 0.33680712E+00 0.10679714E+04</pdfrwt>
<pdfrwt beam="2">  1       -4 0.30495847E+00 0.11265726E+04</pdfrwt>
<totfact> 0.43922516E-02</totfact>
</mgrwt>
</event>
<event>
 8    1  0.2939692E-006  0.1372399E+04  0.7818608E-02  0.8500240E-01
          4   -1    0    0  502    0  0.00000000000E+00  0.00000000000E+00  0.50441339881E+03  0.50441339881E+03  0.00000000000E+00 0.  1.
         -4   -1    0    0    0  501 -0.00000000000E+00 -0.00000000000E+00 -0.39085824080E+04  0.39085824080E+04  0.00000000000E+00 0. -1.
   -9000010    2    1    2    0  501  0.59388277394E+03 -0.72959407833E+03 -0.22738774000E+04  0.26350650378E+04  0.94236142487E+03 0.  0.
    9000010    2    1    2  502    0 -0.59388277394E+03  0.72959407833E+03 -0.11302916092E+04  0.17779307690E+04  0.99923692343E+03 0.  0.
        -13    1    4    4    0    0  0.13974036770E+03  0.12171462857E+02 -0.61292711809E+03  0.62877275556E+03  0.10566000000E+00 0.  1.
          4    1    4    4  502    0 -0.73362314164E+03  0.71742261547E+03 -0.51736449109E+03  0.11491580134E+04  0.00000000000E+00 0.  1.
         13    1    3    3    0    0  0.25702611066E+03  0.24360757237E+02 -0.14346121733E+04  0.14576583849E+04  0.10566000000E+00 0. -1.
         -4    1    3    3    0  501  0.33685666327E+03 -0.75395483557E+03 -0.83926522667E+03  0.11774066529E+04  0.00000000000E+00 0. -1.
<mgrwt>
<rscale>  0 0.13518247E+04</rscale>
<asrwt>0</asrwt>
<pdfrwt beam="1">  1        4 0.77602063E-01 0.13723989E+04</pdfrwt>
<pdfrwt beam="2">  1       -4 0.60132036E+00 0.13315590E+04</pdfrwt>
<totfact> 0.24749547E-02</totfact>
</mgrwt>
</event>
<event>
 8    1  0.2939692E-006  0.1290052E+04  0.7818608E-02  0.8592983E-01
          4   -1    0    0  502    0  0.00000000000E+00  0.00000000000E+00  0.14765947644E+04  0.14765947644E+04  0.00000000000E+00 0.  1.
         -4   -1    0    0    0  501 -0.00000000000E+00 -0.00000000000E+00 -0.10846544819E+04  0.10846544819E+04  0.00000000000E+00 0. -1.
   -9000010    2    1    2    0  501 -0.24145030937E+03  0.48823230936E+03 -0.13280410599E+03  0.12968694224E+04  0.11694290609E+04 0.  0.
    9000010    2    1    2  502    0  0.24145030937E+03 -0.48823230936E+03  0.52474438842E+03  0.12643798239E+04  0.10132278254E+04 0.  0.
        -13    1    4    4    0    0  0.16815063157E+03 -0.63185886662E+03  0.74511109242E+03  0.99131771568E+03  0.10566000000E+00 0.  1.
          4    1    4    4  502    0  0.73299677803E+02  0.14362655726E+03 -0.22036670399E+03  0.27306210822E+03  0.00000000000E+00 0.  1.
         13    1    3    3    0    0  0.38167660097E+03 -0.30522288576E+02  0.18595642348E+03  0.42566235495E+03  0.10566000000E+00 0. -1.
         -4    1    3    3    0  501 -0.62312691035E+03  0.51875459794E+03 -0.31876052946E+03  0.87120706748E+03  0.00000000000E+00 0. -1.
<mgrwt>
<rscale>  0 0.12181986E+04</rscale>
<asrwt>0</asrwt>
<pdfrwt beam="1">  1        4 0.22716843E+00 0.11503476E+04</pdfrwt>
<pdfrwt beam="2">  1       -4 0.16686992E+00 0.12900517E+04</pdfrwt>
<totfact> 0.19677918E-01</totfact>
</mgrwt>
</event>
<event>
 8    1  0.2939692E-006  0.1381066E+04  0.7818608E-02  0.8528364E-01
         -4   -1    0    0    0  501 -0.00000000000E+00  0.00000000000E+00  0.26139073547E+04  0.26139073547E+04  0.00000000000E+00 0. -1.
          4   -1    0    0  502    0  0.00000000000E+00 -0.00000000000E+00 -0.93041797085E+03  0.93041797085E+03  0.00000000000E+00 0.  1.
   -9000010    2    1    2    0  501  0.57318777056E+03 -0.46571550764E+03  0.17682514424E+04  0.21606601976E+04  0.99815037539E+03 0.  0.
    9000010    2    1    2  502    0 -0.57318777056E+03  0.46571550764E+03 -0.84762058513E+02  0.13836651279E+04  0.11670087511E+04 0.  0.
        -13    1    4    4    0    0 -0.79487759950E+03  0.46565405479E+03 -0.39501466489E+03  0.10023475912E+04  0.10566000000E+00 0.  1.
          4    1    4    4  502    0  0.22168982894E+03  0.61452846725E-01  0.31025260638E+03  0.38131753670E+03  0.00000000000E+00 0.  1.
         13    1    3    3    0    0 -0.22288743127E+03 -0.45569334453E+02  0.82928275548E+03  0.85992166559E+03  0.10566000000E+00 0. -1.
         -4    1    3    3    0  501  0.79607520183E+03 -0.42014617318E+03  0.93896868689E+03  0.13007385321E+04  0.00000000000E+00 0. -1.
<mgrwt>
<rscale>  0 0.13095136E+04</rscale>
<asrwt>0</asrwt>
<pdfrwt beam="2">  1        4 0.14314123E+00 0.13810665E+04</pdfrwt>
<pdfrwt beam="1">  1       -4 0.40213959E+00 0.12416680E+04</pdfrwt>
<totfact> 0.73748520E-02</totfact>
</mgrwt>
</event>
<event>
 8    1  0.2939692E-006  0.1352777E+04  0.7818608E-02  0.8504336E-01
         -4   -1    0    0    0  501 -0.00000000000E+00  0.00000000000E+00  0.12567095474E+04  0.12567095474E+04  0.00000000000E+00 0. -1.
          4   -1    0    0  502    0  0.00000000000E+00 -0.00000000000E+00 -0.25825689310E+04  0.25825689310E+04  0.00000000000E+00 0.  1.
   -9000010    2    1    2    0  501 -0.60730796430E+03  0.62979027685E+03  0.61546044891E+03  0.14731154862E+04  0.10128271892E+04 0.  0.
    9000010    2    1    2  502    0  0.60730796430E+03 -0.62979027685E+03 -0.19413198326E+04  0.23661629922E+04  0.10317683157E+04 0.  0.
        -13    1    4    4    0    0  0.28546388381E+02 -0.46051882276E+03 -0.16456758863E+03  0.48987241685E+03  0.10566000000E+00 0.  1.
          4    1    4    4  502    0  0.57876157592E+03 -0.16927145409E+03 -0.17767522439E+04  0.18762905754E+04  0.00000000000E+00 0.  1.
         13    1    3    3    0    0  0.23338754839E+03 -0.63814115043E+02  0.57437539453E+02  0.24867865032E+03  0.10566000000E+00 0. -1.
         -4    1    3    3    0  501 -0.84069551270E+03  0.69360439189E+03  0.55802290946E+03  0.12244368359E+04  0.00000000000E+00 0. -1.
<mgrwt>
<rscale>  0 0.13455622E+04</rscale>
<asrwt>0</asrwt>
<pdfrwt beam="2">  1        4 0.39731829E+00 0.13527766E+04</pdfrwt>
<pdfrwt beam="1">  1       -4 0.19333993E+00 0.13383862E+04</pdfrwt>
<totfact> 0.49894854E-02</totfact>
</mgrwt>
</event>
<event>
 8    1  0.2939692E-006  0.1089347E+04  0.7818608E-02  0.8707020E-01
         -4   -1    0    0    0  501 -0.00000000000E+00  0.00000000000E+00  0.19254210259E+04  0.19254210259E+04  0.00000000000E+00 0. -1.
          4   -1    0    0  502    0  0.00000000000E+00 -0.00000000000E+00 -0.67933178953E+03  0.67933178953E+03  0.00000000000E+00 0.  1.
   -9000010    2    1    2    0  501 -0.64970156061E+02  0.41768189892E+03  0.10595475464E+04  0.14995496462E+04  0.97330819808E+03 0.  0.
    9000010    2    1    2  502    0  0.64970156061E+02 -0.41768189892E+03  0.18654169000E+03  0.11052031693E+04  0.10039905146E+04 0.  0.
        -13    1    4    4    0    0 -0.15247090779E+03  0.30004121743E+03  0.21014482432E+02  0.33721466385E+03  0.10566000000E+00 0.  1.
          4    1    4    4  502    0  0.21744106385E+03 -0.71772311636E+03  0.16552720757E+03  0.76798850541E+03  0.00000000000E+00 0.  1.
         13    1    3    3    0    0  0.75890154020E+02  0.67402364977E+03  0.42393686598E+03  0.79986853508E+03  0.10566000000E+00 0. -1.
         -4    1    3    3    0  501 -0.14086031008E+03 -0.25634175084E+03  0.63561068040E+03  0.69968111110E+03  0.00000000000E+00 0. -1.
<mgrwt>
<rscale>  0 0.10751485E+04</rscale>
<asrwt>0</asrwt>
<pdfrwt beam="2">  1        4 0.10451258E+00 0.10893467E+04</pdfrwt>
<pdfrwt beam="1">  1       -4 0.29621862E+00 0.10611353E+04</pdfrwt>
<totfact> 0.28292852E-01</totfact>
</mgrwt>
</event>
<event>
 8    1  0.2939692E-006  0.1259150E+04  0.7818608E-02  0.8563834E-01
          4   -1    0    0  502    0  0.00000000000E+00  0.00000000000E+00  0.97905928328E+03  0.97905928328E+03  0.00000000000E+00 0.  1.
         -4   -1    0    0    0  501 -0.00000000000E+00 -0.00000000000E+00 -0.21926430975E+04  0.21926430975E+04  0.00000000000E+00 0. -1.
   -9000010    2    1    2    0  501 -0.12642740434E+02  0.76891921703E+03 -0.14192968767E+04  0.18973303990E+04  0.99702678876E+03 0.  0.
    9000010    2    1    2  502    0  0.12642740434E+02 -0.76891921703E+03  0.20571306247E+03  0.12743719818E+04  0.99514294587E+03 0.  0.
        -13    1    4    4    0    0  0.19273853393E+03 -0.49397986506E+03  0.57353828252E+03  0.78109565497E+03  0.10566000000E+00 0.  1.
          4    1    4    4  502    0 -0.18009579349E+03 -0.27493935197E+03 -0.36782522005E+03  0.49327632682E+03  0.00000000000E+00 0.  1.
         13    1    3    3    0    0 -0.20953943444E+03  0.93651296145E+03 -0.89269648693E+03  0.13106755245E+04  0.10566000000E+00 0. -1.
         -4    1    3    3    0  501  0.19689669400E+03 -0.16759374442E+03 -0.52660038973E+03  0.58665487447E+03  0.00000000000E+00 0. -1.
<mgrwt>
<rscale>  0 0.12584043E+04</rscale>
<asrwt>0</asrwt>
<pdfrwt beam="1">  1        4 0.15062451E+00 0.12576590E+04</pdfrwt>
<pdfrwt beam="2">  1       -4 0.33732970E+00 0.12591501E+04</pdfrwt>
<totfact> 0.11743882E-01</totfact>
</mgrwt>
</event>
<event>
 8    1  0.2939692E-006  0.1141434E+04  0.7818608E-02  0.8654598E-01
         -4   -1    0    0    0  501 -0.00000000000E+00  0.00000000000E+00  0.19153562924E+04  0.19153562924E+04  0.00000000000E+00 0. -1.
          4   -1    0    0  502    0  0.00000000000E+00 -0.00000000000E+00 -0.43379937002E+04  0.43379937002E+04  0.00000000000E+00 0.  1.
   -9000010    2    1    2    0  501  0.49653983585E+03  0.24821855329E+03  0.16607343820E+04  0.20151700430E+04  0.99735016723E+03 0.  0.
    9000010    2    1    2  502    0 -0.49653983585E+03 -0.24821855329E+03 -0.40833717897E+04  0.42381799497E+04  0.98998982507E+03 0.  0.
        -13    1    4    4    0    0  0.17190212875E+03  0.22814744125E+03 -0.68685173319E+03  0.74388635649E+03  0.10566000000E+00 0.  1.
          4    1    4    4  502    0 -0.66844196460E+03 -0.47636599454E+03 -0.33965200566E+04  0.34942935932E+04  0.00000000000E+00 0.  1.
         13    1    3    3    0    0 -0.43410482286E+02  0.41511400377E+03  0.12463361695E+04  0.13143659934E+04  0.10566000000E+00 0. -1.
         -4    1    3    3    0  501  0.53995031814E+03 -0.16689545047E+03  0.41439821247E+03  0.70080404960E+03  0.00000000000E+00 0. -1.
<mgrwt>
<rscale>  0 0.11382167E+04</rscale>
<asrwt>0</asrwt>
<pdfrwt beam="2">  1        4 0.66738364E+00 0.11350084E+04</pdfrwt>
<pdfrwt beam="1">  1       -4 0.29467020E+00 0.11414340E+04</pdfrwt>
<totfact> 0.13108509E-03</totfact>
</mgrwt>
</event>
<event>
 8    1  0.2939692E-006  0.1087808E+04  0.7818608E-02  0.8699668E-01
          4   -1    0    0  502    0  0.00000000000E+00  0.00000000000E+00  0.13818224650E+04  0.13818224650E+04  0.00000000000E+00 0.  1.
         -4   -1    0    0    0  501 -0.00000000000E+00 -0.00000000000E+00 -0.35810819586E+04  0.35810819586E+04  0.00000000000E+00 0. -1.
   -9000010    2    1    2    0  501 -0.29800398433E+03  0.25942083741E+03 -0.32676589031E+04  0.34439688148E+04  0.10135190894E+04 0.  0.
    9000010    2    1    2  502    0  0.29800398433E+03 -0.25942083741E+03  0.10683994095E+04  0.15189356088E+04  0.10047798466E+04 0.  0.
        -13    1    4    4    0    0  0.33497070868E+03 -0.47359459817E+03  0.18451548097E+03  0.60872259115E+03  0.10566000000E+00 0.  1.
          4    1    4    4  502    0 -0.36966724345E+02  0.21417376076E+03  0.88388392849E+03  0.91021301768E+03  0.00000000000E+00 0.  1.
         13    1    3    3    0    0 -0.23719314844E+03  0.49466707697E+03 -0.31014169826E+04  0.31495624169E+04  0.10566000000E+00 0. -1.
         -4    1    3    3    0  501 -0.60810835896E+02 -0.23524623956E+03 -0.16624192051E+03  0.29440639790E+03  0.00000000000E+00 0. -1.
<mgrwt>
<rscale>  0 0.10837316E+04</rscale>
<asrwt>0</asrwt>
<pdfrwt beam="1">  1        4 0.21258807E+00 0.10796704E+04</pdfrwt>
<pdfrwt beam="2">  1       -4 0.55093568E+00 0.10878081E+04</pdfrwt>
<totfact> 0.89956070E-03</totfact>
</mgrwt>
</event>
<event>
 8    1  0.2939692E-006  0.1021665E+04  0.7818608E-02  0.8760387E-01
          4   -1    0    0  502    0  0.00000000000E+00  0.00000000000E+00  0.20727217930E+04  0.20727217930E+04  0.00000000000E+00 0.  1.
         -4   -1    0    0    0  501 -0.00000000000E+00 -0.00000000000E+00 -0.30275463023E+04  0.30275463023E+04  0.00000000000E+00 0. -1.
   -9000010    2    1    2    0  501 -0.44351595181E+02 -0.97352492366E+02 -0.28091974598E+04  0.29892121396E+04  0.10160483629E+04 0.  0.
    9000010    2    1    2  502    0  0.44351595181E+02  0.97352492366E+02  0.18543729505E+04  0.21110559558E+04  0.10032016931E+04 0.  0.
        -13    1    4    4    0    0 -0.41016863954E+03  0.19615221254E+00  0.35890102066E+03  0.54502138044E+03  0.10566000000E+00 0.  1.
          4    1    4    4  502    0  0.45452023472E+03  0.97156340153E+02  0.14954719298E+04  0.15660345753E+04  0.00000000000E+00 0.  1.
         13    1    3    3    0    0  0.28294620240E+03 -0.44636142179E+03 -0.17247968637E+04  0.18039460371E+04  0.10566000000E+00 0. -1.
         -4    1    3    3    0  501 -0.32729779758E+03  0.34900892942E+03 -0.10844005960E+04  0.11852661025E+04  0.00000000000E+00 0. -1.
<mgrwt>
<rscale>  0 0.10152571E+04</rscale>
<asrwt>0</asrwt>
<pdfrwt beam="1">  1        4 0.31888028E+00 0.10088896E+04</pdfrwt>
<pdfrwt beam="2">  1       -4 0.46577635E+00 0.10216647E+04</pdfrwt>
<totfact> 0.12383803E-02</totfact>
</mgrwt>
</event>
<event>
 8    1  0.2939692E-006  0.1073152E+04  0.7818608E-02  0.8720530E-01
         -4   -1    0    0    0  501 -0.00000000000E+00  0.00000000000E+00  0.13487383322E+04  0.13487383322E+04  0.00000000000E+00 0. -1.
          4   -1    0    0  502    0  0.00000000000E+00 -0.00000000000E+00 -0.21884125766E+04  0.21884125766E+04  0.00000000000E+00 0.  1.
   -9000010    2    1    2    0  501 -0.62984614787E+02  0.39092624006E+03  0.97423193745E+03  0.14295668568E+04  0.96837138706E+03 0.  0.
    9000010    2    1    2  502    0  0.62984614787E+02 -0.39092624006E+03 -0.18139061818E+04  0.21075840520E+04  0.99742895137E+03 0.  0.
        -13    1    4    4    0    0  0.26770754681E+03 -0.26159463809E+03 -0.18271256932E+04  0.18650703459E+04  0.10566000000E+00 0.  1.
          4    1    4    4  502    0 -0.20472293202E+03 -0.12933160197E+03  0.13219511392E+02  0.24251370609E+03  0.00000000000E+00 0.  1.
         13    1    3    3    0    0  0.10373859011E+03 -0.30841697554E+03  0.26471671935E+03  0.41947309633E+03  0.10566000000E+00 0. -1.
         -4    1    3    3    0  501 -0.16672320489E+03  0.69934321560E+03  0.70951521810E+03  0.10100937605E+04  0.00000000000E+00 0. -1.
<mgrwt>
<rscale>  0 0.10595900E+04</rscale>
<asrwt>0</asrwt>
<pdfrwt beam="2">  1        4 0.33667885E+00 0.10731519E+04</pdfrwt>
<pdfrwt beam="1">  1       -4 0.20749821E+00 0.10461996E+04</pdfrwt>
<totfact> 0.77159416E-02</totfact>
</mgrwt>
</event>
<event>
 8    1  0.2939692E-006  0.1312354E+04  0.7818608E-02  0.8530388E-01
          4   -1    0    0  502    0  0.00000000000E+00  0.00000000000E+00  0.88291197460E+03  0.88291197460E+03  0.00000000000E+00 0.  1.
         -4   -1    0    0    0  501 -0.00000000000E+00 -0.00000000000E+00 -0.22831810729E+04  0.22831810729E+04  0.00000000000E+00 0. -1.
   -9000010    2    1    2    0  501 -0.19817520188E+03  0.82626028976E+03 -0.13223448090E+04  0.18630269206E+04  0.10001470072E+04 0.  0.
    9000010    2    1    2  502    0  0.19817520188E+03 -0.82626028976E+03 -0.77924289245E+02  0.13030661268E+04  0.98485006928E+03 0.  0.
        -13    1    4    4    0    0  0.32532925585E+03 -0.82137890880E+03  0.27712315575E+03  0.92590479594E+03  0.10566000000E+00 0.  1.
          4    1    4    4  502    0 -0.12715405397E+03 -0.48813809593E+01 -0.35504744499E+03  0.37716133089E+03  0.00000000000E+00 0.  1.
         13    1    3    3    0    0 -0.23867591162E+03  0.25908329369E+03 -0.12392770044E+04  0.12883702296E+04  0.10566000000E+00 0. -1.
         -4    1    3    3    0  501  0.40500709736E+02  0.56717699607E+03 -0.83067804648E+02  0.57465669101E+03  0.00000000000E+00 0. -1.
<mgrwt>
<rscale>  0 0.13065312E+04</rscale>
<asrwt>0</asrwt>
<pdfrwt beam="1">  1        4 0.13583261E+00 0.13007341E+04</pdfrwt>
<pdfrwt beam="2">  1       -4 0.35125863E+00 0.13123542E+04</pdfrwt>
<totfact> 0.12345100E-01</totfact>
</mgrwt>
</event>
<event>
 8    1  0.2939692E-006  0.1270150E+04  0.7818608E-02  0.8576634E-01
          4   -1    0    0  502    0  0.00000000000E+00  0.00000000000E+00  0.10759613904E+04  0.10759613904E+04  0.00000000000E+00 0.  1.
         -4   -1    0    0    0  501 -0.00000000000E+00 -0.00000000000E+00 -0.17660440182E+04  0.17660440182E+04  0.00000000000E+00 0. -1.
   -9000010    2    1    2    0  501  0.14169011886E+03  0.68405653758E+03 -0.95713472920E+03  0.15440852874E+04  0.98999143860E+03 0.  0.
    9000010    2    1    2  502    0 -0.14169011886E+03 -0.68405653758E+03  0.26705210135E+03  0.12979201212E+04  0.10607876224E+04 0.  0.
        -13    1    4    4    0    0  0.25881180069E+03  0.69336210960E+02 -0.19144100842E+03  0.32930339992E+03  0.10566000000E+00 0.  1.
          4    1    4    4  502    0 -0.40050191955E+03 -0.75339274854E+03  0.45849310978E+03  0.96861672133E+03  0.00000000000E+00 0.  1.
         13    1    3    3    0    0 -0.36650818958E+03  0.42624239421E+03 -0.20043750397E+03  0.59681323361E+03  0.10566000000E+00 0. -1.
         -4    1    3    3    0  501  0.50819830843E+03  0.25781414338E+03 -0.75669722522E+03  0.94727205378E+03  0.00000000000E+00 0. -1.
<mgrwt>
<rscale>  0 0.12405543E+04</rscale>
<asrwt>0</asrwt>
<pdfrwt beam="1">  1        4 0.16553252E+00 0.12701495E+04</pdfrwt>
<pdfrwt beam="2">  1       -4 0.27169908E+00 0.12116487E+04</pdfrwt>
<totfact> 0.15556547E-01</totfact>
</mgrwt>
</event>
<event>
 8    1  0.2939692E-006  0.1572026E+04  0.7818608E-02  0.8370175E-01
         -4   -1    0    0    0  501 -0.00000000000E+00  0.00000000000E+00  0.26181300074E+04  0.26181300074E+04  0.00000000000E+00 0. -1.
          4   -1    0    0  502    0  0.00000000000E+00 -0.00000000000E+00 -0.13639650977E+04  0.13639650977E+04  0.00000000000E+00 0.  1.
   -9000010    2    1    2    0  501  0.11475829644E+04 -0.37941249576E+03  0.17352884992E+04  0.23414721765E+04  0.10051692773E+04 0.  0.
    9000010    2    1    2  502    0 -0.11475829644E+04  0.37941249576E+03 -0.48112358946E+03  0.16406229286E+04  0.99963152390E+03 0.  0.
        -13    1    4    4    0    0 -0.12354704472E+04  0.37036298607E+03 -0.15066735302E+03  0.12985594441E+04  0.10566000000E+00 0.  1.
          4    1    4    4  502    0  0.87887482833E+02  0.90495096901E+01 -0.33045623644E+03  0.34206348456E+03  0.00000000000E+00 0.  1.
         13    1    3    3    0    0  0.51897270910E+03 -0.53272525466E+03  0.37012615119E+03  0.83073596810E+03  0.10566000000E+00 0. -1.
         -4    1    3    3    0  501  0.62861025527E+03  0.15331275890E+03  0.13651623480E+04  0.15107362084E+04  0.00000000000E+00 0. -1.
<mgrwt>
<rscale>  0 0.15702575E+04</rscale>
<asrwt>0</asrwt>
<pdfrwt beam="2">  1        4 0.20984078E+00 0.15684909E+04</pdfrwt>
<pdfrwt beam="1">  1       -4 0.40278923E+00 0.15720260E+04</pdfrwt>
<totfact> 0.41809660E-02</totfact>
</mgrwt>
</event>
<event>
 8    1  0.2939692E-006  0.1120200E+04  0.7818608E-02  0.8675270E-01
         -4   -1    0    0    0  501 -0.00000000000E+00  0.00000000000E+00  0.20488389330E+04  0.20488389330E+04  0.00000000000E+00 0. -1.
          4   -1    0    0  502    0  0.00000000000E+00 -0.00000000000E+00 -0.12684865449E+04  0.12684865449E+04  0.00000000000E+00 0.  1.
   -9000010    2    1    2    0  501 -0.11457652902E+03  0.46285149128E+03  0.15914719813E+04  0.19461837535E+04  0.10136512473E+04 0.  0.
    9000010    2    1    2  502    0  0.11457652902E+03 -0.46285149128E+03 -0.81111959326E+03  0.13711417245E+04  0.99737422765E+03 0.  0.
        -13    1    4    4    0    0  0.30571075088E+03 -0.36184237885E+03 -0.98547361181E+03  0.10934108199E+04  0.10566000000E+00 0.  1.
          4    1    4    4  502    0 -0.19113422186E+03 -0.10100911242E+03  0.17435401855E+03  0.27773090455E+03  0.00000000000E+00 0.  1.
         13    1    3    3    0    0 -0.41143248280E+03  0.64446764447E+03  0.98466423546E+03  0.12466671169E+04  0.10566000000E+00 0. -1.
         -4    1    3    3    0  501  0.29685595378E+03 -0.18161615319E+03  0.60680774585E+03  0.69951663656E+03  0.00000000000E+00 0. -1.
<mgrwt>
<rscale>  0 0.11128222E+04</rscale>
<asrwt>0</asrwt>
<pdfrwt beam="2">  1        4 0.19515178E+00 0.11054929E+04</pdfrwt>
<pdfrwt beam="1">  1       -4 0.31520599E+00 0.11202000E+04</pdfrwt>
<totfact> 0.95758765E-02</totfact>
</mgrwt>
</event>
<event>
 8    1  0.2939692E-006  0.1016642E+04  0.7818608E-02  0.8763233E-01
          4   -1    0    0  502    0  0.00000000000E+00  0.00000000000E+00  0.27990723279E+04  0.27990723279E+04  0.00000000000E+00 0.  1.
         -4   -1    0    0    0  501 -0.00000000000E+00 -0.00000000000E+00 -0.38496402967E+03  0.38496402967E+03  0.00000000000E+00 0. -1.
   -9000010    2    1    2    0  501  0.79108041850E+02  0.14475701106E+03  0.15652419421E+04  0.18664255416E+04  0.10031696221E+04 0.  0.
    9000010    2    1    2  502    0 -0.79108041850E+02 -0.14475701106E+03  0.84886635614E+03  0.13176108159E+04  0.99413857041E+03 0.  0.
        -13    1    4    4    0    0 -0.26485094028E+03 -0.52260528822E+03  0.46772132533E+03  0.74968363806E+03  0.10566000000E+00 0.  1.
          4    1    4    4  502    0  0.18574289843E+03  0.37784827716E+03  0.38114503081E+03  0.56792717788E+03  0.00000000000E+00 0.  1.
         13    1    3    3    0    0  0.30928996283E+03 -0.37922742573E+02  0.41208304569E+02  0.31431918656E+03  0.10566000000E+00 0. -1.
         -4    1    3    3    0  501 -0.23018192098E+03  0.18267975363E+03  0.15240336375E+04  0.15521063550E+04  0.00000000000E+00 0. -1.
<mgrwt>
<rscale>  0 0.10121775E+04</rscale>
<asrwt>0</asrwt>
<pdfrwt beam="1">  1        4 0.43062650E+00 0.10077322E+04</pdfrwt>
<pdfrwt beam="2">  1       -4 0.59225237E-01 0.10166425E+04</pdfrwt>
<totfact> 0.30935780E-01</totfact>
</mgrwt>
</event>
<event>
 8    1  0.2939692E-006  0.1296294E+04  0.7818608E-02  0.8546704E-01
         -4   -1    0    0    0  501 -0.00000000000E+00  0.00000000000E+00  0.15706936478E+04  0.15706936478E+04  0.00000000000E+00 0. -1.
          4   -1    0    0  502    0  0.00000000000E+00 -0.00000000000E+00 -0.10486421612E+04  0.10486421612E+04  0.00000000000E+00 0.  1.
   -9000010    2    1    2    0  501  0.70194139787E+03  0.42739945891E+03  0.29630672785E+03  0.13035318271E+04  0.96747378450E+03 0.  0.
    9000010    2    1    2  502    0 -0.70194139787E+03 -0.42739945891E+03  0.22574475877E+03  0.13158039819E+04  0.10024905980E+04 0.  0.
        -13    1    4    4    0    0 -0.79147122032E+03  0.62280715691E+02  0.19235499100E+03  0.81688801795E+03  0.10566000000E+00 0.  1.
          4    1    4    4  502    0  0.89529822448E+02 -0.48968017460E+03  0.33389767767E+02  0.49891596396E+03  0.00000000000E+00 0.  1.
         13    1    3    3    0    0  0.11712227497E+03  0.44421051732E+02 -0.33745489455E+03  0.35995371112E+03  0.10566000000E+00 0. -1.
         -4    1    3    3    0  501  0.58481912290E+03  0.38297840718E+03  0.63376162240E+03  0.94357811595E+03  0.00000000000E+00 0. -1.
<mgrwt>
<rscale>  0 0.12827810E+04</rscale>
<asrwt>0</asrwt>
<pdfrwt beam="2">  1        4 0.16132956E+00 0.12962945E+04</pdfrwt>
<pdfrwt beam="1">  1       -4 0.24164518E+00 0.12694083E+04</pdfrwt>
<totfact> 0.18957225E-01</totfact>
</mgrwt>
</event>
<event>
 8    1  0.2939692E-006  0.1077990E+04  0.7818608E-02  0.8708970E-01
         -4   -1    0    0    0  501 -0.00000000000E+00  0.00000000000E+00  0.20938960287E+04  0.20938960287E+04  0.00000000000E+00 0. -1.
          4   -1    0    0  502    0  0.00000000000E+00 -0.00000000000E+00 -0.75375446258E+03  0.75375446258E+03  0.00000000000E+00 0.  1.
   -9000010    2    1    2    0  501  0.27977068389E+03  0.24400123559E+03  0.14084860099E+04  0.17674960529E+04  0.10011998892E+04 0.  0.
    9000010    2    1    2  502    0 -0.27977068389E+03 -0.24400123559E+03 -0.68344443776E+02  0.10801544384E+04  0.10120545486E+04 0.  0.
        -13    1    4    4    0    0 -0.56301465652E+03 -0.65400052943E+02 -0.32939961951E+03  0.65556600802E+03  0.10566000000E+00 0.  1.
          4    1    4    4  502    0  0.28324397262E+03 -0.17860118264E+03  0.26105517573E+03  0.42458843042E+03  0.00000000000E+00 0.  1.
         13    1    3    3    0    0  0.64158772078E+03  0.21329158295E+03  0.10993066308E+04  0.12905824974E+04  0.10566000000E+00 0. -1.
         -4    1    3    3    0  501 -0.36181703689E+03  0.30709652635E+02  0.30917937911E+03  0.47691355550E+03  0.00000000000E+00 0. -1.
<mgrwt>
<rscale>  0 0.10728859E+04</rscale>
<asrwt>0</asrwt>
<pdfrwt beam="2">  1        4 0.11596223E+00 0.10779901E+04</pdfrwt>
<pdfrwt beam="1">  1       -4 0.32213785E+00 0.10678059E+04</pdfrwt>
<totfact> 0.19924295E-01</totfact>
</mgrwt>
</event>
<event>
 8    1  0.2939692E-006  0.1323045E+04  0.7818608E-02  0.8525464E-01
         -4   -1    0    0    0  501 -0.00000000000E+00  0.00000000000E+00  0.32710145584E+04  0.32710145584E+04  0.00000000000E+00 0. -1.
          4   -1    0    0  502    0  0.00000000000E+00 -0.00000000000E+00 -0.62932196591E+03  0.62932196591E+03  0.00000000000E+00 0.  1.
   -9000010    2    1    2    0  501  0.63256663406E+03 -0.54962860624E+03  0.20966730198E+04  0.24694295163E+04  0.99990611198E+03 0.  0.
    9000010    2    1    2  502    0 -0.63256663406E+03  0.54962860624E+03  0.54501957271E+03  0.14309070080E+04  0.10238243891E+04 0.  0.
        -13    1    4    4    0    0 -0.34487141757E+03  0.71463131188E+03  0.68572483832E+00  0.79349523499E+03  0.10566000000E+00 0.  1.
          4    1    4    4  502    0 -0.28769521648E+03 -0.16500270564E+03  0.54433384787E+03  0.63741177303E+03  0.00000000000E+00 0.  1.
         13    1    3    3    0    0  0.58830334281E+03 -0.80863017569E+03  0.18777506675E+04  0.21274235978E+04  0.10566000000E+00 0. -1.
         -4    1    3    3    0  501  0.44263291243E+02  0.25900156945E+03  0.21892235227E+03  0.34200591844E+03  0.00000000000E+00 0. -1.
<mgrwt>
<rscale>  0 0.13138024E+04</rscale>
<asrwt>0</asrwt>
<pdfrwt beam="2">  1        4 0.96818766E-01 0.13230452E+04</pdfrwt>
<pdfrwt beam="1">  1       -4 0.50323300E+00 0.13046242E+04</pdfrwt>
<totfact> 0.50108192E-02</totfact>
</mgrwt>
</event>
<event>
 8    1  0.2939692E-006  0.1125127E+04  0.7818608E-02  0.8684200E-01
         -4   -1    0    0    0  501 -0.00000000000E+00  0.00000000000E+00  0.24100396707E+04  0.24100396707E+04  0.00000000000E+00 0. -1.
          4   -1    0    0  502    0  0.00000000000E+00 -0.00000000000E+00 -0.12586656939E+04  0.12586656939E+04  0.00000000000E+00 0.  1.
   -9000010    2    1    2    0  501  0.37658650800E+02  0.39732467787E+03  0.20005615885E+04  0.22952466828E+04  0.10519627333E+04 0.  0.
    9000010    2    1    2  502    0 -0.37658650800E+02 -0.39732467787E+03 -0.84918761159E+03  0.13734586818E+04  0.10029875758E+04 0.  0.
        -13    1    4    4    0    0  0.32113958878E+03 -0.55501907596E+03 -0.71207899426E+03  0.95824491410E+03  0.10566000000E+00 0.  1.
          4    1    4    4  502    0 -0.35879823958E+03  0.15769439809E+03 -0.13710861733E+03  0.41521376767E+03  0.00000000000E+00 0.  1.
         13    1    3    3    0    0 -0.13835232024E+02  0.21029395944E+03 -0.65039489343E+02  0.22055636323E+03  0.10566000000E+00 0. -1.
         -4    1    3    3    0  501  0.51493882824E+02  0.18703071843E+03  0.20656010778E+04  0.20746903196E+04  0.00000000000E+00 0. -1.
<mgrwt>
<rscale>  0 0.11020653E+04</rscale>
<asrwt>0</asrwt>
<pdfrwt beam="2">  1        4 0.19364088E+00 0.10794763E+04</pdfrwt>
<pdfrwt beam="1">  1       -4 0.37077533E+00 0.11251270E+04</pdfrwt>
<totfact> 0.64269909E-02</totfact>
</mgrwt>
</event>
<event>
 8    1  0.2939692E-006  0.1093514E+04  0.7818608E-02  0.8692354E-01
         -4   -1    0    0    0  501 -0.00000000000E+00  0.00000000000E+00  0.20418760678E+04  0.20418760678E+04  0.00000000000E+00 0. -1.
          4   -1    0    0  502    0  0.00000000000E+00 -0.00000000000E+00 -0.16325112409E+04  0.16325112409E+04  0.00000000000E+00 0.  1.
   -9000010    2    1    2    0  501 -0.39410822113E+03  0.23720230844E+03  0.16768486734E+04  0.20018976473E+04  0.99206173788E+03 0.  0.
    9000010    2    1    2  502    0  0.39410822113E+03 -0.23720230844E+03 -0.12674838464E+04  0.16724896614E+04  0.98950499819E+03 0.  0.
        -13    1    4    4    0    0 -0.92976760419E+02  0.11784808778E+03  0.98424502793E+02  0.17949998241E+03  0.10566000000E+00 0.  1.
          4    1    4    4  502    0  0.48708498155E+03 -0.35505039622E+03 -0.13659083492E+04  0.14929896790E+04  0.00000000000E+00 0.  1.
         13    1    3    3    0    0 -0.19400238552E+03  0.14455347379E+03  0.17522317793E+04  0.17688552377E+04  0.10566000000E+00 0. -1.
         -4    1    3    3    0  501 -0.20010583560E+03  0.92648834650E+02 -0.75383105942E+02  0.23304240959E+03  0.00000000000E+00 0. -1.
<mgrwt>
<rscale>  0 0.10923538E+04</rscale>
<asrwt>0</asrwt>
<pdfrwt beam="2">  1        4 0.25115557E+00 0.10911949E+04</pdfrwt>
<pdfrwt beam="1">  1       -4 0.31413478E+00 0.10935139E+04</pdfrwt>
<totfact> 0.69580886E-02</totfact>
</mgrwt>
</event>
<event>
 8    1  0.2939692E-006  0.1015437E+04  0.7818608E-02  0.8772729E-01
          4   -1    0    0  502    0  0.00000000000E+00  0.00000000000E+00  0.22845887375E+04  0.22845887375E+04  0.00000000000E+00 0.  1.
         -4   -1    0    0    0  501 -0.00000000000E+00 -0.00000000000E+00 -0.18112588490E+04  0.18112588490E+04  0.00000000000E+00 0. -1.
   -9000010    2    1    2    0  501  0.53084805142E+02 -0.13721509846E+02 -0.15447340125E+04  0.18485979966E+04  0.10139551801E+04 0.  0.
    9000010    2    1    2  502    0 -0.53084805142E+02  0.13721509846E+02  0.20180639010E+04  0.22472495900E+04  0.98718920914E+03 0.  0.
        -13    1    4    4    0    0  0.70924196733E+02  0.47916097341E+03  0.12508730180E+04  0.13413831662E+04  0.10566000000E+00 0.  1.
          4    1    4    4  502    0 -0.12400900187E+03 -0.46543946357E+03  0.76719088298E+03  0.90586642377E+03  0.00000000000E+00 0.  1.
         13    1    3    3    0    0 -0.39565553678E+02 -0.11815543038E+03  0.12296741945E+03  0.17506323479E+03  0.10566000000E+00 0. -1.
         -4    1    3    3    0  501  0.92650358820E+02  0.10443392053E+03 -0.16677014320E+04  0.16735347618E+04  0.00000000000E+00 0. -1.
<mgrwt>
<rscale>  0 0.10019845E+04</rscale>
<asrwt>0</asrwt>
<pdfrwt beam="1">  1        4 0.35147519E+00 0.98871068E+03</pdfrwt>
<pdfrwt beam="2">  1       -4 0.27865521E+00 0.10154365E+04</pdfrwt>
<totfact> 0.46972804E-02</totfact>
</mgrwt>
</event>
<event>
 8    1  0.2939692E-006  0.1205066E+04  0.7818608E-02  0.8605531E-01
         -4   -1    0    0    0  501 -0.00000000000E+00  0.00000000000E+00  0.19243866737E+04  0.19243866737E+04  0.00000000000E+00 0. -1.
          4   -1    0    0  502    0  0.00000000000E+00 -0.00000000000E+00 -0.26186473580E+04  0.26186473580E+04  0.00000000000E+00 0.  1.
   -9000010    2    1    2    0  501 -0.61552562283E+03  0.25871395748E+03  0.15714086028E+04  0.19802801425E+04  0.10031847994E+04 0.  0.
    9000010    2    1    2  502    0  0.61552562283E+03 -0.25871395748E+03 -0.22656692871E+04  0.25627538892E+04  0.99430652912E+03 0.  0.
        -13    1    4    4    0    0  0.83220388254E+02  0.36676090948E+03 -0.73755315695E+03  0.82790329643E+03  0.10566000000E+00 0.  1.
          4    1    4    4  502    0  0.53230523457E+03 -0.62547486696E+03 -0.15281161302E+04  0.17348505928E+04  0.00000000000E+00 0.  1.
         13    1    3    3    0    0 -0.38615786737E+03  0.47488867130E+03  0.32175848119E+03  0.69149524947E+03  0.10566000000E+00 0. -1.
         -4    1    3    3    0  501 -0.22936775546E+03 -0.21617471382E+03  0.12496501216E+04  0.12887848931E+04  0.00000000000E+00 0. -1.
<mgrwt>
<rscale>  0 0.12013701E+04</rscale>
<asrwt>0</asrwt>
<pdfrwt beam="2">  1        4 0.40286882E+00 0.11976853E+04</pdfrwt>
<pdfrwt beam="1">  1       -4 0.29605949E+00 0.12050662E+04</pdfrwt>
<totfact> 0.26403722E-02</totfact>
</mgrwt>
</event>
<event>
 8    1  0.2939692E-006  0.1069477E+04  0.7818608E-02  0.8716458E-01
         -4   -1    0    0    0  501 -0.00000000000E+00  0.00000000000E+00  0.21251582236E+04  0.21251582236E+04  0.00000000000E+00 0. -1.
          4   -1    0    0  502    0  0.00000000000E+00 -0.00000000000E+00 -0.20934708853E+04  0.20934708853E+04  0.00000000000E+00 0.  1.
   -9000010    2    1    2    0  501  0.34434821987E+03 -0.15499558929E+03  0.18369407126E+04  0.21203629760E+04  0.98943854749E+03 0.  0.
    9000010    2    1    2  502    0 -0.34434821987E+03  0.15499558929E+03 -0.18052533744E+04  0.20982661329E+04  0.10005906704E+04 0.  0.
        -13    1    4    4    0    0  0.10793201405E+03 -0.35023964837E+03 -0.86098702678E+03  0.93574344903E+03  0.10566000000E+00 0.  1.
          4    1    4    4  502    0 -0.45228023393E+03  0.50523523767E+03 -0.94426634757E+03  0.11625226839E+04  0.00000000000E+00 0.  1.
         13    1    3    3    0    0  0.52217223519E+03 -0.45000544082E+03  0.99277086468E+03  0.12086201806E+04  0.10566000000E+00 0. -1.
         -4    1    3    3    0  501 -0.17782401531E+03  0.29500985153E+03  0.84416984788E+03  0.91174279542E+03  0.00000000000E+00 0. -1.
<mgrwt>
<rscale>  0 0.10642510E+04</rscale>
<asrwt>0</asrwt>
<pdfrwt beam="2">  1        4 0.32207244E+00 0.10694770E+04</pdfrwt>
<pdfrwt beam="1">  1       -4 0.32694742E+00 0.10590505E+04</pdfrwt>
<totfact> 0.42233254E-02</totfact>
</mgrwt>
</event>
<event>
 8    1  0.2939692E-006  0.1038489E+04  0.7818608E-02  0.8742179E-01
          4   -1    0    0  502    0  0.00000000000E+00  0.00000000000E+00  0.18005839302E+04  0.18005839302E+04  0.00000000000E+00 0.  1.
         -4   -1    0    0    0  501 -0.00000000000E+00 -0.00000000000E+00 -0.12585749752E+04  0.12585749752E+04  0.00000000000E+00 0. -1.
   -9000010    2    1    2    0  501 -0.10913433361E+03  0.19186857024E+03 -0.83988080428E+03  0.13305531544E+04  0.10080913055E+04 0.  0.
    9000010    2    1    2  502    0  0.10913433361E+03 -0.19186857024E+03  0.13818897593E+04  0.17286057510E+04  0.10147584365E+04 0.  0.
        -13    1    4    4    0    0  0.21127770349E+03  0.35977588269E+03  0.31352274016E+03  0.52189412098E+03  0.10566000000E+00 0.  1.
          4    1    4    4  502    0 -0.10214336988E+03 -0.55164445293E+03  0.10683670191E+04  0.12067116300E+04  0.00000000000E+00 0.  1.
         13    1    3    3    0    0 -0.97660500273E+02  0.28205725093E+03  0.15169287195E+03  0.33482025727E+03  0.10566000000E+00 0. -1.
         -4    1    3    3    0  501 -0.11473833338E+02 -0.90188680686E+02 -0.99157367623E+03  0.99573289710E+03  0.00000000000E+00 0. -1.
<mgrwt>
<rscale>  0 0.10352266E+04</rscale>
<asrwt>0</asrwt>
<pdfrwt beam="1">  1        4 0.27701291E+00 0.10384886E+04</pdfrwt>
<pdfrwt beam="2">  1       -4 0.19362692E+00 0.10319748E+04</pdfrwt>
<totfact> 0.12312414E-01</totfact>
</mgrwt>
</event>
<event>
 8    1  0.2939692E-006  0.1043523E+04  0.7818608E-02  0.8803544E-01
          4   -1    0    0  502    0  0.00000000000E+00  0.00000000000E+00  0.41451881106E+03  0.41451881106E+03  0.00000000000E+00 0.  1.
         -4   -1    0    0    0  501 -0.00000000000E+00 -0.00000000000E+00 -0.31995806358E+04  0.31995806358E+04  0.00000000000E+00 0. -1.
   -9000010    2    1    2    0  501  0.18436933909E+03 -0.22763775372E+03 -0.22863115542E+04  0.24575130654E+04  0.85225521043E+03 0.  0.
    9000010    2    1    2  502    0 -0.18436933909E+03  0.22763775372E+03 -0.49875027054E+03  0.11565863814E+04  0.10015633905E+04 0.  0.
        -13    1    4    4    0    0 -0.16172164740E+03  0.46317740264E+03  0.11059454571E+03  0.50290989477E+03  0.10566000000E+00 0.  1.
          4    1    4    4  502    0 -0.22647691684E+02 -0.23553964891E+03 -0.60934481625E+03  0.65367648668E+03  0.00000000000E+00 0.  1.
         13    1    3    3    0    0  0.81273097066E+02 -0.41596789998E+03 -0.21745407296E+04  0.22154597731E+04  0.10566000000E+00 0. -1.
         -4    1    3    3    0  501  0.10309624202E+03  0.18833014626E+03 -0.11177082456E+03  0.24205329234E+03  0.00000000000E+00 0. -1.
<mgrwt>
<rscale>  0 0.96975062E+03</rscale>
<asrwt>0</asrwt>
<pdfrwt beam="1">  1        4 0.63772123E-01 0.10435230E+04</pdfrwt>
<pdfrwt beam="2">  1       -4 0.49224319E+00 0.90119362E+03</pdfrwt>
<totfact> 0.13876177E-01</totfact>
</mgrwt>
</event>
<event>
 8    1  0.2939692E-006  0.1021180E+04  0.7818608E-02  0.8764289E-01
         -4   -1    0    0    0  501 -0.00000000000E+00  0.00000000000E+00  0.12436617159E+04  0.12436617159E+04  0.00000000000E+00 0. -1.
          4   -1    0    0  502    0  0.00000000000E+00 -0.00000000000E+00 -0.10589779350E+04  0.10589779350E+04  0.00000000000E+00 0.  1.
   -9000010    2    1    2    0  501  0.16208987813E+03  0.14651755970E+02  0.63623297967E+03  0.11860799621E+04  0.98767680420E+03 0.  0.
    9000010    2    1    2  502    0 -0.16208987813E+03 -0.14651755970E+02 -0.45154919873E+03  0.11165596888E+04  0.10081275004E+04 0.  0.
        -13    1    4    4    0    0 -0.37067362504E+03 -0.22026306196E+02 -0.69980901515E+03  0.79222267281E+03  0.10566000000E+00 0.  1.
          4    1    4    4  502    0  0.20858374691E+03  0.73745502260E+01  0.24825981642E+03  0.32433701595E+03  0.00000000000E+00 0.  1.
         13    1    3    3    0    0  0.13717906736E+03 -0.44911528694E+03  0.53290500091E+03  0.71028894730E+03  0.10566000000E+00 0. -1.
         -4    1    3    3    0  501  0.24910810767E+02  0.46376704291E+03  0.10332797876E+03  0.47579101482E+03  0.00000000000E+00 0. -1.
<mgrwt>
<rscale>  0 0.10110378E+04</rscale>
<asrwt>0</asrwt>
<pdfrwt beam="2">  1        4 0.16291968E+00 0.10211801E+04</pdfrwt>
<pdfrwt beam="1">  1       -4 0.19133257E+00 0.10009961E+04</pdfrwt>
<totfact> 0.25513013E-01</totfact>
</mgrwt>
</event>
<event>
 8    1  0.2939692E-006  0.1177735E+04  0.7818608E-02  0.8662864E-01
         -4   -1    0    0    0  501 -0.00000000000E+00  0.00000000000E+00  0.17237981601E+04  0.17237981601E+04  0.00000000000E+00 0. -1.
          4   -1    0    0  502    0  0.00000000000E+00 -0.00000000000E+00 -0.17607695576E+04  0.17607695576E+04  0.00000000000E+00 0.  1.
   -9000010    2    1    2    0  501  0.23976362165E+03 -0.34797943262E+03  0.13082449430E+04  0.16966449886E+04  0.99424499321E+03 0.  0.
    9000010    2    1    2  502    0 -0.23976362165E+03  0.34797943262E+03 -0.13452163405E+04  0.17879227291E+04  0.10993108763E+04 0.  0.
        -13    1    4    4    0    0  0.53951428889E+02  0.58018746403E+03 -0.25654687028E+03  0.63666675578E+03  0.10566000000E+00 0.  1.
          4    1    4    4  502    0 -0.29371505054E+03 -0.23220803141E+03 -0.10886694702E+04  0.11512559733E+04  0.00000000000E+00 0.  1.
         13    1    3    3    0    0 -0.29782325200E+03 -0.12556163069E+03  0.97279487052E+03  0.10250825741E+04  0.10566000000E+00 0. -1.
         -4    1    3    3    0  501  0.53758687365E+03 -0.22241780193E+03  0.33545007248E+03  0.67156241442E+03  0.00000000000E+00 0. -1.
<mgrwt>
<rscale>  0 0.11279785E+04</rscale>
<asrwt>0</asrwt>
<pdfrwt beam="2">  1        4 0.27088762E+00 0.11777354E+04</pdfrwt>
<pdfrwt beam="1">  1       -4 0.26519972E+00 0.10803237E+04</pdfrwt>
<totfact> 0.83702535E-02</totfact>
</mgrwt>
</event>
<event>
 8    1  0.2939692E-006  0.1186413E+04  0.7818608E-02  0.8619476E-01
          4   -1    0    0  502    0  0.00000000000E+00  0.00000000000E+00  0.59703761637E+03  0.59703761637E+03  0.00000000000E+00 0.  1.
         -4   -1    0    0    0  501 -0.00000000000E+00 -0.00000000000E+00 -0.29424157850E+04  0.29424157850E+04  0.00000000000E+00 0. -1.
   -9000010    2    1    2    0  501 -0.57291971151E+03 -0.24739680882E+03 -0.19734291849E+04  0.23026067035E+04  0.10090256223E+04 0.  0.
    9000010    2    1    2  502    0  0.57291971151E+03  0.24739680882E+03 -0.37194898376E+03  0.12368466979E+04  0.10010002651E+04 0.  0.
        -13    1    4    4    0    0  0.18231528959E+03 -0.37620452269E+03 -0.26062541697E+03  0.49264015959E+03  0.10566000000E+00 0.  1.
          4    1    4    4  502    0  0.39060442192E+03  0.62360133152E+03 -0.11132356679E+03  0.74420653828E+03  0.00000000000E+00 0.  1.
         13    1    3    3    0    0  0.19460024642E+03 -0.34638157710E+03 -0.50315506152E+03  0.64110411007E+03  0.10566000000E+00 0. -1.
         -4    1    3    3    0  501 -0.76751995793E+03  0.98984768275E+02 -0.14702741234E+04  0.16615025934E+04  0.00000000000E+00 0. -1.
<mgrwt>
<rscale>  0 0.11829988E+04</rscale>
<asrwt>0</asrwt>
<pdfrwt beam="1">  1        4 0.91851940E-01 0.11795947E+04</pdfrwt>
<pdfrwt beam="2">  1       -4 0.45267936E+00 0.11864126E+04</pdfrwt>
<totfact> 0.97062210E-02</totfact>
</mgrwt>
</event>
<event>
 8    1  0.2939692E-006  0.1181112E+04  0.7818608E-02  0.8622869E-01
          4   -1    0    0  502    0  0.00000000000E+00  0.00000000000E+00  0.12372585890E+04  0.12372585890E+04  0.00000000000E+00 0.  1.
         -4   -1    0    0    0  501 -0.00000000000E+00 -0.00000000000E+00 -0.30669322988E+04  0.30669322988E+04  0.00000000000E+00 0. -1.
   -9000010    2    1    2    0  501 -0.60929644204E+03 -0.10505526847E+03 -0.26290560668E+04  0.28821800759E+04  0.10063535283E+04 0.  0.
    9000010    2    1    2  502    0  0.60929644204E+03  0.10505526847E+03  0.79938235701E+03  0.14220108118E+04  0.10004118314E+04 0.  0.
        -13    1    4    4    0    0  0.56705669284E+03 -0.37350843319E+03  0.34885055960E+03  0.76338624998E+03  0.10566000000E+00 0.  1.
          4    1    4    4  502    0  0.42239749194E+02  0.47856370166E+03  0.45053179741E+03  0.65862456182E+03  0.00000000000E+00 0.  1.
         13    1    3    3    0    0 -0.35091923797E+03  0.65467687986E+02 -0.25330209179E+04  0.25580510768E+04  0.10566000000E+00 0. -1.
         -4    1    3    3    0  501 -0.25837720407E+03 -0.17052295646E+03 -0.96035148917E+02  0.32412899915E+03  0.00000000000E+00 0. -1.
<mgrwt>
<rscale>  0 0.11785803E+04</rscale>
<asrwt>0</asrwt>
<pdfrwt beam="1">  1        4 0.19034748E+00 0.11760538E+04</pdfrwt>
<pdfrwt beam="2">  1       -4 0.47183574E+00 0.11811123E+04</pdfrwt>
<totfact> 0.24200336E-02</totfact>
</mgrwt>
</event>
<event>
 8    1  0.2939692E-006  0.1192433E+04  0.7818608E-02  0.8638522E-01
         -4   -1    0    0    0  501 -0.00000000000E+00  0.00000000000E+00  0.19122016222E+04  0.19122016222E+04  0.00000000000E+00 0. -1.
          4   -1    0    0  502    0  0.00000000000E+00 -0.00000000000E+00 -0.15905133175E+04  0.15905133175E+04  0.00000000000E+00 0.  1.
   -9000010    2    1    2    0  501 -0.35195815216E+03  0.41108090002E+03  0.14672478716E+04  0.18491725887E+04  0.98679324018E+03 0.  0.
    9000010    2    1    2  502    0  0.35195815216E+03 -0.41108090002E+03 -0.11455595670E+04  0.16535423510E+04  0.10625598985E+04 0.  0.
        -13    1    4    4    0    0  0.68794840594E+03 -0.71294143702E+02 -0.83228829242E+03  0.10821551077E+04  0.10566000000E+00 0.  1.
          4    1    4    4  502    0 -0.33599025377E+03 -0.33978675632E+03 -0.31327127455E+03  0.57138724335E+03  0.00000000000E+00 0.  1.
         13    1    3    3    0    0 -0.32606300049E+03  0.58607467069E+03  0.42940168025E+03  0.79635821970E+03  0.10566000000E+00 0. -1.
         -4    1    3    3    0  501 -0.25895151674E+02 -0.17499377067E+03  0.10378461914E+04  0.10528143690E+04  0.00000000000E+00 0. -1.
<mgrwt>
<rscale>  0 0.11584539E+04</rscale>
<asrwt>0</asrwt>
<pdfrwt beam="2">  1        4 0.24469436E+00 0.11924326E+04</pdfrwt>
<pdfrwt beam="1">  1       -4 0.29418486E+00 0.11254434E+04</pdfrwt>
<totfact> 0.81302950E-02</totfact>
</mgrwt>
</event>
<event>
 8    1  0.2939692E-006  0.1111470E+04  0.7818608E-02  0.8676770E-01
          4   -1    0    0  502    0  0.00000000000E+00  0.00000000000E+00  0.11338147550E+04  0.11338147550E+04  0.00000000000E+00 0.  1.
         -4   -1    0    0    0  501 -0.00000000000E+00 -0.00000000000E+00 -0.12797721583E+04  0.12797721583E+04  0.00000000000E+00 0. -1.
   -9000010    2    1    2    0  501 -0.11237646802E+03  0.49034591154E+03 -0.53930476971E+03  0.12345670919E+04  0.99007004105E+03 0.  0.
    9000010    2    1    2  502    0  0.11237646802E+03 -0.49034591154E+03  0.39334736644E+03  0.11790198214E+04  0.99110948188E+03 0.  0.
        -13    1    4    4    0    0  0.19867343778E+03 -0.61966552943E+02 -0.29659996746E+03  0.36232932592E+03  0.10566000000E+00 0.  1.
          4    1    4    4  502    0 -0.86296969757E+02 -0.42837935860E+03  0.68994733390E+03  0.81669049549E+03  0.00000000000E+00 0.  1.
         13    1    3    3    0    0  0.38316859812E+03  0.11535570599E+02 -0.43806731001E+02  0.38583712214E+03  0.10566000000E+00 0. -1.
         -4    1    3    3    0  501 -0.49554506614E+03  0.47881034095E+03 -0.49549803871E+03  0.84872996974E+03  0.00000000000E+00 0. -1.
<mgrwt>
<rscale>  0 0.11110065E+04</rscale>
<asrwt>0</asrwt>
<pdfrwt beam="1">  1        4 0.17443304E+00 0.11114700E+04</pdfrwt>
<pdfrwt beam="2">  1       -4 0.19688802E+00 0.11105432E+04</pdfrwt>
<totfact> 0.22309251E-01</totfact>
</mgrwt>
</event>
<event>
 8    1  0.2939692E-006  0.1023265E+04  0.7818608E-02  0.8753645E-01
         -4   -1    0    0    0  501 -0.00000000000E+00  0.00000000000E+00  0.11241730084E+04  0.11241730084E+04  0.00000000000E+00 0. -1.
          4   -1    0    0  502    0  0.00000000000E+00 -0.00000000000E+00 -0.13755918458E+04  0.13755918458E+04  0.00000000000E+00 0.  1.
   -9000010    2    1    2    0  501 -0.17675675849E+03 -0.89522428428E+02  0.58555207192E+03  0.11777998014E+04  0.10025387406E+04 0.  0.
    9000010    2    1    2  502    0  0.17675675849E+03  0.89522428428E+02 -0.83697090936E+03  0.13219650527E+04  0.10038994375E+04 0.  0.
        -13    1    4    4    0    0 -0.29240085394E+02 -0.33667906612E+03 -0.77382190118E+03  0.84439808270E+03  0.10566000000E+00 0.  1.
          4    1    4    4  502    0  0.20599684389E+03  0.42620149454E+03 -0.63149008174E+02  0.47756697004E+03  0.00000000000E+00 0.  1.
         13    1    3    3    0    0 -0.25975467066E+02  0.19110402492E+03  0.78072775502E+03  0.80419606555E+03  0.10566000000E+00 0. -1.
         -4    1    3    3    0  501 -0.15078129143E+03 -0.28062645335E+03 -0.19517568310E+03  0.37360373584E+03  0.00000000000E+00 0. -1.
<mgrwt>
<rscale>  0 0.10225973E+04</rscale>
<asrwt>0</asrwt>
<pdfrwt beam="2">  1        4 0.21162952E+00 0.10232650E+04</pdfrwt>
<pdfrwt beam="1">  1       -4 0.17294969E+00 0.10219301E+04</pdfrwt>
<totfact> 0.20629913E-01</totfact>
</mgrwt>
</event>
<event>
 8    1  0.2939692E-006  0.1029175E+04  0.7818608E-02  0.8753385E-01
          4   -1    0    0  502    0  0.00000000000E+00  0.00000000000E+00  0.84400097924E+03  0.84400097924E+03  0.00000000000E+00 0.  1.
         -4   -1    0    0    0  501 -0.00000000000E+00 -0.00000000000E+00 -0.33461258536E+04  0.33461258536E+04  0.00000000000E+00 0. -1.
   -9000010    2    1    2    0  501  0.16160313458E+02  0.19951122260E+03 -0.29161468397E+04  0.30924283761E+04  0.10095221576E+04 0.  0.
    9000010    2    1    2  502    0 -0.16160313458E+02 -0.19951122260E+03  0.41402196540E+03  0.10976984567E+04  0.99672555418E+03 0.  0.
        -13    1    4    4    0    0 -0.32069473479E+03  0.27392071497E+03  0.31436338532E+03  0.52602473345E+03  0.10566000000E+00 0.  1.
          4    1    4    4  502    0  0.30453442133E+03 -0.47343193757E+03  0.99658580085E+02  0.57167372327E+03  0.00000000000E+00 0.  1.
         13    1    3    3    0    0  0.26742380300E+03  0.23359667901E+03 -0.27838906053E+04  0.28064443362E+04  0.10566000000E+00 0. -1.
         -4    1    3    3    0  501 -0.25126348954E+03 -0.34085456406E+02 -0.13225623442E+03  0.28598403987E+03  0.00000000000E+00 0. -1.
<mgrwt>
<rscale>  0 0.10228810E+04</rscale>
<asrwt>0</asrwt>
<pdfrwt beam="1">  1        4 0.12984630E+00 0.10166257E+04</pdfrwt>
<pdfrwt beam="2">  1       -4 0.51478859E+00 0.10291748E+04</pdfrwt>
<totfact> 0.27058279E-02</totfact>
</mgrwt>
</event>
<event>
 8    1  0.2939692E-006  0.1284991E+04  0.7818608E-02  0.8548094E-01
         -4   -1    0    0    0  501 -0.00000000000E+00  0.00000000000E+00  0.18220988804E+04  0.18220988804E+04  0.00000000000E+00 0. -1.
          4   -1    0    0  502    0  0.00000000000E+00 -0.00000000000E+00 -0.10503871042E+04  0.10503871042E+04  0.00000000000E+00 0.  1.
   -9000010    2    1    2    0  501  0.37025264668E+03 -0.71379594972E+03  0.92768936811E+03  0.15780626256E+04  0.99150512179E+03 0.  0.
    9000010    2    1    2  502    0 -0.37025264668E+03  0.71379594972E+03 -0.15597759190E+03  0.12944233589E+04  0.10023029197E+04 0.  0.
        -13    1    4    4    0    0 -0.54695574875E+03  0.36359890633E+02 -0.22158152438E+03  0.59125376603E+03  0.10566000000E+00 0.  1.
          4    1    4    4  502    0  0.17670310207E+03  0.67743605908E+03  0.65603932483E+02  0.70316959290E+03  0.00000000000E+00 0.  1.
         13    1    3    3    0    0  0.23192253605E+03  0.22220146576E+03  0.15579677328E+03  0.35697927089E+03  0.10566000000E+00 0. -1.
         -4    1    3    3    0  501  0.13833011063E+03 -0.93599741548E+03  0.77189259483E+03  0.12210833547E+04  0.00000000000E+00 0. -1.
<mgrwt>
<rscale>  0 0.12807822E+04</rscale>
<asrwt>0</asrwt>
<pdfrwt beam="2">  1        4 0.16159802E+00 0.12849914E+04</pdfrwt>
<pdfrwt beam="1">  1       -4 0.28032290E+00 0.12765869E+04</pdfrwt>
<totfact> 0.15256032E-01</totfact>
</mgrwt>
</event>
<event>
 8    1  0.2939692E-006  0.1127798E+04  0.7818608E-02  0.8674714E-01
          4   -1    0    0  502    0  0.00000000000E+00  0.00000000000E+00  0.21597985005E+04  0.21597985005E+04  0.00000000000E+00 0.  1.
         -4   -1    0    0    0  501 -0.00000000000E+00 -0.00000000000E+00 -0.83763343187E+03  0.83763343187E+03  0.00000000000E+00 0. -1.
   -9000010    2    1    2    0  501 -0.22270573790E+03 -0.42002470247E+03 -0.17362877977E+03  0.11410855222E+04  0.10226977165E+04 0.  0.
    9000010    2    1    2  502    0  0.22270573790E+03  0.42002470247E+03  0.14957938484E+04  0.18563464102E+04  0.99126392116E+03 0.  0.
        -13    1    4    4    0    0  0.36997065754E+03  0.62171153024E+03  0.64358173908E+03  0.96829798116E+03  0.10566000000E+00 0.  1.
          4    1    4    4  502    0 -0.14726491964E+03 -0.20168682777E+03  0.85221210934E+03  0.88804842906E+03  0.00000000000E+00 0.  1.
         13    1    3    3    0    0 -0.15235123301E+03 -0.49868389878E+03 -0.54544046415E+03  0.75458719854E+03  0.10566000000E+00 0. -1.
         -4    1    3    3    0  501 -0.70354504894E+02  0.78659196317E+02  0.37181168438E+03  0.38649832363E+03  0.00000000000E+00 0. -1.
<mgrwt>
<rscale>  0 0.11134954E+04</rscale>
<asrwt>0</asrwt>
<pdfrwt beam="1">  1        4 0.33227669E+00 0.10993738E+04</pdfrwt>
<pdfrwt beam="2">  1       -4 0.12886668E+00 0.11277984E+04</pdfrwt>
<totfact> 0.15594708E-01</totfact>
</mgrwt>
</event>
<event>
 8    1  0.2939692E-006  0.1183500E+04  0.7818608E-02  0.8628289E-01
          4   -1    0    0  502    0  0.00000000000E+00  0.00000000000E+00  0.16612119905E+04  0.16612119905E+04  0.00000000000E+00 0.  1.
         -4   -1    0    0    0  501 -0.00000000000E+00 -0.00000000000E+00 -0.24864209217E+04  0.24864209217E+04  0.00000000000E+00 0. -1.
   -9000010    2    1    2    0  501 -0.41300546453E+02  0.62851954788E+03 -0.21084961338E+04  0.24179389947E+04  0.10019633122E+04 0.  0.
    9000010    2    1    2  502    0  0.41300546453E+02 -0.62851954788E+03  0.12832872026E+04  0.17296939175E+04  0.97379281497E+03 0.  0.
        -13    1    4    4    0    0  0.12596670618E+03 -0.64654846563E+02  0.11305821408E+04  0.11394138179E+04  0.10566000000E+00 0.  1.
          4    1    4    4  502    0 -0.84666159727E+02 -0.56386470132E+03  0.15270506183E+03  0.59028009954E+03  0.00000000000E+00 0.  1.
         13    1    3    3    0    0 -0.38708585316E+03  0.34785761862E+03 -0.41143484990E+03  0.66341467230E+03  0.10566000000E+00 0. -1.
         -4    1    3    3    0  501  0.34578530671E+03  0.28066192926E+03 -0.16970612839E+04  0.17545243224E+04  0.00000000000E+00 0. -1.
<mgrwt>
<rscale>  0 0.11715639E+04</rscale>
<asrwt>0</asrwt>
<pdfrwt beam="1">  1        4 0.25557108E+00 0.11597478E+04</pdfrwt>
<pdfrwt beam="2">  1       -4 0.38252629E+00 0.11835003E+04</pdfrwt>
<totfact> 0.40098834E-02</totfact>
</mgrwt>
</event>
<event>
 8    1  0.2939692E-006  0.1082446E+04  0.7818608E-02  0.8705768E-01
         -4   -1    0    0    0  501 -0.00000000000E+00  0.00000000000E+00  0.26363474177E+04  0.26363474177E+04  0.00000000000E+00 0. -1.
          4   -1    0    0  502    0  0.00000000000E+00 -0.00000000000E+00 -0.10020840324E+04  0.10020840324E+04  0.00000000000E+00 0.  1.
   -9000010    2    1    2    0  501 -0.96684556063E+02 -0.33189888413E+03  0.21780764074E+04  0.24270593105E+04  0.10134570969E+04 0.  0.
    9000010    2    1    2  502    0  0.96684556063E+02  0.33189888413E+03 -0.54381302211E+03  0.12113721396E+04  0.10257607347E+04 0.  0.
        -13    1    4    4    0    0 -0.45873581972E+03  0.14150115194E+03 -0.34614889720E+03  0.59184474188E+03  0.10566000000E+00 0.  1.
          4    1    4    4  502    0  0.55542037579E+03  0.19039773220E+03 -0.19766412491E+03  0.61952739773E+03  0.00000000000E+00 0.  1.
         13    1    3    3    0    0 -0.12090797905E+03 -0.36186344837E+03  0.22833241553E+04  0.23149801520E+04  0.10566000000E+00 0. -1.
         -4    1    3    3    0  501  0.24223422985E+02  0.29964564239E+02 -0.10524774789E+03  0.11207915849E+03  0.00000000000E+00 0. -1.
<mgrwt>
<rscale>  0 0.10766044E+04</rscale>
<asrwt>0</asrwt>
<pdfrwt beam="2">  1        4 0.15416678E+00 0.10824462E+04</pdfrwt>
<pdfrwt beam="1">  1       -4 0.40559191E+00 0.10707941E+04</pdfrwt>
<totfact> 0.65021642E-02</totfact>
</mgrwt>
</event>
<event>
 8    1  0.2939692E-006  0.1184337E+04  0.7818608E-02  0.8623242E-01
          4   -1    0    0  502    0  0.00000000000E+00  0.00000000000E+00  0.17689198475E+04  0.17689198475E+04  0.00000000000E+00 0.  1.
         -4   -1    0    0    0  501 -0.00000000000E+00 -0.00000000000E+00 -0.16786265281E+04  0.16786265281E+04  0.00000000000E+00 0. -1.
   -9000010    2    1    2    0  501 -0.30424914889E+03 -0.53213078663E+03 -0.12129282306E+04  0.16865694492E+04  0.99879472150E+03 0.  0.
    9000010    2    1    2  502    0  0.30424914889E+03  0.53213078663E+03  0.13032215500E+04  0.17609769264E+04  0.10133719003E+04 0.  0.
        -13    1    4    4    0    0 -0.22451213217E+03  0.58484400664E+02 -0.45889993367E+02  0.23649952488E+03  0.10566000000E+00 0.  1.
          4    1    4    4  502    0  0.52876128106E+03  0.47364638596E+03  0.13491115434E+04  0.15244774015E+04  0.00000000000E+00 0.  1.
         13    1    3    3    0    0  0.32046310483E+03 -0.48427165888E+02 -0.13738444774E+03  0.35201745638E+03  0.10566000000E+00 0. -1.
         -4    1    3    3    0  501 -0.62471225372E+03 -0.48370362074E+03 -0.10755437829E+04  0.13345519928E+04  0.00000000000E+00 0. -1.
<mgrwt>
<rscale>  0 0.11780959E+04</rscale>
<asrwt>0</asrwt>
<pdfrwt beam="1">  1        4 0.27214151E+00 0.11843367E+04</pdfrwt>
<pdfrwt beam="2">  1       -4 0.25825024E+00 0.11718881E+04</pdfrwt>
<totfact> 0.85810173E-02</totfact>
</mgrwt>
</event>
<event>
 8    1  0.2939692E-006  0.1178029E+04  0.7818608E-02  0.8637417E-01
          4   -1    0    0  502    0  0.00000000000E+00  0.00000000000E+00  0.82186591916E+03  0.82186591916E+03  0.00000000000E+00 0.  1.
         -4   -1    0    0    0  501 -0.00000000000E+00 -0.00000000000E+00 -0.25024931634E+04  0.25024931634E+04  0.00000000000E+00 0. -1.
   -9000010    2    1    2    0  501 -0.24093585853E+03 -0.57615126866E+03 -0.18090645408E+04  0.21393491687E+04  0.95608575990E+03 0.  0.
    9000010    2    1    2  502    0  0.24093585853E+03  0.57615126866E+03  0.12843729655E+03  0.11850099139E+04  0.99887535992E+03 0.  0.
        -13    1    4    4    0    0 -0.30198888630E+03  0.16574406978E+03 -0.23155885654E+03  0.41507577539E+03  0.10566000000E+00 0.  1.
          4    1    4    4  502    0  0.54292474483E+03  0.41040719887E+03  0.35999615309E+03  0.76993413853E+03  0.00000000000E+00 0.  1.
         13    1    3    3    0    0  0.19716200016E+03 -0.40146040321E+01 -0.11370362766E+04  0.11540106052E+04  0.10566000000E+00 0. -1.
         -4    1    3    3    0  501 -0.43809785869E+03 -0.57213666462E+03 -0.67202826421E+03  0.98533856349E+03  0.00000000000E+00 0. -1.
<mgrwt>
<rscale>  0 0.11598605E+04</rscale>
<asrwt>0</asrwt>
<pdfrwt beam="1">  1        4 0.12644091E+00 0.11780290E+04</pdfrwt>
<pdfrwt beam="2">  1       -4 0.38499895E+00 0.11419721E+04</pdfrwt>
<totfact> 0.10542294E-01</totfact>
</mgrwt>
</event>
<event>
 8    1  0.2939692E-006  0.1313285E+04  0.7818608E-02  0.8563602E-01
          4   -1    0    0  502    0  0.00000000000E+00  0.00000000000E+00  0.69452759401E+03  0.69452759401E+03  0.00000000000E+00 0.  1.
         -4   -1    0    0    0  501 -0.00000000000E+00 -0.00000000000E+00 -0.31162156261E+04  0.31162156261E+04  0.00000000000E+00 0. -1.
   -9000010    2    1    2    0  501  0.31948664902E+03  0.56909478845E+03 -0.22316893288E+04  0.25894314288E+04  0.11396390949E+04 0.  0.
    9000010    2    1    2  502    0 -0.31948664902E+03 -0.56909478845E+03 -0.18999870323E+03  0.12213117913E+04  0.10146735373E+04 0.  0.
        -13    1    4    4    0    0  0.36286911202E+03 -0.13846314634E+03 -0.14012436052E+03  0.41289330696E+03  0.10566000000E+00 0.  1.
          4    1    4    4  502    0 -0.68235576104E+03 -0.43063164211E+03 -0.49874342709E+02  0.80841848437E+03  0.00000000000E+00 0.  1.
         13    1    3    3    0    0  0.73442681719E+03  0.46154848209E+03 -0.12867957201E+04  0.15518546928E+04  0.10566000000E+00 0. -1.
         -4    1    3    3    0  501 -0.41494016817E+03  0.10754630636E+03 -0.94489360870E+03  0.10375767359E+04  0.00000000000E+00 0. -1.
<mgrwt>
<rscale>  0 0.12587306E+04</rscale>
<asrwt>0</asrwt>
<pdfrwt beam="1">  1        4 0.10685040E+00 0.12064423E+04</pdfrwt>
<pdfrwt beam="2">  1       -4 0.47941779E+00 0.13132851E+04</pdfrwt>
<totfact> 0.53640682E-02</totfact>
</mgrwt>
</event>
<event>
 8    1  0.2939692E-006  0.1071804E+04  0.7818608E-02  0.8723561E-01
          4   -1    0    0  502    0  0.00000000000E+00  0.00000000000E+00  0.10873599194E+04  0.10873599194E+04  0.00000000000E+00 0.  1.
         -4   -1    0    0    0  501 -0.00000000000E+00 -0.00000000000E+00 -0.14877321599E+04  0.14877321599E+04  0.00000000000E+00 0. -1.
   -9000010    2    1    2    0  501  0.36610316934E+03  0.13793053688E+03 -0.91536448715E+03  0.13859828798E+04  0.96436509431E+03 0.  0.
    9000010    2    1    2  502    0 -0.36610316934E+03 -0.13793053688E+03  0.51499224669E+03  0.11891091995E+04  0.99785134692E+03 0.  0.
        -13    1    4    4    0    0 -0.14733973457E+03  0.34795007202E+03 -0.84332768615E+02  0.38715665696E+03  0.10566000000E+00 0.  1.
          4    1    4    4  502    0 -0.21876343477E+03 -0.48588060890E+03  0.59932501531E+03  0.80195254253E+03  0.00000000000E+00 0.  1.
         13    1    3    3    0    0  0.69050329074E+03  0.17992292101E+03 -0.63281904173E+03  0.95374367771E+03  0.10566000000E+00 0. -1.
         -4    1    3    3    0  501 -0.32440012140E+03 -0.41992384131E+02 -0.28254544542E+03  0.43223920208E+03  0.00000000000E+00 0. -1.
<mgrwt>
<rscale>  0 0.10561374E+04</rscale>
<asrwt>0</asrwt>
<pdfrwt beam="1">  1        4 0.16728614E+00 0.10718039E+04</pdfrwt>
<pdfrwt beam="2">  1       -4 0.22888187E+00 0.10407000E+04</pdfrwt>
<totfact> 0.19511776E-01</totfact>
</mgrwt>
</event>
<event>
 8    1  0.2939692E-006  0.1110420E+04  0.7818608E-02  0.8705711E-01
          4   -1    0    0  502    0  0.00000000000E+00  0.00000000000E+00  0.85600770748E+03  0.85600770748E+03  0.00000000000E+00 0.  1.
         -4   -1    0    0    0  501 -0.00000000000E+00 -0.00000000000E+00 -0.13893001227E+04  0.13893001227E+04  0.00000000000E+00 0. -1.
   -9000010    2    1    2    0  501 -0.23290972535E+03 -0.45024455714E+03 -0.44968758921E+03  0.11980194914E+04  0.98795985365E+03 0.  0.
    9000010    2    1    2  502    0  0.23290972535E+03  0.45024455714E+03 -0.83604826053E+02  0.10472883388E+04  0.91260944349E+03 0.  0.
        -13    1    4    4    0    0  0.33811015653E+03  0.60226643820E+03 -0.30825492856E+03  0.75634942499E+03  0.10566000000E+00 0.  1.
          4    1    4    4  502    0 -0.10520043118E+03 -0.15202188106E+03  0.22465010250E+03  0.29093891386E+03  0.00000000000E+00 0.  1.
         13    1    3    3    0    0 -0.26752143464E+03 -0.26228432817E+03 -0.75211669600E+03  0.84026205577E+03  0.10566000000E+00 0. -1.
         -4    1    3    3    0  501  0.34611709285E+02 -0.18796022897E+03  0.30242910679E+03  0.35775743561E+03  0.00000000000E+00 0. -1.
<mgrwt>
<rscale>  0 0.10766699E+04</rscale>
<asrwt>0</asrwt>
<pdfrwt beam="1">  1        4 0.13169349E+00 0.10439459E+04</pdfrwt>
<pdfrwt beam="2">  1       -4 0.21373848E+00 0.11104196E+04</pdfrwt>
<totfact> 0.30280415E-01</totfact>
</mgrwt>
</event>
<event>
 8    1  0.2939692E-006  0.1155684E+04  0.7818608E-02  0.8647538E-01
          4   -1    0    0  502    0  0.00000000000E+00  0.00000000000E+00  0.10932814306E+04  0.10932814306E+04  0.00000000000E+00 0.  1.
         -4   -1    0    0    0  501 -0.00000000000E+00 -0.00000000000E+00 -0.32855260230E+04  0.32855260230E+04  0.00000000000E+00 0. -1.
   -9000010    2    1    2    0  501 -0.36268454270E+03  0.44409834545E+03 -0.28419772646E+04  0.30679701183E+04  0.10034153957E+04 0.  0.
    9000010    2    1    2  502    0  0.36268454270E+03 -0.44409834545E+03  0.64973267226E+03  0.13108373353E+04  0.98355404333E+03 0.  0.
        -13    1    4    4    0    0 -0.84479829140E+02 -0.72255840465E+02  0.71684063695E+03  0.72540902804E+03  0.10566000000E+00 0.  1.
          4    1    4    4  502    0  0.44716437184E+03 -0.37184250499E+03 -0.67107964698E+02  0.58542830721E+03  0.00000000000E+00 0.  1.
         13    1    3    3    0    0  0.19740158004E+03  0.40252734886E+03 -0.55715716365E+03  0.71513618742E+03  0.10566000000E+00 0. -1.
         -4    1    3    3    0  501 -0.56008612274E+03  0.41570996591E+02 -0.22848201010E+04  0.23528339309E+04  0.00000000000E+00 0. -1.
<mgrwt>
<rscale>  0 0.11470510E+04</rscale>
<asrwt>0</asrwt>
<pdfrwt beam="1">  1        4 0.16819714E+00 0.11384823E+04</pdfrwt>
<pdfrwt beam="2">  1       -4 0.50546554E+00 0.11556842E+04</pdfrwt>
<totfact> 0.20066756E-02</totfact>
</mgrwt>
</event>
<event>
 8    1  0.2939692E-006  0.1063958E+04  0.7818608E-02  0.8724801E-01
          4   -1    0    0  502    0  0.00000000000E+00  0.00000000000E+00  0.33941943433E+04  0.33941943433E+04  0.00000000000E+00 0.  1.
         -4   -1    0    0    0  501 -0.00000000000E+00 -0.00000000000E+00 -0.36077342201E+03  0.36077342201E+03  0.00000000000E+00 0. -1.
   -9000010    2    1    2    0  501 -0.15504556356E+03 -0.20977973537E+03  0.93693033108E+03  0.14039509413E+04  0.10125182153E+04 0.  0.
    9000010    2    1    2  502    0  0.15504556356E+03  0.20977973537E+03  0.20964905902E+04  0.23510168240E+04  0.10314846812E+04 0.  0.
        -13    1    4    4    0    0  0.23608682108E+03 -0.76750913148E+02  0.15395090690E+02  0.24872617421E+03  0.10566000000E+00 0.  1.
          4    1    4    4  502    0 -0.81041257518E+02  0.28653064851E+03  0.20810954995E+04  0.21022906498E+04  0.00000000000E+00 0.  1.
         13    1    3    3    0    0 -0.13628324806E+03  0.21588486202E+03 -0.10669401498E+03  0.27670023734E+03  0.10566000000E+00 0. -1.
         -4    1    3    3    0  501 -0.18762315504E+02 -0.42566459738E+03  0.10436243461E+04  0.11272507040E+04  0.00000000000E+00 0. -1.
<mgrwt>
<rscale>  0 0.10547297E+04</rscale>
<asrwt>0</asrwt>
<pdfrwt beam="1">  1        4 0.52218372E+00 0.10639583E+04</pdfrwt>
<pdfrwt beam="2">  1       -4 0.55503606E-01 0.10455811E+04</pdfrwt>
<totfact> 0.13211482E-01</totfact>
</mgrwt>
</event>
<event>
 8    1  0.2939692E-006  0.1098165E+04  0.7818608E-02  0.8730750E-01
         -4   -1    0    0    0  501 -0.00000000000E+00  0.00000000000E+00  0.23625617808E+04  0.23625617808E+04  0.00000000000E+00 0. -1.
          4   -1    0    0  502    0  0.00000000000E+00 -0.00000000000E+00 -0.25613778027E+04  0.25613778027E+04  0.00000000000E+00 0.  1.
   -9000010    2    1    2    0  501 -0.16569643692E+03  0.90259410713E+01  0.21278274895E+04  0.23511518069E+04  0.98626985008E+03 0.  0.
    9000010    2    1    2  502    0  0.16569643692E+03 -0.90259410713E+01 -0.23266435114E+04  0.25727877766E+04  0.10855552209E+04 0.  0.
        -13    1    4    4    0    0 -0.36413071308E+03  0.79053108445E+02 -0.17314217024E+04  0.17710623063E+04  0.10566000000E+00 0.  1.
          4    1    4    4  502    0  0.52982715000E+03 -0.88079049517E+02 -0.59522180898E+03  0.80172547030E+03  0.00000000000E+00 0.  1.
         13    1    3    3    0    0 -0.42150389116E+02 -0.95596102700E+02 -0.83599756082E+02  0.13380657882E+03  0.10566000000E+00 0. -1.
         -4    1    3    3    0  501 -0.12354604781E+03  0.10462204377E+03  0.22114272456E+04  0.22173452281E+04  0.00000000000E+00 0. -1.
<mgrwt>
<rscale>  0 0.10480032E+04</rscale>
<asrwt>0</asrwt>
<pdfrwt beam="2">  1        4 0.39405812E+00 0.10981652E+04</pdfrwt>
<pdfrwt beam="1">  1       -4 0.36347104E+00 0.10001325E+04</pdfrwt>
<totfact> 0.18345928E-02</totfact>
</mgrwt>
</event>
<event>
 8    1  0.2939692E-006  0.1070861E+04  0.7818608E-02  0.8715884E-01
          4   -1    0    0  502    0  0.00000000000E+00  0.00000000000E+00  0.17700739974E+04  0.17700739974E+04  0.00000000000E+00 0.  1.
         -4   -1    0    0    0  501 -0.00000000000E+00 -0.00000000000E+00 -0.88297002612E+03  0.88297002612E+03  0.00000000000E+00 0. -1.
   -9000010    2    1    2    0  501  0.34838054382E+03 -0.18081331146E+03 -0.24951264432E+03  0.10995449429E+04  0.99633331010E+03 0.  0.
    9000010    2    1    2  502    0 -0.34838054382E+03  0.18081331146E+03  0.11366166156E+04  0.15534990807E+04  0.98356474409E+03 0.  0.
        -13    1    4    4    0    0 -0.56123923480E+03  0.99656030916E+00  0.23262977997E+03  0.60754184835E+03  0.10566000000E+00 0.  1.
          4    1    4    4  502    0  0.21285869098E+03  0.17981675115E+03  0.90398683568E+03  0.94595723233E+03  0.00000000000E+00 0.  1.
         13    1    3    3    0    0  0.35420894512E+03  0.78281086441E+02  0.31369007487E+03  0.47957624997E+03  0.10566000000E+00 0. -1.
         -4    1    3    3    0  501 -0.58284013037E+01 -0.25909439790E+03 -0.56320271919E+03  0.61996869290E+03  0.00000000000E+00 0. -1.
<mgrwt>
<rscale>  0 0.10649093E+04</rscale>
<asrwt>0</asrwt>
<pdfrwt beam="1">  1        4 0.27231907E+00 0.10589911E+04</pdfrwt>
<pdfrwt beam="2">  1       -4 0.13584154E+00 0.10708606E+04</pdfrwt>
<totfact> 0.20894156E-01</totfact>
</mgrwt>
</event>
<event>
 8    1  0.2939692E-006  0.1250461E+04  0.7818608E-02  0.8576812E-01
         -4   -1    0    0    0  501 -0.00000000000E+00  0.00000000000E+00  0.91393915408E+03  0.91393915408E+03  0.00000000000E+00 0. -1.
          4   -1    0    0  502    0  0.00000000000E+00 -0.00000000000E+00 -0.20311424462E+04  0.20311424462E+04  0.00000000000E+00 0.  1.
   -9000010    2    1    2    0  501 -0.67176110779E+03  0.26300167065E+03  0.46955733345E+02  0.12513427374E+04  0.10213818781E+04 0.  0.
    9000010    2    1    2  502    0  0.67176110779E+03 -0.26300167065E+03 -0.11641590255E+04  0.16937388629E+04  0.99652006219E+03 0.  0.
        -13    1    4    4    0    0  0.53062268231E+03 -0.13580008050E+03 -0.35147106661E+02  0.54885100265E+03  0.10566000000E+00 0.  1.
          4    1    4    4  502    0  0.14113842548E+03 -0.12720159015E+03 -0.11290119188E+04  0.11448878602E+04  0.00000000000E+00 0.  1.
         13    1    3    3    0    0 -0.93880776578E+03  0.11800809010E+03  0.22028481247E+02  0.94645189818E+03  0.10566000000E+00 0. -1.
         -4    1    3    3    0  501  0.26704665800E+03  0.14499358055E+03  0.24927252098E+02  0.30489083923E+03  0.00000000000E+00 0. -1.
<mgrwt>
<rscale>  0 0.12403084E+04</rscale>
<asrwt>0</asrwt>
<pdfrwt beam="2">  1        4 0.31248345E+00 0.12302378E+04</pdfrwt>
<pdfrwt beam="1">  1       -4 0.14060603E+00 0.12504614E+04</pdfrwt>
<totfact> 0.15359367E-01</totfact>
</mgrwt>
</event>
<event>
 8    1  0.2939692E-006  0.1694131E+04  0.7818608E-02  0.8307000E-01
          4   -1    0    0  502    0  0.00000000000E+00  0.00000000000E+00  0.30710659434E+04  0.30710659434E+04  0.00000000000E+00 0.  1.
         -4   -1    0    0    0  501 -0.00000000000E+00 -0.00000000000E+00 -0.23855001011E+04  0.23855001011E+04  0.00000000000E+00 0. -1.
   -9000010    2    1    2    0  501  0.26429455912E+03 -0.13438122473E+04 -0.17871800629E+04  0.24591419265E+04  0.98877877601E+03 0.  0.
    9000010    2    1    2  502    0 -0.26429455912E+03  0.13438122473E+04  0.24727459052E+04  0.29974241179E+04  0.99719409413E+03 0.  0.
        -13    1    4    4    0    0 -0.19236243453E+03  0.10164563454E+04  0.84561770320E+03  0.13361347685E+04  0.10566000000E+00 0.  1.
          4    1    4    4  502    0 -0.71932124590E+02  0.32735590186E+03  0.16271282020E+04  0.16612893495E+04  0.00000000000E+00 0.  1.
         13    1    3    3    0    0 -0.13504479274E+03 -0.67249618673E+03 -0.14584085050E+04  0.16116586475E+04  0.10566000000E+00 0. -1.
         -4    1    3    3    0  501  0.39933935186E+03 -0.67131606056E+03 -0.32877155783E+03  0.84748327909E+03  0.00000000000E+00 0. -1.
<mgrwt>
<rscale>  0 0.16916591E+04</rscale>
<asrwt>0</asrwt>
<pdfrwt beam="1">  1        4 0.47247169E+00 0.16941308E+04</pdfrwt>
<pdfrwt beam="2">  1       -4 0.36700001E+00 0.16891911E+04</pdfrwt>
<totfact> 0.72908693E-03</totfact>
</mgrwt>
</event>
<event>
 8    1  0.2939692E-006  0.1265236E+04  0.7818608E-02  0.8569908E-01
         -4   -1    0    0    0  501 -0.00000000000E+00  0.00000000000E+00  0.22497351916E+04  0.22497351916E+04  0.00000000000E+00 0. -1.
          4   -1    0    0  502    0  0.00000000000E+00 -0.00000000000E+00 -0.15842222707E+04  0.15842222707E+04  0.00000000000E+00 0.  1.
   -9000010    2    1    2    0  501  0.45836167229E+03 -0.66285566338E+03  0.17675215451E+04  0.21560883757E+04  0.93547400745E+03 0.  0.
    9000010    2    1    2  502    0 -0.45836167229E+03  0.66285566338E+03 -0.11020086242E+04  0.16778690865E+04  0.97537101183E+03 0.  0.
        -13    1    4    4    0    0  0.22428067925E+03  0.49463196562E+03 -0.33846167879E+03  0.63993665598E+03  0.10566000000E+00 0.  1.
          4    1    4    4  502    0 -0.68264235154E+03  0.16822369776E+03 -0.76354694537E+03  0.10379324306E+04  0.00000000000E+00 0.  1.
         13    1    3    3    0    0  0.10682697577E+03 -0.79343871264E+03  0.14832228327E+04  0.16854990288E+04  0.10566000000E+00 0. -1.
         -4    1    3    3    0  501  0.35153469652E+03  0.13058304926E+03  0.28429871240E+03  0.47058934697E+03  0.00000000000E+00 0. -1.
<mgrwt>
<rscale>  0 0.12498953E+04</rscale>
<asrwt>0</asrwt>
<pdfrwt beam="2">  1        4 0.24372650E+00 0.12652358E+04</pdfrwt>
<pdfrwt beam="1">  1       -4 0.34611311E+00 0.12347407E+04</pdfrwt>
<totfact> 0.57602621E-02</totfact>
</mgrwt>
</event>
<event>
 8    1  0.2939692E-006  0.1055115E+04  0.7818608E-02  0.8733625E-01
          4   -1    0    0  502    0  0.00000000000E+00  0.00000000000E+00  0.38479762339E+04  0.38479762339E+04  0.00000000000E+00 0.  1.
         -4   -1    0    0    0  501 -0.00000000000E+00 -0.00000000000E+00 -0.96803593145E+03  0.96803593145E+03  0.00000000000E+00 0. -1.
   -9000010    2    1    2    0  501 -0.29083907619E+03 -0.91049286837E+02 -0.58879877396E+03  0.11903511717E+04  0.98862256438E+03 0.  0.
    9000010    2    1    2  502    0  0.29083907619E+03  0.91049286837E+02  0.34687390764E+04  0.36256609937E+04  0.10101433166E+04 0.  0.
        -13    1    4    4    0    0  0.37440631054E+03 -0.39736192171E+03  0.21064718839E+04  0.21760745371E+04  0.10566000000E+00 0.  1.
          4    1    4    4  502    0 -0.83567234348E+02  0.48841120855E+03  0.13622671925E+04  0.14495864566E+04  0.00000000000E+00 0.  1.
         13    1    3    3    0    0 -0.93239235526E+02  0.39567268539E+03 -0.71068333130E+01  0.40657219193E+03  0.10566000000E+00 0. -1.
         -4    1    3    3    0  501 -0.19759984067E+03 -0.48672197222E+03 -0.58169194065E+03  0.78377897975E+03  0.00000000000E+00 0. -1.
<mgrwt>
<rscale>  0 0.10447715E+04</rscale>
<asrwt>0</asrwt>
<pdfrwt beam="1">  1        4 0.59199633E+00 0.10551146E+04</pdfrwt>
<pdfrwt beam="2">  1       -4 0.14892861E+00 0.10345298E+04</pdfrwt>
<totfact> 0.87766474E-03</totfact>
</mgrwt>
</event>
<event>
 8    1  0.2939692E-006  0.1268711E+04  0.7818608E-02  0.8560239E-01
          4   -1    0    0  502    0  0.00000000000E+00  0.00000000000E+00  0.19405190189E+04  0.19405190189E+04  0.00000000000E+00 0.  1.
         -4   -1    0    0    0  501 -0.00000000000E+00 -0.00000000000E+00 -0.13128606645E+04  0.13128606645E+04  0.00000000000E+00 0. -1.
   -9000010    2    1    2    0  501  0.17667211945E+03 -0.75568974671E+03 -0.67933948365E+03  0.14391416275E+04  0.10036665078E+04 0.  0.
    9000010    2    1    2  502    0 -0.17667211945E+03  0.75568974671E+03  0.13069978381E+04  0.18142380559E+04  0.99042230561E+03 0.  0.
        -13    1    4    4    0    0 -0.50483841993E+03  0.16506929927E+03  0.32645460057E+03  0.62344391985E+03  0.10566000000E+00 0.  1.
          4    1    4    4  502    0  0.32816630047E+03  0.59062044744E+03  0.98054323752E+03  0.11907941360E+04  0.00000000000E+00 0.  1.
         13    1    3    3    0    0  0.57755859157E+03 -0.57561830559E+03 -0.33806997900E+03  0.88272401253E+03  0.10566000000E+00 0. -1.
         -4    1    3    3    0  501 -0.40088647212E+03 -0.18007144112E+03 -0.34126950465E+03  0.55641761496E+03  0.00000000000E+00 0. -1.
<mgrwt>
<rscale>  0 0.12634741E+04</rscale>
<asrwt>0</asrwt>
<pdfrwt beam="1">  1        4 0.29854139E+00 0.12582593E+04</pdfrwt>
<pdfrwt beam="2">  1       -4 0.20197856E+00 0.12687106E+04</pdfrwt>
<totfact> 0.10064241E-01</totfact>
</mgrwt>
</event>
<event>
 8    1  0.2939692E-006  0.1105008E+04  0.7818608E-02  0.8695110E-01
          4   -1    0    0  502    0  0.00000000000E+00  0.00000000000E+00  0.18470933097E+04  0.18470933097E+04  0.00000000000E+00 0.  1.
         -4   -1    0    0    0  501 -0.00000000000E+00 -0.00000000000E+00 -0.12573954563E+04  0.12573954563E+04  0.00000000000E+00 0. -1.
   -9000010    2    1    2    0  501 -0.40075433866E+03 -0.15686944616E+03 -0.79294618038E+03  0.13345322127E+04  0.98336184530E+03 0.  0.
    9000010    2    1    2  502    0  0.40075433866E+03  0.15686944616E+03  0.13826440338E+04  0.17699565532E+04  0.10177571484E+04 0.  0.
        -13    1    4    4    0    0 -0.58692585764E+02 -0.58905075788E+02  0.12398857043E+04  0.12426709937E+04  0.10566000000E+00 0.  1.
          4    1    4    4  502    0  0.45944692442E+03  0.21577452194E+03  0.14275832947E+03  0.52728555955E+03  0.00000000000E+00 0.  1.
         13    1    3    3    0    0  0.12497796684E+03 -0.43242647185E+03 -0.19043532561E+03  0.48875123545E+03  0.10566000000E+00 0. -1.
         -4    1    3    3    0  501 -0.52573230549E+03  0.27555702569E+03 -0.60251085477E+03  0.84578097730E+03  0.00000000000E+00 0. -1.
<mgrwt>
<rscale>  0 0.10890950E+04</rscale>
<asrwt>0</asrwt>
<pdfrwt beam="1">  1        4 0.28416820E+00 0.11050075E+04</pdfrwt>
<pdfrwt beam="2">  1       -4 0.19344546E+00 0.10734117E+04</pdfrwt>
<totfact> 0.11767852E-01</totfact>
</mgrwt>
</event>
<event>
 8    1  0.2939692E-006  0.1187052E+04  0.7818608E-02  0.8637799E-01
         -4   -1    0    0    0  501 -0.00000000000E+00  0.00000000000E+00  0.24100238135E+04  0.24100238135E+04  0.00000000000E+00 0. -1.
          4   -1    0    0  502    0  0.00000000000E+00 -0.00000000000E+00 -0.13714813245E+04  0.13714813245E+04  0.00000000000E+00 0.  1.
   -9000010    2    1    2    0  501 -0.25485490504E+03  0.45230350752E+03  0.19802270696E+04  0.23087640197E+04  0.10675029582E+04 0.  0.
    9000010    2    1    2  502    0  0.25485490504E+03 -0.45230350752E+03 -0.94168458060E+03  0.14727411183E+04  0.10063136026E+04 0.  0.
        -13    1    4    4    0    0 -0.38803121959E+03 -0.17460933408E+03 -0.43388406818E+03  0.60771049251E+03  0.10566000000E+00 0.  1.
          4    1    4    4  502    0  0.64288612463E+03 -0.27769417344E+03 -0.50780051242E+03  0.86503062583E+03  0.00000000000E+00 0.  1.
         13    1    3    3    0    0 -0.51165175719E+03  0.59667835050E+03  0.17981579514E+04  0.19624435288E+04  0.10566000000E+00 0. -1.
         -4    1    3    3    0  501  0.25679685215E+03 -0.14437484298E+03  0.18206911824E+03  0.34632049084E+03  0.00000000000E+00 0. -1.
<mgrwt>
<rscale>  0 0.11593738E+04</rscale>
<asrwt>0</asrwt>
<pdfrwt beam="2">  1        4 0.21099713E+00 0.11323412E+04</pdfrwt>
<pdfrwt beam="1">  1       -4 0.37077289E+00 0.11870518E+04</pdfrwt>
<totfact> 0.57168318E-02</totfact>
</mgrwt>
</event>
<event>
 8    1  0.2939692E-006  0.1142499E+04  0.7818608E-02  0.8689501E-01
          4   -1    0    0  502    0  0.00000000000E+00  0.00000000000E+00  0.18531191120E+04  0.18531191120E+04  0.00000000000E+00 0.  1.
         -4   -1    0    0    0  501 -0.00000000000E+00 -0.00000000000E+00 -0.13306385462E+04  0.13306385462E+04  0.00000000000E+00 0. -1.
   -9000010    2    1    2    0  501 -0.34077357117E+03  0.56459243539E+02 -0.87227208893E+03  0.14374155440E+04  0.10890319444E+04 0.  0.
    9000010    2    1    2  502    0  0.34077357117E+03 -0.56459243539E+02  0.13947526547E+04  0.17463421142E+04  0.99250266438E+03 0.  0.
        -13    1    4    4    0    0  0.34362478504E+03 -0.15905911566E+03  0.15302255234E+04  0.15763781141E+04  0.10566000000E+00 0.  1.
          4    1    4    4  502    0 -0.28512138703E+01  0.10259987212E+03 -0.13547286862E+03  0.16996400004E+03  0.00000000000E+00 0.  1.
         13    1    3    3    0    0  0.37870119767E+03  0.11824173345E+03 -0.45393186929E+03  0.60286802682E+03  0.10566000000E+00 0. -1.
         -4    1    3    3    0  501 -0.71947476883E+03 -0.61782489913E+02 -0.41834021964E+03  0.83454751717E+03  0.00000000000E+00 0. -1.
<mgrwt>
<rscale>  0 0.10957392E+04</rscale>
<asrwt>0</asrwt>
<pdfrwt beam="1">  1        4 0.28509525E+00 0.10508929E+04</pdfrwt>
<pdfrwt beam="2">  1       -4 0.20471362E+00 0.11424994E+04</pdfrwt>
<totfact> 0.10889450E-01</totfact>
</mgrwt>
</event>
<event>
 8    1  0.2939692E-006  0.1120595E+04  0.7818608E-02  0.8677287E-01
          4   -1    0    0  502    0  0.00000000000E+00  0.00000000000E+00  0.17843191008E+04  0.17843191008E+04  0.00000000000E+00 0.  1.
         -4   -1    0    0    0  501 -0.00000000000E+00 -0.00000000000E+00 -0.79006651535E+03  0.79006651535E+03  0.00000000000E+00 0. -1.
   -9000010    2    1    2    0  501  0.47356977630E+03  0.13868601675E+03  0.45433421211E+02  0.11215154889E+04  0.10060967407E+04 0.  0.
    9000010    2    1    2  502    0 -0.47356977630E+03 -0.13868601675E+03  0.94881916425E+03  0.14528701273E+04  0.98339801511E+03 0.  0.
        -13    1    4    4    0    0  0.81750959154E+02  0.33627015783E+03  0.17227181706E+03  0.38657266909E+03  0.10566000000E+00 0.  1.
          4    1    4    4  502    0 -0.55532073545E+03 -0.47495617458E+03  0.77654734719E+03  0.10662974582E+04  0.00000000000E+00 0.  1.
         13    1    3    3    0    0  0.21825910645E+03 -0.41555403642E+03  0.16905715567E+03  0.49890132069E+03  0.10566000000E+00 0. -1.
         -4    1    3    3    0  501  0.25531066985E+03  0.55424005317E+03 -0.12362373446E+03  0.62261416817E+03  0.00000000000E+00 0. -1.
<mgrwt>
<rscale>  0 0.11103813E+04</rscale>
<asrwt>0</asrwt>
<pdfrwt beam="1">  1        4 0.27451063E+00 0.11002608E+04</pdfrwt>
<pdfrwt beam="2">  1       -4 0.12154870E+00 0.11205948E+04</pdfrwt>
<totfact> 0.24657476E-01</totfact>
</mgrwt>
</event>
<event>
 8    1  0.2939692E-006  0.1093780E+04  0.7818608E-02  0.8746550E-01
          4   -1    0    0  502    0  0.00000000000E+00  0.00000000000E+00  0.30102838803E+03  0.30102838803E+03  0.00000000000E+00 0.  1.
         -4   -1    0    0    0  501 -0.00000000000E+00 -0.00000000000E+00 -0.36856602002E+04  0.36856602002E+04  0.00000000000E+00 0. -1.
   -9000010    2    1    2    0  501  0.25080255113E+03 -0.35655663866E+03 -0.21854921669E+04  0.24439172664E+04  0.10031555398E+04 0.  0.
    9000010    2    1    2  502    0 -0.25080255113E+03  0.35655663866E+03 -0.11991396453E+04  0.15427713219E+04  0.86727902461E+03 0.  0.
        -13    1    4    4    0    0 -0.87641720568E+01 -0.27040872667E+03 -0.52637499048E+03  0.59183471674E+03  0.10566000000E+00 0.  1.
          4    1    4    4  502    0 -0.24203837907E+03  0.62696536533E+03 -0.67276465480E+03  0.95093660515E+03  0.00000000000E+00 0.  1.
         13    1    3    3    0    0  0.35430706894E+03 -0.31342137291E+03 -0.22602035608E+04  0.23091744419E+04  0.10566000000E+00 0. -1.
         -4    1    3    3    0  501 -0.10350451781E+03 -0.43135265744E+02  0.74711393859E+02  0.13474282441E+03  0.00000000000E+00 0. -1.
<mgrwt>
<rscale>  0 0.10303902E+04</rscale>
<asrwt>0</asrwt>
<pdfrwt beam="1">  1        4 0.46312061E-01 0.97067372E+03</pdfrwt>
<pdfrwt beam="2">  1       -4 0.56702463E+00 0.10937804E+04</pdfrwt>
<totfact> 0.11385270E-01</totfact>
</mgrwt>
</event>
<event>
 8    1  0.2939692E-006  0.1070109E+04  0.7818608E-02  0.8715261E-01
          4   -1    0    0  502    0  0.00000000000E+00  0.00000000000E+00  0.17745288615E+04  0.17745288615E+04  0.00000000000E+00 0.  1.
         -4   -1    0    0    0  501 -0.00000000000E+00 -0.00000000000E+00 -0.12612853874E+04  0.12612853874E+04  0.00000000000E+00 0. -1.
   -9000010    2    1    2    0  501 -0.21668451912E+02  0.40035645514E+03 -0.80821522442E+03  0.13410240392E+04  0.99215866261E+03 0.  0.
    9000010    2    1    2  502    0  0.21668451912E+02 -0.40035645514E+03  0.13214586985E+04  0.16947902097E+04  0.98249984744E+03 0.  0.
        -13    1    4    4    0    0 -0.20428996000E+02  0.18415801333E+02 -0.15607515214E+03  0.15848012461E+03  0.10566000000E+00 0.  1.
          4    1    4    4  502    0  0.42097447913E+02 -0.41877225647E+03  0.14775338506E+04  0.15363100851E+04  0.00000000000E+00 0.  1.
         13    1    3    3    0    0  0.41273737428E+03  0.25930174559E+03 -0.72979948293E+03  0.87760858692E+03  0.10566000000E+00 0. -1.
         -4    1    3    3    0  501 -0.43440582619E+03  0.14105470954E+03 -0.78415741499E+02  0.46341545230E+03  0.00000000000E+00 0. -1.
<mgrwt>
<rscale>  0 0.10656252E+04</rscale>
<asrwt>0</asrwt>
<pdfrwt beam="1">  1        4 0.27300444E+00 0.10611601E+04</pdfrwt>
<pdfrwt beam="2">  1       -4 0.19404391E+00 0.10701092E+04</pdfrwt>
<totfact> 0.12540488E-01</totfact>
</mgrwt>
</event>
<event>
 8    1  0.2939692E-006  0.1226609E+04  0.7818608E-02  0.8619336E-01
         -4   -1    0    0    0  501 -0.00000000000E+00  0.00000000000E+00  0.25253865852E+04  0.25253865852E+04  0.00000000000E+00 0. -1.
          4   -1    0    0  502    0  0.00000000000E+00 -0.00000000000E+00 -0.71155564894E+03  0.71155564894E+03  0.00000000000E+00 0.  1.
   -9000010    2    1    2    0  501 -0.18151601233E+03  0.64656524047E+03  0.16400610839E+04  0.19980858247E+04  0.92279571476E+03 0.  0.
    9000010    2    1    2  502    0  0.18151601233E+03 -0.64656524047E+03  0.17376985233E+03  0.12388564094E+04  0.10264378055E+04 0.  0.
        -13    1    4    4    0    0  0.47578902100E+03 -0.21603204693E+03  0.41209752955E+03  0.66548435206E+03  0.10566000000E+00 0.  1.
          4    1    4    4  502    0 -0.29427300866E+03 -0.43053319354E+03 -0.23832767722E+03  0.57337205730E+03  0.00000000000E+00 0.  1.
         13    1    3    3    0    0 -0.44212994022E+03  0.54065536746E+03  0.15542769936E+04  0.17039847694E+04  0.10566000000E+00 0. -1.
         -4    1    3    3    0  501  0.26061392789E+03  0.10590987301E+03  0.85784090340E+02  0.29410105536E+03  0.00000000000E+00 0. -1.
<mgrwt>
<rscale>  0 0.11831815E+04</rscale>
<asrwt>0</asrwt>
<pdfrwt beam="2">  1        4 0.10947010E+00 0.12266088E+04</pdfrwt>
<pdfrwt beam="1">  1       -4 0.38852101E+00 0.11412916E+04</pdfrwt>
<totfact> 0.13092812E-01</totfact>
</mgrwt>
</event>
<event>
 8    1  0.2939692E-006  0.1092077E+04  0.7818608E-02  0.8695722E-01
         -4   -1    0    0    0  501 -0.00000000000E+00  0.00000000000E+00  0.84087909489E+03  0.84087909489E+03  0.00000000000E+00 0. -1.
          4   -1    0    0  502    0  0.00000000000E+00 -0.00000000000E+00 -0.17294766280E+04  0.17294766280E+04  0.00000000000E+00 0.  1.
   -9000010    2    1    2    0  501 -0.31138816440E+03 -0.26128011039E+03  0.11039077115E+03  0.10902849087E+04  0.10056367012E+04 0.  0.
    9000010    2    1    2  502    0  0.31138816440E+03  0.26128011039E+03 -0.99898830424E+03  0.14800708141E+04  0.10136084539E+04 0.  0.
        -13    1    4    4    0    0  0.16817202516E+03  0.49192019294E+03 -0.10784320817E+04  0.11971980088E+04  0.10566000000E+00 0.  1.
          4    1    4    4  502    0  0.14321613924E+03 -0.23064008255E+03  0.79443777476E+02  0.28287280534E+03  0.00000000000E+00 0.  1.
         13    1    3    3    0    0 -0.67762726364E+03 -0.22683127816E+03  0.39610511808E+02  0.71568159190E+03  0.10566000000E+00 0. -1.
         -4    1    3    3    0  501  0.36623909924E+03 -0.34448832227E+02  0.70780259345E+02  0.37460331681E+03  0.00000000000E+00 0. -1.
<mgrwt>
<rscale>  0 0.10883732E+04</rscale>
<asrwt>0</asrwt>
<pdfrwt beam="2">  1        4 0.26607333E+00 0.10920769E+04</pdfrwt>
<pdfrwt beam="1">  1       -4 0.12936601E+00 0.10846820E+04</pdfrwt>
<totfact> 0.23309120E-01</totfact>
</mgrwt>
</event>
<event>
 8    1  0.2939692E-006  0.2204975E+04  0.7818608E-02  0.8092121E-01
         -4   -1    0    0    0  501 -0.00000000000E+00  0.00000000000E+00  0.36943589998E+04  0.36943589998E+04  0.00000000000E+00 0. -1.
          4   -1    0    0  502    0  0.00000000000E+00 -0.00000000000E+00 -0.30978833862E+04  0.30978833862E+04  0.00000000000E+00 0.  1.
   -9000010    2    1    2    0  501 -0.77107572286E+03 -0.17870960251E+04  0.28792389030E+04  0.36184552191E+04  0.10074381068E+04 0.  0.
    9000010    2    1    2  502    0  0.77107572286E+03  0.17870960251E+04 -0.22827632893E+04  0.31737871668E+04  0.10361692776E+04 0.  0.
        -13    1    4    4    0    0  0.43654603134E+03  0.14569464574E+04 -0.22321418831E+04  0.27010595726E+04  0.10566000000E+00 0.  1.
          4    1    4    4  502    0  0.33452969153E+03  0.33014956765E+03 -0.50621406208E+02  0.47272759418E+03  0.00000000000E+00 0.  1.
         13    1    3    3    0    0  0.87939142555E+02 -0.36480178733E+03  0.11950875477E+04  0.12526164196E+04  0.10566000000E+00 0. -1.
         -4    1    3    3    0  501 -0.85901486542E+03 -0.14222942378E+04  0.16841513552E+04  0.23658387995E+04  0.00000000000E+00 0. -1.
<mgrwt>
<rscale>  0 0.21982880E+04</rscale>
<asrwt>0</asrwt>
<pdfrwt beam="2">  1        4 0.47659745E+00 0.22049755E+04</pdfrwt>
<pdfrwt beam="1">  1       -4 0.56836292E+00 0.21916208E+04</pdfrwt>
<totfact> 0.78118598E-04</totfact>
</mgrwt>
</event>
<event>
 8    1  0.2939692E-006  0.1125373E+04  0.7818608E-02  0.8669542E-01
          4   -1    0    0  502    0  0.00000000000E+00  0.00000000000E+00  0.15155006214E+04  0.15155006214E+04  0.00000000000E+00 0.  1.
         -4   -1    0    0    0  501 -0.00000000000E+00 -0.00000000000E+00 -0.10039076737E+04  0.10039076737E+04  0.00000000000E+00 0. -1.
   -9000010    2    1    2    0  501  0.47666634131E+03  0.12561213347E+03 -0.27132407923E+03  0.11576188795E+04  0.10116696621E+04 0.  0.
    9000010    2    1    2  502    0 -0.47666634131E+03 -0.12561213347E+03  0.78291702691E+03  0.13617894156E+04  0.99926079305E+03 0.  0.
        -13    1    4    4    0    0  0.21786996673E+03  0.21756222460E+03  0.37840987285E+03  0.48784699139E+03  0.10566000000E+00 0.  1.
          4    1    4    4  502    0 -0.69453630805E+03 -0.34317435807E+03  0.40450715406E+03  0.87394242425E+03  0.00000000000E+00 0.  1.
         13    1    3    3    0    0  0.61613452559E+03  0.40840123215E+03  0.37165799662E+01  0.73920710506E+03  0.10566000000E+00 0. -1.
         -4    1    3    3    0  501 -0.13946818427E+03 -0.28278909868E+03 -0.27504065920E+03  0.41841177442E+03  0.00000000000E+00 0. -1.
<mgrwt>
<rscale>  0 0.11197884E+04</rscale>
<asrwt>0</asrwt>
<pdfrwt beam="1">  1        4 0.23315394E+00 0.11142313E+04</pdfrwt>
<pdfrwt beam="2">  1       -4 0.15444733E+00 0.11253731E+04</pdfrwt>
<totfact> 0.21254512E-01</totfact>
</mgrwt>
</event>
<event>
 8    1  0.2939692E-006  0.1077513E+04  0.7818608E-02  0.8708110E-01
         -4   -1    0    0    0  501 -0.00000000000E+00  0.00000000000E+00  0.80989055683E+03  0.80989055683E+03  0.00000000000E+00 0. -1.
          4   -1    0    0  502    0  0.00000000000E+00 -0.00000000000E+00 -0.17082275927E+04  0.17082275927E+04  0.00000000000E+00 0.  1.
   -9000010    2    1    2    0  501 -0.34370974892E+03 -0.20276940258E+03  0.65722818862E+02  0.10722808611E+04  0.99308354834E+03 0.  0.
    9000010    2    1    2  502    0  0.34370974892E+03  0.20276940258E+03 -0.96405985477E+03  0.14458372885E+04  0.10008907229E+04 0.  0.
        -13    1    4    4    0    0 -0.14667994812E+01 -0.25197527063E+03  0.72718529417E+02  0.26226262448E+03  0.10566000000E+00 0.  1.
          4    1    4    4  502    0  0.34517654840E+03  0.45474467322E+03 -0.10367783842E+04  0.11835746640E+04  0.00000000000E+00 0.  1.
         13    1    3    3    0    0 -0.35021288224E+03 -0.36640251936E+03  0.43525230635E+03  0.66809015142E+03  0.10566000000E+00 0. -1.
         -4    1    3    3    0  501  0.65031333154E+01  0.16363311678E+03 -0.36952948749E+03  0.40419070966E+03  0.00000000000E+00 0. -1.
<mgrwt>
<rscale>  0 0.10738827E+04</rscale>
<asrwt>0</asrwt>
<pdfrwt beam="2">  1        4 0.26280425E+00 0.10775129E+04</pdfrwt>
<pdfrwt beam="1">  1       -4 0.12459855E+00 0.10702648E+04</pdfrwt>
<totfact> 0.25212333E-01</totfact>
</mgrwt>
</event>
<event>
 8    1  0.2939692E-006  0.1284983E+04  0.7818608E-02  0.8575813E-01
         -4   -1    0    0    0  501 -0.00000000000E+00  0.00000000000E+00  0.26504004083E+04  0.26504004083E+04  0.00000000000E+00 0. -1.
          4   -1    0    0  502    0  0.00000000000E+00 -0.00000000000E+00 -0.18290237983E+04  0.18290237983E+04  0.00000000000E+00 0.  1.
   -9000010    2    1    2    0  501 -0.38939735513E+03 -0.61996029758E+03  0.22549154886E+04  0.25542710999E+04  0.95061870398E+03 0.  0.
    9000010    2    1    2  502    0  0.38939735513E+03  0.61996029758E+03 -0.14335388786E+04  0.19251531067E+04  0.10560301591E+04 0.  0.
        -13    1    4    4    0    0  0.57917477473E+03 -0.52476489407E+02 -0.73384779059E+03  0.93633850318E+03  0.10566000000E+00 0.  1.
          4    1    4    4  502    0 -0.18977741959E+03  0.67243678699E+03 -0.69969108802E+03  0.98881460352E+03  0.00000000000E+00 0.  1.
         13    1    3    3    0    0 -0.61952275300E+03 -0.65829554888E+03  0.20623543049E+04  0.22517696954E+04  0.10566000000E+00 0. -1.
         -4    1    3    3    0  501  0.23012539787E+03  0.38335251299E+02  0.19256118365E+03  0.30250140444E+03  0.00000000000E+00 0. -1.
<mgrwt>
<rscale>  0 0.12416907E+04</rscale>
<asrwt>0</asrwt>
<pdfrwt beam="2">  1        4 0.28138828E+00 0.12849828E+04</pdfrwt>
<pdfrwt beam="1">  1       -4 0.40775391E+00 0.11998571E+04</pdfrwt>
<totfact> 0.27498188E-02</totfact>
</mgrwt>
</event>
<event>
 8    1  0.2939692E-006  0.1286975E+04  0.7818608E-02  0.8547621E-01
         -4   -1    0    0    0  501 -0.00000000000E+00  0.00000000000E+00  0.32193318720E+04  0.32193318720E+04  0.00000000000E+00 0. -1.
          4   -1    0    0  502    0  0.00000000000E+00 -0.00000000000E+00 -0.97131893891E+03  0.97131893891E+03  0.00000000000E+00 0.  1.
   -9000010    2    1    2    0  501  0.73123969230E+03  0.34651154450E+03  0.25653256149E+04  0.28651347790E+04  0.98656984200E+03 0.  0.
    9000010    2    1    2  502    0 -0.73123969230E+03 -0.34651154450E+03 -0.31731268186E+03  0.13255160319E+04  0.10007615474E+04 0.  0.
        -13    1    4    4    0    0 -0.52352714892E+02 -0.50400443821E+03 -0.36877515432E+03  0.62670280525E+03  0.10566000000E+00 0.  1.
          4    1    4    4  502    0 -0.67888697741E+03  0.15749289371E+03  0.51462472462E+02  0.69881322665E+03  0.00000000000E+00 0.  1.
         13    1    3    3    0    0  0.71750308174E+03 -0.45991685308E+02  0.22481238106E+04  0.23602937500E+04  0.10566000000E+00 0. -1.
         -4    1    3    3    0  501  0.13736610563E+02  0.39250322981E+03  0.31720180437E+03  0.50484102901E+03  0.00000000000E+00 0. -1.
<mgrwt>
<rscale>  0 0.12814613E+04</rscale>
<asrwt>0</asrwt>
<pdfrwt beam="2">  1        4 0.14943368E+00 0.12869753E+04</pdfrwt>
<pdfrwt beam="1">  1       -4 0.49528182E+00 0.12759709E+04</pdfrwt>
<totfact> 0.26177474E-02</totfact>
</mgrwt>
</event>
<event>
 8    1  0.2939692E-006  0.1117491E+04  0.7818608E-02  0.8684496E-01
          4   -1    0    0  502    0  0.00000000000E+00  0.00000000000E+00  0.11221528690E+04  0.11221528690E+04  0.00000000000E+00 0.  1.
         -4   -1    0    0    0  501 -0.00000000000E+00 -0.00000000000E+00 -0.14197350028E+04  0.14197350028E+04  0.00000000000E+00 0. -1.
   -9000010    2    1    2    0  501 -0.39494412084E+01 -0.50803795823E+03 -0.77036991685E+03  0.13572974479E+04  0.99532325813E+03 0.  0.
    9000010    2    1    2  502    0  0.39494412084E+01  0.50803795823E+03  0.47278778306E+03  0.11845904238E+04  0.96000417674E+03 0.  0.
        -13    1    4    4    0    0  0.37271509264E+03  0.44173386840E+02 -0.69057885778E+02  0.38162393942E+03  0.10566000000E+00 0.  1.
          4    1    4    4  502    0 -0.36876565143E+03  0.46386457139E+03  0.54184566883E+03  0.80296648442E+03  0.00000000000E+00 0.  1.
         13    1    3    3    0    0  0.42513120436E+03 -0.11417029472E+03 -0.68923535442E+02  0.44555792218E+03  0.10566000000E+00 0. -1.
         -4    1    3    3    0  501 -0.42908064557E+03 -0.39386766351E+03 -0.70144638141E+03  0.91173952572E+03  0.00000000000E+00 0. -1.
<mgrwt>
<rscale>  0 0.11017102E+04</rscale>
<asrwt>0</asrwt>
<pdfrwt beam="1">  1        4 0.17263890E+00 0.10861520E+04</pdfrwt>
<pdfrwt beam="2">  1       -4 0.21842077E+00 0.11174912E+04</pdfrwt>
<totfact> 0.19818361E-01</totfact>
</mgrwt>
</event>
<event>
 8    1  0.2939692E-006  0.1013617E+04  0.7818608E-02  0.8769845E-01
          4   -1    0    0  502    0  0.00000000000E+00  0.00000000000E+00  0.27083159198E+04  0.27083159198E+04  0.00000000000E+00 0.  1.
         -4   -1    0    0    0  501 -0.00000000000E+00 -0.00000000000E+00 -0.54698068202E+03  0.54698068202E+03  0.00000000000E+00 0. -1.
   -9000010    2    1    2    0  501 -0.15515594648E+03 -0.63460063563E+02  0.15651579894E+03  0.10088059383E+04  0.98239079724E+03 0.  0.
    9000010    2    1    2  502    0  0.15515594648E+03  0.63460063563E+02  0.20048194388E+04  0.22464906635E+04  0.99965932768E+03 0.  0.
        -13    1    4    4    0    0 -0.26900533999E+02 -0.45637961363E+03  0.79243244346E+03  0.91485254499E+03  0.10566000000E+00 0.  1.
          4    1    4    4  502    0  0.18205648048E+03  0.51983967720E+03  0.12123869954E+04  0.13316381185E+04  0.00000000000E+00 0.  1.
         13    1    3    3    0    0  0.40413117513E+03  0.82726428256E+02  0.10827233091E+02  0.41265349724E+03  0.10566000000E+00 0. -1.
         -4    1    3    3    0  501 -0.55928712161E+03 -0.14618649182E+03  0.14568856585E+03  0.59615244109E+03  0.00000000000E+00 0. -1.
<mgrwt>
<rscale>  0 0.10050676E+04</rscale>
<asrwt>0</asrwt>
<pdfrwt beam="1">  1        4 0.41666398E+00 0.10136169E+04</pdfrwt>
<pdfrwt beam="2">  1       -4 0.84150876E-01 0.99659030E+03</pdfrwt>
<totfact> 0.17000986E-01</totfact>
</mgrwt>
</event>
<event>
 8    1  0.2939692E-006  0.1521399E+04  0.7818608E-02  0.8397817E-01
          4   -1    0    0  502    0  0.00000000000E+00  0.00000000000E+00  0.23389532013E+04  0.23389532013E+04  0.00000000000E+00 0.  1.
         -4   -1    0    0    0  501 -0.00000000000E+00 -0.00000000000E+00 -0.14308451894E+04  0.14308451894E+04  0.00000000000E+00 0. -1.
   -9000010    2    1    2    0  501  0.10015773765E+04  0.55626152481E+03 -0.59389922749E+03  0.16332085293E+04  0.10010343064E+04 0.  0.
    9000010    2    1    2  502    0 -0.10015773765E+04 -0.55626152481E+03  0.15020072394E+04  0.21365898614E+04  0.99820156449E+03 0.  0.
        -13    1    4    4    0    0 -0.18152025066E+01 -0.30180730483E+03  0.88378096993E+03  0.93389493958E+03  0.10566000000E+00 0.  1.
          4    1    4    4  502    0 -0.99976217399E+03 -0.25445421998E+03  0.61822626949E+03  0.12026949218E+04  0.00000000000E+00 0.  1.
         13    1    3    3    0    0  0.14197460793E+03  0.83429015132E+02  0.27641289703E+03  0.32174724657E+03  0.10566000000E+00 0. -1.
         -4    1    3    3    0  501  0.85960276856E+03  0.47283250968E+03 -0.87031212452E+03  0.13114612827E+04  0.00000000000E+00 0. -1.
<mgrwt>
<rscale>  0 0.15204672E+04</rscale>
<asrwt>0</asrwt>
<pdfrwt beam="1">  1        4 0.35983895E+00 0.15195363E+04</pdfrwt>
<pdfrwt beam="2">  1       -4 0.22013003E+00 0.15213986E+04</pdfrwt>
<totfact> 0.57627025E-02</totfact>
</mgrwt>
</event>
<event>
 8    1  0.2939692E-006  0.1199521E+04  0.7818608E-02  0.8668673E-01
          4   -1    0    0  502    0  0.00000000000E+00  0.00000000000E+00  0.11759839906E+04  0.11759839906E+04  0.00000000000E+00 0.  1.
         -4   -1    0    0    0  501 -0.00000000000E+00 -0.00000000000E+00 -0.22502979544E+04  0.22502979544E+04  0.00000000000E+00 0. -1.
   -9000010    2    1    2    0  501 -0.27864103932E+03 -0.33629204685E+02 -0.17574597938E+04  0.20458695251E+04  0.10090319295E+04 0.  0.
    9000010    2    1    2  502    0  0.27864103932E+03  0.33629204685E+02  0.68314582997E+03  0.13804124200E+04  0.11662240231E+04 0.  0.
        -13    1    4    4    0    0  0.44211066990E+03  0.43925823401E+03  0.70694771365E+03  0.94243552648E+03  0.10566000000E+00 0.  1.
          4    1    4    4  502    0 -0.16346963058E+03 -0.40562902932E+03 -0.23801883677E+02  0.43797689347E+03  0.00000000000E+00 0.  1.
         13    1    3    3    0    0 -0.50775992373E+03 -0.11113771411E+03 -0.17252638583E+04  0.18018621267E+04  0.10566000000E+00 0. -1.
         -4    1    3    3    0  501  0.22911888441E+03  0.77508509423E+02 -0.32195935505E+02  0.24400739844E+03  0.00000000000E+00 0. -1.
<mgrwt>
<rscale>  0 0.11208496E+04</rscale>
<asrwt>0</asrwt>
<pdfrwt beam="1">  1        4 0.18092061E+00 0.11995208E+04</pdfrwt>
<pdfrwt beam="2">  1       -4 0.34619969E+00 0.10473381E+04</pdfrwt>
<totfact> 0.86428683E-02</totfact>
</mgrwt>
</event>
<event>
 8    1  0.2939692E-006  0.1066067E+04  0.7818608E-02  0.8730319E-01
          4   -1    0    0  502    0  0.00000000000E+00  0.00000000000E+00  0.21720725419E+04  0.21720725419E+04  0.00000000000E+00 0.  1.
         -4   -1    0    0    0  501 -0.00000000000E+00 -0.00000000000E+00 -0.50663085210E+03  0.50663085210E+03  0.00000000000E+00 0. -1.
   -9000010    2    1    2    0  501 -0.35308037144E+00 -0.36823091714E+03  0.81033280825E+03  0.13390806728E+04  0.10004517256E+04 0.  0.
    9000010    2    1    2  502    0  0.35308037144E+00  0.36823091714E+03  0.85510888154E+03  0.13396227212E+04  0.96321529409E+03 0.  0.
        -13    1    4    4    0    0 -0.44228998036E+03  0.18234970743E+03  0.17985093100E+03  0.51109510961E+03  0.10566000000E+00 0.  1.
          4    1    4    4  502    0  0.44264306073E+03  0.18588120972E+03  0.67525795054E+03  0.82852761156E+03  0.00000000000E+00 0.  1.
         13    1    3    3    0    0 -0.12286423274E+03 -0.49456496283E+03 -0.26702881380E+00  0.50959808145E+03  0.10566000000E+00 0. -1.
         -4    1    3    3    0  501  0.12251115237E+03  0.12633404569E+03  0.81059983706E+03  0.82948259138E+03  0.00000000000E+00 0. -1.
<mgrwt>
<rscale>  0 0.10484894E+04</rscale>
<asrwt>0</asrwt>
<pdfrwt beam="1">  1        4 0.33416500E+00 0.10312021E+04</pdfrwt>
<pdfrwt beam="2">  1       -4 0.77943209E-01 0.10660665E+04</pdfrwt>
<totfact> 0.39814557E-01</totfact>
</mgrwt>
</event>
<event>
 8    1  0.2939692E-006  0.1211165E+04  0.7818608E-02  0.8619521E-01
          4   -1    0    0  502    0  0.00000000000E+00  0.00000000000E+00  0.62435318987E+03  0.62435318987E+03  0.00000000000E+00 0.  1.
         -4   -1    0    0    0  501 -0.00000000000E+00 -0.00000000000E+00 -0.26769654665E+04  0.26769654665E+04  0.00000000000E+00 0. -1.
   -9000010    2    1    2    0  501 -0.22191403817E+03 -0.64570230927E+03 -0.17113908695E+04  0.20966115889E+04  0.10003719978E+04 0.  0.
    9000010    2    1    2  502    0  0.22191403817E+03  0.64570230927E+03 -0.34122140716E+03  0.12047070675E+04  0.93204600592E+03 0.  0.
        -13    1    4    4    0    0  0.34183793634E+03  0.58042882071E+03  0.15401549457E+03  0.69099317968E+03  0.10566000000E+00 0.  1.
          4    1    4    4  502    0 -0.11992389817E+03  0.65273488563E+02 -0.49523690173E+03  0.51371388778E+03  0.00000000000E+00 0.  1.
         13    1    3    3    0    0 -0.57906773850E+03 -0.41162888928E+03 -0.69371179621E+03  0.99297223306E+03  0.10566000000E+00 0. -1.
         -4    1    3    3    0  501  0.35715370033E+03 -0.23407341999E+03 -0.10176790733E+04  0.11036393558E+04  0.00000000000E+00 0. -1.
<mgrwt>
<rscale>  0 0.11829404E+04</rscale>
<asrwt>0</asrwt>
<pdfrwt beam="1">  1        4 0.96054337E-01 0.11553731E+04</pdfrwt>
<pdfrwt beam="2">  1       -4 0.41184084E+00 0.12111653E+04</pdfrwt>
<totfact> 0.13422191E-01</totfact>
</mgrwt>
</event>
<event>
 8    1  0.2939692E-006  0.1121974E+04  0.7818608E-02  0.8667832E-01
          4   -1    0    0  502    0  0.00000000000E+00  0.00000000000E+00  0.15926000676E+04  0.15926000676E+04  0.00000000000E+00 0.  1.
         -4   -1    0    0    0  501 -0.00000000000E+00 -0.00000000000E+00 -0.79084420422E+03  0.79084420422E+03  0.00000000000E+00 0. -1.
   -9000010    2    1    2    0  501  0.13312666349E+03  0.49152695030E+03  0.36922859152E+03  0.11809857938E+04  0.99953801373E+03 0.  0.
    9000010    2    1    2  502    0 -0.13312666349E+03 -0.49152695030E+03  0.43252727186E+03  0.12024584780E+04  0.99975251893E+03 0.  0.
        -13    1    4    4    0    0 -0.22717953879E+03 -0.12252652712E+03  0.69405823883E+03  0.74049992758E+03  0.10566000000E+00 0.  1.
          4    1    4    4  502    0  0.94052875304E+02 -0.36900042317E+03 -0.26153096697E+03  0.46195855046E+03  0.00000000000E+00 0.  1.
         13    1    3    3    0    0 -0.17829122121E+03  0.18112569607E+01  0.54595057881E+03  0.57432837809E+03  0.10566000000E+00 0. -1.
         -4    1    3    3    0  501  0.31141788469E+03  0.48971569334E+03 -0.17672198729E+03  0.60665741568E+03  0.00000000000E+00 0. -1.
<mgrwt>
<rscale>  0 0.11218788E+04</rscale>
<asrwt>0</asrwt>
<pdfrwt beam="1">  1        4 0.24501539E+00 0.11219744E+04</pdfrwt>
<pdfrwt beam="2">  1       -4 0.12166834E+00 0.11217833E+04</pdfrwt>
<totfact> 0.28870173E-01</totfact>
</mgrwt>
</event>
<event>
 8    1  0.2939692E-006  0.1062402E+04  0.7818608E-02  0.8729147E-01
          4   -1    0    0  502    0  0.00000000000E+00  0.00000000000E+00  0.21500250073E+04  0.21500250073E+04  0.00000000000E+00 0.  1.
         -4   -1    0    0    0  501 -0.00000000000E+00 -0.00000000000E+00 -0.24691761896E+04  0.24691761896E+04  0.00000000000E+00 0. -1.
   -9000010    2    1    2    0  501 -0.11801783702E+03 -0.37608455984E+03 -0.22150462046E+04  0.24459281074E+04  0.95956594981E+03 0.  0.
    9000010    2    1    2  502    0  0.11801783702E+03  0.37608455984E+03  0.18958950223E+04  0.21732730895E+04  0.98657497429E+03 0.  0.
        -13    1    4    4    0    0  0.23310320882E+03 -0.27309237840E+03  0.39411018719E+03  0.53314107318E+03  0.10566000000E+00 0.  1.
          4    1    4    4  502    0 -0.11508537180E+03  0.64917693824E+03  0.15017848351E+04  0.16401320163E+04  0.00000000000E+00 0.  1.
         13    1    3    3    0    0  0.30219125249E+03  0.69680053191E+02 -0.13548435716E+04  0.13898834403E+04  0.10566000000E+00 0. -1.
         -4    1    3    3    0  501 -0.42020908951E+03 -0.44576461303E+03 -0.86020263305E+03  0.10560446672E+04  0.00000000000E+00 0. -1.
<mgrwt>
<rscale>  0 0.10498109E+04</rscale>
<asrwt>0</asrwt>
<pdfrwt beam="1">  1        4 0.33077308E+00 0.10624020E+04</pdfrwt>
<pdfrwt beam="2">  1       -4 0.37987326E+00 0.10373691E+04</pdfrwt>
<totfact> 0.26548017E-02</totfact>
</mgrwt>
</event>
<event>
 8    1  0.2939692E-006  0.1140065E+04  0.7818608E-02  0.8660967E-01
         -4   -1    0    0    0  501 -0.00000000000E+00  0.00000000000E+00  0.29489788784E+04  0.29489788784E+04  0.00000000000E+00 0. -1.
          4   -1    0    0  502    0  0.00000000000E+00 -0.00000000000E+00 -0.70255861052E+03  0.70255861052E+03  0.00000000000E+00 0.  1.
   -9000010    2    1    2    0  501  0.52013138191E+03  0.86049413290E+02  0.22475827359E+04  0.25114719864E+04  0.98889950335E+03 0.  0.
    9000010    2    1    2  502    0 -0.52013138191E+03 -0.86049413290E+02 -0.11624680895E+01  0.11400655025E+04  0.10108446184E+04 0.  0.
        -13    1    4    4    0    0 -0.66849585550E+03  0.96196807307E+02  0.31573609999E+03  0.74553995906E+03  0.10566000000E+00 0.  1.
          4    1    4    4  502    0  0.14836447359E+03 -0.18224622060E+03 -0.31689856808E+03  0.39452554340E+03  0.00000000000E+00 0.  1.
         13    1    3    3    0    0  0.81093938300E+03  0.12378276838E+03  0.17733440354E+04  0.19538919969E+04  0.10566000000E+00 0. -1.
         -4    1    3    3    0  501 -0.29080800109E+03 -0.37733355088E+02  0.47423870059E+03  0.55757998953E+03  0.00000000000E+00 0. -1.
<mgrwt>
<rscale>  0 0.11303173E+04</rscale>
<asrwt>0</asrwt>
<pdfrwt beam="2">  1        4 0.10808594E+00 0.11400649E+04</pdfrwt>
<pdfrwt beam="1">  1       -4 0.45368905E+00 0.11206531E+04</pdfrwt>
<totfact> 0.70858942E-02</totfact>
</mgrwt>
</event>
<event>
 8    1  0.2939692E-006  0.1392136E+04  0.7818608E-02  0.8474503E-01
          4   -1    0    0  502    0  0.00000000000E+00  0.00000000000E+00  0.12802870489E+04  0.12802870489E+04  0.00000000000E+00 0.  1.
         -4   -1    0    0    0  501 -0.00000000000E+00 -0.00000000000E+00 -0.21788974238E+04  0.21788974238E+04  0.00000000000E+00 0. -1.
   -9000010    2    1    2    0  501  0.37413059539E+03  0.89740777988E+03 -0.14051093320E+04  0.19777720479E+04  0.99595964417E+03 0.  0.
    9000010    2    1    2  502    0 -0.37413059539E+03 -0.89740777988E+03  0.50649895708E+03  0.14814124247E+04  0.99635694049E+03 0.  0.
        -13    1    4    4    0    0 -0.38938739854E+03 -0.58954880583E+03  0.79194609347E+03  0.10613053127E+04  0.10566000000E+00 0.  1.
          4    1    4    4  502    0  0.15256803143E+02 -0.30785897405E+03 -0.28544713638E+03  0.42010711207E+03  0.00000000000E+00 0.  1.
         13    1    3    3    0    0  0.56081859871E+03  0.62860396493E+03 -0.42316374069E+03  0.94272371773E+03  0.10566000000E+00 0. -1.
         -4    1    3    3    0  501 -0.18668800332E+03  0.26880381495E+03 -0.98194559128E+03  0.10350483302E+04  0.00000000000E+00 0. -1.
<mgrwt>
<rscale>  0 0.13919935E+04</rscale>
<asrwt>0</asrwt>
<pdfrwt beam="1">  1        4 0.19696724E+00 0.13921356E+04</pdfrwt>
<pdfrwt beam="2">  1       -4 0.33521499E+00 0.13918513E+04</pdfrwt>
<totfact> 0.81164075E-02</totfact>
</mgrwt>
</event>
<event>
 8    1  0.2939692E-006  0.1403872E+04  0.7818608E-02  0.8472350E-01
         -4   -1    0    0    0  501 -0.00000000000E+00  0.00000000000E+00  0.37379617817E+04  0.37379617817E+04  0.00000000000E+00 0. -1.
          4   -1    0    0  502    0  0.00000000000E+00 -0.00000000000E+00 -0.90976699304E+03  0.90976699304E+03  0.00000000000E+00 0.  1.
   -9000010    2    1    2    0  501  0.95202548333E+03 -0.21077215692E+03  0.29381988975E+04  0.32563582523E+04  0.10099895460E+04 0.  0.
    9000010    2    1    2  502    0 -0.95202548333E+03  0.21077215692E+03 -0.11000410886E+03  0.13913705224E+04  0.98642465686E+03 0.  0.
        -13    1    4    4    0    0 -0.10977357359E+04  0.20466384222E+03  0.11572066507E+03  0.11226318710E+04  0.10566000000E+00 0.  1.
          4    1    4    4  502    0  0.14571025259E+03  0.61083147061E+01 -0.22572477392E+03  0.26873865145E+03  0.00000000000E+00 0.  1.
         13    1    3    3    0    0  0.11145033335E+04 -0.23143130948E+03  0.28530996017E+04  0.30717837619E+04  0.10566000000E+00 0. -1.
         -4    1    3    3    0  501 -0.16247785013E+03  0.20659152559E+02  0.85099295786E+02  0.18457449041E+03  0.00000000000E+00 0. -1.
<mgrwt>
<rscale>  0 0.13954181E+04</rscale>
<asrwt>0</asrwt>
<pdfrwt beam="2">  1        4 0.13996416E+00 0.13870152E+04</pdfrwt>
<pdfrwt beam="1">  1       -4 0.57507103E+00 0.14038719E+04</pdfrwt>
<totfact> 0.11369816E-02</totfact>
</mgrwt>
</event>
<event>
 8    1  0.2939692E-006  0.1233577E+04  0.7818608E-02  0.8586980E-01
          4   -1    0    0  502    0  0.00000000000E+00  0.00000000000E+00  0.95846795382E+03  0.95846795382E+03  0.00000000000E+00 0. -1.
         -4   -1    0    0    0  501 -0.00000000000E+00 -0.00000000000E+00 -0.15739639734E+04  0.15739639734E+04  0.00000000000E+00 0.  1.
   -9000010    2    1    2    0  501  0.69401484107E+03 -0.16141133751E+03 -0.37593203008E+03  0.12758078741E+04  0.98926771946E+03 0.  0.
    9000010    2    1    2  502    0 -0.69401484107E+03  0.16141133751E+03 -0.23956398951E+03  0.12566240532E+04  0.10069771032E+04 0.  0.
        -13    1    4    4    0    0 -0.71504739578E+02  0.73689263482E+02 -0.54718462051E+03  0.55673517531E+03  0.10566000000E+00 0.  1.
          4    1    4    4  502    0 -0.62251010149E+03  0.87722074023E+02  0.30762063101E+03  0.69988887786E+03  0.00000000000E+00 0.  1.
         13    1    3    3    0    0 -0.23482848764E+03 -0.16595224819E+03 -0.12580235084E+03  0.31386431771E+03  0.10566000000E+00 0. -1.
         -4    1    3    3    0  501  0.92884332871E+03  0.45409106882E+01 -0.25012967924E+03  0.96194355635E+03  0.00000000000E+00 0. -1.
<mgrwt>
<rscale>  0 0.12263495E+04</rscale>
<asrwt>0</asrwt>
<pdfrwt beam="1">  1        4 0.14745661E+00 0.12335774E+04</pdfrwt>
<pdfrwt beam="2">  1       -4 0.24214830E+00 0.12191640E+04</pdfrwt>
<totfact> 0.21592793E-01</totfact>
</mgrwt>
</event>
<event>
 8    1  0.2939692E-006  0.1019102E+04  0.7818608E-02  0.8809545E-01
          4   -1    0    0  502    0  0.00000000000E+00  0.00000000000E+00  0.16876109002E+04  0.16876109002E+04  0.00000000000E+00 0.  1.
         -4   -1    0    0    0  501 -0.00000000000E+00 -0.00000000000E+00 -0.87768417000E+03  0.87768417000E+03  0.00000000000E+00 0. -1.
   -9000010    2    1    2    0  501  0.17343674258E+03 -0.26793809687E+03 -0.38990420101E+03  0.99107658902E+03  0.85342626623E+03 0.  0.
    9000010    2    1    2  502    0 -0.17343674258E+03  0.26793809687E+03  0.11998309312E+04  0.15742184812E+04  0.96783182194E+03 0.  0.
        -13    1    4    4    0    0 -0.45319090884E+03  0.40839886015E+03  0.10773278428E+04  0.12380657982E+04  0.10566000000E+00 0.  1.
          4    1    4    4  502    0  0.27975416626E+03 -0.14046076327E+03  0.12250308843E+03  0.33615268292E+03  0.00000000000E+00 0.  1.
         13    1    3    3    0    0  0.44338337009E+03 -0.29659748647E+03 -0.46689361723E+03  0.70890658258E+03  0.10566000000E+00 0. -1.
         -4    1    3    3    0  501 -0.26994662752E+03  0.28659389598E+02  0.76989416222E+02  0.28217000643E+03  0.00000000000E+00 0. -1.
<mgrwt>
<rscale>  0 0.96361946E+03</rscale>
<asrwt>0</asrwt>
<pdfrwt beam="1">  1        4 0.25963245E+00 0.10191023E+04</pdfrwt>
<pdfrwt beam="2">  1       -4 0.13502833E+00 0.91115724E+03</pdfrwt>
<totfact> 0.22565011E-01</totfact>
</mgrwt>
</event>
<event>
 8    1  0.2939692E-006  0.1070235E+04  0.7818608E-02  0.8716825E-01
         -4   -1    0    0    0  501 -0.00000000000E+00  0.00000000000E+00  0.21477664353E+04  0.21477664353E+04  0.00000000000E+00 0. -1.
          4   -1    0    0  502    0  0.00000000000E+00 -0.00000000000E+00 -0.15611832504E+04  0.15611832504E+04  0.00000000000E+00 0.  1.
   -9000010    2    1    2    0  501  0.17502155158E+03  0.31028338931E+03  0.18032702819E+04  0.20969467771E+04  0.10092045141E+04 0.  0.
    9000010    2    1    2  502    0 -0.17502155158E+03 -0.31028338931E+03 -0.12166870969E+04  0.16120029085E+04  0.99564931580E+03 0.  0.
        -13    1    4    4    0    0  0.41467672317E+03 -0.70851539561E+02 -0.50377188512E+03  0.65632526144E+03  0.10566000000E+00 0.  1.
          4    1    4    4  502    0 -0.58969827475E+03 -0.23943184975E+03 -0.71291521183E+03  0.95567764710E+03  0.00000000000E+00 0.  1.
         13    1    3    3    0    0 -0.26060374541E+03 -0.10017722494E+03  0.12535735161E+04  0.12842882698E+04  0.10566000000E+00 0. -1.
         -4    1    3    3    0  501  0.43562529699E+03  0.41046061424E+03  0.54969676581E+03  0.81265850734E+03  0.00000000000E+00 0. -1.
<mgrwt>
<rscale>  0 0.10638291E+04</rscale>
<asrwt>0</asrwt>
<pdfrwt beam="2">  1        4 0.24018204E+00 0.10574620E+04</pdfrwt>
<pdfrwt beam="1">  1       -4 0.33042560E+00 0.10702346E+04</pdfrwt>
<totfact> 0.66601374E-02</totfact>
</mgrwt>
</event>
<event>
 8    1  0.2939692E-006  0.1013325E+04  0.7818608E-02  0.8764561E-01
         -4   -1    0    0    0  501 -0.00000000000E+00  0.00000000000E+00  0.14424988114E+04  0.14424988114E+04  0.00000000000E+00 0. -1.
          4   -1    0    0  502    0  0.00000000000E+00 -0.00000000000E+00 -0.23407847768E+04  0.23407847768E+04  0.00000000000E+00 0.  1.
   -9000010    2    1    2    0  501  0.11907573829E+03 -0.16100935290E+03  0.11309685147E+04  0.15150902284E+04  0.98808176580E+03 0.  0.
    9000010    2    1    2  502    0 -0.11907573829E+03  0.16100935290E+03 -0.20292544801E+04  0.22681933597E+04  0.99333998642E+03 0.  0.
        -13    1    4    4    0    0  0.14220147564E+02  0.19382110665E+03  0.36620736046E+02  0.19776229027E+03  0.10566000000E+00 0.  1.
          4    1    4    4  502    0 -0.13329588586E+03 -0.32811753757E+02 -0.20658752162E+04  0.20704310694E+04  0.00000000000E+00 0.  1.
         13    1    3    3    0    0  0.35499796655E+03 -0.45311122433E+03  0.91766523909E+03  0.10832556670E+04  0.10566000000E+00 0. -1.
         -4    1    3    3    0  501 -0.23592222825E+03  0.29210187143E+03  0.21330327561E+03  0.43183456146E+03  0.00000000000E+00 0. -1.
<mgrwt>
<rscale>  0 0.10107446E+04</rscale>
<asrwt>0</asrwt>
<pdfrwt beam="2">  1        4 0.36012074E+00 0.10133249E+04</pdfrwt>
<pdfrwt beam="1">  1       -4 0.22192289E+00 0.10081709E+04</pdfrwt>
<totfact> 0.59714382E-02</totfact>
</mgrwt>
</event>
<event>
 8    1  0.2939692E-006  0.1109744E+04  0.7818608E-02  0.8680930E-01
          4   -1    0    0  502    0  0.00000000000E+00  0.00000000000E+00  0.14227815466E+04  0.14227815466E+04  0.00000000000E+00 0.  1.
         -4   -1    0    0    0  501 -0.00000000000E+00 -0.00000000000E+00 -0.18796877855E+04  0.18796877855E+04  0.00000000000E+00 0. -1.
   -9000010    2    1    2    0  501 -0.31750220369E+03 -0.37331343710E+03 -0.14451427792E+04  0.18220785105E+04  0.99567156964E+03 0.  0.
    9000010    2    1    2  502    0  0.31750220369E+03  0.37331343710E+03  0.98823654026E+03  0.14803908216E+04  0.98730691954E+03 0.  0.
        -13    1    4    4    0    0  0.58132245455E+03 -0.60706754459E+02  0.62663296283E+03  0.85690722221E+03  0.10566000000E+00 0.  1.
          4    1    4    4  502    0 -0.26382025086E+03  0.43402019156E+03  0.36160357743E+03  0.62348359935E+03  0.00000000000E+00 0.  1.
         13    1    3    3    0    0 -0.15203648105E+03 -0.75893817959E+02  0.12787207390E+03  0.21266462240E+03  0.10566000000E+00 0. -1.
         -4    1    3    3    0  501 -0.16546572264E+03 -0.29741961915E+03 -0.15730148531E+04  0.16094138881E+04  0.00000000000E+00 0. -1.
<mgrwt>
<rscale>  0 0.11059886E+04</rscale>
<asrwt>0</asrwt>
<pdfrwt beam="1">  1        4 0.21888947E+00 0.11022457E+04</pdfrwt>
<pdfrwt beam="2">  1       -4 0.28918274E+00 0.11097443E+04</pdfrwt>
<totfact> 0.97354587E-02</totfact>
</mgrwt>
</event>
<event>
 8    1  0.2939692E-006  0.1184942E+04  0.7818608E-02  0.8621647E-01
         -4   -1    0    0    0  501 -0.00000000000E+00  0.00000000000E+00  0.17387132069E+04  0.17387132069E+04  0.00000000000E+00 0. -1.
          4   -1    0    0  502    0  0.00000000000E+00 -0.00000000000E+00 -0.13483385943E+04  0.13483385943E+04  0.00000000000E+00 0.  1.
   -9000010    2    1    2    0  501 -0.49471025583E+03  0.38492385082E+03  0.11780843771E+04  0.16641765731E+04  0.99433206677E+03 0.  0.
    9000010    2    1    2  502    0  0.49471025583E+03 -0.38492385082E+03 -0.78770976446E+03  0.14228752280E+04  0.10055757721E+04 0.  0.
        -13    1    4    4    0    0  0.10420169925E+03 -0.68448769119E+03 -0.44229589620E+03  0.82158813555E+03  0.10566000000E+00 0.  1.
          4    1    4    4  502    0  0.39050855658E+03  0.29956384037E+03 -0.34541386826E+03  0.60128709250E+03  0.00000000000E+00 0.  1.
         13    1    3    3    0    0 -0.78093671127E+03  0.40043651811E+03  0.78354477760E+03  0.11765007360E+04  0.10566000000E+00 0. -1.
         -4    1    3    3    0  501  0.28622645544E+03 -0.15512667294E+02  0.39453959945E+03  0.48767583718E+03  0.00000000000E+00 0. -1.
<mgrwt>
<rscale>  0 0.11801689E+04</rscale>
<asrwt>0</asrwt>
<pdfrwt beam="2">  1        4 0.20743671E+00 0.11849419E+04</pdfrwt>
<pdfrwt beam="1">  1       -4 0.26749434E+00 0.11754152E+04</pdfrwt>
<totfact> 0.11762383E-01</totfact>
</mgrwt>
</event>
<event>
 8    1  0.2939692E-006  0.1291405E+04  0.7818608E-02  0.8542505E-01
          4   -1    0    0  502    0  0.00000000000E+00  0.00000000000E+00  0.23997878667E+04  0.23997878667E+04  0.00000000000E+00 0.  1.
         -4   -1    0    0    0  501 -0.00000000000E+00 -0.00000000000E+00 -0.20463082010E+04  0.20463082010E+04  0.00000000000E+00 0. -1.
   -9000010    2    1    2    0  501 -0.59281182965E+03 -0.55815526760E+03 -0.16317619214E+04  0.20777819828E+04  0.99577499056E+03 0.  0.
    9000010    2    1    2  502    0  0.59281182965E+03  0.55815526760E+03  0.19852415871E+04  0.23683140850E+04  0.10023793084E+04 0.  0.
        -13    1    4    4    0    0 -0.77389817920E+02 -0.18693895766E+03  0.83908211588E+02  0.21903414561E+03  0.10566000000E+00 0.  1.
          4    1    4    4  502    0  0.67020164757E+03  0.74509422526E+03  0.19013333755E+04  0.21492799394E+04  0.00000000000E+00 0.  1.
         13    1    3    3    0    0  0.13256352709E+03 -0.30382357661E+03 -0.72458736722E+02  0.33931126434E+03  0.10566000000E+00 0. -1.
         -4    1    3    3    0  501 -0.72537535674E+03 -0.25433169099E+03 -0.15593031847E+04  0.17384707185E+04  0.00000000000E+00 0. -1.
<mgrwt>
<rscale>  0 0.12888429E+04</rscale>
<asrwt>0</asrwt>
<pdfrwt beam="1">  1        4 0.36919813E+00 0.12914052E+04</pdfrwt>
<pdfrwt beam="2">  1       -4 0.31481665E+00 0.12862857E+04</pdfrwt>
<totfact> 0.31207459E-02</totfact>
</mgrwt>
</event>
<event>
 8    1  0.2939692E-006  0.1340035E+04  0.7818608E-02  0.8538704E-01
         -4   -1    0    0    0  501 -0.00000000000E+00  0.00000000000E+00  0.21461129261E+04  0.21461129261E+04  0.00000000000E+00 0. -1.
          4   -1    0    0  502    0  0.00000000000E+00 -0.00000000000E+00 -0.30597631502E+04  0.30597631502E+04  0.00000000000E+00 0.  1.
   -9000010    2    1    2    0  501  0.71449457305E+03  0.25298625254E+03  0.17848022591E+04  0.22318633467E+04  0.11050748189E+04 0.  0.
    9000010    2    1    2  502    0 -0.71449457305E+03 -0.25298625254E+03 -0.26984524832E+04  0.29740127297E+04  0.99428435239E+03 0.  0.
        -13    1    4    4    0    0 -0.51029879460E+03  0.33235438290E+03 -0.16110491548E+04  0.17223076630E+04  0.10566000000E+00 0.  1.
          4    1    4    4  502    0 -0.20419577845E+03 -0.58534063544E+03 -0.10874033284E+04  0.12517050667E+04  0.00000000000E+00 0.  1.
         13    1    3    3    0    0  0.81508079522E+03 -0.17658661447E+03  0.81343320608E+03  0.11649949043E+04  0.10566000000E+00 0. -1.
         -4    1    3    3    0  501 -0.10058622217E+03  0.42957286701E+03  0.97136905299E+03  0.10668684423E+04  0.00000000000E+00 0. -1.
<mgrwt>
<rscale>  0 0.12943605E+04</rscale>
<asrwt>0</asrwt>
<pdfrwt beam="2">  1        4 0.47073279E+00 0.12502423E+04</pdfrwt>
<pdfrwt beam="1">  1       -4 0.33017122E+00 0.13400354E+04</pdfrwt>
<totfact> 0.10411549E-02</totfact>
</mgrwt>
</event>
<event>
 8    1  0.2939692E-006  0.1184761E+04  0.7818608E-02  0.8626022E-01
          4   -1    0    0  502    0  0.00000000000E+00  0.00000000000E+00  0.11561133732E+04  0.11561133732E+04  0.00000000000E+00 0.  1.
         -4   -1    0    0    0  501 -0.00000000000E+00 -0.00000000000E+00 -0.16771862569E+04  0.16771862569E+04  0.00000000000E+00 0. -1.
   -9000010    2    1    2    0  501  0.41418344069E+03  0.48070681190E+03 -0.10198663463E+04  0.15478220530E+04  0.97621656510E+03 0.  0.
    9000010    2    1    2  502    0 -0.41418344069E+03 -0.48070681190E+03  0.49879346252E+03  0.12854775771E+04  0.10005152280E+04 0.  0.
        -13    1    4    4    0    0 -0.36596987725E+03 -0.48946066118E+03 -0.15447691197E+03  0.63037196749E+03  0.10566000000E+00 0.  1.
          4    1    4    4  502    0 -0.48213563440E+02  0.87538492794E+01  0.65327037449E+03  0.65510560963E+03  0.00000000000E+00 0.  1.
         13    1    3    3    0    0  0.11491233145E+03 -0.28791102321E+03 -0.13492157513E+03  0.33808496536E+03  0.10566000000E+00 0. -1.
         -4    1    3    3    0  501  0.29927110924E+03  0.76861783511E+03 -0.88494477112E+03  0.12097370876E+04  0.00000000000E+00 0. -1.
<mgrwt>
<rscale>  0 0.11744925E+04</rscale>
<asrwt>0</asrwt>
<pdfrwt beam="1">  1        4 0.17786360E+00 0.11847606E+04</pdfrwt>
<pdfrwt beam="2">  1       -4 0.25802865E+00 0.11643134E+04</pdfrwt>
<totfact> 0.15173716E-01</totfact>
</mgrwt>
</event>
<event>
 8    1  0.2939692E-006  0.1197699E+04  0.7818608E-02  0.8612995E-01
         -4   -1    0    0    0  501 -0.00000000000E+00  0.00000000000E+00  0.15346925532E+04  0.15346925532E+04  0.00000000000E+00 0. -1.
          4   -1    0    0  502    0  0.00000000000E+00 -0.00000000000E+00 -0.15006953198E+04  0.15006953198E+04  0.00000000000E+00 0.  1.
   -9000010    2    1    2    0  501 -0.41107840423E+03  0.47704827177E+03  0.95689441062E+03  0.15233617302E+04  0.10042029376E+04 0.  0.
    9000010    2    1    2  502    0  0.41107840423E+03 -0.47704827177E+03 -0.92289717731E+03  0.15120261428E+04  0.10187852319E+04 0.  0.
        -13    1    4    4    0    0  0.13112560902E+03 -0.50285987976E+03 -0.10738043422E+04  0.11929449947E+04  0.10566000000E+00 0.  1.
          4    1    4    4  502    0  0.27995279520E+03  0.25811607986E+02  0.15090716489E+03  0.31908114808E+03  0.00000000000E+00 0.  1.
         13    1    3    3    0    0 -0.48908976145E+02  0.73741280132E+03  0.61159830181E+03  0.95928213860E+03  0.10566000000E+00 0. -1.
         -4    1    3    3    0  501 -0.36216942808E+03 -0.26036452955E+03  0.34529610881E+03  0.56407959158E+03  0.00000000000E+00 0. -1.
<mgrwt>
<rscale>  0 0.11914937E+04</rscale>
<asrwt>0</asrwt>
<pdfrwt beam="2">  1        4 0.23087621E+00 0.11976994E+04</pdfrwt>
<pdfrwt beam="1">  1       -4 0.23610654E+00 0.11853202E+04</pdfrwt>
<totfact> 0.12125730E-01</totfact>
</mgrwt>
</event>
<event>
 8    1  0.2939692E-006  0.1116210E+04  0.7818608E-02  0.8672940E-01
          4   -1    0    0  502    0  0.00000000000E+00  0.00000000000E+00  0.16651572551E+04  0.16651572551E+04  0.00000000000E+00 0.  1.
         -4   -1    0    0    0  501 -0.00000000000E+00 -0.00000000000E+00 -0.15982329402E+04  0.15982329402E+04  0.00000000000E+00 0. -1.
   -9000010    2    1    2    0  501 -0.37663789243E+03  0.32575208983E+03 -0.11570211112E+04  0.16068975516E+04  0.99772308957E+03 0.  0.
    9000010    2    1    2  502    0  0.37663789243E+03 -0.32575208983E+03  0.12239454261E+04  0.16564926436E+04  0.99897694985E+03 0.  0.
        -13    1    4    4    0    0 -0.14908172576E+03 -0.12990723050E+03 -0.97807418767E+02  0.22060723429E+03  0.10566000000E+00 0.  1.
          4    1    4    4  502    0  0.52571961819E+03 -0.19584485932E+03  0.13217528449E+04  0.14358854093E+04  0.00000000000E+00 0.  1.
         13    1    3    3    0    0 -0.15620690947E+03  0.32398266527E+03  0.64701454833E+02  0.36544719918E+03  0.10566000000E+00 0. -1.
         -4    1    3    3    0  501 -0.22043098295E+03  0.17694245532E+01 -0.12217225660E+04  0.12414503524E+04  0.00000000000E+00 0. -1.
<mgrwt>
<rscale>  0 0.11156492E+04</rscale>
<asrwt>0</asrwt>
<pdfrwt beam="1">  1        4 0.25617804E+00 0.11162103E+04</pdfrwt>
<pdfrwt beam="2">  1       -4 0.24588199E+00 0.11150883E+04</pdfrwt>
<totfact> 0.10058170E-01</totfact>
</mgrwt>
</event>
<event>
 8    1  0.2939692E-006  0.1154557E+04  0.7818608E-02  0.8647087E-01
         -4   -1    0    0    0  501 -0.00000000000E+00  0.00000000000E+00  0.34633004542E+04  0.34633004542E+04  0.00000000000E+00 0. -1.
          4   -1    0    0  502    0  0.00000000000E+00 -0.00000000000E+00 -0.42455341967E+03  0.42455341967E+03  0.00000000000E+00 0.  1.
   -9000010    2    1    2    0  501  0.48255941002E+03 -0.30643704873E+03  0.21552123337E+04  0.24449829523E+04  0.10031122494E+04 0.  0.
    9000010    2    1    2  502    0 -0.48255941002E+03  0.30643704873E+03  0.88353470084E+03  0.14428709215E+04  0.98715534725E+03 0.  0.
        -13    1    4    4    0    0  0.20344469414E+02 -0.21467187308E+03 -0.86485868988E+02  0.23233107245E+03  0.10566000000E+00 0.  1.
          4    1    4    4  502    0 -0.50290387944E+03  0.52110892181E+03  0.97002056983E+03  0.12105398491E+04  0.00000000000E+00 0.  1.
         13    1    3    3    0    0  0.60640017771E+03 -0.58561666052E+03  0.14653586837E+04  0.16905455131E+04  0.10566000000E+00 0. -1.
         -4    1    3    3    0  501 -0.12384076769E+03  0.27917961179E+03  0.68985364999E+03  0.75443743927E+03  0.00000000000E+00 0. -1.
<mgrwt>
<rscale>  0 0.11476177E+04</rscale>
<asrwt>0</asrwt>
<pdfrwt beam="2">  1        4 0.65315913E-01 0.11407204E+04</pdfrwt>
<pdfrwt beam="1">  1       -4 0.53281543E+00 0.11545568E+04</pdfrwt>
<totfact> 0.82859636E-02</totfact>
</mgrwt>
</event>
<event>
 8    1  0.2939692E-006  0.1289874E+04  0.7818608E-02  0.8558034E-01
         -4   -1    0    0    0  501 -0.00000000000E+00  0.00000000000E+00  0.10862743729E+04  0.10862743729E+04  0.00000000000E+00 0. -1.
          4   -1    0    0  502    0  0.00000000000E+00 -0.00000000000E+00 -0.25041353267E+04  0.25041353267E+04  0.00000000000E+00 0.  1.
   -9000010    2    1    2    0  501 -0.73165923521E+03 -0.31799926293E+03  0.44812306185E+03  0.13220026565E+04  0.95416349625E+03 0.  0.
    9000010    2    1    2  502    0  0.73165923521E+03  0.31799926293E+03 -0.18659840156E+04  0.22684070431E+04  0.10135706187E+04 0.  0.
        -13    1    4    4    0    0  0.39890625948E+03 -0.35741375963E+03 -0.82686567584E+03  0.98517899717E+03  0.10566000000E+00 0.  1.
          4    1    4    4  502    0  0.33275297573E+03  0.67541302256E+03 -0.10391183398E+04  0.12832280460E+04  0.00000000000E+00 0.  1.
         13    1    3    3    0    0  0.57433810674E+02  0.11323635826E+03 -0.18347069142E+03  0.22312019455E+03  0.10566000000E+00 0. -1.
         -4    1    3    3    0  501 -0.78909304588E+03 -0.43123562119E+03  0.63159375327E+03  0.10988824620E+04  0.00000000000E+00 0. -1.
<mgrwt>
<rscale>  0 0.12665943E+04</rscale>
<asrwt>0</asrwt>
<pdfrwt beam="2">  1        4 0.38525159E+00 0.12898737E+04</pdfrwt>
<pdfrwt beam="1">  1       -4 0.16711913E+00 0.12437350E+04</pdfrwt>
<totfact> 0.68340167E-02</totfact>
</mgrwt>
</event>
<event>
 8    1  0.2939692E-006  0.1060584E+04  0.7818608E-02  0.8831988E-01
          4   -1    0    0  502    0  0.00000000000E+00  0.00000000000E+00  0.23361201176E+04  0.23361201176E+04  0.00000000000E+00 0.  1.
         -4   -1    0    0    0  501 -0.00000000000E+00 -0.00000000000E+00 -0.41333124611E+03  0.41333124611E+03  0.00000000000E+00 0. -1.
   -9000010    2    1    2    0  501 -0.20538958848E+03  0.28794770980E+03  0.49471593435E+03  0.97062305063E+03  0.75648297011E+03 0.  0.
    9000010    2    1    2  502    0  0.20538958848E+03 -0.28794770980E+03  0.14280729372E+04  0.17788283131E+04  0.99986953499E+03 0.  0.
        -13    1    4    4    0    0 -0.15669491663E+02 -0.24933479913E+02  0.14348839091E+04  0.14351860698E+04  0.10566000000E+00 0.  1.
          4    1    4    4  502    0  0.22105908014E+03 -0.26301422989E+03 -0.68109718774E+01  0.34364224329E+03  0.00000000000E+00 0.  1.
         13    1    3    3    0    0  0.12797788707E+03 -0.20394884614E+03  0.14906920140E+03  0.28318741037E+03  0.10566000000E+00 0. -1.
         -4    1    3    3    0  501 -0.33336747554E+03  0.49189655595E+03  0.34564673295E+03  0.68743564026E+03  0.00000000000E+00 0. -1.
<mgrwt>
<rscale>  0 0.94110386E+03</rscale>
<asrwt>0</asrwt>
<pdfrwt beam="1">  1        4 0.35940309E+00 0.10605837E+04</pdfrwt>
<pdfrwt beam="2">  1       -4 0.63589424E-01 0.83508398E+03</pdfrwt>
<totfact> 0.50043876E-01</totfact>
</mgrwt>
</event>
<event>
 8    1  0.2939692E-006  0.1608137E+04  0.7818608E-02  0.8350825E-01
         -4   -1    0    0    0  501 -0.00000000000E+00  0.00000000000E+00  0.19781921516E+04  0.19781921516E+04  0.00000000000E+00 0. -1.
          4   -1    0    0  502    0  0.00000000000E+00 -0.00000000000E+00 -0.23702087753E+04  0.23702087753E+04  0.00000000000E+00 0.  1.
   -9000010    2    1    2    0  501  0.72454530256E+03 -0.10400010469E+04  0.12621390301E+04  0.20413822185E+04  0.98370643876E+03 0.  0.
    9000010    2    1    2  502    0 -0.72454530256E+03  0.10400010469E+04 -0.16541556538E+04  0.23070187084E+04  0.98971527266E+03 0.  0.
        -13    1    4    4    0    0 -0.23657635694E+03 -0.12121154927E+03 -0.62943510222E+03  0.68326361780E+03  0.10566000000E+00 0.  1.
          4    1    4    4  502    0 -0.48796894562E+03  0.11612125962E+04 -0.10247205516E+04  0.16237550906E+04  0.00000000000E+00 0.  1.
         13    1    3    3    0    0  0.17743712480E+03 -0.89180519004E+03  0.36421360877E+03  0.97951620417E+03  0.10566000000E+00 0. -1.
         -4    1    3    3    0  501  0.54710817776E+03 -0.14819585690E+03  0.89792542129E+03  0.10618660143E+04  0.00000000000E+00 0. -1.
<mgrwt>
<rscale>  0 0.16062903E+04</rscale>
<asrwt>0</asrwt>
<pdfrwt beam="2">  1        4 0.36464750E+00 0.16081369E+04</pdfrwt>
<pdfrwt beam="1">  1       -4 0.30433726E+00 0.16044458E+04</pdfrwt>
<totfact> 0.33508820E-02</totfact>
</mgrwt>
</event>
<event>
 8    1  0.2939692E-006  0.1122277E+04  0.7818608E-02  0.8683516E-01
         -4   -1    0    0    0  501 -0.00000000000E+00  0.00000000000E+00  0.95572812609E+03  0.95572812609E+03  0.00000000000E+00 0. -1.
          4   -1    0    0  502    0  0.00000000000E+00 -0.00000000000E+00 -0.21995222780E+04  0.21995222780E+04  0.00000000000E+00 0.  1.
   -9000010    2    1    2    0  501 -0.18072112960E+03 -0.38481615207E+03  0.40816248992E+03  0.11581356626E+04  0.99696439121E+03 0.  0.
    9000010    2    1    2  502    0  0.18072112960E+03  0.38481615207E+03 -0.16519566418E+04  0.19971147415E+04  0.10386351363E+04 0.  0.
        -13    1    4    4    0    0  0.52663129195E+03  0.43159920019E+03 -0.14289964612E+04  0.15829242827E+04  0.10566000000E+00 0.  1.
          4    1    4    4  502    0 -0.34591016236E+03 -0.46783048121E+02 -0.22296018062E+03  0.41419045880E+03  0.00000000000E+00 0.  1.
         13    1    3    3    0    0  0.39879565787E+03 -0.22530004778E+02  0.12719388993E+03  0.41919431610E+03  0.10566000000E+00 0. -1.
         -4    1    3    3    0  501 -0.57951678746E+03 -0.36228614729E+03  0.28096859999E+03  0.73894134655E+03  0.00000000000E+00 0. -1.
<mgrwt>
<rscale>  0 0.11028848E+04</rscale>
<asrwt>0</asrwt>
<pdfrwt beam="2">  1        4 0.33838804E+00 0.11222774E+04</pdfrwt>
<pdfrwt beam="1">  1       -4 0.14703510E+00 0.10838273E+04</pdfrwt>
<totfact> 0.12200121E-01</totfact>
</mgrwt>
</event>
<event>
 8    1  0.2939692E-006  0.1144333E+04  0.7818608E-02  0.8677789E-01
          4   -1    0    0  502    0  0.00000000000E+00  0.00000000000E+00  0.31045413017E+04  0.31045413017E+04  0.00000000000E+00 0.  1.
         -4   -1    0    0    0  501 -0.00000000000E+00 -0.00000000000E+00 -0.22668607420E+04  0.22668607420E+04  0.00000000000E+00 0. -1.
   -9000010    2    1    2    0  501  0.32659870450E+03  0.23183270267E+03 -0.20178700734E+04  0.23197622525E+04  0.10719534313E+04 0.  0.
    9000010    2    1    2  502    0 -0.32659870450E+03 -0.23183270267E+03  0.28555506331E+04  0.30516397912E+04  0.99896090101E+03 0.  0.
        -13    1    4    4    0    0  0.22489678343E+03 -0.15625670026E+02  0.19904062535E+04  0.20031324943E+04  0.10566000000E+00 0.  1.
          4    1    4    4  502    0 -0.55149548793E+03 -0.21620703264E+03  0.86514437955E+03  0.10485072969E+04  0.00000000000E+00 0.  1.
         13    1    3    3    0    0  0.16498621022E+03 -0.32030521094E+02  0.89078621082E+02  0.19021413129E+03  0.10566000000E+00 0. -1.
         -4    1    3    3    0  501  0.16161249428E+03  0.26386322376E+03 -0.21069486945E+04  0.21295481212E+04  0.00000000000E+00 0. -1.
<mgrwt>
<rscale>  0 0.11097746E+04</rscale>
<asrwt>0</asrwt>
<pdfrwt beam="1">  1        4 0.47762174E+00 0.10762602E+04</pdfrwt>
<pdfrwt beam="2">  1       -4 0.34874781E+00 0.11443327E+04</pdfrwt>
<totfact> 0.87515666E-03</totfact>
</mgrwt>
</event>
<event>
 8    1  0.2939692E-006  0.1188398E+04  0.7818608E-02  0.8645691E-01
         -4   -1    0    0    0  501 -0.00000000000E+00  0.00000000000E+00  0.15829512902E+04  0.15829512902E+04  0.00000000000E+00 0. -1.
          4   -1    0    0  502    0  0.00000000000E+00 -0.00000000000E+00 -0.14596067915E+04  0.14596067915E+04  0.00000000000E+00 0.  1.
   -9000010    2    1    2    0  501  0.41371224284E+03  0.38990294544E+03  0.10549518530E+04  0.15325312826E+04  0.95527304632E+03 0.  0.
    9000010    2    1    2  502    0 -0.41371224284E+03 -0.38990294544E+03 -0.93160735428E+03  0.15100267991E+04  0.10436026757E+04 0.  0.
        -13    1    4    4    0    0  0.19262007657E+03 -0.29496922231E+03  0.46473343565E+02  0.35534366300E+03  0.10566000000E+00 0.  1.
          4    1    4    4  502    0 -0.60633231941E+03 -0.94933723129E+02 -0.97808069785E+03  0.11546831361E+04  0.00000000000E+00 0.  1.
         13    1    3    3    0    0 -0.93332853326E+02  0.48030768893E+03  0.18807294902E+03  0.52419265816E+03  0.10566000000E+00 0. -1.
         -4    1    3    3    0  501  0.50704509616E+03 -0.90404743490E+02  0.86687890403E+03  0.10083386244E+04  0.00000000000E+00 0. -1.
<mgrwt>
<rscale>  0 0.11493748E+04</rscale>
<asrwt>0</asrwt>
<pdfrwt beam="2">  1        4 0.22455489E+00 0.11883975E+04</pdfrwt>
<pdfrwt beam="1">  1       -4 0.24353097E+00 0.11116334E+04</pdfrwt>
<totfact> 0.12129804E-01</totfact>
</mgrwt>
</event>
<event>
 8    1  0.2939692E-006  0.1189377E+04  0.7818608E-02  0.8617407E-01
          4   -1    0    0  502    0  0.00000000000E+00  0.00000000000E+00  0.67928305078E+03  0.67928305078E+03  0.00000000000E+00 0.  1.
         -4   -1    0    0    0  501 -0.00000000000E+00 -0.00000000000E+00 -0.31313657000E+04  0.31313657000E+04  0.00000000000E+00 0. -1.
   -9000010    2    1    2    0  501 -0.49220639342E+03  0.38527617973E+03 -0.23329559523E+04  0.26153212621E+04  0.10032531885E+04 0.  0.
    9000010    2    1    2  502    0  0.49220639342E+03 -0.38527617973E+03 -0.11912669690E+03  0.11953274887E+04  0.10118852538E+04 0.  0.
        -13    1    4    4    0    0  0.43654266798E+03  0.22289450995E+03 -0.27905170532E+03  0.56402245429E+03  0.10566000000E+00 0.  1.
          4    1    4    4  502    0  0.55663725435E+02 -0.60817068969E+03  0.15992500842E+03  0.63130503439E+03  0.00000000000E+00 0.  1.
         13    1    3    3    0    0 -0.18529033762E+03 -0.27959091288E+03 -0.28420605430E+03  0.43963243766E+03  0.10566000000E+00 0. -1.
         -4    1    3    3    0  501 -0.30691605580E+03  0.66486709261E+03 -0.20487498980E+04  0.21756888244E+04  0.00000000000E+00 0. -1.
<mgrwt>
<rscale>  0 0.11857033E+04</rscale>
<asrwt>0</asrwt>
<pdfrwt beam="1">  1        4 0.10450508E+00 0.11893766E+04</pdfrwt>
<pdfrwt beam="2">  1       -4 0.48174857E+00 0.11820414E+04</pdfrwt>
<totfact> 0.55189167E-02</totfact>
</mgrwt>
</event>
<event>
 8    1  0.2939692E-006  0.1056181E+04  0.7818608E-02  0.8733349E-01
          4   -1    0    0  502    0  0.00000000000E+00  0.00000000000E+00  0.11985266496E+04  0.11985266496E+04  0.00000000000E+00 0.  1.
         -4   -1    0    0    0  501 -0.00000000000E+00 -0.00000000000E+00 -0.23107764779E+04  0.23107764779E+04  0.00000000000E+00 0. -1.
   -9000010    2    1    2    0  501  0.13634570792E+03  0.36279571088E+03 -0.19238806119E+04  0.21947289873E+04  0.98250080862E+03 0.  0.
    9000010    2    1    2  502    0 -0.13634570792E+03 -0.36279571088E+03  0.81163078362E+03  0.13145741402E+04  0.95872298462E+03 0.  0.
        -13    1    4    4    0    0 -0.50636396609E+03 -0.24269079755E+03  0.21282826069E+03  0.60049909998E+03  0.10566000000E+00 0.  1.
          4    1    4    4  502    0  0.37001825817E+03 -0.12010491333E+03  0.59880252293E+03  0.71407504021E+03  0.00000000000E+00 0.  1.
         13    1    3    3    0    0 -0.30346963013E+03 -0.17491971278E+03 -0.50071181817E+03  0.61106714717E+03  0.10566000000E+00 0. -1.
         -4    1    3    3    0  501  0.43981533805E+03  0.53771542366E+03 -0.14231687937E+04  0.15836618401E+04  0.00000000000E+00 0. -1.
<mgrwt>
<rscale>  0 0.10450818E+04</rscale>
<asrwt>0</asrwt>
<pdfrwt beam="1">  1        4 0.18438872E+00 0.10340990E+04</pdfrwt>
<pdfrwt beam="2">  1       -4 0.35550407E+00 0.10561812E+04</pdfrwt>
<totfact> 0.78362358E-02</totfact>
</mgrwt>
</event>
<event>
 8    1  0.2939692E-006  0.1039038E+04  0.7818608E-02  0.8751172E-01
          4   -1    0    0  502    0  0.00000000000E+00  0.00000000000E+00  0.13921578139E+04  0.13921578139E+04  0.00000000000E+00 0.  1.
         -4   -1    0    0    0  501 -0.00000000000E+00 -0.00000000000E+00 -0.20166610326E+04  0.20166610326E+04  0.00000000000E+00 0. -1.
   -9000010    2    1    2    0  501  0.28369913097E+02 -0.19995323409E+03 -0.16586349363E+04  0.19428621384E+04  0.99139159229E+03 0.  0.
    9000010    2    1    2  502    0 -0.28369913097E+02  0.19995323409E+03  0.10341317176E+04  0.14659567081E+04  0.10192225042E+04 0.  0.
        -13    1    4    4    0    0 -0.31042875521E+03  0.45455401094E+03  0.91489326846E+03  0.10677148799E+04  0.10566000000E+00 0.  1.
          4    1    4    4  502    0  0.28205884211E+03 -0.25460077685E+03  0.11923844910E+03  0.39824182820E+03  0.00000000000E+00 0.  1.
         13    1    3    3    0    0 -0.40862204589E+03 -0.35859827940E+03 -0.97058997178E+03  0.11124790366E+04  0.10566000000E+00 0. -1.
         -4    1    3    3    0  501  0.43699195899E+03  0.15864504531E+03 -0.68804496451E+03  0.83038310183E+03  0.00000000000E+00 0. -1.
<mgrwt>
<rscale>  0 0.10253047E+04</rscale>
<asrwt>0</asrwt>
<pdfrwt beam="1">  1        4 0.21417812E+00 0.10390383E+04</pdfrwt>
<pdfrwt beam="2">  1       -4 0.31025554E+00 0.10117527E+04</pdfrwt>
<totfact> 0.88400171E-02</totfact>
</mgrwt>
</event>
<event>
 8    1  0.2939692E-006  0.1044435E+04  0.7818608E-02  0.8739902E-01
          4   -1    0    0  502    0  0.00000000000E+00  0.00000000000E+00  0.11566161562E+04  0.11566161562E+04  0.00000000000E+00 0.  1.
         -4   -1    0    0    0  501 -0.00000000000E+00 -0.00000000000E+00 -0.18455122417E+04  0.18455122417E+04  0.00000000000E+00 0. -1.
   -9000010    2    1    2    0  501 -0.23452199093E+03  0.14403629202E+03 -0.13998957655E+04  0.17386552559E+04  0.99371370474E+03 0.  0.
    9000010    2    1    2  502    0  0.23452199093E+03 -0.14403629202E+03  0.71099967998E+03  0.12634731420E+04  0.10075201328E+04 0.  0.
        -13    1    4    4    0    0  0.47419672812E+03 -0.26145252164E+03  0.81378066210E+03  0.97747579776E+03  0.10566000000E+00 0.  1.
          4    1    4    4  502    0 -0.23967473718E+03  0.11741622962E+03 -0.10278098212E+03  0.28599734423E+03  0.00000000000E+00 0.  1.
         13    1    3    3    0    0  0.10721895093E+03  0.49594933599E+03 -0.49231647733E+03  0.70699163526E+03  0.10566000000E+00 0. -1.
         -4    1    3    3    0  501 -0.34174094186E+03 -0.35191304397E+03 -0.90757928818E+03  0.10316636207E+04  0.00000000000E+00 0. -1.
<mgrwt>
<rscale>  0 0.10377573E+04</rscale>
<asrwt>0</asrwt>
<pdfrwt beam="1">  1        4 0.17794095E+00 0.10444347E+04</pdfrwt>
<pdfrwt beam="2">  1       -4 0.28392496E+00 0.10311227E+04</pdfrwt>
<totfact> 0.13248181E-01</totfact>
</mgrwt>
</event>
<event>
 8    1  0.2939692E-006  0.1151999E+04  0.7818608E-02  0.8666183E-01
          4   -1    0    0  502    0  0.00000000000E+00  0.00000000000E+00  0.28475964385E+04  0.28475964385E+04  0.00000000000E+00 0.  1.
         -4   -1    0    0    0  501 -0.00000000000E+00 -0.00000000000E+00 -0.57678016909E+03  0.57678016909E+03  0.00000000000E+00 0. -1.
   -9000010    2    1    2    0  501  0.44021447026E+03 -0.19595540013E+03  0.33521500585E+03  0.11997797675E+04  0.10463819053E+04 0.  0.
    9000010    2    1    2  502    0 -0.44021447026E+03  0.19595540013E+03  0.19356012636E+04  0.22245968401E+04  0.98493225689E+03 0.  0.
        -13    1    4    4    0    0 -0.71765899266E+03  0.14936967030E+03  0.95179900141E+03  0.12013605114E+04  0.10566000000E+00 0.  1.
          4    1    4    4  502    0  0.27744452240E+03  0.46585729825E+02  0.98380226217E+03  0.10232363287E+04  0.00000000000E+00 0.  1.
         13    1    3    3    0    0  0.52104269975E+03 -0.37630149168E+03  0.59331424286E+03  0.87470572740E+03  0.10566000000E+00 0. -1.
         -4    1    3    3    0  501 -0.80828229494E+02  0.18034609155E+03 -0.25809923701E+03  0.32507404013E+03  0.00000000000E+00 0. -1.
<mgrwt>
<rscale>  0 0.11238993E+04</rscale>
<asrwt>0</asrwt>
<pdfrwt beam="1">  1        4 0.43809175E+00 0.10964848E+04</pdfrwt>
<pdfrwt beam="2">  1       -4 0.88735413E-01 0.11519993E+04</pdfrwt>
<totfact> 0.12270688E-01</totfact>
</mgrwt>
</event>
<event>
 8    1  0.2939692E-006  0.1143005E+04  0.7818608E-02  0.8663498E-01
         -4   -1    0    0    0  501 -0.00000000000E+00  0.00000000000E+00  0.18085292617E+04  0.18085292617E+04  0.00000000000E+00 0. -1.
          4   -1    0    0  502    0  0.00000000000E+00 -0.00000000000E+00 -0.10584903678E+04  0.10584903678E+04  0.00000000000E+00 0.  1.
   -9000010    2    1    2    0  501  0.56878279324E+02  0.48440325048E+03  0.12095567389E+04  0.16641779755E+04  0.10337210368E+04 0.  0.
    9000010    2    1    2  502    0 -0.56878279324E+02 -0.48440325048E+03 -0.45951784504E+03  0.12028416540E+04  0.99889426215E+03 0.  0.
        -13    1    4    4    0    0  0.41464714563E+03 -0.30868577793E+02 -0.23171605106E+02  0.41643974224E+03  0.10566000000E+00 0.  1.
          4    1    4    4  502    0 -0.47152542495E+03 -0.45353467268E+03 -0.43634623994E+03  0.78640191175E+03  0.00000000000E+00 0.  1.
         13    1    3    3    0    0  0.17157128711E+03  0.33330283487E+03  0.13671156396E+04  0.14175798636E+04  0.10566000000E+00 0. -1.
         -4    1    3    3    0  501 -0.11469300779E+03  0.15110041560E+03 -0.15755890072E+03  0.24659811197E+03  0.00000000000E+00 0. -1.
<mgrwt>
<rscale>  0 0.11271971E+04</rscale>
<asrwt>0</asrwt>
<pdfrwt beam="2">  1        4 0.16284467E+00 0.11116076E+04</pdfrwt>
<pdfrwt beam="1">  1       -4 0.27823527E+00 0.11430052E+04</pdfrwt>
<totfact> 0.15390814E-01</totfact>
</mgrwt>
</event>
<event>
 8    1  0.2939692E-006  0.1464332E+04  0.7818608E-02  0.8466607E-01
         -4   -1    0    0    0  501 -0.00000000000E+00  0.00000000000E+00  0.20594991763E+04  0.20594991763E+04  0.00000000000E+00 0. -1.
          4   -1    0    0  502    0  0.00000000000E+00 -0.00000000000E+00 -0.13902225011E+04  0.13902225011E+04  0.00000000000E+00 0.  1.
   -9000010    2    1    2    0  501 -0.79675237547E+03  0.37234583787E+03  0.13036323825E+04  0.19605420251E+04  0.11708167546E+04 0.  0.
    9000010    2    1    2  502    0  0.79675237547E+03 -0.37234583787E+03 -0.63435570737E+03  0.14891796522E+04  0.10206826648E+04 0.  0.
        -13    1    4    4    0    0 -0.11932071306E+03  0.20547160079E+03 -0.23675973104E+03  0.33542688131E+03  0.10566000000E+00 0.  1.
          4    1    4    4  502    0  0.91607308853E+03 -0.57781743867E+03 -0.39759597633E+03  0.11537527709E+04  0.00000000000E+00 0.  1.
         13    1    3    3    0    0 -0.11055388904E+04  0.28476997309E+03  0.10562536190E+04  0.15553076528E+04  0.10566000000E+00 0. -1.
         -4    1    3    3    0  501  0.30878651498E+03  0.87575864781E+02  0.24737876351E+03  0.40523437239E+03  0.00000000000E+00 0. -1.
<mgrwt>
<rscale>  0 0.14046036E+04</rscale>
<asrwt>0</asrwt>
<pdfrwt beam="2">  1        4 0.21388038E+00 0.13473117E+04</pdfrwt>
<pdfrwt beam="1">  1       -4 0.31684603E+00 0.14643318E+04</pdfrwt>
<totfact> 0.82194511E-02</totfact>
</mgrwt>
</event>
<event>
 8    1  0.2939692E-006  0.1236996E+04  0.7818608E-02  0.8621551E-01
         -4   -1    0    0    0  501 -0.00000000000E+00  0.00000000000E+00  0.17875399751E+04  0.17875399751E+04  0.00000000000E+00 0. -1.
          4   -1    0    0  502    0  0.00000000000E+00 -0.00000000000E+00 -0.12582543557E+04  0.12582543557E+04  0.00000000000E+00 0.  1.
   -9000010    2    1    2    0  501  0.45997385861E+03  0.35815649146E+03  0.11941579180E+04  0.16414385629E+04  0.96356390536E+03 0.  0.
    9000010    2    1    2  502    0 -0.45997385861E+03 -0.35815649146E+03 -0.66487229857E+03  0.14043557679E+04  0.10910123402E+04 0.  0.
        -13    1    4    4    0    0 -0.43495624508E+03 -0.63525253509E+03 -0.78659986676E+03  0.11006689239E+04  0.10566000000E+00 0.  1.
          4    1    4    4  502    0 -0.25017613533E+02  0.27709604363E+03  0.12172756819E+03  0.30368684404E+03  0.00000000000E+00 0.  1.
         13    1    3    3    0    0 -0.24289891295E+03  0.23729295641E+03  0.68691055765E+03  0.76625971736E+03  0.10566000000E+00 0. -1.
         -4    1    3    3    0  501  0.70287277156E+03  0.12086353505E+03  0.50724736032E+03  0.87517884553E+03  0.00000000000E+00 0. -1.
<mgrwt>
<rscale>  0 0.11802944E+04</rscale>
<asrwt>0</asrwt>
<pdfrwt beam="2">  1        4 0.19357759E+00 0.12369963E+04</pdfrwt>
<pdfrwt beam="1">  1       -4 0.27500615E+00 0.11261916E+04</pdfrwt>
<totfact> 0.12362925E-01</totfact>
</mgrwt>
</event>
<event>
 8    1  0.2939692E-006  0.1327914E+04  0.7818608E-02  0.8516999E-01
          4   -1    0    0  502    0  0.00000000000E+00  0.00000000000E+00  0.15854139915E+04  0.15854139915E+04  0.00000000000E+00 0.  1.
         -4   -1    0    0    0  501 -0.00000000000E+00 -0.00000000000E+00 -0.11499477654E+04  0.11499477654E+04  0.00000000000E+00 0. -1.
   -9000010    2    1    2    0  501 -0.47158439684E+03  0.72926176975E+03 -0.37795144408E+02  0.13284513410E+04  0.10045595653E+04 0.  0.
    9000010    2    1    2  502    0  0.47158439684E+03 -0.72926176975E+03  0.47326137054E+03  0.14069104159E+04  0.10006028289E+04 0.  0.
        -13    1    4    4    0    0  0.54996363229E+03 -0.73430643792E+03  0.70834122507E+03  0.11590570495E+04  0.10566000000E+00 0.  1.
          4    1    4    4  502    0 -0.78379235457E+02  0.50446681670E+01 -0.23507985453E+03  0.24785336639E+03  0.00000000000E+00 0.  1.
         13    1    3    3    0    0  0.25839503356E+03  0.28429383806E+03 -0.23599324880E+03  0.45087005264E+03  0.10566000000E+00 0. -1.
         -4    1    3    3    0  501 -0.72997943040E+03  0.44496793169E+03  0.19819810439E+03  0.87758128833E+03  0.00000000000E+00 0. -1.
<mgrwt>
<rscale>  0 0.13264174E+04</rscale>
<asrwt>0</asrwt>
<pdfrwt beam="1">  1        4 0.24390985E+00 0.13249229E+04</pdfrwt>
<pdfrwt beam="2">  1       -4 0.17691504E+00 0.13279136E+04</pdfrwt>
<totfact> 0.16429268E-01</totfact>
</mgrwt>
</event>
<event>
 8    1  0.2939692E-006  0.1037907E+04  0.7818608E-02  0.8743736E-01
          4   -1    0    0  502    0  0.00000000000E+00  0.00000000000E+00  0.11788325113E+04  0.11788325113E+04  0.00000000000E+00 0.  1.
         -4   -1    0    0    0  501 -0.00000000000E+00 -0.00000000000E+00 -0.17259154846E+04  0.17259154846E+04  0.00000000000E+00 0. -1.
   -9000010    2    1    2    0  501 -0.23644015563E+03 -0.37665026845E+02 -0.12739072384E+04  0.16376553183E+04  0.10008759605E+04 0.  0.
    9000010    2    1    2  502    0  0.23644015563E+03  0.37665026845E+02  0.72682426499E+03  0.12670926776E+04  0.10099147192E+04 0.  0.
        -13    1    4    4    0    0 -0.88320047571E+02 -0.30769361290E+03 -0.81208357134E+02  0.33025838165E+03  0.10566000000E+00 0.  1.
          4    1    4    4  502    0  0.32476020320E+03  0.34535863974E+03  0.80803262213E+03  0.93683429594E+03  0.00000000000E+00 0.  1.
         13    1    3    3    0    0 -0.97596081198E+02  0.13483326912E+03  0.13322949111E+03  0.21320204969E+03  0.10566000000E+00 0. -1.
         -4    1    3    3    0  501 -0.13884407443E+03 -0.17249829596E+03 -0.14071367295E+04  0.14244532686E+04  0.00000000000E+00 0. -1.
<mgrwt>
<rscale>  0 0.10335009E+04</rscale>
<asrwt>0</asrwt>
<pdfrwt beam="1">  1        4 0.18135885E+00 0.10379067E+04</pdfrwt>
<pdfrwt beam="2">  1       -4 0.26552546E+00 0.10291138E+04</pdfrwt>
<totfact> 0.14314686E-01</totfact>
</mgrwt>
</event>
<event>
 8    1  0.2939692E-006  0.1052283E+04  0.7818608E-02  0.8734783E-01
         -4   -1    0    0    0  501 -0.00000000000E+00  0.00000000000E+00  0.26116823514E+04  0.26116823514E+04  0.00000000000E+00 0. -1.
          4   -1    0    0  502    0  0.00000000000E+00 -0.00000000000E+00 -0.60900714163E+03  0.60900714163E+03  0.00000000000E+00 0.  1.
   -9000010    2    1    2    0  501 -0.18488738169E+03  0.17649898352E+03  0.19114254811E+04  0.21819362733E+04  0.10207660337E+04 0.  0.
    9000010    2    1    2  502    0  0.18488738169E+03 -0.17649898352E+03  0.91249728598E+02  0.10387532197E+04  0.10026696881E+04 0.  0.
        -13    1    4    4    0    0  0.31416473788E+03 -0.75234233185E+02  0.50167812566E+03  0.59669139872E+03  0.10566000000E+00 0.  1.
          4    1    4    4  502    0 -0.12927735619E+03 -0.10126475033E+03 -0.41042839706E+03  0.44206182101E+03  0.00000000000E+00 0.  1.
         13    1    3    3    0    0  0.34381691708E+03 -0.55213420930E+02  0.12795304877E+04  0.13260682013E+04  0.10566000000E+00 0. -1.
         -4    1    3    3    0  501 -0.52870429878E+03  0.23171240445E+03  0.63189499342E+03  0.85586807198E+03  0.00000000000E+00 0. -1.
<mgrwt>
<rscale>  0 0.10434732E+04</rscale>
<asrwt>0</asrwt>
<pdfrwt beam="2">  1        4 0.93693408E-01 0.10347375E+04</pdfrwt>
<pdfrwt beam="1">  1       -4 0.40179728E+00 0.10522825E+04</pdfrwt>
<totfact> 0.15668566E-01</totfact>
</mgrwt>
</event>
<event>
 8    1  0.2939692E-006  0.1428964E+04  0.7818608E-02  0.8452353E-01
          4   -1    0    0  502    0  0.00000000000E+00  0.00000000000E+00  0.21191569462E+04  0.21191569462E+04  0.00000000000E+00 0.  1.
         -4   -1    0    0    0  501 -0.00000000000E+00 -0.00000000000E+00 -0.19399175372E+04  0.19399175372E+04  0.00000000000E+00 0. -1.
   -9000010    2    1    2    0  501 -0.63612146310E+03 -0.79406448520E+03 -0.13514821167E+04  0.19650243035E+04  0.99981382214E+03 0.  0.
    9000010    2    1    2  502    0  0.63612146310E+03  0.79406448520E+03  0.15307215258E+04  0.20940501800E+04  0.10033687479E+04 0.  0.
        -13    1    4    4    0    0  0.82270965106E+03  0.86871098459E+03  0.14437301347E+04  0.18750644410E+04  0.10566000000E+00 0.  1.
          4    1    4    4  502    0 -0.18658818796E+03 -0.74646499391E+02  0.86991391048E+02  0.21898573898E+03  0.00000000000E+00 0.  1.
         13    1    3    3    0    0  0.36555741249E+02  0.38569876723E+01 -0.76893117634E+03  0.76980930346E+03  0.10566000000E+00 0. -1.
         -4    1    3    3    0  501 -0.67267720435E+03 -0.79792147287E+03 -0.58255094035E+03  0.11952150000E+04  0.00000000000E+00 0. -1.
<mgrwt>
<rscale>  0 0.14277164E+04</rscale>
<asrwt>0</asrwt>
<pdfrwt beam="1">  1        4 0.32602414E+00 0.14289639E+04</pdfrwt>
<pdfrwt beam="2">  1       -4 0.29844885E+00 0.14264700E+04</pdfrwt>
<totfact> 0.47379580E-02</totfact>
</mgrwt>
</event>
<event>
 8    1  0.2939692E-006  0.1322435E+04  0.7818608E-02  0.8544040E-01
          4   -1    0    0  502    0  0.00000000000E+00  0.00000000000E+00  0.19485251853E+04  0.19485251853E+04  0.00000000000E+00 0.  1.
         -4   -1    0    0    0  501 -0.00000000000E+00 -0.00000000000E+00 -0.86582264917E+03  0.86582264917E+03  0.00000000000E+00 0. -1.
   -9000010    2    1    2    0  501  0.35265817629E+02 -0.81437070977E+03  0.36702610359E+03  0.13724220260E+04  0.10413408308E+04 0.  0.
    9000010    2    1    2  502    0 -0.35265817629E+02  0.81437070977E+03  0.71567643255E+03  0.14419258085E+04  0.95000734227E+03 0.  0.
        -13    1    4    4    0    0  0.26500001859E+03  0.89572422899E+03  0.47092617601E+03  0.10460967349E+04  0.10566000000E+00 0.  1.
          4    1    4    4  502    0 -0.30026583622E+03 -0.81353519224E+02  0.24475025655E+03  0.39582907368E+03  0.00000000000E+00 0.  1.
         13    1    3    3    0    0  0.13432045630E+02 -0.62642316530E+03  0.73065010101E+03  0.96251544567E+03  0.10566000000E+00 0. -1.
         -4    1    3    3    0  501  0.21833771998E+02 -0.18794754447E+03 -0.36362399742E+03  0.40990658029E+03  0.00000000000E+00 0. -1.
<mgrwt>
<rscale>  0 0.12866234E+04</rscale>
<asrwt>0</asrwt>
<pdfrwt beam="1">  1        4 0.29977310E+00 0.12517816E+04</pdfrwt>
<pdfrwt beam="2">  1       -4 0.13320349E+00 0.13224349E+04</pdfrwt>
<totfact> 0.18093037E-01</totfact>
</mgrwt>
</event>
<event>
 8    1  0.2939692E-006  0.1050793E+04  0.7818608E-02  0.8741759E-01
          4   -1    0    0  502    0  0.00000000000E+00  0.00000000000E+00  0.11952757164E+04  0.11952757164E+04  0.00000000000E+00 0.  1.
         -4   -1    0    0    0  501 -0.00000000000E+00 -0.00000000000E+00 -0.26350362408E+04  0.26350362408E+04  0.00000000000E+00 0. -1.
   -9000010    2    1    2    0  501 -0.29313361647E+03  0.72951080360E+02 -0.22713985276E+04  0.24902422041E+04  0.97509270676E+03 0.  0.
    9000010    2    1    2  502    0  0.29313361647E+03 -0.72951080360E+02  0.83163800313E+03  0.13400697531E+04  0.10064372796E+04 0.  0.
        -13    1    4    4    0    0  0.49425443932E+03 -0.27486544274E+03  0.88486286043E+03  0.10501527295E+04  0.10566000000E+00 0.  1.
          4    1    4    4  502    0 -0.20112082285E+03  0.20191436238E+03 -0.53224857297E+02  0.28991702357E+03  0.00000000000E+00 0.  1.
         13    1    3    3    0    0 -0.52001486112E+03  0.25581020497E+03 -0.20322753974E+04  0.21132907085E+04  0.10566000000E+00 0. -1.
         -4    1    3    3    0  501  0.22688124465E+03 -0.18285912461E+03 -0.23912313019E+03  0.37695149558E+03  0.00000000000E+00 0. -1.
<mgrwt>
<rscale>  0 0.10356933E+04</rscale>
<asrwt>0</asrwt>
<pdfrwt beam="1">  1        4 0.18388857E+00 0.10507926E+04</pdfrwt>
<pdfrwt beam="2">  1       -4 0.40539018E+00 0.10208109E+04</pdfrwt>
<totfact> 0.51192698E-02</totfact>
</mgrwt>
</event>
<event>
 8    1  0.2939692E-006  0.1145924E+04  0.7818608E-02  0.8648975E-01
          4   -1    0    0  502    0  0.00000000000E+00  0.00000000000E+00  0.60949469456E+03  0.60949469456E+03  0.00000000000E+00 0.  1.
         -4   -1    0    0    0  501 -0.00000000000E+00 -0.00000000000E+00 -0.31671396589E+04  0.31671396589E+04  0.00000000000E+00 0. -1.
   -9000010    2    1    2    0  501 -0.10599818095E+03 -0.54396214747E+03 -0.23474116672E+04  0.26115850036E+04  0.10014510789E+04 0.  0.
    9000010    2    1    2  502    0  0.10599818095E+03  0.54396214747E+03 -0.21023329713E+03  0.11650493499E+04  0.10030012543E+04 0.  0.
        -13    1    4    4    0    0  0.14095154765E+03  0.71147363554E+03 -0.46250503511E+03  0.86021682820E+03  0.10566000000E+00 0.  1.
          4    1    4    4  502    0 -0.34953366693E+02 -0.16751148807E+03  0.25227173798E+03  0.30483252166E+03  0.00000000000E+00 0.  1.
         13    1    3    3    0    0 -0.33402730907E+03 -0.56707207397E+03 -0.22793979869E+04  0.23725092569E+04  0.10566000000E+00 0. -1.
         -4    1    3    3    0  501  0.22802912812E+03  0.23109926500E+02 -0.68013680387E+02  0.23907574677E+03  0.00000000000E+00 0. -1.
<mgrwt>
<rscale>  0 0.11452456E+04</rscale>
<asrwt>0</asrwt>
<pdfrwt beam="1">  1        4 0.93768415E-01 0.11459241E+04</pdfrwt>
<pdfrwt beam="2">  1       -4 0.48725225E+00 0.11445675E+04</pdfrwt>
<totfact> 0.64247637E-02</totfact>
</mgrwt>
</event>
<event>
 8    1  0.2939692E-006  0.1058765E+04  0.7818608E-02  0.8722424E-01
         -4   -1    0    0    0  501 -0.00000000000E+00  0.00000000000E+00  0.29263293400E+04  0.29263293400E+04  0.00000000000E+00 0. -1.
          4   -1    0    0  502    0  0.00000000000E+00 -0.00000000000E+00 -0.67057317773E+03  0.67057317773E+03  0.00000000000E+00 0.  1.
   -9000010    2    1    2    0  501  0.20032000172E+03  0.27658584824E+03  0.23082614676E+04  0.25394987455E+04  0.10021751547E+04 0.  0.
    9000010    2    1    2  502    0 -0.20032000172E+03 -0.27658584824E+03 -0.52505305326E+02  0.10574037723E+04  0.99935884249E+03 0.  0.
        -13    1    4    4    0    0 -0.19375513098E+03  0.21863554370E+03 -0.36824864031E+03  0.47005278853E+03  0.10566000000E+00 0.  1.
          4    1    4    4  502    0 -0.65648707420E+01 -0.49522139193E+03  0.31574333499E+03  0.58735098378E+03  0.00000000000E+00 0.  1.
         13    1    3    3    0    0 -0.33514415059E+03 -0.80130372850E+02  0.41229543664E+03  0.53733603691E+03  0.10566000000E+00 0. -1.
         -4    1    3    3    0  501  0.53546415231E+03  0.35671622109E+03  0.18959660310E+04  0.20021627085E+04  0.00000000000E+00 0. -1.
<mgrwt>
<rscale>  0 0.10574313E+04</rscale>
<asrwt>0</asrwt>
<pdfrwt beam="2">  1        4 0.10316511E+00 0.10560994E+04</pdfrwt>
<pdfrwt beam="1">  1       -4 0.45020451E+00 0.10587648E+04</pdfrwt>
<totfact> 0.80650302E-02</totfact>
</mgrwt>
</event>
<event>
 8    1  0.2939692E-006  0.1049583E+04  0.7818608E-02  0.8731334E-01
         -4   -1    0    0    0  501 -0.00000000000E+00  0.00000000000E+00  0.74289826418E+03  0.74289826418E+03  0.00000000000E+00 0. -1.
          4   -1    0    0  502    0  0.00000000000E+00 -0.00000000000E+00 -0.23243427720E+04  0.23243427720E+04  0.00000000000E+00 0.  1.
   -9000010    2    1    2    0  501  0.34508205743E+03  0.14086476902E+02  0.13655467570E+03  0.10539986085E+04  0.98640044202E+03 0.  0.
    9000010    2    1    2  502    0 -0.34508205743E+03 -0.14086476902E+02 -0.17179991835E+04  0.20132424277E+04  0.99113259603E+03 0.  0.
        -13    1    4    4    0    0 -0.26718056962E+03  0.38004121531E+03 -0.14687120461E+04  0.15404323638E+04  0.10566000000E+00 0.  1.
          4    1    4    4  502    0 -0.77901487813E+02 -0.39412769222E+03 -0.24928713741E+03  0.47281006382E+03  0.00000000000E+00 0.  1.
         13    1    3    3    0    0  0.20198439815E+03  0.39959214497E+03  0.37027444018E+03  0.58101183433E+03  0.10566000000E+00 0. -1.
         -4    1    3    3    0  501  0.14309765927E+03 -0.38550566807E+03 -0.23371976448E+03  0.47298677414E+03  0.00000000000E+00 0. -1.
<mgrwt>
<rscale>  0 0.10473466E+04</rscale>
<asrwt>0</asrwt>
<pdfrwt beam="2">  1        4 0.35759120E+00 0.10495827E+04</pdfrwt>
<pdfrwt beam="1">  1       -4 0.11429204E+00 0.10451153E+04</pdfrwt>
<totfact> 0.15881485E-01</totfact>
</mgrwt>
</event>
<event>
 8    1  0.2939692E-006  0.1388968E+04  0.7818608E-02  0.8479214E-01
          4   -1    0    0  502    0  0.00000000000E+00  0.00000000000E+00  0.23294899122E+04  0.23294899122E+04  0.00000000000E+00 0.  1.
         -4   -1    0    0    0  501 -0.00000000000E+00 -0.00000000000E+00 -0.11042057542E+04  0.11042057542E+04  0.00000000000E+00 0. -1.
   -9000010    2    1    2    0  501  0.10784574639E+03 -0.94808857380E+03 -0.25243584976E+03  0.14117212513E+04  0.10093217447E+04 0.  0.
    9000010    2    1    2  502    0 -0.10784574639E+03  0.94808857380E+03  0.14777200077E+04  0.20219744151E+04  0.99710654654E+03 0.  0.
        -13    1    4    4    0    0 -0.44060210352E+03  0.39153178611E+03  0.11571328555E+04  0.12986084128E+04  0.10566000000E+00 0.  1.
          4    1    4    4  502    0  0.33275635713E+03  0.55655678768E+03  0.32058715218E+03  0.72336600229E+03  0.00000000000E+00 0.  1.
         13    1    3    3    0    0 -0.28246498206E+03 -0.10309158440E+03  0.21549286365E+03  0.36993448922E+03  0.10566000000E+00 0. -1.
         -4    1    3    3    0  501  0.39031072845E+03 -0.84499698940E+03 -0.46792871342E+03  0.10417867621E+04  0.00000000000E+00 0. -1.
<mgrwt>
<rscale>  0 0.13845358E+04</rscale>
<asrwt>0</asrwt>
<pdfrwt beam="1">  1        4 0.35838306E+00 0.13801174E+04</pdfrwt>
<pdfrwt beam="2">  1       -4 0.16987781E+00 0.13889683E+04</pdfrwt>
<totfact> 0.83482318E-02</totfact>
</mgrwt>
</event>
<event>
 8    1  0.2939692E-006  0.1110252E+04  0.7818608E-02  0.8682432E-01
          4   -1    0    0  502    0  0.00000000000E+00  0.00000000000E+00  0.86061542274E+03  0.86061542274E+03  0.00000000000E+00 0.  1.
         -4   -1    0    0    0  501 -0.00000000000E+00 -0.00000000000E+00 -0.27144680051E+04  0.27144680051E+04  0.00000000000E+00 0. -1.
   -9000010    2    1    2    0  501  0.23314429450E+03  0.43497836060E+03 -0.21655358482E+04  0.24335581589E+04  0.99453374326E+03 0.  0.
    9000010    2    1    2  502    0 -0.23314429450E+03 -0.43497836060E+03  0.31168326589E+03  0.11415252689E+04  0.98100511982E+03 0.  0.
        -13    1    4    4    0    0 -0.19983771099E+03  0.26349302236E+03  0.29328558528E+03  0.44201824540E+03  0.10566000000E+00 0.  1.
          4    1    4    4  502    0 -0.33306583512E+02 -0.69847138296E+03  0.18397680604E+02  0.69950702353E+03  0.00000000000E+00 0.  1.
         13    1    3    3    0    0 -0.23925875024E+03  0.99858915469E+02 -0.83371708543E+02  0.27233693380E+03  0.10566000000E+00 0. -1.
         -4    1    3    3    0  501  0.47240304474E+03  0.33511944513E+03 -0.20821641397E+04  0.21612212251E+04  0.00000000000E+00 0. -1.
<mgrwt>
<rscale>  0 0.11041845E+04</rscale>
<asrwt>0</asrwt>
<pdfrwt beam="1">  1        4 0.13240238E+00 0.10981500E+04</pdfrwt>
<pdfrwt beam="2">  1       -4 0.41761046E+00 0.11102521E+04</pdfrwt>
<totfact> 0.72746797E-02</totfact>
</mgrwt>
</event>
<event>
 8    1  0.2939692E-006  0.1274373E+04  0.7818608E-02  0.8555904E-01
         -4   -1    0    0    0  501 -0.00000000000E+00  0.00000000000E+00  0.39288072524E+04  0.39288072524E+04  0.00000000000E+00 0.  1.
          4   -1    0    0  502    0  0.00000000000E+00 -0.00000000000E+00 -0.42849129469E+03  0.42849129469E+03  0.00000000000E+00 0. -1.
   -9000010    2    1    2    0  501 -0.10806287662E+03  0.78066549217E+03  0.21928967860E+04  0.25315462882E+04  0.98935034187E+03 0.  0.
    9000010    2    1    2  502    0  0.10806287662E+03 -0.78066549217E+03  0.13074191717E+04  0.18257522589E+04  0.10014540551E+04 0.  0.
        -13    1    4    4    0    0  0.13471626699E+03 -0.10210568126E+04  0.10112920756E+04  0.14434047112E+04  0.10566000000E+00 0.  1.
          4    1    4    4  502    0 -0.26653390364E+02  0.24039132044E+03  0.29612709614E+03  0.38234754770E+03  0.00000000000E+00 0.  1.
         13    1    3    3    0    0 -0.18740461088E+03  0.55641114984E+03  0.37172594646E+03  0.69490578231E+03  0.10566000000E+00 0. -1.
         -4    1    3    3    0  501  0.79341734260E+02  0.22425434233E+03  0.18211708396E+04  0.18366405059E+04  0.00000000000E+00 0. -1.
<mgrwt>
<rscale>  0 0.12696194E+04</rscale>
<asrwt>0</asrwt>
<pdfrwt beam="2">  1        4 0.65921740E-01 0.12743730E+04</pdfrwt>
<pdfrwt beam="1">  1       -4 0.60443186E+00 0.12648835E+04</pdfrwt>
<totfact> 0.33709273E-02</totfact>
</mgrwt>
</event>
<event>
 8    1  0.2939692E-006  0.1102107E+04  0.7818608E-02  0.8693535E-01
          4   -1    0    0  502    0  0.00000000000E+00  0.00000000000E+00  0.29243652131E+04  0.29243652131E+04  0.00000000000E+00 0.  1.
         -4   -1    0    0    0  501 -0.00000000000E+00 -0.00000000000E+00 -0.22632663487E+04  0.22632663487E+04  0.00000000000E+00 0. -1.
   -9000010    2    1    2    0  501 -0.25843544328E+03  0.25230074028E+03 -0.20190587657E+04  0.22897212322E+04  0.10177330101E+04 0.  0.
    9000010    2    1    2  502    0  0.25843544328E+03 -0.25230074028E+03  0.26801576301E+04  0.28979103295E+04  0.10412467591E+04 0.  0.
        -13    1    4    4    0    0  0.62559053805E+03 -0.35691958531E+03  0.17692970110E+04  0.19102793084E+04  0.10566000000E+00 0.  1.
          4    1    4    4  502    0 -0.36715509477E+03  0.10461884503E+03  0.91086061913E+03  0.98763102110E+03  0.00000000000E+00 0.  1.
         13    1    3    3    0    0  0.39874270849E+02 -0.24260068183E+03 -0.68286830223E+02  0.25516298839E+03  0.10566000000E+00 0. -1.
         -4    1    3    3    0  501 -0.29830971413E+03  0.49490142211E+03 -0.19507719355E+04  0.20345582438E+04  0.00000000000E+00 0. -1.
<mgrwt>
<rscale>  0 0.10909565E+04</rscale>
<asrwt>0</asrwt>
<pdfrwt beam="1">  1        4 0.44990234E+00 0.11021068E+04</pdfrwt>
<pdfrwt beam="2">  1       -4 0.34819482E+00 0.10799190E+04</pdfrwt>
<totfact> 0.11928925E-02</totfact>
</mgrwt>
</event>
<event>
 8    1  0.2939692E-006  0.1631553E+04  0.7818608E-02  0.8365356E-01
          4   -1    0    0  502    0  0.00000000000E+00  0.00000000000E+00  0.16225040824E+04  0.16225040824E+04  0.00000000000E+00 0.  1.
         -4   -1    0    0    0  501 -0.00000000000E+00 -0.00000000000E+00 -0.17140425705E+04  0.17140425705E+04  0.00000000000E+00 0. -1.
   -9000010    2    1    2    0  501 -0.88898320623E+03 -0.95939186222E+03 -0.57794742870E+03  0.16340312496E+04  0.79076608938E+03 0.  0.
    9000010    2    1    2  502    0  0.88898320623E+03  0.95939186222E+03  0.48640894060E+03  0.17025154032E+04  0.97531592548E+03 0.  0.
        -13    1    4    4    0    0  0.74740183235E+03  0.97613955308E+03  0.35847786143E+02  0.12299361776E+04  0.10566000000E+00 0.  1.
          4    1    4    4  502    0  0.14158137388E+03 -0.16747690856E+02  0.45056115445E+03  0.47257922561E+03  0.00000000000E+00 0.  1.
         13    1    3    3    0    0 -0.32765634258E+02  0.25317352340E+02 -0.29617680764E+03  0.29905729830E+03  0.10566000000E+00 0. -1.
         -4    1    3    3    0  501 -0.85621757197E+03 -0.98470921456E+03 -0.28177062107E+03  0.13349739513E+04  0.00000000000E+00 0. -1.
<mgrwt>
<rscale>  0 0.15791392E+04</rscale>
<asrwt>0</asrwt>
<pdfrwt beam="1">  1        4 0.24961601E+00 0.16315530E+04</pdfrwt>
<pdfrwt beam="2">  1       -4 0.26369886E+00 0.15284093E+04</pdfrwt>
<totfact> 0.91785086E-02</totfact>
</mgrwt>
</event>
<event>
 8    1  0.2939692E-006  0.1644311E+04  0.7818608E-02  0.8333168E-01
         -4   -1    0    0    0  501 -0.00000000000E+00  0.00000000000E+00  0.16574969286E+04  0.16574969286E+04  0.00000000000E+00 0. -1.
          4   -1    0    0  502    0  0.00000000000E+00 -0.00000000000E+00 -0.36072027249E+04  0.36072027249E+04  0.00000000000E+00 0.  1.
   -9000010    2    1    2    0  501  0.63528843089E+02 -0.11978398196E+04  0.97642989973E+03  0.19123742695E+04  0.11246794433E+04 0.  0.
    9000010    2    1    2  502    0 -0.63528843089E+02  0.11978398196E+04 -0.29261356960E+04  0.33523253840E+04  0.11121866846E+04 0.  0.
        -13    1    4    4    0    0  0.25340491767E+03  0.76804552401E+03 -0.72112675691E+03  0.10835736200E+04  0.10566000000E+00 0.  1.
          4    1    4    4  502    0 -0.31693376076E+03  0.42979429560E+03 -0.22050089391E+04  0.22687517640E+04  0.00000000000E+00 0.  1.
         13    1    3    3    0    0 -0.44397538215E+03 -0.33807733868E+03  0.66163479540E+03  0.86554667149E+03  0.10566000000E+00 0. -1.
         -4    1    3    3    0  501  0.50750422524E+03 -0.85976248093E+03  0.31479510433E+03  0.10468275980E+04  0.00000000000E+00 0. -1.
<mgrwt>
<rscale>  0 0.16400462E+04</rscale>
<asrwt>0</asrwt>
<pdfrwt beam="2">  1        4 0.55495426E+00 0.16357920E+04</pdfrwt>
<pdfrwt beam="1">  1       -4 0.25499953E+00 0.16443114E+04</pdfrwt>
<totfact> 0.62537862E-03</totfact>
</mgrwt>
</event>
<event>
 8    1  0.2939692E-006  0.1145388E+04  0.7818608E-02  0.8651743E-01
          4   -1    0    0  502    0  0.00000000000E+00  0.00000000000E+00  0.75410017146E+03  0.75410017146E+03  0.00000000000E+00 0.  1.
         -4   -1    0    0    0  501 -0.00000000000E+00 -0.00000000000E+00 -0.18280384960E+04  0.18280384960E+04  0.00000000000E+00 0. -1.
   -9000010    2    1    2    0  501 -0.40687460922E+03  0.35695013747E+03 -0.83941849930E+03  0.14200484056E+04  0.10094323697E+04 0.  0.
    9000010    2    1    2  502    0  0.40687460922E+03 -0.35695013747E+03 -0.23451982522E+03  0.11620902619E+04  0.10012461636E+04 0.  0.
        -13    1    4    4    0    0  0.26698917259E+03  0.33683040353E+03 -0.10733096477E+03  0.44301002944E+03  0.10566000000E+00 0.  1.
          4    1    4    4  502    0  0.13988543663E+03 -0.69378054100E+03 -0.12718886045E+03  0.71908023243E+03  0.00000000000E+00 0.  1.
         13    1    3    3    0    0  0.27600885225E+03 -0.10567083190E+03 -0.99129510507E+02  0.31172725619E+03  0.10566000000E+00 0. -1.
         -4    1    3    3    0  501 -0.68288346147E+03  0.46262096937E+03 -0.74028898880E+03  0.11083211494E+04  0.00000000000E+00 0. -1.
<mgrwt>
<rscale>  0 0.11417785E+04</rscale>
<asrwt>0</asrwt>
<pdfrwt beam="1">  1        4 0.11601541E+00 0.11381802E+04</pdfrwt>
<pdfrwt beam="2">  1       -4 0.28123669E+00 0.11453882E+04</pdfrwt>
<totfact> 0.25597592E-01</totfact>
</mgrwt>
</event>
<event>
 8    1  0.2939692E-006  0.1251504E+04  0.7818608E-02  0.8580924E-01
         -4   -1    0    0    0  501 -0.00000000000E+00  0.00000000000E+00  0.26212184005E+04  0.26212184005E+04  0.00000000000E+00 0. -1.
          4   -1    0    0  502    0  0.00000000000E+00 -0.00000000000E+00 -0.79797840646E+03  0.79797840646E+03  0.00000000000E+00 0.  1.
   -9000010    2    1    2    0  501  0.71741454460E+03  0.12288593609E+03  0.18107193757E+04  0.22011287812E+04  0.10180759656E+04 0.  0.
    9000010    2    1    2  502    0 -0.71741454460E+03 -0.12288593609E+03  0.12520618374E+02  0.12180680258E+04  0.97660041344E+03 0.  0.
        -13    1    4    4    0    0 -0.78307454363E+03  0.21555028661E+03  0.18437147880E+03  0.83286284603E+03  0.10566000000E+00 0.  1.
          4    1    4    4  502    0  0.65659999033E+02 -0.33843622269E+03 -0.17185086043E+03  0.38520517978E+03  0.00000000000E+00 0.  1.
         13    1    3    3    0    0  0.18421948531E+03  0.23778896123E+03 -0.94953771054E+01  0.30094946786E+03  0.10566000000E+00 0. -1.
         -4    1    3    3    0  501  0.53319505928E+03 -0.11490302514E+03  0.18202147528E+04  0.19001793133E+04  0.00000000000E+00 0. -1.
<mgrwt>
<rscale>  0 0.12346404E+04</rscale>
<asrwt>0</asrwt>
<pdfrwt beam="2">  1        4 0.12276591E+00 0.12180037E+04</pdfrwt>
<pdfrwt beam="1">  1       -4 0.40326437E+00 0.12515044E+04</pdfrwt>
<totfact> 0.93082254E-02</totfact>
</mgrwt>
</event>
<event>
 8    1  0.2939692E-006  0.1110388E+04  0.7818608E-02  0.8681353E-01
         -4   -1    0    0    0  501 -0.00000000000E+00  0.00000000000E+00  0.26905067313E+04  0.26905067313E+04  0.00000000000E+00 0. -1.
          4   -1    0    0  502    0  0.00000000000E+00 -0.00000000000E+00 -0.19635173576E+04  0.19635173576E+04  0.00000000000E+00 0.  1.
   -9000010    2    1    2    0  501 -0.18436066000E+03  0.43850382529E+03  0.24040357220E+04  0.26480840446E+04  0.10033378777E+04 0.  0.
    9000010    2    1    2  502    0  0.18436066000E+03 -0.43850382529E+03 -0.16770463484E+04  0.20059400443E+04  0.99249007500E+03 0.  0.
        -13    1    4    4    0    0 -0.67399451618E+01 -0.68957855856E+03 -0.71456779684E+03  0.99306151005E+03  0.10566000000E+00 0.  1.
          4    1    4    4  502    0  0.19110060516E+03  0.25107473327E+03 -0.96247855154E+03  0.10128785343E+04  0.00000000000E+00 0.  1.
         13    1    3    3    0    0  0.48083014246E+02 -0.30705153690E+03  0.48272259521E+03  0.57411996801E+03  0.10566000000E+00 0. -1.
         -4    1    3    3    0  501 -0.23244367425E+03  0.74555536220E+03  0.19213131268E+04  0.20739640766E+04  0.00000000000E+00 0. -1.
<mgrwt>
<rscale>  0 0.11054810E+04</rscale>
<asrwt>0</asrwt>
<pdfrwt beam="2">  1        4 0.30207959E+00 0.11005958E+04</pdfrwt>
<pdfrwt beam="1">  1       -4 0.41392411E+00 0.11103879E+04</pdfrwt>
<totfact> 0.23234234E-02</totfact>
</mgrwt>
</event>
<event>
 8    1  0.2939692E-006  0.1143818E+04  0.7818608E-02  0.8651723E-01
         -4   -1    0    0    0  501 -0.00000000000E+00  0.00000000000E+00  0.16267874043E+04  0.16267874043E+04  0.00000000000E+00 0. -1.
          4   -1    0    0  502    0  0.00000000000E+00 -0.00000000000E+00 -0.17926643657E+04  0.17926643657E+04  0.00000000000E+00 0.  1.
   -9000010    2    1    2    0  501  0.37427235948E+03 -0.39558274001E+03  0.11884901995E+04  0.16467052543E+04  0.10012810480E+04 0.  0.
    9000010    2    1    2  502    0 -0.37427235948E+03  0.39558274001E+03 -0.13543671609E+04  0.17727465157E+04  0.10058599800E+04 0.  0.
        -13    1    4    4    0    0 -0.18356189838E+03  0.38619837264E+03 -0.14824089581E+04  0.15428481726E+04  0.10566000000E+00 0.  1.
          4    1    4    4  502    0 -0.19071046110E+03  0.93843673677E+01  0.12804179724E+03  0.22989834311E+03  0.00000000000E+00 0.  1.
         13    1    3    3    0    0 -0.18283289262E+03 -0.41866615444E+03  0.17357422252E+03  0.48870976805E+03  0.10566000000E+00 0. -1.
         -4    1    3    3    0  501  0.55710525210E+03  0.23083414428E+02  0.10149159770E+04  0.11579954863E+04  0.00000000000E+00 0. -1.
<mgrwt>
<rscale>  0 0.11418040E+04</rscale>
<asrwt>0</asrwt>
<pdfrwt beam="2">  1        4 0.27579452E+00 0.11438181E+04</pdfrwt>
<pdfrwt beam="1">  1       -4 0.25027499E+00 0.11397935E+04</pdfrwt>
<totfact> 0.88129396E-02</totfact>
</mgrwt>
</event>
<event>
 8    1  0.2939692E-006  0.1149507E+04  0.7818608E-02  0.8666549E-01
          4   -1    0    0  502    0  0.00000000000E+00  0.00000000000E+00  0.96723765947E+03  0.96723765947E+03  0.00000000000E+00 0.  1.
         -4   -1    0    0    0  501 -0.00000000000E+00 -0.00000000000E+00 -0.14892166154E+04  0.14892166154E+04  0.00000000000E+00 0. -1.
   -9000010    2    1    2    0  501 -0.40618142654E+03  0.25682160653E+03 -0.69743672547E+03  0.13445383238E+04  0.10442339916E+04 0.  0.
    9000010    2    1    2  502    0  0.40618142654E+03 -0.25682160653E+03  0.17545776955E+03  0.11119159511E+04  0.98723399683E+03 0.  0.
        -13    1    4    4    0    0  0.50206930739E+03 -0.74849576989E+02  0.50976427527E+03  0.71939952467E+03  0.10566000000E+00 0.  1.
          4    1    4    4  502    0 -0.95887880844E+02 -0.18197202954E+03 -0.33430650571E+03  0.39251642639E+03  0.00000000000E+00 0.  1.
         13    1    3    3    0    0  0.81836870861E+02 -0.17495361157E+03  0.17158597332E+03  0.25835595026E+03  0.10566000000E+00 0. -1.
         -4    1    3    3    0  501 -0.48801829741E+03  0.43177521810E+03 -0.86902269879E+03  0.10861823735E+04  0.00000000000E+00 0. -1.
<mgrwt>
<rscale>  0 0.11234506E+04</rscale>
<asrwt>0</asrwt>
<pdfrwt beam="1">  1        4 0.14880579E+00 0.10979853E+04</pdfrwt>
<pdfrwt beam="2">  1       -4 0.22911025E+00 0.11495066E+04</pdfrwt>
<totfact> 0.22950647E-01</totfact>
</mgrwt>
</event>
<event>
 8    1  0.2939692E-006  0.1015145E+04  0.7818608E-02  0.8768002E-01
         -4   -1    0    0    0  501 -0.00000000000E+00  0.00000000000E+00  0.16600127141E+04  0.16600127141E+04  0.00000000000E+00 0. -1.
          4   -1    0    0  502    0  0.00000000000E+00 -0.00000000000E+00 -0.15136051924E+04  0.15136051924E+04  0.00000000000E+00 0.  1.
   -9000010    2    1    2    0  501 -0.19193856591E+03 -0.92059494080E+02  0.12988219133E+04  0.16484710682E+04  0.99257399557E+03 0.  0.
    9000010    2    1    2  502    0  0.19193856591E+03  0.92059494080E+02 -0.11524143916E+04  0.15251468383E+04  0.97606279768E+03 0.  0.
        -13    1    4    4    0    0  0.34556546509E+03 -0.34208719346E+03 -0.83353164596E+03  0.96499438059E+03  0.10566000000E+00 0.  1.
          4    1    4    4  502    0 -0.15362689919E+03  0.43414668754E+03 -0.31888274561E+03  0.56015245773E+03  0.00000000000E+00 0.  1.
         13    1    3    3    0    0  0.27088876186E+03  0.18380005683E+03  0.11356844225E+03  0.34649817378E+03  0.10566000000E+00 0. -1.
         -4    1    3    3    0  501 -0.46282732777E+03 -0.27585955091E+03  0.11852534711E+04  0.13019728944E+04  0.00000000000E+00 0. -1.
<mgrwt>
<rscale>  0 0.10070432E+04</rscale>
<asrwt>0</asrwt>
<pdfrwt beam="2">  1        4 0.23286234E+00 0.99900648E+03</pdfrwt>
<pdfrwt beam="1">  1       -4 0.25538657E+00 0.10151446E+04</pdfrwt>
<totfact> 0.10924908E-01</totfact>
</mgrwt>
</event>
<event>
 8    1  0.2939692E-006  0.1214226E+04  0.7818608E-02  0.8600193E-01
         -4   -1    0    0    0  501 -0.00000000000E+00  0.00000000000E+00  0.17635839308E+04  0.17635839308E+04  0.00000000000E+00 0. -1.
          4   -1    0    0  502    0  0.00000000000E+00 -0.00000000000E+00 -0.88058015516E+03  0.88058015516E+03  0.00000000000E+00 0.  1.
   -9000010    2    1    2    0  501 -0.14918086286E+03  0.68087475272E+03  0.76609953114E+03  0.14357068987E+04  0.99423359867E+03 0.  0.
    9000010    2    1    2  502    0  0.14918086286E+03 -0.68087475272E+03  0.11690424445E+03  0.12084571872E+04  0.98023303971E+03 0.  0.
        -13    1    4    4    0    0 -0.23565124968E+03 -0.51990976311E+03  0.40639223487E+03  0.70070845077E+03  0.10566000000E+00 0.  1.
          4    1    4    4  502    0  0.38483211254E+03 -0.16096498961E+03 -0.28948799042E+03  0.50774873640E+03  0.00000000000E+00 0.  1.
         13    1    3    3    0    0 -0.32178902654E+03  0.36184921420E+03 -0.10201131503E+03  0.49486296182E+03  0.10566000000E+00 0. -1.
         -4    1    3    3    0  501  0.17260816369E+03  0.31902553851E+03  0.86811084617E+03  0.94084393691E+03  0.00000000000E+00 0. -1.
<mgrwt>
<rscale>  0 0.12084943E+04</rscale>
<asrwt>0</asrwt>
<pdfrwt beam="2">  1        4 0.13547387E+00 0.12027893E+04</pdfrwt>
<pdfrwt beam="1">  1       -4 0.27132060E+00 0.12142264E+04</pdfrwt>
<totfact> 0.20957791E-01</totfact>
</mgrwt>
</event>
<event>
 8    1  0.2939692E-006  0.1103558E+04  0.7818608E-02  0.8683605E-01
          4   -1    0    0  502    0  0.00000000000E+00  0.00000000000E+00  0.15627462836E+04  0.15627462836E+04  0.00000000000E+00 0.  1.
         -4   -1    0    0    0  501 -0.00000000000E+00 -0.00000000000E+00 -0.13105193930E+04  0.13105193930E+04  0.00000000000E+00 0. -1.
   -9000010    2    1    2    0  501  0.44597939083E+03  0.18925788794E+03 -0.78955377814E+03  0.13556529912E+04  0.98978972457E+03 0.  0.
    9000010    2    1    2  502    0 -0.44597939083E+03 -0.18925788794E+03  0.10417806687E+04  0.15176126854E+04  0.99152666929E+03 0.  0.
        -13    1    4    4    0    0 -0.68489818830E+03 -0.19592596570E+03  0.36616962402E+03  0.80096986029E+03  0.10566000000E+00 0.  1.
          4    1    4    4  502    0  0.23891879747E+03  0.66680777579E+01  0.67561104468E+03  0.71664282508E+03  0.00000000000E+00 0.  1.
         13    1    3    3    0    0  0.51924296585E+03  0.51408448497E+03 -0.69756404675E+03  0.10101939050E+04  0.10566000000E+00 0. -1.
         -4    1    3    3    0  501 -0.73263575018E+02 -0.32482659703E+03 -0.91989731384E+02  0.34545908620E+03  0.00000000000E+00 0. -1.
<mgrwt>
<rscale>  0 0.11027780E+04</rscale>
<asrwt>0</asrwt>
<pdfrwt beam="1">  1        4 0.24042251E+00 0.11035585E+04</pdfrwt>
<pdfrwt beam="2">  1       -4 0.20161837E+00 0.11019981E+04</pdfrwt>
<totfact> 0.14190143E-01</totfact>
</mgrwt>
</event>
<event>
 8    1  0.2939692E-006  0.1174409E+04  0.7818608E-02  0.8628961E-01
          4   -1    0    0  502    0  0.00000000000E+00  0.00000000000E+00  0.26419339471E+04  0.26419339471E+04  0.00000000000E+00 0.  1.
         -4   -1    0    0    0  501 -0.00000000000E+00 -0.00000000000E+00 -0.79301684587E+03  0.79301684587E+03  0.00000000000E+00 0. -1.
   -9000010    2    1    2    0  501 -0.16096573135E+02  0.63007632176E+03 -0.87456575002E+02  0.11702697273E+04  0.98215442336E+03 0.  0.
    9000010    2    1    2  502    0  0.16096573135E+02 -0.63007632176E+03  0.19363736762E+04  0.22646810656E+04  0.99095007142E+03 0.  0.
        -13    1    4    4    0    0 -0.22101053031E+03 -0.83446304110E+02  0.15188601354E+04  0.15371223315E+04  0.10566000000E+00 0.  1.
          4    1    4    4  502    0  0.23710710345E+03 -0.54663001765E+03  0.41751354082E+03  0.72755873403E+03  0.00000000000E+00 0.  1.
         13    1    3    3    0    0 -0.12488612123E+03  0.21263219438E+03  0.43054459375E+03  0.49616292862E+03  0.10566000000E+00 0. -1.
         -4    1    3    3    0  501  0.10878954809E+03  0.41744412738E+03 -0.51800116876E+03  0.67410679873E+03  0.00000000000E+00 0. -1.
<mgrwt>
<rscale>  0 0.11706974E+04</rscale>
<asrwt>0</asrwt>
<pdfrwt beam="1">  1        4 0.40645137E+00 0.11744093E+04</pdfrwt>
<pdfrwt beam="2">  1       -4 0.12200259E+00 0.11669973E+04</pdfrwt>
<totfact> 0.91881945E-02</totfact>
</mgrwt>
</event>
<event>
 8    1  0.2939692E-006  0.1096425E+04  0.7818608E-02  0.8706969E-01
         -4   -1    0    0    0  501 -0.00000000000E+00  0.00000000000E+00  0.24995418993E+04  0.24995418993E+04  0.00000000000E+00 0. -1.
          4   -1    0    0  502    0  0.00000000000E+00 -0.00000000000E+00 -0.16009657197E+04  0.16009657197E+04  0.00000000000E+00 0.  1.
   -9000010    2    1    2    0  501 -0.41419784046E+03 -0.71948988233E+02  0.21805127975E+04  0.24406524589E+04  0.10126262178E+04 0.  0.
    9000010    2    1    2  502    0  0.41419784046E+03  0.71948988233E+02 -0.12819366179E+04  0.16598551602E+04  0.96696491792E+03 0.  0.
        -13    1    4    4    0    0  0.72230008373E+03 -0.34770779986E+02 -0.95742963815E+03  0.11998324638E+04  0.10566000000E+00 0.  1.
          4    1    4    4  502    0 -0.30810224327E+03  0.10671976822E+03 -0.32450697973E+03  0.46002269632E+03  0.00000000000E+00 0.  1.
         13    1    3    3    0    0 -0.71319917859E+03  0.11684911516E+03  0.16695507678E+04  0.18192598939E+04  0.10566000000E+00 0. -1.
         -4    1    3    3    0  501  0.29900133812E+03 -0.18879810339E+03  0.51096202967E+03  0.62139256498E+03  0.00000000000E+00 0. -1.
<mgrwt>
<rscale>  0 0.10752069E+04</rscale>
<asrwt>0</asrwt>
<pdfrwt beam="2">  1        4 0.24630242E+00 0.10543992E+04</pdfrwt>
<pdfrwt beam="1">  1       -4 0.38454491E+00 0.10964253E+04</pdfrwt>
<totfact> 0.41973620E-02</totfact>
</mgrwt>
</event>
<event>
 8    1  0.2939692E-006  0.1262993E+04  0.7818608E-02  0.8564872E-01
         -4   -1    0    0    0  501 -0.00000000000E+00  0.00000000000E+00  0.15939100629E+04  0.15939100629E+04  0.00000000000E+00 0. -1.
          4   -1    0    0  502    0  0.00000000000E+00 -0.00000000000E+00 -0.14444282881E+04  0.14444282881E+04  0.00000000000E+00 0.  1.
   -9000010    2    1    2    0  501 -0.15397419128E+03 -0.75226538633E+03  0.92542453476E+03  0.15560299541E+04  0.98752589109E+03 0.  0.
    9000010    2    1    2  502    0  0.15397419128E+03  0.75226538633E+03 -0.77594275997E+03  0.14823083969E+04  0.10027660513E+04 0.  0.
        -13    1    4    4    0    0  0.15477886999E+03  0.14558215101E+03  0.22650463533E+03  0.31057208870E+03  0.10566000000E+00 0.  1.
          4    1    4    4  502    0 -0.80467871753E+00  0.60668323532E+03 -0.10024473953E+04  0.11717363082E+04  0.00000000000E+00 0.  1.
         13    1    3    3    0    0  0.39149969903E+02 -0.39856828633E+03  0.10584275508E+04  0.11316617385E+04  0.10566000000E+00 0. -1.
         -4    1    3    3    0  501 -0.19312416118E+03 -0.35369710001E+03 -0.13300301599E+03  0.42436821564E+03  0.00000000000E+00 0. -1.
<mgrwt>
<rscale>  0 0.12569455E+04</rscale>
<asrwt>0</asrwt>
<pdfrwt beam="2">  1        4 0.22221974E+00 0.12629929E+04</pdfrwt>
<pdfrwt beam="1">  1       -4 0.24521693E+00 0.12509271E+04</pdfrwt>
<totfact> 0.12106975E-01</totfact>
</mgrwt>
</event>
<event>
 8    1  0.2939692E-006  0.1277774E+04  0.7818608E-02  0.8552677E-01
          4   -1    0    0  502    0  0.00000000000E+00  0.00000000000E+00  0.28179520144E+04  0.28179520144E+04  0.00000000000E+00 0.  1.
         -4   -1    0    0    0  501 -0.00000000000E+00 -0.00000000000E+00 -0.76397771917E+03  0.76397771917E+03  0.00000000000E+00 0. -1.
   -9000010    2    1    2    0  501  0.53889106519E+02 -0.79602814318E+03  0.13687038186E+03  0.12780213185E+04  0.98895912382E+03 0.  0.
    9000010    2    1    2  502    0 -0.53889106519E+02  0.79602814318E+03  0.19171039134E+04  0.23039084151E+04  0.99806900056E+03 0.  0.
        -13    1    4    4    0    0 -0.49439152113E+03  0.38756254927E+03  0.12937368763E+04  0.14381873390E+04  0.10566000000E+00 0.  1.
          4    1    4    4  502    0  0.44050241461E+03  0.40846559391E+03  0.62336703706E+03  0.86572107608E+03  0.00000000000E+00 0.  1.
         13    1    3    3    0    0  0.16766099366E+02 -0.42192918120E+03 -0.42686547882E+03  0.60043274745E+03  0.10566000000E+00 0. -1.
         -4    1    3    3    0  501  0.37123007153E+02 -0.37409896197E+03  0.56373586068E+03  0.67758857105E+03  0.00000000000E+00 0. -1.
<mgrwt>
<rscale>  0 0.12742176E+04</rscale>
<asrwt>0</asrwt>
<pdfrwt beam="1">  1        4 0.43353107E+00 0.12777741E+04</pdfrwt>
<pdfrwt beam="2">  1       -4 0.11753504E+00 0.12706711E+04</pdfrwt>
<totfact> 0.74640122E-02</totfact>
</mgrwt>
</event>
<event>
 8    1  0.2939692E-006  0.1320568E+04  0.7818608E-02  0.8522996E-01
         -4   -1    0    0    0  501 -0.00000000000E+00  0.00000000000E+00  0.70074977809E+03  0.70074977809E+03  0.00000000000E+00 0. -1.
          4   -1    0    0  502    0  0.00000000000E+00 -0.00000000000E+00 -0.33840045486E+04  0.33840045486E+04  0.00000000000E+00 0.  1.
   -9000010    2    1    2    0  501 -0.67304890184E+03  0.52575971287E+03 -0.28654730842E+03  0.13512991679E+04  0.10072149628E+04 0.  0.
    9000010    2    1    2  502    0  0.67304890184E+03 -0.52575971287E+03 -0.23967074621E+04  0.27334551588E+04  0.99907574611E+03 0.  0.
        -13    1    4    4    0    0  0.27401302181E+03 -0.14878420001E+03 -0.40824047468E+02  0.31446222080E+03  0.10566000000E+00 0.  1.
          4    1    4    4  502    0  0.39903588002E+03 -0.37697551286E+03 -0.23558834147E+04  0.24189929380E+04  0.00000000000E+00 0.  1.
         13    1    3    3    0    0 -0.87475453165E+03  0.58674030695E+03 -0.80179819979E+02  0.10563562340E+04  0.10566000000E+00 0. -1.
         -4    1    3    3    0  501  0.20170562982E+03 -0.60980594085E+02 -0.20636748844E+03  0.29494293387E+03  0.00000000000E+00 0. -1.
<mgrwt>
<rscale>  0 0.13174658E+04</rscale>
<asrwt>0</asrwt>
<pdfrwt beam="2">  1        4 0.52061608E+00 0.13143707E+04</pdfrwt>
<pdfrwt beam="1">  1       -4 0.10780766E+00 0.13205681E+04</pdfrwt>
<totfact> 0.33882709E-02</totfact>
</mgrwt>
</event>
<event>
 8    1  0.2939692E-006  0.1136960E+04  0.7818608E-02  0.8664257E-01
         -4   -1    0    0    0  501 -0.00000000000E+00  0.00000000000E+00  0.25552363769E+04  0.25552363769E+04  0.00000000000E+00 0. -1.
          4   -1    0    0  502    0  0.00000000000E+00 -0.00000000000E+00 -0.56957446665E+03  0.56957446665E+03  0.00000000000E+00 0.  1.
   -9000010    2    1    2    0  501  0.49781070877E+03  0.32992492334E+03  0.15607581433E+04  0.19309698972E+04  0.96747754763E+03 0.  0.
    9000010    2    1    2  502    0 -0.49781070877E+03 -0.32992492334E+03  0.42490376691E+03  0.11938409463E+04  0.94236247655E+03 0.  0.
        -13    1    4    4    0    0 -0.36641360395E+03  0.29650238135E+03  0.12896049872E+03  0.48867516072E+03  0.10566000000E+00 0.  1.
          4    1    4    4  502    0 -0.13139710481E+03 -0.62642730469E+03  0.29594326819E+03  0.70516578562E+03  0.00000000000E+00 0.  1.
         13    1    3    3    0    0 -0.17950131161E+03 -0.20342083789E+03  0.31082502978E+03  0.41256874392E+03  0.10566000000E+00 0. -1.
         -4    1    3    3    0  501  0.67731202038E+03  0.53334576123E+03  0.12499331136E+04  0.15184011533E+04  0.00000000000E+00 0. -1.
<mgrwt>
<rscale>  0 0.11262634E+04</rscale>
<asrwt>0</asrwt>
<pdfrwt beam="2">  1        4 0.87626843E-01 0.11156671E+04</pdfrwt>
<pdfrwt beam="1">  1       -4 0.39311328E+00 0.11369603E+04</pdfrwt>
<totfact> 0.19268159E-01</totfact>
</mgrwt>
</event>
<event>
 8    1  0.2939692E-006  0.1030663E+04  0.7818608E-02  0.8751321E-01
         -4   -1    0    0    0  501 -0.00000000000E+00  0.00000000000E+00  0.17697261731E+04  0.17697261731E+04  0.00000000000E+00 0. -1.
          4   -1    0    0  502    0  0.00000000000E+00 -0.00000000000E+00 -0.19804092260E+04  0.19804092260E+04  0.00000000000E+00 0.  1.
   -9000010    2    1    2    0  501  0.45181173285E+02 -0.22826989446E+03  0.14637717164E+04  0.17839043665E+04  0.99274300192E+03 0.  0.
    9000010    2    1    2  502    0 -0.45181173285E+02  0.22826989446E+03 -0.16744547693E+04  0.19662310326E+04  0.10040504051E+04 0.  0.
        -13    1    4    4    0    0  0.35006911145E+03  0.42541493761E+03 -0.11858366091E+04  0.13075682493E+04  0.10566000000E+00 0.  1.
          4    1    4    4  502    0 -0.39525028474E+03 -0.19714504314E+03 -0.48861816022E+03  0.65866278331E+03  0.00000000000E+00 0.  1.
         13    1    3    3    0    0 -0.34072848683E+03 -0.45204278057E+03  0.71026048919E+03  0.90824476374E+03  0.10566000000E+00 0. -1.
         -4    1    3    3    0  501  0.38590966011E+03  0.22377288610E+03  0.75351122722E+03  0.87565960274E+03  0.00000000000E+00 0. -1.
<mgrwt>
<rscale>  0 0.10251418E+04</rscale>
<asrwt>0</asrwt>
<pdfrwt beam="2">  1        4 0.30467834E+00 0.10306627E+04</pdfrwt>
<pdfrwt beam="1">  1       -4 0.27226557E+00 0.10196505E+04</pdfrwt>
<totfact> 0.66432995E-02</totfact>
</mgrwt>
</event>
<event>
 8    1  0.2939692E-006  0.1074608E+04  0.7818608E-02  0.8711653E-01
         -4   -1    0    0    0  501 -0.00000000000E+00  0.00000000000E+00  0.25905269320E+04  0.25905269320E+04  0.00000000000E+00 0. -1.
          4   -1    0    0  502    0  0.00000000000E+00 -0.00000000000E+00 -0.11562903098E+04  0.11562903098E+04  0.00000000000E+00 0.  1.
   -9000010    2    1    2    0  501  0.27910033600E+02  0.41356258913E+03  0.21885370244E+04  0.24339003473E+04  0.98100132941E+03 0.  0.
    9000010    2    1    2  502    0 -0.27910033600E+02 -0.41356258913E+03 -0.75430040226E+03  0.13129168945E+04  0.99144777465E+03 0.  0.
        -13    1    4    4    0    0  0.26371161254E+03 -0.18173915810E+03  0.13589809923E+03  0.34790981693E+03  0.10566000000E+00 0.  1.
          4    1    4    4  502    0 -0.29162164614E+03 -0.23182343102E+03 -0.89019850149E+03  0.96500707755E+03  0.00000000000E+00 0.  1.
         13    1    3    3    0    0 -0.32827285878E+03  0.41826686012E+03  0.58185362605E+03  0.78820294937E+03  0.10566000000E+00 0. -1.
         -4    1    3    3    0  501  0.35618289238E+03 -0.47042709971E+01  0.16066833984E+04  0.16456973979E+04  0.00000000000E+00 0. -1.
<mgrwt>
<rscale>  0 0.10697816E+04</rscale>
<asrwt>0</asrwt>
<pdfrwt beam="2">  1        4 0.17789082E+00 0.10746077E+04</pdfrwt>
<pdfrwt beam="1">  1       -4 0.39854260E+00 0.10649773E+04</pdfrwt>
<totfact> 0.56797279E-02</totfact>
</mgrwt>
</event>
<event>
 8    1  0.2939692E-006  0.1098600E+04  0.7818608E-02  0.8688843E-01
          4   -1    0    0  502    0  0.00000000000E+00  0.00000000000E+00  0.18861780490E+04  0.18861780490E+04  0.00000000000E+00 0.  1.
         -4   -1    0    0    0  501 -0.00000000000E+00 -0.00000000000E+00 -0.15342962306E+04  0.15342962306E+04  0.00000000000E+00 0. -1.
   -9000010    2    1    2    0  501  0.51866794371E+02 -0.44324315151E+03 -0.11317454642E+04  0.15743780968E+04  0.99933174684E+03 0.  0.
    9000010    2    1    2  502    0 -0.51866794371E+02  0.44324315151E+03  0.14836272825E+04  0.18460961828E+04  0.10038757627E+04 0.  0.
        -13    1    4    4    0    0 -0.23741506944E+02 -0.31650978799E+03  0.61255780598E+03  0.68990519775E+03  0.10566000000E+00 0.  1.
          4    1    4    4  502    0 -0.28125287427E+02  0.75975293950E+03  0.87106947656E+03  0.11561909850E+04  0.00000000000E+00 0.  1.
         13    1    3    3    0    0 -0.24214167912E+03 -0.35568900184E+03 -0.30683315896E+02  0.43138003643E+03  0.10566000000E+00 0. -1.
         -4    1    3    3    0  501  0.29400847349E+03 -0.87554149672E+02 -0.11010621483E+04  0.11429980603E+04  0.00000000000E+00 0. -1.
<mgrwt>
<rscale>  0 0.10965224E+04</rscale>
<asrwt>0</asrwt>
<pdfrwt beam="1">  1        4 0.29018124E+00 0.10985997E+04</pdfrwt>
<pdfrwt beam="2">  1       -4 0.23604558E+00 0.10944490E+04</pdfrwt>
<totfact> 0.87693245E-02</totfact>
</mgrwt>
</event>
<event>
 8    1  0.2939692E-006  0.1184066E+04  0.7818608E-02  0.8629083E-01
          4   -1    0    0  502    0  0.00000000000E+00  0.00000000000E+00  0.20773692906E+04  0.20773692906E+04  0.00000000000E+00 0.  1.
         -4   -1    0    0    0  501 -0.00000000000E+00 -0.00000000000E+00 -0.11174764926E+04  0.11174764926E+04  0.00000000000E+00 0. -1.
   -9000010    2    1    2    0  501 -0.16192382426E+02  0.60674691899E+03 -0.53922652958E+03  0.13010678932E+04  0.10166653312E+04 0.  0.
    9000010    2    1    2  502    0  0.16192382426E+02 -0.60674691899E+03  0.14991193276E+04  0.18937778900E+04  0.98520653731E+03 0.  0.
        -13    1    4    4    0    0 -0.29059279555E+03 -0.49297849567E+03  0.14551595742E+04  0.15636372238E+04  0.10566000000E+00 0.  1.
          4    1    4    4  502    0  0.30678517797E+03 -0.11376842331E+03  0.43959753442E+02  0.33014066622E+03  0.00000000000E+00 0.  1.
         13    1    3    3    0    0  0.38557389193E+03 -0.34692726578E+02 -0.34766073162E+03  0.52032567387E+03  0.10566000000E+00 0. -1.
         -4    1    3    3    0  501 -0.40176627436E+03  0.64143964557E+03 -0.19156579795E+03  0.78074221934E+03  0.00000000000E+00 0. -1.
<mgrwt>
<rscale>  0 0.11705394E+04</rscale>
<asrwt>0</asrwt>
<pdfrwt beam="1">  1        4 0.31959528E+00 0.11571672E+04</pdfrwt>
<pdfrwt beam="2">  1       -4 0.17191946E+00 0.11840661E+04</pdfrwt>
<totfact> 0.11026413E-01</totfact>
</mgrwt>
</event>
<event>
 8    1  0.2939692E-006  0.1192015E+04  0.7818608E-02  0.8616309E-01
         -4   -1    0    0    0  501 -0.00000000000E+00  0.00000000000E+00  0.15644956496E+04  0.15644956496E+04  0.00000000000E+00 0. -1.
          4   -1    0    0  502    0  0.00000000000E+00 -0.00000000000E+00 -0.18753844258E+04  0.18753844258E+04  0.00000000000E+00 0.  1.
   -9000010    2    1    2    0  501  0.23552525426E+03 -0.60880174505E+03  0.10841077280E+04  0.16112696707E+04  0.99739093416E+03 0.  0.
    9000010    2    1    2  502    0 -0.23552525426E+03  0.60880174505E+03 -0.13949965042E+04  0.18286104047E+04  0.98574289521E+03 0.  0.
        -13    1    4    4    0    0  0.16648108238E+03 -0.17715164784E+03 -0.57273031536E+03  0.62218862287E+03  0.10566000000E+00 0.  1.
          4    1    4    4  502    0 -0.40200633664E+03  0.78595339289E+03 -0.82226618883E+03  0.12064217819E+04  0.00000000000E+00 0.  1.
         13    1    3    3    0    0  0.58824875744E+03 -0.59575064230E+03  0.80259109391E+03  0.11597878701E+04  0.10566000000E+00 0. -1.
         -4    1    3    3    0  501 -0.35272350319E+03 -0.13051102748E+02  0.28151663410E+03  0.45148180058E+03  0.00000000000E+00 0. -1.
<mgrwt>
<rscale>  0 0.11871408E+04</rscale>
<asrwt>0</asrwt>
<pdfrwt beam="2">  1        4 0.28852068E+00 0.11822862E+04</pdfrwt>
<pdfrwt beam="1">  1       -4 0.24069164E+00 0.11920153E+04</pdfrwt>
<totfact> 0.85763166E-02</totfact>
</mgrwt>
</event>
<event>
 8    1  0.2939692E-006  0.1502336E+04  0.7818608E-02  0.8411623E-01
          4   -1    0    0  502    0  0.00000000000E+00  0.00000000000E+00  0.21478321001E+04  0.21478321001E+04  0.00000000000E+00 0.  1.
         -4   -1    0    0    0  501 -0.00000000000E+00 -0.00000000000E+00 -0.22190761141E+04  0.22190761141E+04  0.00000000000E+00 0. -1.
   -9000010    2    1    2    0  501 -0.10374150735E+04  0.39384645219E+03 -0.16254804302E+04  0.22052738281E+04  0.99483715512E+03 0.  0.
    9000010    2    1    2  502    0  0.10374150735E+04 -0.39384645219E+03  0.15542364162E+04  0.21616343861E+04  0.10127523482E+04 0.  0.
        -13    1    4    4    0    0  0.11970684074E+04 -0.23821940718E+03  0.10489799289E+04  0.16093725984E+04  0.10566000000E+00 0.  1.
          4    1    4    4  502    0 -0.15965333389E+03 -0.15562704502E+03  0.50525648729E+03  0.55226178767E+03  0.00000000000E+00 0.  1.
         13    1    3    3    0    0 -0.34171520156E+03  0.44867921554E+03 -0.16661030849E+03  0.58808275225E+03  0.10566000000E+00 0. -1.
         -4    1    3    3    0  501 -0.69569987198E+03 -0.54832763342E+02 -0.14588701217E+04  0.16171910758E+04  0.00000000000E+00 0. -1.
<mgrwt>
<rscale>  0 0.14963145E+04</rscale>
<asrwt>0</asrwt>
<pdfrwt beam="1">  1        4 0.33043571E+00 0.15023356E+04</pdfrwt>
<pdfrwt beam="2">  1       -4 0.34139632E+00 0.14903174E+04</pdfrwt>
<totfact> 0.34395952E-02</totfact>
</mgrwt>
</event>
<event>
 8    1  0.2939692E-006  0.1420596E+04  0.7818608E-02  0.8461045E-01
         -4   -1    0    0    0  501 -0.00000000000E+00  0.00000000000E+00  0.24552969364E+04  0.24552969364E+04  0.00000000000E+00 0.  1.
          4   -1    0    0  502    0  0.00000000000E+00 -0.00000000000E+00 -0.10171073599E+04  0.10171073599E+04  0.00000000000E+00 0. -1.
   -9000010    2    1    2    0  501  0.99469476224E+03 -0.79689572477E+02  0.14923872329E+04  0.20507748205E+04  0.99130702269E+03 0.  0.
    9000010    2    1    2  502    0 -0.99469476224E+03  0.79689572477E+02 -0.54197656494E+02  0.14216294758E+04  0.10111008271E+04 0.  0.
        -13    1    4    4    0    0 -0.34271604239E+03  0.30847759584E+03  0.38686943959E+03  0.60189757210E+03  0.10566000000E+00 0.  1.
          4    1    4    4  502    0 -0.65197871985E+03 -0.22878802336E+03 -0.44106709609E+03  0.81973190375E+03  0.00000000000E+00 0.  1.
         13    1    3    3    0    0  0.15600571083E+03  0.19239546852E+03 -0.69442494493E+02  0.25724709780E+03  0.10566000000E+00 0. -1.
         -4    1    3    3    0  501  0.83868905141E+03 -0.27208504100E+03  0.15618297274E+04  0.17935277227E+04  0.00000000000E+00 0. -1.
<mgrwt>
<rscale>  0 0.14135689E+04</rscale>
<asrwt>0</asrwt>
<pdfrwt beam="2">  1        4 0.15647806E+00 0.14205960E+04</pdfrwt>
<pdfrwt beam="1">  1       -4 0.37773799E+00 0.14065766E+04</pdfrwt>
<totfact> 0.79395700E-02</totfact>
</mgrwt>
</event>
<event>
 8    1  0.2939692E-006  0.1356237E+04  0.7818608E-02  0.8501829E-01
         -4   -1    0    0    0  501 -0.00000000000E+00  0.00000000000E+00  0.10041669469E+04  0.10041669469E+04  0.00000000000E+00 0. -1.
          4   -1    0    0  502    0  0.00000000000E+00 -0.00000000000E+00 -0.19302791900E+04  0.19302791900E+04  0.00000000000E+00 0.  1.
   -9000010    2    1    2    0  501  0.49869747066E+03 -0.76207666541E+03 -0.10413946294E+03  0.13602297166E+04  0.10049476817E+04 0.  0.
    9000010    2    1    2  502    0 -0.49869747066E+03  0.76207666541E+03 -0.82197278015E+03  0.15742164202E+04  0.98643706086E+03 0.  0.
        -13    1    4    4    0    0 -0.19235769659E+03  0.59195668960E+03  0.59876697796E+02  0.62529947697E+03  0.10566000000E+00 0.  1.
          4    1    4    4  502    0 -0.30633977407E+03  0.17011997581E+03 -0.88184947795E+03  0.94891694321E+03  0.00000000000E+00 0.  1.
         13    1    3    3    0    0  0.79311391026E+03 -0.65698926261E+03 -0.16129170225E+03  0.10424392501E+04  0.10566000000E+00 0. -1.
         -4    1    3    3    0  501 -0.29441643960E+03 -0.10508740280E+03  0.57152239305E+02  0.31779046649E+03  0.00000000000E+00 0. -1.
<mgrwt>
<rscale>  0 0.13493909E+04</rscale>
<asrwt>0</asrwt>
<pdfrwt beam="2">  1        4 0.29696603E+00 0.13425789E+04</pdfrwt>
<pdfrwt beam="1">  1       -4 0.15448722E+00 0.13562374E+04</pdfrwt>
<totfact> 0.14645334E-01</totfact>
</mgrwt>
</event>
<event>
 8    1  0.2939692E-006  0.1499045E+04  0.7818608E-02  0.8415134E-01
         -4   -1    0    0    0  501 -0.00000000000E+00  0.00000000000E+00  0.15470892724E+04  0.15470892724E+04  0.00000000000E+00 0. -1.
          4   -1    0    0  502    0  0.00000000000E+00 -0.00000000000E+00 -0.17311522747E+04  0.17311522747E+04  0.00000000000E+00 0.  1.
   -9000010    2    1    2    0  501 -0.88009319010E+03  0.61703120407E+03  0.58484095976E+03  0.16090915393E+04  0.10449139217E+04 0.  0.
    9000010    2    1    2  502    0  0.88009319010E+03 -0.61703120407E+03 -0.76890396211E+03  0.16691500078E+04  0.10195866396E+04 0.  0.
        -13    1    4    4    0    0  0.50095927249E+03  0.18181090111E+03 -0.53355537331E+03  0.75411984724E+03  0.10566000000E+00 0.  1.
          4    1    4    4  502    0  0.37913391761E+03 -0.79884210518E+03 -0.23534858880E+03  0.91503016057E+03  0.00000000000E+00 0.  1.
         13    1    3    3    0    0 -0.97287130667E+03  0.59744970326E+03  0.13530762333E+03  0.11496664261E+04  0.10566000000E+00 0. -1.
         -4    1    3    3    0  501  0.92778116567E+02  0.19581500809E+02  0.44953333643E+03  0.45942511322E+03  0.00000000000E+00 0. -1.
<mgrwt>
<rscale>  0 0.14902479E+04</rscale>
<asrwt>0</asrwt>
<pdfrwt beam="2">  1        4 0.26633112E+00 0.14815021E+04</pdfrwt>
<pdfrwt beam="1">  1       -4 0.23801373E+00 0.14990452E+04</pdfrwt>
<totfact> 0.97012507E-02</totfact>
</mgrwt>
</event>
<event>
 8    1  0.2939692E-006  0.1215204E+04  0.7818608E-02  0.8664901E-01
          4   -1    0    0  502    0  0.00000000000E+00  0.00000000000E+00  0.98104623694E+03  0.98104623694E+03  0.00000000000E+00 0.  1.
         -4   -1    0    0    0  501 -0.00000000000E+00 -0.00000000000E+00 -0.15597567351E+04  0.15597567351E+04  0.00000000000E+00 0. -1.
   -9000010    2    1    2    0  501 -0.64741750716E+03  0.26187191417E+02 -0.78930016466E+03  0.13074869000E+04  0.81651212251E+03 0.  0.
    9000010    2    1    2  502    0  0.64741750716E+03 -0.26187191417E+02  0.21058966654E+03  0.12333160720E+04  0.10280492830E+04 0.  0.
        -13    1    4    4    0    0  0.10817434815E+03 -0.27402711348E+03 -0.32162418369E+03  0.43615900222E+03  0.10566000000E+00 0.  1.
          4    1    4    4  502    0  0.53924315901E+03  0.24783992207E+03  0.53221385023E+03  0.79715706977E+03  0.00000000000E+00 0.  1.
         13    1    3    3    0    0 -0.71269596326E+02 -0.28194827049E+03 -0.52999635823E+03  0.60454142413E+03  0.10566000000E+00 0. -1.
         -4    1    3    3    0  501 -0.57614791083E+03  0.30813546190E+03 -0.25930380644E+03  0.70294547589E+03  0.00000000000E+00 0. -1.
<mgrwt>
<rscale>  0 0.11254721E+04</rscale>
<asrwt>0</asrwt>
<pdfrwt beam="1">  1        4 0.15093019E+00 0.12152039E+04</pdfrwt>
<pdfrwt beam="2">  1       -4 0.23996257E+00 0.10423662E+04</pdfrwt>
<totfact> 0.21232332E-01</totfact>
</mgrwt>
</event>
<event>
 8    1  0.2939692E-006  0.1385807E+04  0.7818608E-02  0.8482169E-01
         -4   -1    0    0    0  501 -0.00000000000E+00  0.00000000000E+00  0.75789545274E+03  0.75789545274E+03  0.00000000000E+00 0. -1.
          4   -1    0    0  502    0  0.00000000000E+00 -0.00000000000E+00 -0.31544801285E+04  0.31544801285E+04  0.00000000000E+00 0.  1.
   -9000010    2    1    2    0  501  0.32406896603E+03  0.87939290505E+03 -0.31980886621E+03  0.14222302339E+04  0.10208371815E+04 0.  0.
    9000010    2    1    2  502    0 -0.32406896603E+03 -0.87939290505E+03 -0.20767758096E+04  0.24901453473E+04  0.10047255901E+04 0.  0.
        -13    1    4    4    0    0 -0.54001076901E+03 -0.80334088717E+03 -0.10095050990E+04  0.13985952837E+04  0.10566000000E+00 0.  1.
          4    1    4    4  502    0  0.21594180298E+03 -0.76052017887E+02 -0.10672707106E+04  0.10915500636E+04  0.00000000000E+00 0.  1.
         13    1    3    3    0    0 -0.16316282381E+03  0.83149829897E+03 -0.18893575387E+02  0.84756622551E+03  0.10566000000E+00 0. -1.
         -4    1    3    3    0  501  0.48723178984E+03  0.47894606081E+02 -0.30091529083E+03  0.57466400842E+03  0.00000000000E+00 0. -1.
<mgrwt>
<rscale>  0 0.13798818E+04</rscale>
<asrwt>0</asrwt>
<pdfrwt beam="2">  1        4 0.48530463E+00 0.13739818E+04</pdfrwt>
<pdfrwt beam="1">  1       -4 0.11659930E+00 0.13858070E+04</pdfrwt>
<totfact> 0.42950528E-02</totfact>
</mgrwt>
</event>
<event>
 8    1  0.2939692E-006  0.1023806E+04  0.7818608E-02  0.8772398E-01
          4   -1    0    0  502    0  0.00000000000E+00  0.00000000000E+00  0.94281664816E+03  0.94281664816E+03  0.00000000000E+00 0.  1.
         -4   -1    0    0    0  501 -0.00000000000E+00 -0.00000000000E+00 -0.11144527940E+04  0.11144527940E+04  0.00000000000E+00 0. -1.
   -9000010    2    1    2    0  501 -0.17762328208E+03  0.92223692718E+02 -0.30178288749E+03  0.10673570442E+04  0.10040532400E+04 0.  0.
    9000010    2    1    2  502    0  0.17762328208E+03 -0.92223692718E+02  0.13014674161E+03  0.98991239799E+03  0.96069409361E+03 0.  0.
        -13    1    4    4    0    0 -0.36350065935E+03 -0.13126325435E+03 -0.10214294686E+03  0.39974487370E+03  0.10566000000E+00 0.  1.
          4    1    4    4  502    0  0.54112394142E+03  0.39039561635E+02  0.23228968848E+03  0.59016752429E+03  0.00000000000E+00 0.  1.
         13    1    3    3    0    0 -0.51663896939E+03  0.21002681054E+03  0.56102422733E+02  0.56051278204E+03  0.10566000000E+00 0. -1.
         -4    1    3    3    0  501  0.33901568731E+03 -0.11780311782E+03 -0.35788531022E+03  0.50684426216E+03  0.00000000000E+00 0. -1.
<mgrwt>
<rscale>  0 0.10023376E+04</rscale>
<asrwt>0</asrwt>
<pdfrwt beam="1">  1        4 0.14504872E+00 0.98131971E+03</pdfrwt>
<pdfrwt beam="2">  1       -4 0.17145428E+00 0.10238057E+04</pdfrwt>
<totfact> 0.35036063E-01</totfact>
</mgrwt>
</event>
<event>
 8    1  0.2939692E-006  0.1412180E+04  0.7818608E-02  0.8482101E-01
         -4   -1    0    0    0  501 -0.00000000000E+00  0.00000000000E+00  0.26877282830E+04  0.26877282830E+04  0.00000000000E+00 0. -1.
          4   -1    0    0  502    0  0.00000000000E+00 -0.00000000000E+00 -0.89693887391E+03  0.89693887391E+03  0.00000000000E+00 0.  1.
   -9000010    2    1    2    0  501  0.67743111081E+03  0.73422846754E+03  0.16995207346E+04  0.21695406909E+04  0.90583206470E+03 0.  0.
    9000010    2    1    2  502    0 -0.67743111081E+03 -0.73422846754E+03  0.91268674508E+02  0.14151264661E+04  0.99812253337E+03 0.  0.
        -13    1    4    4    0    0 -0.66496650336E+03 -0.82304481592E+02 -0.20248570753E+03  0.69996782155E+03  0.10566000000E+00 0.  1.
          4    1    4    4  502    0 -0.12464607450E+02 -0.65192398595E+03  0.29375438204E+03  0.71515864454E+03  0.00000000000E+00 0.  1.
         13    1    3    3    0    0  0.40383658177E+03 -0.43101522470E+02  0.18703813350E+03  0.44712973572E+03  0.10566000000E+00 0. -1.
         -4    1    3    3    0  501  0.27359452904E+03  0.77732999001E+03  0.15124826011E+04  0.17224109551E+04  0.00000000000E+00 0. -1.
<mgrwt>
<rscale>  0 0.13799887E+04</rscale>
<asrwt>0</asrwt>
<pdfrwt beam="2">  1        4 0.13799060E+00 0.14121802E+04</pdfrwt>
<pdfrwt beam="1">  1       -4 0.41349665E+00 0.13485311E+04</pdfrwt>
<totfact> 0.69509900E-02</totfact>
</mgrwt>
</event>
<event>
 8    1  0.2939692E-006  0.1311734E+04  0.7818608E-02  0.8528099E-01
         -4   -1    0    0    0  501 -0.00000000000E+00  0.00000000000E+00  0.26968287666E+04  0.26968287666E+04  0.00000000000E+00 0. -1.
          4   -1    0    0  502    0  0.00000000000E+00 -0.00000000000E+00 -0.28544055955E+04  0.28544055955E+04  0.00000000000E+00 0.  1.
   -9000010    2    1    2    0  501 -0.72143436695E+03 -0.45255740904E+03  0.23679828688E+04  0.27070260310E+04  0.99768297127E+03 0.  0.
    9000010    2    1    2  502    0  0.72143436695E+03  0.45255740904E+03 -0.25255596977E+04  0.28442083311E+04  0.99287133585E+03 0.  0.
        -13    1    4    4    0    0  0.92113946372E+03  0.51626863758E+03 -0.23274291948E+04  0.25557695291E+04  0.10566000000E+00 0.  1.
          4    1    4    4  502    0 -0.19970509676E+03 -0.63711228540E+02 -0.19813050289E+03  0.28843880199E+03  0.00000000000E+00 0.  1.
         13    1    3    3    0    0  0.70687960683E+02 -0.23593308749E+03  0.54689435136E+02  0.25229378716E+03  0.10566000000E+00 0. -1.
         -4    1    3    3    0  501 -0.79212232764E+03 -0.21662432155E+03  0.23132934337E+04  0.24547322438E+04  0.00000000000E+00 0. -1.
<mgrwt>
<rscale>  0 0.13099051E+04</rscale>
<asrwt>0</asrwt>
<pdfrwt beam="2">  1        4 0.43913932E+00 0.13080785E+04</pdfrwt>
<pdfrwt beam="1">  1       -4 0.41489673E+00 0.13117344E+04</pdfrwt>
<totfact> 0.71931330E-03</totfact>
</mgrwt>
</event>
<event>
 8    1  0.2939692E-006  0.1550074E+04  0.7818608E-02  0.8385617E-01
         -4   -1    0    0    0  501 -0.00000000000E+00  0.00000000000E+00  0.19797078937E+04  0.19797078937E+04  0.00000000000E+00 0. -1.
          4   -1    0    0  502    0  0.00000000000E+00 -0.00000000000E+00 -0.24738839794E+04  0.24738839794E+04  0.00000000000E+00 0.  1.
   -9000010    2    1    2    0  501  0.54946546765E+03 -0.10402153170E+04  0.13493261813E+04  0.20550936274E+04  0.10093406104E+04 0.  0.
    9000010    2    1    2  502    0 -0.54946546765E+03  0.10402153170E+04 -0.18435022670E+04  0.23984982457E+04  0.98505483118E+03 0.  0.
        -13    1    4    4    0    0 -0.38387347731E+03  0.54697915500E+03 -0.23567144895E+03  0.70858033108E+03  0.10566000000E+00 0.  1.
          4    1    4    4  502    0 -0.16559199034E+03  0.49323616204E+03 -0.16078308180E+04  0.16899179146E+04  0.00000000000E+00 0.  1.
         13    1    3    3    0    0  0.54611056976E+01  0.15894771046E+03  0.40381735333E+03  0.43400767776E+03  0.10566000000E+00 0. -1.
         -4    1    3    3    0  501  0.54400436196E+03 -0.11991630275E+04  0.94550882798E+03  0.16210859496E+04  0.00000000000E+00 0. -1.
<mgrwt>
<rscale>  0 0.15422022E+04</rscale>
<asrwt>0</asrwt>
<pdfrwt beam="2">  1        4 0.38059754E+00 0.15343706E+04</pdfrwt>
<pdfrwt beam="1">  1       -4 0.30457044E+00 0.15500738E+04</pdfrwt>
<totfact> 0.29348583E-02</totfact>
</mgrwt>
</event>
<event>
 8    1  0.2939692E-006  0.1075844E+04  0.7818608E-02  0.8722837E-01
          4   -1    0    0  502    0  0.00000000000E+00  0.00000000000E+00  0.13871892948E+04  0.13871892948E+04  0.00000000000E+00 0.  1.
         -4   -1    0    0    0  501 -0.00000000000E+00 -0.00000000000E+00 -0.11910703324E+04  0.11910703324E+04  0.00000000000E+00 0. -1.
   -9000010    2    1    2    0  501 -0.16686009156E+03 -0.30049607841E+03 -0.63640982747E+03  0.12179128227E+04  0.97987447764E+03 0.  0.
    9000010    2    1    2  502    0  0.16686009156E+03  0.30049607841E+03  0.83252878988E+03  0.13603468045E+04  0.10194601803E+04 0.  0.
        -13    1    4    4    0    0  0.10296979466E+03  0.65240125325E+03  0.31625793878E+03  0.73229042658E+03  0.10566000000E+00 0.  1.
          4    1    4    4  502    0  0.63890296897E+02 -0.35190517483E+03  0.51627085110E+03  0.62805637789E+03  0.00000000000E+00 0.  1.
         13    1    3    3    0    0  0.20378777114E+03 -0.22576841232E+03  0.15460186476E+03  0.34117822237E+03  0.10566000000E+00 0. -1.
         -4    1    3    3    0  501 -0.37064786269E+03 -0.74727666096E+02 -0.79101169223E+03  0.87673460035E+03  0.00000000000E+00 0. -1.
<mgrwt>
<rscale>  0 0.10569608E+04</rscale>
<asrwt>0</asrwt>
<pdfrwt beam="1">  1        4 0.21341374E+00 0.10758435E+04</pdfrwt>
<pdfrwt beam="2">  1       -4 0.18324159E+00 0.10384094E+04</pdfrwt>
<totfact> 0.18810713E-01</totfact>
</mgrwt>
</event>
<event>
 8    1  0.2939692E-006  0.1059790E+04  0.7818608E-02  0.8738517E-01
         -4   -1    0    0    0  501 -0.00000000000E+00  0.00000000000E+00  0.37617884694E+04  0.37617884694E+04  0.00000000000E+00 0. -1.
          4   -1    0    0  502    0  0.00000000000E+00 -0.00000000000E+00 -0.36103689139E+04  0.36103689139E+04  0.00000000000E+00 0.  1.
   -9000010    2    1    2    0  501 -0.94402741494E+01 -0.21766752135E+03  0.36121792161E+04  0.37644381255E+04  0.10371535294E+04 0.  0.
    9000010    2    1    2  502    0  0.94402741494E+01  0.21766752135E+03 -0.34607596605E+04  0.36077192577E+04  0.99564679794E+03 0.  0.
        -13    1    4    4    0    0 -0.59081141635E+02  0.59466935696E+03 -0.16009953050E+04  0.17088909278E+04  0.10566000000E+00 0.  1.
          4    1    4    4  502    0  0.68521415785E+02 -0.37700183561E+03 -0.18597643555E+04  0.18988283299E+04  0.00000000000E+00 0.  1.
         13    1    3    3    0    0  0.44569048602E+03 -0.36821832401E+03  0.20969663402E+04  0.21751994361E+04  0.10566000000E+00 0. -1.
         -4    1    3    3    0  501 -0.45513076017E+03  0.15055080266E+03  0.15152128758E+04  0.15892386895E+04  0.00000000000E+00 0. -1.
<mgrwt>
<rscale>  0 0.10393001E+04</rscale>
<asrwt>0</asrwt>
<pdfrwt beam="2">  1        4 0.55544137E+00 0.10192060E+04</pdfrwt>
<pdfrwt beam="1">  1       -4 0.57873669E+00 0.10597904E+04</pdfrwt>
<totfact> 0.34910355E-04</totfact>
</mgrwt>
</event>
<event>
 8    1  0.2939692E-006  0.1045129E+04  0.7818608E-02  0.8738093E-01
         -4   -1    0    0    0  501 -0.00000000000E+00  0.00000000000E+00  0.38252410698E+03  0.38252410698E+03  0.00000000000E+00 0. -1.
          4   -1    0    0  502    0  0.00000000000E+00 -0.00000000000E+00 -0.34828170306E+04  0.34828170306E+04  0.00000000000E+00 0.  1.
   -9000010    2    1    2    0  501  0.29946720397E+03  0.71369341918E+02 -0.70463950140E+03  0.12516370166E+04  0.98757491115E+03 0.  0.
    9000010    2    1    2  502    0 -0.29946720397E+03 -0.71369341918E+02 -0.23956534222E+04  0.26137041210E+04  0.99875909181E+03 0.  0.
        -13    1    4    4    0    0  0.10670014911E+03 -0.33461193406E+03 -0.18553963754E+04  0.18883447220E+04  0.10566000000E+00 0.  1.
          4    1    4    4  502    0 -0.40616735308E+03  0.26324259215E+03 -0.54025704688E+03  0.72535939901E+03  0.00000000000E+00 0.  1.
         13    1    3    3    0    0  0.44325689656E+03  0.95692849903E+02  0.73992800631E+02  0.45946571535E+03  0.10566000000E+00 0. -1.
         -4    1    3    3    0  501 -0.14378969259E+03 -0.24323507985E+02 -0.77863230203E+03  0.79217130123E+03  0.00000000000E+00 0. -1.
<mgrwt>
<rscale>  0 0.10397736E+04</rscale>
<asrwt>0</asrwt>
<pdfrwt beam="2">  1        4 0.53581802E+00 0.10451287E+04</pdfrwt>
<pdfrwt beam="1">  1       -4 0.58849861E-01 0.10344459E+04</pdfrwt>
<totfact> 0.10124167E-01</totfact>
</mgrwt>
</event>
<event>
 8    1  0.2939692E-006  0.1294061E+04  0.7818608E-02  0.8542793E-01
         -4   -1    0    0    0  501 -0.00000000000E+00  0.00000000000E+00  0.25040551435E+04  0.25040551435E+04  0.00000000000E+00 0. -1.
          4   -1    0    0  502    0  0.00000000000E+00 -0.00000000000E+00 -0.85785692167E+03  0.85785692167E+03  0.00000000000E+00 0.  1.
   -9000010    2    1    2    0  501  0.80716972039E+03 -0.14499691667E+03  0.16215478262E+04  0.20676159313E+04  0.98644372537E+03 0.  0.
    9000010    2    1    2  502    0 -0.80716972039E+03  0.14499691667E+03  0.24650395651E+02  0.12942961339E+04  0.10010233648E+04 0.  0.
        -13    1    4    4    0    0 -0.17895747694E+03  0.42117623086E+03  0.30825957929E+03  0.55176007049E+03  0.10566000000E+00 0.  1.
          4    1    4    4  502    0 -0.62821224345E+03 -0.27617931420E+03 -0.28360918364E+03  0.74253606340E+03  0.00000000000E+00 0.  1.
         13    1    3    3    0    0  0.28828489364E+03  0.40051339442E+03  0.89116421065E+03  0.10186720868E+04  0.10566000000E+00 0. -1.
         -4    1    3    3    0  501  0.51888482675E+03 -0.54551031109E+03  0.73038361554E+03  0.10489438444E+04  0.00000000000E+00 0. -1.
<mgrwt>
<rscale>  0 0.12884267E+04</rscale>
<asrwt>0</asrwt>
<pdfrwt beam="2">  1        4 0.13197799E+00 0.12940614E+04</pdfrwt>
<pdfrwt beam="1">  1       -4 0.38523925E+00 0.12828165E+04</pdfrwt>
<totfact> 0.97104722E-02</totfact>
</mgrwt>
</event>
<event>
 8    1  0.2939692E-006  0.1055425E+04  0.7818608E-02  0.8729148E-01
          4   -1    0    0  502    0  0.00000000000E+00  0.00000000000E+00  0.10371015902E+04  0.10371015902E+04  0.00000000000E+00 0.  1.
         -4   -1    0    0    0  501 -0.00000000000E+00 -0.00000000000E+00 -0.16643324705E+04  0.16643324705E+04  0.00000000000E+00 0. -1.
   -9000010    2    1    2    0  501  0.19430380957E+03  0.23980319064E+03 -0.11246375265E+04  0.15346711310E+04  0.99757023492E+03 0.  0.
    9000010    2    1    2  502    0 -0.19430380957E+03 -0.23980319064E+03  0.49740664615E+03  0.11667629297E+04  0.10092882749E+04 0.  0.
        -13    1    4    4    0    0 -0.46580023074E+03 -0.22637121360E+03 -0.84270055713E+02  0.52470490255E+03  0.10566000000E+00 0.  1.
          4    1    4    4  502    0  0.27149642117E+03 -0.13431977041E+02  0.58167670187E+03  0.64205802714E+03  0.00000000000E+00 0.  1.
         13    1    3    3    0    0  0.54740236521E+03  0.94196026467E+02 -0.31278338230E+03  0.63746034877E+03  0.10566000000E+00 0. -1.
         -4    1    3    3    0  501 -0.35309855565E+03  0.14560716418E+03 -0.81185414421E+03  0.89721078222E+03  0.00000000000E+00 0. -1.
<mgrwt>
<rscale>  0 0.10498102E+04</rscale>
<asrwt>0</asrwt>
<pdfrwt beam="1">  1        4 0.15955409E+00 0.10554252E+04</pdfrwt>
<pdfrwt beam="2">  1       -4 0.25605115E+00 0.10442250E+04</pdfrwt>
<totfact> 0.17949833E-01</totfact>
</mgrwt>
</event>
<event>
 8    1  0.2939692E-006  0.1674894E+04  0.7818608E-02  0.8318981E-01
         -4   -1    0    0    0  501 -0.00000000000E+00  0.00000000000E+00  0.16872294120E+04  0.16872294120E+04  0.00000000000E+00 0. -1.
          4   -1    0    0  502    0  0.00000000000E+00 -0.00000000000E+00 -0.28404586061E+04  0.28404586061E+04  0.00000000000E+00 0.  1.
   -9000010    2    1    2    0  501 -0.11076005873E+04 -0.73398803993E+03  0.88839555118E+03  0.18959211853E+04  0.10196827849E+04 0.  0.
    9000010    2    1    2  502    0  0.11076005873E+04  0.73398803993E+03 -0.20416247452E+04  0.26317668327E+04  0.99621662190E+03 0.  0.
        -13    1    4    4    0    0  0.99523140792E+03  0.12268011841E+03 -0.98333045280E+03  0.14044482039E+04  0.10566000000E+00 0.  1.
          4    1    4    4  502    0  0.11236917941E+03  0.61130792152E+03 -0.10582942924E+04  0.12273186289E+04  0.00000000000E+00 0.  1.
         13    1    3    3    0    0 -0.11401128429E+04 -0.42267176347E+03  0.98876243299E+03  0.15672140487E+04  0.10566000000E+00 0. -1.
         -4    1    3    3    0  501  0.32512255602E+02 -0.31131627645E+03 -0.10036688180E+03  0.32870713669E+03  0.00000000000E+00 0. -1.
<mgrwt>
<rscale>  0 0.16677881E+04</rscale>
<asrwt>0</asrwt>
<pdfrwt beam="2">  1        4 0.43699362E+00 0.16607122E+04</pdfrwt>
<pdfrwt beam="1">  1       -4 0.25957376E+00 0.16748942E+04</pdfrwt>
<totfact> 0.22241675E-02</totfact>
</mgrwt>
</event>
<event>
 8    1  0.2939692E-006  0.1058200E+04  0.7818608E-02  0.8722500E-01
         -4   -1    0    0    0  501 -0.00000000000E+00  0.00000000000E+00  0.20169006097E+04  0.20169006097E+04  0.00000000000E+00 0. -1.
          4   -1    0    0  502    0  0.00000000000E+00 -0.00000000000E+00 -0.16077648315E+04  0.16077648315E+04  0.00000000000E+00 0.  1.
   -9000010    2    1    2    0  501 -0.20008989341E+03  0.27014979671E+03  0.16715291393E+04  0.19774178458E+04  0.10015761555E+04 0.  0.
    9000010    2    1    2  502    0  0.20008989341E+03 -0.27014979671E+03 -0.12623933612E+04  0.16472475953E+04  0.10033796709E+04 0.  0.
        -13    1    4    4    0    0 -0.13743975772E+03  0.28819937778E+03 -0.75821415531E+03  0.82270121237E+03  0.10566000000E+00 0.  1.
          4    1    4    4  502    0  0.33752965114E+03 -0.55834917449E+03 -0.50417920587E+03  0.82454638297E+03  0.00000000000E+00 0.  1.
         13    1    3    3    0    0 -0.59168415834E+03  0.38840994915E+02  0.81843255107E+03  0.10106585071E+04  0.10566000000E+00 0. -1.
         -4    1    3    3    0  501  0.39159426493E+03  0.23130880180E+03  0.85309658828E+03  0.96675933874E+03  0.00000000000E+00 0. -1.
<mgrwt>
<rscale>  0 0.10573449E+04</rscale>
<asrwt>0</asrwt>
<pdfrwt beam="2">  1        4 0.24734844E+00 0.10582002E+04</pdfrwt>
<pdfrwt beam="1">  1       -4 0.31029240E+00 0.10564903E+04</pdfrwt>
<totfact> 0.73079728E-02</totfact>
</mgrwt>
</event>
<event>
 8    1  0.2939692E-006  0.1004212E+04  0.7818608E-02  0.8780662E-01
         -4   -1    0    0    0  501 -0.00000000000E+00  0.00000000000E+00  0.11326670169E+04  0.11326670169E+04  0.00000000000E+00 0. -1.
          4   -1    0    0  502    0  0.00000000000E+00 -0.00000000000E+00 -0.18701607413E+04  0.18701607413E+04  0.00000000000E+00 0.  1.
   -9000010    2    1    2    0  501  0.21938503999E+03  0.95619164691E+02  0.72647316429E+03  0.12394376854E+04  0.97527929188E+03 0.  0.
    9000010    2    1    2  502    0 -0.21938503999E+03 -0.95619164691E+02 -0.14639668887E+04  0.17633900728E+04  0.95345302826E+03 0.  0.
        -13    1    4    4    0    0 -0.77032347166E+02 -0.26665899542E+03 -0.15107172785E+04  0.15360038116E+04  0.10566000000E+00 0.  1.
          4    1    4    4  502    0 -0.14235269283E+03  0.17103983073E+03  0.46750389792E+02  0.22738626123E+03  0.00000000000E+00 0.  1.
         13    1    3    3    0    0 -0.12383409272E+02  0.34434182446E+02 -0.24046329372E+03  0.24323171778E+03  0.10566000000E+00 0. -1.
         -4    1    3    3    0  501  0.23176844926E+03  0.61184982245E+02  0.96693645801E+03  0.99620596763E+03  0.00000000000E+00 0. -1.
<mgrwt>
<rscale>  0 0.99356411E+03</rscale>
<asrwt>0</asrwt>
<pdfrwt beam="2">  1        4 0.28771704E+00 0.98302874E+03</pdfrwt>
<pdfrwt beam="1">  1       -4 0.17425646E+00 0.10042124E+04</pdfrwt>
<totfact> 0.13377631E-01</totfact>
</mgrwt>
</event>
<event>
 8    1  0.2939692E-006  0.1088880E+04  0.7818608E-02  0.8803359E-01
         -4   -1    0    0    0  501 -0.00000000000E+00  0.00000000000E+00  0.11086517232E+04  0.11086517232E+04  0.00000000000E+00 0. -1.
          4   -1    0    0  502    0  0.00000000000E+00 -0.00000000000E+00 -0.15592711110E+04  0.15592711110E+04  0.00000000000E+00 0.  1.
   -9000010    2    1    2    0  501  0.64041283289E+02  0.42022645855E+03  0.67905172929E+03  0.10989051692E+04  0.75218997435E+03 0.  0.
    9000010    2    1    2  502    0 -0.64041283289E+02 -0.42022645855E+03 -0.11296711171E+04  0.15690176649E+04  0.10024809413E+04 0.  0.
        -13    1    4    4    0    0  0.45384248364E+03 -0.31451065207E+03 -0.48121784816E+03  0.73243469249E+03  0.10566000000E+00 0.  1.
          4    1    4    4  502    0 -0.51788376693E+03 -0.10571580648E+03 -0.64845326894E+03  0.83658297245E+03  0.00000000000E+00 0.  1.
         13    1    3    3    0    0 -0.31251308744E+03  0.55245937722E+02  0.38046736393E+03  0.49545127877E+03  0.10566000000E+00 0. -1.
         -4    1    3    3    0  501  0.37655437073E+03  0.36498052083E+03  0.29858436536E+03  0.60345389048E+03  0.00000000000E+00 0. -1.
<mgrwt>
<rscale>  0 0.96993971E+03</rscale>
<asrwt>0</asrwt>
<pdfrwt beam="2">  1        4 0.23988786E+00 0.10888800E+04</pdfrwt>
<pdfrwt beam="1">  1       -4 0.17056180E+00 0.86399150E+03</pdfrwt>
<totfact> 0.17884542E-01</totfact>
</mgrwt>
</event>
<event>
 8    1  0.2939692E-006  0.1128946E+04  0.7818608E-02  0.8693699E-01
         -4   -1    0    0    0  501 -0.00000000000E+00  0.00000000000E+00  0.13630671786E+04  0.13630671786E+04  0.00000000000E+00 0. -1.
          4   -1    0    0  502    0  0.00000000000E+00 -0.00000000000E+00 -0.20336946024E+04  0.20336946024E+04  0.00000000000E+00 0.  1.
   -9000010    2    1    2    0  501  0.16802614190E+03  0.27128881207E+03  0.94198464836E+03  0.14703243154E+04  0.10829072494E+04 0.  0.
    9000010    2    1    2  502    0 -0.16802614190E+03 -0.27128881207E+03 -0.16126120722E+04  0.19264374656E+04  0.10043969382E+04 0.  0.
        -13    1    4    4    0    0 -0.31999140729E+03 -0.19574320450E+02 -0.16003572057E+04  0.16321522146E+04  0.10566000000E+00 0.  1.
          4    1    4    4  502    0  0.15196526539E+03 -0.25171449162E+03 -0.12254866517E+02  0.29428525095E+03  0.00000000000E+00 0.  1.
         13    1    3    3    0    0  0.53577143662E+03 -0.62818309969E+01  0.84331773096E+03  0.99913727796E+03  0.10566000000E+00 0. -1.
         -4    1    3    3    0  501 -0.36774529472E+03  0.27757064307E+03  0.98666917404E+02  0.47118703746E+03  0.00000000000E+00 0. -1.
<mgrwt>
<rscale>  0 0.10907625E+04</rscale>
<asrwt>0</asrwt>
<pdfrwt beam="2">  1        4 0.31287609E+00 0.10538708E+04</pdfrwt>
<pdfrwt beam="1">  1       -4 0.20970264E+00 0.11289458E+04</pdfrwt>
<totfact> 0.88863670E-02</totfact>
</mgrwt>
</event>
<event>
 8    1  0.2939692E-006  0.1132988E+04  0.7818608E-02  0.8661577E-01
          4   -1    0    0  502    0  0.00000000000E+00  0.00000000000E+00  0.20349941633E+04  0.20349941633E+04  0.00000000000E+00 0.  1.
         -4   -1    0    0    0  501 -0.00000000000E+00 -0.00000000000E+00 -0.79142333656E+03  0.79142333656E+03  0.00000000000E+00 0. -1.
   -9000010    2    1    2    0  501  0.44561576438E+03 -0.27682452292E+03 -0.23859734742E+02  0.11264049546E+04  0.99650068180E+03 0.  0.
    9000010    2    1    2  502    0 -0.44561576438E+03  0.27682452292E+03  0.12674305615E+04  0.17000125453E+04  0.10042196970E+04 0.  0.
        -13    1    4    4    0    0 -0.49003416248E+03  0.69069446213E+02  0.13753851570E+04  0.14617073613E+04  0.10566000000E+00 0.  1.
          4    1    4    4  502    0  0.44418398105E+02  0.20775507671E+03 -0.10795459555E+03  0.23830518393E+03  0.00000000000E+00 0.  1.
         13    1    3    3    0    0 -0.88701149875E+02 -0.82839236156E+02  0.39956660540E+03  0.41759276377E+03  0.10566000000E+00 0. -1.
         -4    1    3    3    0  501  0.53431691425E+03 -0.19398528676E+03 -0.42342634014E+03  0.70881219082E+03  0.00000000000E+00 0. -1.
<mgrwt>
<rscale>  0 0.11295651E+04</rscale>
<asrwt>0</asrwt>
<pdfrwt beam="1">  1        4 0.31307602E+00 0.11329883E+04</pdfrwt>
<pdfrwt beam="2">  1       -4 0.12175744E+00 0.11261522E+04</pdfrwt>
<totfact> 0.19370238E-01</totfact>
</mgrwt>
</event>
<event>
 8    1  0.2939692E-006  0.1089203E+04  0.7818608E-02  0.8695378E-01
          4   -1    0    0  502    0  0.00000000000E+00  0.00000000000E+00  0.34689252171E+03  0.34689252171E+03  0.00000000000E+00 0.  1.
         -4   -1    0    0    0  501 -0.00000000000E+00 -0.00000000000E+00 -0.37182957002E+04  0.37182957002E+04  0.00000000000E+00 0. -1.
   -9000010    2    1    2    0  501  0.42707560022E+03  0.33798395327E+02 -0.22646002551E+04  0.25129219736E+04  0.10014123177E+04 0.  0.
    9000010    2    1    2  502    0 -0.42707560022E+03 -0.33798395327E+02 -0.11068029234E+04  0.15522662483E+04  0.10004908269E+04 0.  0.
        -13    1    4    4    0    0 -0.67445082576E+03 -0.19647092907E+03 -0.45661800504E+03  0.83784530555E+03  0.10566000000E+00 0.  1.
          4    1    4    4  502    0  0.24737522554E+03  0.16267253374E+03 -0.65018491832E+03  0.71442094276E+03  0.00000000000E+00 0.  1.
         13    1    3    3    0    0 -0.53820558894E+02  0.44476401731E+03 -0.78649336930E+03  0.90514281457E+03  0.10566000000E+00 0. -1.
         -4    1    3    3    0  501  0.48089615911E+03 -0.41096562198E+03 -0.14781068858E+04  0.16077791590E+04  0.00000000000E+00 0. -1.
<mgrwt>
<rscale>  0 0.10887790E+04</rscale>
<asrwt>0</asrwt>
<pdfrwt beam="1">  1        4 0.53368078E-01 0.10883555E+04</pdfrwt>
<pdfrwt beam="2">  1       -4 0.57204552E+00 0.10892027E+04</pdfrwt>
<totfact> 0.79587695E-02</totfact>
</mgrwt>
</event>
<event>
 8    1  0.2939692E-006  0.1396512E+04  0.7818608E-02  0.8474661E-01
         -4   -1    0    0    0  501 -0.00000000000E+00  0.00000000000E+00  0.19977232214E+04  0.19977232214E+04  0.00000000000E+00 0. -1.
          4   -1    0    0  502    0  0.00000000000E+00 -0.00000000000E+00 -0.97055579426E+03  0.97055579426E+03  0.00000000000E+00 0.  1.
   -9000010    2    1    2    0  501 -0.76076301662E+02  0.94912318102E+03  0.46853105493E+03  0.14730128632E+04  0.10215787436E+04 0.  0.
    9000010    2    1    2  502    0  0.76076301662E+02 -0.94912318102E+03  0.55863637220E+03  0.14952661524E+04  0.10085255841E+04 0.  0.
        -13    1    4    4    0    0  0.19663457573E+03 -0.94375987201E+03  0.78204563230E+03  0.12413473465E+04  0.10566000000E+00 0.  1.
          4    1    4    4  502    0 -0.12055827407E+03 -0.53633090136E+01 -0.22340926010E+03  0.25391880598E+03  0.00000000000E+00 0.  1.
         13    1    3    3    0    0 -0.34157139742E+03 -0.63492582614E+02  0.15327784588E+03  0.37973205920E+03  0.10566000000E+00 0. -1.
         -4    1    3    3    0  501  0.26549509576E+03  0.10126157636E+04  0.31525320905E+03  0.10932808040E+04  0.00000000000E+00 0. -1.
<mgrwt>
<rscale>  0 0.13917437E+04</rscale>
<asrwt>0</asrwt>
<pdfrwt beam="2">  1        4 0.14931628E+00 0.13869918E+04</pdfrwt>
<pdfrwt beam="1">  1       -4 0.30734203E+00 0.13965119E+04</pdfrwt>
<totfact> 0.14375229E-01</totfact>
</mgrwt>
</event>
<event>
 8    1  0.2939692E-006  0.1227544E+04  0.7818608E-02  0.8609061E-01
          4   -1    0    0  502    0  0.00000000000E+00  0.00000000000E+00  0.32571903734E+04  0.32571903734E+04  0.00000000000E+00 0.  1.
         -4   -1    0    0    0  501 -0.00000000000E+00 -0.00000000000E+00 -0.95347586217E+03  0.95347586217E+03  0.00000000000E+00 0. -1.
   -9000010    2    1    2    0  501  0.46434490574E+03 -0.45858046408E+03 -0.40651120238E+03  0.12354036977E+04  0.96698433547E+03 0.  0.
    9000010    2    1    2  502    0 -0.46434490574E+03  0.45858046408E+03  0.27102257136E+04  0.29752625379E+04  0.10396881826E+04 0.  0.
        -13    1    4    4    0    0 -0.75325451903E+03  0.37296617967E+03  0.23993470064E+04  0.25423143413E+04  0.10566000000E+00 0.  1.
          4    1    4    4  502    0  0.28890961328E+03  0.85614284414E+02  0.31087870718E+03  0.43294819658E+03  0.00000000000E+00 0.  1.
         13    1    3    3    0    0  0.12545642463E+03 -0.16862876896E+03 -0.68032908315E+03  0.71205522872E+03  0.10566000000E+00 0. -1.
         -4    1    3    3    0  501  0.33888848112E+03 -0.28995169512E+03  0.27381788077E+03  0.52334846896E+03  0.00000000000E+00 0. -1.
<mgrwt>
<rscale>  0 0.11966874E+04</rscale>
<asrwt>0</asrwt>
<pdfrwt beam="1">  1        4 0.50110621E+00 0.12275438E+04</pdfrwt>
<pdfrwt beam="2">  1       -4 0.14668860E+00 0.11666066E+04</pdfrwt>
<totfact> 0.25385820E-02</totfact>
</mgrwt>
</event>
<event>
 8    1  0.2939692E-006  0.1385609E+04  0.7818608E-02  0.8482169E-01
          4   -1    0    0  502    0  0.00000000000E+00  0.00000000000E+00  0.34706447549E+04  0.34706447549E+04  0.00000000000E+00 0.  1.
         -4   -1    0    0    0  501 -0.00000000000E+00 -0.00000000000E+00 -0.14504963300E+04  0.14504963300E+04  0.00000000000E+00 0. -1.
   -9000010    2    1    2    0  501  0.56759277145E+03  0.78294801925E+03 -0.93170951816E+03  0.16602549802E+04  0.97631696597E+03 0.  0.
    9000010    2    1    2  502    0 -0.56759277145E+03 -0.78294801925E+03  0.29518579431E+04  0.32608861046E+04  0.99234253983E+03 0.  0.
        -13    1    4    4    0    0 -0.76241304890E+02 -0.84532305595E+03  0.14579170472E+04  0.16869813079E+04  0.10566000000E+00 0.  1.
          4    1    4    4  502    0 -0.49135146656E+03  0.62375036703E+02  0.14939408958E+04  0.15739047967E+04  0.00000000000E+00 0.  1.
         13    1    3    3    0    0 -0.11052663449E+03  0.66372477215E+03 -0.34759657883E+03  0.75734411127E+03  0.10566000000E+00 0. -1.
         -4    1    3    3    0  501  0.67811940595E+03  0.11922324710E+03 -0.58411293932E+03  0.90291086894E+03  0.00000000000E+00 0. -1.
<mgrwt>
<rscale>  0 0.13798815E+04</rscale>
<asrwt>0</asrwt>
<pdfrwt beam="1">  1        4 0.53394535E+00 0.13856092E+04</pdfrwt>
<pdfrwt beam="2">  1       -4 0.22315328E+00 0.13741776E+04</pdfrwt>
<totfact> 0.98629546E-03</totfact>
</mgrwt>
</event>
<event>
 8    1  0.2939692E-006  0.1114262E+04  0.7818608E-02  0.8675927E-01
          4   -1    0    0  502    0  0.00000000000E+00  0.00000000000E+00  0.18274901098E+04  0.18274901098E+04  0.00000000000E+00 0.  1.
         -4   -1    0    0    0  501 -0.00000000000E+00 -0.00000000000E+00 -0.25411878801E+04  0.25411878801E+04  0.00000000000E+00 0. -1.
   -9000010    2    1    2    0  501  0.17424947932E+03  0.45067451899E+03 -0.22277050806E+04  0.24888380222E+04  0.99908676866E+03 0.  0.
    9000010    2    1    2  502    0 -0.17424947932E+03 -0.45067451899E+03  0.15140073104E+04  0.18798399677E+04  0.10040466948E+04 0.  0.
        -13    1    4    4    0    0 -0.45251374017E+03 -0.49340948529E+03  0.14411061694E+04  0.15890275668E+04  0.10566000000E+00 0.  1.
          4    1    4    4  502    0  0.27826426085E+03  0.42734966296E+02  0.72901140959E+02  0.29081240098E+03  0.00000000000E+00 0.  1.
         13    1    3    3    0    0 -0.38625772940E+03  0.26371469149E+03 -0.13673638630E+04  0.14451382000E+04  0.10566000000E+00 0. -1.
         -4    1    3    3    0  501  0.56050720872E+03  0.18695982750E+03 -0.86034121760E+03  0.10436998222E+04  0.00000000000E+00 0. -1.
<mgrwt>
<rscale>  0 0.11120263E+04</rscale>
<asrwt>0</asrwt>
<pdfrwt beam="1">  1        4 0.28115233E+00 0.11142622E+04</pdfrwt>
<pdfrwt beam="2">  1       -4 0.39095198E+00 0.11097949E+04</pdfrwt>
<totfact> 0.32614134E-02</totfact>
</mgrwt>
</event>
<event>
 8    1  0.2939692E-006  0.1172039E+04  0.7818608E-02  0.8644124E-01
         -4   -1    0    0    0  501 -0.00000000000E+00  0.00000000000E+00  0.13867242370E+04  0.13867242370E+04  0.00000000000E+00 0. -1.
          4   -1    0    0  502    0  0.00000000000E+00 -0.00000000000E+00 -0.11031065610E+04  0.11031065610E+04  0.00000000000E+00 0.  1.
   -9000010    2    1    2    0  501 -0.22046510439E+03 -0.46709174789E+03  0.59381561954E+03  0.12774370396E+04  0.10062051664E+04 0.  0.
    9000010    2    1    2  502    0  0.22046510439E+03  0.46709174789E+03 -0.31019794351E+03  0.12123937583E+04  0.10520913924E+04 0.  0.
        -13    1    4    4    0    0 -0.25663392989E+03  0.48405951138E+03  0.12991936662E+03  0.56307516152E+03  0.10566000000E+00 0.  1.
          4    1    4    4  502    0  0.47709903428E+03 -0.16967763489E+02 -0.44011731013E+03  0.64931859683E+03  0.00000000000E+00 0.  1.
         13    1    3    3    0    0  0.36164227084E+03 -0.28486837135E+03  0.46436681812E+03  0.65388964970E+03  0.10566000000E+00 0. -1.
         -4    1    3    3    0  501 -0.58210737522E+03 -0.18222337654E+03  0.12944880142E+03  0.62354738989E+03  0.00000000000E+00 0. -1.
<mgrwt>
<rscale>  0 0.11513519E+04</rscale>
<asrwt>0</asrwt>
<pdfrwt beam="2">  1        4 0.16970870E+00 0.11720392E+04</pdfrwt>
<pdfrwt beam="1">  1       -4 0.21334219E+00 0.11310298E+04</pdfrwt>
<totfact> 0.20876281E-01</totfact>
</mgrwt>
</event>
<event>
 8    1  0.2939692E-006  0.1297979E+04  0.7818608E-02  0.8542154E-01
         -4   -1    0    0    0  501 -0.00000000000E+00  0.00000000000E+00  0.27246441876E+04  0.27246441876E+04  0.00000000000E+00 0. -1.
          4   -1    0    0  502    0  0.00000000000E+00 -0.00000000000E+00 -0.90339068404E+03  0.90339068404E+03  0.00000000000E+00 0.  1.
   -9000010    2    1    2    0  501 -0.40066977817E+03 -0.69605679724E+03  0.19481885356E+04  0.23409803791E+04  0.10196662341E+04 0.  0.
    9000010    2    1    2  502    0  0.40066977817E+03  0.69605679724E+03 -0.12693503208E+03  0.12870544925E+04  0.99768002294E+03 0.  0.
        -13    1    4    4    0    0  0.21963135743E+03  0.64994989244E+03 -0.51401259786E+03  0.85725244693E+03  0.10566000000E+00 0.  1.
          4    1    4    4  502    0  0.18103842075E+03  0.46106904809E+02  0.38707756577E+03  0.42980204558E+03  0.00000000000E+00 0.  1.
         13    1    3    3    0    0 -0.51250642252E+03 -0.88464149910E+03  0.12826522151E+04  0.16402591658E+04  0.10566000000E+00 0. -1.
         -4    1    3    3    0  501  0.11183664435E+03  0.18858470186E+03  0.66553632053E+03  0.70072121328E+03  0.00000000000E+00 0. -1.
<mgrwt>
<rscale>  0 0.12893509E+04</rscale>
<asrwt>0</asrwt>
<pdfrwt beam="2">  1        4 0.13898318E+00 0.12807797E+04</pdfrwt>
<pdfrwt beam="1">  1       -4 0.41917603E+00 0.12979794E+04</pdfrwt>
<totfact> 0.65352172E-02</totfact>
</mgrwt>
</event>
<event>
 8    1  0.2939692E-006  0.1061650E+04  0.7818608E-02  0.8730185E-01
         -4   -1    0    0    0  501 -0.00000000000E+00  0.00000000000E+00  0.21901331049E+04  0.21901331049E+04  0.00000000000E+00 0. -1.
          4   -1    0    0  502    0  0.00000000000E+00 -0.00000000000E+00 -0.11195623247E+04  0.11195623247E+04  0.00000000000E+00 0.  1.
   -9000010    2    1    2    0  501  0.28312910076E+03 -0.47810347592E+02  0.17671001758E+04  0.20614906099E+04  0.10220824754E+04 0.  0.
    9000010    2    1    2  502    0 -0.28312910076E+03  0.47810347592E+02 -0.69652939562E+03  0.12482048197E+04  0.99519553650E+03 0.  0.
        -13    1    4    4    0    0  0.34045977393E+03 -0.11263942256E+03 -0.10455880793E+03  0.37354123288E+03  0.10566000000E+00 0.  1.
          4    1    4    4  502    0 -0.62358887469E+03  0.16044977015E+03 -0.59197058769E+03  0.87466358680E+03  0.00000000000E+00 0.  1.
         13    1    3    3    0    0  0.54502383970E+03  0.28743621701E+03  0.12354835123E+04  0.13806122139E+04  0.10566000000E+00 0. -1.
         -4    1    3    3    0  501 -0.26189473894E+03 -0.33524656460E+03  0.53161666345E+03  0.68087839606E+03  0.00000000000E+00 0. -1.
<mgrwt>
<rscale>  0 0.10486405E+04</rscale>
<asrwt>0</asrwt>
<pdfrwt beam="2">  1        4 0.17224036E+00 0.10357906E+04</pdfrwt>
<pdfrwt beam="1">  1       -4 0.33694355E+00 0.10616499E+04</pdfrwt>
<totfact> 0.98856655E-02</totfact>
</mgrwt>
</event>
<event>
 8    1  0.2939692E-006  0.1137145E+04  0.7818608E-02  0.8656779E-01
          4   -1    0    0  502    0  0.00000000000E+00  0.00000000000E+00  0.87311318514E+03  0.87311318514E+03  0.00000000000E+00 0.  1.
         -4   -1    0    0    0  501 -0.00000000000E+00 -0.00000000000E+00 -0.21417566077E+04  0.21417566077E+04  0.00000000000E+00 0. -1.
   -9000010    2    1    2    0  501  0.43703764673E+03 -0.32503746193E+03 -0.14749260122E+04  0.18623921109E+04  0.99822160708E+03 0.  0.
    9000010    2    1    2  502    0 -0.43703764673E+03  0.32503746193E+03  0.20628258963E+03  0.11524776820E+04  0.99448531631E+03 0.  0.
        -13    1    4    4    0    0  0.10256395031E+03  0.17830902200E+03  0.48562353127E+03  0.52739330345E+03  0.10566000000E+00 0.  1.
          4    1    4    4  502    0 -0.53960159703E+03  0.14672843993E+03 -0.27934094164E+03  0.62508437853E+03  0.00000000000E+00 0.  1.
         13    1    3    3    0    0 -0.29368793265E+03 -0.64194630096E+02 -0.71823781385E+03  0.77861358884E+03  0.10566000000E+00 0. -1.
         -4    1    3    3    0  501  0.73072557938E+03 -0.26084283183E+03 -0.75668819834E+03  0.10837785220E+04  0.00000000000E+00 0. -1.
<mgrwt>
<rscale>  0 0.11355041E+04</rscale>
<asrwt>0</asrwt>
<pdfrwt beam="1">  1        4 0.13432511E+00 0.11338661E+04</pdfrwt>
<pdfrwt beam="2">  1       -4 0.32950101E+00 0.11371445E+04</pdfrwt>
<totfact> 0.14831827E-01</totfact>
</mgrwt>
</event>
<event>
 8    1  0.2939692E-006  0.1298931E+04  0.7818608E-02  0.8543164E-01
         -4   -1    0    0    0  501 -0.00000000000E+00  0.00000000000E+00  0.12114495017E+04  0.12114495017E+04  0.00000000000E+00 0. -1.
          4   -1    0    0  502    0  0.00000000000E+00 -0.00000000000E+00 -0.25945843442E+04  0.25945843442E+04  0.00000000000E+00 0.  1.
   -9000010    2    1    2    0  501  0.48398956735E+03 -0.63122728130E+03  0.61307532792E+03  0.14363437843E+04  0.10269022968E+04 0.  0.
    9000010    2    1    2  502    0 -0.48398956735E+03  0.63122728130E+03 -0.19962101704E+04  0.23696900615E+04  0.99894051936E+03 0.  0.
        -13    1    4    4    0    0 -0.29785743621E+03  0.61176802930E+03 -0.45816610711E+03  0.82030199735E+03  0.10566000000E+00 0.  1.
          4    1    4    4  502    0 -0.18613213113E+03  0.19459252004E+02 -0.15380440633E+04  0.15493880642E+04  0.00000000000E+00 0.  1.
         13    1    3    3    0    0 -0.14131033622E+03  0.46719066880E+01  0.52091360300E+03  0.53976053096E+03  0.10566000000E+00 0. -1.
         -4    1    3    3    0  501  0.62529990356E+03 -0.63589918799E+03  0.92161724927E+02  0.89658325337E+03  0.00000000000E+00 0. -1.
<mgrwt>
<rscale>  0 0.12878887E+04</rscale>
<asrwt>0</asrwt>
<pdfrwt beam="2">  1        4 0.39916682E+00 0.12769401E+04</pdfrwt>
<pdfrwt beam="1">  1       -4 0.18637685E+00 0.12989311E+04</pdfrwt>
<totfact> 0.51838024E-02</totfact>
</mgrwt>
</event>
<event>
 8    1  0.2939692E-006  0.1073504E+04  0.7818608E-02  0.8726710E-01
          4   -1    0    0  502    0  0.00000000000E+00  0.00000000000E+00  0.20088362375E+04  0.20088362375E+04  0.00000000000E+00 0.  1.
         -4   -1    0    0    0  501 -0.00000000000E+00 -0.00000000000E+00 -0.10405393913E+04  0.10405393913E+04  0.00000000000E+00 0. -1.
   -9000010    2    1    2    0  501  0.26944600290E+03 -0.12233630421E+03 -0.55570660790E+03  0.12088098979E+04  0.10319128913E+04 0.  0.
    9000010    2    1    2  502    0 -0.26944600290E+03  0.12233630421E+03  0.15240034541E+04  0.18405657309E+04  0.98870033980E+03 0.  0.
        -13    1    4    4    0    0 -0.54674455547E+03  0.35926293887E+03  0.11132603564E+04  0.12912583399E+04  0.10566000000E+00 0.  1.
          4    1    4    4  502    0  0.27729855258E+03 -0.23692663466E+03  0.41074309775E+03  0.54930739101E+03  0.00000000000E+00 0.  1.
         13    1    3    3    0    0  0.63276277299E+02 -0.48159622179E+03  0.35395963983E+02  0.48702329877E+03  0.10566000000E+00 0. -1.
         -4    1    3    3    0  501  0.20616972560E+03  0.35925991759E+03 -0.59110257189E+03  0.72178659909E+03  0.00000000000E+00 0. -1.
<mgrwt>
<rscale>  0 0.10525653E+04</rscale>
<asrwt>0</asrwt>
<pdfrwt beam="1">  1        4 0.30905173E+00 0.10320347E+04</pdfrwt>
<pdfrwt beam="2">  1       -4 0.16008298E+00 0.10735043E+04</pdfrwt>
<totfact> 0.13130805E-01</totfact>
</mgrwt>
</event>
<event>
 8    1  0.2939692E-006  0.1215158E+04  0.7818608E-02  0.8603818E-01
         -4   -1    0    0    0  501 -0.00000000000E+00  0.00000000000E+00  0.10744837958E+04  0.10744837958E+04  0.00000000000E+00 0. -1.
          4   -1    0    0  502    0  0.00000000000E+00 -0.00000000000E+00 -0.23424268002E+04  0.23424268002E+04  0.00000000000E+00 0.  1.
   -9000010    2    1    2    0  501  0.32211450464E+03  0.56774748085E+03  0.48236789787E+03  0.12861369485E+04  0.99768457209E+03 0.  0.
    9000010    2    1    2  502    0 -0.32211450464E+03 -0.56774748085E+03 -0.17503109023E+04  0.21307736474E+04  0.10249454258E+04 0.  0.
        -13    1    4    4    0    0  0.47868861271E+01  0.28898557069E+03 -0.31458393102E+03  0.42719858985E+03  0.10566000000E+00 0.  1.
          4    1    4    4  502    0 -0.32690139076E+03 -0.85673305154E+03 -0.14357269712E+04  0.17035750576E+04  0.00000000000E+00 0.  1.
         13    1    3    3    0    0  0.47350261472E+03  0.77644922039E+03  0.47991581013E+03  0.10282982612E+04  0.10566000000E+00 0. -1.
         -4    1    3    3    0  501 -0.15138811008E+03 -0.20870173954E+03  0.24520877383E+01  0.25783868735E+03  0.00000000000E+00 0. -1.
<mgrwt>
<rscale>  0 0.12036513E+04</rscale>
<asrwt>0</asrwt>
<pdfrwt beam="2">  1        4 0.36037336E+00 0.12151576E+04</pdfrwt>
<pdfrwt beam="1">  1       -4 0.16530520E+00 0.11922539E+04</pdfrwt>
<totfact> 0.86377213E-02</totfact>
</mgrwt>
</event>
<event>
 8    1  0.2939692E-006  0.1132484E+04  0.7818608E-02  0.8741389E-01
          4   -1    0    0  502    0  0.00000000000E+00  0.00000000000E+00  0.15253479918E+04  0.15253479918E+04  0.00000000000E+00 0.  1.
         -4   -1    0    0    0  501 -0.00000000000E+00 -0.00000000000E+00 -0.17370342168E+04  0.17370342168E+04  0.00000000000E+00 0. -1.
   -9000010    2    1    2    0  501 -0.51004115343E+03 -0.13148276895E+03 -0.13546550164E+04  0.16533770803E+04  0.78812172881E+03 0.  0.
    9000010    2    1    2  502    0  0.51004115343E+03  0.13148276895E+03  0.11429687914E+04  0.16090051283E+04  0.10025418434E+04 0.  0.
        -13    1    4    4    0    0  0.15290752304E+03  0.44699997048E+03  0.13070299682E+03  0.49017646695E+03  0.10566000000E+00 0.  1.
          4    1    4    4  502    0  0.35713363038E+03 -0.31551720153E+03  0.10122657946E+04  0.11188286613E+04  0.00000000000E+00 0.  1.
         13    1    3    3    0    0 -0.60117357941E+03 -0.35812154055E+03 -0.93579820426E+03  0.11684943306E+04  0.10566000000E+00 0. -1.
         -4    1    3    3    0  501  0.91132425988E+02  0.22663877160E+03 -0.41885681216E+03  0.48488274970E+03  0.00000000000E+00 0. -1.
<mgrwt>
<rscale>  0 0.10361043E+04</rscale>
<asrwt>0</asrwt>
<pdfrwt beam="1">  1        4 0.23466892E+00 0.11324839E+04</pdfrwt>
<pdfrwt beam="2">  1       -4 0.26723603E+00 0.94792698E+03</pdfrwt>
<totfact> 0.10158967E-01</totfact>
</mgrwt>
</event>
<event>
 8    1  0.2939692E-006  0.1473161E+04  0.7818608E-02  0.8443018E-01
          4   -1    0    0  502    0  0.00000000000E+00  0.00000000000E+00  0.26861502635E+04  0.26861502635E+04  0.00000000000E+00 0.  1.
         -4   -1    0    0    0  501 -0.00000000000E+00 -0.00000000000E+00 -0.11027222318E+04  0.11027222318E+04  0.00000000000E+00 0. -1.
   -9000010    2    1    2    0  501  0.12725601651E+03 -0.10662897453E+04 -0.22844333836E+03  0.14907683145E+04  0.10084819751E+04 0.  0.
    9000010    2    1    2  502    0 -0.12725601651E+03  0.10662897453E+04  0.18118713701E+04  0.22981041808E+04  0.91936774425E+03 0.  0.
        -13    1    4    4    0    0 -0.12352033526E+03  0.55362281729E+02 -0.76991787316E+02  0.15572412125E+03  0.10566000000E+00 0.  1.
          4    1    4    4  502    0 -0.37356812460E+01  0.10109274636E+04  0.18888631574E+04  0.21423800595E+04  0.00000000000E+00 0.  1.
         13    1    3    3    0    0  0.46442852953E+03 -0.78613415970E+03  0.13286343249E+03  0.92268818078E+03  0.10566000000E+00 0. -1.
         -4    1    3    3    0  501 -0.33717251302E+03 -0.28015558559E+03 -0.36130677085E+03  0.56808013373E+03  0.00000000000E+00 0. -1.
<mgrwt>
<rscale>  0 0.14430986E+04</rscale>
<asrwt>0</asrwt>
<pdfrwt beam="1">  1        4 0.41325388E+00 0.14136495E+04</pdfrwt>
<pdfrwt beam="2">  1       -4 0.16964958E+00 0.14731612E+04</pdfrwt>
<totfact> 0.51194269E-02</totfact>
</mgrwt>
</event>
<event>
 8    1  0.2939692E-006  0.1082620E+04  0.7818608E-02  0.8715022E-01
         -4   -1    0    0    0  501 -0.00000000000E+00  0.00000000000E+00  0.25411772977E+04  0.25411772977E+04  0.00000000000E+00 0. -1.
          4   -1    0    0  502    0  0.00000000000E+00 -0.00000000000E+00 -0.88509775474E+03  0.88509775474E+03  0.00000000000E+00 0.  1.
   -9000010    2    1    2    0  501  0.52869863196E+02 -0.34046998305E+03  0.20394647266E+04  0.23090002822E+04  0.10263288460E+04 0.  0.
    9000010    2    1    2  502    0 -0.52869863196E+02  0.34046998305E+03 -0.38338518371E+03  0.11172747702E+04  0.99126367901E+03 0.  0.
        -13    1    4    4    0    0  0.16856310379E+03  0.48182498589E+03 -0.59209286115E+03  0.78175623078E+03  0.10566000000E+00 0.  1.
          4    1    4    4  502    0 -0.22143296698E+03 -0.14135500284E+03  0.20870767744E+03  0.33551853945E+03  0.00000000000E+00 0.  1.
         13    1    3    3    0    0 -0.31308131063E+03 -0.42231160178E+03  0.17721568287E+04  0.18484877150E+04  0.10566000000E+00 0. -1.
         -4    1    3    3    0  501  0.36595117383E+03  0.81841618734E+02  0.26730789796E+03  0.46051256714E+03  0.00000000000E+00 0. -1.
<mgrwt>
<rscale>  0 0.10658995E+04</rscale>
<asrwt>0</asrwt>
<pdfrwt beam="2">  1        4 0.13616889E+00 0.10494373E+04</pdfrwt>
<pdfrwt beam="1">  1       -4 0.39095035E+00 0.10826199E+04</pdfrwt>
<totfact> 0.89272660E-02</totfact>
</mgrwt>
</event>
<event>
 8    1  0.2939692E-006  0.1324218E+04  0.7818608E-02  0.8520692E-01
         -4   -1    0    0    0  501 -0.00000000000E+00  0.00000000000E+00  0.53613591199E+03  0.53613591199E+03  0.00000000000E+00 0. -1.
          4   -1    0    0  502    0  0.00000000000E+00 -0.00000000000E+00 -0.33271366789E+04  0.33271366789E+04  0.00000000000E+00 0.  1.
   -9000010    2    1    2    0  501  0.85336476835E+03 -0.72839628398E+02 -0.11063824366E+04  0.17204959484E+04  0.10012428143E+04 0.  0.
    9000010    2    1    2  502    0 -0.85336476835E+03  0.72839628398E+02 -0.16846183304E+04  0.21427766426E+04  0.10099583068E+04 0.  0.
        -13    1    4    4    0    0 -0.13521326139E+03 -0.28771281252E+03 -0.11106869302E+04  0.11552864392E+04  0.10566000000E+00 0.  1.
          4    1    4    4  502    0 -0.71815150696E+03  0.36055244092E+03 -0.57393140021E+03  0.98749020336E+03  0.00000000000E+00 0.  1.
         13    1    3    3    0    0 -0.11923248018E+03 -0.80809744810E+02  0.96657035283E+02  0.17346236716E+03  0.10566000000E+00 0. -1.
         -4    1    3    3    0  501  0.97259724853E+03  0.79701164125E+01 -0.12030394718E+04  0.15470335812E+04  0.00000000000E+00 0. -1.
<mgrwt>
<rscale>  0 0.13208961E+04</rscale>
<asrwt>0</asrwt>
<pdfrwt beam="2">  1        4 0.51186719E+00 0.13242178E+04</pdfrwt>
<pdfrwt beam="1">  1       -4 0.82482446E-01 0.13175827E+04</pdfrwt>
<totfact> 0.63019500E-02</totfact>
</mgrwt>
</event>
<event>
 8    1  0.2939692E-006  0.1112930E+04  0.7818608E-02  0.8677524E-01
          4   -1    0    0  502    0  0.00000000000E+00  0.00000000000E+00  0.30715243418E+04  0.30715243418E+04  0.00000000000E+00 0.  1.
         -4   -1    0    0    0  501 -0.00000000000E+00 -0.00000000000E+00 -0.46359685517E+03  0.46359685517E+03  0.00000000000E+00 0. -1.
   -9000010    2    1    2    0  501 -0.19015648057E+03 -0.43424334277E+03  0.65266411672E+03  0.12853062924E+04  0.10006573080E+04 0.  0.
    9000010    2    1    2  502    0  0.19015648057E+03  0.43424334277E+03  0.19552633699E+04  0.22498149046E+04  0.10069188108E+04 0.  0.
        -13    1    4    4    0    0  0.44452951491E+03  0.10735885169E+03  0.17063741580E+04  0.17665914047E+04  0.10566000000E+00 0.  1.
          4    1    4    4  502    0 -0.25437303434E+03  0.32688449107E+03  0.24888921185E+03  0.48322349992E+03  0.00000000000E+00 0.  1.
         13    1    3    3    0    0  0.70820685737E+02 -0.19434130956E+03  0.85327639632E+03  0.87798902830E+03  0.10566000000E+00 0. -1.
         -4    1    3    3    0  501 -0.26097716631E+03 -0.23990203321E+03 -0.20061227960E+03  0.40731726406E+03  0.00000000000E+00 0. -1.
<mgrwt>
<rscale>  0 0.11100950E+04</rscale>
<asrwt>0</asrwt>
<pdfrwt beam="1">  1        4 0.47254219E+00 0.11129296E+04</pdfrwt>
<pdfrwt beam="2">  1       -4 0.71322595E-01 0.11072677E+04</pdfrwt>
<totfact> 0.13188959E-01</totfact>
</mgrwt>
</event>
<event>
 8    1  0.2939692E-006  0.1806371E+04  0.7818608E-02  0.8252452E-01
          4   -1    0    0  502    0  0.00000000000E+00  0.00000000000E+00  0.41899420058E+04  0.41899420058E+04  0.00000000000E+00 0.  1.
         -4   -1    0    0    0  501 -0.00000000000E+00 -0.00000000000E+00 -0.22484247120E+04  0.22484247120E+04  0.00000000000E+00 0. -1.
   -9000010    2    1    2    0  501 -0.15027521123E+04 -0.11655172746E+02 -0.16325388321E+04  0.24337629071E+04  0.99980952966E+03 0.  0.
    9000010    2    1    2  502    0  0.15027521123E+04  0.11655172746E+02  0.35740561260E+04  0.40046038106E+04  0.10022847573E+04 0.  0.
        -13    1    4    4    0    0  0.44387281397E+03 -0.37305320803E+02  0.23975448010E+03  0.50586261360E+03  0.10566000000E+00 0.  1.
          4    1    4    4  502    0  0.10588792983E+04  0.48960493549E+02  0.33343016459E+04  0.34987411970E+04  0.00000000000E+00 0.  1.
         13    1    3    3    0    0 -0.14200284536E+03 -0.12534049507E+03 -0.82691865548E+03  0.84833337889E+03  0.10566000000E+00 0. -1.
         -4    1    3    3    0  501 -0.13607492669E+04  0.11368532232E+03 -0.80562017665E+03  0.15854295282E+04  0.00000000000E+00 0. -1.
<mgrwt>
<rscale>  0 0.18056843E+04</rscale>
<asrwt>0</asrwt>
<pdfrwt beam="1">  1        4 0.64460646E+00 0.18063705E+04</pdfrwt>
<pdfrwt beam="2">  1       -4 0.34591149E+00 0.18049983E+04</pdfrwt>
<totfact> 0.11275679E-03</totfact>
</mgrwt>
</event>
<event>
 8    1  0.2939692E-006  0.1322239E+04  0.7818608E-02  0.8521551E-01
          4   -1    0    0  502    0  0.00000000000E+00  0.00000000000E+00  0.35077198989E+04  0.35077198989E+04  0.00000000000E+00 0.  1.
         -4   -1    0    0    0  501 -0.00000000000E+00 -0.00000000000E+00 -0.14805262574E+04  0.14805262574E+04  0.00000000000E+00 0. -1.
   -9000010    2    1    2    0  501 -0.69605346743E+03 -0.49486341768E+03 -0.10204876649E+04  0.16660964739E+04  0.10025478316E+04 0.  0.
    9000010    2    1    2  502    0  0.69605346743E+03  0.49486341768E+03  0.30476813064E+04  0.33221496823E+04  0.10094240608E+04 0.  0.
        -13    1    4    4    0    0  0.76653474089E+02  0.49122556843E+03  0.22907613872E+04  0.23440917343E+04  0.10566000000E+00 0.  1.
          4    1    4    4  502    0  0.61939999334E+03  0.36378492553E+01  0.75691991914E+03  0.97805794802E+03  0.00000000000E+00 0.  1.
         13    1    3    3    0    0  0.61586206062E+02 -0.54291101609E+03 -0.53666357160E+03  0.76586750317E+03  0.10566000000E+00 0. -1.
         -4    1    3    3    0  501 -0.75763967349E+03  0.48047598406E+02 -0.48382409329E+03  0.90022897077E+03  0.00000000000E+00 0. -1.
<mgrwt>
<rscale>  0 0.13196159E+04</rscale>
<asrwt>0</asrwt>
<pdfrwt beam="1">  1        4 0.53964921E+00 0.13222395E+04</pdfrwt>
<pdfrwt beam="2">  1       -4 0.22777327E+00 0.13169975E+04</pdfrwt>
<totfact> 0.90856315E-03</totfact>
</mgrwt>
</event>
<event>
 8    1  0.2939692E-006  0.1281799E+04  0.7818608E-02  0.8555283E-01
         -4   -1    0    0    0  501 -0.00000000000E+00  0.00000000000E+00  0.16115183966E+04  0.16115183966E+04  0.00000000000E+00 0. -1.
          4   -1    0    0  502    0  0.00000000000E+00 -0.00000000000E+00 -0.22217903336E+04  0.22217903336E+04  0.00000000000E+00 0.  1.
   -9000010    2    1    2    0  501  0.46267473750E+03  0.58364266992E+03  0.11163679472E+04  0.16828915240E+04  0.10154505449E+04 0.  0.
    9000010    2    1    2  502    0 -0.46267473750E+03 -0.58364266992E+03 -0.17266398843E+04  0.21504172062E+04  0.10432172315E+04 0.  0.
        -13    1    4    4    0    0 -0.41522346106E+02 -0.77636324541E+03 -0.80614732764E+03  0.11199721064E+04  0.10566000000E+00 0.  1.
          4    1    4    4  502    0 -0.42115239139E+03  0.19272057549E+03 -0.92049255661E+03  0.10304450998E+04  0.00000000000E+00 0.  1.
         13    1    3    3    0    0  0.30833143331E+02 -0.88335026661E+02  0.82859419952E+03  0.83385977137E+03  0.10566000000E+00 0. -1.
         -4    1    3    3    0  501  0.43184159417E+03  0.67197769658E+03  0.28777374768E+03  0.84903175265E+03  0.00000000000E+00 0. -1.
<mgrwt>
<rscale>  0 0.12705017E+04</rscale>
<asrwt>0</asrwt>
<pdfrwt beam="2">  1        4 0.34181390E+00 0.12817991E+04</pdfrwt>
<pdfrwt beam="1">  1       -4 0.24792591E+00 0.12593040E+04</pdfrwt>
<totfact> 0.57927811E-02</totfact>
</mgrwt>
</event>
<event>
 8    1  0.2939692E-006  0.1188282E+04  0.7818608E-02  0.8628497E-01
          4   -1    0    0  502    0  0.00000000000E+00  0.00000000000E+00  0.12522373604E+04  0.12522373604E+04  0.00000000000E+00 0.  1.
         -4   -1    0    0    0  501 -0.00000000000E+00 -0.00000000000E+00 -0.11843786182E+04  0.11843786182E+04  0.00000000000E+00 0. -1.
   -9000010    2    1    2    0  501 -0.14966537330E+03 -0.59021571450E+03 -0.29874324476E+03  0.12252597596E+04  0.10204213045E+04 0.  0.
    9000010    2    1    2  502    0  0.14966537330E+03  0.59021571450E+03  0.36660198690E+03  0.12113562190E+04  0.98093453345E+03 0.  0.
        -13    1    4    4    0    0 -0.19884646441E+03  0.49564425350E+03  0.58279122046E+03  0.79047375684E+03  0.10566000000E+00 0.  1.
          4    1    4    4  502    0  0.34851183771E+03  0.94571460999E+02 -0.21618923355E+03  0.42088246217E+03  0.00000000000E+00 0.  1.
         13    1    3    3    0    0 -0.36387035314E+03 -0.70180515276E+03 -0.47860481575E+03  0.92411832963E+03  0.10566000000E+00 0. -1.
         -4    1    3    3    0  501  0.21420497984E+03  0.11158943825E+03  0.17986157100E+03  0.30114142996E+03  0.00000000000E+00 0. -1.
<mgrwt>
<rscale>  0 0.11712948E+04</rscale>
<asrwt>0</asrwt>
<pdfrwt beam="1">  1        4 0.19265190E+00 0.11545505E+04</pdfrwt>
<pdfrwt beam="2">  1       -4 0.18221209E+00 0.11882819E+04</pdfrwt>
<totfact> 0.21556756E-01</totfact>
</mgrwt>
</event>
<event>
 8    1  0.2939692E-006  0.1294952E+04  0.7818608E-02  0.8538579E-01
          4   -1    0    0  502    0  0.00000000000E+00  0.00000000000E+00  0.10784892850E+04  0.10784892850E+04  0.00000000000E+00 0.  1.
         -4   -1    0    0    0  501 -0.00000000000E+00 -0.00000000000E+00 -0.18636614726E+04  0.18636614726E+04  0.00000000000E+00 0. -1.
   -9000010    2    1    2    0  501  0.27644900721E+03 -0.77428724430E+03 -0.99245398306E+03  0.16315224110E+04  0.10004777253E+04 0.  0.
    9000010    2    1    2  502    0 -0.27644900721E+03  0.77428724430E+03  0.20728179547E+03  0.13106283467E+04  0.99941789560E+03 0.  0.
        -13    1    4    4    0    0 -0.89185582867E+02  0.37185594120E+03 -0.40329153521E+03  0.55576522267E+03  0.10566000000E+00 0.  1.
          4    1    4    4  502    0 -0.18726342434E+03  0.40243130310E+03  0.61057333068E+03  0.75486312398E+03  0.00000000000E+00 0.  1.
         13    1    3    3    0    0  0.48169591861E+02  0.35653188428E+02 -0.75471195786E+03  0.75708758405E+03  0.10566000000E+00 0. -1.
         -4    1    3    3    0  501  0.22827941535E+03 -0.80994043273E+03 -0.23774202521E+03  0.87443482695E+03  0.00000000000E+00 0. -1.
<mgrwt>
<rscale>  0 0.12945425E+04</rscale>
<asrwt>0</asrwt>
<pdfrwt beam="1">  1        4 0.16592143E+00 0.12941333E+04</pdfrwt>
<pdfrwt beam="2">  1       -4 0.28671715E+00 0.12949519E+04</pdfrwt>
<totfact> 0.14132079E-01</totfact>
</mgrwt>
</event>
<event>
 8    1  0.2939692E-006  0.1060435E+04  0.7818608E-02  0.8720356E-01
          4   -1    0    0  502    0  0.00000000000E+00  0.00000000000E+00  0.25662035397E+04  0.25662035397E+04  0.00000000000E+00 0.  1.
         -4   -1    0    0    0  501 -0.00000000000E+00 -0.00000000000E+00 -0.73015138049E+03  0.73015138049E+03  0.00000000000E+00 0. -1.
   -9000010    2    1    2    0  501  0.20893741390E+03 -0.26182856251E+03 -0.12545679413E+03  0.10665479193E+04  0.10047766010E+04 0.  0.
    9000010    2    1    2  502    0 -0.20893741390E+03  0.26182856251E+03  0.19615089533E+04  0.22298070008E+04  0.10061375890E+04 0.  0.
        -13    1    4    4    0    0 -0.84447646551E+02 -0.26582552542E+03  0.14757601867E+04  0.15018863988E+04  0.10566000000E+00 0.  1.
          4    1    4    4  502    0 -0.12448976735E+03  0.52765408793E+03  0.48574876662E+03  0.72792060210E+03  0.00000000000E+00 0.  1.
         13    1    3    3    0    0 -0.16526924806E+03  0.28740329375E+03  0.12782911639E+03  0.35532361556E+03  0.10566000000E+00 0. -1.
         -4    1    3    3    0  501  0.37420666196E+03 -0.54923185626E+03 -0.25328591053E+03  0.71122430376E+03  0.00000000000E+00 0. -1.
<mgrwt>
<rscale>  0 0.10597890E+04</rscale>
<asrwt>0</asrwt>
<pdfrwt beam="1">  1        4 0.39480054E+00 0.10604348E+04</pdfrwt>
<pdfrwt beam="2">  1       -4 0.11233098E+00 0.10591435E+04</pdfrwt>
<totfact> 0.11885714E-01</totfact>
</mgrwt>
</event>
<event>
 8    1  0.2939692E-006  0.1312610E+04  0.7818608E-02  0.8526273E-01
          4   -1    0    0  502    0  0.00000000000E+00  0.00000000000E+00  0.76774655959E+03  0.76774655959E+03  0.00000000000E+00 0.  1.
         -4   -1    0    0    0  501 -0.00000000000E+00 -0.00000000000E+00 -0.24628500021E+04  0.24628500021E+04  0.00000000000E+00 0. -1.
   -9000010    2    1    2    0  501  0.75514222756E+03  0.39451760486E+03 -0.13289075935E+04  0.18678628496E+04  0.99851505168E+03 0.  0.
    9000010    2    1    2  502    0 -0.75514222756E+03 -0.39451760486E+03 -0.36619584901E+03  0.13627337121E+04  0.99852884078E+03 0.  0.
        -13    1    4    4    0    0 -0.80642360694E+03 -0.21883652731E+03  0.11913919156E+03  0.84403946451E+03  0.10566000000E+00 0.  1.
          4    1    4    4  502    0  0.51281379376E+02 -0.17568107755E+03 -0.48533504058E+03  0.51869424760E+03  0.00000000000E+00 0.  1.
         13    1    3    3    0    0  0.78533506813E+03  0.66717921797E+03 -0.96187515662E+03  0.14096393532E+04  0.10566000000E+00 0. -1.
         -4    1    3    3    0  501 -0.30192840567E+02 -0.27266161311E+03 -0.36703243690E+03  0.45822349636E+03  0.00000000000E+00 0. -1.
<mgrwt>
<rscale>  0 0.13126043E+04</rscale>
<asrwt>0</asrwt>
<pdfrwt beam="1">  1        4 0.11811485E+00 0.13126095E+04</pdfrwt>
<pdfrwt beam="2">  1       -4 0.37890000E+00 0.13125990E+04</pdfrwt>
<totfact> 0.12306882E-01</totfact>
</mgrwt>
</event>
<event>
 8    1  0.2939692E-006  0.1227317E+04  0.7818608E-02  0.8588794E-01
         -4   -1    0    0    0  501 -0.00000000000E+00  0.00000000000E+00  0.31710623358E+04  0.31710623358E+04  0.00000000000E+00 0. -1.
          4   -1    0    0  502    0  0.00000000000E+00 -0.00000000000E+00 -0.14997742314E+04  0.14997742314E+04  0.00000000000E+00 0.  1.
   -9000010    2    1    2    0  501  0.62957129911E+03 -0.30262994160E+03  0.27693445097E+04  0.30291212736E+04  0.10091391255E+04 0.  0.
    9000010    2    1    2  502    0 -0.62957129911E+03  0.30262994160E+03 -0.10980564053E+04  0.16417152937E+04  0.10007778646E+04 0.  0.
        -13    1    4    4    0    0 -0.14719634116E+03  0.59517514372E+03 -0.35400175384E+03  0.70796713726E+03  0.10566000000E+00 0.  1.
          4    1    4    4  502    0 -0.48237495795E+03 -0.29254520212E+03 -0.74405465144E+03  0.93374815644E+03  0.00000000000E+00 0.  1.
         13    1    3    3    0    0  0.54161794114E+03 -0.64432840072E+03  0.22403126001E+04  0.23932216026E+04  0.10566000000E+00 0. -1.
         -4    1    3    3    0  501  0.87953357972E+02  0.34169845912E+03  0.52903190958E+03  0.63589967094E+03  0.00000000000E+00 0. -1.
<mgrwt>
<rscale>  0 0.12238792E+04</rscale>
<asrwt>0</asrwt>
<pdfrwt beam="2">  1        4 0.23073450E+00 0.12204512E+04</pdfrwt>
<pdfrwt beam="1">  1       -4 0.48785574E+00 0.12273169E+04</pdfrwt>
<totfact> 0.15792360E-02</totfact>
</mgrwt>
</event>
<event>
 8    1  0.2939692E-006  0.1141012E+04  0.7818608E-02  0.8694791E-01
          4   -1    0    0  502    0  0.00000000000E+00  0.00000000000E+00  0.25329535773E+04  0.25329535773E+04  0.00000000000E+00 0.  1.
         -4   -1    0    0    0  501 -0.00000000000E+00 -0.00000000000E+00 -0.68374075986E+03  0.68374075986E+03  0.00000000000E+00 0. -1.
   -9000010    2    1    2    0  501  0.26500087132E+03 -0.16759806402E+03  0.54521203877E+02  0.11423133729E+04  0.10970837285E+04 0.  0.
    9000010    2    1    2  502    0 -0.26500087132E+03  0.16759806402E+03  0.17946916135E+04  0.20743809642E+04  0.99187893622E+03 0.  0.
        -13    1    4    4    0    0 -0.13100924415E+03  0.43001923137E+03  0.27628304260E+03  0.52764788656E+03  0.10566000000E+00 0.  1.
          4    1    4    4  502    0 -0.13399162717E+03 -0.26242116734E+03  0.15184085709E+04  0.15467330776E+04  0.00000000000E+00 0.  1.
         13    1    3    3    0    0  0.29647704539E+03 -0.51052505485E+03 -0.28777000351E+03  0.65676940866E+03  0.10566000000E+00 0. -1.
         -4    1    3    3    0  501 -0.31476174064E+02  0.34292699083E+03  0.34229120738E+03  0.48554396425E+03  0.00000000000E+00 0. -1.
<mgrwt>
<rscale>  0 0.10894711E+04</rscale>
<asrwt>0</asrwt>
<pdfrwt beam="1">  1        4 0.38968516E+00 0.10402588E+04</pdfrwt>
<pdfrwt beam="2">  1       -4 0.10519089E+00 0.11410115E+04</pdfrwt>
<totfact> 0.14051605E-01</totfact>
</mgrwt>
</event>
<event>
 8    1  0.2939692E-006  0.1022332E+04  0.7818608E-02  0.8761528E-01
         -4   -1    0    0    0  501 -0.00000000000E+00  0.00000000000E+00  0.24083900673E+04  0.24083900673E+04  0.00000000000E+00 0. -1.
          4   -1    0    0  502    0  0.00000000000E+00 -0.00000000000E+00 -0.93766677916E+03  0.93766677916E+03  0.00000000000E+00 0.  1.
   -9000010    2    1    2    0  501  0.57049211938E+02 -0.18005495088E+03  0.19673088145E+04  0.22095010371E+04  0.98788484317E+03 0.  0.
    9000010    2    1    2  502    0 -0.57049211938E+02  0.18005495088E+03 -0.49658552641E+03  0.11365558093E+04  0.10047325638E+04 0.  0.
        -13    1    4    4    0    0  0.19626420802E+03  0.44891889025E+03 -0.57858911483E+03  0.75816435179E+03  0.10566000000E+00 0.  1.
          4    1    4    4  502    0 -0.25331341995E+03 -0.26886393936E+03  0.82003588419E+02  0.37839145753E+03  0.00000000000E+00 0.  1.
         13    1    3    3    0    0  0.26863603874E+03 -0.38402306424E+03  0.40383473021E+03  0.61864491889E+03  0.10566000000E+00 0. -1.
         -4    1    3    3    0  501 -0.21158682681E+03  0.20396811336E+03  0.15634740843E+04  0.15908561182E+04  0.00000000000E+00 0. -1.
<mgrwt>
<rscale>  0 0.10140214E+04</rscale>
<asrwt>0</asrwt>
<pdfrwt beam="2">  1        4 0.14425643E+00 0.10223316E+04</pdfrwt>
<pdfrwt beam="1">  1       -4 0.37052155E+00 0.10057787E+04</pdfrwt>
<totfact> 0.98323473E-02</totfact>
</mgrwt>
</event>
<event>
 8    1  0.2939692E-006  0.1331399E+04  0.7818608E-02  0.8522277E-01
          4   -1    0    0  502    0  0.00000000000E+00  0.00000000000E+00  0.82042481918E+03  0.82042481918E+03  0.00000000000E+00 0.  1.
         -4   -1    0    0    0  501 -0.00000000000E+00 -0.00000000000E+00 -0.21413728100E+04  0.21413728100E+04  0.00000000000E+00 0. -1.
   -9000010    2    1    2    0  501 -0.49900155462E+03  0.64439737039E+03 -0.80459655328E+03  0.15337770061E+04  0.10202184905E+04 0.  0.
    9000010    2    1    2  502    0  0.49900155462E+03 -0.64439737039E+03 -0.51635143751E+03  0.14280206231E+04  0.10527932230E+04 0.  0.
        -13    1    4    4    0    0 -0.10370821592E+03 -0.12529583630E+01  0.24325984037E+03  0.26444720655E+03  0.10566000000E+00 0.  1.
          4    1    4    4  502    0  0.60270977053E+03 -0.64314441203E+03 -0.75961127788E+03  0.11635734165E+04  0.00000000000E+00 0.  1.
         13    1    3    3    0    0 -0.80450648129E+03  0.39540091415E+03 -0.66310901641E+03  0.11150274168E+04  0.10566000000E+00 0. -1.
         -4    1    3    3    0  501  0.30550492667E+03  0.24899645624E+03 -0.14148753688E+03  0.41874958929E+03  0.00000000000E+00 0. -1.
<mgrwt>
<rscale>  0 0.13185342E+04</rscale>
<asrwt>0</asrwt>
<pdfrwt beam="1">  1        4 0.12621921E+00 0.13313993E+04</pdfrwt>
<pdfrwt beam="2">  1       -4 0.32944197E+00 0.13057934E+04</pdfrwt>
<totfact> 0.16241357E-01</totfact>
</mgrwt>
</event>
<event>
 8    1  0.2939692E-006  0.1388823E+04  0.7818608E-02  0.8485589E-01
          4   -1    0    0  502    0  0.00000000000E+00  0.00000000000E+00  0.86033215781E+03  0.86033215781E+03  0.00000000000E+00 0.  1.
         -4   -1    0    0    0  501 -0.00000000000E+00 -0.00000000000E+00 -0.23205792110E+04  0.23205792110E+04  0.00000000000E+00 0. -1.
   -9000010    2    1    2    0  501  0.13552667381E+03 -0.93578152520E+03 -0.10910910341E+04  0.17438641779E+04  0.97802253751E+03 0.  0.
    9000010    2    1    2  502    0 -0.13552667381E+03  0.93578152520E+03 -0.36915601903E+03  0.14370471909E+04  0.10172383793E+04 0.  0.
        -13    1    4    4    0    0  0.30491237182E+02  0.72320134505E+03 -0.70219846105E+03  0.10084803374E+04  0.10566000000E+00 0.  1.
          4    1    4    4  502    0 -0.16601791099E+03  0.21258018015E+03  0.33304244202E+03  0.42856685354E+03  0.00000000000E+00 0.  1.
         13    1    3    3    0    0 -0.40194879725E+03 -0.31222180843E+03 -0.59386534358E+03  0.78212617315E+03  0.10566000000E+00 0. -1.
         -4    1    3    3    0  501  0.53747547106E+03 -0.62355971677E+03 -0.49722569057E+03  0.96173800473E+03  0.00000000000E+00 0. -1.
<mgrwt>
<rscale>  0 0.13745183E+04</rscale>
<asrwt>0</asrwt>
<pdfrwt beam="1">  1        4 0.13235880E+00 0.13888227E+04</pdfrwt>
<pdfrwt beam="2">  1       -4 0.35701218E+00 0.13603612E+04</pdfrwt>
<totfact> 0.12240788E-01</totfact>
</mgrwt>
</event>
<event>
 8    1  0.2939692E-006  0.1601850E+04  0.7818608E-02  0.8356328E-01
          4   -1    0    0  502    0  0.00000000000E+00  0.00000000000E+00  0.23470777439E+04  0.23470777439E+04  0.00000000000E+00 0.  1.
         -4   -1    0    0    0  501 -0.00000000000E+00 -0.00000000000E+00 -0.15206467502E+04  0.15206467502E+04  0.00000000000E+00 0. -1.
   -9000010    2    1    2    0  501 -0.11423878067E+04  0.47903832545E+03 -0.62271226460E+03  0.17076458506E+04  0.99687319577E+03 0.  0.
    9000010    2    1    2  502    0  0.11423878067E+04 -0.47903832545E+03  0.14491432583E+04  0.21600786435E+04  0.10155766563E+04 0.  0.
        -13    1    4    4    0    0  0.37515068807E+02 -0.57564262026E+02  0.81567202224E+03  0.81856086131E+03  0.10566000000E+00 0.  1.
          4    1    4    4  502    0  0.11048727378E+04 -0.42147406342E+03  0.63347123610E+03  0.13415177822E+04  0.00000000000E+00 0.  1.
         13    1    3    3    0    0 -0.10976738531E+04  0.48383783529E+03 -0.12294762032E+03  0.12058619602E+04  0.10566000000E+00 0. -1.
         -4    1    3    3    0  501 -0.44713953570E+02 -0.47995098393E+01 -0.49976464428E+03  0.50178389035E+03  0.00000000000E+00 0. -1.
<mgrwt>
<rscale>  0 0.15959430E+04</rscale>
<asrwt>0</asrwt>
<pdfrwt beam="1">  1        4 0.36108888E+00 0.16018500E+04</pdfrwt>
<pdfrwt beam="2">  1       -4 0.23394565E+00 0.15900578E+04</pdfrwt>
<totfact> 0.52200190E-02</totfact>
</mgrwt>
</event>
<event>
 8    1  0.2939692E-006  0.1297144E+04  0.7818608E-02  0.8537094E-01
         -4   -1    0    0    0  501 -0.00000000000E+00  0.00000000000E+00  0.22650472867E+04  0.22650472867E+04  0.00000000000E+00 0. -1.
          4   -1    0    0  502    0  0.00000000000E+00 -0.00000000000E+00 -0.17328560382E+04  0.17328560382E+04  0.00000000000E+00 0.  1.
   -9000010    2    1    2    0  501 -0.60297725342E+03 -0.56923333802E+03  0.17773572232E+04  0.21998431513E+04  0.99634483506E+03 0.  0.
    9000010    2    1    2  502    0  0.60297725342E+03  0.56923333802E+03 -0.12451659748E+04  0.17980601736E+04  0.99748379527E+03 0.  0.
        -13    1    4    4    0    0  0.76218587171E+03  0.20556773692E+03 -0.44842403925E+03  0.90789290538E+03  0.10566000000E+00 0.  1.
          4    1    4    4  502    0 -0.15920861829E+03  0.36366560110E+03 -0.79674193552E+03  0.89016726820E+03  0.00000000000E+00 0.  1.
         13    1    3    3    0    0 -0.72322670082E+01 -0.64115541404E+03  0.12325169275E+04  0.13893273762E+04  0.10566000000E+00 0. -1.
         -4    1    3    3    0  501 -0.59574498642E+03  0.71922076016E+02  0.54484029569E+03  0.81051577508E+03  0.00000000000E+00 0. -1.
<mgrwt>
<rscale>  0 0.12967059E+04</rscale>
<asrwt>0</asrwt>
<pdfrwt beam="2">  1        4 0.26659324E+00 0.12971438E+04</pdfrwt>
<pdfrwt beam="1">  1       -4 0.34846881E+00 0.12962682E+04</pdfrwt>
<totfact> 0.49644667E-02</totfact>
</mgrwt>
</event>
<event>
 8    1  0.2939692E-006  0.9975906E+03  0.7818608E-02  0.8787997E-01
          4   -1    0    0  502    0  0.00000000000E+00  0.00000000000E+00  0.25037422140E+04  0.25037422140E+04  0.00000000000E+00 0.  1.
         -4   -1    0    0    0  501 -0.00000000000E+00 -0.00000000000E+00 -0.21988797794E+04  0.21988797794E+04  0.00000000000E+00 0. -1.
   -9000010    2    1    2    0  501  0.58108915708E+02 -0.78981110388E+02 -0.19808863737E+04  0.22179039124E+04  0.99275992931E+03 0.  0.
    9000010    2    1    2  502    0 -0.58108915708E+02  0.78981110388E+02  0.22857488083E+04  0.24847180810E+04  0.96930989121E+03 0.  0.
        -13    1    4    4    0    0 -0.21728870882E+03 -0.24402667642E+03  0.19958693044E+04  0.20224385512E+04  0.10566000000E+00 0.  1.
          4    1    4    4  502    0  0.15917979312E+03  0.32300778681E+03  0.28987950391E+03  0.46227952979E+03  0.00000000000E+00 0.  1.
         13    1    3    3    0    0 -0.10649411079E+03 -0.49193918400E+03 -0.13909635508E+04  0.14792311405E+04  0.10566000000E+00 0. -1.
         -4    1    3    3    0  501  0.16460302650E+03  0.41295807361E+03 -0.58992282300E+03  0.73867277193E+03  0.00000000000E+00 0. -1.
<mgrwt>
<rscale>  0 0.98585466E+03</rscale>
<asrwt>0</asrwt>
<pdfrwt beam="1">  1        4 0.38519111E+00 0.97425681E+03</pdfrwt>
<pdfrwt beam="2">  1       -4 0.33828920E+00 0.99759057E+03</pdfrwt>
<totfact> 0.24398448E-02</totfact>
</mgrwt>
</event>
<event>
 8    1  0.2939692E-006  0.1160708E+04  0.7818608E-02  0.8639986E-01
         -4   -1    0    0    0  501 -0.00000000000E+00  0.00000000000E+00  0.13225549070E+04  0.13225549070E+04  0.00000000000E+00 0. -1.
          4   -1    0    0  502    0  0.00000000000E+00 -0.00000000000E+00 -0.15787432100E+04  0.15787432100E+04  0.00000000000E+00 0.  1.
   -9000010    2    1    2    0  501  0.54962918426E+03 -0.18587375960E+03  0.74176133000E+03  0.13705641646E+04  0.99578861404E+03 0.  0.
    9000010    2    1    2  502    0 -0.54962918426E+03  0.18587375960E+03 -0.99794963304E+03  0.15307339524E+04  0.10052868587E+04 0.  0.
        -13    1    4    4    0    0 -0.15335535392E+03 -0.40574833990E+03 -0.49942762037E+03  0.66149643919E+03  0.10566000000E+00 0.  1.
          4    1    4    4  502    0 -0.39627383034E+03  0.59162209951E+03 -0.49852201268E+03  0.86923751320E+03  0.00000000000E+00 0.  1.
         13    1    3    3    0    0  0.46082707697E+03 -0.29673999948E+03  0.96276357814E+03  0.11078492410E+04  0.10566000000E+00 0. -1.
         -4    1    3    3    0  501  0.88802107291E+02  0.11086623987E+03 -0.22100224814E+03  0.26271492361E+03  0.00000000000E+00 0. -1.
<mgrwt>
<rscale>  0 0.11565923E+04</rscale>
<asrwt>0</asrwt>
<pdfrwt beam="2">  1        4 0.24288357E+00 0.11607080E+04</pdfrwt>
<pdfrwt beam="1">  1       -4 0.20346999E+00 0.11524913E+04</pdfrwt>
<totfact> 0.13799638E-01</totfact>
</mgrwt>
</event>
<event>
 8    1  0.2939692E-006  0.1053238E+04  0.7818608E-02  0.8726297E-01
         -4   -1    0    0    0  501 -0.00000000000E+00  0.00000000000E+00  0.87839560569E+03  0.87839560569E+03  0.00000000000E+00 0. -1.
          4   -1    0    0  502    0  0.00000000000E+00 -0.00000000000E+00 -0.29204593998E+04  0.29204593998E+04  0.00000000000E+00 0.  1.
   -9000010    2    1    2    0  501 -0.37397339008E+02  0.30716476390E+03  0.41024683363E+03  0.11299344079E+04  0.10063302383E+04 0.  0.
    9000010    2    1    2  502    0  0.37397339008E+02 -0.30716476390E+03 -0.24523106278E+04  0.26689205976E+04  0.10067576611E+04 0.  0.
        -13    1    4    4    0    0  0.29813345016E+03 -0.57735298152E+03 -0.12420450283E+04  0.14017474390E+04  0.10566000000E+00 0.  1.
          4    1    4    4  502    0 -0.26073611115E+03  0.27018821762E+03 -0.12102655995E+04  0.12671731586E+04  0.00000000000E+00 0.  1.
         13    1    3    3    0    0  0.34688059382E+03  0.11468328363E+03  0.56525532833E+03  0.67304680319E+03  0.10566000000E+00 0. -1.
         -4    1    3    3    0  501 -0.38427793282E+03  0.19248148026E+03 -0.15500849470E+03  0.45688760470E+03  0.00000000000E+00 0. -1.
<mgrwt>
<rscale>  0 0.10530334E+04</rscale>
<asrwt>0</asrwt>
<pdfrwt beam="2">  1        4 0.44930145E+00 0.10532377E+04</pdfrwt>
<pdfrwt beam="1">  1       -4 0.13513778E+00 0.10528292E+04</pdfrwt>
<totfact> 0.51371224E-02</totfact>
</mgrwt>
</event>
<event>
 8    1  0.2939692E-006  0.1136017E+04  0.7818608E-02  0.8668966E-01
          4   -1    0    0  502    0  0.00000000000E+00  0.00000000000E+00  0.26719447821E+04  0.26719447821E+04  0.00000000000E+00 0.  1.
         -4   -1    0    0    0  501 -0.00000000000E+00 -0.00000000000E+00 -0.75000230164E+03  0.75000230164E+03  0.00000000000E+00 0. -1.
   -9000010    2    1    2    0  501  0.51672644303E+03 -0.61595441167E+00 -0.92728236372E+02  0.11090629034E+04  0.97694186193E+03 0.  0.
    9000010    2    1    2  502    0 -0.51672644303E+03  0.61595441167E+00  0.20146707169E+04  0.23128841803E+04  0.10116958723E+04 0.  0.
        -13    1    4    4    0    0  0.60713583130E+02 -0.41792122260E+03  0.71508958655E+03  0.83048023181E+03  0.10566000000E+00 0.  1.
          4    1    4    4  502    0 -0.57744002616E+03  0.41853717701E+03  0.12995811303E+04  0.14824039485E+04  0.00000000000E+00 0.  1.
         13    1    3    3    0    0  0.74818096282E+03 -0.98880241626E+02  0.13869618949E+03  0.76732568017E+03  0.10566000000E+00 0. -1.
         -4    1    3    3    0  501 -0.23145451979E+03  0.98264287214E+02 -0.23142442586E+03  0.34173722325E+03  0.00000000000E+00 0. -1.
<mgrwt>
<rscale>  0 0.11204923E+04</rscale>
<asrwt>0</asrwt>
<pdfrwt beam="1">  1        4 0.41106842E+00 0.11360172E+04</pdfrwt>
<pdfrwt beam="2">  1       -4 0.11538497E+00 0.11051796E+04</pdfrwt>
<totfact> 0.96989708E-02</totfact>
</mgrwt>
</event>
<event>
 8    1  0.2939692E-006  0.1012452E+04  0.7818608E-02  0.8903779E-01
          4   -1    0    0  502    0  0.00000000000E+00  0.00000000000E+00  0.17078108246E+04  0.17078108246E+04  0.00000000000E+00 0.  1.
         -4   -1    0    0    0  501 -0.00000000000E+00 -0.00000000000E+00 -0.33913015383E+04  0.33913015383E+04  0.00000000000E+00 0. -1.
   -9000010    2    1    2    0  501 -0.10172008799E+03  0.13640979940E+02 -0.31934888129E+04  0.32811045199E+04  0.74615214289E+03 0.  0.
    9000010    2    1    2  502    0  0.10172008799E+03 -0.13640979940E+02  0.15099980992E+04  0.18180078429E+04  0.10072364196E+04 0.  0.
        -13    1    4    4    0    0  0.39398117800E+03  0.28903633940E+03  0.40177990856E+03  0.63260594386E+03  0.10566000000E+00 0.  1.
          4    1    4    4  502    0 -0.29226109001E+03 -0.30267731934E+03  0.11082181906E+04  0.11854018991E+04  0.00000000000E+00 0.  1.
         13    1    3    3    0    0  0.87434007124E+01  0.14903659714E+02 -0.31675918469E+04  0.31676389765E+04  0.10566000000E+00 0. -1.
         -4    1    3    3    0  501 -0.11046348871E+03 -0.12626797739E+01 -0.25896966000E+02  0.11346554343E+03  0.00000000000E+00 0. -1.
<mgrwt>
<rscale>  0 0.87324429E+03</rscale>
<asrwt>0</asrwt>
<pdfrwt beam="1">  1        4 0.26274013E+00 0.10124516E+04</pdfrwt>
<pdfrwt beam="2">  1       -4 0.52173869E+00 0.75317732E+03</pdfrwt>
<totfact> 0.98767878E-03</totfact>
</mgrwt>
</event>
<event>
 8    1  0.2939692E-006  0.1151189E+04  0.7818608E-02  0.8649195E-01
         -4   -1    0    0    0  501 -0.00000000000E+00  0.00000000000E+00  0.12712947877E+04  0.12712947877E+04  0.00000000000E+00 0. -1.
          4   -1    0    0  502    0  0.00000000000E+00 -0.00000000000E+00 -0.15881212670E+04  0.15881212670E+04  0.00000000000E+00 0.  1.
   -9000010    2    1    2    0  501  0.55976054262E+03  0.13117383705E+03  0.68876207822E+03  0.13308726535E+04  0.98300070140E+03 0.  0.
    9000010    2    1    2  502    0 -0.55976054262E+03 -0.13117383705E+03 -0.10055885575E+04  0.15285434012E+04  0.99734554783E+03 0.  0.
        -13    1    4    4    0    0  0.47488082216E+02 -0.40095266361E+03 -0.67459266011E+03  0.78618917866E+03  0.10566000000E+00 0.  1.
          4    1    4    4  502    0 -0.60724862483E+03  0.26977882656E+03 -0.33099589736E+03  0.74235422252E+03  0.00000000000E+00 0.  1.
         13    1    3    3    0    0  0.14310597013E+03  0.53630311043E+03  0.29184361499E+03  0.62711486326E+03  0.10566000000E+00 0. -1.
         -4    1    3    3    0  501  0.41665457249E+03 -0.40512927338E+03  0.39691846323E+03  0.70375779028E+03  0.00000000000E+00 0. -1.
<mgrwt>
<rscale>  0 0.11449698E+04</rscale>
<asrwt>0</asrwt>
<pdfrwt beam="2">  1        4 0.24432635E+00 0.11511892E+04</pdfrwt>
<pdfrwt beam="1">  1       -4 0.19558381E+00 0.11387839E+04</pdfrwt>
<totfact> 0.14425740E-01</totfact>
</mgrwt>
</event>
<event>
 8    1  0.2939692E-006  0.1285674E+04  0.7818608E-02  0.8547299E-01
          4   -1    0    0  502    0  0.00000000000E+00  0.00000000000E+00  0.22098816843E+04  0.22098816843E+04  0.00000000000E+00 0.  1.
         -4   -1    0    0    0  501 -0.00000000000E+00 -0.00000000000E+00 -0.14455473017E+04  0.14455473017E+04  0.00000000000E+00 0. -1.
   -9000010    2    1    2    0  501  0.15301499771E+03  0.78742930515E+03 -0.89200673895E+03  0.15586639019E+04  0.99513749635E+03 0.  0.
    9000010    2    1    2  502    0 -0.15301499771E+03 -0.78742930515E+03  0.16563411216E+04  0.20967650841E+04  0.10047384769E+04 0.  0.
        -13    1    4    4    0    0 -0.30167916871E+03 -0.97395681654E+03  0.11490921495E+04  0.15362340253E+04  0.10566000000E+00 0.  1.
          4    1    4    4  502    0  0.14866417101E+03  0.18652751139E+03  0.50724897209E+03  0.56053105884E+03  0.00000000000E+00 0.  1.
         13    1    3    3    0    0  0.10592377918E+03 -0.22427911651E+03 -0.80241585418E+02  0.26069079825E+03  0.10566000000E+00 0. -1.
         -4    1    3    3    0  501  0.47091218530E+02  0.10117084217E+04 -0.81176515354E+03  0.12979731037E+04  0.00000000000E+00 0. -1.
<mgrwt>
<rscale>  0 0.12819241E+04</rscale>
<asrwt>0</asrwt>
<pdfrwt beam="1">  1        4 0.33998180E+00 0.12856741E+04</pdfrwt>
<pdfrwt beam="2">  1       -4 0.22239189E+00 0.12781851E+04</pdfrwt>
<totfact> 0.67724981E-02</totfact>
</mgrwt>
</event>
<event>
 8    1  0.2939692E-006  0.1488509E+04  0.7818608E-02  0.8416417E-01
          4   -1    0    0  502    0  0.00000000000E+00  0.00000000000E+00  0.18028195388E+04  0.18028195388E+04  0.00000000000E+00 0.  1.
         -4   -1    0    0    0  501 -0.00000000000E+00 -0.00000000000E+00 -0.14171485191E+04  0.14171485191E+04  0.00000000000E+00 0. -1.
   -9000010    2    1    2    0  501 -0.27780631474E+03  0.10688378003E+04 -0.39506413165E+03  0.15391328196E+04  0.99662609655E+03 0.  0.
    9000010    2    1    2  502    0  0.27780631474E+03 -0.10688378003E+04  0.78073515134E+03  0.16808352383E+04  0.99803262974E+03 0.  0.
        -13    1    4    4    0    0 -0.33952271923E+03 -0.13912938822E+03  0.13179057579E+03  0.38987360845E+03  0.10566000000E+00 0.  1.
          4    1    4    4  502    0  0.61732903397E+03 -0.92970841211E+03  0.64894457555E+03  0.12909616299E+04  0.00000000000E+00 0.  1.
         13    1    3    3    0    0 -0.41937456270E+03  0.57249564427E+03 -0.65099525560E+03  0.96302706115E+03  0.10566000000E+00 0. -1.
         -4    1    3    3    0  501  0.14156824796E+03  0.49634215606E+03  0.25593112394E+03  0.57610575845E+03  0.00000000000E+00 0. -1.
<mgrwt>
<rscale>  0 0.14880378E+04</rscale>
<asrwt>0</asrwt>
<pdfrwt beam="1">  1        4 0.27735685E+00 0.14885092E+04</pdfrwt>
<pdfrwt beam="2">  1       -4 0.21802285E+00 0.14875665E+04</pdfrwt>
<totfact> 0.10244222E-01</totfact>
</mgrwt>
</event>
<event>
 8    1  0.2939692E-006  0.1579116E+04  0.7818608E-02  0.8368463E-01
          4   -1    0    0  502    0  0.00000000000E+00  0.00000000000E+00  0.71039158187E+03  0.71039158187E+03  0.00000000000E+00 0.  1.
         -4   -1    0    0    0  501 -0.00000000000E+00 -0.00000000000E+00 -0.35944375196E+04  0.35944375196E+04  0.00000000000E+00 0. -1.
   -9000010    2    1    2    0  501 -0.69175776300E+03  0.98620689601E+03 -0.10713368195E+04  0.19082372805E+04  0.10210162064E+04 0.  0.
    9000010    2    1    2  502    0  0.69175776300E+03 -0.98620689601E+03 -0.18127091183E+04  0.23965918209E+04  0.10032971466E+04 0.  0.
        -13    1    4    4    0    0 -0.58838472996E+02 -0.12788493112E+02 -0.80464975649E+03  0.80689946910E+03  0.10566000000E+00 0.  1.
          4    1    4    4  502    0  0.75059623600E+03 -0.97341840289E+03 -0.10080593618E+04  0.15896923518E+04  0.00000000000E+00 0.  1.
         13    1    3    3    0    0  0.11168159493E+03 -0.93410844163E+02 -0.35499669377E+03  0.38369392516E+03  0.10566000000E+00 0. -1.
         -4    1    3    3    0  501 -0.80343935793E+03  0.10796177402E+04 -0.71634012568E+03  0.15245433554E+04  0.00000000000E+00 0. -1.
<mgrwt>
<rscale>  0 0.15734063E+04</rscale>
<asrwt>0</asrwt>
<pdfrwt beam="1">  1        4 0.10929101E+00 0.15677175E+04</pdfrwt>
<pdfrwt beam="2">  1       -4 0.55299039E+00 0.15791159E+04</pdfrwt>
<totfact> 0.22494524E-02</totfact>
</mgrwt>
</event>
<event>
 8    1  0.2939692E-006  0.1014798E+04  0.7818608E-02  0.8774388E-01
         -4   -1    0    0    0  501 -0.00000000000E+00  0.00000000000E+00  0.13357478843E+04  0.13357478843E+04  0.00000000000E+00 0. -1.
          4   -1    0    0  502    0  0.00000000000E+00 -0.00000000000E+00 -0.19873598579E+04  0.19873598579E+04  0.00000000000E+00 0.  1.
   -9000010    2    1    2    0  501  0.21702618775E+03 -0.20810632062E+02  0.98744771137E+03  0.13953290505E+04  0.96143472365E+03 0.  0.
    9000010    2    1    2  502    0 -0.21702618775E+03  0.20810632062E+02 -0.16390596850E+04  0.19277786918E+04  0.99110069365E+03 0.  0.
        -13    1    4    4    0    0  0.99507262390E+02 -0.50751797774E+02  0.10528674864E+03  0.15350163142E+03  0.10566000000E+00 0.  1.
          4    1    4    4  502    0 -0.31653345014E+03  0.71562429836E+02 -0.17443464336E+04  0.17742770603E+04  0.00000000000E+00 0.  1.
         13    1    3    3    0    0  0.59312180647E+03 -0.11667545027E+02  0.72422984168E+03  0.93618293280E+03  0.10566000000E+00 0. -1.
         -4    1    3    3    0  501 -0.37609561872E+03 -0.91430870346E+01  0.26321786969E+03  0.45914611768E+03  0.00000000000E+00 0. -1.
<mgrwt>
<rscale>  0 0.10002165E+04</rscale>
<asrwt>0</asrwt>
<pdfrwt beam="2">  1        4 0.30574767E+00 0.10147975E+04</pdfrwt>
<pdfrwt beam="1">  1       -4 0.20549967E+00 0.98584490E+03</pdfrwt>
<totfact> 0.95911450E-02</totfact>
</mgrwt>
</event>
<event>
 8    1  0.2939692E-006  0.1042299E+04  0.7818608E-02  0.8737487E-01
         -4   -1    0    0    0  501 -0.00000000000E+00  0.00000000000E+00  0.23950338713E+04  0.23950338713E+04  0.00000000000E+00 0. -1.
          4   -1    0    0  502    0  0.00000000000E+00 -0.00000000000E+00 -0.13279460031E+04  0.13279460031E+04  0.00000000000E+00 0.  1.
   -9000010    2    1    2    0  501  0.17159550285E+03 -0.22689126080E+03  0.20450785326E+04  0.22936959840E+04  0.99888457866E+03 0.  0.
    9000010    2    1    2  502    0 -0.17159550285E+03  0.22689126080E+03 -0.97799066436E+03  0.14292838904E+04  0.10027273005E+04 0.  0.
        -13    1    4    4    0    0 -0.28004222983E+03  0.59515240690E+03 -0.64184176289E+03  0.91901626627E+03  0.10566000000E+00 0.  1.
          4    1    4    4  502    0  0.10844672698E+03 -0.36826114610E+03 -0.33614890147E+03  0.51026762417E+03  0.00000000000E+00 0.  1.
         13    1    3    3    0    0  0.16403929754E+03 -0.10702833095E+03  0.21348097821E+04  0.21437762877E+04  0.10566000000E+00 0. -1.
         -4    1    3    3    0  501  0.75562053101E+01 -0.11986292985E+03 -0.89731249496E+02  0.14991969626E+03  0.00000000000E+00 0. -1.
<mgrwt>
<rscale>  0 0.10404490E+04</rscale>
<asrwt>0</asrwt>
<pdfrwt beam="2">  1        4 0.20429939E+00 0.10422988E+04</pdfrwt>
<pdfrwt beam="1">  1       -4 0.36846675E+00 0.10386025E+04</pdfrwt>
<totfact> 0.61634760E-02</totfact>
</mgrwt>
</event>
<event>
 8    1  0.2939692E-006  0.1127354E+04  0.7818608E-02  0.8664741E-01
          4   -1    0    0  502    0  0.00000000000E+00  0.00000000000E+00  0.21870183143E+04  0.21870183143E+04  0.00000000000E+00 0.  1.
         -4   -1    0    0    0  501 -0.00000000000E+00 -0.00000000000E+00 -0.73829620878E+03  0.73829620878E+03  0.00000000000E+00 0. -1.
   -9000010    2    1    2    0  501 -0.47237736303E+03 -0.15261127870E+03  0.44932486564E+02  0.11248835336E+04  0.10084212712E+04 0.  0.
    9000010    2    1    2  502    0  0.47237736303E+03  0.15261127870E+03  0.14037896189E+04  0.18004309895E+04  0.10121738379E+04 0.  0.
        -13    1    4    4    0    0  0.75910755620E+03  0.28588776511E+03  0.10125537323E+04  0.12973978450E+04  0.10566000000E+00 0.  1.
          4    1    4    4  502    0 -0.28673019318E+03 -0.13327648641E+03  0.39123588660E+03  0.50303314451E+03  0.00000000000E+00 0.  1.
         13    1    3    3    0    0 -0.30633890590E+03 -0.57940390798E+03  0.10234760654E+03  0.66334565468E+03  0.10566000000E+00 0. -1.
         -4    1    3    3    0  501 -0.16603845713E+03  0.42679262928E+03 -0.57415119973E+02  0.46153787889E+03  0.00000000000E+00 0. -1.
<mgrwt>
<rscale>  0 0.11256685E+04</rscale>
<asrwt>0</asrwt>
<pdfrwt beam="1">  1        4 0.33646435E+00 0.11273537E+04</pdfrwt>
<pdfrwt beam="2">  1       -4 0.11358403E+00 0.11239858E+04</pdfrwt>
<totfact> 0.18716904E-01</totfact>
</mgrwt>
</event>
<event>
 8    1  0.2939692E-006  0.1553234E+04  0.7818608E-02  0.8395723E-01
         -4   -1    0    0    0  501 -0.00000000000E+00  0.00000000000E+00  0.28551843453E+04  0.28551843453E+04  0.00000000000E+00 0. -1.
          4   -1    0    0  502    0  0.00000000000E+00 -0.00000000000E+00 -0.94568241923E+03  0.94568241923E+03  0.00000000000E+00 0.  1.
   -9000010    2    1    2    0  501 -0.58853221745E+02 -0.11142134229E+04  0.16795047229E+04  0.22876343968E+04  0.10805553043E+04 0.  0.
    9000010    2    1    2  502    0  0.58853221745E+02  0.11142134229E+04  0.22999720316E+03  0.15132323677E+04  0.99601116039E+03 0.  0.
        -13    1    4    4    0    0 -0.18021530456E+03  0.35090118388E+03 -0.34827524332E+03  0.52621749602E+03  0.10566000000E+00 0.  1.
          4    1    4    4  502    0  0.23906852630E+03  0.76331223906E+03  0.57827244648E+03  0.98701487168E+03  0.00000000000E+00 0.  1.
         13    1    3    3    0    0  0.39163298892E+03 -0.19859675163E+03  0.18161107304E+03  0.47518381789E+03  0.10566000000E+00 0. -1.
         -4    1    3    3    0  501 -0.45048621067E+03 -0.91561667131E+03  0.14978936499E+04  0.18124505789E+04  0.00000000000E+00 0. -1.
<mgrwt>
<rscale>  0 0.15241707E+04</rscale>
<asrwt>0</asrwt>
<pdfrwt beam="2">  1        4 0.14548960E+00 0.14956515E+04</pdfrwt>
<pdfrwt beam="1">  1       -4 0.43925913E+00 0.15532337E+04</pdfrwt>
<totfact> 0.48901720E-02</totfact>
</mgrwt>
</event>
<event>
 8    1  0.2939692E-006  0.1127169E+04  0.7818608E-02  0.8807483E-01
         -4   -1    0    0    0  501 -0.00000000000E+00  0.00000000000E+00  0.24674550747E+04  0.24674550747E+04  0.00000000000E+00 0. -1.
          4   -1    0    0  502    0  0.00000000000E+00 -0.00000000000E+00 -0.51904087119E+03  0.51904087119E+03  0.00000000000E+00 0.  1.
   -9000010    2    1    2    0  501 -0.33130192834E+03  0.57903840113E+02  0.16091004628E+04  0.18093621491E+04  0.75595850716E+03 0.  0.
    9000010    2    1    2  502    0  0.33130192834E+03 -0.57903840113E+02  0.33931374071E+03  0.11771337969E+04  0.10758235630E+04 0.  0.
        -13    1    4    4    0    0  0.64189930243E+03  0.24984546099E+03  0.23303749775E+03  0.72716157445E+03  0.10566000000E+00 0.  1.
          4    1    4    4  502    0 -0.31059737409E+03 -0.30774930110E+03  0.10627624296E+03  0.44997222240E+03  0.00000000000E+00 0.  1.
         13    1    3    3    0    0 -0.12620097282E+03  0.38454172101E+03  0.10896124459E+04  0.11623486199E+04  0.10566000000E+00 0. -1.
         -4    1    3    3    0  501 -0.20510095552E+03 -0.32663788089E+03  0.51948801691E+03  0.64701352915E+03  0.00000000000E+00 0. -1.
<mgrwt>
<rscale>  0 0.96572108E+03</rscale>
<asrwt>0</asrwt>
<pdfrwt beam="2">  1        4 0.79852443E-01 0.11271691E+04</pdfrwt>
<pdfrwt beam="1">  1       -4 0.37960847E+00 0.82739778E+03</pdfrwt>
<totfact> 0.27081267E-01</totfact>
</mgrwt>
</event>
<event>
 8    1  0.2939692E-006  0.1199494E+04  0.7818608E-02  0.8612613E-01
          4   -1    0    0  502    0  0.00000000000E+00  0.00000000000E+00  0.86589484681E+03  0.86589484681E+03  0.00000000000E+00 0.  1.
         -4   -1    0    0    0  501 -0.00000000000E+00 -0.00000000000E+00 -0.19334011977E+04  0.19334011977E+04  0.00000000000E+00 0. -1.
   -9000010    2    1    2    0  501 -0.66886237077E+03  0.32954241335E+02 -0.10752354812E+04  0.15997772434E+04  0.97708394495E+03 0.  0.
    9000010    2    1    2  502    0  0.66886237077E+03 -0.32954241335E+02  0.77291303219E+01  0.11995188011E+04  0.99514961770E+03 0.  0.
        -13    1    4    4    0    0  0.68598792816E+03 -0.18004431564E+03  0.37590176882E+03  0.80268147116E+03  0.10566000000E+00 0.  1.
          4    1    4    4  502    0 -0.17125557391E+02  0.14709007430E+03 -0.36817263849E+03  0.39683732991E+03  0.00000000000E+00 0.  1.
         13    1    3    3    0    0 -0.76411663734E+03 -0.17552720705E+03 -0.38690787866E+03  0.87428928485E+03  0.10566000000E+00 0. -1.
         -4    1    3    3    0  501  0.95254266575E+02  0.20848144838E+03 -0.68832760251E+03  0.72548795855E+03  0.00000000000E+00 0. -1.
<mgrwt>
<rscale>  0 0.11919979E+04</rscale>
<asrwt>0</asrwt>
<pdfrwt beam="1">  1        4 0.13321459E+00 0.11994939E+04</pdfrwt>
<pdfrwt beam="2">  1       -4 0.29744633E+00 0.11845488E+04</pdfrwt>
<totfact> 0.18416464E-01</totfact>
</mgrwt>
</event>
<event>
 8    1  0.2939692E-006  0.1160004E+04  0.7818608E-02  0.8646119E-01
         -4   -1    0    0    0  501 -0.00000000000E+00  0.00000000000E+00  0.11087918965E+04  0.11087918965E+04  0.00000000000E+00 0.  1.
          4   -1    0    0  502    0  0.00000000000E+00 -0.00000000000E+00 -0.12148463142E+04  0.12148463142E+04  0.00000000000E+00 0. -1.
   -9000010    2    1    2    0  501 -0.20460034253E+03 -0.51202366130E+03 -0.21820207279E+03  0.11803479219E+04  0.10205780432E+04 0.  0.
    9000010    2    1    2  502    0  0.20460034253E+03  0.51202366130E+03  0.11214765504E+03  0.11432902889E+04  0.99524170843E+03 0.  0.
        -13    1    4    4    0    0 -0.20281700409E+03 -0.16190819265E+03 -0.16604085473E+03  0.30808858564E+03  0.10566000000E+00 0.  1.
          4    1    4    4  502    0  0.40741734662E+03  0.67393185395E+03  0.27818850978E+03  0.83520170323E+03  0.00000000000E+00 0.  1.
         13    1    3    3    0    0  0.18132859129E+03 -0.25835878623E+03  0.33462096011E+03  0.46000056364E+03  0.10566000000E+00 0. -1.
         -4    1    3    3    0  501 -0.38592893382E+03 -0.25366487508E+03 -0.55282303290E+03  0.72034735823E+03  0.00000000000E+00 0. -1.
<mgrwt>
<rscale>  0 0.11488365E+04</rscale>
<asrwt>0</asrwt>
<pdfrwt beam="2">  1        4 0.18689943E+00 0.11377766E+04</pdfrwt>
<pdfrwt beam="1">  1       -4 0.17058337E+00 0.11600039E+04</pdfrwt>
<totfact> 0.24614105E-01</totfact>
</mgrwt>
</event>
<event>
 8    1  0.2939692E-006  0.1153288E+04  0.7818608E-02  0.8646742E-01
          4   -1    0    0  502    0  0.00000000000E+00  0.00000000000E+00  0.10960809870E+04  0.10960809870E+04  0.00000000000E+00 0.  1.
         -4   -1    0    0    0  501 -0.00000000000E+00 -0.00000000000E+00 -0.12899902339E+04  0.12899902339E+04  0.00000000000E+00 0. -1.
   -9000010    2    1    2    0  501 -0.48536028689E+03 -0.26110995437E+03 -0.40804277311E+03  0.12233448470E+04  0.10130748707E+04 0.  0.
    9000010    2    1    2  502    0  0.48536028689E+03  0.26110995437E+03  0.21413352616E+03  0.11627263739E+04  0.10011625428E+04 0.  0.
        -13    1    4    4    0    0 -0.39599242199E+02  0.38143270151E+03  0.43564138733E+03  0.58038128440E+03  0.10566000000E+00 0.  1.
          4    1    4    4  502    0  0.52495952908E+03 -0.12032274714E+03 -0.22150786117E+03  0.58234508946E+03  0.00000000000E+00 0.  1.
         13    1    3    3    0    0  0.25277664404E+03 -0.13430250302E+03 -0.37752884204E+03  0.47377339713E+03  0.10566000000E+00 0. -1.
         -4    1    3    3    0  501 -0.73813693093E+03 -0.12680745134E+03 -0.30513931063E+02  0.74957144990E+03  0.00000000000E+00 0. -1.
<mgrwt>
<rscale>  0 0.11480514E+04</rscale>
<asrwt>0</asrwt>
<pdfrwt beam="1">  1        4 0.16862785E+00 0.11428383E+04</pdfrwt>
<pdfrwt beam="2">  1       -4 0.19846003E+00 0.11532882E+04</pdfrwt>
<totfact> 0.23112064E-01</totfact>
</mgrwt>
</event>
<event>
 8    1  0.2939692E-006  0.1712602E+04  0.7818608E-02  0.8303670E-01
         -4   -1    0    0    0  501 -0.00000000000E+00  0.00000000000E+00  0.23661702143E+04  0.23661702143E+04  0.00000000000E+00 0.  1.
          4   -1    0    0  502    0  0.00000000000E+00 -0.00000000000E+00 -0.12197508274E+04  0.12197508274E+04  0.00000000000E+00 0. -1.
   -9000010    2    1    2    0  501 -0.12784737564E+04  0.47776273659E+03  0.60908252986E+03  0.17910009429E+04  0.98688929019E+03 0.  0.
    9000010    2    1    2  502    0  0.12784737564E+04 -0.47776273659E+03  0.53733685710E+03  0.17949200988E+04  0.10345312391E+04 0.  0.
        -13    1    4    4    0    0  0.83664466843E+03 -0.21748345744E+03  0.83510105174E+03  0.12019430657E+04  0.10566000000E+00 0.  1.
          4    1    4    4  502    0  0.44182908797E+03 -0.26027927915E+03 -0.29776419463E+03  0.59297703306E+03  0.00000000000E+00 0.  1.
         13    1    3    3    0    0 -0.12355288316E+04  0.65297438541E+03  0.72722366795E+03  0.15753606940E+04  0.10566000000E+00 0. -1.
         -4    1    3    3    0  501 -0.42944924760E+02 -0.17521164882E+03 -0.11814113809E+03  0.21564024892E+03  0.00000000000E+00 0. -1.
<mgrwt>
<rscale>  0 0.16983678E+04</rscale>
<asrwt>0</asrwt>
<pdfrwt beam="2">  1        4 0.18765397E+00 0.17126025E+04</pdfrwt>
<pdfrwt beam="1">  1       -4 0.36402619E+00 0.16842514E+04</pdfrwt>
<totfact> 0.67833498E-02</totfact>
</mgrwt>
</event>
<event>
 8    1  0.2939692E-006  0.1089928E+04  0.7818608E-02  0.8702307E-01
         -4   -1    0    0    0  501 -0.00000000000E+00  0.00000000000E+00  0.19124082242E+04  0.19124082242E+04  0.00000000000E+00 0. -1.
          4   -1    0    0  502    0  0.00000000000E+00 -0.00000000000E+00 -0.20669551016E+04  0.20669551016E+04  0.00000000000E+00 0.  1.
   -9000010    2    1    2    0  501  0.38480777154E+03 -0.23696570860E+03  0.15926023251E+04  0.19298508210E+04  0.99182269452E+03 0.  0.
    9000010    2    1    2  502    0 -0.38480777154E+03  0.23696570860E+03 -0.17471492025E+04  0.20495125048E+04  0.97146353672E+03 0.  0.
        -13    1    4    4    0    0 -0.53122888217E+03 -0.11852359495E+03 -0.14917606993E+04  0.15879552774E+04  0.10566000000E+00 0.  1.
          4    1    4    4  502    0  0.14642111063E+03  0.35548930355E+03 -0.25538850325E+03  0.46155722740E+03  0.00000000000E+00 0.  1.
         13    1    3    3    0    0  0.40132375333E+03  0.22714909885E+03  0.28471698366E+03  0.54196055212E+03  0.10566000000E+00 0. -1.
         -4    1    3    3    0  501 -0.16515981795E+02 -0.46411480745E+03  0.13078853415E+04  0.13878902689E+04  0.00000000000E+00 0. -1.
<mgrwt>
<rscale>  0 0.10806413E+04</rscale>
<asrwt>0</asrwt>
<pdfrwt beam="2">  1        4 0.31799309E+00 0.10714342E+04</pdfrwt>
<pdfrwt beam="1">  1       -4 0.29421665E+00 0.10899275E+04</pdfrwt>
<totfact> 0.53280878E-02</totfact>
</mgrwt>
</event>
<event>
 8    1  0.2939692E-006  0.1042387E+04  0.7818608E-02  0.8783230E-01
         -4   -1    0    0    0  501 -0.00000000000E+00  0.00000000000E+00  0.62040276407E+03  0.62040276407E+03  0.00000000000E+00 0. -1.
          4   -1    0    0  502    0  0.00000000000E+00 -0.00000000000E+00 -0.26188480626E+04  0.26188480626E+04  0.00000000000E+00 0.  1.
   -9000010    2    1    2    0  501 -0.33440779585E+03  0.12451317733E+03 -0.13834058258E+02  0.10424785166E+04  0.97940694871E+03 0.  0.
    9000010    2    1    2  502    0  0.33440779585E+03 -0.12451317733E+03 -0.19846112402E+04  0.21967723100E+04  0.87166203421E+03 0.  0.
        -13    1    4    4    0    0  0.17524678175E+03  0.23661941669E+03 -0.17054275480E+03  0.34027198716E+03  0.10566000000E+00 0.  1.
          4    1    4    4  502    0  0.15916101410E+03 -0.36113259402E+03 -0.18140684854E+04  0.18565003228E+04  0.00000000000E+00 0.  1.
         13    1    3    3    0    0 -0.35647258081E+03 -0.68037024615E+02 -0.44235278666E+03  0.57216932513E+03  0.10566000000E+00 0. -1.
         -4    1    3    3    0  501  0.22064784962E+02  0.19255020195E+03  0.42851872840E+03  0.47030919149E+03  0.00000000000E+00 0. -1.
<mgrwt>
<rscale>  0 0.99085672E+03</rscale>
<asrwt>0</asrwt>
<pdfrwt beam="2">  1        4 0.40289969E+00 0.94187409E+03</pdfrwt>
<pdfrwt beam="1">  1       -4 0.95446581E-01 0.10423867E+04</pdfrwt>
<totfact> 0.15137509E-01</totfact>
</mgrwt>
</event>
<event>
 8    1  0.2939692E-006  0.1084429E+04  0.7818608E-02  0.8704564E-01
         -4   -1    0    0    0  501 -0.00000000000E+00  0.00000000000E+00  0.11905583617E+04  0.11905583617E+04  0.00000000000E+00 0. -1.
          4   -1    0    0  502    0  0.00000000000E+00 -0.00000000000E+00 -0.99902937862E+03  0.99902937862E+03  0.00000000000E+00 0.  1.
   -9000010    2    1    2    0  501 -0.55151490567E+02 -0.41280707498E+03  0.26096351172E+03  0.11029379008E+04  0.98737970939E+03 0.  0.
    9000010    2    1    2  502    0  0.55151490567E+02  0.41280707498E+03 -0.69434528637E+02  0.10866498395E+04  0.10012668735E+04 0.  0.
        -13    1    4    4    0    0  0.50965172803E+03  0.34752293286E+03  0.27064885382E+02  0.61745412132E+03  0.10566000000E+00 0.  1.
          4    1    4    4  502    0 -0.45450023747E+03  0.65284142121E+02 -0.96499414019E+02  0.46919571820E+03  0.00000000000E+00 0.  1.
         13    1    3    3    0    0  0.81111730143E+02  0.24733288380E+03  0.33565545952E+03  0.42475553775E+03  0.10566000000E+00 0. -1.
         -4    1    3    3    0  501 -0.13626322071E+03 -0.66013995878E+03 -0.74691947802E+02  0.67818236306E+03  0.00000000000E+00 0. -1.
<mgrwt>
<rscale>  0 0.10780057E+04</rscale>
<asrwt>0</asrwt>
<pdfrwt beam="2">  1        4 0.15369683E+00 0.10844292E+04</pdfrwt>
<pdfrwt beam="1">  1       -4 0.18316283E+00 0.10716203E+04</pdfrwt>
<totfact> 0.29338785E-01</totfact>
</mgrwt>
</event>
<event>
 8    1  0.2939692E-006  0.1135607E+04  0.7818608E-02  0.8658533E-01
         -4   -1    0    0    0  501 -0.00000000000E+00  0.00000000000E+00  0.10036830187E+04  0.10036830187E+04  0.00000000000E+00 0. -1.
          4   -1    0    0  502    0  0.00000000000E+00 -0.00000000000E+00 -0.23155630446E+04  0.23155630446E+04  0.00000000000E+00 0.  1.
   -9000010    2    1    2    0  501 -0.31602158263E+03  0.43561398885E+03  0.45479655681E+03  0.12190675171E+04  0.99481481448E+03 0.  0.
    9000010    2    1    2  502    0  0.31602158263E+03 -0.43561398885E+03 -0.17666765827E+04  0.21001785462E+04  0.99998729505E+03 0.  0.
        -13    1    4    4    0    0  0.44320490403E+03 -0.25322858975E+03 -0.18039033035E+04  0.18747326330E+04  0.10566000000E+00 0.  1.
          4    1    4    4  502    0 -0.12718332139E+03 -0.18238539910E+03  0.37226720845E+02  0.22544591322E+03  0.00000000000E+00 0.  1.
         13    1    3    3    0    0  0.12429072771E+03  0.56043808165E+03  0.28012088683E+00  0.57405497819E+03  0.10566000000E+00 0. -1.
         -4    1    3    3    0  501 -0.44031231034E+03 -0.12482409280E+03  0.45451643592E+03  0.64501253887E+03  0.00000000000E+00 0. -1.
<mgrwt>
<rscale>  0 0.11333289E+04</rscale>
<asrwt>0</asrwt>
<pdfrwt beam="2">  1        4 0.35624047E+00 0.11356072E+04</pdfrwt>
<pdfrwt beam="1">  1       -4 0.15441277E+00 0.11310551E+04</pdfrwt>
<totfact> 0.99083779E-02</totfact>
</mgrwt>
</event>
<event>
 8    1  0.2939692E-006  0.1111657E+04  0.7818608E-02  0.8680753E-01
         -4   -1    0    0    0  501 -0.00000000000E+00  0.00000000000E+00  0.35326935665E+04  0.35326935665E+04  0.00000000000E+00 0. -1.
          4   -1    0    0  502    0  0.00000000000E+00 -0.00000000000E+00 -0.16256075363E+04  0.16256075363E+04  0.00000000000E+00 0.  1.
   -9000010    2    1    2    0  501  0.33030409409E+03 -0.34252400962E+03  0.32424520580E+04  0.34277217639E+04  0.10046679305E+04 0.  0.
    9000010    2    1    2  502    0 -0.33030409409E+03  0.34252400962E+03 -0.13353660279E+04  0.17305793389E+04  0.99261217406E+03 0.  0.
        -13    1    4    4    0    0 -0.57623731506E+03  0.52801121639E+03 -0.84100393846E+03  0.11480997011E+04  0.10566000000E+00 0.  1.
          4    1    4    4  502    0  0.24593322097E+03 -0.18548720677E+03 -0.49436208941E+03  0.58247963784E+03  0.00000000000E+00 0.  1.
         13    1    3    3    0    0 -0.22796209562E+03 -0.27715312537E+03  0.23194189355E+04  0.23470161443E+04  0.10566000000E+00 0. -1.
         -4    1    3    3    0  501  0.55826618971E+03 -0.65370884250E+02  0.92303312252E+03  0.10807056197E+04  0.00000000000E+00 0. -1.
<mgrwt>
<rscale>  0 0.11062019E+04</rscale>
<asrwt>0</asrwt>
<pdfrwt beam="2">  1        4 0.25009347E+00 0.11007736E+04</pdfrwt>
<pdfrwt beam="1">  1       -4 0.54349131E+00 0.11116569E+04</pdfrwt>
<totfact> 0.79185447E-03</totfact>
</mgrwt>
</event>
<event>
 8    1  0.2939692E-006  0.1151838E+04  0.7818608E-02  0.8645260E-01
         -4   -1    0    0    0  501 -0.00000000000E+00  0.00000000000E+00  0.82444190411E+03  0.82444190411E+03  0.00000000000E+00 0. -1.
          4   -1    0    0  502    0  0.00000000000E+00 -0.00000000000E+00 -0.20571661545E+04  0.20571661545E+04  0.00000000000E+00 0.  1.
   -9000010    2    1    2    0  501 -0.44528977235E+02 -0.58097059496E+03  0.60756868647E+02  0.11496079976E+04  0.98913977229E+03 0.  0.
    9000010    2    1    2  502    0  0.44528977235E+02  0.58097059496E+03 -0.12934811191E+04  0.17320000610E+04  0.99359002808E+03 0.  0.
        -13    1    4    4    0    0 -0.46724612938E+02  0.24728744669E+03 -0.13571220966E+04  0.13802589130E+04  0.10566000000E+00 0.  1.
          4    1    4    4  502    0  0.91253590173E+02  0.33368314827E+03  0.63640977536E+02  0.35174114798E+03  0.00000000000E+00 0.  1.
         13    1    3    3    0    0 -0.44480607252E+03 -0.18525570225E+03 -0.20927296078E+03  0.52532589946E+03  0.10566000000E+00 0. -1.
         -4    1    3    3    0  501  0.40027709528E+03 -0.39571489271E+03  0.27002982943E+03  0.62428209818E+03  0.00000000000E+00 0. -1.
<mgrwt>
<rscale>  0 0.11499181E+04</rscale>
<asrwt>0</asrwt>
<pdfrwt beam="2">  1        4 0.31648710E+00 0.11518380E+04</pdfrwt>
<pdfrwt beam="1">  1       -4 0.12683722E+00 0.11480014E+04</pdfrwt>
<totfact> 0.17697831E-01</totfact>
</mgrwt>
</event>
<event>
 8    1  0.2939692E-006  0.1108964E+04  0.7818608E-02  0.8692959E-01
          4   -1    0    0  502    0  0.00000000000E+00  0.00000000000E+00  0.25842851389E+04  0.25842851389E+04  0.00000000000E+00 0.  1.
         -4   -1    0    0    0  501 -0.00000000000E+00 -0.00000000000E+00 -0.94277748107E+03  0.94277748107E+03  0.00000000000E+00 0. -1.
   -9000010    2    1    2    0  501 -0.27930388880E+03 -0.24911451884E+03 -0.44585399182E+03  0.11634044374E+04  0.10073010459E+04 0.  0.
    9000010    2    1    2  502    0  0.27930388880E+03  0.24911451884E+03  0.20873616496E+04  0.23636581826E+04  0.10439026018E+04 0.  0.
        -13    1    4    4    0    0 -0.35881011014E+03 -0.93836085441E+02  0.53980485584E+03  0.65493450025E+03  0.10566000000E+00 0.  1.
          4    1    4    4  502    0  0.63811399894E+03  0.34295060428E+03  0.15475567938E+04  0.17087236824E+04  0.00000000000E+00 0.  1.
         13    1    3    3    0    0 -0.11981703498E+03  0.88804629544E+02  0.29673302209E+03  0.33210372124E+03  0.10566000000E+00 0. -1.
         -4    1    3    3    0  501 -0.15948685382E+03 -0.33791914839E+03 -0.74258701391E+03  0.83130071611E+03  0.00000000000E+00 0. -1.
<mgrwt>
<rscale>  0 0.10916371E+04</rscale>
<asrwt>0</asrwt>
<pdfrwt beam="1">  1        4 0.39758233E+00 0.11089641E+04</pdfrwt>
<pdfrwt beam="2">  1       -4 0.14504269E+00 0.10745809E+04</pdfrwt>
<totfact> 0.76256249E-02</totfact>
</mgrwt>
</event>
<event>
 8    1  0.2939692E-006  0.1082527E+04  0.7818608E-02  0.8832589E-01
          4   -1    0    0  502    0  0.00000000000E+00  0.00000000000E+00  0.32169459366E+04  0.32169459366E+04  0.00000000000E+00 0.  1.
         -4   -1    0    0    0  501 -0.00000000000E+00 -0.00000000000E+00 -0.29955945044E+03  0.29955945044E+03  0.00000000000E+00 0. -1.
   -9000010    2    1    2    0  501  0.14748364447E+03 -0.19229775108E+03  0.82780307000E+03  0.11631622031E+04  0.78035795474E+03 0.  0.
    9000010    2    1    2  502    0 -0.14748364447E+03  0.19229775108E+03  0.20895834162E+04  0.23533431840E+04  0.10550523390E+04 0.  0.
        -13    1    4    4    0    0  0.33425900549E+03  0.21777208335E+03  0.16603780745E+04  0.17076326081E+04  0.10566000000E+00 0.  1.
          4    1    4    4  502    0 -0.48174264996E+03 -0.25474332274E+02  0.42920534172E+03  0.64571057584E+03  0.00000000000E+00 0.  1.
         13    1    3    3    0    0  0.29620026078E+03 -0.15465269046E+03  0.13374287781E+02  0.33441132142E+03  0.10566000000E+00 0. -1.
         -4    1    3    3    0  501 -0.14871661631E+03 -0.37645060615E+02  0.81442878222E+03  0.82875088166E+03  0.00000000000E+00 0. -1.
<mgrwt>
<rscale>  0 0.94050883E+03</rscale>
<asrwt>0</asrwt>
<pdfrwt beam="1">  1        4 0.49491474E+00 0.10825273E+04</pdfrwt>
<pdfrwt beam="2">  1       -4 0.46086072E-01 0.81712202E+03</pdfrwt>
<totfact> 0.25914072E-01</totfact>
</mgrwt>
</event>
<event>
 8    1  0.2939692E-006  0.1100678E+04  0.7818608E-02  0.8686627E-01
         -4   -1    0    0    0  501 -0.00000000000E+00  0.00000000000E+00  0.27519271139E+04  0.27519271139E+04  0.00000000000E+00 0. -1.
          4   -1    0    0  502    0  0.00000000000E+00 -0.00000000000E+00 -0.57063207898E+03  0.57063207898E+03  0.00000000000E+00 0.  1.
   -9000010    2    1    2    0  501  0.36440750122E+03 -0.29034770318E+03  0.18896236618E+04  0.21868171513E+04  0.99719459183E+03 0.  0.
    9000010    2    1    2  502    0 -0.36440750122E+03  0.29034770318E+03  0.29167137305E+03  0.11357420416E+04  0.99385269507E+03 0.  0.
        -13    1    4    4    0    0 -0.65765953479E+01  0.60131060609E+03  0.27535991715E+03  0.66139306902E+03  0.10566000000E+00 0.  1.
          4    1    4    4  502    0 -0.35783090587E+03 -0.31096290292E+03  0.16311455902E+02  0.47434897257E+03  0.00000000000E+00 0.  1.
         13    1    3    3    0    0  0.50615989426E+03 -0.58437802700E+03  0.12820999769E+04  0.14971559300E+04  0.10566000000E+00 0. -1.
         -4    1    3    3    0  501 -0.14175239303E+03  0.29403032382E+03  0.60752368496E+03  0.68966122121E+03  0.00000000000E+00 0. -1.
<mgrwt>
<rscale>  0 0.10991634E+04</rscale>
<asrwt>0</asrwt>
<pdfrwt beam="2">  1        4 0.87789552E-01 0.10976510E+04</pdfrwt>
<pdfrwt beam="1">  1       -4 0.42337340E+00 0.11006778E+04</pdfrwt>
<totfact> 0.14511946E-01</totfact>
</mgrwt>
</event>
<event>
 8    1  0.2939692E-006  0.1048721E+04  0.7818608E-02  0.8730561E-01
          4   -1    0    0  502    0  0.00000000000E+00  0.00000000000E+00  0.63846727681E+03  0.63846727681E+03  0.00000000000E+00 0.  1.
         -4   -1    0    0    0  501 -0.00000000000E+00 -0.00000000000E+00 -0.23811950518E+04  0.23811950518E+04  0.00000000000E+00 0. -1.
   -9000010    2    1    2    0  501  0.30884056093E+03 -0.84879548518E+02 -0.16667075884E+04  0.19691952526E+04  0.99861340246E+03 0.  0.
    9000010    2    1    2  502    0 -0.30884056093E+03  0.84879548518E+02 -0.76020186510E+02  0.10504670760E+04  0.99755449935E+03 0.  0.
        -13    1    4    4    0    0 -0.24022221943E+03 -0.11993181682E+03  0.42622480004E+03  0.50374392972E+03  0.10566000000E+00 0.  1.
          4    1    4    4  502    0 -0.68618341499E+02  0.20481136534E+03 -0.50224498655E+03  0.54672314628E+03  0.00000000000E+00 0.  1.
         13    1    3    3    0    0  0.59660332211E+03  0.17782119805E+03 -0.76076634222E+03  0.98301645004E+03  0.10566000000E+00 0. -1.
         -4    1    3    3    0  501 -0.28776276118E+03 -0.26270074657E+03 -0.90594124622E+03  0.98617880254E+03  0.00000000000E+00 0. -1.
<mgrwt>
<rscale>  0 0.10482168E+04</rscale>
<asrwt>0</asrwt>
<pdfrwt beam="1">  1        4 0.98225734E-01 0.10477128E+04</pdfrwt>
<pdfrwt beam="2">  1       -4 0.36633770E+00 0.10487210E+04</pdfrwt>
<totfact> 0.19510115E-01</totfact>
</mgrwt>
</event>
<event>
 8    1  0.2939692E-006  0.1393280E+04  0.7818608E-02  0.8475844E-01
          4   -1    0    0  502    0  0.00000000000E+00  0.00000000000E+00  0.17633883347E+04  0.17633883347E+04  0.00000000000E+00 0.  1.
         -4   -1    0    0    0  501 -0.00000000000E+00 -0.00000000000E+00 -0.11646308080E+04  0.11646308080E+04  0.00000000000E+00 0. -1.
   -9000010    2    1    2    0  501 -0.93781550243E+03  0.19376577596E+03 -0.56694916290E+02  0.13944331005E+04  0.10120208821E+04 0.  0.
    9000010    2    1    2  502    0  0.93781550243E+03 -0.19376577596E+03  0.65545244290E+03  0.15335860422E+04  0.10026091718E+04 0.  0.
        -13    1    4    4    0    0 -0.10204636050E+03 -0.79501421083E+02  0.44903217109E+03  0.46729416590E+03  0.10566000000E+00 0.  1.
          4    1    4    4  502    0  0.10398618629E+04 -0.11426435488E+03  0.20642027181E+03  0.10662918763E+04  0.00000000000E+00 0.  1.
         13    1    3    3    0    0 -0.80493664710E+03  0.44494176478E+03  0.27280081822E+03  0.95933126576E+03  0.10566000000E+00 0. -1.
         -4    1    3    3    0  501 -0.13287885533E+03 -0.25117598882E+03 -0.32949573451E+03  0.43510183476E+03  0.00000000000E+00 0. -1.
<mgrwt>
<rscale>  0 0.13898653E+04</rscale>
<asrwt>0</asrwt>
<pdfrwt beam="1">  1        4 0.27129051E+00 0.13864589E+04</pdfrwt>
<pdfrwt beam="2">  1       -4 0.17917397E+00 0.13932801E+04</pdfrwt>
<totfact> 0.13844720E-01</totfact>
</mgrwt>
</event>
<event>
 8    1  0.2939692E-006  0.1184152E+04  0.7818608E-02  0.8635997E-01
         -4   -1    0    0    0  501 -0.00000000000E+00  0.00000000000E+00  0.22875185590E+04  0.22875185590E+04  0.00000000000E+00 0. -1.
          4   -1    0    0  502    0  0.00000000000E+00 -0.00000000000E+00 -0.88563050335E+03  0.88563050335E+03  0.00000000000E+00 0.  1.
   -9000010    2    1    2    0  501 -0.40246027041E+03  0.39742213342E+03  0.16262138918E+04  0.20116628641E+04  0.10403351554E+04 0.  0.
    9000010    2    1    2  502    0  0.40246027041E+03 -0.39742213342E+03 -0.22432583616E+03  0.11614861982E+04  0.98934801083E+03 0.  0.
        -13    1    4    4    0    0 -0.16501095986E+03 -0.48756275286E+03  0.63867790966E+02  0.51867635452E+03  0.10566000000E+00 0.  1.
          4    1    4    4  502    0  0.56747123028E+03  0.90140619444E+02 -0.28819362713E+03  0.64280984372E+03  0.00000000000E+00 0.  1.
         13    1    3    3    0    0 -0.27543729320E+03  0.64595679550E+03  0.52813234239E+03  0.87866356837E+03  0.10566000000E+00 0. -1.
         -4    1    3    3    0  501 -0.12702297722E+03 -0.24853466208E+03  0.10980815494E+04  0.11329992958E+04  0.00000000000E+00 0. -1.
<mgrwt>
<rscale>  0 0.11616713E+04</rscale>
<asrwt>0</asrwt>
<pdfrwt beam="2">  1        4 0.13625085E+00 0.11396175E+04</pdfrwt>
<pdfrwt beam="1">  1       -4 0.35192593E+00 0.11841520E+04</pdfrwt>
<totfact> 0.12324375E-01</totfact>
</mgrwt>
</event>
<event>
 8    1  0.2939692E-006  0.1110228E+04  0.7818608E-02  0.8690668E-01
          4   -1    0    0  502    0  0.00000000000E+00  0.00000000000E+00  0.10707309231E+04  0.10707309231E+04  0.00000000000E+00 0.  1.
         -4   -1    0    0    0  501 -0.00000000000E+00 -0.00000000000E+00 -0.16487859302E+04  0.16487859302E+04  0.00000000000E+00 0. -1.
   -9000010    2    1    2    0  501  0.19979826981E+03  0.37418296105E+03 -0.10627730052E+04  0.15369101480E+04  0.10259990768E+04 0.  0.
    9000010    2    1    2  502    0 -0.19979826981E+03 -0.37418296105E+03  0.48471799805E+03  0.11826067053E+04  0.99180383384E+03 0.  0.
        -13    1    4    4    0    0  0.36981306991E+02 -0.62946356520E+03  0.59982624267E+02  0.63339555047E+03  0.10566000000E+00 0.  1.
          4    1    4    4  502    0 -0.23677957680E+03  0.25528060415E+03  0.42473537379E+03  0.54921115483E+03  0.00000000000E+00 0.  1.
         13    1    3    3    0    0  0.56299035270E+03  0.40694745997E+03 -0.46249365463E+03  0.83454464479E+03  0.10566000000E+00 0. -1.
         -4    1    3    3    0  501 -0.36319208289E+03 -0.32764498913E+02 -0.60027935053E+03  0.70236550324E+03  0.00000000000E+00 0. -1.
<mgrwt>
<rscale>  0 0.10943536E+04</rscale>
<asrwt>0</asrwt>
<pdfrwt beam="1">  1        4 0.16472784E+00 0.10787062E+04</pdfrwt>
<pdfrwt beam="2">  1       -4 0.25365937E+00 0.11102281E+04</pdfrwt>
<totfact> 0.17344461E-01</totfact>
</mgrwt>
</event>
<event>
 8    1  0.2939692E-006  0.1114400E+04  0.7818608E-02  0.8704519E-01
         -4   -1    0    0    0  501 -0.00000000000E+00  0.00000000000E+00  0.16876799354E+04  0.16876799354E+04  0.00000000000E+00 0. -1.
          4   -1    0    0  502    0  0.00000000000E+00 -0.00000000000E+00 -0.11403427453E+04  0.11403427453E+04  0.00000000000E+00 0.  1.
   -9000010    2    1    2    0  501  0.24375769277E+03  0.23289278076E+03  0.11570815162E+04  0.15577175248E+04  0.98690900889E+03 0.  0.
    9000010    2    1    2  502    0 -0.24375769277E+03 -0.23289278076E+03 -0.60974432609E+03  0.12703051558E+04  0.10621818044E+04 0.  0.
        -13    1    4    4    0    0 -0.36661184245E+03  0.34945573238E+03 -0.18538063817E+03  0.53934176928E+03  0.10566000000E+00 0.  1.
          4    1    4    4  502    0  0.12285414968E+03 -0.58234851314E+03 -0.42436368792E+03  0.73096338655E+03  0.00000000000E+00 0.  1.
         13    1    3    3    0    0 -0.13830707106E+03 -0.33271515290E+03  0.39438962429E+03  0.53420165274E+03  0.10566000000E+00 0. -1.
         -4    1    3    3    0  501  0.38206476383E+03  0.56560793366E+03  0.76269189191E+03  0.10235158721E+04  0.00000000000E+00 0. -1.
<mgrwt>
<rscale>  0 0.10780588E+04</rscale>
<asrwt>0</asrwt>
<pdfrwt beam="2">  1        4 0.17543734E+00 0.11143999E+04</pdfrwt>
<pdfrwt beam="1">  1       -4 0.25964307E+00 0.10429028E+04</pdfrwt>
<totfact> 0.15426340E-01</totfact>
</mgrwt>
</event>
<event>
 8    1  0.2939692E-006  0.1091665E+04  0.7818608E-02  0.8693418E-01
          4   -1    0    0  502    0  0.00000000000E+00  0.00000000000E+00  0.85943794623E+03  0.85943794623E+03  0.00000000000E+00 0.  1.
         -4   -1    0    0    0  501 -0.00000000000E+00 -0.00000000000E+00 -0.21588699674E+04  0.21588699674E+04  0.00000000000E+00 0. -1.
   -9000010    2    1    2    0  501 -0.39307582671E+03 -0.17732069419E+03 -0.15533753804E+04  0.18986069600E+04  0.10028868738E+04 0.  0.
    9000010    2    1    2  502    0  0.39307582671E+03  0.17732069419E+03  0.25394335927E+03  0.11197009537E+04  0.10016445287E+04 0.  0.
        -13    1    4    4    0    0  0.65537386852E+03  0.25834610457E+03  0.39858563433E+03  0.80939986184E+03  0.10566000000E+00 0.  1.
          4    1    4    4  502    0 -0.26229804180E+03 -0.81025410385E+02 -0.14464227506E+03  0.31030109184E+03  0.00000000000E+00 0.  1.
         13    1    3    3    0    0 -0.41792617838E+03  0.22184969985E+03 -0.13869150872E+04  0.14654054218E+04  0.10566000000E+00 0. -1.
         -4    1    3    3    0  501  0.24850351671E+02 -0.39917039404E+03 -0.16646029323E+03  0.43320153818E+03  0.00000000000E+00 0. -1.
<mgrwt>
<rscale>  0 0.10910946E+04</rscale>
<asrwt>0</asrwt>
<pdfrwt beam="1">  1        4 0.13222122E+00 0.10905242E+04</pdfrwt>
<pdfrwt beam="2">  1       -4 0.33213383E+00 0.10916654E+04</pdfrwt>
<totfact> 0.14986241E-01</totfact>
</mgrwt>
</event>
<event>
 8    1  0.2939692E-006  0.1011971E+04  0.7818608E-02  0.8768916E-01
         -4   -1    0    0    0  501 -0.00000000000E+00  0.00000000000E+00  0.80346259507E+03  0.80346259507E+03  0.00000000000E+00 0. -1.
          4   -1    0    0  502    0  0.00000000000E+00 -0.00000000000E+00 -0.35959829368E+04  0.35959829368E+04  0.00000000000E+00 0.  1.
   -9000010    2    1    2    0  501 -0.51894292930E+02 -0.12605709476E+03  0.37388310048E+03  0.10788298132E+04  0.10027471188E+04 0.  0.
    9000010    2    1    2  502    0  0.51894292930E+02  0.12605709476E+03 -0.31664034422E+04  0.33206157187E+04  0.99085548061E+03 0.  0.
        -13    1    4    4    0    0  0.33732384422E+03 -0.24645163533E+03 -0.74483786681E+03  0.85399604416E+03  0.10566000000E+00 0.  1.
          4    1    4    4  502    0 -0.28542955129E+03  0.37250873008E+03 -0.24215655754E+04  0.24666196745E+04  0.00000000000E+00 0.  1.
         13    1    3    3    0    0  0.38685500291E+02  0.30564948246E+01 -0.34280411786E+03  0.34499360064E+03  0.10566000000E+00 0. -1.
         -4    1    3    3    0  501 -0.90579793221E+02 -0.12911358958E+03  0.71668721834E+03  0.73383621258E+03  0.00000000000E+00 0. -1.
<mgrwt>
<rscale>  0 0.10060627E+04</rscale>
<asrwt>0</asrwt>
<pdfrwt beam="2">  1        4 0.55322814E+00 0.10001890E+04</pdfrwt>
<pdfrwt beam="1">  1       -4 0.12360963E+00 0.10119709E+04</pdfrwt>
<totfact> 0.19214028E-02</totfact>
</mgrwt>
</event>
<event>
 8    1  0.2939692E-006  0.1135398E+04  0.7818608E-02  0.8659570E-01
          4   -1    0    0  502    0  0.00000000000E+00  0.00000000000E+00  0.93709294786E+03  0.93709294786E+03  0.00000000000E+00 0.  1.
         -4   -1    0    0    0  501 -0.00000000000E+00 -0.00000000000E+00 -0.20298766678E+04  0.20298766678E+04  0.00000000000E+00 0. -1.
   -9000010    2    1    2    0  501 -0.32693389141E+03 -0.42974996140E+03 -0.13926831452E+04  0.17926326203E+04  0.99115819617E+03 0.  0.
    9000010    2    1    2  502    0  0.32693389141E+03  0.42974996140E+03  0.29989942521E+03  0.11743369954E+04  0.99877771042E+03 0.  0.
        -13    1    4    4    0    0  0.51830463919E+03  0.26577756394E+03 -0.19889240350E+03  0.61549623218E+03  0.10566000000E+00 0.  1.
          4    1    4    4  502    0 -0.19137074778E+03  0.16397239746E+03  0.49879182871E+03  0.55884076321E+03  0.00000000000E+00 0.  1.
         13    1    3    3    0    0 -0.10001495751E+03 -0.55821681702E+03 -0.14213428280E+04  0.15303020788E+04  0.10566000000E+00 0. -1.
         -4    1    3    3    0  501 -0.22691893390E+03  0.12846685562E+03  0.28659682871E+02  0.26233054145E+03  0.00000000000E+00 0. -1.
<mgrwt>
<rscale>  0 0.11320442E+04</rscale>
<asrwt>0</asrwt>
<pdfrwt beam="1">  1        4 0.14416815E+00 0.11353976E+04</pdfrwt>
<pdfrwt beam="2">  1       -4 0.31228872E+00 0.11287007E+04</pdfrwt>
<totfact> 0.14897421E-01</totfact>
</mgrwt>
</event>
<event>
 8    1  0.2939692E-006  0.1068444E+04  0.7818608E-02  0.8716976E-01
          4   -1    0    0  502    0  0.00000000000E+00  0.00000000000E+00  0.17880296943E+04  0.17880296943E+04  0.00000000000E+00 0.  1.
         -4   -1    0    0    0  501 -0.00000000000E+00 -0.00000000000E+00 -0.24213517963E+04  0.24213517963E+04  0.00000000000E+00 0. -1.
   -9000010    2    1    2    0  501  0.17699874621E+03 -0.31818770225E+03 -0.21259312516E+04  0.23793182705E+04  0.10044898085E+04 0.  0.
    9000010    2    1    2  502    0 -0.17699874621E+03  0.31818770225E+03  0.14926091497E+04  0.18300632201E+04  0.99432255626E+03 0.  0.
        -13    1    4    4    0    0 -0.24378532655E+02  0.66461632299E+03  0.10943822405E+04  0.12806176905E+04  0.10566000000E+00 0.  1.
          4    1    4    4  502    0 -0.15262021355E+03 -0.34642862074E+03  0.39822690915E+03  0.54944552962E+03  0.00000000000E+00 0.  1.
         13    1    3    3    0    0  0.52787254283E+03 -0.15896364114E+03 -0.64218172905E+03  0.84635468036E+03  0.10566000000E+00 0. -1.
         -4    1    3    3    0  501 -0.35087379662E+03 -0.15922406111E+03 -0.14837495226E+04  0.15329635901E+04  0.00000000000E+00 0. -1.
<mgrwt>
<rscale>  0 0.10636564E+04</rscale>
<asrwt>0</asrwt>
<pdfrwt beam="1">  1        4 0.27508149E+00 0.10588906E+04</pdfrwt>
<pdfrwt beam="2">  1       -4 0.37251566E+00 0.10684436E+04</pdfrwt>
<totfact> 0.39933907E-02</totfact>
</mgrwt>
</event>
<event>
 8    1  0.2939692E-006  0.1247824E+04  0.7818608E-02  0.8599723E-01
         -4   -1    0    0    0  501 -0.00000000000E+00  0.00000000000E+00  0.88509066574E+03  0.88509066574E+03  0.00000000000E+00 0. -1.
          4   -1    0    0  502    0  0.00000000000E+00 -0.00000000000E+00 -0.26702528401E+04  0.26702528401E+04  0.00000000000E+00 0.  1.
   -9000010    2    1    2    0  501  0.58308833341E+03 -0.19823665815E+03  0.22146789205E+03  0.11923732851E+04  0.99670268722E+03 0.  0.
    9000010    2    1    2  502    0 -0.58308833341E+03  0.19823665815E+03 -0.20066300664E+04  0.23629702207E+04  0.10852530872E+04 0.  0.
        -13    1    4    4    0    0 -0.73702533521E+03  0.50506644966E+03 -0.13008488249E+04  0.15781337521E+04  0.10566000000E+00 0.  1.
          4    1    4    4  502    0  0.15393700180E+03 -0.30682979151E+03 -0.70578124155E+03  0.78483646858E+03  0.00000000000E+00 0.  1.
         13    1    3    3    0    0  0.10326218205E+03  0.17978253557E+03 -0.31653067781E+03  0.37838673272E+03  0.10566000000E+00 0. -1.
         -4    1    3    3    0  501  0.47982615136E+03 -0.37801919372E+03  0.53799856987E+03  0.81398655242E+03  0.00000000000E+00 0. -1.
<mgrwt>
<rscale>  0 0.12091245E+04</rscale>
<asrwt>0</asrwt>
<pdfrwt beam="2">  1        4 0.41080813E+00 0.12478237E+04</pdfrwt>
<pdfrwt beam="1">  1       -4 0.13616780E+00 0.11716254E+04</pdfrwt>
<totfact> 0.73371960E-02</totfact>
</mgrwt>
</event>
<event>
 8    1  0.2939692E-006  0.1520130E+04  0.7818608E-02  0.8398266E-01
          4   -1    0    0  502    0  0.00000000000E+00  0.00000000000E+00  0.21079003162E+04  0.21079003162E+04  0.00000000000E+00 0.  1.
         -4   -1    0    0    0  501 -0.00000000000E+00 -0.00000000000E+00 -0.17003665707E+04  0.17003665707E+04  0.00000000000E+00 0. -1.
   -9000010    2    1    2    0  501 -0.47235496913E+03  0.10251076449E+04 -0.93178196347E+03  0.17829788389E+04  0.10182489931E+04 0.  0.
    9000010    2    1    2  502    0  0.47235496913E+03 -0.10251076449E+04  0.13393157090E+04  0.20252880481E+04  0.10168875104E+04 0.  0.
        -13    1    4    4    0    0  0.67288334471E+03 -0.10302465097E+04  0.84748951862E+03  0.14941279603E+04  0.10566000000E+00 0.  1.
          4    1    4    4  502    0 -0.20052837558E+03  0.51388647941E+01  0.49182619035E+03  0.53116008778E+03  0.00000000000E+00 0.  1.
         13    1    3    3    0    0 -0.72865816070E+03  0.10033354702E+04 -0.88015160029E+03  0.15206221199E+04  0.10566000000E+00 0. -1.
         -4    1    3    3    0  501  0.25630319157E+03  0.21772174727E+02 -0.51630363178E+02  0.26235671899E+03  0.00000000000E+00 0. -1.
<mgrwt>
<rscale>  0 0.15196743E+04</rscale>
<asrwt>0</asrwt>
<pdfrwt beam="1">  1        4 0.32429236E+00 0.15192186E+04</pdfrwt>
<pdfrwt beam="2">  1       -4 0.26159486E+00 0.15201302E+04</pdfrwt>
<totfact> 0.59154326E-02</totfact>
</mgrwt>
</event>
<event>
 8    1  0.2939692E-006  0.1176791E+04  0.7818608E-02  0.8628845E-01
          4   -1    0    0  502    0  0.00000000000E+00  0.00000000000E+00  0.23288835133E+04  0.23288835133E+04  0.00000000000E+00 0.  1.
         -4   -1    0    0    0  501 -0.00000000000E+00 -0.00000000000E+00 -0.11006920781E+04  0.11006920781E+04  0.00000000000E+00 0. -1.
   -9000010    2    1    2    0  501 -0.60235060375E+03  0.99251581479E+02 -0.55713006918E+03  0.12913030713E+04  0.99216560197E+03 0.  0.
    9000010    2    1    2  502    0  0.60235060375E+03 -0.99251581479E+02  0.17853215044E+04  0.21382725201E+04  0.10060613151E+04 0.  0.
        -13    1    4    4    0    0  0.23132504474E+03  0.45350777499E+03  0.83514245500E+03  0.97808154548E+03  0.10566000000E+00 0.  1.
          4    1    4    4  502    0  0.37102555901E+03 -0.55275935647E+03  0.95017904940E+03  0.11601909746E+04  0.00000000000E+00 0.  1.
         13    1    3    3    0    0 -0.75166847598E+03  0.33614051039E+03 -0.21852174404E+03  0.85190827223E+03  0.10566000000E+00 0. -1.
         -4    1    3    3    0  501  0.14931787223E+03 -0.23688892891E+03 -0.33860832514E+03  0.43939479908E+03  0.00000000000E+00 0. -1.
<mgrwt>
<rscale>  0 0.11708470E+04</rscale>
<asrwt>0</asrwt>
<pdfrwt beam="1">  1        4 0.35828977E+00 0.11767908E+04</pdfrwt>
<pdfrwt beam="2">  1       -4 0.16933724E+00 0.11649333E+04</pdfrwt>
<totfact> 0.85264893E-02</totfact>
</mgrwt>
</event>
<event>
 8    1  0.2939692E-006  0.1394286E+04  0.7818608E-02  0.8473834E-01
          4   -1    0    0  502    0  0.00000000000E+00  0.00000000000E+00  0.14236475123E+04  0.14236475123E+04  0.00000000000E+00 0.  1.
         -4   -1    0    0    0  501 -0.00000000000E+00 -0.00000000000E+00 -0.28428105164E+04  0.28428105164E+04  0.00000000000E+00 0. -1.
   -9000010    2    1    2    0  501 -0.65010706445E+03 -0.71968139542E+03 -0.22489150229E+04  0.26460635683E+04  0.10017250725E+04 0.  0.
    9000010    2    1    2  502    0  0.65010706445E+03  0.71968139542E+03  0.82975201877E+03  0.16203944604E+04  0.99830320473E+03 0.  0.
        -13    1    4    4    0    0  0.67946996991E+03  0.20951791577E+03  0.85098944321E+03  0.11089455535E+04  0.10566000000E+00 0.  1.
          4    1    4    4  502    0 -0.29362905460E+02  0.51016347965E+03 -0.21237424443E+02  0.51144890691E+03  0.00000000000E+00 0.  1.
         13    1    3    3    0    0 -0.30031294640E+03  0.20569078169E+03 -0.35033071178E+03  0.50520113047E+03  0.10566000000E+00 0. -1.
         -4    1    3    3    0  501 -0.34979411805E+03 -0.92537217710E+03 -0.18985843111E+04  0.21408624378E+04  0.00000000000E+00 0. -1.
<mgrwt>
<rscale>  0 0.13930573E+04</rscale>
<asrwt>0</asrwt>
<pdfrwt beam="1">  1        4 0.21902270E+00 0.13918297E+04</pdfrwt>
<pdfrwt beam="2">  1       -4 0.43735546E+00 0.13942861E+04</pdfrwt>
<totfact> 0.28696862E-02</totfact>
</mgrwt>
</event>
<event>
 8    1  0.2939692E-006  0.1062155E+04  0.7818608E-02  0.8723518E-01
         -4   -1    0    0    0  501 -0.00000000000E+00  0.00000000000E+00  0.11491542371E+04  0.11491542371E+04  0.00000000000E+00 0. -1.
          4   -1    0    0  502    0  0.00000000000E+00 -0.00000000000E+00 -0.13002535456E+04  0.13002535456E+04  0.00000000000E+00 0.  1.
   -9000010    2    1    2    0  501  0.22380722818E+03  0.29107233390E+03  0.54062569160E+03  0.11918259124E+04  0.99667451464E+03 0.  0.
    9000010    2    1    2  502    0 -0.22380722818E+03 -0.29107233390E+03 -0.69172500016E+03  0.12575818703E+04  0.98397962662E+03 0.  0.
        -13    1    4    4    0    0  0.20985826548E+03  0.23069684266E+03 -0.35837326687E+02  0.31392013308E+03  0.10566000000E+00 0.  1.
          4    1    4    4  502    0 -0.43366549366E+03 -0.52176917656E+03 -0.65588767347E+03  0.94366173718E+03  0.00000000000E+00 0.  1.
         13    1    3    3    0    0  0.36541837712E+03  0.42734934529E+03  0.72828718476E+03  0.92008710887E+03  0.10566000000E+00 0. -1.
         -4    1    3    3    0  501 -0.14161114894E+03 -0.13627701139E+03 -0.18766149315E+03  0.27173880354E+03  0.00000000000E+00 0. -1.
<mgrwt>
<rscale>  0 0.10561865E+04</rscale>
<asrwt>0</asrwt>
<pdfrwt beam="2">  1        4 0.20003901E+00 0.10502517E+04</pdfrwt>
<pdfrwt beam="1">  1       -4 0.17679296E+00 0.10621548E+04</pdfrwt>
<totfact> 0.21483244E-01</totfact>
</mgrwt>
</event>
<event>
 8    1  0.2939692E-006  0.1173465E+04  0.7818608E-02  0.8648844E-01
         -4   -1    0    0    0  501 -0.00000000000E+00  0.00000000000E+00  0.14447530285E+04  0.14447530285E+04  0.00000000000E+00 0. -1.
          4   -1    0    0  502    0  0.00000000000E+00 -0.00000000000E+00 -0.91386404767E+03  0.91386404767E+03  0.00000000000E+00 0.  1.
   -9000010    2    1    2    0  501 -0.28470193702E+03  0.47151512473E+03  0.16975040447E+03  0.11308383765E+04  0.97293295152E+03 0.  0.
    9000010    2    1    2  502    0  0.28470193702E+03 -0.47151512473E+03  0.36113857632E+03  0.12277786996E+04  0.10361649281E+04 0.  0.
        -13    1    4    4    0    0  0.54487798465E+03 -0.61347430049E+03  0.88859234735E+02  0.82531128084E+03  0.10566000000E+00 0.  1.
          4    1    4    4  502    0 -0.26017604763E+03  0.14195917576E+03  0.27227934159E+03  0.40246741880E+03  0.00000000000E+00 0.  1.
         13    1    3    3    0    0 -0.21009487371E+03 -0.28290462093E+03 -0.68072229616E+01  0.35245032267E+03  0.10566000000E+00 0. -1.
         -4    1    3    3    0  501 -0.74607063305E+02  0.75441974566E+03  0.17655762743E+03  0.77838805382E+03  0.00000000000E+00 0. -1.
<mgrwt>
<rscale>  0 0.11454096E+04</rscale>
<asrwt>0</asrwt>
<pdfrwt beam="2">  1        4 0.14059447E+00 0.11734647E+04</pdfrwt>
<pdfrwt beam="1">  1       -4 0.22226970E+00 0.11180251E+04</pdfrwt>
<totfact> 0.26032596E-01</totfact>
</mgrwt>
</event>
<event>
 8    1  0.2939692E-006  0.1296182E+04  0.7818608E-02  0.8540027E-01
         -4   -1    0    0    0  501 -0.00000000000E+00  0.00000000000E+00  0.17853710650E+04  0.17853710650E+04  0.00000000000E+00 0.  1.
          4   -1    0    0  502    0  0.00000000000E+00 -0.00000000000E+00 -0.94505491355E+03  0.94505491355E+03  0.00000000000E+00 0. -1.
   -9000010    2    1    2    0  501 -0.51544746726E+01  0.82422229535E+03  0.28245807362E+03  0.13192941116E+04  0.99064899380E+03 0.  0.
    9000010    2    1    2  502    0  0.51544746726E+01 -0.82422229535E+03  0.55785807779E+03  0.14111318669E+04  0.10003592105E+04 0.  0.
        -13    1    4    4    0    0 -0.11010729571E+03 -0.92681212487E+03  0.72634861820E+03  0.11826608380E+04  0.10566000000E+00 0.  1.
          4    1    4    4  502    0  0.11526177039E+03  0.10258982952E+03 -0.16849054041E+03  0.22847102889E+03  0.00000000000E+00 0.  1.
         13    1    3    3    0    0  0.26136679223E+03 -0.10062603047E+03 -0.79284737197E+02  0.29107435271E+03  0.10566000000E+00 0. -1.
         -4    1    3    3    0  501 -0.26652126691E+03  0.92484832582E+03  0.36174281082E+03  0.10282197589E+04  0.00000000000E+00 0. -1.
<mgrwt>
<rscale>  0 0.12924368E+04</rscale>
<asrwt>0</asrwt>
<pdfrwt beam="2">  1        4 0.14539306E+00 0.12961819E+04</pdfrwt>
<pdfrwt beam="1">  1       -4 0.27467247E+00 0.12887026E+04</pdfrwt>
<totfact> 0.18400247E-01</totfact>
</mgrwt>
</event>
<event>
 8    1  0.2939692E-006  0.1061253E+04  0.7818608E-02  0.8725366E-01
          4   -1    0    0  502    0  0.00000000000E+00  0.00000000000E+00  0.13702603791E+04  0.13702603791E+04  0.00000000000E+00 0.  1.
         -4   -1    0    0    0  501 -0.00000000000E+00 -0.00000000000E+00 -0.81874689434E+03  0.81874689434E+03  0.00000000000E+00 0. -1.
   -9000010    2    1    2    0  501 -0.24530912084E+03 -0.87120344882E+02  0.16680631174E+03  0.10601769515E+04  0.10140928476E+04 0.  0.
    9000010    2    1    2  502    0  0.24530912084E+03  0.87120344882E+02  0.38470717298E+03  0.11288303219E+04  0.10288302909E+04 0.  0.
        -13    1    4    4    0    0  0.27681480163E+03  0.52783501725E+03  0.10307037201E+03  0.60486341647E+03  0.10566000000E+00 0.  1.
          4    1    4    4  502    0 -0.31505680794E+02 -0.44071467237E+03  0.28163680097E+03  0.52396690547E+03  0.00000000000E+00 0.  1.
         13    1    3    3    0    0  0.16610378097E+03  0.15069912920E+03 -0.31287980482E+03  0.38496035773E+03  0.10566000000E+00 0. -1.
         -4    1    3    3    0  501 -0.41141290181E+03 -0.23781947409E+03  0.47968611656E+03  0.67521659373E+03  0.00000000000E+00 0. -1.
<mgrwt>
<rscale>  0 0.10540885E+04</rscale>
<asrwt>0</asrwt>
<pdfrwt beam="1">  1        4 0.21080929E+00 0.10612532E+04</pdfrwt>
<pdfrwt beam="2">  1       -4 0.12596106E+00 0.10469722E+04</pdfrwt>
<totfact> 0.33140905E-01</totfact>
</mgrwt>
</event>
<event>
 8    1  0.2939692E-006  0.1023697E+04  0.7818608E-02  0.8762095E-01
         -4   -1    0    0    0  501 -0.00000000000E+00  0.00000000000E+00  0.87121272882E+03  0.87121272882E+03  0.00000000000E+00 0. -1.
          4   -1    0    0  502    0  0.00000000000E+00 -0.00000000000E+00 -0.28416871061E+04  0.28416871061E+04  0.00000000000E+00 0.  1.
   -9000010    2    1    2    0  501 -0.19605060897E+03  0.11053656534E+03  0.43892974553E+03  0.10950413767E+04  0.97765132925E+03 0.  0.
    9000010    2    1    2  502    0  0.19605060897E+03 -0.11053656534E+03 -0.24094041228E+04  0.26178584583E+04  0.99864934128E+03 0.  0.
        -13    1    4    4    0    0 -0.35068290490E+03 -0.28255014949E+03 -0.10348970524E+04  0.11286385635E+04  0.10566000000E+00 0.  1.
          4    1    4    4  502    0  0.54673351388E+03  0.17201358415E+03 -0.13745070705E+04  0.14892198948E+04  0.00000000000E+00 0.  1.
         13    1    3    3    0    0 -0.93924407141E+02  0.54210404111E+03  0.31754601877E+03  0.63524331626E+03  0.10566000000E+00 0. -1.
         -4    1    3    3    0  501 -0.10212620183E+03 -0.43156747578E+03  0.12138372676E+03  0.45979806042E+03  0.00000000000E+00 0. -1.
<mgrwt>
<rscale>  0 0.10134081E+04</rscale>
<asrwt>0</asrwt>
<pdfrwt beam="2">  1        4 0.43718263E+00 0.10236966E+04</pdfrwt>
<pdfrwt beam="1">  1       -4 0.13403273E+00 0.10032230E+04</pdfrwt>
<totfact> 0.59337443E-02</totfact>
</mgrwt>
</event>
<event>
 8    1  0.2939692E-006  0.1076046E+04  0.7818608E-02  0.8713185E-01
          4   -1    0    0  502    0  0.00000000000E+00  0.00000000000E+00  0.37425659389E+04  0.37425659389E+04  0.00000000000E+00 0.  1.
         -4   -1    0    0    0  501 -0.00000000000E+00 -0.00000000000E+00 -0.20652934603E+04  0.20652934603E+04  0.00000000000E+00 0. -1.
   -9000010    2    1    2    0  501 -0.22134284455E+02  0.36314062654E+03 -0.18433794698E+04  0.21264377408E+04  0.99565483700E+03 0.  0.
    9000010    2    1    2  502    0  0.22134284455E+02 -0.36314062654E+03  0.35206519484E+04  0.36814216585E+04  0.10126767720E+04 0.  0.
        -13    1    4    4    0    0  0.29651561186E+03 -0.54546432487E+03  0.30126156039E+04  0.30759235403E+04  0.10566000000E+00 0.  1.
          4    1    4    4  502    0 -0.27438132740E+03  0.18232369833E+03  0.50803634453E+03  0.60549811822E+03  0.00000000000E+00 0.  1.
         13    1    3    3    0    0  0.13641030060E+03 -0.23110209560E+03 -0.11512423118E+03  0.29200950065E+03  0.10566000000E+00 0. -1.
         -4    1    3    3    0  501 -0.15854458505E+03  0.59424272214E+03 -0.17282552386E+04  0.18344282401E+04  0.00000000000E+00 0. -1.
<mgrwt>
<rscale>  0 0.10680142E+04</rscale>
<asrwt>0</asrwt>
<pdfrwt beam="1">  1        4 0.57577938E+00 0.10760461E+04</pdfrwt>
<pdfrwt beam="2">  1       -4 0.31773745E+00 0.10600423E+04</pdfrwt>
<totfact> 0.35701656E-03</totfact>
</mgrwt>
</event>
<event>
 8    1  0.2939692E-006  0.1096708E+04  0.7818608E-02  0.8690284E-01
          4   -1    0    0  502    0  0.00000000000E+00  0.00000000000E+00  0.23931893296E+04  0.23931893296E+04  0.00000000000E+00 0.  1.
         -4   -1    0    0    0  501 -0.00000000000E+00 -0.00000000000E+00 -0.88952670816E+03  0.88952670816E+03  0.00000000000E+00 0. -1.
   -9000010    2    1    2    0  501 -0.45806661834E+03 -0.90498978749E+02 -0.33388241935E+03  0.11427769715E+04  0.98815314834E+03 0.  0.
    9000010    2    1    2  502    0  0.45806661834E+03  0.90498978749E+02  0.18375450408E+04  0.21399390663E+04  0.99234688415E+03 0.  0.
        -13    1    4    4    0    0  0.69329728026E+03  0.30705598180E+03  0.14603064332E+04  0.16454298481E+04  0.10566000000E+00 0.  1.
          4    1    4    4  502    0 -0.23523066192E+03 -0.21655700305E+03  0.37723860754E+03  0.49450921821E+03  0.00000000000E+00 0.  1.
         13    1    3    3    0    0 -0.65205340027E+03 -0.37111495813E+03 -0.20152293006E+03  0.77685999475E+03  0.10566000000E+00 0. -1.
         -4    1    3    3    0  501  0.19398678192E+03  0.28061597938E+03 -0.13235948929E+03  0.36591697671E+03  0.00000000000E+00 0. -1.
<mgrwt>
<rscale>  0 0.10948093E+04</rscale>
<asrwt>0</asrwt>
<pdfrwt beam="1">  1        4 0.36818297E+00 0.10967075E+04</pdfrwt>
<pdfrwt beam="2">  1       -4 0.13685026E+00 0.10929143E+04</pdfrwt>
<totfact> 0.10775953E-01</totfact>
</mgrwt>
</event>
<event>
 8    1  0.2939692E-006  0.1172098E+04  0.7818608E-02  0.8632867E-01
          4   -1    0    0  502    0  0.00000000000E+00  0.00000000000E+00  0.16130171875E+04  0.16130171875E+04  0.00000000000E+00 0.  1.
         -4   -1    0    0    0  501 -0.00000000000E+00 -0.00000000000E+00 -0.10235503914E+04  0.10235503914E+04  0.00000000000E+00 0. -1.
   -9000010    2    1    2    0  501 -0.56482650196E+03  0.23774650631E+03 -0.25848481085E+03  0.12002619492E+04  0.99913060738E+03 0.  0.
    9000010    2    1    2  502    0  0.56482650196E+03 -0.23774650631E+03  0.84795160689E+03  0.14363056298E+04  0.98407294235E+03 0.  0.
        -13    1    4    4    0    0  0.41061673389E+03 -0.97625272522E+02 -0.12587865777E+03  0.44043415357E+03  0.10566000000E+00 0.  1.
          4    1    4    4  502    0  0.15420976807E+03 -0.14012123379E+03  0.97383026465E+03  0.99587147619E+03  0.00000000000E+00 0.  1.
         13    1    3    3    0    0  0.24573439202E+03 -0.13417895227E+03 -0.73380308336E+02  0.28943749493E+03  0.10566000000E+00 0. -1.
         -4    1    3    3    0  501 -0.81056089398E+03  0.37192545858E+03 -0.18510450251E+03  0.91082445424E+03  0.00000000000E+00 0. -1.
<mgrwt>
<rscale>  0 0.11656762E+04</rscale>
<asrwt>0</asrwt>
<pdfrwt beam="1">  1        4 0.24815649E+00 0.11592894E+04</pdfrwt>
<pdfrwt beam="2">  1       -4 0.15746929E+00 0.11720983E+04</pdfrwt>
<totfact> 0.19021542E-01</totfact>
</mgrwt>
</event>
<event>
 8    1  0.2939692E-006  0.1558241E+04  0.7818608E-02  0.8379894E-01
         -4   -1    0    0    0  501 -0.00000000000E+00  0.00000000000E+00  0.15562570046E+04  0.15562570046E+04  0.00000000000E+00 0.  1.
          4   -1    0    0  502    0  0.00000000000E+00 -0.00000000000E+00 -0.17160610285E+04  0.17160610285E+04  0.00000000000E+00 0. -1.
   -9000010    2    1    2    0  501 -0.98311174764E+03 -0.67655093260E+03  0.43112008453E+03  0.16057924293E+04  0.98411123651E+03 0.  0.
    9000010    2    1    2  502    0  0.98311174764E+03  0.67655093260E+03 -0.59092410836E+03  0.16665256039E+04  0.10019413225E+04 0.  0.
        -13    1    4    4    0    0  0.72550722127E+03  0.83450753875E+03 -0.12725814488E+03  0.11130849954E+04  0.10566000000E+00 0.  1.
          4    1    4    4  502    0  0.25760452637E+03 -0.15795660615E+03 -0.46366596348E+03  0.55344060849E+03  0.00000000000E+00 0.  1.
         13    1    3    3    0    0  0.10854443577E+03 -0.40380319674E+03  0.69328981965E+02  0.42384600404E+03  0.10566000000E+00 0. -1.
         -4    1    3    3    0  501 -0.10916561834E+04 -0.27274773586E+03  0.36179110257E+03  0.11819464252E+04  0.00000000000E+00 0. -1.
<mgrwt>
<rscale>  0 0.15525287E+04</rscale>
<asrwt>0</asrwt>
<pdfrwt beam="2">  1        4 0.26400939E+00 0.15582414E+04</pdfrwt>
<pdfrwt beam="1">  1       -4 0.23942416E+00 0.15468370E+04</pdfrwt>
<totfact> 0.97107909E-02</totfact>
</mgrwt>
</event>
<event>
 8    1  0.2939692E-006  0.1750345E+04  0.7818608E-02  0.8282068E-01
          4   -1    0    0  502    0  0.00000000000E+00  0.00000000000E+00  0.31616766118E+04  0.31616766118E+04  0.00000000000E+00 0.  1.
         -4   -1    0    0    0  501 -0.00000000000E+00 -0.00000000000E+00 -0.12443694621E+04  0.12443694621E+04  0.00000000000E+00 0. -1.
   -9000010    2    1    2    0  501  0.13903365537E+04  0.32529062504E+03 -0.90205052350E+02  0.17526679220E+04  0.10123527893E+04 0.  0.
    9000010    2    1    2  502    0 -0.13903365537E+04 -0.32529062504E+03  0.20075122020E+04  0.26533781519E+04  0.98562703524E+03 0.  0.
        -13    1    4    4    0    0 -0.74737261823E+03  0.28305807228E+03  0.63750417859E+03  0.10223009790E+04  0.10566000000E+00 0.  1.
          4    1    4    4  502    0 -0.64296393550E+03 -0.60834869732E+03  0.13700080234E+04  0.16310771730E+04  0.00000000000E+00 0.  1.
         13    1    3    3    0    0  0.13284988574E+04 -0.78622891943E+02  0.14284852398E+02  0.13309000118E+04  0.10566000000E+00 0. -1.
         -4    1    3    3    0  501  0.61837696354E+02  0.40391351699E+03 -0.10448990475E+03  0.42176791022E+03  0.00000000000E+00 0. -1.
<mgrwt>
<rscale>  0 0.17426680E+04</rscale>
<asrwt>0</asrwt>
<pdfrwt beam="1">  1        4 0.48641178E+00 0.17350246E+04</pdfrwt>
<pdfrwt beam="2">  1       -4 0.19144146E+00 0.17503451E+04</pdfrwt>
<totfact> 0.19491866E-02</totfact>
</mgrwt>
</event>
<event>
 8    1  0.2939692E-006  0.1224650E+04  0.7818608E-02  0.8603009E-01
          4   -1    0    0  502    0  0.00000000000E+00  0.00000000000E+00  0.68676844615E+03  0.68676844615E+03  0.00000000000E+00 0.  1.
         -4   -1    0    0    0  501 -0.00000000000E+00 -0.00000000000E+00 -0.36825875727E+04  0.36825875727E+04  0.00000000000E+00 0. -1.
   -9000010    2    1    2    0  501 -0.79637589575E+02  0.68688606261E+03 -0.29095642467E+04  0.31416725364E+04  0.96249031744E+03 0.  0.
    9000010    2    1    2  502    0  0.79637589575E+02 -0.68688606261E+03 -0.86254879816E+02  0.12276834825E+04  0.10107483466E+04 0.  0.
        -13    1    4    4    0    0 -0.37195353527E+02 -0.88369411259E+03 -0.28008169402E+03  0.92776319470E+03  0.10566000000E+00 0.  1.
          4    1    4    4  502    0  0.11683294310E+03  0.19680804998E+03  0.19382681420E+03  0.29992028780E+03  0.00000000000E+00 0.  1.
         13    1    3    3    0    0 -0.76298918733E+02  0.84371922075E+03 -0.28510412980E+04  0.29742427847E+04  0.10566000000E+00 0. -1.
         -4    1    3    3    0  501 -0.33386708424E+01 -0.15683315813E+03 -0.58522948785E+02  0.16742975168E+03  0.00000000000E+00 0. -1.
<mgrwt>
<rscale>  0 0.12047298E+04</rscale>
<asrwt>0</asrwt>
<pdfrwt beam="1">  1        4 0.10565668E+00 0.12246497E+04</pdfrwt>
<pdfrwt beam="2">  1       -4 0.56655193E+00 0.11851338E+04</pdfrwt>
<totfact> 0.20841605E-02</totfact>
</mgrwt>
</event>
<event>
 8    1  0.2939692E-006  0.1263433E+04  0.7818608E-02  0.8572601E-01
          4   -1    0    0  502    0  0.00000000000E+00  0.00000000000E+00  0.82974049949E+03  0.82974049949E+03  0.00000000000E+00 0.  1.
         -4   -1    0    0    0  501 -0.00000000000E+00 -0.00000000000E+00 -0.37456558603E+04  0.37456558603E+04  0.00000000000E+00 0. -1.
   -9000010    2    1    2    0  501  0.72076672561E+03 -0.27477815380E+03 -0.30859749591E+04  0.33345920702E+04  0.10006273634E+04 0.  0.
    9000010    2    1    2  502    0 -0.72076672561E+03  0.27477815380E+03  0.17005959824E+03  0.12408042896E+04  0.95690506921E+03 0.  0.
        -13    1    4    4    0    0 -0.65825590571E+03  0.38514343203E+03 -0.24955187574E+03  0.80244155581E+03  0.10566000000E+00 0.  1.
          4    1    4    4  502    0 -0.62510819903E+02 -0.11036527822E+03  0.41961147398E+03  0.43836273375E+03  0.00000000000E+00 0.  1.
         13    1    3    3    0    0  0.13804641777E+02 -0.28838400621E+03 -0.21085108414E+04  0.21281855846E+04  0.10566000000E+00 0. -1.
         -4    1    3    3    0  501  0.70696208384E+03  0.13605852408E+02 -0.97746411766E+03  0.12064064856E+04  0.00000000000E+00 0. -1.
<mgrwt>
<rscale>  0 0.12461458E+04</rscale>
<asrwt>0</asrwt>
<pdfrwt beam="1">  1        4 0.12765239E+00 0.12290952E+04</pdfrwt>
<pdfrwt beam="2">  1       -4 0.57625474E+00 0.12634330E+04</pdfrwt>
<totfact> 0.13145488E-02</totfact>
</mgrwt>
</event>
<event>
 8    1  0.2939692E-006  0.1172244E+04  0.7818608E-02  0.8662071E-01
          4   -1    0    0  502    0  0.00000000000E+00  0.00000000000E+00  0.60804222141E+03  0.60804222141E+03  0.00000000000E+00 0.  1.
         -4   -1    0    0    0  501 -0.00000000000E+00 -0.00000000000E+00 -0.28709273270E+04  0.28709273270E+04  0.00000000000E+00 0. -1.
   -9000010    2    1    2    0  501  0.33298509656E+03 -0.31680286823E+03 -0.20640077435E+04  0.23736644678E+04  0.10783839338E+04 0.  0.
    9000010    2    1    2  502    0 -0.33298509656E+03  0.31680286823E+03 -0.19887736210E+03  0.11053050806E+04  0.98534460174E+03 0.  0.
        -13    1    4    4    0    0  0.65493999167E+02  0.96241594544E+02  0.36346942654E+03  0.38165684016E+03  0.10566000000E+00 0.  1.
          4    1    4    4  502    0 -0.39847909573E+03  0.22056127369E+03 -0.56234678864E+03  0.72364824043E+03  0.00000000000E+00 0.  1.
         13    1    3    3    0    0  0.92950000696E+02  0.28499106062E+03 -0.11717574027E+03  0.32185365080E+03  0.10566000000E+00 0. -1.
         -4    1    3    3    0  501  0.24003509586E+03 -0.60179392886E+03 -0.19468320032E+04  0.20518108170E+04  0.00000000000E+00 0. -1.
<mgrwt>
<rscale>  0 0.11289555E+04</rscale>
<asrwt>0</asrwt>
<pdfrwt beam="1">  1        4 0.93544959E-01 0.10872659E+04</pdfrwt>
<pdfrwt beam="2">  1       -4 0.44168112E+00 0.11722436E+04</pdfrwt>
<totfact> 0.10543031E-01</totfact>
</mgrwt>
</event>
<event>
 8    1  0.2939692E-006  0.1223505E+04  0.7818608E-02  0.8622736E-01
         -4   -1    0    0    0  501 -0.00000000000E+00  0.00000000000E+00  0.29355775566E+04  0.29355775566E+04  0.00000000000E+00 0. -1.
          4   -1    0    0  502    0  0.00000000000E+00 -0.00000000000E+00 -0.58423408666E+03  0.58423408666E+03  0.00000000000E+00 0.  1.
   -9000010    2    1    2    0  501 -0.40208972843E+03  0.42324508733E+03  0.19042648530E+04  0.22171817392E+04  0.97409326075E+03 0.  0.
    9000010    2    1    2  502    0  0.40208972843E+03 -0.42324508733E+03  0.44707861703E+03  0.13026299041E+04  0.10752454714E+04 0.  0.
        -13    1    4    4    0    0 -0.20160111401E+03 -0.48699911060E+03  0.45383997852E+03  0.69554430496E+03  0.10566000000E+00 0.  1.
          4    1    4    4  502    0  0.60369084243E+03  0.63754023267E+02 -0.67613614949E+01  0.60708559918E+03  0.00000000000E+00 0.  1.
         13    1    3    3    0    0 -0.50600091369E+03 -0.16852120192E+02  0.39649614960E+03  0.64306308121E+03  0.10566000000E+00 0. -1.
         -4    1    3    3    0  501  0.10391118526E+03  0.44009720752E+03  0.15077687034E+04  0.15741186580E+04  0.00000000000E+00 0. -1.
<mgrwt>
<rscale>  0 0.11787524E+04</rscale>
<asrwt>0</asrwt>
<pdfrwt beam="2">  1        4 0.89882168E-01 0.12235054E+04</pdfrwt>
<pdfrwt beam="1">  1       -4 0.45162731E+00 0.11356365E+04</pdfrwt>
<totfact> 0.10314417E-01</totfact>
</mgrwt>
</event>
<event>
 8    1  0.2939692E-006  0.1107408E+04  0.7818608E-02  0.8682520E-01
          4   -1    0    0  502    0  0.00000000000E+00  0.00000000000E+00  0.11492346393E+04  0.11492346393E+04  0.00000000000E+00 0.  1.
         -4   -1    0    0    0  501 -0.00000000000E+00 -0.00000000000E+00 -0.14754264495E+04  0.14754264495E+04  0.00000000000E+00 0. -1.
   -9000010    2    1    2    0  501 -0.44519309213E+03 -0.13681029131E+03 -0.85921067080E+03  0.14016404978E+04  0.10047084966E+04 0.  0.
    9000010    2    1    2  502    0  0.44519309213E+03  0.13681029131E+03  0.53301886065E+03  0.12230205910E+04  0.99737471149E+03 0.  0.
        -13    1    4    4    0    0  0.76521967795E+03  0.10769072328E+03  0.31392951390E+03  0.83409243988E+03  0.10566000000E+00 0.  1.
          4    1    4    4  502    0 -0.32002658582E+03  0.29119568034E+02  0.21908934675E+03  0.38892815112E+03  0.00000000000E+00 0.  1.
         13    1    3    3    0    0 -0.62536369380E+03  0.24420376588E+03 -0.41480915558E+03  0.78916530304E+03  0.10566000000E+00 0. -1.
         -4    1    3    3    0  501  0.18017060167E+03 -0.38101405719E+03 -0.44440151522E+03  0.61247519478E+03  0.00000000000E+00 0. -1.
<mgrwt>
<rscale>  0 0.11040786E+04</rscale>
<asrwt>0</asrwt>
<pdfrwt beam="1">  1        4 0.17680533E+00 0.11007589E+04</pdfrwt>
<pdfrwt beam="2">  1       -4 0.22698868E+00 0.11074083E+04</pdfrwt>
<totfact> 0.18232729E-01</totfact>
</mgrwt>
</event>
<event>
 8    1  0.2939692E-006  0.1030599E+04  0.7818608E-02  0.8747783E-01
          4   -1    0    0  502    0  0.00000000000E+00  0.00000000000E+00  0.81165217879E+03  0.81165217879E+03  0.00000000000E+00 0.  1.
         -4   -1    0    0    0  501 -0.00000000000E+00 -0.00000000000E+00 -0.18495606735E+04  0.18495606735E+04  0.00000000000E+00 0. -1.
   -9000010    2    1    2    0  501  0.76727831603E+02 -0.13312933519E+03 -0.12417568936E+04  0.16137207709E+04  0.10190799593E+04 0.  0.
    9000010    2    1    2  502    0 -0.76727831603E+02  0.13312933519E+03  0.20384839892E+03  0.10474920815E+04  0.10159108775E+04 0.  0.
        -13    1    4    4    0    0 -0.34466622227E+03  0.35466901635E+03 -0.18304322937E+03  0.52734215734E+03  0.10566000000E+00 0.  1.
          4    1    4    4  502    0  0.26793839067E+03 -0.22153968116E+03  0.38689162828E+03  0.52014992411E+03  0.00000000000E+00 0.  1.
         13    1    3    3    0    0 -0.30457579166E+03  0.28732111440E+03 -0.76656412472E+03  0.87346459809E+03  0.10566000000E+00 0. -1.
         -4    1    3    3    0  501  0.38130362326E+03 -0.42045044959E+03 -0.47519276892E+03  0.74025617276E+03  0.00000000000E+00 0. -1.
<mgrwt>
<rscale>  0 0.10290311E+04</rscale>
<asrwt>0</asrwt>
<pdfrwt beam="1">  1        4 0.12486957E+00 0.10274656E+04</pdfrwt>
<pdfrwt beam="2">  1       -4 0.28454779E+00 0.10305991E+04</pdfrwt>
<totfact> 0.22293500E-01</totfact>
</mgrwt>
</event>
<event>
 8    1  0.2939692E-006  0.1164533E+04  0.7818608E-02  0.8635979E-01
          4   -1    0    0  502    0  0.00000000000E+00  0.00000000000E+00  0.19449595374E+04  0.19449595374E+04  0.00000000000E+00 0.  1.
         -4   -1    0    0    0  501 -0.00000000000E+00 -0.00000000000E+00 -0.15540777029E+04  0.15540777029E+04  0.00000000000E+00 0. -1.
   -9000010    2    1    2    0  501  0.23427072193E+03 -0.59437519347E+03 -0.11063913769E+04  0.16022071816E+04  0.96685124609E+03 0.  0.
    9000010    2    1    2  502    0 -0.23427072193E+03  0.59437519347E+03  0.14972732114E+04  0.18968300588E+04  0.97363882440E+03 0.  0.
        -13    1    4    4    0    0 -0.36925611954E+03  0.60653405214E+03  0.44967394090E+03  0.84050003124E+03  0.10566000000E+00 0.  1.
          4    1    4    4  502    0  0.13498539761E+03 -0.12158858672E+02  0.10475992705E+04  0.10563300275E+04  0.00000000000E+00 0.  1.
         13    1    3    3    0    0  0.21425260437E+03 -0.29151995815E+03 -0.12242678756E+04  0.12766048359E+04  0.10566000000E+00 0. -1.
         -4    1    3    3    0  501  0.20018117560E+02 -0.30285523532E+03  0.11787649872E+03  0.32560234573E+03  0.00000000000E+00 0. -1.
<mgrwt>
<rscale>  0 0.11616951E+04</rscale>
<asrwt>0</asrwt>
<pdfrwt beam="1">  1        4 0.29922454E+00 0.11645330E+04</pdfrwt>
<pdfrwt beam="2">  1       -4 0.23908888E+00 0.11588641E+04</pdfrwt>
<totfact> 0.81094585E-02</totfact>
</mgrwt>
</event>
<event>
 8    1  0.2939692E-006  0.1207887E+04  0.7818608E-02  0.8605944E-01
          4   -1    0    0  502    0  0.00000000000E+00  0.00000000000E+00  0.20317038782E+04  0.20317038782E+04  0.00000000000E+00 0.  1.
         -4   -1    0    0    0  501 -0.00000000000E+00 -0.00000000000E+00 -0.16668721644E+04  0.16668721644E+04  0.00000000000E+00 0. -1.
   -9000010    2    1    2    0  501  0.18977699807E+03  0.62666568404E+03 -0.12193411426E+04  0.17064426481E+04  0.99821265304E+03 0.  0.
    9000010    2    1    2  502    0 -0.18977699807E+03 -0.62666568404E+03  0.15841728565E+04  0.19921333944E+04  0.10150205088E+04 0.  0.
        -13    1    4    4    0    0 -0.52001103506E+03 -0.66391094338E+03  0.13253631510E+04  0.15709158827E+04  0.10566000000E+00 0.  1.
          4    1    4    4  502    0  0.33023403699E+03  0.37245259336E+02  0.25880970549E+03  0.42121751172E+03  0.00000000000E+00 0.  1.
         13    1    3    3    0    0  0.40870540679E+03  0.52875315718E+03 -0.25919858675E+03  0.71680117836E+03  0.10566000000E+00 0. -1.
         -4    1    3    3    0  501 -0.21892840872E+03  0.97912526866E+02 -0.96014255590E+03  0.98964146978E+03  0.00000000000E+00 0. -1.
<mgrwt>
<rscale>  0 0.12008220E+04</rscale>
<asrwt>0</asrwt>
<pdfrwt beam="1">  1        4 0.31256983E+00 0.12078873E+04</pdfrwt>
<pdfrwt beam="2">  1       -4 0.25644187E+00 0.11937980E+04</pdfrwt>
<totfact> 0.67482014E-02</totfact>
</mgrwt>
</event>
<event>
 8    1  0.2939692E-006  0.1072978E+04  0.7818608E-02  0.8719346E-01
         -4   -1    0    0    0  501 -0.00000000000E+00  0.00000000000E+00  0.27821188554E+04  0.27821188554E+04  0.00000000000E+00 0. -1.
          4   -1    0    0  502    0  0.00000000000E+00 -0.00000000000E+00 -0.10906797559E+04  0.10906797559E+04  0.00000000000E+00 0.  1.
   -9000010    2    1    2    0  501 -0.30378671681E+03  0.62284900630E+02  0.23779014181E+04  0.25990197480E+04  0.10021590284E+04 0.  0.
    9000010    2    1    2  502    0  0.30378671681E+03 -0.62284900630E+02 -0.68646231859E+03  0.12737788633E+04  0.10271885415E+04 0.  0.
        -13    1    4    4    0    0 -0.33279465714E+03 -0.17088984669E+03 -0.45204044843E+03  0.58676758747E+03  0.10566000000E+00 0.  1.
          4    1    4    4  502    0  0.63658137395E+03  0.10860494606E+03 -0.23442187016E+03  0.68701127587E+03  0.00000000000E+00 0.  1.
         13    1    3    3    0    0 -0.44862903550E+03 -0.65616931849E+02  0.37940544700E+03  0.59120393911E+03  0.10566000000E+00 0. -1.
         -4    1    3    3    0  501  0.14484231869E+03  0.12790183248E+03  0.19984959711E+04  0.20078158089E+04  0.00000000000E+00 0. -1.
<mgrwt>
<rscale>  0 0.10609424E+04</rscale>
<asrwt>0</asrwt>
<pdfrwt beam="2">  1        4 0.16779689E+00 0.10729781E+04</pdfrwt>
<pdfrwt beam="1">  1       -4 0.42801828E+00 0.10490417E+04</pdfrwt>
<totfact> 0.46675151E-02</totfact>
</mgrwt>
</event>
<event>
 8    1  0.2939692E-006  0.1143971E+04  0.7818608E-02  0.8658366E-01
         -4   -1    0    0    0  501 -0.00000000000E+00  0.00000000000E+00  0.26070382013E+04  0.26070382013E+04  0.00000000000E+00 0. -1.
          4   -1    0    0  502    0  0.00000000000E+00 -0.00000000000E+00 -0.21970691576E+04  0.21970691576E+04  0.00000000000E+00 0.  1.
   -9000010    2    1    2    0  501 -0.35283519924E+03 -0.42733208494E+03  0.23209057426E+04  0.25875226464E+04  0.10007819898E+04 0.  0.
    9000010    2    1    2  502    0  0.35283519924E+03  0.42733208494E+03 -0.19109366989E+04  0.22165847125E+04  0.97696639221E+03 0.  0.
        -13    1    4    4    0    0  0.67406439034E+03  0.43328211820E+03 -0.13964038933E+04  0.16099813789E+04  0.10566000000E+00 0.  1.
          4    1    4    4  502    0 -0.32122919110E+03 -0.59500332559E+01 -0.51453280569E+03  0.60660333352E+03  0.00000000000E+00 0.  1.
         13    1    3    3    0    0 -0.59397478687E+03 -0.18240770855E+03  0.20719779549E+04  0.21631392180E+04  0.10566000000E+00 0. -1.
         -4    1    3    3    0  501  0.24113958763E+03 -0.24492437639E+03  0.24892778772E+03  0.42438342848E+03  0.00000000000E+00 0. -1.
<mgrwt>
<rscale>  0 0.11335359E+04</rscale>
<asrwt>0</asrwt>
<pdfrwt beam="2">  1        4 0.33801064E+00 0.11231958E+04</pdfrwt>
<pdfrwt beam="1">  1       -4 0.40108280E+00 0.11439711E+04</pdfrwt>
<totfact> 0.20665950E-02</totfact>
</mgrwt>
</event>
<event>
 8    1  0.2939692E-006  0.1232388E+04  0.7818608E-02  0.8584210E-01
          4   -1    0    0  502    0  0.00000000000E+00  0.00000000000E+00  0.10706051375E+04  0.10706051375E+04  0.00000000000E+00 0.  1.
         -4   -1    0    0    0  501 -0.00000000000E+00 -0.00000000000E+00 -0.17321048838E+04  0.17321048838E+04  0.00000000000E+00 0. -1.
   -9000010    2    1    2    0  501 -0.30269911979E+03 -0.64632783898E+03 -0.93231908074E+03  0.15453155757E+04  0.10046964356E+04 0.  0.
    9000010    2    1    2  502    0  0.30269911979E+03  0.64632783898E+03  0.27081933444E+03  0.12573944455E+04  0.99916527512E+03 0.  0.
        -13    1    4    4    0    0  0.58405912982E+02  0.79580928611E+03  0.45338231444E+03  0.91775770481E+03  0.10566000000E+00 0.  1.
          4    1    4    4  502    0  0.24429320681E+03 -0.14948144713E+03 -0.18256298000E+03  0.33963674065E+03  0.00000000000E+00 0.  1.
         13    1    3    3    0    0  0.86874552433E+02 -0.50459402462E+03  0.13965485770E+02  0.51220832041E+03  0.10566000000E+00 0. -1.
         -4    1    3    3    0  501 -0.38957367222E+03 -0.14173381436E+03 -0.94628456651E+03  0.10331072553E+04  0.00000000000E+00 0. -1.
<mgrwt>
<rscale>  0 0.12301339E+04</rscale>
<asrwt>0</asrwt>
<pdfrwt beam="1">  1        4 0.16470848E+00 0.12278834E+04</pdfrwt>
<pdfrwt beam="2">  1       -4 0.26647767E+00 0.12323885E+04</pdfrwt>
<totfact> 0.16106567E-01</totfact>
</mgrwt>
</event>
<event>
 8    1  0.2939692E-006  0.1143258E+04  0.7818608E-02  0.8651687E-01
          4   -1    0    0  502    0  0.00000000000E+00  0.00000000000E+00  0.66295094307E+03  0.66295094307E+03  0.00000000000E+00 0.  1.
         -4   -1    0    0    0  501 -0.00000000000E+00 -0.00000000000E+00 -0.25917574156E+04  0.25917574156E+04  0.00000000000E+00 0. -1.
   -9000010    2    1    2    0  501 -0.20768843402E+03  0.51062677228E+03 -0.17626864762E+04  0.20994448088E+04  0.99836401457E+03 0.  0.
    9000010    2    1    2  502    0  0.20768843402E+03 -0.51062677228E+03 -0.16611999637E+03  0.11552635499E+04  0.10015806659E+04 0.  0.
        -13    1    4    4    0    0 -0.15330363389E+03 -0.43081324477E+03  0.31000447639E+03  0.55245347549E+03  0.10566000000E+00 0.  1.
          4    1    4    4  502    0  0.36099206791E+03 -0.79813527513E+02 -0.47612447276E+03  0.60281007442E+03  0.00000000000E+00 0.  1.
         13    1    3    3    0    0 -0.37311548351E+03  0.56116434147E+03 -0.53717802263E+03  0.86178931377E+03  0.10566000000E+00 0. -1.
         -4    1    3    3    0  501  0.16542704949E+03 -0.50537569188E+02 -0.12255084535E+04  0.12376554950E+04  0.00000000000E+00 0. -1.
<mgrwt>
<rscale>  0 0.11418483E+04</rscale>
<asrwt>0</asrwt>
<pdfrwt beam="1">  1        4 0.10199245E+00 0.11432576E+04</pdfrwt>
<pdfrwt beam="2">  1       -4 0.39873191E+00 0.11404407E+04</pdfrwt>
<totfact> 0.13598565E-01</totfact>
</mgrwt>
</event>
<event>
 8    1  0.2939692E-006  0.1113045E+04  0.7818608E-02  0.8677116E-01
          4   -1    0    0  502    0  0.00000000000E+00  0.00000000000E+00  0.20620643121E+04  0.20620643121E+04  0.00000000000E+00 0.  1.
         -4   -1    0    0    0  501 -0.00000000000E+00 -0.00000000000E+00 -0.87663825714E+03  0.87663825714E+03  0.00000000000E+00 0. -1.
   -9000010    2    1    2    0  501  0.29159827121E+03 -0.38800330371E+03 -0.23456924951E+03  0.11374936602E+04  0.10016451361E+04 0.  0.
    9000010    2    1    2  502    0 -0.29159827121E+03  0.38800330371E+03  0.14199953044E+04  0.18012089090E+04  0.99618811162E+03 0.  0.
        -13    1    4    4    0    0  0.31122032147E+03  0.13760902006E+03  0.91404374229E+03  0.97533086944E+03  0.10566000000E+00 0.  1.
          4    1    4    4  502    0 -0.60281859268E+03  0.25039428365E+03  0.50595156214E+03  0.82587803954E+03  0.00000000000E+00 0.  1.
         13    1    3    3    0    0  0.10504018545E+03  0.12794559581E+03 -0.50095760514E+03  0.52760027422E+03  0.10566000000E+00 0. -1.
         -4    1    3    3    0  501  0.18655808575E+03 -0.51594889952E+03  0.26638835562E+03  0.60989338600E+03  0.00000000000E+00 0. -1.
<mgrwt>
<rscale>  0 0.11105881E+04</rscale>
<asrwt>0</asrwt>
<pdfrwt beam="1">  1        4 0.31724066E+00 0.11081367E+04</pdfrwt>
<pdfrwt beam="2">  1       -4 0.13486742E+00 0.11130450E+04</pdfrwt>
<totfact> 0.16007333E-01</totfact>
</mgrwt>
</event>
<event>
 8    1  0.2939692E-006  0.1087303E+04  0.7818608E-02  0.8708198E-01
         -4   -1    0    0    0  501 -0.00000000000E+00  0.00000000000E+00  0.20645017753E+04  0.20645017753E+04  0.00000000000E+00 0. -1.
          4   -1    0    0  502    0  0.00000000000E+00 -0.00000000000E+00 -0.15007099311E+04  0.15007099311E+04  0.00000000000E+00 0.  1.
   -9000010    2    1    2    0  501  0.11526619098E+03  0.38744533265E+03  0.16955841772E+04  0.20142576004E+04  0.10093700006E+04 0.  0.
    9000010    2    1    2  502    0 -0.11526619098E+03 -0.38744533265E+03 -0.11317923330E+04  0.15509541061E+04  0.98035941044E+03 0.  0.
        -13    1    4    4    0    0  0.30608499988E+03  0.12957252298E+03 -0.15149362389E+03  0.36527714835E+03  0.10566000000E+00 0.  1.
          4    1    4    4  502    0 -0.42135119086E+03 -0.51701785562E+03 -0.98029870909E+03  0.11856769577E+04  0.00000000000E+00 0.  1.
         13    1    3    3    0    0  0.40652986876E+03 -0.55487998089E+02  0.26455775485E+03  0.48819695712E+03  0.10566000000E+00 0. -1.
         -4    1    3    3    0  501 -0.29126367778E+03  0.44293333074E+03  0.14310264223E+04  0.15260606432E+04  0.00000000000E+00 0. -1.
<mgrwt>
<rscale>  0 0.10737808E+04</rscale>
<asrwt>0</asrwt>
<pdfrwt beam="2">  1        4 0.23087845E+00 0.10604267E+04</pdfrwt>
<pdfrwt beam="1">  1       -4 0.31761566E+00 0.10873031E+04</pdfrwt>
<totfact> 0.76148629E-02</totfact>
</mgrwt>
</event>
<event>
 8    1  0.2939692E-006  0.1158565E+04  0.7818608E-02  0.8639402E-01
         -4   -1    0    0    0  501 -0.00000000000E+00  0.00000000000E+00  0.20986021885E+04  0.20986021885E+04  0.00000000000E+00 0. -1.
          4   -1    0    0  502    0  0.00000000000E+00 -0.00000000000E+00 -0.21007817021E+04  0.21007817021E+04  0.00000000000E+00 0.  1.
   -9000010    2    1    2    0  501 -0.42831517214E+03 -0.38318315266E+03  0.17508461139E+04  0.20994605501E+04  0.10059767749E+04 0.  0.
    9000010    2    1    2  502    0  0.42831517214E+03  0.38318315266E+03 -0.17530256275E+04  0.20999233405E+04  0.10031430458E+04 0.  0.
        -13    1    4    4    0    0  0.74395032135E+03  0.17483597540E+03 -0.10138650641E+04  0.12696267476E+04  0.10566000000E+00 0.  1.
          4    1    4    4  502    0 -0.31563514922E+03  0.20834717726E+03 -0.73916056339E+03  0.83029659289E+03  0.00000000000E+00 0.  1.
         13    1    3    3    0    0 -0.43980808199E+03 -0.32517452097E+03  0.18797119406E+04  0.19576737749E+04  0.10566000000E+00 0. -1.
         -4    1    3    3    0  501  0.11492909859E+02 -0.58008631689E+02 -0.12886582671E+03  0.14178677520E+03  0.00000000000E+00 0. -1.
<mgrwt>
<rscale>  0 0.11573344E+04</rscale>
<asrwt>0</asrwt>
<pdfrwt beam="2">  1        4 0.32319719E+00 0.11561052E+04</pdfrwt>
<pdfrwt beam="1">  1       -4 0.32286187E+00 0.11585648E+04</pdfrwt>
<totfact> 0.42541192E-02</totfact>
</mgrwt>
</event>
<event>
 8    1  0.2939692E-006  0.1108715E+04  0.7818608E-02  0.8718256E-01
         -4   -1    0    0    0  501 -0.00000000000E+00  0.00000000000E+00  0.26080644937E+04  0.26080644937E+04  0.00000000000E+00 0. -1.
          4   -1    0    0  502    0  0.00000000000E+00 -0.00000000000E+00 -0.14095288910E+04  0.14095288910E+04  0.00000000000E+00 0.  1.
   -9000010    2    1    2    0  501  0.26381839892E+03 -0.37987844060E+03  0.22783729262E+04  0.25338178945E+04  0.10076418781E+04 0.  0.
    9000010    2    1    2  502    0 -0.26381839892E+03  0.37987844060E+03 -0.10798373236E+04  0.14837754901E+04  0.90643989457E+03 0.  0.
        -13    1    4    4    0    0 -0.43220846484E+03 -0.31095570253E+01 -0.13885223277E+03  0.45397552812E+03  0.10566000000E+00 0.  1.
          4    1    4    4  502    0  0.16839006592E+03  0.38298799763E+03 -0.94098509081E+03  0.10297999620E+04  0.00000000000E+00 0.  1.
         13    1    3    3    0    0  0.58211357279E+03 -0.47745401859E+03  0.13245546912E+04  0.15235693921E+04  0.10566000000E+00 0. -1.
         -4    1    3    3    0  501 -0.31829517387E+03  0.97575577990E+02  0.95381823507E+03  0.10102485024E+04  0.00000000000E+00 0. -1.
<mgrwt>
<rscale>  0 0.10621892E+04</rscale>
<asrwt>0</asrwt>
<pdfrwt beam="2">  1        4 0.21685060E+00 0.10176154E+04</pdfrwt>
<pdfrwt beam="1">  1       -4 0.40124069E+00 0.11087154E+04</pdfrwt>
<totfact> 0.42642036E-02</totfact>
</mgrwt>
</event>
<event>
 8    1  0.2939692E-006  0.1256411E+04  0.7818608E-02  0.8570269E-01
          4   -1    0    0  502    0  0.00000000000E+00  0.00000000000E+00  0.15391522063E+04  0.15391522063E+04  0.00000000000E+00 0.  1.
         -4   -1    0    0    0  501 -0.00000000000E+00 -0.00000000000E+00 -0.10287914066E+04  0.10287914066E+04  0.00000000000E+00 0. -1.
   -9000010    2    1    2    0  501  0.64584048569E+03  0.36558635128E+03  0.10092839601E+03  0.12465035126E+04  0.99640411107E+03 0.  0.
    9000010    2    1    2  502    0 -0.64584048569E+03 -0.36558635128E+03  0.40943240370E+03  0.13214401002E+04  0.10138075420E+04 0.  0.
        -13    1    4    4    0    0 -0.41441787234E+03  0.16040800776E+03  0.57190798561E+03  0.72425938519E+03  0.10566000000E+00 0.  1.
          4    1    4    4  502    0 -0.23142261335E+03 -0.52599435904E+03 -0.16247558191E+03  0.59718071505E+03  0.00000000000E+00 0.  1.
         13    1    3    3    0    0  0.83140356202E+03  0.25986578922E+02 -0.44723177763E+02  0.83301101975E+03  0.10566000000E+00 0. -1.
         -4    1    3    3    0  501 -0.18556307634E+03  0.33959977236E+03  0.14565157377E+03  0.41349249283E+03  0.00000000000E+00 0. -1.
<mgrwt>
<rscale>  0 0.12493914E+04</rscale>
<asrwt>0</asrwt>
<pdfrwt beam="1">  1        4 0.23679265E+00 0.12564112E+04</pdfrwt>
<pdfrwt beam="2">  1       -4 0.15827560E+00 0.12424107E+04</pdfrwt>
<totfact> 0.20011632E-01</totfact>
</mgrwt>
</event>
<event>
 8    1  0.2939692E-006  0.1221072E+04  0.7818608E-02  0.8599201E-01
         -4   -1    0    0    0  501 -0.00000000000E+00  0.00000000000E+00  0.18256855779E+04  0.18256855779E+04  0.00000000000E+00 0. -1.
          4   -1    0    0  502    0  0.00000000000E+00 -0.00000000000E+00 -0.81466424830E+03  0.81466424830E+03  0.00000000000E+00 0.  1.
   -9000010    2    1    2    0  501 -0.48073585286E+03 -0.47268421691E+03  0.67612805395E+03  0.13957670754E+04  0.10180762516E+04 0.  0.
    9000010    2    1    2  502    0  0.48073585286E+03  0.47268421691E+03  0.33489327564E+03  0.12445827508E+04  0.99110816184E+03 0.  0.
        -13    1    4    4    0    0 -0.26209317915E+03  0.35983812776E+03  0.88666653548E+02  0.45391419824E+03  0.10566000000E+00 0.  1.
          4    1    4    4  502    0  0.74282903201E+03  0.11284608915E+03  0.24622662209E+03  0.79066855260E+03  0.00000000000E+00 0.  1.
         13    1    3    3    0    0 -0.16567628395E+03  0.84012754016E+02  0.73054234027E+03  0.75378968950E+03  0.10566000000E+00 0. -1.
         -4    1    3    3    0  501 -0.31505956891E+03 -0.55669697092E+03 -0.54414286321E+02  0.64197738586E+03  0.00000000000E+00 0. -1.
<mgrwt>
<rscale>  0 0.12098239E+04</rscale>
<asrwt>0</asrwt>
<pdfrwt beam="2">  1        4 0.12533296E+00 0.11986796E+04</pdfrwt>
<pdfrwt beam="1">  1       -4 0.28087470E+00 0.12210719E+04</pdfrwt>
<totfact> 0.22455651E-01</totfact>
</mgrwt>
</event>
<event>
 8    1  0.2939692E-006  0.1290270E+04  0.7818608E-02  0.8544809E-01
          4   -1    0    0  502    0  0.00000000000E+00  0.00000000000E+00  0.24277241773E+04  0.24277241773E+04  0.00000000000E+00 0.  1.
         -4   -1    0    0    0  501 -0.00000000000E+00 -0.00000000000E+00 -0.10765721680E+04  0.10765721680E+04  0.00000000000E+00 0. -1.
   -9000010    2    1    2    0  501  0.72203093419E+03 -0.35557813371E+03 -0.38532921865E+03  0.13465789182E+04  0.10084798943E+04 0.  0.
    9000010    2    1    2  502    0 -0.72203093419E+03  0.35557813371E+03  0.17364812280E+04  0.21577174270E+04  0.99629963408E+03 0.  0.
        -13    1    4    4    0    0 -0.40111260252E+03  0.76213353834E+02  0.41780200482E+02  0.41042099303E+03  0.10566000000E+00 0.  1.
          4    1    4    4  502    0 -0.32091833167E+03  0.27936477987E+03  0.16947010275E+04  0.17472964340E+04  0.00000000000E+00 0.  1.
         13    1    3    3    0    0  0.87384883442E+03 -0.55824669684E+03 -0.30298935239E+03  0.10803026052E+04  0.10566000000E+00 0. -1.
         -4    1    3    3    0  501 -0.15181790023E+03  0.20266856314E+03 -0.82339866260E+02  0.26627631305E+03  0.00000000000E+00 0. -1.
<mgrwt>
<rscale>  0 0.12855122E+04</rscale>
<asrwt>0</asrwt>
<pdfrwt beam="1">  1        4 0.37349603E+00 0.12807722E+04</pdfrwt>
<pdfrwt beam="2">  1       -4 0.16562649E+00 0.12902698E+04</pdfrwt>
<totfact> 0.76672971E-02</totfact>
</mgrwt>
</event>
<event>
 8    1  0.2939692E-006  0.1361706E+04  0.7818608E-02  0.8495011E-01
          4   -1    0    0  502    0  0.00000000000E+00  0.00000000000E+00  0.17223686377E+04  0.17223686377E+04  0.00000000000E+00 0.  1.
         -4   -1    0    0    0  501 -0.00000000000E+00 -0.00000000000E+00 -0.10761271399E+04  0.10761271399E+04  0.00000000000E+00 0. -1.
   -9000010    2    1    2    0  501 -0.86019063138E+03 -0.32284352566E+03  0.39040204566E+03  0.14165653922E+04  0.10050312875E+04 0.  0.
    9000010    2    1    2  502    0  0.86019063138E+03  0.32284352566E+03  0.25583945218E+03  0.13819303854E+04  0.10000609484E+04 0.  0.
        -13    1    4    4    0    0  0.85983408534E+03  0.39891379923E+02 -0.16340900102E+03  0.87613268931E+03  0.10566000000E+00 0.  1.
          4    1    4    4  502    0  0.35654604126E+00  0.28295214574E+03  0.41924845320E+03  0.50579769613E+03  0.00000000000E+00 0.  1.
         13    1    3    3    0    0 -0.51540494497E+03 -0.51928620102E+03  0.61921410792E+03  0.95850223708E+03  0.10566000000E+00 0. -1.
         -4    1    3    3    0  501 -0.34478568641E+03  0.19644267536E+03 -0.22881206226E+03  0.45806315513E+03  0.00000000000E+00 0. -1.
<mgrwt>
<rscale>  0 0.13598728E+04</rscale>
<asrwt>0</asrwt>
<pdfrwt beam="1">  1        4 0.26497979E+00 0.13580419E+04</pdfrwt>
<pdfrwt beam="2">  1       -4 0.16555802E+00 0.13617062E+04</pdfrwt>
<totfact> 0.16025397E-01</totfact>
</mgrwt>
</event>
<event>
 8    1  0.2939692E-006  0.1049181E+04  0.7818608E-02  0.8732009E-01
          4   -1    0    0  502    0  0.00000000000E+00  0.00000000000E+00  0.22581922661E+04  0.22581922661E+04  0.00000000000E+00 0.  1.
         -4   -1    0    0    0  501 -0.00000000000E+00 -0.00000000000E+00 -0.87450593732E+03  0.87450593732E+03  0.00000000000E+00 0. -1.
   -9000010    2    1    2    0  501  0.45622562848E+02 -0.28905881410E+03 -0.35248520527E+03  0.11068091762E+04  0.10075437044E+04 0.  0.
    9000010    2    1    2  502    0 -0.45622562848E+02  0.28905881410E+03  0.17361715340E+04  0.20258890272E+04  0.10021468649E+04 0.  0.
        -13    1    4    4    0    0 -0.19901320055E+03 -0.10419870852E+03 -0.14440828999E+02  0.22510480572E+03  0.10566000000E+00 0.  1.
          4    1    4    4  502    0  0.15339063770E+03  0.39325752262E+03  0.17506123630E+04  0.18007842215E+04  0.00000000000E+00 0.  1.
         13    1    3    3    0    0  0.42068556486E+03 -0.10223326858E+03 -0.50110128672E+03  0.66221635166E+03  0.10566000000E+00 0. -1.
         -4    1    3    3    0  501 -0.37506300201E+03 -0.18682554552E+03  0.14861608145E+03  0.44459282451E+03  0.00000000000E+00 0. -1.
<mgrwt>
<rscale>  0 0.10465870E+04</rscale>
<asrwt>0</asrwt>
<pdfrwt beam="1">  1        4 0.34741419E+00 0.10439994E+04</pdfrwt>
<pdfrwt beam="2">  1       -4 0.13453938E+00 0.10491810E+04</pdfrwt>
<totfact> 0.13162779E-01</totfact>
</mgrwt>
</event>
<event>
 8    1  0.2939692E-006  0.1707600E+04  0.7818608E-02  0.8301521E-01
         -4   -1    0    0    0  501 -0.00000000000E+00  0.00000000000E+00  0.13457175988E+04  0.13457175988E+04  0.00000000000E+00 0. -1.
          4   -1    0    0  502    0  0.00000000000E+00 -0.00000000000E+00 -0.35561740120E+04  0.35561740120E+04  0.00000000000E+00 0.  1.
   -9000010    2    1    2    0  501  0.84758139250E+03  0.10765503857E+04  0.43546618210E+03  0.17527960005E+04  0.10026505243E+04 0.  0.
    9000010    2    1    2  502    0 -0.84758139250E+03 -0.10765503857E+04 -0.26459225953E+04  0.31490956103E+04  0.10190887264E+04 0.  0.
        -13    1    4    4    0    0 -0.61572711981E+03 -0.12469801869E+04 -0.23839886926E+04  0.27599785452E+04  0.10566000000E+00 0.  1.
          4    1    4    4  502    0 -0.23185427269E+03  0.17042980119E+03 -0.26193390271E+03  0.38911706502E+03  0.00000000000E+00 0.  1.
         13    1    3    3    0    0  0.67424066494E+03  0.50012565547E+03 -0.21498278145E+03  0.86657010853E+03  0.10566000000E+00 0. -1.
         -4    1    3    3    0  501  0.17334072756E+03  0.57642473019E+03  0.65044896356E+03  0.88622589197E+03  0.00000000000E+00 0. -1.
<mgrwt>
<rscale>  0 0.17027132E+04</rscale>
<asrwt>0</asrwt>
<pdfrwt beam="2">  1        4 0.54710369E+00 0.17075997E+04</pdfrwt>
<pdfrwt beam="1">  1       -4 0.20703348E+00 0.16978407E+04</pdfrwt>
<totfact> 0.90645695E-03</totfact>
</mgrwt>
</event>
<event>
 8    1  0.2939692E-006  0.1069729E+04  0.7818608E-02  0.8731649E-01
          4   -1    0    0  502    0  0.00000000000E+00  0.00000000000E+00  0.93047637192E+03  0.93047637192E+03  0.00000000000E+00 0.  1.
         -4   -1    0    0    0  501 -0.00000000000E+00 -0.00000000000E+00 -0.21319889504E+04  0.21319889504E+04  0.00000000000E+00 0. -1.
   -9000010    2    1    2    0  501  0.13832371492E+03 -0.25987415161E+03 -0.16174314449E+04  0.19147250200E+04  0.98153930056E+03 0.  0.
    9000010    2    1    2  502    0 -0.13832371492E+03  0.25987415161E+03  0.41591886636E+03  0.11477403024E+04  0.10284217391E+04 0.  0.
        -13    1    4    4    0    0  0.38977040687E+03  0.61453128178E+02 -0.72924334582E+02  0.40126727598E+03  0.10566000000E+00 0.  1.
          4    1    4    4  502    0 -0.52809412179E+03  0.19842102343E+03  0.48884320095E+03  0.74647302638E+03  0.00000000000E+00 0.  1.
         13    1    3    3    0    0 -0.27611326405E+03  0.24490283763E+03 -0.52026737838E+03  0.63788250535E+03  0.10566000000E+00 0. -1.
         -4    1    3    3    0  501  0.41443697897E+03 -0.50477698923E+03 -0.10971640665E+04  0.12768425146E+04  0.00000000000E+00 0. -1.
<mgrwt>
<rscale>  0 0.10469915E+04</rscale>
<asrwt>0</asrwt>
<pdfrwt beam="1">  1        4 0.14315021E+00 0.10697286E+04</pdfrwt>
<pdfrwt beam="2">  1       -4 0.32799830E+00 0.10247377E+04</pdfrwt>
<totfact> 0.13694454E-01</totfact>
</mgrwt>
</event>
<event>
 8    1  0.2939692E-006  0.1068944E+04  0.7818608E-02  0.8714976E-01
         -4   -1    0    0    0  501 -0.00000000000E+00  0.00000000000E+00  0.10613626923E+04  0.10613626923E+04  0.00000000000E+00 0. -1.
          4   -1    0    0  502    0  0.00000000000E+00 -0.00000000000E+00 -0.12201694688E+04  0.12201694688E+04  0.00000000000E+00 0.  1.
   -9000010    2    1    2    0  501 -0.26798534489E+03 -0.25408603907E+03  0.32023014195E+03  0.11101580076E+04  0.99675854536E+03 0.  0.
    9000010    2    1    2  502    0  0.26798534489E+03  0.25408603907E+03 -0.47903691851E+03  0.11713741535E+04  0.10031276977E+04 0.  0.
        -13    1    4    4    0    0  0.52392895667E+02  0.98279504361E+02 -0.76949863251E+03  0.77751658059E+03  0.10566000000E+00 0.  1.
          4    1    4    4  502    0  0.21559244922E+03  0.15580653471E+03  0.29046171400E+03  0.39385757289E+03  0.00000000000E+00 0.  1.
         13    1    3    3    0    0 -0.10576272624E+03  0.10592960089E+03 -0.32265427249E+03  0.35568613316E+03  0.10566000000E+00 0. -1.
         -4    1    3    3    0  501 -0.16222261865E+03 -0.36001563997E+03  0.64288441444E+03  0.75447187446E+03  0.00000000000E+00 0. -1.
<mgrwt>
<rscale>  0 0.10659523E+04</rscale>
<asrwt>0</asrwt>
<pdfrwt beam="2">  1        4 0.18771838E+00 0.10689439E+04</pdfrwt>
<pdfrwt beam="1">  1       -4 0.16328657E+00 0.10629692E+04</pdfrwt>
<totfact> 0.26040828E-01</totfact>
</mgrwt>
</event>
<event>
 8    1  0.2939692E-006  0.1058290E+04  0.7818608E-02  0.8725552E-01
          4   -1    0    0  502    0  0.00000000000E+00  0.00000000000E+00  0.77100456717E+03  0.77100456717E+03  0.00000000000E+00 0.  1.
         -4   -1    0    0    0  501 -0.00000000000E+00 -0.00000000000E+00 -0.26504639419E+04  0.26504639419E+04  0.00000000000E+00 0. -1.
   -9000010    2    1    2    0  501 -0.31460766798E+03  0.15397085021E+03 -0.20934291372E+04  0.23417642840E+04  0.98930753648E+03 0.  0.
    9000010    2    1    2  502    0  0.31460766798E+03 -0.15397085021E+03  0.21396976246E+03  0.10797042251E+04  0.99864565638E+03 0.  0.
        -13    1    4    4    0    0  0.47794174050E+03  0.28973734292E+03  0.23527658677E+03  0.60640837613E+03  0.10566000000E+00 0.  1.
          4    1    4    4  502    0 -0.16333407252E+03 -0.44370819314E+03 -0.21306824305E+02  0.47329584898E+03  0.00000000000E+00 0.  1.
         13    1    3    3    0    0 -0.18255415467E+03 -0.41713527128E+03 -0.77425390492E+03  0.89821877868E+03  0.10566000000E+00 0. -1.
         -4    1    3    3    0  501 -0.13205351331E+03  0.57110612149E+03 -0.13191752323E+04  0.14435455053E+04  0.00000000000E+00 0. -1.
<mgrwt>
<rscale>  0 0.10538774E+04</rscale>
<asrwt>0</asrwt>
<pdfrwt beam="1">  1        4 0.11861609E+00 0.10582902E+04</pdfrwt>
<pdfrwt beam="2">  1       -4 0.40776368E+00 0.10494829E+04</pdfrwt>
<totfact> 0.96191114E-02</totfact>
</mgrwt>
</event>
<event>
 8    1  0.2939692E-006  0.1055521E+04  0.7818608E-02  0.8733099E-01
          4   -1    0    0  502    0  0.00000000000E+00  0.00000000000E+00  0.23313539458E+03  0.23313539458E+03  0.00000000000E+00 0.  1.
         -4   -1    0    0    0  501 -0.00000000000E+00 -0.00000000000E+00 -0.47275679467E+04  0.47275679467E+04  0.00000000000E+00 0. -1.
   -9000010    2    1    2    0  501  0.23984835031E+03  0.12905902709E+03 -0.19980945003E+04  0.22503843714E+04  0.99883167903E+03 0.  0.
    9000010    2    1    2  502    0 -0.23984835031E+03 -0.12905902709E+03 -0.24963380518E+04  0.27103189700E+04  0.10197753607E+04 0.  0.
        -13    1    4    4    0    0  0.23852498709E+03  0.20098038436E+03 -0.28034246711E+03  0.41937953502E+03  0.10566000000E+00 0.  1.
          4    1    4    4  502    0 -0.47837333740E+03 -0.33003941146E+03 -0.22159955847E+04  0.22909394349E+04  0.00000000000E+00 0.  1.
         13    1    3    3    0    0  0.92706335537E+02  0.55676097164E+03 -0.13162093836E+04  0.14321258314E+04  0.10566000000E+00 0. -1.
         -4    1    3    3    0  501  0.14714201477E+03 -0.42770194455E+03 -0.68188511672E+03  0.81825854000E+03  0.00000000000E+00 0. -1.
<mgrwt>
<rscale>  0 0.10453623E+04</rscale>
<asrwt>0</asrwt>
<pdfrwt beam="1">  1        4 0.35866988E-01 0.10555213E+04</pdfrwt>
<pdfrwt beam="2">  1       -4 0.72731806E+00 0.10353010E+04</pdfrwt>
<totfact> 0.30000885E-02</totfact>
</mgrwt>
</event>
<event>
 8    1  0.2939692E-006  0.1034604E+04  0.7818608E-02  0.8744216E-01
         -4   -1    0    0    0  501 -0.00000000000E+00  0.00000000000E+00  0.22085131617E+04  0.22085131617E+04  0.00000000000E+00 0. -1.
          4   -1    0    0  502    0  0.00000000000E+00 -0.00000000000E+00 -0.79717949915E+03  0.79717949915E+03  0.00000000000E+00 0.  1.
   -9000010    2    1    2    0  501 -0.58904552939E+02 -0.26682208061E+03  0.16482390287E+04  0.19443117049E+04  0.99448094058E+03 0.  0.
    9000010    2    1    2  502    0  0.58904552939E+02  0.26682208061E+03 -0.23690536618E+03  0.10613809559E+04  0.99786853439E+03 0.  0.
        -13    1    4    4    0    0 -0.22532123031E+03  0.32828834786E+03  0.26712658420E+03  0.47947838254E+03  0.10566000000E+00 0.  1.
          4    1    4    4  502    0  0.28422578324E+03 -0.61466267250E+02 -0.50403195038E+03  0.58190257335E+03  0.00000000000E+00 0.  1.
         13    1    3    3    0    0 -0.18967071019E+03  0.34914483094E+03  0.72567592372E+03  0.82733466548E+03  0.10566000000E+00 0. -1.
         -4    1    3    3    0  501  0.13076615725E+03 -0.61596691155E+03  0.92256310497E+03  0.11169770395E+04  0.00000000000E+00 0. -1.
<mgrwt>
<rscale>  0 0.10329692E+04</rscale>
<asrwt>0</asrwt>
<pdfrwt beam="2">  1        4 0.12264300E+00 0.10346040E+04</pdfrwt>
<pdfrwt beam="1">  1       -4 0.33977125E+00 0.10313370E+04</pdfrwt>
<totfact> 0.16170465E-01</totfact>
</mgrwt>
</event>
<event>
 8    1  0.2939692E-006  0.1229143E+04  0.7818608E-02  0.8596920E-01
         -4   -1    0    0    0  501 -0.00000000000E+00  0.00000000000E+00  0.12078768481E+04  0.12078768481E+04  0.00000000000E+00 0. -1.
          4   -1    0    0  502    0  0.00000000000E+00 -0.00000000000E+00 -0.13932420590E+04  0.13932420590E+04  0.00000000000E+00 0.  1.
   -9000010    2    1    2    0  501  0.56844890277E+03 -0.26920514654E+03  0.36727533818E+03  0.12828421813E+04  0.10560243000E+04 0.  0.
    9000010    2    1    2  502    0 -0.56844890277E+03  0.26920514654E+03 -0.55264054916E+03  0.13182767258E+04  0.10182516306E+04 0.  0.
        -13    1    4    4    0    0 -0.30339990386E+02  0.39250786268E+01 -0.69986313206E+03  0.70053146684E+03  0.10566000000E+00 0.  1.
          4    1    4    4  502    0 -0.53810891239E+03  0.26528006791E+03  0.14722258290E+03  0.61774525894E+03  0.00000000000E+00 0.  1.
         13    1    3    3    0    0  0.12493424961E+03  0.24188593612E+03  0.52195752638E+03  0.58869095740E+03  0.10566000000E+00 0. -1.
         -4    1    3    3    0  501  0.44351465317E+03 -0.51109108266E+03 -0.15468218820E+03  0.69415122393E+03  0.00000000000E+00 0. -1.
<mgrwt>
<rscale>  0 0.12128874E+04</rscale>
<asrwt>0</asrwt>
<pdfrwt beam="2">  1        4 0.21434493E+00 0.11968467E+04</pdfrwt>
<pdfrwt beam="1">  1       -4 0.18582721E+00 0.12291432E+04</pdfrwt>
<totfact> 0.18253506E-01</totfact>
</mgrwt>
</event>
<event>
 8    1  0.2939692E-006  0.1541111E+04  0.7818608E-02  0.8391364E-01
         -4   -1    0    0    0  501 -0.00000000000E+00  0.00000000000E+00  0.64808354308E+03  0.64808354308E+03  0.00000000000E+00 0. -1.
          4   -1    0    0  502    0  0.00000000000E+00 -0.00000000000E+00 -0.36751148573E+04  0.36751148573E+04  0.00000000000E+00 0.  1.
   -9000010    2    1    2    0  501 -0.14963097703E+02  0.11760256330E+04 -0.17663523046E+04  0.23321343838E+04  0.96725908435E+03 0.  0.
    9000010    2    1    2  502    0  0.14963097703E+02 -0.11760256330E+04 -0.12606790096E+04  0.19910640166E+04  0.99587357088E+03 0.  0.
        -13    1    4    4    0    0  0.44924951815E+03 -0.24558708194E+03 -0.36866795428E+03  0.63091537947E+03  0.10566000000E+00 0.  1.
          4    1    4    4  502    0 -0.43428642044E+03 -0.93043855104E+03 -0.89201105534E+03  0.13601486371E+04  0.00000000000E+00 0.  1.
         13    1    3    3    0    0 -0.34090521626E+03  0.39269671370E+03 -0.21255795459E+03  0.56178997023E+03  0.10566000000E+00 0. -1.
         -4    1    3    3    0  501  0.32594211856E+03  0.78332891929E+03 -0.15537943500E+04  0.17703444135E+04  0.00000000000E+00 0. -1.
<mgrwt>
<rscale>  0 0.15319169E+04</rscale>
<asrwt>0</asrwt>
<pdfrwt beam="2">  1        4 0.56540228E+00 0.15411114E+04</pdfrwt>
<pdfrwt beam="1">  1       -4 0.99705162E-01 0.15227772E+04</pdfrwt>
<totfact> 0.22826931E-02</totfact>
</mgrwt>
</event>
<event>
 8    1  0.2939692E-006  0.1441616E+04  0.7818608E-02  0.8452097E-01
          4   -1    0    0  502    0  0.00000000000E+00  0.00000000000E+00  0.33054635418E+04  0.33054635418E+04  0.00000000000E+00 0.  1.
         -4   -1    0    0    0  501 -0.00000000000E+00 -0.00000000000E+00 -0.94489075695E+03  0.94489075695E+03  0.00000000000E+00 0. -1.
   -9000010    2    1    2    0  501 -0.80692288277E+03  0.58481272468E+03 -0.64172460220E+02  0.14430438673E+04  0.10416943105E+04 0.  0.
    9000010    2    1    2  502    0  0.80692288277E+03 -0.58481272468E+03  0.24247452451E+04  0.28073104315E+04  0.10042270130E+04 0.  0.
        -13    1    4    4    0    0  0.23421183930E+03 -0.77164818125E+03  0.12591464651E+04  0.14952410953E+04  0.10566000000E+00 0.  1.
          4    1    4    4  502    0  0.57271104347E+03  0.18683545657E+03  0.11655987800E+04  0.13120693362E+04  0.00000000000E+00 0.  1.
         13    1    3    3    0    0 -0.10975954759E+03 -0.29540239075E+03 -0.56488103760E+02  0.32015722353E+03  0.10566000000E+00 0. -1.
         -4    1    3    3    0  501 -0.69716333517E+03  0.88021511543E+03 -0.76843564597E+01  0.11228866437E+04  0.00000000000E+00 0. -1.
<mgrwt>
<rscale>  0 0.14281351E+04</rscale>
<asrwt>0</asrwt>
<pdfrwt beam="1">  1        4 0.50853285E+00 0.14147800E+04</pdfrwt>
<pdfrwt beam="2">  1       -4 0.14536781E+00 0.14416163E+04</pdfrwt>
<totfact> 0.23353593E-02</totfact>
</mgrwt>
</event>
<event>
 8    1  0.2939692E-006  0.1125518E+04  0.7818608E-02  0.8682802E-01
          4   -1    0    0  502    0  0.00000000000E+00  0.00000000000E+00  0.38557852569E+04  0.38557852569E+04  0.00000000000E+00 0.  1.
         -4   -1    0    0    0  501 -0.00000000000E+00 -0.00000000000E+00 -0.39315116788E+03  0.39315116788E+03  0.00000000000E+00 0. -1.
   -9000010    2    1    2    0  501  0.52181741537E+03  0.12151223809E+03  0.81798500554E+03  0.13913627293E+04  0.98981419284E+03 0.  0.
    9000010    2    1    2  502    0 -0.52181741537E+03 -0.12151223809E+03  0.26446490835E+04  0.28575736955E+04  0.94047860744E+03 0.  0.
        -13    1    4    4    0    0 -0.51291897552E+03 -0.11906036772E+03  0.27256515144E+04  0.27760470881E+04  0.10566000000E+00 0.  1.
          4    1    4    4  502    0 -0.88984398453E+01 -0.24518703748E+01 -0.81002430844E+02  0.81526607329E+02  0.00000000000E+00 0.  1.
         13    1    3    3    0    0  0.12039122444E+03 -0.22869959493E+02 -0.22959476640E+03  0.26025151275E+03  0.10566000000E+00 0. -1.
         -4    1    3    3    0  501  0.40142619093E+03  0.14438219759E+03  0.10475797719E+04  0.11311112166E+04  0.00000000000E+00 0. -1.
<mgrwt>
<rscale>  0 0.11037411E+04</rscale>
<asrwt>0</asrwt>
<pdfrwt beam="1">  1        4 0.59319771E+00 0.10823856E+04</pdfrwt>
<pdfrwt beam="2">  1       -4 0.60484798E-01 0.11255180E+04</pdfrwt>
<totfact> 0.47230687E-02</totfact>
</mgrwt>
</event>
<event>
 8    1  0.2939692E-006  0.1260558E+04  0.7818608E-02  0.8583707E-01
          4   -1    0    0  502    0  0.00000000000E+00  0.00000000000E+00  0.13152960453E+04  0.13152960453E+04  0.00000000000E+00 0.  1.
         -4   -1    0    0    0  501 -0.00000000000E+00 -0.00000000000E+00 -0.19170192852E+04  0.19170192852E+04  0.00000000000E+00 0. -1.
   -9000010    2    1    2    0  501 -0.14506537723E+03 -0.71712232214E+03 -0.13170386258E+04  0.17829425470E+04  0.95340704602E+03 0.  0.
    9000010    2    1    2  502    0  0.14506537723E+03  0.71712232214E+03  0.71531538590E+03  0.14493727834E+04  0.10264974308E+04 0.  0.
        -13    1    4    4    0    0  0.33240800855E+03 -0.10699887817E+03  0.43741201561E+03  0.55970807270E+03  0.10566000000E+00 0.  1.
          4    1    4    4  502    0 -0.18734263132E+03  0.82412120032E+03  0.27790337029E+03  0.88966471074E+03  0.00000000000E+00 0.  1.
         13    1    3    3    0    0  0.97297646956E+02 -0.79849313486E+03 -0.55008613908E+03  0.97450135459E+03  0.10566000000E+00 0. -1.
         -4    1    3    3    0  501 -0.24236302419E+03  0.81370812718E+02 -0.76695248677E+03  0.80844119243E+03  0.00000000000E+00 0. -1.
<mgrwt>
<rscale>  0 0.12308218E+04</rscale>
<asrwt>0</asrwt>
<pdfrwt beam="1">  1        4 0.20235324E+00 0.12605576E+04</pdfrwt>
<pdfrwt beam="2">  1       -4 0.29492604E+00 0.12017876E+04</pdfrwt>
<totfact> 0.10301522E-01</totfact>
</mgrwt>
</event>
<event>
 8    1  0.2939692E-006  0.1088206E+04  0.7818608E-02  0.8696616E-01
         -4   -1    0    0    0  501 -0.00000000000E+00  0.00000000000E+00  0.15474052162E+04  0.15474052162E+04  0.00000000000E+00 0. -1.
          4   -1    0    0  502    0  0.00000000000E+00 -0.00000000000E+00 -0.95447106557E+03  0.95447106557E+03  0.00000000000E+00 0.  1.
   -9000010    2    1    2    0  501  0.41383490450E+03  0.16577245092E+03  0.85543217896E+03  0.13841809702E+04  0.99269980954E+03 0.  0.
    9000010    2    1    2  502    0 -0.41383490450E+03 -0.16577245092E+03 -0.26249802832E+03  0.11176953116E+04  0.99075615616E+03 0.  0.
        -13    1    4    4    0    0  0.17698459618E+03 -0.38967076183E+03 -0.22802250056E+03  0.48493414175E+03  0.10566000000E+00 0.  1.
          4    1    4    4  502    0 -0.59081950068E+03  0.22389831092E+03 -0.34475527760E+02  0.63276116982E+03  0.00000000000E+00 0.  1.
         13    1    3    3    0    0  0.48541923740E+03  0.52843238665E+03  0.53618330306E+03  0.89574838484E+03  0.10566000000E+00 0. -1.
         -4    1    3    3    0  501 -0.71584332903E+02 -0.36265993573E+03  0.31924887590E+03  0.48843258539E+03  0.00000000000E+00 0. -1.
<mgrwt>
<rscale>  0 0.10873195E+04</rscale>
<asrwt>0</asrwt>
<pdfrwt beam="2">  1        4 0.14684170E+00 0.10864334E+04</pdfrwt>
<pdfrwt beam="1">  1       -4 0.23806234E+00 0.10882062E+04</pdfrwt>
<totfact> 0.22303949E-01</totfact>
</mgrwt>
</event>
<event>
 8    1  0.2939692E-006  0.1165039E+04  0.7818608E-02  0.8638828E-01
          4   -1    0    0  502    0  0.00000000000E+00  0.00000000000E+00  0.17097612344E+04  0.17097612344E+04  0.00000000000E+00 0.  1.
         -4   -1    0    0    0  501 -0.00000000000E+00 -0.00000000000E+00 -0.17157372347E+04  0.17157372347E+04  0.00000000000E+00 0. -1.
   -9000010    2    1    2    0  501 -0.46974828840E+02 -0.56813411064E+03 -0.12648667422E+04  0.17196519669E+04  0.10160374056E+04 0.  0.
    9000010    2    1    2  502    0  0.46974828840E+02  0.56813411064E+03  0.12588907418E+04  0.17058465022E+04  0.10000616915E+04 0.  0.
        -13    1    4    4    0    0 -0.42966548963E+02 -0.28256171491E+03  0.22371880942E+03  0.36295642151E+03  0.10566000000E+00 0.  1.
          4    1    4    4  502    0  0.89941377803E+02  0.85069582556E+03  0.10351719324E+04  0.13428900807E+04  0.00000000000E+00 0.  1.
         13    1    3    3    0    0 -0.42480001150E+03 -0.62705740303E+03 -0.66304227875E+03  0.10066186522E+04  0.10566000000E+00 0. -1.
         -4    1    3    3    0  501  0.37782518266E+03  0.58923292385E+02 -0.60182446343E+03  0.71303331467E+03  0.00000000000E+00 0. -1.
<mgrwt>
<rscale>  0 0.11580648E+04</rscale>
<asrwt>0</asrwt>
<pdfrwt beam="1">  1        4 0.26304019E+00 0.11511327E+04</pdfrwt>
<pdfrwt beam="2">  1       -4 0.26395958E+00 0.11650386E+04</pdfrwt>
<totfact> 0.87576087E-02</totfact>
</mgrwt>
</event>
<event>
 8    1  0.2939692E-006  0.1105252E+04  0.7818608E-02  0.8720322E-01
          4   -1    0    0  502    0  0.00000000000E+00  0.00000000000E+00  0.37394868630E+04  0.37394868630E+04  0.00000000000E+00 0.  1.
         -4   -1    0    0    0  501 -0.00000000000E+00 -0.00000000000E+00 -0.55679022392E+03  0.55679022392E+03  0.00000000000E+00 0. -1.
   -9000010    2    1    2    0  501  0.33029706590E+03  0.21639500353E+03  0.17183756567E+03  0.11185299193E+04  0.10323071646E+04 0.  0.
    9000010    2    1    2  502    0 -0.33029706590E+03 -0.21639500353E+03  0.30108590734E+04  0.31777471676E+04  0.93641964517E+03 0.  0.
        -13    1    4    4    0    0 -0.56903061668E+03  0.48449457036E+02  0.24297889109E+04  0.24960002715E+04  0.10566000000E+00 0.  1.
          4    1    4    4  502    0  0.23873355078E+03 -0.26484446056E+03  0.58107016243E+03  0.68174689601E+03  0.00000000000E+00 0.  1.
         13    1    3    3    0    0  0.30648534572E+03  0.61083642610E+03 -0.10123329065E+02  0.68348877061E+03  0.10566000000E+00 0. -1.
         -4    1    3    3    0  501  0.23811720180E+02 -0.39444142258E+03  0.18196089473E+03  0.43504114871E+03  0.00000000000E+00 0. -1.
<mgrwt>
<rscale>  0 0.10598273E+04</rscale>
<asrwt>0</asrwt>
<pdfrwt beam="1">  1        4 0.57530566E+00 0.10162700E+04</pdfrwt>
<pdfrwt beam="2">  1       -4 0.85660037E-01 0.11052516E+04</pdfrwt>
<totfact> 0.28640391E-02</totfact>
</mgrwt>
</event>
<event>
 8    1  0.2939692E-006  0.1052540E+04  0.7818608E-02  0.8727660E-01
          4   -1    0    0  502    0  0.00000000000E+00  0.00000000000E+00  0.32621431879E+03  0.32621431879E+03  0.00000000000E+00 0.  1.
         -4   -1    0    0    0  501 -0.00000000000E+00 -0.00000000000E+00 -0.35209643055E+04  0.35209643055E+04  0.00000000000E+00 0. -1.
   -9000010    2    1    2    0  501 -0.57025458668E+02 -0.35994935412E+03 -0.19709043270E+04  0.22343467201E+04  0.98743402760E+03 0.  0.
    9000010    2    1    2  502    0  0.57025458668E+02  0.35994935412E+03 -0.12238456597E+04  0.16128319042E+04  0.98519699146E+03 0.  0.
        -13    1    4    4    0    0 -0.19412630348E+03  0.35131305321E+03 -0.12916234241E+04  0.13525520189E+04  0.10566000000E+00 0.  1.
          4    1    4    4  502    0  0.25115176215E+03  0.86363009116E+01  0.67777764416E+02  0.26027988526E+03  0.00000000000E+00 0.  1.
         13    1    3    3    0    0 -0.98162411041E+02 -0.70132087689E+03 -0.13600000702E+04  0.15333254819E+04  0.10566000000E+00 0. -1.
         -4    1    3    3    0  501  0.41136952373E+02  0.34137152277E+03 -0.61090425686E+03  0.70102123824E+03  0.00000000000E+00 0. -1.
<mgrwt>
<rscale>  0 0.10514907E+04</rscale>
<asrwt>0</asrwt>
<pdfrwt beam="1">  1        4 0.50186818E-01 0.10504421E+04</pdfrwt>
<pdfrwt beam="2">  1       -4 0.54168682E+00 0.10525405E+04</pdfrwt>
<totfact> 0.13280408E-01</totfact>
</mgrwt>
</event>
<event>
 8    1  0.2939692E-006  0.1045168E+04  0.7818608E-02  0.8742140E-01
          4   -1    0    0  502    0  0.00000000000E+00  0.00000000000E+00  0.16010706764E+04  0.16010706764E+04  0.00000000000E+00 0.  1.
         -4   -1    0    0    0  501 -0.00000000000E+00 -0.00000000000E+00 -0.77096106625E+03  0.77096106625E+03  0.00000000000E+00 0. -1.
   -9000010    2    1    2    0  501 -0.40537648545E+02  0.21285979489E+03 -0.18656996324E+02  0.10256359770E+04  0.10023115686E+04 0.  0.
    9000010    2    1    2  502    0  0.40537648545E+02 -0.21285979489E+03  0.84876660651E+03  0.13463957656E+04  0.10224598829E+04 0.  0.
        -13    1    4    4    0    0 -0.42589676533E+02 -0.20554700128E+02  0.10528556379E+04  0.10539171607E+04  0.10566000000E+00 0.  1.
          4    1    4    4  502    0  0.83127325077E+02 -0.19230509476E+03 -0.20408903135E+03  0.29247860496E+03  0.00000000000E+00 0.  1.
         13    1    3    3    0    0  0.12935163934E+03 -0.81812034012E+02  0.43355839516E+03  0.45978032656E+03  0.10566000000E+00 0. -1.
         -4    1    3    3    0  501 -0.16988928788E+03  0.29467182890E+03 -0.45221539148E+03  0.56585565048E+03  0.00000000000E+00 0. -1.
<mgrwt>
<rscale>  0 0.10352704E+04</rscale>
<asrwt>0</asrwt>
<pdfrwt beam="1">  1        4 0.24631856E+00 0.10451683E+04</pdfrwt>
<pdfrwt beam="2">  1       -4 0.11860940E+00 0.10254663E+04</pdfrwt>
<totfact> 0.29977081E-01</totfact>
</mgrwt>
</event>
<event>
 8    1  0.2939692E-006  0.1759960E+04  0.7818608E-02  0.8276741E-01
         -4   -1    0    0    0  501 -0.00000000000E+00  0.00000000000E+00  0.24113393329E+04  0.24113393329E+04  0.00000000000E+00 0.  1.
          4   -1    0    0  502    0  0.00000000000E+00 -0.00000000000E+00 -0.14766437213E+04  0.14766437213E+04  0.00000000000E+00 0. -1.
   -9000010    2    1    2    0  501  0.40439021950E+03 -0.13909538609E+04 -0.25139058889E+03  0.17656589940E+04  0.97778850582E+03 0.  0.
    9000010    2    1    2  502    0 -0.40439021950E+03  0.13909538609E+04  0.11860862005E+04  0.21223240601E+04  0.99958733907E+03 0.  0.
        -13    1    4    4    0    0 -0.72299915952E+03  0.10127561980E+04  0.99088155881E+03  0.15906756979E+04  0.10566000000E+00 0.  1.
          4    1    4    4  502    0  0.31860894002E+03  0.37819766295E+03  0.19520464167E+03  0.53164836222E+03  0.00000000000E+00 0.  1.
         13    1    3    3    0    0 -0.88635880403E+02 -0.12162755182E+04 -0.23753905551E+03  0.12424199248E+04  0.10566000000E+00 0. -1.
         -4    1    3    3    0  501  0.49302609991E+03 -0.17467834275E+03 -0.13851533377E+02  0.52323906925E+03  0.00000000000E+00 0. -1.
<mgrwt>
<rscale>  0 0.17538048E+04</rscale>
<asrwt>0</asrwt>
<pdfrwt beam="2">  1        4 0.22717596E+00 0.17599599E+04</pdfrwt>
<pdfrwt beam="1">  1       -4 0.37097528E+00 0.17476712E+04</pdfrwt>
<totfact> 0.49389089E-02</totfact>
</mgrwt>
</event>
<event>
 8    1  0.2939692E-006  0.1275941E+04  0.7818608E-02  0.8561181E-01
          4   -1    0    0  502    0  0.00000000000E+00  0.00000000000E+00  0.23798526825E+04  0.23798526825E+04  0.00000000000E+00 0.  1.
         -4   -1    0    0    0  501 -0.00000000000E+00 -0.00000000000E+00 -0.67713963508E+03  0.67713963508E+03  0.00000000000E+00 0. -1.
   -9000010    2    1    2    0  501 -0.73979628559E+03 -0.27012653648E+03  0.67932900332E+03  0.14213458533E+04  0.96874622579E+03 0.  0.
    9000010    2    1    2  502    0  0.73979628559E+03  0.27012653648E+03  0.10233840441E+04  0.16356464643E+04  0.10038712888E+04 0.  0.
        -13    1    4    4    0    0  0.74875916954E+03  0.44719372700E+03  0.35072733008E+03  0.94001712467E+03  0.10566000000E+00 0.  1.
          4    1    4    4  502    0 -0.89628839453E+01 -0.17706719052E+03  0.67265671401E+03  0.69562933963E+03  0.00000000000E+00 0.  1.
         13    1    3    3    0    0  0.19904242307E+02 -0.44211134085E+03  0.39172087907E+03  0.59101935233E+03  0.10566000000E+00 0. -1.
         -4    1    3    3    0  501 -0.75970052790E+03  0.17198480438E+03  0.28760812425E+03  0.83032650094E+03  0.00000000000E+00 0. -1.
<mgrwt>
<rscale>  0 0.12621425E+04</rscale>
<asrwt>0</asrwt>
<pdfrwt beam="1">  1        4 0.36613118E+00 0.12759406E+04</pdfrwt>
<pdfrwt beam="2">  1       -4 0.10417533E+00 0.12484935E+04</pdfrwt>
<totfact> 0.17219701E-01</totfact>
</mgrwt>
</event>
<event>
 8    1  0.2939692E-006  0.1057303E+04  0.7818608E-02  0.8734979E-01
         -4   -1    0    0    0  501 -0.00000000000E+00  0.00000000000E+00  0.79656063893E+03  0.79656063893E+03  0.00000000000E+00 0. -1.
          4   -1    0    0  502    0  0.00000000000E+00 -0.00000000000E+00 -0.29298156781E+04  0.29298156781E+04  0.00000000000E+00 0.  1.
   -9000010    2    1    2    0  501  0.43164927346E+02  0.34878123780E+03  0.28762637539E+03  0.10957278311E+04  0.99718553203E+03 0.  0.
    9000010    2    1    2  502    0 -0.43164927346E+02 -0.34878123780E+03 -0.24208814146E+04  0.26306484859E+04  0.96753969960E+03 0.  0.
        -13    1    4    4    0    0  0.30186055809E+02 -0.67040023137E+03 -0.18902261648E+04  0.20058171984E+04  0.10566000000E+00 0.  1.
          4    1    4    4  502    0 -0.73350983155E+02  0.32161899357E+03 -0.53065524983E+03  0.62483128757E+03  0.00000000000E+00 0.  1.
         13    1    3    3    0    0 -0.75281847404E+02 -0.34433266514E+03  0.12527345565E+03  0.37406655916E+03  0.10566000000E+00 0. -1.
         -4    1    3    3    0  501  0.11844677475E+03  0.69311390294E+03  0.16235291974E+03  0.72166127196E+03  0.00000000000E+00 0. -1.
<mgrwt>
<rscale>  0 0.10432536E+04</rscale>
<asrwt>0</asrwt>
<pdfrwt beam="2">  1        4 0.45074087E+00 0.10293904E+04</pdfrwt>
<pdfrwt beam="1">  1       -4 0.12254779E+00 0.10573034E+04</pdfrwt>
<totfact> 0.59380334E-02</totfact>
</mgrwt>
</event>
<event>
 8    1  0.2939692E-006  0.1070966E+04  0.7818608E-02  0.8723793E-01
         -4   -1    0    0    0  501 -0.00000000000E+00  0.00000000000E+00  0.19450210744E+04  0.19450210744E+04  0.00000000000E+00 0. -1.
          4   -1    0    0  502    0  0.00000000000E+00 -0.00000000000E+00 -0.16792724021E+04  0.16792724021E+04  0.00000000000E+00 0.  1.
   -9000010    2    1    2    0  501  0.19346564819E+03 -0.18158589901E+03  0.16028104910E+04  0.19111958884E+04  0.10066110758E+04 0.  0.
    9000010    2    1    2  502    0 -0.19346564819E+03  0.18158589901E+03 -0.13370618187E+04  0.17130975881E+04  0.10375772953E+04 0.  0.
        -13    1    4    4    0    0  0.35654923410E+03  0.29914113810E+03 -0.37081189651E+03  0.59507499578E+03  0.10566000000E+00 0.  1.
          4    1    4    4  502    0 -0.55001488229E+03 -0.11755523909E+03 -0.96624992216E+03  0.11180225924E+04  0.00000000000E+00 0.  1.
         13    1    3    3    0    0  0.55799826737E+03 -0.29155330715E+03  0.12108553922E+04  0.13647476650E+04  0.10566000000E+00 0. -1.
         -4    1    3    3    0  501 -0.36453261918E+03  0.10996740814E+03  0.39195509883E+03  0.54644822335E+03  0.00000000000E+00 0. -1.
<mgrwt>
<rscale>  0 0.10558738E+04</rscale>
<asrwt>0</asrwt>
<pdfrwt beam="2">  1        4 0.25834960E+00 0.10709664E+04</pdfrwt>
<pdfrwt beam="1">  1       -4 0.29923401E+00 0.10409939E+04</pdfrwt>
<totfact> 0.73719346E-02</totfact>
</mgrwt>
</event>
<event>
 8    1  0.2939692E-006  0.1338108E+04  0.7818608E-02  0.8511410E-01
         -4   -1    0    0    0  501 -0.00000000000E+00  0.00000000000E+00  0.83492757821E+03  0.83492757821E+03  0.00000000000E+00 0. -1.
          4   -1    0    0  502    0  0.00000000000E+00 -0.00000000000E+00 -0.28046293791E+04  0.28046293791E+04  0.00000000000E+00 0.  1.
   -9000010    2    1    2    0  501  0.83106825430E+03 -0.30044622690E+03 -0.93180694189E+02  0.13348087802E+04  0.99603687647E+03 0.  0.
    9000010    2    1    2  502    0 -0.83106825430E+03  0.30044622690E+03 -0.18765211067E+04  0.23047481771E+04  0.10047837168E+04 0.  0.
        -13    1    4    4    0    0 -0.95118562134E+02  0.45418989557E+03 -0.12248038781E+04  0.13097635486E+04  0.10566000000E+00 0.  1.
          4    1    4    4  502    0 -0.73594969217E+03 -0.15374366867E+03 -0.65171722854E+03  0.99498462854E+03  0.00000000000E+00 0.  1.
         13    1    3    3    0    0  0.40904983023E+03 -0.56486936683E+03 -0.34349646478E+03  0.77742459292E+03  0.10566000000E+00 0. -1.
         -4    1    3    3    0  501  0.42201842407E+03  0.26442313994E+03  0.25031577059E+03  0.55738418725E+03  0.00000000000E+00 0. -1.
<mgrwt>
<rscale>  0 0.13348261E+04</rscale>
<asrwt>0</asrwt>
<pdfrwt beam="2">  1        4 0.43148145E+00 0.13381079E+04</pdfrwt>
<pdfrwt beam="1">  1       -4 0.12845039E+00 0.13315524E+04</pdfrwt>
<totfact> 0.65389849E-02</totfact>
</mgrwt>
</event>
<event>
 8    1  0.2939692E-006  0.1477097E+04  0.7818608E-02  0.8426050E-01
         -4   -1    0    0    0  501 -0.00000000000E+00  0.00000000000E+00  0.26989799081E+04  0.26989799081E+04  0.00000000000E+00 0. -1.
          4   -1    0    0  502    0  0.00000000000E+00 -0.00000000000E+00 -0.80267503132E+03  0.80267503132E+03  0.00000000000E+00 0.  1.
   -9000010    2    1    2    0  501 -0.88100126977E+03 -0.63724973889E+03  0.97923452145E+03  0.17630253086E+04  0.98341625152E+03 0.  0.
    9000010    2    1    2  502    0  0.88100126977E+03  0.63724973889E+03  0.91707035532E+03  0.17386296308E+04  0.99978222099E+03 0.  0.
        -13    1    4    4    0    0  0.80184220739E+03  0.88526153709E+03  0.62744148457E+03  0.13491929967E+04  0.10566000000E+00 0.  1.
          4    1    4    4  502    0  0.79159062377E+02 -0.24801179820E+03  0.28962887075E+03  0.38943663409E+03  0.00000000000E+00 0.  1.
         13    1    3    3    0    0 -0.40770511606E+03  0.13756177060E+02  0.85671790801E+03  0.94888264772E+03  0.10566000000E+00 0. -1.
         -4    1    3    3    0  501 -0.47329615371E+03 -0.65100591595E+03  0.12251661344E+03  0.81414266090E+03  0.00000000000E+00 0. -1.
<mgrwt>
<rscale>  0 0.14715725E+04</rscale>
<asrwt>0</asrwt>
<pdfrwt beam="2">  1        4 0.12348847E+00 0.14770968E+04</pdfrwt>
<pdfrwt beam="1">  1       -4 0.41522767E+00 0.14660689E+04</pdfrwt>
<totfact> 0.81100011E-02</totfact>
</mgrwt>
</event>
<event>
 8    1  0.2939692E-006  0.1305645E+04  0.7818608E-02  0.8532142E-01
          4   -1    0    0  502    0  0.00000000000E+00  0.00000000000E+00  0.19503594034E+04  0.19503594034E+04  0.00000000000E+00 0.  1.
         -4   -1    0    0    0  501 -0.00000000000E+00 -0.00000000000E+00 -0.27938240509E+04  0.27938240509E+04  0.00000000000E+00 0. -1.
   -9000010    2    1    2    0  501  0.38038108206E+02 -0.84418413973E+03 -0.23890536237E+04  0.27209300318E+04  0.99085279516E+03 0.  0.
    9000010    2    1    2  502    0 -0.38038108206E+02  0.84418413973E+03  0.15455889762E+04  0.20232534225E+04  0.99529662357E+03 0.  0.
        -13    1    4    4    0    0  0.40547341319E+03  0.13530936089E+03  0.29691058956E+03  0.52045482158E+03  0.10566000000E+00 0.  1.
          4    1    4    4  502    0 -0.44351152140E+03  0.70887477885E+03  0.12486783866E+04  0.15027986009E+04  0.00000000000E+00 0.  1.
         13    1    3    3    0    0  0.39125472675E+03 -0.32496986519E+02 -0.50827191444E+03  0.64224346280E+03  0.10566000000E+00 0. -1.
         -4    1    3    3    0  501 -0.35321661855E+03 -0.81168715321E+03 -0.18807817093E+04  0.20786865690E+04  0.00000000000E+00 0. -1.
<mgrwt>
<rscale>  0 0.13039518E+04</rscale>
<asrwt>0</asrwt>
<pdfrwt beam="1">  1        4 0.30005529E+00 0.13056451E+04</pdfrwt>
<pdfrwt beam="2">  1       -4 0.42981908E+00 0.13022607E+04</pdfrwt>
<totfact> 0.19604564E-02</totfact>
</mgrwt>
</event>
<event>
 8    1  0.2939692E-006  0.1774611E+04  0.7818608E-02  0.8268380E-01
         -4   -1    0    0    0  501 -0.00000000000E+00  0.00000000000E+00  0.13904886592E+04  0.13904886592E+04  0.00000000000E+00 0. -1.
          4   -1    0    0  502    0  0.00000000000E+00 -0.00000000000E+00 -0.29505937129E+04  0.29505937129E+04  0.00000000000E+00 0.  1.
   -9000010    2    1    2    0  501 -0.13020514191E+04  0.64274425958E+03  0.27350957126E+03  0.17893404024E+04  0.10091944852E+04 0.  0.
    9000010    2    1    2  502    0  0.13020514191E+04 -0.64274425958E+03 -0.18336146250E+04  0.25517419696E+04  0.10201893967E+04 0.  0.
        -13    1    4    4    0    0  0.29884703001E+03 -0.20728480829E+03 -0.12707215386E+04  0.13217449750E+04  0.10566000000E+00 0.  1.
          4    1    4    4  502    0  0.10032043891E+04 -0.43545945128E+03 -0.56289308644E+03  0.12299969947E+04  0.00000000000E+00 0.  1.
         13    1    3    3    0    0 -0.83551121298E+03  0.13642994047E+03 -0.29496639177E+03  0.89649166148E+03  0.10566000000E+00 0. -1.
         -4    1    3    3    0  501 -0.46654020617E+03  0.50631431911E+03  0.56847596302E+03  0.89284874096E+03  0.00000000000E+00 0. -1.
<mgrwt>
<rscale>  0 0.17714593E+04</rscale>
<asrwt>0</asrwt>
<pdfrwt beam="2">  1        4 0.45393749E+00 0.17746111E+04</pdfrwt>
<pdfrwt beam="1">  1       -4 0.21392133E+00 0.17683132E+04</pdfrwt>
<totfact> 0.23920185E-02</totfact>
</mgrwt>
</event>
<event>
 8    1  0.2939692E-006  0.1362766E+04  0.7818608E-02  0.8494176E-01
          4   -1    0    0  502    0  0.00000000000E+00  0.00000000000E+00  0.47324919326E+04  0.47324919326E+04  0.00000000000E+00 0.  1.
         -4   -1    0    0    0  501 -0.00000000000E+00 -0.00000000000E+00 -0.39151149909E+03  0.39151149909E+03  0.00000000000E+00 0. -1.
   -9000010    2    1    2    0  501  0.80067834546E+03 -0.44817069787E+03  0.21536254255E+04  0.25468631040E+04  0.10032279949E+04 0.  0.
    9000010    2    1    2  502    0 -0.80067834546E+03  0.44817069787E+03  0.21873550080E+04  0.25771403277E+04  0.10075651593E+04 0.  0.
        -13    1    4    4    0    0 -0.52834340844E+03  0.77014165999E+03  0.16244803432E+04  0.18738199834E+04  0.10566000000E+00 0.  1.
          4    1    4    4  502    0 -0.27233493702E+03 -0.32197096212E+03  0.56287466482E+03  0.70332034427E+03  0.00000000000E+00 0.  1.
         13    1    3    3    0    0  0.43273974599E+02  0.22033976943E+02 -0.10662047863E+03  0.11715831445E+03  0.10566000000E+00 0. -1.
         -4    1    3    3    0  501  0.75740437087E+03 -0.47020467482E+03  0.22602459041E+04  0.24297047895E+04  0.00000000000E+00 0. -1.
<mgrwt>
<rscale>  0 0.13611630E+04</rscale>
<asrwt>0</asrwt>
<pdfrwt beam="1">  1        4 0.72807564E+00 0.13627657E+04</pdfrwt>
<pdfrwt beam="2">  1       -4 0.60232542E-01 0.13595621E+04</pdfrwt>
<totfact> 0.96974332E-03</totfact>
</mgrwt>
</event>
<event>
 8    1  0.2939692E-006  0.1384393E+04  0.7818608E-02  0.8482761E-01
         -4   -1    0    0    0  501 -0.00000000000E+00  0.00000000000E+00  0.10006893725E+04  0.10006893725E+04  0.00000000000E+00 0. -1.
          4   -1    0    0  502    0  0.00000000000E+00 -0.00000000000E+00 -0.20767129267E+04  0.20767129267E+04  0.00000000000E+00 0.  1.
   -9000010    2    1    2    0  501 -0.36460701445E+03 -0.87671133508E+03 -0.98851162154E+03  0.17010872718E+04  0.10074629721E+04 0.  0.
    9000010    2    1    2  502    0  0.36460701445E+03  0.87671133508E+03 -0.87511932619E+02  0.13763150275E+04  0.99248359005E+03 0.  0.
        -13    1    4    4    0    0  0.49492494706E+03  0.93746816310E+03 -0.31614280545E+03  0.11062294268E+04  0.10566000000E+00 0.  1.
          4    1    4    4  502    0 -0.13031793261E+03 -0.60756828016E+02  0.22863087283E+03  0.27008560073E+03  0.00000000000E+00 0.  1.
         13    1    3    3    0    0 -0.35685532857E+03 -0.89534554874E+03 -0.29598142830E+03  0.10082630581E+04  0.10566000000E+00 0. -1.
         -4    1    3    3    0  501 -0.77516858783E+01  0.18634213659E+02 -0.69253019324E+03  0.69282421371E+03  0.00000000000E+00 0. -1.
<mgrwt>
<rscale>  0 0.13789506E+04</rscale>
<asrwt>0</asrwt>
<pdfrwt beam="2">  1        4 0.31949430E+00 0.13735300E+04</pdfrwt>
<pdfrwt beam="1">  1       -4 0.15395221E+00 0.13843925E+04</pdfrwt>
<totfact> 0.12724188E-01</totfact>
</mgrwt>
</event>
<event>
 8    1  0.2939692E-006  0.1069848E+04  0.7818608E-02  0.8719866E-01
         -4   -1    0    0    0  501 -0.00000000000E+00  0.00000000000E+00  0.11403716713E+04  0.11403716713E+04  0.00000000000E+00 0. -1.
          4   -1    0    0  502    0  0.00000000000E+00 -0.00000000000E+00 -0.20309963651E+04  0.20309963651E+04  0.00000000000E+00 0.  1.
   -9000010    2    1    2    0  501  0.28487121211E+03 -0.80521120445E+02  0.69400027126E+03  0.12594028102E+04  0.10083768162E+04 0.  0.
    9000010    2    1    2  502    0 -0.28487121211E+03  0.80521120445E+02 -0.15846249650E+04  0.19119652263E+04  0.10280756238E+04 0.  0.
        -13    1    4    4    0    0 -0.50285763699E+03  0.42611712076E+03 -0.91892270383E+03  0.11308671675E+04  0.10566000000E+00 0.  1.
          4    1    4    4  502    0  0.21798642488E+03 -0.34559600032E+03 -0.66570226121E+03  0.78109805879E+03  0.00000000000E+00 0.  1.
         13    1    3    3    0    0  0.45154515836E+02  0.41491930858E+03  0.63005758187E+02  0.42209797401E+03  0.10566000000E+00 0. -1.
         -4    1    3    3    0  501  0.23971669627E+03 -0.49544042903E+03  0.63099451307E+03  0.83730483619E+03  0.00000000000E+00 0. -1.
<mgrwt>
<rscale>  0 0.10603481E+04</rscale>
<asrwt>0</asrwt>
<pdfrwt beam="2">  1        4 0.31246098E+00 0.10698480E+04</pdfrwt>
<pdfrwt beam="1">  1       -4 0.17544180E+00 0.10509325E+04</pdfrwt>
<totfact> 0.11295764E-01</totfact>
</mgrwt>
</event>
<event>
 8    1  0.2939692E-006  0.1192624E+04  0.7818608E-02  0.8642958E-01
          4   -1    0    0  502    0  0.00000000000E+00  0.00000000000E+00  0.78120676681E+03  0.78120676681E+03  0.00000000000E+00 0.  1.
         -4   -1    0    0    0  501 -0.00000000000E+00 -0.00000000000E+00 -0.22125549950E+04  0.22125549950E+04  0.00000000000E+00 0. -1.
   -9000010    2    1    2    0  501 -0.25741839655E+03  0.42260065213E+03 -0.14148853412E+04  0.18010244446E+04  0.99846531207E+03 0.  0.
    9000010    2    1    2  502    0  0.25741839655E+03 -0.42260065213E+03 -0.16462886992E+02  0.11927373172E+04  0.10851247574E+04 0.  0.
        -13    1    4    4    0    0 -0.42057256321E+03 -0.25328652156E+03 -0.47427789802E+02  0.49323903874E+03  0.10566000000E+00 0.  1.
          4    1    4    4  502    0  0.67799095976E+03 -0.16931413057E+03  0.30964902810E+02  0.69949827843E+03  0.00000000000E+00 0.  1.
         13    1    3    3    0    0  0.31850253847E+03  0.19480367462E+03 -0.16926796017E+03  0.40993169207E+03  0.10566000000E+00 0. -1.
         -4    1    3    3    0  501 -0.57592093502E+03  0.22779697751E+03 -0.12456173810E+04  0.13910927526E+04  0.00000000000E+00 0. -1.
<mgrwt>
<rscale>  0 0.11528256E+04</rscale>
<asrwt>0</asrwt>
<pdfrwt beam="1">  1        4 0.12018566E+00 0.11926237E+04</pdfrwt>
<pdfrwt beam="2">  1       -4 0.34039308E+00 0.11143557E+04</pdfrwt>
<totfact> 0.16571999E-01</totfact>
</mgrwt>
</event>
<event>
 8    1  0.2939692E-006  0.1039751E+04  0.7818608E-02  0.8744540E-01
          4   -1    0    0  502    0  0.00000000000E+00  0.00000000000E+00  0.81807628395E+03  0.81807628395E+03  0.00000000000E+00 0.  1.
         -4   -1    0    0    0  501 -0.00000000000E+00 -0.00000000000E+00 -0.20632916311E+04  0.20632916311E+04  0.00000000000E+00 0. -1.
   -9000010    2    1    2    0  501 -0.17698224063E+03  0.19713480259E+03 -0.14995739209E+04  0.18247750894E+04  0.10054339056E+04 0.  0.
    9000010    2    1    2  502    0  0.17698224063E+03 -0.19713480259E+03  0.25435857377E+03  0.10565928257E+04  0.99070947879E+03 0.  0.
        -13    1    4    4    0    0  0.55930607444E+03  0.85414302165E+01  0.27221193674E+03  0.62208969659E+03  0.10566000000E+00 0.  1.
          4    1    4    4  502    0 -0.38232383380E+03 -0.20567623280E+03 -0.17853362970E+02  0.43450312911E+03  0.00000000000E+00 0.  1.
         13    1    3    3    0    0 -0.52298085543E+03  0.10683123246E+03 -0.13216433784E+04  0.14253642055E+04  0.10566000000E+00 0. -1.
         -4    1    3    3    0  501  0.34599861479E+03  0.90303570125E+02 -0.17793054254E+03  0.39941088391E+03  0.00000000000E+00 0. -1.
<mgrwt>
<rscale>  0 0.10326107E+04</rscale>
<asrwt>0</asrwt>
<pdfrwt beam="1">  1        4 0.12585789E+00 0.10255194E+04</pdfrwt>
<pdfrwt beam="2">  1       -4 0.31742948E+00 0.10397510E+04</pdfrwt>
<totfact> 0.17931982E-01</totfact>
</mgrwt>
</event>
<event>
 8    1  0.2939692E-006  0.1086746E+04  0.7818608E-02  0.8697967E-01
          4   -1    0    0  502    0  0.00000000000E+00  0.00000000000E+00  0.78930211517E+03  0.78930211517E+03  0.00000000000E+00 0.  1.
         -4   -1    0    0    0  501 -0.00000000000E+00 -0.00000000000E+00 -0.34417026930E+04  0.34417026930E+04  0.00000000000E+00 0. -1.
   -9000010    2    1    2    0  501 -0.33589982751E+03  0.18049069712E+03 -0.29173048632E+04  0.31124381879E+04  0.10154793069E+04 0.  0.
    9000010    2    1    2  502    0  0.33589982751E+03 -0.18049069712E+03  0.26490428533E+03  0.11185666203E+04  0.10176499486E+04 0.  0.
        -13    1    4    4    0    0 -0.22203973220E+03 -0.36604252232E+03  0.31042605044E+03  0.52882238490E+03  0.10566000000E+00 0.  1.
          4    1    4    4  502    0  0.55793955970E+03  0.18555182520E+03 -0.45521765107E+02  0.58974423542E+03  0.00000000000E+00 0.  1.
         13    1    3    3    0    0 -0.38888767625E+03 -0.14442690409E+03 -0.26664977060E+04  0.26985742129E+04  0.10566000000E+00 0. -1.
         -4    1    3    3    0  501  0.52987848745E+02  0.32491760121E+03 -0.25080715722E+03  0.41386397500E+03  0.00000000000E+00 0. -1.
<mgrwt>
<rscale>  0 0.10857294E+04</rscale>
<asrwt>0</asrwt>
<pdfrwt beam="1">  1        4 0.12143110E+00 0.10867461E+04</pdfrwt>
<pdfrwt beam="2">  1       -4 0.52949272E+00 0.10847137E+04</pdfrwt>
<totfact> 0.25580312E-02</totfact>
</mgrwt>
</event>
<event>
 8    1  0.2939692E-006  0.1241411E+04  0.7818608E-02  0.8661262E-01
          4   -1    0    0  502    0  0.00000000000E+00  0.00000000000E+00  0.58606248222E+03  0.58606248222E+03  0.00000000000E+00 0. -1.
         -4   -1    0    0    0  501 -0.00000000000E+00 -0.00000000000E+00 -0.22386510230E+04  0.22386510230E+04  0.00000000000E+00 0.  1.
   -9000010    2    1    2    0  501 -0.59807257877E+02 -0.30829221146E+03 -0.56055750128E+03  0.11713432337E+04  0.97938718752E+03 0.  0.
    9000010    2    1    2  502    0  0.59807257877E+02  0.30829221146E+03 -0.10920310395E+04  0.16533702715E+04  0.12010330836E+04 0.  0.
        -13    1    4    4    0    0 -0.19464324280E+03 -0.42377569375E+03 -0.40348617824E+03  0.61666274233E+03  0.10566000000E+00 0.  1.
          4    1    4    4  502    0  0.25445050068E+03  0.73206790521E+03 -0.68854486125E+03  0.10367075292E+04  0.00000000000E+00 0.  1.
         13    1    3    3    0    0 -0.38424010447E+03  0.17899447146E+03 -0.34834471581E+03  0.54865611351E+03  0.10566000000E+00 0. -1.
         -4    1    3    3    0  501  0.32443284659E+03 -0.48728668292E+03 -0.21221278547E+03  0.62268712016E+03  0.00000000000E+00 0. -1.
<mgrwt>
<rscale>  0 0.11299540E+04</rscale>
<asrwt>0</asrwt>
<pdfrwt beam="1">  1        4 0.90163459E-01 0.12414111E+04</pdfrwt>
<pdfrwt beam="2">  1       -4 0.34440785E+00 0.10285039E+04</pdfrwt>
<totfact> 0.27646871E-01</totfact>
</mgrwt>
</event>
<event>
 8    1  0.2939692E-006  0.1107870E+04  0.7818608E-02  0.8684796E-01
         -4   -1    0    0    0  501 -0.00000000000E+00  0.00000000000E+00  0.60239223242E+03  0.60239223242E+03  0.00000000000E+00 0. -1.
          4   -1    0    0  502    0  0.00000000000E+00 -0.00000000000E+00 -0.31409662077E+04  0.31409662077E+04  0.00000000000E+00 0.  1.
   -9000010    2    1    2    0  501  0.27800760298E+03 -0.36266643910E+03 -0.14320592653E+03  0.11041988316E+04  0.99495323953E+03 0.  0.
    9000010    2    1    2  502    0 -0.27800760298E+03  0.36266643910E+03 -0.23953680487E+04  0.26391596086E+04  0.10092374236E+04 0.  0.
        -13    1    4    4    0    0 -0.25443035326E+03  0.69974237286E+03 -0.18886019741E+04  0.20300718265E+04  0.10566000000E+00 0.  1.
          4    1    4    4  502    0 -0.23577249721E+02 -0.33707593376E+03 -0.50676607462E+03  0.60908778203E+03  0.00000000000E+00 0.  1.
         13    1    3    3    0    0 -0.31221658974E+03 -0.27173416635E+03 -0.26935488127E+03  0.49383268351E+03  0.10566000000E+00 0. -1.
         -4    1    3    3    0  501  0.59022419272E+03 -0.90932272747E+02  0.12614895474E+03  0.61036614805E+03  0.00000000000E+00 0. -1.
<mgrwt>
<rscale>  0 0.11013523E+04</rscale>
<asrwt>0</asrwt>
<pdfrwt beam="2">  1        4 0.48322558E+00 0.11078697E+04</pdfrwt>
<pdfrwt beam="1">  1       -4 0.92675727E-01 0.10948731E+04</pdfrwt>
<totfact> 0.68837010E-02</totfact>
</mgrwt>
</event>
<event>
 8    1  0.2939692E-006  0.1644882E+04  0.7818608E-02  0.8330999E-01
         -4   -1    0    0    0  501 -0.00000000000E+00  0.00000000000E+00  0.96738934094E+03  0.96738934094E+03  0.00000000000E+00 0. -1.
          4   -1    0    0  502    0  0.00000000000E+00 -0.00000000000E+00 -0.30714639834E+04  0.30714639834E+04  0.00000000000E+00 0.  1.
   -9000010    2    1    2    0  501  0.28333446705E+03  0.12726150991E+04 -0.44547818249E+03  0.17029212140E+04  0.10008307745E+04 0.  0.
    9000010    2    1    2  502    0 -0.28333446705E+03 -0.12726150991E+04 -0.16585964600E+04  0.23359321104E+04  0.10029002925E+04 0.  0.
        -13    1    4    4    0    0 -0.62172906524E+03 -0.98775154231E+03 -0.97045547031E+03  0.15178879968E+04  0.10566000000E+00 0.  1.
          4    1    4    4  502    0  0.33839459818E+03 -0.28486355678E+03 -0.68814098969E+03  0.81804411358E+03  0.00000000000E+00 0.  1.
         13    1    3    3    0    0  0.46169187881E+03  0.13404872732E+03 -0.44960534590E+02  0.48285599623E+03  0.10566000000E+00 0. -1.
         -4    1    3    3    0  501 -0.17835741176E+03  0.11385663718E+04 -0.40051764790E+03  0.12200652177E+04  0.00000000000E+00 0. -1.
<mgrwt>
<rscale>  0 0.16442513E+04</rscale>
<asrwt>0</asrwt>
<pdfrwt beam="2">  1        4 0.47253292E+00 0.16448819E+04</pdfrwt>
<pdfrwt beam="1">  1       -4 0.14882913E+00 0.16436210E+04</pdfrwt>
<totfact> 0.32609059E-02</totfact>
</mgrwt>
</event>
<event>
 8    1  0.2939692E-006  0.1087235E+04  0.7818608E-02  0.8699848E-01
          4   -1    0    0  502    0  0.00000000000E+00  0.00000000000E+00  0.18170884055E+04  0.18170884055E+04  0.00000000000E+00 0.  1.
         -4   -1    0    0    0  501 -0.00000000000E+00 -0.00000000000E+00 -0.10371910221E+04  0.10371910221E+04  0.00000000000E+00 0. -1.
   -9000010    2    1    2    0  501 -0.32102555524E+03 -0.21169937680E+03 -0.48555783619E+03  0.11907334519E+04  0.10169590493E+04 0.  0.
    9000010    2    1    2  502    0  0.32102555524E+03  0.21169937680E+03  0.12654552196E+04  0.16635459757E+04  0.10090263957E+04 0.  0.
        -13    1    4    4    0    0 -0.27355880225E+02 -0.97884885276E+02  0.11865001910E+04  0.11908452919E+04  0.10566000000E+00 0.  1.
          4    1    4    4  502    0  0.34838143547E+03  0.30958426208E+03  0.78955028625E+02  0.47270068378E+03  0.00000000000E+00 0.  1.
         13    1    3    3    0    0  0.31842726306E+03  0.15019923076E+03 -0.17252128043E+03  0.39207057292E+03  0.10566000000E+00 0. -1.
         -4    1    3    3    0  501 -0.63945281830E+03 -0.36189860756E+03 -0.31303655576E+03  0.79866287896E+03  0.00000000000E+00 0. -1.
<mgrwt>
<rscale>  0 0.10835204E+04</rscale>
<asrwt>0</asrwt>
<pdfrwt beam="1">  1        4 0.27955206E+00 0.10798186E+04</pdfrwt>
<pdfrwt beam="2">  1       -4 0.15956785E+00 0.10872349E+04</pdfrwt>
<totfact> 0.15768863E-01</totfact>
</mgrwt>
</event>
<event>
 8    1  0.2939692E-006  0.1306228E+04  0.7818608E-02  0.8535711E-01
          4   -1    0    0  502    0  0.00000000000E+00  0.00000000000E+00  0.39514239011E+04  0.39514239011E+04  0.00000000000E+00 0.  1.
         -4   -1    0    0    0  501 -0.00000000000E+00 -0.00000000000E+00 -0.55672705945E+03  0.55672705945E+03  0.00000000000E+00 0. -1.
   -9000010    2    1    2    0  501  0.80092012023E+03 -0.20360367364E+03  0.61622667223E+03  0.14442875638E+04  0.10115847768E+04 0.  0.
    9000010    2    1    2  502    0 -0.80092012023E+03  0.20360367364E+03  0.27784701695E+04  0.30638633968E+04  0.99218694634E+03 0.  0.
        -13    1    4    4    0    0 -0.62126769772E+03  0.37885578191E+03  0.84913750028E+03  0.11182753513E+04  0.10566000000E+00 0.  1.
          4    1    4    4  502    0 -0.17965242252E+03 -0.17525210827E+03  0.19293326692E+04  0.19455880455E+04  0.00000000000E+00 0.  1.
         13    1    3    3    0    0  0.39660752396E+03 -0.54149438328E+03  0.62523476849E+03  0.91729614743E+03  0.10566000000E+00 0. -1.
         -4    1    3    3    0  501  0.40431259627E+03  0.33789070964E+03 -0.90080962585E+01  0.52699141641E+03  0.00000000000E+00 0. -1.
<mgrwt>
<rscale>  0 0.12987243E+04</rscale>
<asrwt>0</asrwt>
<pdfrwt beam="1">  1        4 0.60791135E+00 0.12912639E+04</pdfrwt>
<pdfrwt beam="2">  1       -4 0.85650319E-01 0.13062279E+04</pdfrwt>
<totfact> 0.18708565E-02</totfact>
</mgrwt>
</event>
<event>
 8    1  0.2939692E-006  0.1075267E+04  0.7818608E-02  0.8710773E-01
          4   -1    0    0  502    0  0.00000000000E+00  0.00000000000E+00  0.32118145887E+04  0.32118145887E+04  0.00000000000E+00 0.  1.
         -4   -1    0    0    0  501 -0.00000000000E+00 -0.00000000000E+00 -0.17971397327E+04  0.17971397327E+04  0.00000000000E+00 0. -1.
   -9000010    2    1    2    0  501  0.37732206995E+03  0.12154265785E+03 -0.15340340911E+04  0.18733549213E+04  0.99952664127E+03 0.  0.
    9000010    2    1    2  502    0 -0.37732206995E+03 -0.12154265785E+03  0.29487089470E+04  0.31355994001E+04  0.98992655353E+03 0.  0.
        -13    1    4    4    0    0  0.99965618356E+02 -0.37739096578E+03  0.20460001102E+04  0.20829146713E+04  0.10566000000E+00 0.  1.
          4    1    4    4  502    0 -0.47728768830E+03  0.25584830792E+03  0.90270883678E+03  0.10526847287E+04  0.00000000000E+00 0.  1.
         13    1    3    3    0    0  0.39238900139E+03 -0.22246235431E+03 -0.14505232197E+04  0.15190379355E+04  0.10566000000E+00 0. -1.
         -4    1    3    3    0  501 -0.15066931445E+02  0.34400501216E+03 -0.83510871382E+02  0.35431698584E+03  0.00000000000E+00 0. -1.
<mgrwt>
<rscale>  0 0.10707982E+04</rscale>
<asrwt>0</asrwt>
<pdfrwt beam="1">  1        4 0.49412532E+00 0.10663485E+04</pdfrwt>
<pdfrwt beam="2">  1       -4 0.27648304E+00 0.10752665E+04</pdfrwt>
<totfact> 0.11759710E-02</totfact>
</mgrwt>
</event>
<event>
 8    1  0.2939692E-006  0.1237718E+04  0.7818608E-02  0.8580210E-01
          4   -1    0    0  502    0  0.00000000000E+00  0.00000000000E+00  0.13730186206E+04  0.13730186206E+04  0.00000000000E+00 0.  1.
         -4   -1    0    0    0  501 -0.00000000000E+00 -0.00000000000E+00 -0.14638544835E+04  0.14638544835E+04  0.00000000000E+00 0. -1.
   -9000010    2    1    2    0  501 -0.73550354242E+03 -0.31545764966E+02 -0.74079335531E+03  0.14388779576E+04  0.98976481320E+03 0.  0.
    9000010    2    1    2  502    0  0.73550354242E+03  0.31545764966E+02  0.64995749240E+03  0.13979951465E+04  0.99497994522E+03 0.  0.
        -13    1    4    4    0    0  0.38809510380E+03  0.50740145518E+03  0.42532309264E+03  0.76744627865E+03  0.10566000000E+00 0.  1.
          4    1    4    4  502    0  0.34740843862E+03 -0.47585569022E+03  0.22463439976E+03  0.63054886781E+03  0.00000000000E+00 0.  1.
         13    1    3    3    0    0 -0.93841110124E+03  0.15283869230E+03 -0.64299232724E+03  0.11477866548E+04  0.10566000000E+00 0. -1.
         -4    1    3    3    0  501  0.20290755882E+03 -0.18438445727E+03 -0.97801028075E+02  0.29109130286E+03  0.00000000000E+00 0. -1.
<mgrwt>
<rscale>  0 0.12356219E+04</rscale>
<asrwt>0</asrwt>
<pdfrwt beam="1">  1        4 0.21123363E+00 0.12377179E+04</pdfrwt>
<pdfrwt beam="2">  1       -4 0.22520838E+00 0.12335295E+04</pdfrwt>
<totfact> 0.14464702E-01</totfact>
</mgrwt>
</event>
<event>
 8    1  0.2939692E-006  0.1476349E+04  0.7818608E-02  0.8442312E-01
         -4   -1    0    0    0  501 -0.00000000000E+00  0.00000000000E+00  0.88049186951E+03  0.88049186951E+03  0.00000000000E+00 0. -1.
          4   -1    0    0  502    0  0.00000000000E+00 -0.00000000000E+00 -0.23915480108E+04  0.23915480108E+04  0.00000000000E+00 0.  1.
   -9000010    2    1    2    0  501 -0.11069065324E+04 -0.71442345834E+02 -0.58447526034E+03  0.15290081632E+04  0.87516201521E+03 0.  0.
    9000010    2    1    2  502    0  0.11069065324E+04  0.71442345834E+02 -0.92658088097E+03  0.17430317171E+04  0.97430044524E+03 0.  0.
        -13    1    4    4    0    0  0.99780219378E+03  0.43831571088E+03 -0.62999872875E+03  0.12588201975E+04  0.10566000000E+00 0.  1.
          4    1    4    4  502    0  0.10910433865E+03 -0.36687336504E+03 -0.29658215222E+03  0.48421151959E+03  0.00000000000E+00 0.  1.
         13    1    3    3    0    0 -0.76895357742E+03  0.78044624094E+02 -0.79079531384E+03  0.11057747543E+04  0.10566000000E+00 0. -1.
         -4    1    3    3    0  501 -0.33795295501E+03 -0.14948696993E+03  0.20632005350E+03  0.42323340895E+03  0.00000000000E+00 0. -1.
<mgrwt>
<rscale>  0 0.14442705E+04</rscale>
<asrwt>0</asrwt>
<pdfrwt beam="2">  1        4 0.36793046E+00 0.14763494E+04</pdfrwt>
<pdfrwt beam="1">  1       -4 0.13546029E+00 0.14128888E+04</pdfrwt>
<totfact> 0.10686553E-01</totfact>
</mgrwt>
</event>
<event>
 8    1  0.2939692E-006  0.1082805E+04  0.7818608E-02  0.8706143E-01
         -4   -1    0    0    0  501 -0.00000000000E+00  0.00000000000E+00  0.11362676850E+04  0.11362676850E+04  0.00000000000E+00 0. -1.
          4   -1    0    0  502    0  0.00000000000E+00 -0.00000000000E+00 -0.12436217841E+04  0.12436217841E+04  0.00000000000E+00 0.  1.
   -9000010    2    1    2    0  501 -0.35075109256E+03 -0.13853331684E+03  0.45144118599E+03  0.11731438141E+04  0.10150120469E+04 0.  0.
    9000010    2    1    2  502    0  0.35075109256E+03  0.13853331684E+03 -0.55879528508E+03  0.12067456551E+04  0.10008821592E+04 0.  0.
        -13    1    4    4    0    0 -0.86307943369E+02 -0.11970111227E+03 -0.67084077680E+03  0.68688046729E+03  0.10566000000E+00 0.  1.
          4    1    4    4  502    0  0.43705903593E+03  0.25823442911E+03  0.11204549171E+03  0.51986518779E+03  0.00000000000E+00 0.  1.
         13    1    3    3    0    0 -0.69319630793E+03  0.42729989945E+02  0.26761421203E+03  0.74428781463E+03  0.10566000000E+00 0. -1.
         -4    1    3    3    0  501  0.34244521537E+03 -0.18126330679E+03  0.18382697396E+03  0.42885599946E+03  0.00000000000E+00 0. -1.
<mgrwt>
<rscale>  0 0.10761680E+04</rscale>
<asrwt>0</asrwt>
<pdfrwt beam="2">  1        4 0.19132643E+00 0.10695714E+04</pdfrwt>
<pdfrwt beam="1">  1       -4 0.17481041E+00 0.10828053E+04</pdfrwt>
<totfact> 0.23111347E-01</totfact>
</mgrwt>
</event>
<event>
 8    1  0.2939692E-006  0.1213174E+04  0.7818608E-02  0.8598170E-01
          4   -1    0    0  502    0  0.00000000000E+00  0.00000000000E+00  0.16980966283E+04  0.16980966283E+04  0.00000000000E+00 0.  1.
         -4   -1    0    0    0  501 -0.00000000000E+00 -0.00000000000E+00 -0.86799413524E+03  0.86799413524E+03  0.00000000000E+00 0. -1.
   -9000010    2    1    2    0  501  0.32086457972E+03 -0.61471534317E+03  0.32787391099E+03  0.12566994954E+04  0.99547139012E+03 0.  0.
    9000010    2    1    2  502    0 -0.32086457972E+03  0.61471534317E+03  0.50222858204E+03  0.13093912681E+04  0.99067800662E+03 0.  0.
        -13    1    4    4    0    0 -0.51897858840E+03  0.59392182890E+03  0.21488976033E+02  0.78901438600E+03  0.10566000000E+00 0.  1.
          4    1    4    4  502    0  0.19811400868E+03  0.20793514269E+02  0.48073960601E+03  0.52037688213E+03  0.00000000000E+00 0.  1.
         13    1    3    3    0    0 -0.13530943028E+01 -0.81262172148E+03  0.33380550433E+03  0.87851125148E+03  0.10566000000E+00 0. -1.
         -4    1    3    3    0  501  0.32221767402E+03  0.19790637831E+03 -0.59315933395E+01  0.37818824391E+03  0.00000000000E+00 0. -1.
<mgrwt>
<rscale>  0 0.12112078E+04</rscale>
<asrwt>0</asrwt>
<pdfrwt beam="1">  1        4 0.26124563E+00 0.12092444E+04</pdfrwt>
<pdfrwt beam="2">  1       -4 0.13353756E+00 0.12131745E+04</pdfrwt>
<totfact> 0.22617557E-01</totfact>
</mgrwt>
</event>
<event>
 8    1  0.2939692E-006  0.1102989E+04  0.7818608E-02  0.8716279E-01
          4   -1    0    0  502    0  0.00000000000E+00  0.00000000000E+00  0.17159354047E+04  0.17159354047E+04  0.00000000000E+00 0.  1.
         -4   -1    0    0    0  501 -0.00000000000E+00 -0.00000000000E+00 -0.67083616175E+03  0.67083616175E+03  0.00000000000E+00 0. -1.
   -9000010    2    1    2    0  501 -0.37406321252E+03 -0.32977872629E+03  0.39758895966E+03  0.11724597191E+04  0.98382290927E+03 0.  0.
    9000010    2    1    2  502    0  0.37406321252E+03  0.32977872629E+03  0.64751028331E+03  0.12143118474E+04  0.89811268802E+03 0.  0.
        -13    1    4    4    0    0 -0.14582803364E+03 -0.20972491103E+03  0.28260544970E+03  0.38094120946E+03  0.10566000000E+00 0.  1.
          4    1    4    4  502    0  0.51989124617E+03  0.53950363732E+03  0.36490483361E+03  0.83337063790E+03  0.00000000000E+00 0.  1.
         13    1    3    3    0    0  0.10111470813E+03 -0.15435569045E+03 -0.27457032120E+03  0.33081525936E+03  0.10566000000E+00 0. -1.
         -4    1    3    3    0  501 -0.47517792065E+03 -0.17542303584E+03  0.67215928086E+03  0.84164445975E+03  0.00000000000E+00 0. -1.
<mgrwt>
<rscale>  0 0.10644565E+04</rscale>
<asrwt>0</asrwt>
<pdfrwt beam="1">  1        4 0.26399006E+00 0.10272700E+04</pdfrwt>
<pdfrwt beam="2">  1       -4 0.10320556E+00 0.11029890E+04</pdfrwt>
<totfact> 0.34973675E-01</totfact>
</mgrwt>
</event>
<event>
 8    1  0.2939692E-006  0.1110019E+04  0.7818608E-02  0.8677988E-01
          4   -1    0    0  502    0  0.00000000000E+00  0.00000000000E+00  0.13360593090E+04  0.13360593090E+04  0.00000000000E+00 0.  1.
         -4   -1    0    0    0  501 -0.00000000000E+00 -0.00000000000E+00 -0.33050328048E+04  0.33050328048E+04  0.00000000000E+00 0. -1.
   -9000010    2    1    2    0  501  0.45925795388E+03  0.80689308161E+02 -0.29553065319E+04  0.31568940159E+04  0.10073303814E+04 0.  0.
    9000010    2    1    2  502    0 -0.45925795388E+03 -0.80689308161E+02  0.98633303602E+03  0.14841980979E+04  0.10062616475E+04 0.  0.
        -13    1    4    4    0    0 -0.71463885460E+03  0.17730397228E+03  0.75006215615E+03  0.10510654786E+04  0.10566000000E+00 0.  1.
          4    1    4    4  502    0  0.25538090072E+03 -0.25799328044E+03  0.23627087987E+03  0.43313261927E+03  0.00000000000E+00 0.  1.
         13    1    3    3    0    0  0.12007504475E+03 -0.26585719470E+03 -0.24082768096E+04  0.24258803077E+04  0.10566000000E+00 0. -1.
         -4    1    3    3    0  501  0.33918290913E+03  0.34654650286E+03 -0.54702972226E+03  0.73101370817E+03  0.00000000000E+00 0. -1.
<mgrwt>
<rscale>  0 0.11095344E+04</rscale>
<asrwt>0</asrwt>
<pdfrwt beam="1">  1        4 0.20554759E+00 0.11090497E+04</pdfrwt>
<pdfrwt beam="2">  1       -4 0.50846657E+00 0.11100194E+04</pdfrwt>
<totfact> 0.14921184E-02</totfact>
</mgrwt>
</event>
<event>
 8    1  0.2939692E-006  0.1238637E+04  0.7818608E-02  0.8583806E-01
         -4   -1    0    0    0  501 -0.00000000000E+00  0.00000000000E+00  0.25195102145E+04  0.25195102145E+04  0.00000000000E+00 0. -1.
          4   -1    0    0  502    0  0.00000000000E+00 -0.00000000000E+00 -0.94649092539E+03  0.94649092539E+03  0.00000000000E+00 0.  1.
   -9000010    2    1    2    0  501 -0.37118272943E+03 -0.62548327157E+03  0.18364854755E+04  0.22151524785E+04  0.10026044383E+04 0.  0.
    9000010    2    1    2  502    0  0.37118272943E+03  0.62548327157E+03 -0.26346618638E+03  0.12508486614E+04  0.98295574705E+03 0.  0.
        -13    1    4    4    0    0  0.53572940995E+03  0.20111982490E+03 -0.47992634100E+03  0.74684970951E+03  0.10566000000E+00 0.  1.
          4    1    4    4  502    0 -0.16454668052E+03  0.42436344667E+03  0.21646015462E+03  0.50399895187E+03  0.00000000000E+00 0.  1.
         13    1    3    3    0    0 -0.38514016282E+03 -0.30290367121E+03  0.18276061461E+04  0.18921489940E+04  0.10566000000E+00 0. -1.
         -4    1    3    3    0  501  0.13957433393E+02 -0.32257960036E+03  0.88793293920E+01  0.32300348452E+03  0.00000000000E+00 0. -1.
<mgrwt>
<rscale>  0 0.12306865E+04</rscale>
<asrwt>0</asrwt>
<pdfrwt beam="2">  1        4 0.14561399E+00 0.12227870E+04</pdfrwt>
<pdfrwt beam="1">  1       -4 0.38761695E+00 0.12386370E+04</pdfrwt>
<totfact> 0.81981119E-02</totfact>
</mgrwt>
</event>
<event>
 8    1  0.2939692E-006  0.1383594E+04  0.7818608E-02  0.8481762E-01
          4   -1    0    0  502    0  0.00000000000E+00  0.00000000000E+00  0.11035564038E+04  0.11035564038E+04  0.00000000000E+00 0.  1.
         -4   -1    0    0    0  501 -0.00000000000E+00 -0.00000000000E+00 -0.18728484336E+04  0.18728484336E+04  0.00000000000E+00 0. -1.
   -9000010    2    1    2    0  501 -0.41600178938E+03 -0.85997383191E+03 -0.80072756795E+03  0.15985925298E+04  0.10008601090E+04 0.  0.
    9000010    2    1    2  502    0  0.41600178938E+03  0.85997383191E+03  0.31435538121E+02  0.13778123076E+04  0.99235380867E+03 0.  0.
        -13    1    4    4    0    0 -0.54054633414E+02  0.31662912995E+03 -0.42041617436E+03  0.52908003189E+03  0.10566000000E+00 0.  1.
          4    1    4    4  502    0  0.47005642279E+03  0.54334470196E+03  0.45185171248E+03  0.84873227571E+03  0.00000000000E+00 0.  1.
         13    1    3    3    0    0  0.11285102269E+03  0.10262662392E+03 -0.40230053057E+03  0.43024795795E+03  0.10566000000E+00 0. -1.
         -4    1    3    3    0  501 -0.52885281207E+03 -0.96260045583E+03 -0.39842703738E+03  0.11683445718E+04  0.00000000000E+00 0. -1.
<mgrwt>
<rscale>  0 0.13805206E+04</rscale>
<asrwt>0</asrwt>
<pdfrwt beam="1">  1        4 0.16977791E+00 0.13774537E+04</pdfrwt>
<pdfrwt beam="2">  1       -4 0.28813053E+00 0.13835944E+04</pdfrwt>
<totfact> 0.13508306E-01</totfact>
</mgrwt>
</event>
<event>
 8    1  0.2939692E-006  0.1055743E+04  0.7818608E-02  0.8754407E-01
          4   -1    0    0  502    0  0.00000000000E+00  0.00000000000E+00  0.91171357759E+03  0.91171357759E+03  0.00000000000E+00 0.  1.
         -4   -1    0    0    0  501 -0.00000000000E+00 -0.00000000000E+00 -0.26354340076E+04  0.26354340076E+04  0.00000000000E+00 0. -1.
   -9000010    2    1    2    0  501  0.67680302792E+01  0.32103678719E+03 -0.22069830514E+04  0.24465011246E+04  0.10057251805E+04 0.  0.
    9000010    2    1    2  502    0 -0.67680302792E+01 -0.32103678719E+03  0.48326262139E+03  0.11006464606E+04  0.93529110173E+03 0.  0.
        -13    1    4    4    0    0  0.39352944409E+02  0.15977511787E+02 -0.27043243774E+03  0.27374741946E+03  0.10566000000E+00 0.  1.
          4    1    4    4  502    0 -0.46120974688E+02 -0.33701429898E+03  0.75369505913E+03  0.82689904111E+03  0.00000000000E+00 0.  1.
         13    1    3    3    0    0  0.36700104582E+03  0.15982284703E+03 -0.30298100641E+03  0.50202650476E+03  0.10566000000E+00 0. -1.
         -4    1    3    3    0  501 -0.36023301555E+03  0.16121394015E+03 -0.19040020449E+04  0.19444746198E+04  0.00000000000E+00 0. -1.
<mgrwt>
<rscale>  0 0.10217638E+04</rscale>
<asrwt>0</asrwt>
<pdfrwt beam="1">  1        4 0.14026363E+00 0.98887809E+03</pdfrwt>
<pdfrwt beam="2">  1       -4 0.40545138E+00 0.10557431E+04</pdfrwt>
<totfact> 0.74978280E-02</totfact>
</mgrwt>
</event>
<event>
 8    1  0.2939692E-006  0.1824047E+04  0.7818608E-02  0.8252152E-01
          4   -1    0    0  502    0  0.00000000000E+00  0.00000000000E+00  0.12159226216E+04  0.12159226216E+04  0.00000000000E+00 0.  1.
         -4   -1    0    0    0  501 -0.00000000000E+00 -0.00000000000E+00 -0.27032484955E+04  0.27032484955E+04  0.00000000000E+00 0. -1.
   -9000010    2    1    2    0  501 -0.97270123975E+03  0.11210821215E+04 -0.90312965861E+03  0.20038560772E+04  0.99841032283E+03 0.  0.
    9000010    2    1    2  502    0  0.97270123975E+03 -0.11210821215E+04 -0.58419621526E+03  0.19153150399E+04  0.10602705594E+04 0.  0.
        -13    1    4    4    0    0  0.69476379184E+03 -0.86810640656E+03  0.11874209804E+03  0.11182151656E+04  0.10566000000E+00 0.  1.
          4    1    4    4  502    0  0.27793744791E+03 -0.25297571498E+03 -0.70293831331E+03  0.79709987431E+03  0.00000000000E+00 0.  1.
         13    1    3    3    0    0 -0.61399935325E+03  0.25825424332E+03  0.51413609774E+02  0.66808220333E+03  0.10566000000E+00 0. -1.
         -4    1    3    3    0  501 -0.35870188650E+03  0.86282787822E+03 -0.95454326838E+03  0.13357738738E+04  0.00000000000E+00 0. -1.
<mgrwt>
<rscale>  0 0.18063361E+04</rscale>
<asrwt>0</asrwt>
<pdfrwt beam="1">  1        4 0.18706502E+00 0.18240467E+04</pdfrwt>
<pdfrwt beam="2">  1       -4 0.41588438E+00 0.17887974E+04</pdfrwt>
<totfact> 0.42323542E-02</totfact>
</mgrwt>
</event>
<event>
 8    1  0.2939692E-006  0.1245380E+04  0.7818608E-02  0.8620929E-01
         -4   -1    0    0    0  501 -0.00000000000E+00  0.00000000000E+00  0.16845557987E+04  0.16845557987E+04  0.00000000000E+00 0. -1.
          4   -1    0    0  502    0  0.00000000000E+00 -0.00000000000E+00 -0.18221177221E+04  0.18221177221E+04  0.00000000000E+00 0.  1.
   -9000010    2    1    2    0  501 -0.48340672285E+03 -0.17898793917E+03  0.12222194428E+04  0.17449333640E+04  0.11336901413E+04 0.  0.
    9000010    2    1    2  502    0  0.48340672285E+03  0.17898793917E+03 -0.13597813663E+04  0.17617401568E+04  0.99448694006E+03 0.  0.
        -13    1    4    4    0    0  0.60533533071E+03 -0.25766620329E+03 -0.69413242980E+03  0.95636947682E+03  0.10566000000E+00 0.  1.
          4    1    4    4  502    0 -0.12192860786E+03  0.43665414247E+03 -0.66564893647E+03  0.80537067998E+03  0.00000000000E+00 0.  1.
         13    1    3    3    0    0  0.22468586194E+03  0.26535083297E+03  0.13385596979E+03  0.37257513729E+03  0.10566000000E+00 0. -1.
         -4    1    3    3    0  501 -0.70809258479E+03 -0.44433877215E+03  0.10883634730E+04  0.13723582267E+04  0.00000000000E+00 0. -1.
<mgrwt>
<rscale>  0 0.11811035E+04</rscale>
<asrwt>0</asrwt>
<pdfrwt beam="2">  1        4 0.28032580E+00 0.11201442E+04</pdfrwt>
<pdfrwt beam="1">  1       -4 0.25916243E+00 0.12453803E+04</pdfrwt>
<totfact> 0.81442962E-02</totfact>
</mgrwt>
</event>
<event>
 8    1  0.2939692E-006  0.1258264E+04  0.7818608E-02  0.8588003E-01
          4   -1    0    0  502    0  0.00000000000E+00  0.00000000000E+00  0.83649085897E+03  0.83649085897E+03  0.00000000000E+00 0.  1.
         -4   -1    0    0    0  501 -0.00000000000E+00 -0.00000000000E+00 -0.18890874869E+04  0.18890874869E+04  0.00000000000E+00 0. -1.
   -9000010    2    1    2    0  501 -0.12391140408E+03 -0.72158170189E+03 -0.84355823988E+03  0.15148656506E+04  0.10233246048E+04 0.  0.
    9000010    2    1    2  502    0  0.12391140408E+03  0.72158170189E+03 -0.20903838806E+03  0.12107126952E+04  0.94132565787E+03 0.  0.
        -13    1    4    4    0    0 -0.39152828060E+03  0.27848099779E+03  0.50541150164E+02  0.48311538960E+03  0.10566000000E+00 0.  1.
          4    1    4    4  502    0  0.51543968468E+03  0.44310070410E+03 -0.25957953822E+03  0.72759730564E+03  0.00000000000E+00 0.  1.
         13    1    3    3    0    0 -0.32342840004E+03 -0.19410161881E+02  0.83805148725E+02  0.33467297239E+03  0.10566000000E+00 0. -1.
         -4    1    3    3    0  501  0.19951699596E+03 -0.70217154001E+03 -0.92736338860E+03  0.11801926783E+04  0.00000000000E+00 0. -1.
<mgrwt>
<rscale>  0 0.12249561E+04</rscale>
<asrwt>0</asrwt>
<pdfrwt beam="1">  1        4 0.12869090E+00 0.11925302E+04</pdfrwt>
<pdfrwt beam="2">  1       -4 0.29062884E+00 0.12582637E+04</pdfrwt>
<totfact> 0.20231469E-01</totfact>
</mgrwt>
</event>
<event>
 8    1  0.2939692E-006  0.1028296E+04  0.7818608E-02  0.8752828E-01
          4   -1    0    0  502    0  0.00000000000E+00  0.00000000000E+00  0.26540526529E+04  0.26540526529E+04  0.00000000000E+00 0.  1.
         -4   -1    0    0    0  501 -0.00000000000E+00 -0.00000000000E+00 -0.41234126747E+03  0.41234126747E+03  0.00000000000E+00 0. -1.
   -9000010    2    1    2    0  501 -0.21555186997E+03 -0.66398999852E+02  0.80875949447E+03  0.13082371571E+04  0.10032552534E+04 0.  0.
    9000010    2    1    2  502    0  0.21555186997E+03  0.66398999852E+02  0.14329518909E+04  0.17581567633E+04  0.99342470610E+03 0.  0.
        -13    1    4    4    0    0  0.44858528446E+03 -0.99253822724E+02  0.21528423735E+03  0.50737303118E+03  0.10566000000E+00 0.  1.
          4    1    4    4  502    0 -0.23303341449E+03  0.16565282258E+03  0.12176676536E+04  0.12507837321E+04  0.00000000000E+00 0.  1.
         13    1    3    3    0    0 -0.27616383260E+03  0.15722430597E+03  0.97342985868E+03  0.10239881082E+04  0.10566000000E+00 0. -1.
         -4    1    3    3    0  501  0.60611962629E+02 -0.22362330583E+03 -0.16467036422E+03  0.28424904885E+03  0.00000000000E+00 0. -1.
<mgrwt>
<rscale>  0 0.10234903E+04</rscale>
<asrwt>0</asrwt>
<pdfrwt beam="1">  1        4 0.40831578E+00 0.10187071E+04</pdfrwt>
<pdfrwt beam="2">  1       -4 0.63437120E-01 0.10282959E+04</pdfrwt>
<totfact> 0.33108569E-01</totfact>
</mgrwt>
</event>
<event>
 8    1  0.2939692E-006  0.1189944E+04  0.7818608E-02  0.8632312E-01
          4   -1    0    0  502    0  0.00000000000E+00  0.00000000000E+00  0.26004078921E+04  0.26004078921E+04  0.00000000000E+00 0.  1.
         -4   -1    0    0    0  501 -0.00000000000E+00 -0.00000000000E+00 -0.76539135478E+03  0.76539135478E+03  0.00000000000E+00 0. -1.
   -9000010    2    1    2    0  501  0.47394678871E+03 -0.33324530789E+03 -0.16128918990E+02  0.11900536464E+04  0.10393697828E+04 0.  0.
    9000010    2    1    2  502    0 -0.47394678871E+03  0.33324530789E+03  0.18511454563E+04  0.21757456005E+04  0.98562235359E+03 0.  0.
        -13    1    4    4    0    0  0.13730661887E+03  0.37539256476E+03  0.12694484530E+04  0.13308914573E+04  0.10566000000E+00 0.  1.
          4    1    4    4  502    0 -0.61125340758E+03 -0.42147256870E+02  0.58169700333E+03  0.84485414316E+03  0.00000000000E+00 0.  1.
         13    1    3    3    0    0  0.37336014130E+03 -0.41967687774E+03 -0.46047682788E+03  0.72633697207E+03  0.10566000000E+00 0. -1.
         -4    1    3    3    0  501  0.10058664741E+03  0.86431569850E+02  0.44434790889E+03  0.46371667431E+03  0.00000000000E+00 0. -1.
<mgrwt>
<rscale>  0 0.11663878E+04</rscale>
<asrwt>0</asrwt>
<pdfrwt beam="1">  1        4 0.40006275E+00 0.11432976E+04</pdfrwt>
<pdfrwt beam="2">  1       -4 0.11775252E+00 0.11899443E+04</pdfrwt>
<totfact> 0.10376153E-01</totfact>
</mgrwt>
</event>
<event>
 8    1  0.2939692E-006  0.1135398E+04  0.7818608E-02  0.8662565E-01
          4   -1    0    0  502    0  0.00000000000E+00  0.00000000000E+00  0.21800942665E+04  0.21800942665E+04  0.00000000000E+00 0.  1.
         -4   -1    0    0    0  501 -0.00000000000E+00 -0.00000000000E+00 -0.10723769698E+04  0.10723769698E+04  0.00000000000E+00 0. -1.
   -9000010    2    1    2    0  501 -0.28699373565E+03  0.44253790211E+03 -0.54168647349E+03  0.12579954827E+04  0.10054467662E+04 0.  0.
    9000010    2    1    2  502    0  0.28699373565E+03 -0.44253790211E+03  0.16494037701E+04  0.19944757536E+04  0.98954309450E+03 0.  0.
        -13    1    4    4    0    0  0.24507092948E+03 -0.70320431000E+03  0.15362645463E+04  0.17072389492E+04  0.10566000000E+00 0.  1.
          4    1    4    4  502    0  0.41922806171E+02  0.26066640789E+03  0.11313922378E+03  0.28723680446E+03  0.00000000000E+00 0.  1.
         13    1    3    3    0    0  0.86860604232E+02 -0.13381861921E+03 -0.54823403412E+03  0.57097526632E+03  0.10566000000E+00 0. -1.
         -4    1    3    3    0  501 -0.37385433988E+03  0.57635652133E+03  0.65475606358E+01  0.68702021635E+03  0.00000000000E+00 0. -1.
<mgrwt>
<rscale>  0 0.11283465E+04</rscale>
<asrwt>0</asrwt>
<pdfrwt beam="1">  1        4 0.33539912E+00 0.11213388E+04</pdfrwt>
<pdfrwt beam="2">  1       -4 0.16498107E+00 0.11353979E+04</pdfrwt>
<totfact> 0.10540835E-01</totfact>
</mgrwt>
</event>
<event>
 8    1  0.2939692E-006  0.1264451E+04  0.7818608E-02  0.8563659E-01
          4   -1    0    0  502    0  0.00000000000E+00  0.00000000000E+00  0.24155756567E+04  0.24155756567E+04  0.00000000000E+00 0.  1.
         -4   -1    0    0    0  501 -0.00000000000E+00 -0.00000000000E+00 -0.84672479964E+03  0.84672479964E+03  0.00000000000E+00 0. -1.
   -9000010    2    1    2    0  501  0.34142791002E+03 -0.67581291743E+03  0.71625484616E+01  0.12528958537E+04  0.99819867816E+03 0.  0.
    9000010    2    1    2  502    0 -0.34142791002E+03  0.67581291743E+03  0.15616883086E+04  0.20094046026E+04  0.10126896695E+04 0.  0.
        -13    1    4    4    0    0  0.79542776588E+02  0.52589688981E+03  0.14561434644E+04  0.15502413980E+04  0.10566000000E+00 0.  1.
          4    1    4    4  502    0 -0.42097068661E+03  0.14991602762E+03  0.10554484420E+03  0.45916320460E+03  0.00000000000E+00 0.  1.
         13    1    3    3    0    0  0.27859093811E-01 -0.79482380209E+03  0.23094330714E+03  0.82769541464E+03  0.10566000000E+00 0. -1.
         -4    1    3    3    0  501  0.34140005093E+03  0.11901088466E+03 -0.22378075868E+03  0.42520043909E+03  0.00000000000E+00 0. -1.
<mgrwt>
<rscale>  0 0.12586499E+04</rscale>
<asrwt>0</asrwt>
<pdfrwt beam="1">  1        4 0.37162702E+00 0.12644511E+04</pdfrwt>
<pdfrwt beam="2">  1       -4 0.13026535E+00 0.12528754E+04</pdfrwt>
<totfact> 0.11172685E-01</totfact>
</mgrwt>
</event>
<event>
 8    1  0.2939692E-006  0.1084242E+04  0.7818608E-02  0.8703663E-01
         -4   -1    0    0    0  501 -0.00000000000E+00  0.00000000000E+00  0.15837341814E+04  0.15837341814E+04  0.00000000000E+00 0. -1.
          4   -1    0    0  502    0  0.00000000000E+00 -0.00000000000E+00 -0.11906168146E+04  0.11906168146E+04  0.00000000000E+00 0.  1.
   -9000010    2    1    2    0  501 -0.28260092183E+03 -0.95943638666E+02  0.10550425335E+04  0.15128433790E+04  0.10423588053E+04 0.  0.
    9000010    2    1    2  502    0  0.28260092183E+03  0.95943638666E+02 -0.66192516657E+03  0.12615076170E+04  0.10315949199E+04 0.  0.
        -13    1    4    4    0    0  0.10690096176E+03 -0.28190575873E+03 -0.77345407025E+03  0.83013847182E+03  0.10566000000E+00 0.  1.
          4    1    4    4  502    0  0.17569996007E+03  0.37784939740E+03  0.11152890368E+03  0.43136914521E+03  0.00000000000E+00 0.  1.
         13    1    3    3    0    0 -0.54731775868E+03 -0.25259823838E+03  0.10434214228E+04  0.12050273340E+04  0.10566000000E+00 0. -1.
         -4    1    3    3    0  501  0.26471683685E+03  0.15665459971E+03  0.11621110655E+02  0.30781604496E+03  0.00000000000E+00 0. -1.
<mgrwt>
<rscale>  0 0.10790574E+04</rscale>
<asrwt>0</asrwt>
<pdfrwt beam="2">  1        4 0.18317182E+00 0.10738978E+04</pdfrwt>
<pdfrwt beam="1">  1       -4 0.24365141E+00 0.10842418E+04</pdfrwt>
<totfact> 0.15845792E-01</totfact>
</mgrwt>
</event>
<event>
 8    1  0.2939692E-006  0.1143424E+04  0.7818608E-02  0.8675696E-01
          4   -1    0    0  502    0  0.00000000000E+00  0.00000000000E+00  0.22983271012E+04  0.22983271012E+04  0.00000000000E+00 0.  1.
         -4   -1    0    0    0  501 -0.00000000000E+00 -0.00000000000E+00 -0.13337475262E+04  0.13337475262E+04  0.00000000000E+00 0. -1.
   -9000010    2    1    2    0  501  0.38460747552E+03  0.37442627125E+03 -0.92496393298E+03  0.14235021273E+04  0.93951162118E+03 0.  0.
    9000010    2    1    2  502    0 -0.38460747552E+03 -0.37442627125E+03  0.18895435080E+04  0.22085725001E+04  0.10096038217E+04 0.  0.
        -13    1    4    4    0    0 -0.22408865225E+03  0.29000766153E+03  0.11241395109E+04  0.11823746525E+04  0.10566000000E+00 0.  1.
          4    1    4    4  502    0 -0.16051882326E+03 -0.66443393277E+03  0.76540399708E+03  0.10261978476E+04  0.00000000000E+00 0.  1.
         13    1    3    3    0    0  0.15784317414E+03 -0.31127758850E+03 -0.39869949615E+03  0.52987687638E+03  0.10566000000E+00 0. -1.
         -4    1    3    3    0  501  0.22676430137E+03  0.68570385974E+03 -0.52626443683E+03  0.89362525094E+03  0.00000000000E+00 0. -1.
<mgrwt>
<rscale>  0 0.11123060E+04</rscale>
<asrwt>0</asrwt>
<pdfrwt beam="1">  1        4 0.35358879E+00 0.11434237E+04</pdfrwt>
<pdfrwt beam="2">  1       -4 0.20519193E+00 0.10820351E+04</pdfrwt>
<totfact> 0.68653682E-02</totfact>
</mgrwt>
</event>
<event>
 8    1  0.2939692E-006  0.1073045E+04  0.7818608E-02  0.8728208E-01
         -4   -1    0    0    0  501 -0.00000000000E+00  0.00000000000E+00  0.74910229992E+03  0.74910229992E+03  0.00000000000E+00 0. -1.
          4   -1    0    0  502    0  0.00000000000E+00 -0.00000000000E+00 -0.23200729807E+04  0.23200729807E+04  0.00000000000E+00 0.  1.
   -9000010    2    1    2    0  501  0.50553379534E+02 -0.21146235968E+03  0.13020889401E+03  0.10809162908E+04  0.10507871801E+04 0.  0.
    9000010    2    1    2  502    0 -0.50553379534E+02  0.21146235968E+03 -0.17011795748E+04  0.19882589898E+04  0.10059273786E+04 0.  0.
        -13    1    4    4    0    0 -0.36906914932E+03  0.14145542662E+03 -0.15980785716E+04  0.16462310916E+04  0.10566000000E+00 0.  1.
          4    1    4    4  502    0  0.31851576978E+03  0.70006933065E+02 -0.10310100316E+03  0.34202789817E+03  0.00000000000E+00 0.  1.
         13    1    3    3    0    0  0.81764564706E+02  0.16084444056E+03 -0.39622748442E+03  0.43537639885E+03  0.10566000000E+00 0. -1.
         -4    1    3    3    0  501 -0.31211185172E+02 -0.37230680025E+03  0.52643637844E+03  0.64553989198E+03  0.00000000000E+00 0. -1.
<mgrwt>
<rscale>  0 0.10508714E+04</rscale>
<asrwt>0</asrwt>
<pdfrwt beam="2">  1        4 0.35693430E+00 0.10291559E+04</pdfrwt>
<pdfrwt beam="1">  1       -4 0.11524651E+00 0.10730450E+04</pdfrwt>
<totfact> 0.15770069E-01</totfact>
</mgrwt>
</event>
<event>
 8    1  0.2939692E-006  0.1460398E+04  0.7818608E-02  0.8438260E-01
         -4   -1    0    0    0  501 -0.00000000000E+00  0.00000000000E+00  0.27763534960E+04  0.27763534960E+04  0.00000000000E+00 0. -1.
          4   -1    0    0  502    0  0.00000000000E+00 -0.00000000000E+00 -0.13964821997E+04  0.13964821997E+04  0.00000000000E+00 0.  1.
   -9000010    2    1    2    0  501 -0.49295099407E+03 -0.89585904746E+03  0.21026876175E+04  0.25600891120E+04  0.10426873591E+04 0.  0.
    9000010    2    1    2  502    0  0.49295099407E+03  0.89585904746E+03 -0.72281632119E+03  0.16127465837E+04  0.10163286839E+04 0.  0.
        -13    1    4    4    0    0  0.41409948600E+03  0.39408512422E+03  0.16054621281E+03  0.59376474049E+03  0.10566000000E+00 0.  1.
          4    1    4    4  502    0  0.78851508068E+02  0.50177392324E+03 -0.88336253400E+03  0.10189818432E+04  0.00000000000E+00 0.  1.
         13    1    3    3    0    0 -0.12735245275E+03 -0.15313088613E+03  0.15544973493E+04  0.15672044332E+04  0.10566000000E+00 0. -1.
         -4    1    3    3    0  501 -0.36559854132E+03 -0.74272816133E+03  0.54819026829E+03  0.99288467875E+03  0.00000000000E+00 0. -1.
<mgrwt>
<rscale>  0 0.14510168E+04</rscale>
<asrwt>0</asrwt>
<pdfrwt beam="2">  1        4 0.21484342E+00 0.14416963E+04</pdfrwt>
<pdfrwt beam="1">  1       -4 0.42713131E+00 0.14603976E+04</pdfrwt>
<totfact> 0.32420483E-02</totfact>
</mgrwt>
</event>
<event>
 8    1  0.2939692E-006  0.1102172E+04  0.7818608E-02  0.8689154E-01
         -4   -1    0    0    0  501 -0.00000000000E+00  0.00000000000E+00  0.15859105616E+04  0.15859105616E+04  0.00000000000E+00 0. -1.
          4   -1    0    0  502    0  0.00000000000E+00 -0.00000000000E+00 -0.21560433247E+04  0.21560433247E+04  0.00000000000E+00 0.  1.
   -9000010    2    1    2    0  501  0.41892277993E+03 -0.17721815077E+03  0.12211654843E+04  0.16450009123E+04  0.10039324145E+04 0.  0.
    9000010    2    1    2  502    0 -0.41892277993E+03  0.17721815077E+03 -0.17912982474E+04  0.20969529740E+04  0.99073699608E+03 0.  0.
        -13    1    4    4    0    0 -0.57816121481E+03 -0.24060294985E+03 -0.85963570256E+03  0.10635477056E+04  0.10566000000E+00 0.  1.
          4    1    4    4  502    0  0.15923843487E+03  0.41782110062E+03 -0.93166254488E+03  0.10334052684E+04  0.00000000000E+00 0.  1.
         13    1    3    3    0    0 -0.16070621590E+03 -0.39308046875E+03  0.24760164121E+03  0.49157433480E+03  0.10566000000E+00 0. -1.
         -4    1    3    3    0  501  0.57962899583E+03  0.21586231798E+03  0.97356384307E+03  0.11534265775E+04  0.00000000000E+00 0. -1.
<mgrwt>
<rscale>  0 0.10961526E+04</rscale>
<asrwt>0</asrwt>
<pdfrwt beam="2">  1        4 0.33169897E+00 0.10901662E+04</pdfrwt>
<pdfrwt beam="1">  1       -4 0.24398624E+00 0.11021719E+04</pdfrwt>
<totfact> 0.64524765E-02</totfact>
</mgrwt>
</event>
<event>
 8    1  0.2939692E-006  0.1061122E+04  0.7818608E-02  0.8730094E-01
         -4   -1    0    0    0  501 -0.00000000000E+00  0.00000000000E+00  0.73957866424E+03  0.73957866424E+03  0.00000000000E+00 0. -1.
          4   -1    0    0  502    0  0.00000000000E+00 -0.00000000000E+00 -0.23643566671E+04  0.23643566671E+04  0.00000000000E+00 0.  1.
   -9000010    2    1    2    0  501 -0.20499557751E+03  0.17400551989E+03  0.12678194543E+03  0.10686690555E+04  0.10264885682E+04 0.  0.
    9000010    2    1    2  502    0  0.20499557751E+03 -0.17400551989E+03 -0.17515599483E+04  0.20352662759E+04  0.10010222043E+04 0.  0.
        -13    1    4    4    0    0 -0.16268082054E+03  0.32716972833E+03 -0.36844772651E+03  0.51890155024E+03  0.10566000000E+00 0.  1.
          4    1    4    4  502    0  0.36767639805E+03 -0.50117524822E+03 -0.13831122218E+04  0.15163647256E+04  0.00000000000E+00 0.  1.
         13    1    3    3    0    0 -0.52815294612E+03 -0.72919326640E+02 -0.17619510199E+03  0.56152247313E+03  0.10566000000E+00 0. -1.
         -4    1    3    3    0  501  0.32315736861E+03  0.24692484652E+03  0.30297704742E+03  0.50714658234E+03  0.00000000000E+00 0. -1.
<mgrwt>
<rscale>  0 0.10487422E+04</rscale>
<asrwt>0</asrwt>
<pdfrwt beam="2">  1        4 0.36374718E+00 0.10365069E+04</pdfrwt>
<pdfrwt beam="1">  1       -4 0.11378133E+00 0.10611220E+04</pdfrwt>
<totfact> 0.15230717E-01</totfact>
</mgrwt>
</event>
<event>
 8    1  0.2939692E-006  0.1210201E+04  0.7818608E-02  0.8612788E-01
         -4   -1    0    0    0  501 -0.00000000000E+00  0.00000000000E+00  0.19704526900E+04  0.19704526900E+04  0.00000000000E+00 0. -1.
          4   -1    0    0  502    0  0.00000000000E+00 -0.00000000000E+00 -0.92385143680E+03  0.92385143680E+03  0.00000000000E+00 0.  1.
   -9000010    2    1    2    0  501  0.57107469268E+03 -0.24913224494E+03  0.11951289864E+04  0.16750226659E+04  0.99457249955E+03 0.  0.
    9000010    2    1    2  502    0 -0.57107469268E+03  0.24913224494E+03 -0.14852773325E+03  0.12192814609E+04  0.10374939100E+04 0.  0.
        -13    1    4    4    0    0 -0.66296181863E+03  0.45614944890E+03 -0.38478679536E+03  0.89199303906E+03  0.10566000000E+00 0.  1.
          4    1    4    4  502    0  0.91887125947E+02 -0.20701720396E+03  0.23625906210E+03  0.32728842185E+03  0.00000000000E+00 0.  1.
         13    1    3    3    0    0  0.69471850787E+03 -0.45582413768E+03  0.11669281783E+04  0.14325260326E+04  0.10566000000E+00 0. -1.
         -4    1    3    3    0  501 -0.12364381519E+03  0.20669189274E+03  0.28200808140E+02  0.24249663325E+03  0.00000000000E+00 0. -1.
<mgrwt>
<rscale>  0 0.11917667E+04</rscale>
<asrwt>0</asrwt>
<pdfrwt beam="2">  1        4 0.14213099E+00 0.12102011E+04</pdfrwt>
<pdfrwt beam="1">  1       -4 0.30314657E+00 0.11736131E+04</pdfrwt>
<totfact> 0.16079547E-01</totfact>
</mgrwt>
</event>
<event>
 8    1  0.2939692E-006  0.1254446E+04  0.7818608E-02  0.8568071E-01
         -4   -1    0    0    0  501 -0.00000000000E+00  0.00000000000E+00  0.78226284897E+03  0.78226284897E+03  0.00000000000E+00 0. -1.
          4   -1    0    0  502    0  0.00000000000E+00 -0.00000000000E+00 -0.24650074289E+04  0.24650074289E+04  0.00000000000E+00 0.  1.
   -9000010    2    1    2    0  501 -0.45123714220E+03  0.59028452586E+03 -0.13911617287E+03  0.12581940935E+04  0.10058072814E+04 0.  0.
    9000010    2    1    2  502    0  0.45123714220E+03 -0.59028452586E+03 -0.15436284070E+04  0.19890761844E+04  0.10107346973E+04 0.  0.
        -13    1    4    4    0    0 -0.55852502679E+02  0.97111799388E+02  0.91254394932E+02  0.14449075885E+03  0.10566000000E+00 0.  1.
          4    1    4    4  502    0  0.50708964487E+03 -0.68739632525E+03 -0.16348828020E+04  0.18445854255E+04  0.00000000000E+00 0.  1.
         13    1    3    3    0    0 -0.64057007994E+03  0.71948874822E+03  0.44722269108E+02  0.96436205786E+03  0.10566000000E+00 0. -1.
         -4    1    3    3    0  501  0.18933293775E+03 -0.12920422236E+03 -0.18383844198E+03  0.29383203559E+03  0.00000000000E+00 0. -1.
<mgrwt>
<rscale>  0 0.12524613E+04</rscale>
<asrwt>0</asrwt>
<pdfrwt beam="2">  1        4 0.37923191E+00 0.12544463E+04</pdfrwt>
<pdfrwt beam="1">  1       -4 0.12034813E+00 0.12504795E+04</pdfrwt>
<totfact> 0.11934500E-01</totfact>
</mgrwt>
</event>
<event>
 8    1  0.2939692E-006  0.2124570E+04  0.7818608E-02  0.8125543E-01
         -4   -1    0    0    0  501 -0.00000000000E+00  0.00000000000E+00  0.24760898803E+04  0.24760898803E+04  0.00000000000E+00 0. -1.
          4   -1    0    0  502    0  0.00000000000E+00 -0.00000000000E+00 -0.27127570791E+04  0.27127570791E+04  0.00000000000E+00 0.  1.
   -9000010    2    1    2    0  501 -0.12320607812E+04  0.13713424699E+04  0.13906096520E+04  0.25126879993E+04  0.99058156617E+03 0.  0.
    9000010    2    1    2  502    0  0.12320607812E+04 -0.13713424699E+04 -0.16272768508E+04  0.26761589601E+04  0.10560506107E+04 0.  0.
        -13    1    4    4    0    0  0.13953464605E+04 -0.10082022714E+04 -0.13905628587E+04  0.22129456930E+04  0.10566000000E+00 0.  1.
          4    1    4    4  502    0 -0.16328567926E+03 -0.36314019849E+03 -0.23671399207E+03  0.46321326714E+03  0.00000000000E+00 0.  1.
         13    1    3    3    0    0 -0.75701605167E+03  0.16455596814E+03  0.35089509127E+03  0.85045831490E+03  0.10566000000E+00 0. -1.
         -4    1    3    3    0  501 -0.47504472955E+03  0.12067865018E+04  0.10397145607E+04  0.16622296844E+04  0.00000000000E+00 0. -1.
<mgrwt>
<rscale>  0 0.21086243E+04</rscale>
<asrwt>0</asrwt>
<pdfrwt beam="2">  1        4 0.41734724E+00 0.21245698E+04</pdfrwt>
<pdfrwt beam="1">  1       -4 0.38093691E+00 0.20927986E+04</pdfrwt>
<totfact> 0.11098016E-02</totfact>
</mgrwt>
</event>
<event>
 8    1  0.2939692E-006  0.1341244E+04  0.7818608E-02  0.8509116E-01
          4   -1    0    0  502    0  0.00000000000E+00  0.00000000000E+00  0.11024661304E+04  0.11024661304E+04  0.00000000000E+00 0.  1.
         -4   -1    0    0    0  501 -0.00000000000E+00 -0.00000000000E+00 -0.30611993599E+04  0.30611993599E+04  0.00000000000E+00 0. -1.
   -9000010    2    1    2    0  501  0.81209254275E+03  0.37336585912E+03 -0.24043889208E+04  0.27503207559E+04  0.99210977967E+03 0.  0.
    9000010    2    1    2  502    0 -0.81209254275E+03 -0.37336585912E+03  0.44565569138E+03  0.14133447344E+04  0.10000189899E+04 0.  0.
        -13    1    4    4    0    0 -0.10183724892E+04 -0.14663542435E+03  0.39782812029E+03  0.11031100121E+04  0.10566000000E+00 0.  1.
          4    1    4    4  502    0  0.20627994642E+03 -0.22673043477E+03  0.47827571088E+02  0.31023472227E+03  0.00000000000E+00 0.  1.
         13    1    3    3    0    0  0.94482132312E+02 -0.68023424998E+02 -0.15360083538E+04  0.15404141436E+04  0.10566000000E+00 0. -1.
         -4    1    3    3    0  501  0.71761041043E+03  0.44138928412E+03 -0.86838056705E+03  0.12099066123E+04  0.00000000000E+00 0. -1.
<mgrwt>
<rscale>  0 0.13382970E+04</rscale>
<asrwt>0</asrwt>
<pdfrwt beam="1">  1        4 0.16961017E+00 0.13412436E+04</pdfrwt>
<pdfrwt beam="2">  1       -4 0.47095375E+00 0.13353569E+04</pdfrwt>
<totfact> 0.28186160E-02</totfact>
</mgrwt>
</event>
<event>
 8    1  0.2939692E-006  0.1146694E+04  0.7818608E-02  0.8665328E-01
         -4   -1    0    0    0  501 -0.00000000000E+00  0.00000000000E+00  0.28550040730E+04  0.28550040730E+04  0.00000000000E+00 0.  1.
          4   -1    0    0  502    0  0.00000000000E+00 -0.00000000000E+00 -0.44516737059E+03  0.44516737059E+03  0.00000000000E+00 0. -1.
   -9000010    2    1    2    0  501  0.45872410902E+03  0.10752178243E+03  0.13311905760E+04  0.17569788543E+04  0.10454269955E+04 0.  0.
    9000010    2    1    2  502    0 -0.45872410902E+03 -0.10752178243E+03  0.10786461264E+04  0.15431925893E+04  0.99798655290E+03 0.  0.
        -13    1    4    4    0    0  0.14188400912E+03  0.22793463059E+03  0.55826485266E+01  0.26854505208E+03  0.10566000000E+00 0.  1.
          4    1    4    4  502    0 -0.60060811814E+03 -0.33545641302E+03  0.10730634778E+04  0.12746475372E+04  0.00000000000E+00 0.  1.
         13    1    3    3    0    0  0.51997669851E+03 -0.37306313000E+03  0.58343796293E+03  0.86599753677E+03  0.10566000000E+00 0. -1.
         -4    1    3    3    0  501 -0.61252589486E+02  0.48058491243E+03  0.74775261311E+03  0.89098131753E+03  0.00000000000E+00 0. -1.
<mgrwt>
<rscale>  0 0.11249481E+04</rscale>
<asrwt>0</asrwt>
<pdfrwt beam="2">  1        4 0.68487289E-01 0.11036149E+04</pdfrwt>
<pdfrwt beam="1">  1       -4 0.43923139E+00 0.11466937E+04</pdfrwt>
<totfact> 0.20576079E-01</totfact>
</mgrwt>
</event>
<event>
 8    1  0.2939692E-006  0.1079974E+04  0.7818608E-02  0.8703482E-01
          4   -1    0    0  502    0  0.00000000000E+00  0.00000000000E+00  0.21241224842E+04  0.21241224842E+04  0.00000000000E+00 0.  1.
         -4   -1    0    0    0  501 -0.00000000000E+00 -0.00000000000E+00 -0.11204918727E+04  0.11204918727E+04  0.00000000000E+00 0. -1.
   -9000010    2    1    2    0  501  0.19864239093E+03  0.35241969651E+03 -0.65757731246E+03  0.12632119604E+04  0.99981903010E+03 0.  0.
    9000010    2    1    2  502    0 -0.19864239093E+03 -0.35241969651E+03  0.16612079240E+04  0.19814023965E+04  0.10013417241E+04 0.  0.
        -13    1    4    4    0    0  0.15460442747E+03  0.17415853690E+03  0.11313642465E+04  0.11550838907E+04  0.10566000000E+00 0.  1.
          4    1    4    4  502    0 -0.35324681840E+03 -0.52657823341E+03  0.52984367743E+03  0.82631850586E+03  0.00000000000E+00 0.  1.
         13    1    3    3    0    0 -0.27164978315E+03  0.50962540100E+03 -0.29186689223E+03  0.64706873512E+03  0.10566000000E+00 0. -1.
         -4    1    3    3    0  501  0.47029217409E+03 -0.15720570448E+03 -0.36571042024E+03  0.61614322523E+03  0.00000000000E+00 0. -1.
<mgrwt>
<rscale>  0 0.10792679E+04</rscale>
<asrwt>0</asrwt>
<pdfrwt beam="1">  1        4 0.32678807E+00 0.10799739E+04</pdfrwt>
<pdfrwt beam="2">  1       -4 0.17238337E+00 0.10785623E+04</pdfrwt>
<totfact> 0.10540789E-01</totfact>
</mgrwt>
</event>
<event>
 8    1  0.2939692E-006  0.1114028E+04  0.7818608E-02  0.8692462E-01
         -4   -1    0    0    0  501 -0.00000000000E+00  0.00000000000E+00  0.15599307807E+04  0.15599307807E+04  0.00000000000E+00 0. -1.
          4   -1    0    0  502    0  0.00000000000E+00 -0.00000000000E+00 -0.13594266138E+04  0.13594266138E+04  0.00000000000E+00 0.  1.
   -9000010    2    1    2    0  501  0.35738705433E+03  0.17925456846E+03  0.10642156820E+04  0.15097274186E+04  0.99341036524E+03 0.  0.
    9000010    2    1    2  502    0 -0.35738705433E+03 -0.17925456846E+03 -0.86371151511E+03  0.14096299760E+04  0.10398083385E+04 0.  0.
        -13    1    4    4    0    0 -0.62763267946E+03 -0.24605856629E+02 -0.17226150458E+03  0.65130811881E+03  0.10566000000E+00 0.  1.
          4    1    4    4  502    0  0.27024562513E+03 -0.15464871184E+03 -0.69145001053E+03  0.75832185715E+03  0.00000000000E+00 0.  1.
         13    1    3    3    0    0 -0.64400564646E+02  0.43378871020E+03  0.88101508421E+03  0.98412787156E+03  0.10566000000E+00 0. -1.
         -4    1    3    3    0  501  0.42178761897E+03 -0.25453414173E+03  0.18320059780E+03  0.52559954705E+03  0.00000000000E+00 0. -1.
<mgrwt>
<rscale>  0 0.10922263E+04</rscale>
<asrwt>0</asrwt>
<pdfrwt beam="2">  1        4 0.20914256E+00 0.11140283E+04</pdfrwt>
<pdfrwt beam="1">  1       -4 0.23998935E+00 0.10708510E+04</pdfrwt>
<totfact> 0.13578014E-01</totfact>
</mgrwt>
</event>
<event>
 8    1  0.2939692E-006  0.1808507E+04  0.7818608E-02  0.8257230E-01
         -4   -1    0    0    0  501 -0.00000000000E+00  0.00000000000E+00  0.26804665709E+04  0.26804665709E+04  0.00000000000E+00 0. -1.
          4   -1    0    0  502    0  0.00000000000E+00 -0.00000000000E+00 -0.14883062887E+04  0.14883062887E+04  0.00000000000E+00 0.  1.
   -9000010    2    1    2    0  501 -0.91883773236E+03 -0.12010529449E+04  0.15058723626E+04  0.23332583313E+04  0.94321360967E+03 0.  0.
    9000010    2    1    2  502    0  0.91883773236E+03  0.12010529449E+04 -0.31371208036E+03  0.18355145283E+04  0.99192104497E+03 0.  0.
        -13    1    4    4    0    0  0.33210774964E+02  0.69904472922E+03 -0.41310303723E+03  0.81266267267E+03  0.10566000000E+00 0.  1.
          4    1    4    4  502    0  0.88562695740E+03  0.50200821563E+03  0.99390956870E+02  0.10228518556E+04  0.00000000000E+00 0.  1.
         13    1    3    3    0    0  0.12261472941E+03 -0.48139394815E+02 -0.43856725943E+02  0.13883514244E+03  0.10566000000E+00 0. -1.
         -4    1    3    3    0  501 -0.10414524618E+04 -0.11529135500E+04  0.15497290886E+04  0.21944231889E+04  0.00000000000E+00 0. -1.
<mgrwt>
<rscale>  0 0.17953345E+04</rscale>
<asrwt>0</asrwt>
<pdfrwt beam="2">  1        4 0.22897020E+00 0.18085072E+04</pdfrwt>
<pdfrwt beam="1">  1       -4 0.41237947E+00 0.17822578E+04</pdfrwt>
<totfact> 0.33449871E-02</totfact>
</mgrwt>
</event>
<event>
 8    1  0.2939692E-006  0.1182835E+04  0.7818608E-02  0.8638581E-01
         -4   -1    0    0    0  501 -0.00000000000E+00  0.00000000000E+00  0.21914803625E+04  0.21914803625E+04  0.00000000000E+00 0. -1.
          4   -1    0    0  502    0  0.00000000000E+00 -0.00000000000E+00 -0.10141057743E+04  0.10141057743E+04  0.00000000000E+00 0.  1.
   -9000010    2    1    2    0  501  0.53855000730E+03 -0.59601160917E+02  0.16045386871E+04  0.19934000249E+04  0.10514327615E+04 0.  0.
    9000010    2    1    2  502    0 -0.53855000730E+03  0.59601160917E+02 -0.42716409898E+03  0.12121861119E+04  0.99666322977E+03 0.  0.
        -13    1    4    4    0    0 -0.77129525155E+03 -0.14072618143E+03 -0.14944131085E+03  0.79814343307E+03  0.10566000000E+00 0.  1.
          4    1    4    4  502    0  0.23274524424E+03  0.20032734235E+03 -0.27772278813E+03  0.41404267879E+03  0.00000000000E+00 0.  1.
         13    1    3    3    0    0  0.22134139947E+03 -0.37868590672E+03  0.13865660840E+03  0.46002249650E+03  0.10566000000E+00 0. -1.
         -4    1    3    3    0  501  0.31720860784E+03  0.31908474580E+03  0.14658820787E+04  0.15333775284E+04  0.00000000000E+00 0. -1.
<mgrwt>
<rscale>  0 0.11583786E+04</rscale>
<asrwt>0</asrwt>
<pdfrwt beam="2">  1        4 0.15601627E+00 0.11344276E+04</pdfrwt>
<pdfrwt beam="1">  1       -4 0.33715082E+00 0.11828353E+04</pdfrwt>
<totfact> 0.11230180E-01</totfact>
</mgrwt>
</event>
<event>
 8    1  0.2939692E-006  0.1058779E+04  0.7818608E-02  0.8728564E-01
          4   -1    0    0  502    0  0.00000000000E+00  0.00000000000E+00  0.83201993308E+03  0.83201993308E+03  0.00000000000E+00 0.  1.
         -4   -1    0    0    0  501 -0.00000000000E+00 -0.00000000000E+00 -0.18860832389E+04  0.18860832389E+04  0.00000000000E+00 0. -1.
   -9000010    2    1    2    0  501  0.25535147278E+03  0.19676074115E+03 -0.12644567665E+04  0.16386225001E+04  0.99111735921E+03 0.  0.
    9000010    2    1    2  502    0 -0.25535147278E+03 -0.19676074115E+03  0.21039346062E+03  0.10794806719E+04  0.10085107579E+04 0.  0.
        -13    1    4    4    0    0  0.13621469821E+02  0.36449496668E+03  0.27064569498E+03  0.45419294199E+03  0.10566000000E+00 0.  1.
          4    1    4    4  502    0 -0.26897294260E+03 -0.56125570782E+03 -0.60252234367E+02  0.62528772990E+03  0.00000000000E+00 0.  1.
         13    1    3    3    0    0  0.41728924256E+03 -0.26205969819E+03 -0.91610128522E+03  0.10402149650E+04  0.10566000000E+00 0. -1.
         -4    1    3    3    0  501 -0.16193776978E+03  0.45882043934E+03 -0.34835548126E+03  0.59840753518E+03  0.00000000000E+00 0. -1.
<mgrwt>
<rscale>  0 0.10504694E+04</rscale>
<asrwt>0</asrwt>
<pdfrwt beam="1">  1        4 0.12800307E+00 0.10587791E+04</pdfrwt>
<pdfrwt beam="2">  1       -4 0.29016665E+00 0.10422249E+04</pdfrwt>
<totfact> 0.20684523E-01</totfact>
</mgrwt>
</event>
<event>
 8    1  0.2939692E-006  0.1052403E+04  0.7818608E-02  0.8749970E-01
         -4   -1    0    0    0  501 -0.00000000000E+00  0.00000000000E+00  0.32661262115E+04  0.32661262115E+04  0.00000000000E+00 0. -1.
          4   -1    0    0  502    0  0.00000000000E+00 -0.00000000000E+00 -0.22034118749E+04  0.22034118749E+04  0.00000000000E+00 0.  1.
   -9000010    2    1    2    0  501 -0.13009815887E+03 -0.33492296474E+02  0.30557689479E+04  0.32156928073E+04  0.99242586791E+03 0.  0.
    9000010    2    1    2  502    0  0.13009815887E+03  0.33492296474E+02 -0.19930546113E+04  0.22538452791E+04  0.10437933672E+04 0.  0.
        -13    1    4    4    0    0 -0.29466488463E+03  0.34565374739E+03 -0.52603120912E+03  0.69499118804E+03  0.10566000000E+00 0.  1.
          4    1    4    4  502    0  0.42476304351E+03 -0.31216145092E+03 -0.14670234022E+04  0.15588540910E+04  0.00000000000E+00 0.  1.
         13    1    3    3    0    0 -0.64357438483E+02 -0.51289958340E+03  0.16366493873E+04  0.17163417756E+04  0.10566000000E+00 0. -1.
         -4    1    3    3    0  501 -0.65740720392E+02  0.47940728693E+03  0.14191195605E+04  0.14993510317E+04  0.00000000000E+00 0. -1.
<mgrwt>
<rscale>  0 0.10266243E+04</rscale>
<asrwt>0</asrwt>
<pdfrwt beam="2">  1        4 0.33898644E+00 0.10524029E+04</pdfrwt>
<pdfrwt beam="1">  1       -4 0.50248096E+00 0.10014771E+04</pdfrwt>
<totfact> 0.73144305E-03</totfact>
</mgrwt>
</event>
<event>
 8    1  0.2939692E-006  0.1137430E+04  0.7818608E-02  0.8656636E-01
          4   -1    0    0  502    0  0.00000000000E+00  0.00000000000E+00  0.87582469835E+03  0.87582469835E+03  0.00000000000E+00 0.  1.
         -4   -1    0    0    0  501 -0.00000000000E+00 -0.00000000000E+00 -0.18054248090E+04  0.18054248090E+04  0.00000000000E+00 0. -1.
   -9000010    2    1    2    0  501 -0.51235706374E+03 -0.12414829877E+03 -0.10397871260E+04  0.15384947535E+04  0.10039353954E+04 0.  0.
    9000010    2    1    2  502    0  0.51235706374E+03  0.12414829877E+03  0.11018701539E+03  0.11427547539E+04  0.10078812868E+04 0.  0.
        -13    1    4    4    0    0  0.60286942848E+03  0.16827655627E+02 -0.32526932471E+03  0.68522613972E+03  0.10566000000E+00 0.  1.
          4    1    4    4  502    0 -0.90512364734E+02  0.10732064314E+03  0.43545634010E+03  0.45752861413E+03  0.00000000000E+00 0.  1.
         13    1    3    3    0    0  0.19585288881E+03 -0.29970105597E+03 -0.56195116374E+03  0.66630938655E+03  0.10566000000E+00 0. -1.
         -4    1    3    3    0  501 -0.70820995255E+03  0.17555275721E+03 -0.47783596229E+03  0.87218536695E+03  0.00000000000E+00 0. -1.
<mgrwt>
<rscale>  0 0.11356813E+04</rscale>
<asrwt>0</asrwt>
<pdfrwt beam="1">  1        4 0.13474226E+00 0.11374301E+04</pdfrwt>
<pdfrwt beam="2">  1       -4 0.27775766E+00 0.11339351E+04</pdfrwt>
<totfact> 0.20438431E-01</totfact>
</mgrwt>
</event>
<event>
 8    1  0.2939692E-006  0.1043686E+04  0.7818608E-02  0.8735071E-01
          4   -1    0    0  502    0  0.00000000000E+00  0.00000000000E+00  0.18367877325E+04  0.18367877325E+04  0.00000000000E+00 0.  1.
         -4   -1    0    0    0  501 -0.00000000000E+00 -0.00000000000E+00 -0.34921968910E+04  0.34921968910E+04  0.00000000000E+00 0. -1.
   -9000010    2    1    2    0  501  0.29279048277E+02  0.26859270568E+03 -0.32557659112E+04  0.34189605294E+04  0.10081072013E+04 0.  0.
    9000010    2    1    2  502    0 -0.29279048277E+02 -0.26859270568E+03  0.16003567527E+04  0.19100240941E+04  0.10070009929E+04 0.  0.
        -13    1    4    4    0    0  0.27005255743E+03  0.11964806680E+02  0.13132652777E+02  0.27063632074E+03  0.10566000000E+00 0.  1.
          4    1    4    4  502    0 -0.29933160571E+03 -0.28055751236E+03  0.15872240999E+04  0.16393877733E+04  0.00000000000E+00 0.  1.
         13    1    3    3    0    0 -0.31737829877E+03  0.17855066558E+03 -0.28682692382E+04  0.28912934405E+04  0.10566000000E+00 0. -1.
         -4    1    3    3    0  501  0.34665734705E+03  0.90042040106E+02 -0.38749667292E+03  0.52766708896E+03  0.00000000000E+00 0. -1.
<mgrwt>
<rscale>  0 0.10431511E+04</rscale>
<asrwt>0</asrwt>
<pdfrwt beam="1">  1        4 0.28258273E+00 0.10426170E+04</pdfrwt>
<pdfrwt beam="2">  1       -4 0.53726106E+00 0.10436855E+04</pdfrwt>
<totfact> 0.71793989E-03</totfact>
</mgrwt>
</event>
<event>
 8    1  0.2939692E-006  0.1333751E+04  0.7818608E-02  0.8517887E-01
         -4   -1    0    0    0  501 -0.00000000000E+00  0.00000000000E+00  0.26352074351E+04  0.26352074351E+04  0.00000000000E+00 0. -1.
          4   -1    0    0  502    0  0.00000000000E+00 -0.00000000000E+00 -0.94211058462E+03  0.94211058462E+03  0.00000000000E+00 0.  1.
   -9000010    2    1    2    0  501  0.84832526531E+03  0.18863346430E+03  0.18181670832E+04  0.22549106920E+04  0.10117570592E+04 0.  0.
    9000010    2    1    2  502    0 -0.84832526531E+03 -0.18863346430E+03 -0.12507023272E+03  0.13224073277E+04  0.98887827246E+03 0.  0.
        -13    1    4    4    0    0 -0.96810824392E+03 -0.27274905058E+03 -0.34057828312E+03  0.10618941542E+04  0.10566000000E+00 0.  1.
          4    1    4    4  502    0  0.11978297861E+03  0.84115586284E+02  0.21550805040E+03  0.26051317358E+03  0.00000000000E+00 0.  1.
         13    1    3    3    0    0  0.87695408969E+03  0.50698098468E+03  0.13410231912E+04  0.16806015009E+04  0.10566000000E+00 0. -1.
         -4    1    3    3    0  501 -0.28628824381E+02 -0.31834752038E+03  0.47714389200E+03  0.57430919111E+03  0.00000000000E+00 0. -1.
<mgrwt>
<rscale>  0 0.13250870E+04</rscale>
<asrwt>0</asrwt>
<pdfrwt beam="2">  1        4 0.14494009E+00 0.13164796E+04</pdfrwt>
<pdfrwt beam="1">  1       -4 0.40541653E+00 0.13337506E+04</pdfrwt>
<totfact> 0.69705518E-02</totfact>
</mgrwt>
</event>
<event>
 8    1  0.2939692E-006  0.1128002E+04  0.7818608E-02  0.8671939E-01
         -4   -1    0    0    0  501 -0.00000000000E+00  0.00000000000E+00  0.24324577178E+04  0.24324577178E+04  0.00000000000E+00 0. -1.
          4   -1    0    0  502    0  0.00000000000E+00 -0.00000000000E+00 -0.11485301416E+04  0.11485301416E+04  0.00000000000E+00 0.  1.
   -9000010    2    1    2    0  501 -0.19447310511E+03  0.49886668365E+03  0.19768182561E+04  0.22760052379E+04  0.99282509471E+03 0.  0.
    9000010    2    1    2  502    0  0.19447310511E+03 -0.49886668365E+03 -0.69289067996E+03  0.13049826215E+04  0.96757138830E+03 0.  0.
        -13    1    4    4    0    0  0.82645175148E+02  0.29135652278E+03 -0.24679358422E+03  0.39067369085E+03  0.10566000000E+00 0.  1.
          4    1    4    4  502    0  0.11182792997E+03 -0.79022320643E+03 -0.44609709574E+03  0.91430893068E+03  0.00000000000E+00 0.  1.
         13    1    3    3    0    0  0.16267793302E+03  0.53910308825E+03  0.49029312628E+03  0.74664825085E+03  0.10566000000E+00 0. -1.
         -4    1    3    3    0  501 -0.35715103814E+03 -0.40236404598E+02  0.14865251298E+04  0.15293569871E+04  0.00000000000E+00 0. -1.
<mgrwt>
<rscale>  0 0.11168662E+04</rscale>
<asrwt>0</asrwt>
<pdfrwt beam="2">  1        4 0.17669695E+00 0.11058400E+04</pdfrwt>
<pdfrwt beam="1">  1       -4 0.37422426E+00 0.11280024E+04</pdfrwt>
<totfact> 0.70599101E-02</totfact>
</mgrwt>
</event>
<event>
 8    1  0.2939692E-006  0.1349455E+04  0.7818608E-02  0.8523796E-01
          4   -1    0    0  502    0  0.00000000000E+00  0.00000000000E+00  0.29689543740E+04  0.29689543740E+04  0.00000000000E+00 0.  1.
         -4   -1    0    0    0  501 -0.00000000000E+00 -0.00000000000E+00 -0.90793502969E+03  0.90793502969E+03  0.00000000000E+00 0. -1.
   -9000010    2    1    2    0  501  0.94904342763E+02 -0.90340957978E+03 -0.14373934082E+03  0.12919348859E+04  0.90734725893E+03 0.  0.
    9000010    2    1    2  502    0 -0.94904342763E+02  0.90340957978E+03  0.22047586851E+04  0.25849545177E+04  0.99793451492E+03 0.  0.
        -13    1    4    4    0    0  0.24692453616E+03 -0.93665862066E+02  0.69649107704E+03  0.74487908538E+03  0.10566000000E+00 0.  1.
          4    1    4    4  502    0 -0.34182887892E+03  0.99707544185E+03  0.15082676081E+04  0.18400754323E+04  0.00000000000E+00 0.  1.
         13    1    3    3    0    0 -0.25309590405E+03  0.25585024453E+01  0.12865018947E+03  0.28392774608E+03  0.10566000000E+00 0. -1.
         -4    1    3    3    0  501  0.34800024681E+03 -0.90596808223E+03 -0.27238953029E+03  0.10080071399E+04  0.00000000000E+00 0. -1.
<mgrwt>
<rscale>  0 0.13162766E+04</rscale>
<asrwt>0</asrwt>
<pdfrwt beam="1">  1        4 0.45676221E+00 0.13494551E+04</pdfrwt>
<pdfrwt beam="2">  1       -4 0.13968231E+00 0.12839138E+04</pdfrwt>
<totfact> 0.43699965E-02</totfact>
</mgrwt>
</event>
<event>
 8    1  0.2939692E-006  0.1175119E+04  0.7818608E-02  0.8627648E-01
          4   -1    0    0  502    0  0.00000000000E+00  0.00000000000E+00  0.28092945458E+04  0.28092945458E+04  0.00000000000E+00 0.  1.
         -4   -1    0    0    0  501 -0.00000000000E+00 -0.00000000000E+00 -0.83799499525E+03  0.83799499525E+03  0.00000000000E+00 0. -1.
   -9000010    2    1    2    0  501 -0.60700151157E+03  0.10848012432E+03 -0.19210053293E+03  0.11853381949E+04  0.99393422782E+03 0.  0.
    9000010    2    1    2  502    0  0.60700151157E+03 -0.10848012432E+03  0.21634000834E+04  0.24619513461E+04  0.10003428097E+04 0.  0.
        -13    1    4    4    0    0  0.51442551625E+03  0.38388809770E+03  0.92348552181E+03  0.11246462570E+04  0.10566000000E+00 0.  1.
          4    1    4    4  502    0  0.92575995316E+02 -0.49236822202E+03  0.12399145616E+04  0.13373050890E+04  0.00000000000E+00 0.  1.
         13    1    3    3    0    0 -0.13926331828E+03  0.84247612081E+02 -0.56416574230E+03  0.58717538088E+03  0.10566000000E+00 0. -1.
         -4    1    3    3    0  501 -0.46773819329E+03  0.24232512241E+02  0.37206520937E+03  0.59816281407E+03  0.00000000000E+00 0. -1.
<mgrwt>
<rscale>  0 0.11723905E+04</rscale>
<asrwt>0</asrwt>
<pdfrwt beam="1">  1        4 0.43219916E+00 0.11751189E+04</pdfrwt>
<pdfrwt beam="2">  1       -4 0.12892231E+00 0.11696683E+04</pdfrwt>
<totfact> 0.65422749E-02</totfact>
</mgrwt>
</event>
<event>
 8    1  0.2939692E-006  0.1220171E+04  0.7818608E-02  0.8640552E-01
          4   -1    0    0  502    0  0.00000000000E+00  0.00000000000E+00  0.10106513991E+04  0.10106513991E+04  0.00000000000E+00 0.  1.
         -4   -1    0    0    0  501 -0.00000000000E+00 -0.00000000000E+00 -0.33114306338E+04  0.33114306338E+04  0.00000000000E+00 0. -1.
   -9000010    2    1    2    0  501 -0.57591403680E+03  0.81021960685E+01 -0.27979002827E+04  0.30045287117E+04  0.93123797388E+03 0.  0.
    9000010    2    1    2  502    0  0.57591403680E+03 -0.81021960685E+01  0.49712104811E+03  0.13175533212E+04  0.10756741116E+04 0.  0.
        -13    1    4    4    0    0  0.44503796166E+03 -0.28828783083E+03 -0.19062692113E+03  0.56347785666E+03  0.10566000000E+00 0.  1.
          4    1    4    4  502    0  0.13087607515E+03  0.28018563476E+03  0.68774796925E+03  0.75407546451E+03  0.00000000000E+00 0.  1.
         13    1    3    3    0    0 -0.13576546359E+02  0.37092021089E+03 -0.14877877654E+04  0.15333879390E+04  0.10566000000E+00 0. -1.
         -4    1    3    3    0  501 -0.56233749044E+03 -0.36281801483E+03 -0.13101125174E+04  0.14711407728E+04  0.00000000000E+00 0. -1.
<mgrwt>
<rscale>  0 0.11558736E+04</rscale>
<asrwt>0</asrwt>
<pdfrwt beam="1">  1        4 0.15548483E+00 0.12201711E+04</pdfrwt>
<pdfrwt beam="2">  1       -4 0.50945086E+00 0.10949643E+04</pdfrwt>
<totfact> 0.21632078E-02</totfact>
</mgrwt>
</event>
<event>
 8    1  0.2939692E-006  0.1035356E+04  0.7818608E-02  0.8743865E-01
          4   -1    0    0  502    0  0.00000000000E+00  0.00000000000E+00  0.11564335078E+04  0.11564335078E+04  0.00000000000E+00 0.  1.
         -4   -1    0    0    0  501 -0.00000000000E+00 -0.00000000000E+00 -0.98036886086E+03  0.98036886086E+03  0.00000000000E+00 0. -1.
   -9000010    2    1    2    0  501 -0.24215300279E+02  0.21411204897E+03 -0.16970993170E+03  0.10452334103E+04  0.10086035251E+04 0.  0.
    9000010    2    1    2  502    0  0.24215300279E+02 -0.21411204897E+03  0.34577457866E+03  0.10915689584E+04  0.10126857268E+04 0.  0.
        -13    1    4    4    0    0  0.21743418972E+03  0.29997061420E+03 -0.10054335722E+03  0.38388666828E+03  0.10566000000E+00 0.  1.
          4    1    4    4  502    0 -0.19321888944E+03 -0.51408266316E+03  0.44631793588E+03  0.70768229008E+03  0.00000000000E+00 0.  1.
         13    1    3    3    0    0 -0.31954645584E+03  0.22387153535E+03 -0.47878800016E+03  0.61762963177E+03  0.10566000000E+00 0. -1.
         -4    1    3    3    0  501  0.29533115556E+03 -0.97594863833E+01  0.30907806847E+03  0.42760377855E+03  0.00000000000E+00 0. -1.
<mgrwt>
<rscale>  0 0.10333582E+04</rscale>
<asrwt>0</asrwt>
<pdfrwt beam="1">  1        4 0.17791285E+00 0.10353563E+04</pdfrwt>
<pdfrwt beam="2">  1       -4 0.15082598E+00 0.10313639E+04</pdfrwt>
<totfact> 0.31416367E-01</totfact>
</mgrwt>
</event>
<event>
 8    1  0.2939692E-006  0.1073528E+04  0.7818608E-02  0.8709265E-01
         -4   -1    0    0    0  501 -0.00000000000E+00  0.00000000000E+00  0.12607791677E+04  0.12607791677E+04  0.00000000000E+00 0. -1.
          4   -1    0    0  502    0  0.00000000000E+00 -0.00000000000E+00 -0.24797430421E+04  0.24797430421E+04  0.00000000000E+00 0.  1.
   -9000010    2    1    2    0  501 -0.38695212822E+03 -0.15151504287E+03  0.87761511031E+03  0.13850806637E+04  0.98770005838E+03 0.  0.
    9000010    2    1    2  502    0  0.38695212822E+03  0.15151504287E+03 -0.20965789846E+04  0.23554415461E+04  0.98983467340E+03 0.  0.
        -13    1    4    4    0    0  0.35736955646E+03  0.16905662376E+03 -0.17296580796E+03  0.43152094250E+03  0.10566000000E+00 0.  1.
          4    1    4    4  502    0  0.29582571755E+02 -0.17541580893E+02 -0.19236131767E+04  0.19239206036E+04  0.00000000000E+00 0.  1.
         13    1    3    3    0    0  0.22154019637E+03  0.20148995516E+03  0.50981066014E+03  0.59125728832E+03  0.10566000000E+00 0. -1.
         -4    1    3    3    0  501 -0.60849232459E+03 -0.35300499803E+03  0.36780445017E+03  0.79382337537E+03  0.00000000000E+00 0. -1.
<mgrwt>
<rscale>  0 0.10725432E+04</rscale>
<asrwt>0</asrwt>
<pdfrwt beam="2">  1        4 0.38149893E+00 0.10735276E+04</pdfrwt>
<pdfrwt beam="1">  1       -4 0.19396602E+00 0.10715597E+04</pdfrwt>
<totfact> 0.58762789E-02</totfact>
</mgrwt>
</event>
<event>
 8    1  0.2939692E-006  0.1182451E+04  0.7818608E-02  0.8623488E-01
          4   -1    0    0  502    0  0.00000000000E+00  0.00000000000E+00  0.20308203165E+04  0.20308203165E+04  0.00000000000E+00 0.  1.
         -4   -1    0    0    0  501 -0.00000000000E+00 -0.00000000000E+00 -0.16004926429E+04  0.16004926429E+04  0.00000000000E+00 0. -1.
   -9000010    2    1    2    0  501 -0.52285513597E+03  0.33867543057E+03 -0.11598490223E+04  0.16496840257E+04  0.99404682471E+03 0.  0.
    9000010    2    1    2  502    0  0.52285513597E+03 -0.33867543057E+03  0.15901766958E+04  0.19816289336E+04  0.10050436638E+04 0.  0.
        -13    1    4    4    0    0  0.33314326893E+03  0.17733026146E+03  0.13125542237E+04  0.13657338909E+04  0.10566000000E+00 0.  1.
          4    1    4    4  502    0  0.18971186703E+03 -0.51600569204E+03  0.27762247211E+03  0.61589504279E+03  0.00000000000E+00 0.  1.
         13    1    3    3    0    0 -0.81647478395E+03  0.21516862780E+03 -0.93475336177E+03  0.12596398175E+04  0.10566000000E+00 0. -1.
         -4    1    3    3    0  501  0.29361964798E+03  0.12350680278E+03 -0.22509566052E+03  0.39004420826E+03  0.00000000000E+00 0. -1.
<mgrwt>
<rscale>  0 0.11777758E+04</rscale>
<asrwt>0</asrwt>
<pdfrwt beam="1">  1        4 0.31243390E+00 0.11824514E+04</pdfrwt>
<pdfrwt beam="2">  1       -4 0.24622964E+00 0.11731188E+04</pdfrwt>
<totfact> 0.71688698E-02</totfact>
</mgrwt>
</event>
<event>
 8    1  0.2939692E-006  0.1182800E+04  0.7818608E-02  0.8623292E-01
          4   -1    0    0  502    0  0.00000000000E+00  0.00000000000E+00  0.72781941202E+03  0.72781941202E+03  0.00000000000E+00 0.  1.
         -4   -1    0    0    0  501 -0.00000000000E+00 -0.00000000000E+00 -0.21432633212E+04  0.21432633212E+04  0.00000000000E+00 0. -1.
   -9000010    2    1    2    0  501  0.99106970149E+01  0.60609605340E+03 -0.11871272351E+04  0.16757943216E+04  0.10156598289E+04 0.  0.
    9000010    2    1    2  502    0 -0.99106970149E+01 -0.60609605340E+03 -0.22831667411E+03  0.11952884117E+04  0.10045572336E+04 0.  0.
        -13    1    4    4    0    0 -0.14039722944E+03 -0.86145016019E+03 -0.91619198375E+02  0.87761144546E+03  0.10566000000E+00 0.  1.
          4    1    4    4  502    0  0.13048653243E+03  0.25535410679E+03 -0.13669747573E+03  0.31767696622E+03  0.00000000000E+00 0.  1.
         13    1    3    3    0    0 -0.25819439374E+02  0.88525417782E+03 -0.10098338657E+04  0.13431701494E+04  0.10566000000E+00 0. -1.
         -4    1    3    3    0  501  0.35730136389E+02 -0.27915812442E+03 -0.17729336942E+03  0.33262417218E+03  0.00000000000E+00 0. -1.
<mgrwt>
<rscale>  0 0.11780303E+04</rscale>
<asrwt>0</asrwt>
<pdfrwt beam="1">  1        4 0.11197222E+00 0.11732800E+04</pdfrwt>
<pdfrwt beam="2">  1       -4 0.32973281E+00 0.11827999E+04</pdfrwt>
<totfact> 0.20007126E-01</totfact>
</mgrwt>
</event>
<event>
 8    1  0.2939692E-006  0.1068431E+04  0.7818608E-02  0.8716158E-01
          4   -1    0    0  502    0  0.00000000000E+00  0.00000000000E+00  0.32553609741E+04  0.32553609741E+04  0.00000000000E+00 0.  1.
         -4   -1    0    0    0  501 -0.00000000000E+00 -0.00000000000E+00 -0.87793964560E+03  0.87793964560E+03  0.00000000000E+00 0. -1.
   -9000010    2    1    2    0  501 -0.79083088016E+02 -0.34823301076E+03 -0.41499052155E+03  0.11461945855E+04  0.10069878501E+04 0.  0.
    9000010    2    1    2  502    0  0.79083088016E+02  0.34823301076E+03  0.27924118500E+04  0.29871060342E+04  0.99885842582E+03 0.  0.
        -13    1    4    4    0    0  0.24937845733E+03 -0.22600289513E+03  0.40940852196E+03  0.52998327578E+03  0.10566000000E+00 0.  1.
          4    1    4    4  502    0 -0.17029536932E+03  0.57423590588E+03  0.23830033280E+04  0.24571227584E+04  0.00000000000E+00 0.  1.
         13    1    3    3    0    0  0.12697339360E+03 -0.63904352240E+03 -0.44425588784E+03  0.78858238076E+03  0.10566000000E+00 0. -1.
         -4    1    3    3    0  501 -0.20605648161E+03  0.29081051164E+03  0.29265366285E+02  0.35761220471E+03  0.00000000000E+00 0. -1.
<mgrwt>
<rscale>  0 0.10645949E+04</rscale>
<asrwt>0</asrwt>
<pdfrwt beam="1">  1        4 0.50082476E+00 0.10607726E+04</pdfrwt>
<pdfrwt beam="2">  1       -4 0.13506764E+00 0.10684310E+04</pdfrwt>
<totfact> 0.29388078E-02</totfact>
</mgrwt>
</event>
<event>
 8    1  0.2939692E-006  0.1127831E+04  0.7818608E-02  0.8782364E-01
         -4   -1    0    0    0  501 -0.00000000000E+00  0.00000000000E+00  0.16414796090E+04  0.16414796090E+04  0.00000000000E+00 0. -1.
          4   -1    0    0  502    0  0.00000000000E+00 -0.00000000000E+00 -0.76894776456E+03  0.76894776456E+03  0.00000000000E+00 0.  1.
   -9000010    2    1    2    0  501 -0.10607554605E+03 -0.25741654929E+03  0.93787508596E+03  0.12807051820E+04  0.82648701447E+03 0.  0.
    9000010    2    1    2  502    0  0.10607554605E+03  0.25741654929E+03 -0.65343241552E+02  0.11297221915E+04  0.10929259762E+04 0.  0.
        -13    1    4    4    0    0  0.37199650342E+03  0.38853751130E+03 -0.40907574882E+03  0.67578530294E+03  0.10566000000E+00 0.  1.
          4    1    4    4  502    0 -0.26592095737E+03 -0.13112096201E+03  0.34373250726E+03  0.45393688856E+03  0.00000000000E+00 0.  1.
         13    1    3    3    0    0 -0.24479207946E+03  0.23676521674E+03  0.25017372043E+03  0.42257287133E+03  0.10566000000E+00 0. -1.
         -4    1    3    3    0  501  0.13871653341E+03 -0.49418176603E+03  0.68770136553E+03  0.85813231070E+03  0.00000000000E+00 0. -1.
<mgrwt>
<rscale>  0 0.99176896E+03</rscale>
<asrwt>0</asrwt>
<pdfrwt beam="2">  1        4 0.11829966E+00 0.11278309E+04</pdfrwt>
<pdfrwt beam="1">  1       -4 0.25253532E+00 0.87212160E+03</pdfrwt>
<totfact> 0.29340775E-01</totfact>
</mgrwt>
</event>
<event>
 8    1  0.2939692E-006  0.1187984E+04  0.7818608E-02  0.8636158E-01
         -4   -1    0    0    0  501 -0.00000000000E+00  0.00000000000E+00  0.39410442379E+03  0.39410442379E+03  0.00000000000E+00 0. -1.
          4   -1    0    0  502    0  0.00000000000E+00 -0.00000000000E+00 -0.48640374503E+04  0.48640374503E+04  0.00000000000E+00 0.  1.
   -9000010    2    1    2    0  501  0.30069183358E+03 -0.57633663445E+03 -0.84058206515E+03  0.14552954306E+04  0.99434756848E+03 0.  0.
    9000010    2    1    2  502    0 -0.30069183358E+03  0.57633663445E+03 -0.36293509613E+04  0.38028464435E+04  0.93106024371E+03 0.  0.
        -13    1    4    4    0    0 -0.54950303172E+03  0.59352476945E+02 -0.15411233470E+04  0.16372347053E+04  0.10566000000E+00 0.  1.
          4    1    4    4  502    0  0.24881119814E+03  0.51698415751E+03 -0.20882276144E+04  0.21656117382E+04  0.00000000000E+00 0.  1.
         13    1    3    3    0    0 -0.26512496750E+02 -0.46045209913E+03  0.83011658964E+02  0.46862564458E+03  0.10566000000E+00 0. -1.
         -4    1    3    3    0  501  0.32720433033E+03 -0.11588453533E+03 -0.92359372412E+03  0.98666978597E+03  0.00000000000E+00 0. -1.
<mgrwt>
<rscale>  0 0.11614665E+04</rscale>
<asrwt>0</asrwt>
<pdfrwt beam="2">  1        4 0.74831348E+00 0.11355407E+04</pdfrwt>
<pdfrwt beam="1">  1       -4 0.60631448E-01 0.11879843E+04</pdfrwt>
<totfact> 0.72055432E-03</totfact>
</mgrwt>
</event>
<event>
 8    1  0.2939692E-006  0.1127915E+04  0.7818608E-02  0.8664781E-01
         -4   -1    0    0    0  501 -0.00000000000E+00  0.00000000000E+00  0.88095347593E+03  0.88095347593E+03  0.00000000000E+00 0.  1.
          4   -1    0    0  502    0  0.00000000000E+00 -0.00000000000E+00 -0.18889064498E+04  0.18889064498E+04  0.00000000000E+00 0. -1.
   -9000010    2    1    2    0  501 -0.49983253309E+03 -0.14878327308E+03 -0.11796640356E+04  0.16289493280E+04  0.99493700954E+03 0.  0.
    9000010    2    1    2  502    0  0.49983253309E+03  0.14878327308E+03  0.17171106169E+03  0.11409105977E+04  0.10001116337E+04 0.  0.
        -13    1    4    4    0    0  0.63296699695E+03  0.38241790606E+03 -0.11434281326E+03  0.74830806772E+03  0.10566000000E+00 0.  1.
          4    1    4    4  502    0 -0.13313446386E+03 -0.23363463298E+03  0.28605387495E+03  0.39260253001E+03  0.00000000000E+00 0.  1.
         13    1    3    3    0    0 -0.32765064276E+03 -0.57545664920E+03 -0.66160077790E+03  0.93606671733E+03  0.10566000000E+00 0. -1.
         -4    1    3    3    0  501 -0.17218189033E+03  0.42667337612E+03 -0.51806325769E+03  0.69288261070E+03  0.00000000000E+00 0. -1.
<mgrwt>
<rscale>  0 0.11256198E+04</rscale>
<asrwt>0</asrwt>
<pdfrwt beam="2">  1        4 0.29060099E+00 0.11279150E+04</pdfrwt>
<pdfrwt beam="1">  1       -4 0.13553131E+00 0.11233293E+04</pdfrwt>
<totfact> 0.18753538E-01</totfact>
</mgrwt>
</event>
<event>
 8    1  0.2939692E-006  0.1088175E+04  0.7818608E-02  0.8699449E-01
         -4   -1    0    0    0  501 -0.00000000000E+00  0.00000000000E+00  0.11003568990E+04  0.11003568990E+04  0.00000000000E+00 0. -1.
          4   -1    0    0  502    0  0.00000000000E+00 -0.00000000000E+00 -0.20510061795E+04  0.20510061795E+04  0.00000000000E+00 0.  1.
   -9000010    2    1    2    0  501 -0.32581814524E+03 -0.25239275992E+03  0.61462930951E+03  0.12497571780E+04  0.10071068696E+04 0.  0.
    9000010    2    1    2  502    0  0.32581814524E+03  0.25239275992E+03 -0.15652785900E+04  0.19016059005E+04  0.99807232575E+03 0.  0.
        -13    1    4    4    0    0  0.14285810776E+03  0.61820600690E+03 -0.70148567409E+03  0.94586958300E+03  0.10566000000E+00 0.  1.
          4    1    4    4  502    0  0.18296003749E+03 -0.36581324698E+03 -0.86379291594E+03  0.95573631751E+03  0.00000000000E+00 0.  1.
         13    1    3    3    0    0 -0.26781106980E+03  0.14207801953E+03  0.76558424665E+03  0.82342466724E+03  0.10566000000E+00 0. -1.
         -4    1    3    3    0  501 -0.58007075444E+02 -0.39447077945E+03 -0.15095493713E+03  0.42633251071E+03  0.00000000000E+00 0. -1.
<mgrwt>
<rscale>  0 0.10839885E+04</rscale>
<asrwt>0</asrwt>
<pdfrwt beam="2">  1        4 0.31553941E+00 0.10798185E+04</pdfrwt>
<pdfrwt beam="1">  1       -4 0.16928568E+00 0.10881745E+04</pdfrwt>
<totfact> 0.11628241E-01</totfact>
</mgrwt>
</event>
<event>
 8    1  0.2939692E-006  0.1186826E+04  0.7818608E-02  0.8632740E-01
         -4   -1    0    0    0  501 -0.00000000000E+00  0.00000000000E+00  0.22803240449E+04  0.22803240449E+04  0.00000000000E+00 0. -1.
          4   -1    0    0  502    0  0.00000000000E+00 -0.00000000000E+00 -0.59793390214E+03  0.59793390214E+03  0.00000000000E+00 0.  1.
   -9000010    2    1    2    0  501  0.25101852276E+02  0.55969714001E+03  0.93282312891E+03  0.15095414995E+04  0.10462626617E+04 0.  0.
    9000010    2    1    2  502    0 -0.25101852276E+02 -0.55969714001E+03  0.74956701384E+03  0.13687164476E+04  0.99882081181E+03 0.  0.
        -13    1    4    4    0    0 -0.32999865076E+03 -0.35858582633E+03 -0.49796045144E+02  0.48985973668E+03  0.10566000000E+00 0.  1.
          4    1    4    4  502    0  0.30489679848E+03 -0.20111131368E+03  0.79936305899E+03  0.87885671089E+03  0.00000000000E+00 0.  1.
         13    1    3    3    0    0  0.47704680834E+03  0.24553329399E+02  0.46908424593E+03  0.66948977907E+03  0.10566000000E+00 0. -1.
         -4    1    3    3    0  501 -0.45194495607E+03  0.53514381061E+03  0.46373888298E+03  0.84005172039E+03  0.00000000000E+00 0. -1.
<mgrwt>
<rscale>  0 0.11658387E+04</rscale>
<asrwt>0</asrwt>
<pdfrwt beam="2">  1        4 0.91989833E-01 0.11452223E+04</pdfrwt>
<pdfrwt beam="1">  1       -4 0.35081908E+00 0.11868263E+04</pdfrwt>
<totfact> 0.24935934E-01</totfact>
</mgrwt>
</event>
<event>
 8    1  0.2939692E-006  0.1251695E+04  0.7818608E-02  0.8589307E-01
          4   -1    0    0  502    0  0.00000000000E+00  0.00000000000E+00  0.14958798929E+04  0.14958798929E+04  0.00000000000E+00 0.  1.
         -4   -1    0    0    0  501 -0.00000000000E+00 -0.00000000000E+00 -0.14244557734E+04  0.14244557734E+04  0.00000000000E+00 0. -1.
   -9000010    2    1    2    0  501 -0.66716746330E+03  0.10419690696E+03 -0.76109899497E+03  0.14170607338E+04  0.98631639124E+03 0.  0.
    9000010    2    1    2  502    0  0.66716746330E+03 -0.10419690696E+03  0.83252311451E+03  0.15032749325E+04  0.10539313863E+04 0.  0.
        -13    1    4    4    0    0 -0.16911241980E+03 -0.16550380697E+03 -0.93131988316E+02  0.25429136648E+03  0.10566000000E+00 0.  1.
          4    1    4    4  502    0  0.83627988311E+03  0.61306900017E+02  0.92565510283E+03  0.12489835661E+04  0.00000000000E+00 0.  1.
         13    1    3    3    0    0 -0.87502989679E+03 -0.12563186975E+03 -0.53268712489E+03  0.10320931504E+04  0.10566000000E+00 0. -1.
         -4    1    3    3    0  501  0.20786243348E+03  0.22982877670E+03 -0.22841187007E+03  0.38496758337E+03  0.00000000000E+00 0. -1.
<mgrwt>
<rscale>  0 0.12231827E+04</rscale>
<asrwt>0</asrwt>
<pdfrwt beam="1">  1        4 0.23013537E+00 0.12516952E+04</pdfrwt>
<pdfrwt beam="2">  1       -4 0.21914704E+00 0.11953198E+04</pdfrwt>
<totfact> 0.13416773E-01</totfact>
</mgrwt>
</event>
<event>
 8    1  0.2939692E-006  0.1360509E+04  0.7818608E-02  0.8496277E-01
         -4   -1    0    0    0  501 -0.00000000000E+00  0.00000000000E+00  0.24396996785E+04  0.24396996785E+04  0.00000000000E+00 0. -1.
          4   -1    0    0  502    0  0.00000000000E+00 -0.00000000000E+00 -0.18012557368E+04  0.18012557368E+04  0.00000000000E+00 0.  1.
   -9000010    2    1    2    0  501  0.90612539769E+03 -0.14015764928E+03  0.19349371010E+04  0.23653680946E+04  0.10051254822E+04 0.  0.
    9000010    2    1    2  502    0 -0.90612539769E+03  0.14015764928E+03 -0.12964931594E+04  0.18755873207E+04  0.99811115735E+03 0.  0.
        -13    1    4    4    0    0 -0.75795738450E+03 -0.35605411901E+03 -0.80916184788E+03  0.11644813608E+04  0.10566000000E+00 0.  1.
          4    1    4    4  502    0 -0.14816801319E+03  0.49621176830E+03 -0.48733131148E+03  0.71110595995E+03  0.00000000000E+00 0.  1.
         13    1    3    3    0    0 -0.81157800984E+02  0.27703476918E+03  0.40524604114E+03  0.49755323033E+03  0.10566000000E+00 0. -1.
         -4    1    3    3    0  501  0.98728319867E+03 -0.41719241846E+03  0.15296910599E+04  0.18678148642E+04  0.00000000000E+00 0. -1.
<mgrwt>
<rscale>  0 0.13579196E+04</rscale>
<asrwt>0</asrwt>
<pdfrwt beam="2">  1        4 0.27711627E+00 0.13553351E+04</pdfrwt>
<pdfrwt beam="1">  1       -4 0.37533841E+00 0.13605090E+04</pdfrwt>
<totfact> 0.37158435E-02</totfact>
</mgrwt>
</event>
<event>
 8    1  0.2939692E-006  0.1403983E+04  0.7818608E-02  0.8492809E-01
         -4   -1    0    0    0  501 -0.00000000000E+00  0.00000000000E+00  0.20933506457E+04  0.20933506457E+04  0.00000000000E+00 0. -1.
          4   -1    0    0  502    0  0.00000000000E+00 -0.00000000000E+00 -0.12797534365E+04  0.12797534365E+04  0.00000000000E+00 0.  1.
   -9000010    2    1    2    0  501 -0.60914284894E+03  0.61464469768E+03  0.13472525654E+04  0.19458307972E+04  0.11055880342E+04 0.  0.
    9000010    2    1    2  502    0  0.60914284894E+03 -0.61464469768E+03 -0.53365535628E+03  0.14272732850E+04  0.10017374287E+04 0.  0.
        -13    1    4    4    0    0  0.35903361950E+03  0.22110258662E+03 -0.36608397776E+02  0.42323950630E+03  0.10566000000E+00 0.  1.
          4    1    4    4  502    0  0.25010922944E+03 -0.83574728430E+03 -0.49704695850E+03  0.10040337787E+04  0.00000000000E+00 0.  1.
         13    1    3    3    0    0 -0.16774307585E+03  0.19528613617E+03 -0.17166928907E+03  0.30942651866E+03  0.10566000000E+00 0. -1.
         -4    1    3    3    0  501 -0.44139977310E+03  0.41935856151E+03  0.15189218545E+04  0.16364042785E+04  0.00000000000E+00 0. -1.
<mgrwt>
<rscale>  0 0.13632777E+04</rscale>
<asrwt>0</asrwt>
<pdfrwt beam="2">  1        4 0.19688514E+00 0.13237526E+04</pdfrwt>
<pdfrwt beam="1">  1       -4 0.32205395E+00 0.14039829E+04</pdfrwt>
<totfact> 0.88765354E-02</totfact>
</mgrwt>
</event>
<event>
 8    1  0.2939692E-006  0.2116465E+04  0.7818608E-02  0.8127352E-01
         -4   -1    0    0    0  501 -0.00000000000E+00  0.00000000000E+00  0.19604278730E+04  0.19604278730E+04  0.00000000000E+00 0. -1.
          4   -1    0    0  502    0  0.00000000000E+00 -0.00000000000E+00 -0.38677238959E+04  0.38677238959E+04  0.00000000000E+00 0.  1.
   -9000010    2    1    2    0  501  0.15863085727E+04 -0.92180568475E+03  0.92300708290E+03  0.23089752453E+04  0.10551416967E+04 0.  0.
    9000010    2    1    2  502    0 -0.15863085727E+04  0.92180568475E+03 -0.28303031058E+04  0.35191765236E+04  0.10039358174E+04 0.  0.
        -13    1    4    4    0    0 -0.39000110679E+03  0.75060190243E+03 -0.14988182911E+04  0.17210346772E+04  0.10566000000E+00 0.  1.
          4    1    4    4  502    0 -0.11963074659E+04  0.17120378232E+03 -0.13314848146E+04  0.17981418464E+04  0.00000000000E+00 0.  1.
         13    1    3    3    0    0 -0.74982734285E+01  0.16948209585E+03  0.35317680772E+01  0.16968467658E+03  0.10566000000E+00 0. -1.
         -4    1    3    3    0  501  0.15938068461E+04 -0.10912877806E+04  0.91947531482E+03  0.21392905687E+04  0.00000000000E+00 0. -1.
<mgrwt>
<rscale>  0 0.21038993E+04</rscale>
<asrwt>0</asrwt>
<pdfrwt beam="2">  1        4 0.59503444E+00 0.20914081E+04</pdfrwt>
<pdfrwt beam="1">  1       -4 0.30160429E+00 0.21164651E+04</pdfrwt>
<totfact> 0.27327666E-03</totfact>
</mgrwt>
</event>
<event>
 8    1  0.2939692E-006  0.1542001E+04  0.7818608E-02  0.8391585E-01
          4   -1    0    0  502    0  0.00000000000E+00  0.00000000000E+00  0.16723003738E+04  0.16723003738E+04  0.00000000000E+00 0.  1.
         -4   -1    0    0    0  501 -0.00000000000E+00 -0.00000000000E+00 -0.14387066795E+04  0.14387066795E+04  0.00000000000E+00 0. -1.
   -9000010    2    1    2    0  501 -0.30720534770E+03  0.11129000597E+04  0.36377965494E+03  0.15843307036E+04  0.10221773195E+04 0.  0.
    9000010    2    1    2  502    0  0.30720534770E+03 -0.11129000597E+04 -0.13018596063E+03  0.15266763496E+04  0.99038912733E+03 0.  0.
        -13    1    4    4    0    0  0.52645085500E+03 -0.11672178259E+04 -0.33248556295E+02  0.12808799450E+04  0.10566000000E+00 0.  1.
          4    1    4    4  502    0 -0.21924550730E+03  0.54317766123E+02 -0.96937404331E+02  0.24579640467E+03  0.00000000000E+00 0.  1.
         13    1    3    3    0    0 -0.57556093078E+03  0.27898950266E+03  0.10352702791E+02  0.63969736380E+03  0.10566000000E+00 0. -1.
         -4    1    3    3    0  501  0.26835558308E+03  0.83391055708E+03  0.35342695215E+03  0.94463333981E+03  0.00000000000E+00 0. -1.
<mgrwt>
<rscale>  0 0.15315228E+04</rscale>
<asrwt>0</asrwt>
<pdfrwt beam="1">  1        4 0.25727698E+00 0.15211155E+04</pdfrwt>
<pdfrwt beam="2">  1       -4 0.22133949E+00 0.15420013E+04</pdfrwt>
<totfact> 0.11204292E-01</totfact>
</mgrwt>
</event>
<event>
 8    1  0.2939692E-006  0.1414719E+04  0.7818608E-02  0.8463509E-01
          4   -1    0    0  502    0  0.00000000000E+00  0.00000000000E+00  0.12583361126E+04  0.12583361126E+04  0.00000000000E+00 0.  1.
         -4   -1    0    0    0  501 -0.00000000000E+00 -0.00000000000E+00 -0.22015242757E+04  0.22015242757E+04  0.00000000000E+00 0. -1.
   -9000010    2    1    2    0  501 -0.98161200031E+03 -0.10087643819E+03 -0.13902376707E+04  0.19761880820E+04  0.99941001569E+03 0.  0.
    9000010    2    1    2  502    0  0.98161200031E+03  0.10087643819E+03  0.44704950760E+03  0.14836723063E+04  0.10137514859E+04 0.  0.
        -13    1    4    4    0    0  0.86914872554E+03 -0.28115962070E+03  0.40238676355E+02  0.91437924389E+03  0.10566000000E+00 0.  1.
          4    1    4    4  502    0  0.11246327477E+03  0.38203605889E+03  0.40681083124E+03  0.56929306238E+03  0.00000000000E+00 0.  1.
         13    1    3    3    0    0 -0.21010341010E+02 -0.28031091858E+03 -0.52412618634E+01  0.28114609635E+03  0.10566000000E+00 0. -1.
         -4    1    3    3    0  501 -0.96060165930E+03  0.17943448039E+03 -0.13849964089E+04  0.16950419857E+04  0.00000000000E+00 0. -1.
<mgrwt>
<rscale>  0 0.14095893E+04</rscale>
<asrwt>0</asrwt>
<pdfrwt beam="1">  1        4 0.19359017E+00 0.14147191E+04</pdfrwt>
<pdfrwt beam="2">  1       -4 0.33869604E+00 0.14044780E+04</pdfrwt>
<totfact> 0.81027368E-02</totfact>
</mgrwt>
</event>
<event>
 8    1  0.2939692E-006  0.1248449E+04  0.7818608E-02  0.8572034E-01
         -4   -1    0    0    0  501 -0.00000000000E+00  0.00000000000E+00  0.12676799195E+04  0.12676799195E+04  0.00000000000E+00 0. -1.
          4   -1    0    0  502    0  0.00000000000E+00 -0.00000000000E+00 -0.16716779338E+04  0.16716779338E+04  0.00000000000E+00 0.  1.
   -9000010    2    1    2    0  501  0.18362777738E+03 -0.75036448654E+03  0.55622175705E+03  0.13667510585E+04  0.98074450780E+03 0.  0.
    9000010    2    1    2  502    0 -0.18362777738E+03  0.75036448654E+03 -0.96021977135E+03  0.15726067949E+04  0.97688489529E+03 0.  0.
        -13    1    4    4    0    0 -0.26903571399E+03  0.44479220419E+03 -0.11070308658E+04  0.12230035443E+04  0.10566000000E+00 0.  1.
          4    1    4    4  502    0  0.85407936616E+02  0.30557228236E+03  0.14681109443E+03  0.34960325060E+03  0.00000000000E+00 0.  1.
         13    1    3    3    0    0  0.15925634456E+03 -0.54376781097E+03 -0.18566260709E+03  0.59625215334E+03  0.10566000000E+00 0. -1.
         -4    1    3    3    0  501  0.24371432819E+02 -0.20659667557E+03  0.74188436413E+03  0.77049890515E+03  0.00000000000E+00 0. -1.
<mgrwt>
<rscale>  0 0.12469336E+04</rscale>
<asrwt>0</asrwt>
<pdfrwt beam="2">  1        4 0.25718122E+00 0.12454197E+04</pdfrwt>
<pdfrwt beam="1">  1       -4 0.19502768E+00 0.12484494E+04</pdfrwt>
<totfact> 0.13405296E-01</totfact>
</mgrwt>
</event>
<event>
 8    1  0.2939692E-006  0.1034867E+04  0.7818608E-02  0.8771877E-01
         -4   -1    0    0    0  501 -0.00000000000E+00  0.00000000000E+00  0.24978497720E+04  0.24978497720E+04  0.00000000000E+00 0. -1.
          4   -1    0    0  502    0  0.00000000000E+00 -0.00000000000E+00 -0.17951026499E+04  0.17951026499E+04  0.00000000000E+00 0.  1.
   -9000010    2    1    2    0  501 -0.16180490885E+03 -0.24061091649E+03  0.22388883546E+04  0.24407431891E+04  0.92764853745E+03 0.  0.
    9000010    2    1    2  502    0  0.16180490885E+03  0.24061091649E+03 -0.15361412324E+04  0.18522092328E+04  0.99341568062E+03 0.  0.
        -13    1    4    4    0    0 -0.41746630688E+03  0.10943444582E+03 -0.77137075461E+03  0.88389301815E+03  0.10566000000E+00 0.  1.
          4    1    4    4  502    0  0.57927121573E+03  0.13117647067E+03 -0.76477047781E+03  0.96831621465E+03  0.00000000000E+00 0.  1.
         13    1    3    3    0    0 -0.83756243920E+02  0.34058750174E+03  0.54390112937E+03  0.64718112181E+03  0.10566000000E+00 0. -1.
         -4    1    3    3    0  501 -0.78048664933E+02 -0.58119841823E+03  0.16949872252E+04  0.17935620672E+04  0.00000000000E+00 0. -1.
<mgrwt>
<rscale>  0 0.10028937E+04</rscale>
<asrwt>0</asrwt>
<pdfrwt beam="2">  1        4 0.27616964E+00 0.10348667E+04</pdfrwt>
<pdfrwt beam="1">  1       -4 0.38428458E+00 0.97190856E+03</pdfrwt>
<totfact> 0.36235492E-02</totfact>
</mgrwt>
</event>
<event>
 8    1  0.2939692E-006  0.1172054E+04  0.7818608E-02  0.8630008E-01
         -4   -1    0    0    0  501 -0.00000000000E+00  0.00000000000E+00  0.17831555290E+04  0.17831555290E+04  0.00000000000E+00 0. -1.
          4   -1    0    0  502    0  0.00000000000E+00 -0.00000000000E+00 -0.11442485078E+04  0.11442485078E+04  0.00000000000E+00 0.  1.
   -9000010    2    1    2    0  501  0.34262742365E+03  0.47085200271E+03  0.11595812448E+04  0.16449019361E+04  0.10109295506E+04 0.  0.
    9000010    2    1    2  502    0 -0.34262742365E+03 -0.47085200271E+03 -0.52067422352E+03  0.12825021007E+04  0.10171601798E+04 0.  0.
        -13    1    4    4    0    0  0.19275433027E+03  0.22355009590E+03 -0.12603420989E+03  0.32095717852E+03  0.10566000000E+00 0.  1.
          4    1    4    4  502    0 -0.53538175392E+03 -0.69440209861E+03 -0.39464001363E+03  0.96154492217E+03  0.00000000000E+00 0.  1.
         13    1    3    3    0    0 -0.29789478266E+03 -0.79978138150E+02  0.20588395369E+03  0.37084500491E+03  0.10566000000E+00 0. -1.
         -4    1    3    3    0  501  0.64052220631E+03  0.55083014086E+03  0.95369729112E+03  0.12740569312E+04  0.00000000000E+00 0. -1.
<mgrwt>
<rscale>  0 0.11693491E+04</rscale>
<asrwt>0</asrwt>
<pdfrwt beam="2">  1        4 0.17603823E+00 0.11720537E+04</pdfrwt>
<pdfrwt beam="1">  1       -4 0.27433162E+00 0.11666506E+04</pdfrwt>
<totfact> 0.14109838E-01</totfact>
</mgrwt>
</event>
<event>
 8    1  0.2939692E-006  0.1292048E+04  0.7818608E-02  0.8557577E-01
         -4   -1    0    0    0  501 -0.00000000000E+00  0.00000000000E+00  0.92581083570E+03  0.92581083570E+03  0.00000000000E+00 0. -1.
          4   -1    0    0  502    0  0.00000000000E+00 -0.00000000000E+00 -0.26072070988E+04  0.26072070988E+04  0.00000000000E+00 0.  1.
   -9000010    2    1    2    0  501  0.40305105305E+03  0.72257402041E+03  0.16992017939E+03  0.13031733741E+04  0.99238329750E+03 0.  0.
    9000010    2    1    2  502    0 -0.40305105305E+03 -0.72257402041E+03 -0.18513164425E+04  0.22298445605E+04  0.92750785828E+03 0.  0.
        -13    1    4    4    0    0 -0.47377691355E+03  0.38348311971E+02 -0.63112694037E+03  0.79009897030E+03  0.10566000000E+00 0.  1.
          4    1    4    4  502    0  0.70725860492E+02 -0.76092233238E+03 -0.12201895022E+04  0.14397455902E+04  0.00000000000E+00 0.  1.
         13    1    3    3    0    0  0.14659287031E+03  0.93509124305E+03  0.20438261657E+03  0.96832709740E+03  0.10566000000E+00 0. -1.
         -4    1    3    3    0  501  0.25645818274E+03 -0.21251722264E+03 -0.34462437171E+02  0.33484627665E+03  0.00000000000E+00 0. -1.
<mgrwt>
<rscale>  0 0.12672427E+04</rscale>
<asrwt>0</asrwt>
<pdfrwt beam="2">  1        4 0.40110878E+00 0.12429136E+04</pdfrwt>
<pdfrwt beam="1">  1       -4 0.14243244E+00 0.12920480E+04</pdfrwt>
<totfact> 0.75004874E-02</totfact>
</mgrwt>
</event>
<event>
 8    1  0.2939692E-006  0.1061217E+04  0.7818608E-02  0.8724664E-01
          4   -1    0    0  502    0  0.00000000000E+00  0.00000000000E+00  0.12659537801E+04  0.12659537801E+04  0.00000000000E+00 0.  1.
         -4   -1    0    0    0  501 -0.00000000000E+00 -0.00000000000E+00 -0.23603051166E+04  0.23603051166E+04  0.00000000000E+00 0. -1.
   -9000010    2    1    2    0  501  0.40478802162E+01  0.32040841777E+03 -0.19823005361E+04  0.22425556990E+04  0.99843012184E+03 0.  0.
    9000010    2    1    2  502    0 -0.40478802162E+01 -0.32040841777E+03  0.88794919960E+03  0.13837031977E+04  0.10116831612E+04 0.  0.
        -13    1    4    4    0    0  0.43594636172E+03  0.81848942520E+02  0.51852679267E+03  0.68236245909E+03  0.10566000000E+00 0.  1.
          4    1    4    4  502    0 -0.43999424194E+03 -0.40225736029E+03  0.36942240693E+03  0.70134073857E+03  0.00000000000E+00 0.  1.
         13    1    3    3    0    0 -0.36927921830E+03 -0.34574226983E+02 -0.14698609353E+04  0.15159332764E+04  0.10566000000E+00 0. -1.
         -4    1    3    3    0  501  0.37332709851E+03  0.35498264475E+03 -0.51243960083E+03  0.72662242262E+03  0.00000000000E+00 0. -1.
<mgrwt>
<rscale>  0 0.10548843E+04</rscale>
<asrwt>0</asrwt>
<pdfrwt beam="1">  1        4 0.19476212E+00 0.10612166E+04</pdfrwt>
<pdfrwt beam="2">  1       -4 0.36312386E+00 0.10485898E+04</pdfrwt>
<totfact> 0.68495503E-02</totfact>
</mgrwt>
</event>
<event>
 8    1  0.2939692E-006  0.1020727E+04  0.7818608E-02  0.8760241E-01
         -4   -1    0    0    0  501 -0.00000000000E+00  0.00000000000E+00  0.58576596503E+03  0.58576596503E+03  0.00000000000E+00 0. -1.
          4   -1    0    0  502    0  0.00000000000E+00 -0.00000000000E+00 -0.24206968649E+04  0.24206968649E+04  0.00000000000E+00 0.  1.
   -9000010    2    1    2    0  501  0.52996091026E+02 -0.12993326694E+03 -0.12880631778E+03  0.10183120108E+04  0.10003384648E+04 0.  0.
    9000010    2    1    2  502    0 -0.52996091026E+02  0.12993326694E+03 -0.17061245821E+04  0.19881508192E+04  0.10110347920E+04 0.  0.
        -13    1    4    4    0    0  0.33055862812E+03  0.37722237593E+03 -0.54554726023E+03  0.74107189383E+03  0.10566000000E+00 0.  1.
          4    1    4    4  502    0 -0.38355471914E+03 -0.24728910899E+03 -0.11605773219E+04  0.12470789254E+04  0.00000000000E+00 0.  1.
         13    1    3    3    0    0 -0.25974936581E+03 -0.38532353428E+03  0.19180859395E+03  0.50272707008E+03  0.10566000000E+00 0. -1.
         -4    1    3    3    0  501  0.31274545684E+03  0.25539026735E+03 -0.32061491174E+03  0.51558494068E+03  0.00000000000E+00 0. -1.
<mgrwt>
<rscale>  0 0.10154158E+04</rscale>
<asrwt>0</asrwt>
<pdfrwt beam="2">  1        4 0.37241491E+00 0.10207265E+04</pdfrwt>
<pdfrwt beam="1">  1       -4 0.90117840E-01 0.10101328E+04</pdfrwt>
<totfact> 0.21981011E-01</totfact>
</mgrwt>
</event>
<event>
 8    1  0.2939692E-006  0.1121692E+04  0.7818608E-02  0.8669729E-01
         -4   -1    0    0    0  501 -0.00000000000E+00  0.00000000000E+00  0.74220896348E+03  0.74220896348E+03  0.00000000000E+00 0. -1.
          4   -1    0    0  502    0  0.00000000000E+00 -0.00000000000E+00 -0.27315733073E+04  0.27315733073E+04  0.00000000000E+00 0.  1.
   -9000010    2    1    2    0  501 -0.16608569466E+03  0.48461931459E+03  0.77313937119E+02  0.11243531997E+04  0.99787390725E+03 0.  0.
    9000010    2    1    2  502    0  0.16608569466E+03 -0.48461931459E+03 -0.20666782809E+04  0.23494290711E+04  0.99308484285E+03 0.  0.
        -13    1    4    4    0    0  0.12611388092E+03 -0.24196207772E+03 -0.20850395204E+04  0.21028171987E+04  0.10566000000E+00 0.  1.
          4    1    4    4  502    0  0.39971813743E+02 -0.24265723687E+03  0.18361239515E+02  0.24661187241E+03  0.00000000000E+00 0.  1.
         13    1    3    3    0    0  0.17629210823E+03 -0.22315753766E+03  0.17211833107E+03  0.33241980250E+03  0.10566000000E+00 0. -1.
         -4    1    3    3    0  501 -0.34237780289E+03  0.70777685225E+03 -0.94804393947E+02  0.79193339720E+03  0.00000000000E+00 0. -1.
<mgrwt>
<rscale>  0 0.11195607E+04</rscale>
<asrwt>0</asrwt>
<pdfrwt beam="2">  1        4 0.42024204E+00 0.11174336E+04</pdfrwt>
<pdfrwt beam="1">  1       -4 0.11418600E+00 0.11216919E+04</pdfrwt>
<totfact> 0.90664555E-02</totfact>
</mgrwt>
</event>
<event>
 8    1  0.2939692E-006  0.1045942E+04  0.7818608E-02  0.8747753E-01
          4   -1    0    0  502    0  0.00000000000E+00  0.00000000000E+00  0.67279026332E+03  0.67279026332E+03  0.00000000000E+00 0.  1.
         -4   -1    0    0    0  501 -0.00000000000E+00 -0.00000000000E+00 -0.25085523791E+04  0.25085523791E+04  0.00000000000E+00 0. -1.
   -9000010    2    1    2    0  501  0.17709427343E+03 -0.88341372517E+01 -0.18791046242E+04  0.21345033528E+04  0.99680988708E+03 0.  0.
    9000010    2    1    2  502    0 -0.17709427343E+03  0.88341372517E+01  0.43342508373E+02  0.10468392896E+04  0.10308023582E+04 0.  0.
        -13    1    4    4    0    0 -0.32468014028E+03 -0.29161700841E+03  0.37516264798E+03  0.57550386332E+03  0.10566000000E+00 0.  1.
          4    1    4    4  502    0  0.14758586685E+03  0.30045114567E+03 -0.33182013961E+03  0.47133542629E+03  0.00000000000E+00 0.  1.
         13    1    3    3    0    0 -0.24403646358E+03 -0.30953269429E+03 -0.37568322638E+03  0.54452013934E+03  0.10566000000E+00 0. -1.
         -4    1    3    3    0  501  0.42113073701E+03  0.30069855704E+03 -0.15034213978E+04  0.15899832135E+04  0.00000000000E+00 0. -1.
<mgrwt>
<rscale>  0 0.10290634E+04</rscale>
<asrwt>0</asrwt>
<pdfrwt beam="1">  1        4 0.10350619E+00 0.10459416E+04</pdfrwt>
<pdfrwt beam="2">  1       -4 0.38593114E+00 0.10124576E+04</pdfrwt>
<totfact> 0.14987138E-01</totfact>
</mgrwt>
</event>
<event>
 8    1  0.2939692E-006  0.1109368E+04  0.7818608E-02  0.8679916E-01
          4   -1    0    0  502    0  0.00000000000E+00  0.00000000000E+00  0.20059408939E+04  0.20059408939E+04  0.00000000000E+00 0.  1.
         -4   -1    0    0    0  501 -0.00000000000E+00 -0.00000000000E+00 -0.78176568100E+03  0.78176568100E+03  0.00000000000E+00 0. -1.
   -9000010    2    1    2    0  501  0.21089193672E+03 -0.42718345068E+03 -0.40015979437E+02  0.11057799656E+04  0.99708923580E+03 0.  0.
    9000010    2    1    2  502    0 -0.21089193672E+03  0.42718345068E+03  0.12641911923E+04  0.16819266093E+04  0.10018665774E+04 0.  0.
        -13    1    4    4    0    0  0.10154243825E+03  0.52773594069E+03  0.20859105446E+03  0.57647751823E+03  0.10566000000E+00 0.  1.
          4    1    4    4  502    0 -0.31243437496E+03 -0.10055249002E+03  0.10556001379E+04  0.11054490911E+04  0.00000000000E+00 0.  1.
         13    1    3    3    0    0 -0.20624523267E+03 -0.58239860808E+03 -0.17237989170E+03  0.64143594608E+03  0.10566000000E+00 0. -1.
         -4    1    3    3    0  501  0.41713716939E+03  0.15521515740E+03  0.13236391227E+03  0.46434401950E+03  0.00000000000E+00 0. -1.
<mgrwt>
<rscale>  0 0.11072098E+04</rscale>
<asrwt>0</asrwt>
<pdfrwt beam="1">  1        4 0.30860629E+00 0.11093682E+04</pdfrwt>
<pdfrwt beam="2">  1       -4 0.12027164E+00 0.11050557E+04</pdfrwt>
<totfact> 0.20360532E-01</totfact>
</mgrwt>
</event>
<event>
 8    1  0.2939692E-006  0.1120645E+04  0.7818608E-02  0.8671573E-01
         -4   -1    0    0    0  501 -0.00000000000E+00  0.00000000000E+00  0.64663790089E+03  0.64663790089E+03  0.00000000000E+00 0. -1.
          4   -1    0    0  502    0  0.00000000000E+00 -0.00000000000E+00 -0.24601525524E+04  0.24601525524E+04  0.00000000000E+00 0.  1.
   -9000010    2    1    2    0  501 -0.99789690193E+02 -0.47677352895E+03 -0.18393775031E+03  0.11290730759E+04  0.10018492574E+04 0.  0.
    9000010    2    1    2  502    0  0.99789690193E+02  0.47677352895E+03 -0.16295769013E+04  0.19777173774E+04  0.10092443548E+04 0.  0.
        -13    1    4    4    0    0 -0.13068069048E+03 -0.22316193019E+03 -0.91650382642E+03  0.95229090354E+03  0.10566000000E+00 0.  1.
          4    1    4    4  502    0  0.23047038067E+03  0.69993545914E+03 -0.71307307483E+03  0.10254264739E+04  0.00000000000E+00 0.  1.
         13    1    3    3    0    0  0.27485783798E+03 -0.22697679295E+03  0.30155693734E+03  0.46690672865E+03  0.10566000000E+00 0. -1.
         -4    1    3    3    0  501 -0.37464752817E+03 -0.24979673600E+03 -0.48549468765E+03  0.66216634724E+03  0.00000000000E+00 0. -1.
<mgrwt>
<rscale>  0 0.11173123E+04</rscale>
<asrwt>0</asrwt>
<pdfrwt beam="2">  1        4 0.37848501E+00 0.11206450E+04</pdfrwt>
<pdfrwt beam="1">  1       -4 0.99482753E-01 0.11139896E+04</pdfrwt>
<totfact> 0.17084201E-01</totfact>
</mgrwt>
</event>
<event>
 8    1  0.2939692E-006  0.1309762E+04  0.7818608E-02  0.8531795E-01
         -4   -1    0    0    0  501 -0.00000000000E+00  0.00000000000E+00  0.12964699858E+04  0.12964699858E+04  0.00000000000E+00 0. -1.
          4   -1    0    0  502    0  0.00000000000E+00 -0.00000000000E+00 -0.14835036086E+04  0.14835036086E+04  0.00000000000E+00 0.  1.
   -9000010    2    1    2    0  501 -0.56187804259E+03  0.59638409468E+03  0.37870047424E+03  0.13532527216E+04  0.10082152331E+04 0.  0.
    9000010    2    1    2  502    0  0.56187804259E+03 -0.59638409468E+03 -0.56573409700E+03  0.14267208727E+04  0.10218103822E+04 0.  0.
        -13    1    4    4    0    0  0.17917972761E+03 -0.45759612073E+02 -0.71603183892E+03  0.73952749941E+03  0.10566000000E+00 0.  1.
          4    1    4    4  502    0  0.38269831498E+03 -0.55062448260E+03  0.15029774192E+03  0.68719337333E+03  0.00000000000E+00 0.  1.
         13    1    3    3    0    0  0.25789222870E+03  0.20832487562E+03  0.29262752770E+03  0.44219739547E+03  0.10566000000E+00 0. -1.
         -4    1    3    3    0  501 -0.81977027129E+03  0.38805921906E+03  0.86072946545E+02  0.91105532615E+03  0.00000000000E+00 0. -1.
<mgrwt>
<rscale>  0 0.13044624E+04</rscale>
<asrwt>0</asrwt>
<pdfrwt beam="2">  1        4 0.22823132E+00 0.13097623E+04</pdfrwt>
<pdfrwt beam="1">  1       -4 0.19945692E+00 0.12991839E+04</pdfrwt>
<totfact> 0.15259247E-01</totfact>
</mgrwt>
</event>
<event>
 8    1  0.2939692E-006  0.1462302E+04  0.7818608E-02  0.8437914E-01
         -4   -1    0    0    0  501 -0.00000000000E+00  0.00000000000E+00  0.21374527477E+04  0.21374527477E+04  0.00000000000E+00 0. -1.
          4   -1    0    0  502    0  0.00000000000E+00 -0.00000000000E+00 -0.19456124245E+04  0.19456124245E+04  0.00000000000E+00 0.  1.
   -9000010    2    1    2    0  501  0.95391372062E+03  0.44582222299E+03  0.15301171765E+04  0.21165034745E+04  0.10147017013E+04 0.  0.
    9000010    2    1    2  502    0 -0.95391372062E+03 -0.44582222299E+03 -0.13382768534E+04  0.19665616978E+04  0.98370276711E+03 0.  0.
        -13    1    4    4    0    0 -0.38114814710E+03  0.24456696588E+03 -0.80313784399E+03  0.92201806840E+03  0.10566000000E+00 0.  1.
          4    1    4    4  502    0 -0.57276557353E+03 -0.69038918887E+03 -0.53513900937E+03  0.10445436294E+04  0.00000000000E+00 0.  1.
         13    1    3    3    0    0  0.77916476766E+02  0.53391754969E+03  0.34612252047E+03  0.64104581549E+03  0.10566000000E+00 0. -1.
         -4    1    3    3    0  501  0.87599724386E+03 -0.88095326699E+02  0.11839946561E+04  0.14754576590E+04  0.00000000000E+00 0. -1.
<mgrwt>
<rscale>  0 0.14515945E+04</rscale>
<asrwt>0</asrwt>
<pdfrwt beam="2">  1        4 0.29932499E+00 0.14409649E+04</pdfrwt>
<pdfrwt beam="1">  1       -4 0.32883888E+00 0.14623024E+04</pdfrwt>
<totfact> 0.46116950E-02</totfact>
</mgrwt>
</event>
<event>
 8    1  0.2939692E-006  0.1065746E+04  0.7818608E-02  0.8719485E-01
         -4   -1    0    0    0  501 -0.00000000000E+00  0.00000000000E+00  0.14920555104E+04  0.14920555104E+04  0.00000000000E+00 0. -1.
          4   -1    0    0  502    0  0.00000000000E+00 -0.00000000000E+00 -0.25912409932E+04  0.25912409932E+04  0.00000000000E+00 0.  1.
   -9000010    2    1    2    0  501 -0.75711406355E+01  0.28083738099E+03  0.11687034871E+04  0.15816708501E+04  0.10280505242E+04 0.  0.
    9000010    2    1    2  502    0  0.75711406355E+01 -0.28083738099E+03 -0.22678889700E+04  0.25016256536E+04  0.10177836577E+04 0.  0.
        -13    1    4    4    0    0 -0.31142474938E+03  0.12467766492E+03 -0.24877794234E+03  0.41763664879E+03  0.10566000000E+00 0.  1.
          4    1    4    4  502    0  0.31899589001E+03 -0.40551504591E+03 -0.20191110276E+04  0.20839890048E+04  0.00000000000E+00 0.  1.
         13    1    3    3    0    0 -0.30780622951E+03  0.47918067689E+03  0.10641254564E+04  0.12069473038E+04  0.10566000000E+00 0. -1.
         -4    1    3    3    0  501  0.30023508888E+03 -0.19834329590E+03  0.10457803074E+03  0.37472354628E+03  0.00000000000E+00 0. -1.
<mgrwt>
<rscale>  0 0.10607845E+04</rscale>
<asrwt>0</asrwt>
<pdfrwt beam="2">  1        4 0.39865246E+00 0.10558459E+04</pdfrwt>
<pdfrwt beam="1">  1       -4 0.22954700E+00 0.10657461E+04</pdfrwt>
<totfact> 0.40688798E-02</totfact>
</mgrwt>
</event>
<event>
 8    1  0.2939692E-006  0.1089726E+04  0.7818608E-02  0.8704597E-01
         -4   -1    0    0    0  501 -0.00000000000E+00  0.00000000000E+00  0.31821505441E+04  0.31821505441E+04  0.00000000000E+00 0. -1.
          4   -1    0    0  502    0  0.00000000000E+00 -0.00000000000E+00 -0.65027988213E+03  0.65027988213E+03  0.00000000000E+00 0.  1.
   -9000010    2    1    2    0  501 -0.21967122791E+03 -0.36671155267E+03  0.25423400279E+04  0.27660433040E+04  0.10023821281E+04 0.  0.
    9000010    2    1    2  502    0  0.21967122791E+03  0.36671155267E+03 -0.10469365980E+02  0.10663871222E+04  0.97690279741E+03 0.  0.
        -13    1    4    4    0    0 -0.22810243601E+02 -0.32877907867E+03  0.67111168076E+01  0.32963774062E+03  0.10566000000E+00 0.  1.
          4    1    4    4  502    0  0.24248147151E+03  0.69549063134E+03 -0.17180482788E+02  0.73674938161E+03  0.00000000000E+00 0.  1.
         13    1    3    3    0    0  0.84691377428E+02 -0.62970421826E+03  0.19428763040E+04  0.20441302247E+04  0.10566000000E+00 0. -1.
         -4    1    3    3    0  501 -0.30436260534E+03  0.26299266560E+03  0.59946372400E+03  0.72191307931E+03  0.00000000000E+00 0. -1.
<mgrwt>
<rscale>  0 0.10779674E+04</rscale>
<asrwt>0</asrwt>
<pdfrwt beam="2">  1        4 0.10004306E+00 0.10663357E+04</pdfrwt>
<pdfrwt beam="1">  1       -4 0.48956161E+00 0.10897260E+04</pdfrwt>
<totfact> 0.55586601E-02</totfact>
</mgrwt>
</event>
<event>
 8    1  0.2939692E-006  0.1036585E+04  0.7818608E-02  0.8767379E-01
          4   -1    0    0  502    0  0.00000000000E+00  0.00000000000E+00  0.80163632882E+03  0.80163632882E+03  0.00000000000E+00 0.  1.
         -4   -1    0    0    0  501 -0.00000000000E+00 -0.00000000000E+00 -0.36442697518E+04  0.36442697518E+04  0.00000000000E+00 0. -1.
   -9000010    2    1    2    0  501 -0.21099165822E+02  0.29914779333E+03 -0.32022233800E+04  0.33487213797E+04  0.93261231296E+03 0.  0.
    9000010    2    1    2  502    0  0.21099165822E+02 -0.29914779333E+03  0.35958995702E+03  0.10971847009E+04  0.99225740296E+03 0.  0.
        -13    1    4    4    0    0  0.21027918486E+03 -0.22465363706E+03 -0.28614508137E+03  0.42019710968E+03  0.10566000000E+00 0.  1.
          4    1    4    4  502    0 -0.18918001904E+03 -0.74494156275E+02  0.64573503839E+03  0.67698759126E+03  0.00000000000E+00 0.  1.
         13    1    3    3    0    0  0.37343876062E+03 -0.12543176093E+03 -0.11162664052E+04  0.11837399770E+04  0.10566000000E+00 0. -1.
         -4    1    3    3    0  501 -0.39453792644E+03  0.42457955426E+03 -0.20859569748E+04  0.21649814027E+04  0.00000000000E+00 0. -1.
<mgrwt>
<rscale>  0 0.10077121E+04</rscale>
<asrwt>0</asrwt>
<pdfrwt beam="1">  1        4 0.12332867E+00 0.10365854E+04</pdfrwt>
<pdfrwt beam="2">  1       -4 0.56065688E+00 0.97964295E+03</pdfrwt>
<totfact> 0.17590827E-02</totfact>
</mgrwt>
</event>
<event>
 8    1  0.2939692E-006  0.1272199E+04  0.7818608E-02  0.8559785E-01
          4   -1    0    0  502    0  0.00000000000E+00  0.00000000000E+00  0.11143612903E+04  0.11143612903E+04  0.00000000000E+00 0.  1.
         -4   -1    0    0    0  501 -0.00000000000E+00 -0.00000000000E+00 -0.19579377436E+04  0.19579377436E+04  0.00000000000E+00 0. -1.
   -9000010    2    1    2    0  501  0.63567700786E+03 -0.45034906610E+03 -0.12183523344E+04  0.17614970578E+04  0.10057782729E+04 0.  0.
    9000010    2    1    2  502    0 -0.63567700786E+03  0.45034906610E+03  0.37477588116E+03  0.13108019760E+04  0.98531483275E+03 0.  0.
        -13    1    4    4    0    0 -0.28950405861E+03 -0.75647326090E+02  0.57655196534E+03  0.64957470533E+03  0.10566000000E+00 0.  1.
          4    1    4    4  502    0 -0.34617294924E+03  0.52599639219E+03 -0.20177608418E+03  0.66122727071E+03  0.00000000000E+00 0.  1.
         13    1    3    3    0    0  0.85406879755E+03 -0.25638694792E+03 -0.11608349556E+04  0.14637983410E+04  0.10566000000E+00 0. -1.
         -4    1    3    3    0  501 -0.21839178970E+03 -0.19396211817E+03 -0.57517378889E+02  0.29769871677E+03  0.00000000000E+00 0. -1.
<mgrwt>
<rscale>  0 0.12641152E+04</rscale>
<asrwt>0</asrwt>
<pdfrwt beam="1">  1        4 0.17144020E+00 0.12560831E+04</pdfrwt>
<pdfrwt beam="2">  1       -4 0.30122119E+00 0.12721987E+04</pdfrwt>
<totfact> 0.12352221E-01</totfact>
</mgrwt>
</event>
<event>
 8    1  0.2939692E-006  0.1403002E+04  0.7818608E-02  0.8469604E-01
          4   -1    0    0  502    0  0.00000000000E+00  0.00000000000E+00  0.15620990553E+04  0.15620990553E+04  0.00000000000E+00 0.  1.
         -4   -1    0    0    0  501 -0.00000000000E+00 -0.00000000000E+00 -0.16753783344E+04  0.16753783344E+04  0.00000000000E+00 0. -1.
   -9000010    2    1    2    0  501  0.33688149507E+03  0.91495036464E+03 -0.86799508686E+03  0.16443638862E+04  0.99994690252E+03 0.  0.
    9000010    2    1    2  502    0 -0.33688149507E+03 -0.91495036464E+03  0.75471580779E+03  0.15931135036E+04  0.10088564681E+04 0.  0.
        -13    1    4    4    0    0  0.28976181979E+03 -0.65123148897E+03  0.48265289602E+03  0.86082413630E+03  0.10566000000E+00 0.  1.
          4    1    4    4  502    0 -0.62664331486E+03 -0.26371887567E+03  0.27206291177E+03  0.73228936726E+03  0.00000000000E+00 0.  1.
         13    1    3    3    0    0 -0.21891871948E+03  0.47438575466E+03 -0.76690873474E+03  0.92796350604E+03  0.10566000000E+00 0. -1.
         -4    1    3    3    0  501  0.55580021455E+03  0.44056460998E+03 -0.10108635212E+03  0.71640038013E+03  0.00000000000E+00 0. -1.
<mgrwt>
<rscale>  0 0.13998019E+04</rscale>
<asrwt>0</asrwt>
<pdfrwt beam="1">  1        4 0.24032293E+00 0.14030020E+04</pdfrwt>
<pdfrwt beam="2">  1       -4 0.25775051E+00 0.13966092E+04</pdfrwt>
<totfact> 0.10081106E-01</totfact>
</mgrwt>
</event>
<event>
 8    1  0.2939692E-006  0.1188156E+04  0.7818608E-02  0.8626597E-01
          4   -1    0    0  502    0  0.00000000000E+00  0.00000000000E+00  0.24275032697E+04  0.24275032697E+04  0.00000000000E+00 0.  1.
         -4   -1    0    0    0  501 -0.00000000000E+00 -0.00000000000E+00 -0.16198847853E+04  0.16198847853E+04  0.00000000000E+00 0. -1.
   -9000010    2    1    2    0  501 -0.30336512391E+03 -0.48309420580E+03 -0.12254671873E+04  0.17068933919E+04  0.10422594755E+04 0.  0.
    9000010    2    1    2  502    0  0.30336512391E+03  0.48309420580E+03  0.20330856717E+04  0.23404946630E+04  0.10094887365E+04 0.  0.
        -13    1    4    4    0    0 -0.20759948203E+03 -0.10380590999E+03  0.11060947572E+04  0.11301853100E+04  0.10566000000E+00 0.  1.
          4    1    4    4  502    0  0.51096460594E+03  0.58690011579E+03  0.92699091458E+03  0.12103093531E+04  0.00000000000E+00 0.  1.
         13    1    3    3    0    0 -0.16483789456E+03  0.28532007465E+03 -0.11419164723E+03  0.34873889938E+03  0.10566000000E+00 0. -1.
         -4    1    3    3    0  501 -0.13852722935E+03 -0.76841428045E+03 -0.11112755401E+04  0.13581544925E+04  0.00000000000E+00 0. -1.
<mgrwt>
<rscale>  0 0.11737489E+04</rscale>
<asrwt>0</asrwt>
<pdfrwt beam="1">  1        4 0.37346204E+00 0.11595162E+04</pdfrwt>
<pdfrwt beam="2">  1       -4 0.24921304E+00 0.11881562E+04</pdfrwt>
<totfact> 0.44989400E-02</totfact>
</mgrwt>
</event>
<event>
 8    1  0.2939692E-006  0.1090571E+04  0.7818608E-02  0.8697683E-01
         -4   -1    0    0    0  501 -0.00000000000E+00  0.00000000000E+00  0.21728503624E+04  0.21728503624E+04  0.00000000000E+00 0. -1.
          4   -1    0    0  502    0  0.00000000000E+00 -0.00000000000E+00 -0.16090590442E+04  0.16090590442E+04  0.00000000000E+00 0.  1.
   -9000010    2    1    2    0  501 -0.18280854845E+03 -0.38133811611E+03  0.18215530070E+04  0.21230640686E+04  0.10052402489E+04 0.  0.
    9000010    2    1    2  502    0  0.18280854845E+03  0.38133811611E+03 -0.12577616887E+04  0.16588453380E+04  0.99547258405E+03 0.  0.
        -13    1    4    4    0    0 -0.14468819114E+03  0.72308507976E+01 -0.11383148137E+04  0.11474962241E+04  0.10566000000E+00 0.  1.
          4    1    4    4  502    0  0.32749673959E+03  0.37410726532E+03 -0.11944687500E+03  0.51134911396E+03  0.00000000000E+00 0.  1.
         13    1    3    3    0    0 -0.31824134170E+03 -0.66889212029E+03  0.10183674872E+04  0.12592722384E+04  0.10566000000E+00 0. -1.
         -4    1    3    3    0  501  0.13543279324E+03  0.28755400418E+03  0.80318551976E+03  0.86379183022E+03  0.00000000000E+00 0. -1.
<mgrwt>
<rscale>  0 0.10860636E+04</rscale>
<asrwt>0</asrwt>
<pdfrwt beam="2">  1        4 0.24754754E+00 0.10815745E+04</pdfrwt>
<pdfrwt beam="1">  1       -4 0.33428467E+00 0.10905713E+04</pdfrwt>
<totfact> 0.62261892E-02</totfact>
</mgrwt>
</event>
<event>
 8    1  0.2939692E-006  0.1097242E+04  0.7818608E-02  0.8692890E-01
         -4   -1    0    0    0  501 -0.00000000000E+00  0.00000000000E+00  0.80050590494E+03  0.80050590494E+03  0.00000000000E+00 0. -1.
          4   -1    0    0  502    0  0.00000000000E+00 -0.00000000000E+00 -0.21736243436E+04  0.21736243436E+04  0.00000000000E+00 0.  1.
   -9000010    2    1    2    0  501  0.31216054185E+03 -0.26928693216E+03  0.14568832993E+03  0.11068715700E+04  0.10168480355E+04 0.  0.
    9000010    2    1    2  502    0 -0.31216054185E+03  0.26928693216E+03 -0.15188067686E+04  0.18672586786E+04  0.10049484149E+04 0.  0.
        -13    1    4    4    0    0  0.24350662104E+03  0.41795048826E+03 -0.48978086415E+03  0.68837736103E+03  0.10566000000E+00 0.  1.
          4    1    4    4  502    0 -0.55566716289E+03 -0.14866355610E+03 -0.10290259045E+04  0.11788813176E+04  0.00000000000E+00 0.  1.
         13    1    3    3    0    0  0.19234614858E+03  0.36488298532E+03  0.20152049983E+03  0.45907206065E+03  0.10566000000E+00 0. -1.
         -4    1    3    3    0  501  0.11981439327E+03 -0.63416991748E+03 -0.55832169903E+02  0.64779950932E+03  0.00000000000E+00 0. -1.
<mgrwt>
<rscale>  0 0.10917186E+04</rscale>
<asrwt>0</asrwt>
<pdfrwt beam="2">  1        4 0.33440375E+00 0.10862233E+04</pdfrwt>
<pdfrwt beam="1">  1       -4 0.12315475E+00 0.10972418E+04</pdfrwt>
<totfact> 0.16578492E-01</totfact>
</mgrwt>
</event>
<event>
 8    1  0.2939692E-006  0.1223846E+04  0.7818608E-02  0.8602526E-01
          4   -1    0    0  502    0  0.00000000000E+00  0.00000000000E+00  0.38172545230E+04  0.38172545230E+04  0.00000000000E+00 0.  1.
         -4   -1    0    0    0  501 -0.00000000000E+00 -0.00000000000E+00 -0.39028434697E+03  0.39028434697E+03  0.00000000000E+00 0. -1.
   -9000010    2    1    2    0  501 -0.61416200323E+03 -0.28563132998E+03  0.13585885189E+04  0.18042074759E+04  0.97499827158E+03 0.  0.
    9000010    2    1    2  502    0  0.61416200323E+03  0.28563132998E+03  0.20683816571E+04  0.24033313940E+04  0.10193227591E+04 0.  0.
        -13    1    4    4    0    0  0.68388338870E+03 -0.12026106124E+03  0.17501595723E+04  0.18828748636E+04  0.10566000000E+00 0.  1.
          4    1    4    4  502    0 -0.69721385467E+02  0.40589239122E+03  0.31822208483E+03  0.52045653047E+03  0.00000000000E+00 0.  1.
         13    1    3    3    0    0 -0.44458269476E+02 -0.25448894724E+03 -0.68517021155E+02  0.26727468145E+03  0.10566000000E+00 0. -1.
         -4    1    3    3    0  501 -0.56970373376E+03 -0.31142382736E+02  0.14271055400E+04  0.15369327944E+04  0.00000000000E+00 0. -1.
<mgrwt>
<rscale>  0 0.12053748E+04</rscale>
<asrwt>0</asrwt>
<pdfrwt beam="1">  1        4 0.58726990E+00 0.12238460E+04</pdfrwt>
<pdfrwt beam="2">  1       -4 0.60043748E-01 0.11871823E+04</pdfrwt>
<totfact> 0.50667439E-02</totfact>
</mgrwt>
</event>
<event>
 8    1  0.2939692E-006  0.1123565E+04  0.7818608E-02  0.8738310E-01
          4   -1    0    0  502    0  0.00000000000E+00  0.00000000000E+00  0.12443795770E+04  0.12443795770E+04  0.00000000000E+00 0.  1.
         -4   -1    0    0    0  501 -0.00000000000E+00 -0.00000000000E+00 -0.19436084690E+04  0.19436084690E+04  0.00000000000E+00 0. -1.
   -9000010    2    1    2    0  501  0.57469086253E+03  0.40031851938E+02 -0.15184897570E+04  0.17974532153E+04  0.77016542527E+03 0.  0.
    9000010    2    1    2  502    0 -0.57469086253E+03 -0.40031851938E+02  0.81926086500E+03  0.13905348307E+04  0.96463807402E+03 0.  0.
        -13    1    4    4    0    0 -0.70629256261E+03  0.19804906036E+03  0.27742191881E+03  0.78424202037E+03  0.10566000000E+00 0.  1.
          4    1    4    4  502    0  0.13160170008E+03 -0.23808091230E+03  0.54183894619E+03  0.60629281034E+03  0.00000000000E+00 0.  1.
         13    1    3    3    0    0  0.68590867530E+03  0.83620099527E+01 -0.15343750295E+04  0.16807282280E+04  0.10566000000E+00 0. -1.
         -4    1    3    3    0  501 -0.11121781277E+03  0.31669841985E+02  0.15885272497E+02  0.11672498726E+03  0.00000000000E+00 0. -1.
<mgrwt>
<rscale>  0 0.10395317E+04</rscale>
<asrwt>0</asrwt>
<pdfrwt beam="1">  1        4 0.19144301E+00 0.11235652E+04</pdfrwt>
<pdfrwt beam="2">  1       -4 0.29901669E+00 0.96178320E+03</pdfrwt>
<totfact> 0.10976076E-01</totfact>
</mgrwt>
</event>
<event>
 8    1  0.2939692E-006  0.1040633E+04  0.7818608E-02  0.8744732E-01
         -4   -1    0    0    0  501 -0.00000000000E+00  0.00000000000E+00  0.16402214534E+04  0.16402214534E+04  0.00000000000E+00 0. -1.
          4   -1    0    0  502    0  0.00000000000E+00 -0.00000000000E+00 -0.33399053418E+04  0.33399053418E+04  0.00000000000E+00 0.  1.
   -9000010    2    1    2    0  501  0.50007416599E+02  0.16872765700E+03  0.13861780264E+04  0.17235240018E+04  0.10089973736E+04 0.  0.
    9000010    2    1    2  502    0 -0.50007416599E+02 -0.16872765700E+03 -0.30858619148E+04  0.32566027934E+04  0.10256452762E+04 0.  0.
        -13    1    4    4    0    0  0.38195333394E+03  0.22578540925E+03 -0.10922323498E+04  0.11789142961E+04  0.10566000000E+00 0.  1.
          4    1    4    4  502    0 -0.43196075054E+03 -0.39451306625E+03 -0.19936295650E+04  0.20776884973E+04  0.00000000000E+00 0.  1.
         13    1    3    3    0    0 -0.30014353027E+01  0.47653611199E+03  0.13211744656E+04  0.14044919560E+04  0.10566000000E+00 0. -1.
         -4    1    3    3    0  501  0.53008851902E+02 -0.30780845499E+03  0.65003560790E+02  0.31903204582E+03  0.00000000000E+00 0. -1.
<mgrwt>
<rscale>  0 0.10323988E+04</rscale>
<asrwt>0</asrwt>
<pdfrwt beam="2">  1        4 0.51383159E+00 0.10406335E+04</pdfrwt>
<pdfrwt beam="1">  1       -4 0.25234176E+00 0.10242292E+04</pdfrwt>
<totfact> 0.10909222E-02</totfact>
</mgrwt>
</event>
<event>
 8    1  0.2939692E-006  0.1123237E+04  0.7818608E-02  0.8668492E-01
         -4   -1    0    0    0  501 -0.00000000000E+00  0.00000000000E+00  0.78915136818E+03  0.78915136818E+03  0.00000000000E+00 0. -1.
          4   -1    0    0  502    0  0.00000000000E+00 -0.00000000000E+00 -0.16137145145E+04  0.16137145145E+04  0.00000000000E+00 0.  1.
   -9000010    2    1    2    0  501 -0.30550020359E+03  0.40531963302E+03 -0.27564861651E+03  0.11565655016E+04  0.10020215669E+04 0.  0.
    9000010    2    1    2  502    0  0.30550020359E+03 -0.40531963302E+03 -0.54891452986E+03  0.12463003811E+04  0.99716753833E+03 0.  0.
        -13    1    4    4    0    0 -0.16528892745E+03 -0.33402875628E+03 -0.65945592234E+03  0.75748119728E+03  0.10566000000E+00 0.  1.
          4    1    4    4  502    0  0.47078913104E+03 -0.71290876742E+02  0.11054139248E+03  0.48881918381E+03  0.00000000000E+00 0.  1.
         13    1    3    3    0    0  0.18116228894E+03  0.57776984758E+03 -0.11980270276E+03  0.61724425511E+03  0.10566000000E+00 0. -1.
         -4    1    3    3    0  501 -0.48666249253E+03 -0.17245021456E+03 -0.15584591375E+03  0.53932124654E+03  0.00000000000E+00 0. -1.
<mgrwt>
<rscale>  0 0.11210710E+04</rscale>
<asrwt>0</asrwt>
<pdfrwt beam="2">  1        4 0.24826377E+00 0.11189091E+04</pdfrwt>
<pdfrwt beam="1">  1       -4 0.12140790E+00 0.11232371E+04</pdfrwt>
<totfact> 0.28462856E-01</totfact>
</mgrwt>
</event>
<event>
 8    1  0.2939692E-006  0.1465073E+04  0.7818608E-02  0.8444199E-01
         -4   -1    0    0    0  501 -0.00000000000E+00  0.00000000000E+00  0.19901162575E+04  0.19901162575E+04  0.00000000000E+00 0. -1.
          4   -1    0    0  502    0  0.00000000000E+00 -0.00000000000E+00 -0.19469173827E+04  0.19469173827E+04  0.00000000000E+00 0.  1.
   -9000010    2    1    2    0  501 -0.10181912887E+04  0.90335530321E+02  0.13619653791E+04  0.19658454953E+04  0.98220405681E+03 0.  0.
    9000010    2    1    2  502    0  0.10181912887E+04 -0.90335530321E+02 -0.13187665043E+04  0.19711881449E+04  0.10495540012E+04 0.  0.
        -13    1    4    4    0    0  0.81788697862E+03  0.30468743742E+02 -0.14771212273E+04  0.16887138850E+04  0.10566000000E+00 0.  1.
          4    1    4    4  502    0  0.20030431004E+03 -0.12080427406E+03  0.15835472295E+03  0.28247425995E+03  0.00000000000E+00 0.  1.
         13    1    3    3    0    0 -0.15631662274E+02 -0.31131548270E+03  0.47573551775E+03  0.56875827260E+03  0.10566000000E+00 0. -1.
         -4    1    3    3    0  501 -0.10025596264E+04  0.40165101302E+03  0.88622986138E+03  0.13970872227E+04  0.00000000000E+00 0. -1.
<mgrwt>
<rscale>  0 0.14411424E+04</rscale>
<asrwt>0</asrwt>
<pdfrwt beam="2">  1        4 0.29952575E+00 0.14650726E+04</pdfrwt>
<pdfrwt beam="1">  1       -4 0.30617173E+00 0.14176032E+04</pdfrwt>
<totfact> 0.53488460E-02</totfact>
</mgrwt>
</event>
<event>
 8    1  0.2939692E-006  0.1335487E+04  0.7818608E-02  0.8552612E-01
          4   -1    0    0  502    0  0.00000000000E+00  0.00000000000E+00  0.32247735168E+04  0.32247735168E+04  0.00000000000E+00 0.  1.
         -4   -1    0    0    0  501 -0.00000000000E+00 -0.00000000000E+00 -0.20741983039E+04  0.20741983039E+04  0.00000000000E+00 0. -1.
   -9000010    2    1    2    0  501 -0.53235547998E+03 -0.37296414881E+03 -0.17353921068E+04  0.21189823299E+04  0.10276165319E+04 0.  0.
    9000010    2    1    2  502    0  0.53235547998E+03  0.37296414881E+03  0.28859673196E+04  0.31799894908E+04  0.11666281236E+04 0.  0.
        -13    1    4    4    0    0  0.34395801055E+03  0.18814854028E+03  0.13240570790E+03  0.41380945963E+03  0.10566000000E+00 0.  1.
          4    1    4    4  502    0  0.18839746943E+03  0.18481560854E+03  0.27535616117E+04  0.27661800312E+04  0.00000000000E+00 0.  1.
         13    1    3    3    0    0  0.21004754081E+03 -0.42203918940E+03 -0.70262847199E+03  0.84612282064E+03  0.10566000000E+00 0. -1.
         -4    1    3    3    0  501 -0.74240302079E+03  0.49075040586E+02 -0.10327636348E+04  0.12728595092E+04  0.00000000000E+00 0. -1.
<mgrwt>
<rscale>  0 0.12743103E+04</rscale>
<asrwt>0</asrwt>
<pdfrwt beam="1">  1        4 0.49611901E+00 0.13354871E+04</pdfrwt>
<pdfrwt beam="2">  1       -4 0.31910743E+00 0.12159360E+04</pdfrwt>
<totfact> 0.85291298E-03</totfact>
</mgrwt>
</event>
<event>
 8    1  0.2939692E-006  0.1250018E+04  0.7818608E-02  0.8578938E-01
         -4   -1    0    0    0  501 -0.00000000000E+00  0.00000000000E+00  0.27011137200E+04  0.27011137200E+04  0.00000000000E+00 0. -1.
          4   -1    0    0  502    0  0.00000000000E+00 -0.00000000000E+00 -0.20463221174E+04  0.20463221174E+04  0.00000000000E+00 0.  1.
   -9000010    2    1    2    0  501 -0.50360331203E+03  0.53309590314E+03  0.23466029584E+04  0.26587763084E+04  0.10122936708E+04 0.  0.
    9000010    2    1    2  502    0  0.50360331203E+03 -0.53309590314E+03 -0.16918113557E+04  0.20886595290E+04  0.98105322334E+03 0.  0.
        -13    1    4    4    0    0  0.24571039648E+03 -0.72899756267E+03 -0.15592890676E+04  0.17387332897E+04  0.10566000000E+00 0.  1.
          4    1    4    4  502    0  0.25789291555E+03  0.19590165952E+03 -0.13252228810E+03  0.34992623928E+03  0.00000000000E+00 0.  1.
         13    1    3    3    0    0 -0.57223483153E+03 -0.25293001722E+02  0.62589256032E+03  0.84843028387E+03  0.10566000000E+00 0. -1.
         -4    1    3    3    0  501  0.68631519509E+02  0.55838890487E+03  0.17207103981E+04  0.18103460245E+04  0.00000000000E+00 0. -1.
<mgrwt>
<rscale>  0 0.12373734E+04</rscale>
<asrwt>0</asrwt>
<pdfrwt beam="2">  1        4 0.31481879E+00 0.12248563E+04</pdfrwt>
<pdfrwt beam="1">  1       -4 0.41555596E+00 0.12500184E+04</pdfrwt>
<totfact> 0.20694574E-02</totfact>
</mgrwt>
</event>
<event>
 8    1  0.2939692E-006  0.1216921E+04  0.7818608E-02  0.8607088E-01
          4   -1    0    0  502    0  0.00000000000E+00  0.00000000000E+00  0.13007162042E+04  0.13007162042E+04  0.00000000000E+00 0.  1.
         -4   -1    0    0    0  501 -0.00000000000E+00 -0.00000000000E+00 -0.20590718015E+04  0.20590718015E+04  0.00000000000E+00 0. -1.
   -9000010    2    1    2    0  501  0.57752809105E+03  0.32631407019E+03 -0.15249668853E+04  0.19510049727E+04  0.10202337154E+04 0.  0.
    9000010    2    1    2  502    0 -0.57752809105E+03 -0.32631407019E+03  0.76661128801E+03  0.14087830330E+04  0.97824189184E+03 0.  0.
        -13    1    4    4    0    0  0.13528805756E+03 -0.54616771976E+02 -0.15470142597E+03  0.21264616776E+03  0.10566000000E+00 0.  1.
          4    1    4    4  502    0 -0.71281614861E+03 -0.27169729821E+03  0.92131271398E+03  0.11961368653E+04  0.00000000000E+00 0.  1.
         13    1    3    3    0    0  0.40108697680E+03 -0.23443902460E+03 -0.11829207727E+04  0.12708792172E+04  0.10566000000E+00 0. -1.
         -4    1    3    3    0  501  0.17644111425E+03  0.56075309479E+03 -0.34204611261E+03  0.68012575548E+03  0.00000000000E+00 0. -1.
<mgrwt>
<rscale>  0 0.11993017E+04</rscale>
<asrwt>0</asrwt>
<pdfrwt beam="1">  1        4 0.20011018E+00 0.11819377E+04</pdfrwt>
<pdfrwt beam="2">  1       -4 0.31678028E+00 0.12169209E+04</pdfrwt>
<totfact> 0.91086813E-02</totfact>
</mgrwt>
</event>
<event>
 8    1  0.2939692E-006  0.1131692E+04  0.7818608E-02  0.8661939E-01
          4   -1    0    0  502    0  0.00000000000E+00  0.00000000000E+00  0.15403970871E+04  0.15403970871E+04  0.00000000000E+00 0.  1.
         -4   -1    0    0    0  501 -0.00000000000E+00 -0.00000000000E+00 -0.20877180969E+04  0.20877180969E+04  0.00000000000E+00 0. -1.
   -9000010    2    1    2    0  501 -0.50750973405E+03 -0.11768619625E+03 -0.16827382154E+04  0.20250244965E+04  0.99884940760E+03 0.  0.
    9000010    2    1    2  502    0  0.50750973405E+03  0.11768619625E+03  0.11354172056E+04  0.16030906875E+04  0.10046448878E+04 0.  0.
        -13    1    4    4    0    0 -0.13895883424E+03 -0.22327941387E+03  0.71064012107E+03  0.75774180768E+03  0.10566000000E+00 0.  1.
          4    1    4    4  502    0  0.64646856829E+03  0.34096561012E+03  0.42477708455E+03  0.84534887983E+03  0.00000000000E+00 0.  1.
         13    1    3    3    0    0 -0.28243388404E+03 -0.86771155855E+02 -0.17603277817E+04  0.17849515518E+04  0.10566000000E+00 0. -1.
         -4    1    3    3    0  501 -0.22507585000E+03 -0.30915040392E+02  0.77589566272E+02  0.24007294469E+03  0.00000000000E+00 0. -1.
<mgrwt>
<rscale>  0 0.11291185E+04</rscale>
<asrwt>0</asrwt>
<pdfrwt beam="1">  1        4 0.23698417E+00 0.11316923E+04</pdfrwt>
<pdfrwt beam="2">  1       -4 0.32118740E+00 0.11265506E+04</pdfrwt>
<totfact> 0.71568689E-02</totfact>
</mgrwt>
</event>
<event>
 8    1  0.2939692E-006  0.1289112E+04  0.7818608E-02  0.8544759E-01
         -4   -1    0    0    0  501 -0.00000000000E+00  0.00000000000E+00  0.18866406122E+04  0.18866406122E+04  0.00000000000E+00 0. -1.
          4   -1    0    0  502    0  0.00000000000E+00 -0.00000000000E+00 -0.28150011179E+04  0.28150011179E+04  0.00000000000E+00 0.  1.
   -9000010    2    1    2    0  501 -0.67442622020E+03 -0.43565939444E+03  0.14864639688E+04  0.19675833295E+04  0.10085431046E+04 0.  0.
    9000010    2    1    2  502    0  0.67442622020E+03  0.43565939444E+03 -0.24148244745E+04  0.27340584006E+04  0.99952401711E+03 0.  0.
        -13    1    4    4    0    0  0.22501065035E+03  0.68051018779E+03 -0.17782565381E+04  0.19172689521E+04  0.10566000000E+00 0.  1.
          4    1    4    4  502    0  0.44941556985E+03 -0.24485079336E+03 -0.63656793643E+03  0.81678944847E+03  0.00000000000E+00 0.  1.
         13    1    3    3    0    0 -0.37278248210E+03  0.13809856912E+03  0.11902643768E+04  0.12548973231E+04  0.10566000000E+00 0. -1.
         -4    1    3    3    0  501 -0.30164373809E+03 -0.57375796355E+03  0.29619959198E+03  0.71268600643E+03  0.00000000000E+00 0. -1.
<mgrwt>
<rscale>  0 0.12855850E+04</rscale>
<asrwt>0</asrwt>
<pdfrwt beam="2">  1        4 0.43307709E+00 0.12820679E+04</pdfrwt>
<pdfrwt beam="1">  1       -4 0.29025240E+00 0.12891117E+04</pdfrwt>
<totfact> 0.20226807E-02</totfact>
</mgrwt>
</event>
<event>
 8    1  0.2939692E-006  0.1967175E+04  0.7818608E-02  0.8182142E-01
          4   -1    0    0  502    0  0.00000000000E+00  0.00000000000E+00  0.20166274645E+04  0.20166274645E+04  0.00000000000E+00 0.  1.
         -4   -1    0    0    0  501 -0.00000000000E+00 -0.00000000000E+00 -0.42413506788E+04  0.42413506788E+04  0.00000000000E+00 0. -1.
   -9000010    2    1    2    0  501  0.14963593410E+04 -0.80103403627E+03 -0.34281763930E+04  0.39518822875E+04  0.99208539382E+03 0.  0.
    9000010    2    1    2  502    0 -0.14963593410E+04  0.80103403627E+03  0.12034531786E+04  0.23060958558E+04  0.99450074831E+03 0.  0.
        -13    1    4    4    0    0  0.13639817961E+03 -0.17938980100E+01  0.25960756715E+02  0.13885839379E+03  0.10566000000E+00 0.  1.
          4    1    4    4  502    0 -0.16327575206E+04  0.80282793428E+03  0.11774924219E+04  0.21672374620E+04  0.00000000000E+00 0.  1.
         13    1    3    3    0    0  0.31172527006E+03 -0.13993050486E+03 -0.18021063578E+04  0.18342138715E+04  0.10566000000E+00 0. -1.
         -4    1    3    3    0  501  0.11846340709E+04 -0.66110353141E+03 -0.16260700351E+04  0.21176684160E+04  0.00000000000E+00 0. -1.
<mgrwt>
<rscale>  0 0.19665652E+04</rscale>
<asrwt>0</asrwt>
<pdfrwt beam="1">  1        4 0.31025038E+00 0.19671753E+04</pdfrwt>
<pdfrwt beam="2">  1       -4 0.65251549E+00 0.19659553E+04</pdfrwt>
<totfact> 0.12806132E-03</totfact>
</mgrwt>
</event>
<event>
 8    1  0.2939692E-006  0.1662192E+04  0.7818608E-02  0.8340276E-01
          4   -1    0    0  502    0  0.00000000000E+00  0.00000000000E+00  0.31293023339E+04  0.31293023339E+04  0.00000000000E+00 0.  1.
         -4   -1    0    0    0  501 -0.00000000000E+00 -0.00000000000E+00 -0.15546013136E+04  0.15546013136E+04  0.00000000000E+00 0. -1.
   -9000010    2    1    2    0  501 -0.10973661506E+04 -0.74257290527E+03 -0.78464199585E+03  0.18380816912E+04  0.10036205726E+04 0.  0.
    9000010    2    1    2  502    0  0.10973661506E+04  0.74257290527E+03  0.23593430161E+04  0.28458219563E+04  0.88123558212E+03 0.  0.
        -13    1    4    4    0    0 -0.14520182483E+03  0.12928024460E+03  0.19104609193E+03  0.27257214088E+03  0.10566000000E+00 0.  1.
          4    1    4    4  502    0  0.12425679754E+04  0.61329266067E+03  0.21682969242E+04  0.25732498154E+04  0.00000000000E+00 0.  1.
         13    1    3    3    0    0 -0.84621925333E+03 -0.47756318400E+03  0.10764165604E+01  0.97167627801E+03  0.10566000000E+00 0. -1.
         -4    1    3    3    0  501 -0.25114689724E+03 -0.26500972127E+03 -0.78571841241E+03  0.86640541317E+03  0.00000000000E+00 0. -1.
<mgrwt>
<rscale>  0 0.16263544E+04</rscale>
<asrwt>0</asrwt>
<pdfrwt beam="1">  1        4 0.48143113E+00 0.15912898E+04</pdfrwt>
<pdfrwt beam="2">  1       -4 0.23916943E+00 0.16621917E+04</pdfrwt>
<totfact> 0.15466097E-02</totfact>
</mgrwt>
</event>
<event>
 8    1  0.2939692E-006  0.1172263E+04  0.7818608E-02  0.8658802E-01
          4   -1    0    0  502    0  0.00000000000E+00  0.00000000000E+00  0.10650812554E+04  0.10650812554E+04  0.00000000000E+00 0.  1.
         -4   -1    0    0    0  501 -0.00000000000E+00 -0.00000000000E+00 -0.22554028174E+04  0.22554028174E+04  0.00000000000E+00 0. -1.
   -9000010    2    1    2    0  501  0.32619631975E+03 -0.47241479859E+03 -0.17160995624E+04  0.20357106272E+04  0.93249143089E+03 0.  0.
    9000010    2    1    2  502    0 -0.32619631975E+03  0.47241479859E+03  0.52577800042E+03  0.12847734455E+04  0.10220667883E+04 0.  0.
        -13    1    4    4    0    0  0.10233967414E+03  0.18331190113E+03  0.70659537003E+03  0.73712528794E+03  0.10566000000E+00 0.  1.
          4    1    4    4  502    0 -0.42853599390E+03  0.28910289746E+03 -0.18081736961E+03  0.54764815761E+03  0.00000000000E+00 0.  1.
         13    1    3    3    0    0  0.24121443372E+03 -0.75201672144E+03 -0.13828530571E+04  0.15924811274E+04  0.10566000000E+00 0. -1.
         -4    1    3    3    0  501  0.84981886035E+02  0.27960192285E+03 -0.33324650530E+03  0.44322949982E+03  0.00000000000E+00 0. -1.
<mgrwt>
<rscale>  0 0.11329955E+04</rscale>
<asrwt>0</asrwt>
<pdfrwt beam="1">  1        4 0.16385866E+00 0.11722629E+04</pdfrwt>
<pdfrwt beam="2">  1       -4 0.34698505E+00 0.10950434E+04</pdfrwt>
<totfact> 0.98266273E-02</totfact>
</mgrwt>
</event>
<event>
 8    1  0.2939692E-006  0.1012388E+04  0.7818608E-02  0.8764895E-01
          4   -1    0    0  502    0  0.00000000000E+00  0.00000000000E+00  0.24856568515E+04  0.24856568515E+04  0.00000000000E+00 0.  1.
         -4   -1    0    0    0  501 -0.00000000000E+00 -0.00000000000E+00 -0.63357861047E+03  0.63357861047E+03  0.00000000000E+00 0. -1.
   -9000010    2    1    2    0  501  0.15222309998E+03 -0.10644650172E+02 -0.15346739468E+00  0.10083842865E+04  0.99677162131E+03 0.  0.
    9000010    2    1    2  502    0 -0.15222309998E+03  0.10644650172E+02  0.18522317084E+04  0.21108511754E+04  0.10008222631E+04 0.  0.
        -13    1    4    4    0    0 -0.27532032989E+03 -0.12816280759E+02  0.19389612349E+04  0.19584525072E+04  0.10566000000E+00 0.  1.
          4    1    4    4  502    0  0.12309722991E+03  0.23460930931E+02 -0.86729526571E+02  0.15239866820E+03  0.00000000000E+00 0.  1.
         13    1    3    3    0    0  0.39303676965E+03  0.36141371160E+03 -0.12411945260E+03  0.54818192501E+03  0.10566000000E+00 0. -1.
         -4    1    3    3    0  501 -0.24081366967E+03 -0.37205836178E+03  0.12396598521E+03  0.46020236153E+03  0.00000000000E+00 0. -1.
<mgrwt>
<rscale>  0 0.10103844E+04</rscale>
<asrwt>0</asrwt>
<pdfrwt beam="1">  1        4 0.38240874E+00 0.10123885E+04</pdfrwt>
<pdfrwt beam="2">  1       -4 0.97473634E-01 0.10083843E+04</pdfrwt>
<totfact> 0.17311302E-01</totfact>
</mgrwt>
</event>
<event>
 8    1  0.2939692E-006  0.1117358E+04  0.7818608E-02  0.8692283E-01
         -4   -1    0    0    0  501 -0.00000000000E+00  0.00000000000E+00  0.29249857152E+04  0.29249857152E+04  0.00000000000E+00 0. -1.
          4   -1    0    0  502    0  0.00000000000E+00 -0.00000000000E+00 -0.10385263212E+04  0.10385263212E+04  0.00000000000E+00 0.  1.
   -9000010    2    1    2    0  501 -0.40363397643E+03 -0.33114128694E+02  0.24953333901E+04  0.27340770756E+04  0.10413797556E+04 0.  0.
    9000010    2    1    2  502    0  0.40363397643E+03  0.33114128694E+02 -0.60887399602E+03  0.12294349607E+04  0.98831464989E+03 0.  0.
        -13    1    4    4    0    0  0.30368417394E+03 -0.19156324614E+03 -0.82645925148E+03  0.90108571196E+03  0.10566000000E+00 0.  1.
          4    1    4    4  502    0  0.99949802490E+02  0.22467737484E+03  0.21758525546E+03  0.32834924878E+03  0.00000000000E+00 0.  1.
         13    1    3    3    0    0 -0.39808205773E+03  0.46131089893E+03  0.11630414796E+04  0.13129899332E+04  0.10566000000E+00 0. -1.
         -4    1    3    3    0  501 -0.55519186984E+01 -0.49442502762E+03  0.13322919105E+04  0.14210871424E+04  0.00000000000E+00 0. -1.
<mgrwt>
<rscale>  0 0.10924382E+04</rscale>
<asrwt>0</asrwt>
<pdfrwt beam="2">  1        4 0.15977328E+00 0.10680743E+04</pdfrwt>
<pdfrwt beam="1">  1       -4 0.44999780E+00 0.11173579E+04</pdfrwt>
<totfact> 0.39496924E-02</totfact>
</mgrwt>
</event>
<event>
 8    1  0.2939692E-006  0.1309042E+04  0.7818608E-02  0.8530175E-01
          4   -1    0    0  502    0  0.00000000000E+00  0.00000000000E+00  0.70641124746E+03  0.70641124746E+03  0.00000000000E+00 0.  1.
         -4   -1    0    0    0  501 -0.00000000000E+00 -0.00000000000E+00 -0.33552921510E+04  0.33552921510E+04  0.00000000000E+00 0. -1.
   -9000010    2    1    2    0  501 -0.69020543860E+03 -0.49807121527E+03 -0.23964144625E+04  0.27285378214E+04  0.98876583856E+03 0.  0.
    9000010    2    1    2  502    0  0.69020543860E+03  0.49807121527E+03 -0.25246644096E+03  0.13331655770E+04  0.99455149139E+03 0.  0.
        -13    1    4    4    0    0 -0.97620201841E+01 -0.15547116980E+03 -0.33754297516E+03  0.37175509805E+03  0.10566000000E+00 0.  1.
          4    1    4    4  502    0  0.69996745879E+03  0.65354238508E+03  0.85076534199E+02  0.96141047899E+03  0.00000000000E+00 0.  1.
         13    1    3    3    0    0 -0.66651255924E+02 -0.11784829543E+03 -0.17439625298E+04  0.17492100867E+04  0.10566000000E+00 0. -1.
         -4    1    3    3    0  501 -0.62355418268E+03 -0.38022291985E+03 -0.65245193271E+03  0.97932773472E+03  0.00000000000E+00 0. -1.
<mgrwt>
<rscale>  0 0.13068451E+04</rscale>
<asrwt>0</asrwt>
<pdfrwt beam="1">  1        4 0.10867865E+00 0.13090421E+04</pdfrwt>
<pdfrwt beam="2">  1       -4 0.51619879E+00 0.13046518E+04</pdfrwt>
<totfact> 0.35093157E-02</totfact>
</mgrwt>
</event>
<event>
 8    1  0.2939692E-006  0.1036603E+04  0.7818608E-02  0.8755198E-01
          4   -1    0    0  502    0  0.00000000000E+00  0.00000000000E+00  0.23609882137E+04  0.23609882137E+04  0.00000000000E+00 0.  1.
         -4   -1    0    0    0  501 -0.00000000000E+00 -0.00000000000E+00 -0.30096297200E+04  0.30096297200E+04  0.00000000000E+00 0. -1.
   -9000010    2    1    2    0  501  0.82621303319E+02 -0.25897449071E+03 -0.28055232030E+04  0.29909039764E+04  0.10003259902E+04 0.  0.
    9000010    2    1    2  502    0 -0.82621303319E+02  0.25897449071E+03  0.21568816967E+04  0.23797139573E+04  0.96799059836E+03 0.  0.
        -13    1    4    4    0    0 -0.21054491417E+03  0.55075914761E+02  0.84008431295E+01  0.21779141994E+03  0.10566000000E+00 0.  1.
          4    1    4    4  502    0  0.12792361085E+03  0.20389857594E+03  0.21484808536E+04  0.21619225374E+04  0.00000000000E+00 0.  1.
         13    1    3    3    0    0  0.31010902098E+03  0.16603234092E+03 -0.37949670206E+03  0.51744767964E+03  0.10566000000E+00 0. -1.
         -4    1    3    3    0  501 -0.22748771766E+03 -0.42500683163E+03 -0.24260265009E+04  0.24734562967E+04  0.00000000000E+00 0. -1.
<mgrwt>
<rscale>  0 0.10209002E+04</rscale>
<asrwt>0</asrwt>
<pdfrwt beam="1">  1        4 0.36322896E+00 0.10054352E+04</pdfrwt>
<pdfrwt beam="2">  1       -4 0.46301996E+00 0.10366032E+04</pdfrwt>
<totfact> 0.92572999E-03</totfact>
</mgrwt>
</event>
<event>
 8    1  0.2939692E-006  0.1904336E+04  0.7818608E-02  0.8209587E-01
          4   -1    0    0  502    0  0.00000000000E+00  0.00000000000E+00  0.12061780372E+04  0.12061780372E+04  0.00000000000E+00 0.  1.
         -4   -1    0    0    0  501 -0.00000000000E+00 -0.00000000000E+00 -0.30565877272E+04  0.30565877272E+04  0.00000000000E+00 0. -1.
   -9000010    2    1    2    0  501 -0.16026859908E+04  0.20359499693E+03 -0.12175313724E+04  0.22560198048E+04  0.99859371570E+03 0.  0.
    9000010    2    1    2  502    0  0.16026859908E+04 -0.20359499693E+03 -0.63287831774E+03  0.20067459596E+04  0.10081870230E+04 0.  0.
        -13    1    4    4    0    0  0.55231660407E+03 -0.38194810823E+03  0.14573788482E+03  0.68715175234E+03  0.10566000000E+00 0.  1.
          4    1    4    4  502    0  0.10503693868E+04  0.17835311131E+03 -0.77861620256E+03  0.13195942073E+04  0.00000000000E+00 0.  1.
         13    1    3    3    0    0 -0.13841326285E+03 -0.31393023811E+03 -0.27161940726E+03  0.43759289219E+03  0.10566000000E+00 0. -1.
         -4    1    3    3    0  501 -0.14642727280E+04  0.51752523504E+03 -0.94591196509E+03  0.18184269126E+04  0.00000000000E+00 0. -1.
<mgrwt>
<rscale>  0 0.19018033E+04</rscale>
<asrwt>0</asrwt>
<pdfrwt beam="1">  1        4 0.18556585E+00 0.19043357E+04</pdfrwt>
<pdfrwt beam="2">  1       -4 0.47024426E+00 0.18992743E+04</pdfrwt>
<totfact> 0.23907773E-02</totfact>
</mgrwt>
</event>
<event>
 8    1  0.2939692E-006  0.1028788E+04  0.7818608E-02  0.8767713E-01
          4   -1    0    0  502    0  0.00000000000E+00  0.00000000000E+00  0.21755127835E+04  0.21755127835E+04  0.00000000000E+00 0.  1.
         -4   -1    0    0    0  501 -0.00000000000E+00 -0.00000000000E+00 -0.14272137497E+04  0.14272137497E+04  0.00000000000E+00 0. -1.
   -9000010    2    1    2    0  501  0.67787167974E+02 -0.22650417842E+03 -0.11009795313E+04  0.15068378114E+04  0.10012517258E+04 0.  0.
    9000010    2    1    2  502    0 -0.67787167974E+02  0.22650417842E+03  0.18492785651E+04  0.20958887218E+04  0.95761113176E+03 0.  0.
        -13    1    4    4    0    0 -0.27482804186E+03  0.41720680492E+03  0.17106681646E+04  0.17821272545E+04  0.10566000000E+00 0.  1.
          4    1    4    4  502    0  0.20704087388E+03 -0.19070262650E+03  0.13861040050E+03  0.31376146726E+03  0.00000000000E+00 0.  1.
         13    1    3    3    0    0  0.28035311213E+02 -0.13396046309E+03 -0.12875568088E+04  0.12948103843E+04  0.10566000000E+00 0. -1.
         -4    1    3    3    0  501  0.39751856761E+02 -0.92543715332E+02  0.18657727747E+03  0.21202742707E+03  0.00000000000E+00 0. -1.
<mgrwt>
<rscale>  0 0.10073537E+04</rscale>
<asrwt>0</asrwt>
<pdfrwt beam="1">  1        4 0.33469427E+00 0.98636622E+03</pdfrwt>
<pdfrwt beam="2">  1       -4 0.21957135E+00 0.10287878E+04</pdfrwt>
<totfact> 0.73328095E-02</totfact>
</mgrwt>
</event>
<event>
 8    1  0.2939692E-006  0.1649943E+04  0.7818608E-02  0.8347338E-01
          4   -1    0    0  502    0  0.00000000000E+00  0.00000000000E+00  0.41897035250E+04  0.41897035250E+04  0.00000000000E+00 0.  1.
         -4   -1    0    0    0  501 -0.00000000000E+00 -0.00000000000E+00 -0.15291601737E+04  0.15291601737E+04  0.00000000000E+00 0. -1.
   -9000010    2    1    2    0  501 -0.88467321767E+03 -0.85107728174E+03 -0.86055874018E+03  0.18608797104E+04  0.11024212941E+04 0.  0.
    9000010    2    1    2  502    0  0.88467321767E+03  0.85107728174E+03  0.35211020915E+04  0.38579839883E+04  0.98939439738E+03 0.  0.
        -13    1    4    4    0    0  0.95029853263E+03  0.30243558878E+03  0.25887657297E+04  0.27742102662E+04  0.10566000000E+00 0.  1.
          4    1    4    4  502    0 -0.65625314963E+02  0.54864169296E+03  0.93233636176E+03  0.10837737221E+04  0.00000000000E+00 0.  1.
         13    1    3    3    0    0 -0.47091228647E+03  0.18115672363E+03 -0.44800913885E+03  0.67475057593E+03  0.10566000000E+00 0. -1.
         -4    1    3    3    0  501 -0.41376093120E+03 -0.10322340054E+04 -0.41254960133E+03  0.11861291344E+04  0.00000000000E+00 0. -1.
<mgrwt>
<rscale>  0 0.16128892E+04</rscale>
<asrwt>0</asrwt>
<pdfrwt beam="1">  1        4 0.64456977E+00 0.15766675E+04</pdfrwt>
<pdfrwt beam="2">  1       -4 0.23525541E+00 0.16499430E+04</pdfrwt>
<totfact> 0.23033844E-03</totfact>
</mgrwt>
</event>
<event>
 8    1  0.2939692E-006  0.1126353E+04  0.7818608E-02  0.8674688E-01
         -4   -1    0    0    0  501 -0.00000000000E+00  0.00000000000E+00  0.38807310637E+04  0.38807310637E+04  0.00000000000E+00 0.  1.
          4   -1    0    0  502    0  0.00000000000E+00 -0.00000000000E+00 -0.32051507602E+03  0.32051507602E+03  0.00000000000E+00 0. -1.
   -9000010    2    1    2    0  501 -0.24983878329E+03  0.36598962179E+03  0.18747696029E+04  0.21740803137E+04  0.10077183762E+04 0.  0.
    9000010    2    1    2  502    0  0.24983878329E+03 -0.36598962179E+03  0.16854463848E+04  0.20271658260E+04  0.10355211003E+04 0.  0.
        -13    1    4    4    0    0 -0.22148824913E+03 -0.40654524734E+03  0.27268026817E+03  0.53729937879E+03  0.10566000000E+00 0.  1.
          4    1    4    4  502    0  0.47132703242E+03  0.40555625548E+02  0.14127661166E+04  0.14898664472E+04  0.00000000000E+00 0.  1.
         13    1    3    3    0    0  0.31373575608E+03 -0.13903734311E+03  0.62700952529E+03  0.71477441434E+03  0.10566000000E+00 0. -1.
         -4    1    3    3    0  501 -0.56357453937E+03  0.50502696489E+03  0.12477600776E+04  0.14593058994E+04  0.00000000000E+00 0. -1.
<mgrwt>
<rscale>  0 0.11135271E+04</rscale>
<asrwt>0</asrwt>
<pdfrwt beam="2">  1        4 0.49310014E-01 0.11263533E+04</pdfrwt>
<pdfrwt beam="1">  1       -4 0.59703551E+00 0.11008470E+04</pdfrwt>
<totfact> 0.69342364E-02</totfact>
</mgrwt>
</event>
<event>
 8    1  0.2939692E-006  0.1070748E+04  0.7818608E-02  0.8733914E-01
         -4   -1    0    0    0  501 -0.00000000000E+00  0.00000000000E+00  0.31485298771E+04  0.31485298771E+04  0.00000000000E+00 0. -1.
          4   -1    0    0  502    0  0.00000000000E+00 -0.00000000000E+00 -0.38402341241E+04  0.38402341241E+04  0.00000000000E+00 0.  1.
   -9000010    2    1    2    0  501 -0.23084423026E+03 -0.31038853964E+02  0.29877519340E+04  0.31566759470E+04  0.99181094294E+03 0.  0.
    9000010    2    1    2  502    0  0.23084423026E+03  0.31038853964E+02 -0.36794561810E+04  0.38320880542E+04  0.10451069793E+04 0.  0.
        -13    1    4    4    0    0  0.54190488823E+03 -0.88573066592E-01 -0.32819193980E+04  0.33263577471E+04  0.10566000000E+00 0.  1.
          4    1    4    4  502    0 -0.31106065797E+03  0.31127427030E+02 -0.39753678300E+03  0.50573030707E+03  0.00000000000E+00 0.  1.
         13    1    3    3    0    0 -0.38623086729E+03  0.15325691176E+03  0.46973568239E+03  0.62714718075E+03  0.10566000000E+00 0. -1.
         -4    1    3    3    0  501  0.15538663703E+03 -0.18429576572E+03  0.25180162516E+04  0.25295287663E+04  0.00000000000E+00 0. -1.
<mgrwt>
<rscale>  0 0.10444480E+04</rscale>
<asrwt>0</asrwt>
<pdfrwt beam="2">  1        4 0.59080525E+00 0.10707479E+04</pdfrwt>
<pdfrwt beam="1">  1       -4 0.48438921E+00 0.10187941E+04</pdfrwt>
<totfact> 0.65699967E-04</totfact>
</mgrwt>
</event>
<event>
 8    1  0.2939692E-006  0.2028693E+04  0.7818608E-02  0.8157822E-01
         -4   -1    0    0    0  501 -0.00000000000E+00  0.00000000000E+00  0.28188884660E+04  0.28188884660E+04  0.00000000000E+00 0. -1.
          4   -1    0    0  502    0  0.00000000000E+00 -0.00000000000E+00 -0.20612060790E+04  0.20612060790E+04  0.00000000000E+00 0.  1.
   -9000010    2    1    2    0  501 -0.14262679728E+04  0.10294958751E+04  0.17009463264E+04  0.26474166327E+04  0.10106900290E+04 0.  0.
    9000010    2    1    2  502    0  0.14262679728E+04 -0.10294958751E+04 -0.94326393931E+03  0.22326779123E+04  0.10005007316E+04 0.  0.
        -13    1    4    4    0    0  0.32084909912E+03  0.81030312591E+02 -0.50826942066E+03  0.60650463404E+03  0.10566000000E+00 0.  1.
          4    1    4    4  502    0  0.11054188737E+04 -0.11105261877E+04 -0.43499451865E+03  0.16261732783E+04  0.00000000000E+00 0.  1.
         13    1    3    3    0    0 -0.10478164014E+04  0.29331806710E+03  0.52182735785E+03  0.12067553613E+04  0.10566000000E+00 0. -1.
         -4    1    3    3    0  501 -0.37845157141E+03  0.73617780797E+03  0.11791189685E+04  0.14406612713E+04  0.00000000000E+00 0. -1.
<mgrwt>
<rscale>  0 0.20261632E+04</rscale>
<asrwt>0</asrwt>
<pdfrwt beam="2">  1        4 0.31710863E+00 0.20236363E+04</pdfrwt>
<pdfrwt beam="1">  1       -4 0.43367515E+00 0.20286933E+04</pdfrwt>
<totfact> 0.15637854E-02</totfact>
</mgrwt>
</event>
<event>
 8    1  0.2939692E-006  0.1192586E+04  0.7818608E-02  0.8613509E-01
          4   -1    0    0  502    0  0.00000000000E+00  0.00000000000E+00  0.27770507673E+04  0.27770507673E+04  0.00000000000E+00 0.  1.
         -4   -1    0    0    0  501 -0.00000000000E+00 -0.00000000000E+00 -0.14193251266E+04  0.14193251266E+04  0.00000000000E+00 0. -1.
   -9000010    2    1    2    0  501 -0.65106464506E+03  0.20756546556E+03 -0.99962523750E+03  0.15561210409E+04  0.97739116216E+03 0.  0.
    9000010    2    1    2  502    0  0.65106464506E+03 -0.20756546556E+03  0.23573508782E+04  0.26402548530E+04  0.97307447369E+03 0.  0.
        -13    1    4    4    0    0  0.82640759194E+03  0.87607675424E+02  0.14675105677E+04  0.16864791402E+04  0.10566000000E+00 0.  1.
          4    1    4    4  502    0 -0.17534294688E+03 -0.29517314098E+03  0.88984031053E+03  0.95377571285E+03  0.00000000000E+00 0.  1.
         13    1    3    3    0    0 -0.35134488357E+02  0.47441475156E+03 -0.63125658502E+03  0.79043575075E+03  0.10566000000E+00 0. -1.
         -4    1    3    3    0  501 -0.61593015671E+03 -0.26684928601E+03 -0.36836865248E+03  0.76568529012E+03  0.00000000000E+00 0. -1.
<mgrwt>
<rscale>  0 0.11908174E+04</rscale>
<asrwt>0</asrwt>
<pdfrwt beam="1">  1        4 0.42723858E+00 0.11890511E+04</pdfrwt>
<pdfrwt beam="2">  1       -4 0.21835771E+00 0.11925863E+04</pdfrwt>
<totfact> 0.32618900E-02</totfact>
</mgrwt>
</event>
<event>
 8    1  0.2939692E-006  0.1104210E+04  0.7818608E-02  0.8698469E-01
          4   -1    0    0  502    0  0.00000000000E+00  0.00000000000E+00  0.21705066156E+04  0.21705066156E+04  0.00000000000E+00 0.  1.
         -4   -1    0    0    0  501 -0.00000000000E+00 -0.00000000000E+00 -0.31864296688E+04  0.31864296688E+04  0.00000000000E+00 0. -1.
   -9000010    2    1    2    0  501 -0.35714238771E+03  0.13516770002E+03 -0.29461379939E+04  0.31331986001E+04  0.99568237734E+03 0.  0.
    9000010    2    1    2  502    0  0.35714238771E+03 -0.13516770002E+03  0.19302149406E+04  0.22237376843E+04  0.10360784621E+04 0.  0.
        -13    1    4    4    0    0 -0.11316177215E+03 -0.45783822740E+03  0.51712492495E+03  0.69988543942E+03  0.10566000000E+00 0.  1.
          4    1    4    4  502    0  0.47030415986E+03  0.32267052737E+03  0.14130900156E+04  0.15238522449E+04  0.00000000000E+00 0.  1.
         13    1    3    3    0    0  0.13784700665E+02  0.34459603607E+03 -0.31269082372E+03  0.46552337047E+03  0.10566000000E+00 0. -1.
         -4    1    3    3    0  501 -0.37092708838E+03 -0.20942833605E+03 -0.26334471701E+04  0.26676752296E+04  0.00000000000E+00 0. -1.
<mgrwt>
<rscale>  0 0.10851392E+04</rscale>
<asrwt>0</asrwt>
<pdfrwt beam="1">  1        4 0.33392410E+00 0.11042099E+04</pdfrwt>
<pdfrwt beam="2">  1       -4 0.49021995E+00 0.10663979E+04</pdfrwt>
<totfact> 0.85333034E-03</totfact>
</mgrwt>
</event>
<event>
 8    1  0.2939692E-006  0.1423530E+04  0.7818608E-02  0.8467460E-01
         -4   -1    0    0    0  501 -0.00000000000E+00  0.00000000000E+00  0.24203824708E+04  0.24203824708E+04  0.00000000000E+00 0. -1.
          4   -1    0    0  502    0  0.00000000000E+00 -0.00000000000E+00 -0.11029425914E+04  0.11029425914E+04  0.00000000000E+00 0.  1.
   -9000010    2    1    2    0  501 -0.14077778956E+03  0.96439901870E+03  0.15538137323E+04  0.20803034083E+04  0.98155045836E+03 0.  0.
    9000010    2    1    2  502    0  0.14077778956E+03 -0.96439901870E+03 -0.23637385296E+03  0.14430216539E+04  0.10375717045E+04 0.  0.
        -13    1    4    4    0    0  0.49429618496E+03 -0.58695206020E+03  0.16921676961E+03  0.78579626222E+03  0.10566000000E+00 0.  1.
          4    1    4    4  502    0 -0.35351839540E+03 -0.37744695849E+03 -0.40559062257E+03  0.65722539169E+03  0.00000000000E+00 0.  1.
         13    1    3    3    0    0  0.15892041688E+03  0.43008593948E+03  0.55836775462E+02  0.46189541121E+03  0.10566000000E+00 0. -1.
         -4    1    3    3    0  501 -0.29969820644E+03  0.53431307922E+03  0.14979769569E+04  0.16184079970E+04  0.00000000000E+00 0. -1.
<mgrwt>
<rscale>  0 0.14032355E+04</rscale>
<asrwt>0</asrwt>
<pdfrwt beam="2">  1        4 0.16968348E+00 0.14235304E+04</pdfrwt>
<pdfrwt beam="1">  1       -4 0.37236653E+00 0.13832300E+04</pdfrwt>
<totfact> 0.74253108E-02</totfact>
</mgrwt>
</event>
<event>
 8    1  0.2939692E-006  0.1034926E+04  0.7818608E-02  0.8743089E-01
         -4   -1    0    0    0  501 -0.00000000000E+00  0.00000000000E+00  0.15981899507E+04  0.15981899507E+04  0.00000000000E+00 0. -1.
          4   -1    0    0  502    0  0.00000000000E+00 -0.00000000000E+00 -0.11935281799E+04  0.11935281799E+04  0.00000000000E+00 0.  1.
   -9000010    2    1    2    0  501 -0.26063717947E+03  0.25906281945E+03  0.11275360301E+04  0.15304932817E+04  0.96748483318E+03 0.  0.
    9000010    2    1    2  502    0  0.26063717947E+03 -0.25906281945E+03 -0.72287425927E+03  0.12612248489E+04  0.96596875782E+03 0.  0.
        -13    1    4    4    0    0  0.68678908904E+02  0.31008691556E+03 -0.55182405105E+03  0.63669496795E+03  0.10566000000E+00 0.  1.
          4    1    4    4  502    0  0.19195827057E+03 -0.56914973501E+03 -0.17105020822E+03  0.62452988098E+03  0.00000000000E+00 0.  1.
         13    1    3    3    0    0 -0.44019588405E+03  0.47312964383E+03  0.10625404988E+04  0.12436303305E+04  0.10566000000E+00 0. -1.
         -4    1    3    3    0  501  0.17955870458E+03 -0.21406682437E+03  0.64995531317E+02  0.28686295121E+03  0.00000000000E+00 0. -1.
<mgrwt>
<rscale>  0 0.10342174E+04</rscale>
<asrwt>0</asrwt>
<pdfrwt beam="2">  1        4 0.18361972E+00 0.10335090E+04</pdfrwt>
<pdfrwt beam="1">  1       -4 0.24587538E+00 0.10349262E+04</pdfrwt>
<totfact> 0.15643047E-01</totfact>
</mgrwt>
</event>
<event>
 8    1  0.2939692E-006  0.1249580E+04  0.7818608E-02  0.8589194E-01
          4   -1    0    0  502    0  0.00000000000E+00  0.00000000000E+00  0.48915691864E+03  0.48915691864E+03  0.00000000000E+00 0.  1.
         -4   -1    0    0    0  501 -0.00000000000E+00 -0.00000000000E+00 -0.32232542446E+04  0.32232542446E+04  0.00000000000E+00 0. -1.
   -9000010    2    1    2    0  501  0.26247203999E+03 -0.69445516745E+03 -0.17560921494E+04  0.21256076436E+04  0.93978117988E+03 0.  0.
    9000010    2    1    2  502    0 -0.26247203999E+03  0.69445516745E+03 -0.97800517662E+03  0.15868035197E+04  0.10051326943E+04 0.  0.
        -13    1    4    4    0    0 -0.54010179210E+03  0.33032992672E+03 -0.93187108557E+03  0.11265928890E+04  0.10566000000E+00 0.  1.
          4    1    4    4  502    0  0.27762975210E+03  0.36412524074E+03 -0.46134091049E+02  0.46021063064E+03  0.00000000000E+00 0.  1.
         13    1    3    3    0    0 -0.30692423220E+03 -0.37313407156E+03 -0.10898996295E+04  0.11921882122E+04  0.10566000000E+00 0. -1.
         -4    1    3    3    0  501  0.56939627219E+03 -0.32132109589E+03 -0.66619251986E+03  0.93341943143E+03  0.00000000000E+00 0. -1.
<mgrwt>
<rscale>  0 0.12233360E+04</rscale>
<asrwt>0</asrwt>
<pdfrwt beam="1">  1        4 0.75254910E-01 0.12495804E+04</pdfrwt>
<pdfrwt beam="2">  1       -4 0.49588527E+00 0.11976428E+04</pdfrwt>
<totfact> 0.91308525E-02</totfact>
</mgrwt>
</event>
<event>
 8    1  0.2939692E-006  0.1065119E+04  0.7818608E-02  0.8722344E-01
         -4   -1    0    0    0  501 -0.00000000000E+00  0.00000000000E+00  0.14126268726E+04  0.14126268726E+04  0.00000000000E+00 0. -1.
          4   -1    0    0  502    0  0.00000000000E+00 -0.00000000000E+00 -0.24117488110E+04  0.24117488110E+04  0.00000000000E+00 0.  1.
   -9000010    2    1    2    0  501 -0.33802477512E+03 -0.18136175185E+02  0.10664555206E+04  0.15072509000E+04  0.10098951572E+04 0.  0.
    9000010    2    1    2  502    0  0.33802477512E+03  0.18136175185E+02 -0.20655774590E+04  0.23171247836E+04  0.99391516444E+03 0.  0.
        -13    1    4    4    0    0 -0.51215233972E+02 -0.32884353057E+03 -0.15445064058E+04  0.15799560489E+04  0.10566000000E+00 0.  1.
          4    1    4    4  502    0  0.38924000909E+03  0.34697970575E+03 -0.52107105320E+03  0.73716873466E+03  0.00000000000E+00 0.  1.
         13    1    3    3    0    0 -0.18505143024E+03 -0.51155120537E+03  0.61638576784E+03  0.82210710586E+03  0.10566000000E+00 0. -1.
         -4    1    3    3    0  501 -0.15297334488E+03  0.49341503019E+03  0.45006975279E+03  0.68514379413E+03  0.00000000000E+00 0. -1.
<mgrwt>
<rscale>  0 0.10575220E+04</rscale>
<asrwt>0</asrwt>
<pdfrwt beam="2">  1        4 0.37103827E+00 0.10499795E+04</pdfrwt>
<pdfrwt beam="1">  1       -4 0.21732721E+00 0.10651187E+04</pdfrwt>
<totfact> 0.55689044E-02</totfact>
</mgrwt>
</event>
<event>
 8    1  0.2939692E-006  0.1419240E+04  0.7818608E-02  0.8460541E-01
         -4   -1    0    0    0  501 -0.00000000000E+00  0.00000000000E+00  0.16140535799E+04  0.16140535799E+04  0.00000000000E+00 0. -1.
          4   -1    0    0  502    0  0.00000000000E+00 -0.00000000000E+00 -0.19176545869E+04  0.19176545869E+04  0.00000000000E+00 0.  1.
   -9000010    2    1    2    0  501  0.95285050283E+03 -0.31746782146E+03  0.89869385953E+03  0.16716664286E+04  0.98899347676E+03 0.  0.
    9000010    2    1    2  502    0 -0.95285050283E+03  0.31746782146E+03 -0.12022948665E+04  0.18600417382E+04  0.10027623963E+04 0.  0.
        -13    1    4    4    0    0 -0.44037530359E+03  0.66368871795E+03 -0.74788207052E+03  0.10925844246E+04  0.10566000000E+00 0.  1.
          4    1    4    4  502    0 -0.51247519924E+03 -0.34622089649E+03 -0.45441279598E+03  0.76745731357E+03  0.00000000000E+00 0.  1.
         13    1    3    3    0    0  0.71813956479E+03  0.18343507955E+03  0.83235774036E+03  0.11145368016E+04  0.10566000000E+00 0. -1.
         -4    1    3    3    0  501  0.23471093804E+03 -0.50090290100E+03  0.66336119179E+02  0.55712962709E+03  0.00000000000E+00 0. -1.
<mgrwt>
<rscale>  0 0.14143844E+04</rscale>
<asrwt>0</asrwt>
<pdfrwt beam="2">  1        4 0.29502378E+00 0.14192401E+04</pdfrwt>
<pdfrwt beam="1">  1       -4 0.24831593E+00 0.14095453E+04</pdfrwt>
<totfact> 0.77605600E-02</totfact>
</mgrwt>
</event>
<event>
 8    1  0.2939692E-006  0.1176641E+04  0.7818608E-02  0.8626114E-01
          4   -1    0    0  502    0  0.00000000000E+00  0.00000000000E+00  0.22657787071E+04  0.22657787071E+04  0.00000000000E+00 0.  1.
         -4   -1    0    0    0  501 -0.00000000000E+00 -0.00000000000E+00 -0.76133521143E+03  0.76133521143E+03  0.00000000000E+00 0. -1.
   -9000010    2    1    2    0  501 -0.58619070286E+03  0.15232207910E+03  0.75660550015E+02  0.11790707910E+04  0.10087922757E+04 0.  0.
    9000010    2    1    2  502    0  0.58619070286E+03 -0.15232207910E+03  0.14287829457E+04  0.18480431275E+04  0.10035044292E+04 0.  0.
        -13    1    4    4    0    0 -0.19189906122E+03  0.19354149300E+03  0.60371526169E+03  0.66238635823E+03  0.10566000000E+00 0.  1.
          4    1    4    4  502    0  0.77808976408E+03 -0.34586357210E+03  0.82506768398E+03  0.11856567693E+04  0.00000000000E+00 0.  1.
         13    1    3    3    0    0  0.24211890006E+03  0.21402751330E+03 -0.82550352237E+02  0.33353247224E+03  0.10566000000E+00 0. -1.
         -4    1    3    3    0  501 -0.82830960293E+03 -0.61705434200E+02  0.15821090225E+03  0.84553831876E+03  0.00000000000E+00 0. -1.
<mgrwt>
<rscale>  0 0.11743734E+04</rscale>
<asrwt>0</asrwt>
<pdfrwt beam="1">  1        4 0.34858134E+00 0.11721104E+04</pdfrwt>
<pdfrwt beam="2">  1       -4 0.11712850E+00 0.11766407E+04</pdfrwt>
<totfact> 0.16225267E-01</totfact>
</mgrwt>
</event>
<event>
 8    1  0.2939692E-006  0.1206604E+04  0.7818608E-02  0.8602708E-01
          4   -1    0    0  502    0  0.00000000000E+00  0.00000000000E+00  0.12306062038E+04  0.12306062038E+04  0.00000000000E+00 0.  1.
         -4   -1    0    0    0  501 -0.00000000000E+00 -0.00000000000E+00 -0.22559092818E+04  0.22559092818E+04  0.00000000000E+00 0. -1.
   -9000010    2    1    2    0  501  0.35735375209E+03  0.56176033241E+03 -0.17161138460E+04  0.20961512421E+04  0.10027596531E+04 0.  0.
    9000010    2    1    2  502    0 -0.35735375209E+03 -0.56176033241E+03  0.69081076806E+03  0.13903642436E+04  0.10062886452E+04 0.  0.
        -13    1    4    4    0    0 -0.81188766716E+02 -0.47473943208E+03  0.90839129661E+03  0.10281750353E+04  0.10566000000E+00 0.  1.
          4    1    4    4  502    0 -0.27616498537E+03 -0.87020900331E+02 -0.21758052855E+03  0.36218920835E+03  0.00000000000E+00 0.  1.
         13    1    3    3    0    0  0.65642079426E+02  0.11611949353E+03 -0.15241675930E+04  0.15299932947E+04  0.10566000000E+00 0. -1.
         -4    1    3    3    0  501  0.29171167266E+03  0.44564083888E+03 -0.19194625307E+03  0.56615794732E+03  0.00000000000E+00 0. -1.
<mgrwt>
<rscale>  0 0.12051323E+04</rscale>
<asrwt>0</asrwt>
<pdfrwt beam="1">  1        4 0.18932403E+00 0.12066040E+04</pdfrwt>
<pdfrwt beam="2">  1       -4 0.34706296E+00 0.12036625E+04</pdfrwt>
<totfact> 0.79766640E-02</totfact>
</mgrwt>
</event>
<event>
 8    1  0.2939692E-006  0.1524939E+04  0.7818608E-02  0.8395359E-01
          4   -1    0    0  502    0  0.00000000000E+00  0.00000000000E+00  0.26283222006E+04  0.26283222006E+04  0.00000000000E+00 0.  1.
         -4   -1    0    0    0  501 -0.00000000000E+00 -0.00000000000E+00 -0.13247382063E+04  0.13247382063E+04  0.00000000000E+00 0. -1.
   -9000010    2    1    2    0  501  0.23343294334E+03 -0.11283501451E+04 -0.48743523951E+03  0.16009472834E+04  0.99888643119E+03 0.  0.
    9000010    2    1    2  502    0 -0.23343294334E+03  0.11283501451E+04  0.17910192338E+04  0.23521131235E+04  0.99850951971E+03 0.  0.
        -13    1    4    4    0    0 -0.41963119048E+03  0.12308215366E+03  0.88029480059E+03  0.98293361916E+03  0.10566000000E+00 0.  1.
          4    1    4    4  502    0  0.18619824715E+03  0.10052679915E+04  0.91072443324E+03  0.13691795044E+04  0.00000000000E+00 0.  1.
         13    1    3    3    0    0  0.51485434246E+02 -0.12445673707E+04 -0.56993296336E+03  0.13698256400E+04  0.10566000000E+00 0. -1.
         -4    1    3    3    0  501  0.18194750909E+03  0.11621722559E+03  0.82497723847E+02  0.23112164336E+03  0.00000000000E+00 0. -1.
<mgrwt>
<rscale>  0 0.15248156E+04</rscale>
<asrwt>0</asrwt>
<pdfrwt beam="1">  1        4 0.40435726E+00 0.15246922E+04</pdfrwt>
<pdfrwt beam="2">  1       -4 0.20380588E+00 0.15249390E+04</pdfrwt>
<totfact> 0.42975517E-02</totfact>
</mgrwt>
</event>
<event>
 8    1  0.2939692E-006  0.1550815E+04  0.7818608E-02  0.8397344E-01
          4   -1    0    0  502    0  0.00000000000E+00  0.00000000000E+00  0.36187475916E+04  0.36187475916E+04  0.00000000000E+00 0.  1.
         -4   -1    0    0    0  501 -0.00000000000E+00 -0.00000000000E+00 -0.13488466757E+04  0.13488466757E+04  0.00000000000E+00 0. -1.
   -9000010    2    1    2    0  501  0.87475500567E+03 -0.65262313798E+03 -0.65539821411E+03  0.16836193715E+04  0.11017776949E+04 0.  0.
    9000010    2    1    2  502    0 -0.87475500567E+03  0.65262313798E+03  0.29252991300E+04  0.32839748958E+04  0.10178422453E+04 0.  0.
        -13    1    4    4    0    0 -0.11582157837E+03  0.66089034405E+03  0.91092461316E+03  0.11313595127E+04  0.10566000000E+00 0.  1.
          4    1    4    4  502    0 -0.75893342730E+03 -0.82672060670E+01  0.20143745168E+04  0.21526153831E+04  0.00000000000E+00 0.  1.
         13    1    3    3    0    0 -0.11673959006E+03 -0.53678096358E+03 -0.28515832631E+03  0.61893232019E+03  0.10566000000E+00 0. -1.
         -4    1    3    3    0  501  0.99149459573E+03 -0.11584217440E+03 -0.37023988780E+03  0.10646870513E+04  0.00000000000E+00 0. -1.
<mgrwt>
<rscale>  0 0.15213030E+04</rscale>
<asrwt>0</asrwt>
<pdfrwt beam="1">  1        4 0.55673040E+00 0.14923525E+04</pdfrwt>
<pdfrwt beam="2">  1       -4 0.20751487E+00 0.15508151E+04</pdfrwt>
<totfact> 0.81830034E-03</totfact>
</mgrwt>
</event>
<event>
 8    1  0.2939692E-006  0.1115440E+04  0.7818608E-02  0.8689563E-01
         -4   -1    0    0    0  501 -0.00000000000E+00  0.00000000000E+00  0.91301923620E+03  0.91301923620E+03  0.00000000000E+00 0. -1.
          4   -1    0    0  502    0  0.00000000000E+00 -0.00000000000E+00 -0.19165662020E+04  0.19165662020E+04  0.00000000000E+00 0.  1.
   -9000010    2    1    2    0  501  0.15216726798E+03  0.35175844612E+03  0.29675384823E+03  0.11164043549E+04  0.10056873049E+04 0.  0.
    9000010    2    1    2  502    0 -0.15216726798E+03 -0.35175844612E+03 -0.13003008140E+04  0.17131810833E+04  0.10475296346E+04 0.  0.
        -13    1    4    4    0    0 -0.16002093402E+03  0.15946369703E+03 -0.11616768958E+04  0.11834393062E+04  0.10566000000E+00 0.  1.
          4    1    4    4  502    0  0.78536660376E+01 -0.51122214315E+03 -0.13862391817E+03  0.52974177710E+03  0.00000000000E+00 0.  1.
         13    1    3    3    0    0 -0.11772117919E+03  0.47795004662E+03 -0.20471571779E+03  0.53310698679E+03  0.10566000000E+00 0. -1.
         -4    1    3    3    0  501  0.26988844717E+03 -0.12619160050E+03  0.50146956602E+03  0.58329736807E+03  0.00000000000E+00 0. -1.
<mgrwt>
<rscale>  0 0.10956657E+04</rscale>
<asrwt>0</asrwt>
<pdfrwt beam="2">  1        4 0.29485634E+00 0.11154404E+04</pdfrwt>
<pdfrwt beam="1">  1       -4 0.14046450E+00 0.10762415E+04</pdfrwt>
<totfact> 0.17298375E-01</totfact>
</mgrwt>
</event>
<event>
 8    1  0.2939692E-006  0.1117308E+04  0.7818608E-02  0.8676874E-01
          4   -1    0    0  502    0  0.00000000000E+00  0.00000000000E+00  0.18281003719E+04  0.18281003719E+04  0.00000000000E+00 0.  1.
         -4   -1    0    0    0  501 -0.00000000000E+00 -0.00000000000E+00 -0.75769898496E+03  0.75769898496E+03  0.00000000000E+00 0. -1.
   -9000010    2    1    2    0  501 -0.34326368651E+03  0.35070963414E+03  0.11100338931E+03  0.11228088761E+04  0.10037683068E+04 0.  0.
    9000010    2    1    2  502    0  0.34326368651E+03 -0.35070963414E+03  0.95939799765E+03  0.14629904808E+04  0.98947936968E+03 0.  0.
        -13    1    4    4    0    0 -0.23132787144E+03  0.18707508765E+03  0.14677547408E+03  0.33174195315E+03  0.10566000000E+00 0.  1.
          4    1    4    4  502    0  0.57459155795E+03 -0.53778472179E+03  0.81262252357E+03  0.11312485276E+04  0.00000000000E+00 0.  1.
         13    1    3    3    0    0  0.25163907316E+03 -0.18704256707E+03  0.60261475966E+02  0.31927825120E+03  0.10566000000E+00 0. -1.
         -4    1    3    3    0  501 -0.59490275967E+03  0.53775220122E+03  0.50741913345E+02  0.80353062490E+03  0.00000000000E+00 0. -1.
<mgrwt>
<rscale>  0 0.11108804E+04</rscale>
<asrwt>0</asrwt>
<pdfrwt beam="1">  1        4 0.28124621E+00 0.11044893E+04</pdfrwt>
<pdfrwt beam="2">  1       -4 0.11656908E+00 0.11173084E+04</pdfrwt>
<totfact> 0.25434838E-01</totfact>
</mgrwt>
</event>
<event>
 8    1  0.2939692E-006  0.1266705E+04  0.7818608E-02  0.8574000E-01
         -4   -1    0    0    0  501 -0.00000000000E+00  0.00000000000E+00  0.25083289067E+04  0.25083289067E+04  0.00000000000E+00 0. -1.
          4   -1    0    0  502    0  0.00000000000E+00 -0.00000000000E+00 -0.75367442586E+03  0.75367442586E+03  0.00000000000E+00 0.  1.
   -9000010    2    1    2    0  501 -0.15531063447E+03 -0.75822259805E+03  0.15837597258E+04  0.20280126135E+04  0.10027549002E+04 0.  0.
    9000010    2    1    2  502    0  0.15531063447E+03  0.75822259805E+03  0.17089475503E+03  0.12339907191E+04  0.94578283775E+03 0.  0.
        -13    1    4    4    0    0 -0.95375641704E+02  0.40973734499E+03 -0.35828395852E+03  0.55258357830E+03  0.10566000000E+00 0.  1.
          4    1    4    4  502    0  0.25068627617E+03  0.34848525306E+03  0.52917871355E+03  0.68140714080E+03  0.00000000000E+00 0.  1.
         13    1    3    3    0    0 -0.53347019758E+03 -0.16965770195E+03  0.81322905638E+03  0.98727690991E+03  0.10566000000E+00 0. -1.
         -4    1    3    3    0  501  0.37815956312E+03 -0.58856489609E+03  0.77053066943E+03  0.10407357035E+04  0.00000000000E+00 0. -1.
<mgrwt>
<rscale>  0 0.12442023E+04</rscale>
<asrwt>0</asrwt>
<pdfrwt beam="2">  1        4 0.11594991E+00 0.12220999E+04</pdfrwt>
<pdfrwt beam="1">  1       -4 0.38589675E+00 0.12667045E+04</pdfrwt>
<totfact> 0.11979953E-01</totfact>
</mgrwt>
</event>
<event>
 8    1  0.2939692E-006  0.1081478E+04  0.7818608E-02  0.8727724E-01
          4   -1    0    0  502    0  0.00000000000E+00  0.00000000000E+00  0.55051716414E+03  0.55051716414E+03  0.00000000000E+00 0.  1.
         -4   -1    0    0    0  501 -0.00000000000E+00 -0.00000000000E+00 -0.41756143921E+04  0.41756143921E+04  0.00000000000E+00 0. -1.
   -9000010    2    1    2    0  501  0.44345720999E+03 -0.10941243531E+03 -0.35387260363E+04  0.37002940555E+04  0.98029013994E+03 0.  0.
    9000010    2    1    2  502    0 -0.44345720999E+03  0.10941243531E+03 -0.86371191636E+02  0.10258375008E+04  0.91447100404E+03 0.  0.
        -13    1    4    4    0    0 -0.72862941352E+03  0.47037321806E+02 -0.54172744916E+02  0.73215300952E+03  0.10566000000E+00 0.  1.
          4    1    4    4  502    0  0.28517220353E+03  0.62375113507E+02 -0.32198446720E+02  0.29368449129E+03  0.00000000000E+00 0.  1.
         13    1    3    3    0    0 -0.19441873705E+03 -0.10400614757E+03 -0.18911417793E+03  0.29048254251E+03  0.10566000000E+00 0. -1.
         -4    1    3    3    0  501  0.63787594704E+03 -0.54062877419E+01 -0.33496118584E+04  0.34098115129E+04  0.00000000000E+00 0. -1.
<mgrwt>
<rscale>  0 0.10514186E+04</rscale>
<asrwt>0</asrwt>
<pdfrwt beam="1">  1        4 0.84694949E-01 0.10221950E+04</pdfrwt>
<pdfrwt beam="2">  1       -4 0.64240221E+00 0.10814778E+04</pdfrwt>
<totfact> 0.12735002E-02</totfact>
</mgrwt>
</event>
<event>
 8    1  0.2939692E-006  0.1122070E+04  0.7818608E-02  0.8672115E-01
         -4   -1    0    0    0  501 -0.00000000000E+00  0.00000000000E+00  0.11231962650E+04  0.11231962650E+04  0.00000000000E+00 0. -1.
          4   -1    0    0  502    0  0.00000000000E+00 -0.00000000000E+00 -0.12730498599E+04  0.12730498599E+04  0.00000000000E+00 0.  1.
   -9000010    2    1    2    0  501 -0.61553373508E+02  0.50162854340E+03  0.35394159236E+03  0.11662658845E+04  0.98968755129E+03 0.  0.
    9000010    2    1    2  502    0  0.61553373508E+02 -0.50162854340E+03 -0.50379518722E+03  0.12299802404E+04  0.10018092572E+04 0.  0.
        -13    1    4    4    0    0  0.25402315941E+03 -0.52786176108E+03  0.10127552683E+03  0.59449352210E+03  0.10566000000E+00 0.  1.
          4    1    4    4  502    0 -0.19246978590E+03  0.26233217678E+02 -0.60507071405E+03  0.63548671834E+03  0.00000000000E+00 0.  1.
         13    1    3    3    0    0 -0.46201262378E+03  0.31266705823E+03  0.44570957161E+03  0.71405419068E+03  0.10566000000E+00 0. -1.
         -4    1    3    3    0  501  0.40045925027E+03  0.18896148517E+03 -0.91767979244E+02  0.45221169381E+03  0.00000000000E+00 0. -1.
<mgrwt>
<rscale>  0 0.11166527E+04</rscale>
<asrwt>0</asrwt>
<pdfrwt beam="2">  1        4 0.19585383E+00 0.11220703E+04</pdfrwt>
<pdfrwt beam="1">  1       -4 0.17279943E+00 0.11112612E+04</pdfrwt>
<totfact> 0.22754324E-01</totfact>
</mgrwt>
</event>
<event>
 8    1  0.2939692E-006  0.1447908E+04  0.7818608E-02  0.8440225E-01
          4   -1    0    0  502    0  0.00000000000E+00  0.00000000000E+00  0.45189025600E+04  0.45189025600E+04  0.00000000000E+00 0.  1.
         -4   -1    0    0    0  501 -0.00000000000E+00 -0.00000000000E+00 -0.59763043707E+03  0.59763043707E+03  0.00000000000E+00 0. -1.
   -9000010    2    1    2    0  501 -0.17045738357E+03 -0.10315877568E+04  0.74992576798E+03  0.16302920896E+04  0.10011166866E+04 0.  0.
    9000010    2    1    2  502    0  0.17045738357E+03  0.10315877568E+04  0.31713463549E+04  0.34862409075E+04  0.10016031861E+04 0.  0.
        -13    1    4    4    0    0 -0.22827917124E+03  0.86045030993E+02  0.15384202142E+04  0.15576430573E+04  0.10566000000E+00 0.  1.
          4    1    4    4  502    0  0.39873655481E+03  0.94554272584E+03  0.16329261407E+04  0.19285978501E+04  0.00000000000E+00 0.  1.
         13    1    3    3    0    0  0.59731609350E+02 -0.11242383245E+04  0.79482913655E+03  0.13781266426E+04  0.10566000000E+00 0. -1.
         -4    1    3    3    0  501 -0.23018899292E+03  0.92650567696E+02 -0.44903368578E+02  0.25216544701E+03  0.00000000000E+00 0. -1.
<mgrwt>
<rscale>  0 0.14477399E+04</rscale>
<asrwt>0</asrwt>
<pdfrwt beam="1">  1        4 0.69521576E+00 0.14479081E+04</pdfrwt>
<pdfrwt beam="2">  1       -4 0.91943147E-01 0.14475716E+04</pdfrwt>
<totfact> 0.55357589E-03</totfact>
</mgrwt>
</event>
<event>
 8    1  0.2939692E-006  0.1446157E+04  0.7818608E-02  0.8443294E-01
          4   -1    0    0  502    0  0.00000000000E+00  0.00000000000E+00  0.18983317143E+04  0.18983317143E+04  0.00000000000E+00 0. -1.
         -4   -1    0    0    0  501 -0.00000000000E+00 -0.00000000000E+00 -0.10979873211E+04  0.10979873211E+04  0.00000000000E+00 0.  1.
   -9000010    2    1    2    0  501 -0.25545617226E+03  0.10172474132E+04  0.34320409962E+03  0.14863244908E+04  0.99565118509E+03 0.  0.
    9000010    2    1    2  502    0  0.25545617226E+03 -0.10172474132E+04  0.45714029364E+03  0.15099945446E+04  0.98542179859E+03 0.  0.
        -13    1    4    4    0    0 -0.34571235538E+03 -0.52187634163E+03  0.36746027274E+03  0.72587809708E+03  0.10566000000E+00 0.  1.
          4    1    4    4  502    0  0.60116852764E+03 -0.49537107157E+03  0.89680020892E+02  0.78411644755E+03  0.00000000000E+00 0.  1.
         13    1    3    3    0    0 -0.16141708511E+03  0.69461895712E+03  0.69783491823E+03  0.99775976829E+03  0.10566000000E+00 0. -1.
         -4    1    3    3    0  501 -0.94039087151E+02  0.32262845608E+03 -0.35463081861E+03  0.48856472252E+03  0.00000000000E+00 0. -1.
<mgrwt>
<rscale>  0 0.14426414E+04</rscale>
<asrwt>0</asrwt>
<pdfrwt beam="1">  1        4 0.29205103E+00 0.14391339E+04</pdfrwt>
<pdfrwt beam="2">  1       -4 0.16892113E+00 0.14461575E+04</pdfrwt>
<totfact> 0.13237176E-01</totfact>
</mgrwt>
</event>
<event>
 8    1  0.2939692E-006  0.1061888E+04  0.7818608E-02  0.8745372E-01
         -4   -1    0    0    0  501 -0.00000000000E+00  0.00000000000E+00  0.22374647501E+04  0.22374647501E+04  0.00000000000E+00 0. -1.
          4   -1    0    0  502    0  0.00000000000E+00 -0.00000000000E+00 -0.17823311846E+04  0.17823311846E+04  0.00000000000E+00 0.  1.
   -9000010    2    1    2    0  501  0.28788146890E+03  0.75295359645E+02  0.19497633583E+04  0.22201763835E+04  0.10193433618E+04 0.  0.
    9000010    2    1    2  502    0 -0.28788146890E+03 -0.75295359645E+02 -0.14946297927E+04  0.17996195512E+04  0.95716622396E+03 0.  0.
        -13    1    4    4    0    0 -0.60851861376E+02 -0.36955355844E+03 -0.13497024049E+04  0.14007031715E+04  0.10566000000E+00 0.  1.
          4    1    4    4  502    0 -0.22702960752E+03  0.29425819879E+03 -0.14492738782E+03  0.39891637969E+03  0.00000000000E+00 0.  1.
         13    1    3    3    0    0  0.18996853694E+03 -0.34458876908E+03  0.16469748144E+04  0.16933267597E+04  0.10566000000E+00 0. -1.
         -4    1    3    3    0  501  0.97912931953E+02  0.41988412873E+03  0.30278854395E+03  0.52684962385E+03  0.00000000000E+00 0. -1.
<mgrwt>
<rscale>  0 0.10316913E+04</rscale>
<asrwt>0</asrwt>
<pdfrwt beam="2">  1        4 0.27420480E+00 0.10023534E+04</pdfrwt>
<pdfrwt beam="1">  1       -4 0.34422535E+00 0.10618880E+04</pdfrwt>
<totfact> 0.50683714E-02</totfact>
</mgrwt>
</event>
<event>
 8    1  0.2939692E-006  0.1194342E+04  0.7818608E-02  0.8620838E-01
         -4   -1    0    0    0  501 -0.00000000000E+00  0.00000000000E+00  0.12050061177E+04  0.12050061177E+04  0.00000000000E+00 0. -1.
          4   -1    0    0  502    0  0.00000000000E+00 -0.00000000000E+00 -0.20058914020E+04  0.20058914020E+04  0.00000000000E+00 0.  1.
   -9000010    2    1    2    0  501 -0.59901950300E+03 -0.12991535596E+03  0.64583358631E+03  0.13348780752E+04  0.99453310135E+03 0.  0.
    9000010    2    1    2  502    0  0.59901950300E+03  0.12991535596E+03 -0.14467188706E+04  0.18760194446E+04  0.10250615109E+04 0.  0.
        -13    1    4    4    0    0  0.69488627018E+01 -0.25377854856E+03  0.13559971684E+02  0.25423556478E+03  0.10566000000E+00 0.  1.
          4    1    4    4  502    0  0.59207064030E+03  0.38369390452E+03 -0.14602788423E+04  0.16217838798E+04  0.00000000000E+00 0.  1.
         13    1    3    3    0    0 -0.92424319454E+02  0.20742889407E+03 -0.19332626144E+03  0.29823489978E+03  0.10566000000E+00 0. -1.
         -4    1    3    3    0  501 -0.50659518354E+03 -0.33734425003E+03  0.83915984775E+03  0.10366431754E+04  0.00000000000E+00 0. -1.
<mgrwt>
<rscale>  0 0.11812220E+04</rscale>
<asrwt>0</asrwt>
<pdfrwt beam="2">  1        4 0.30859867E+00 0.11943423E+04</pdfrwt>
<pdfrwt beam="1">  1       -4 0.18538556E+00 0.11682459E+04</pdfrwt>
<totfact> 0.10624750E-01</totfact>
</mgrwt>
</event>
<event>
 8    1  0.2939692E-006  0.1049400E+04  0.7818608E-02  0.8740013E-01
          4   -1    0    0  502    0  0.00000000000E+00  0.00000000000E+00  0.13217973021E+04  0.13217973021E+04  0.00000000000E+00 0.  1.
         -4   -1    0    0    0  501 -0.00000000000E+00 -0.00000000000E+00 -0.21188995005E+04  0.21188995005E+04  0.00000000000E+00 0. -1.
   -9000010    2    1    2    0  501  0.24299026557E+03  0.13195875792E+03 -0.17464967544E+04  0.20255677323E+04  0.98803660961E+03 0.  0.
    9000010    2    1    2  502    0 -0.24299026557E+03 -0.13195875792E+03  0.94939455606E+03  0.14151290703E+04  0.10123156027E+04 0.  0.
        -13    1    4    4    0    0  0.11105943323E+03  0.13833219238E+02  0.10197104489E+04  0.10258337908E+04  0.10566000000E+00 0.  1.
          4    1    4    4  502    0 -0.35404969880E+03 -0.14579197716E+03 -0.70315892797E+02  0.38929527946E+03  0.00000000000E+00 0.  1.
         13    1    3    3    0    0  0.18238922020E+03 -0.42120347137E+03 -0.64706220615E+03  0.79332698286E+03  0.10566000000E+00 0. -1.
         -4    1    3    3    0  501  0.60601045367E+02  0.55316222930E+03 -0.10994345483E+04  0.12322407494E+04  0.00000000000E+00 0. -1.
<mgrwt>
<rscale>  0 0.10376335E+04</rscale>
<asrwt>0</asrwt>
<pdfrwt beam="1">  1        4 0.20335343E+00 0.10494000E+04</pdfrwt>
<pdfrwt beam="2">  1       -4 0.32598454E+00 0.10259989E+04</pdfrwt>
<totfact> 0.85270486E-02</totfact>
</mgrwt>
</event>
<event>
 8    1  0.2939692E-006  0.1459480E+04  0.7818608E-02  0.8441134E-01
         -4   -1    0    0    0  501 -0.00000000000E+00  0.00000000000E+00  0.88058690074E+03  0.88058690074E+03  0.00000000000E+00 0. -1.
          4   -1    0    0  502    0  0.00000000000E+00 -0.00000000000E+00 -0.26515555150E+04  0.26515555150E+04  0.00000000000E+00 0.  1.
   -9000010    2    1    2    0  501  0.56467565211E+03 -0.84840193211E+03 -0.32279885082E+03  0.14947512869E+04  0.10447190442E+04 0.  0.
    9000010    2    1    2  502    0 -0.56467565211E+03  0.84840193211E+03 -0.14481697634E+04  0.20373911288E+04  0.10075328865E+04 0.  0.
        -13    1    4    4    0    0  0.20948379596E+03 -0.16820641724E+02 -0.42782257258E+02  0.21446847661E+03  0.10566000000E+00 0.  1.
          4    1    4    4  502    0 -0.77415944807E+03  0.86522257383E+03 -0.14053875062E+04  0.18229226522E+04  0.00000000000E+00 0.  1.
         13    1    3    3    0    0  0.40749149446E+03  0.13821636325E+03  0.39323112084E+02  0.43208725905E+03  0.10566000000E+00 0. -1.
         -4    1    3    3    0  501  0.15718415765E+03 -0.98661829536E+03 -0.36212196290E+03  0.10626640279E+04  0.00000000000E+00 0. -1.
<mgrwt>
<rscale>  0 0.14462284E+04</rscale>
<asrwt>0</asrwt>
<pdfrwt beam="2">  1        4 0.40793162E+00 0.14330970E+04</pdfrwt>
<pdfrwt beam="1">  1       -4 0.13547491E+00 0.14594802E+04</pdfrwt>
<totfact> 0.74958756E-02</totfact>
</mgrwt>
</event>
<event>
 8    1  0.2939692E-006  0.1152675E+04  0.7818608E-02  0.8644260E-01
         -4   -1    0    0    0  501 -0.00000000000E+00  0.00000000000E+00  0.84422293591E+03  0.84422293591E+03  0.00000000000E+00 0. -1.
          4   -1    0    0  502    0  0.00000000000E+00 -0.00000000000E+00 -0.32399229841E+04  0.32399229841E+04  0.00000000000E+00 0.  1.
   -9000010    2    1    2    0  501  0.21302331019E+03 -0.53255608409E+03  0.26756753257E+03  0.11833229347E+04  0.99983292097E+03 0.  0.
    9000010    2    1    2  502    0 -0.21302331019E+03  0.53255608409E+03 -0.26632675808E+04  0.29008229853E+04  0.99638590519E+03 0.  0.
        -13    1    4    4    0    0 -0.69911527837E+02  0.50351650030E+03 -0.43871163065E+03  0.67147925793E+03  0.10566000000E+00 0.  1.
          4    1    4    4  502    0 -0.14311178235E+03  0.29039583789E+02 -0.22245559501E+04  0.22293437274E+04  0.00000000000E+00 0.  1.
         13    1    3    3    0    0  0.34398988942E+03  0.20595874436E+03  0.12397365553E+03  0.41966358769E+03  0.10566000000E+00 0. -1.
         -4    1    3    3    0  501 -0.13096657923E+03 -0.73851482845E+03  0.14359387704E+03  0.76365934699E+03  0.00000000000E+00 0. -1.
<mgrwt>
<rscale>  0 0.11511802E+04</rscale>
<asrwt>0</asrwt>
<pdfrwt beam="2">  1        4 0.49844968E+00 0.11496868E+04</pdfrwt>
<pdfrwt beam="1">  1       -4 0.12988045E+00 0.11526755E+04</pdfrwt>
<totfact> 0.31773726E-02</totfact>
</mgrwt>
</event>
<event>
 8    1  0.2939692E-006  0.1066746E+04  0.7818608E-02  0.8731244E-01
          4   -1    0    0  502    0  0.00000000000E+00  0.00000000000E+00  0.96090786367E+03  0.96090786367E+03  0.00000000000E+00 0.  1.
         -4   -1    0    0    0  501 -0.00000000000E+00 -0.00000000000E+00 -0.17396874543E+04  0.17396874543E+04  0.00000000000E+00 0. -1.
   -9000010    2    1    2    0  501  0.17974059483E+03  0.14655186995E+03 -0.11853262227E+04  0.15946615218E+04  0.10412314743E+04 0.  0.
    9000010    2    1    2  502    0 -0.17974059483E+03 -0.14655186995E+03  0.40654663203E+03  0.11059337962E+04  0.10020106114E+04 0.  0.
        -13    1    4    4    0    0 -0.38914579612E+03  0.16986093396E+02 -0.20427213719E+03  0.43982962066E+03  0.10566000000E+00 0.  1.
          4    1    4    4  502    0  0.20940520130E+03 -0.16353796335E+03  0.61081876922E+03  0.66610417550E+03  0.00000000000E+00 0.  1.
         13    1    3    3    0    0  0.39441857093E+03  0.49726946436E+03 -0.86776689586E+03  0.10751103785E+04  0.10566000000E+00 0. -1.
         -4    1    3    3    0  501 -0.21467797611E+03 -0.35071759441E+03 -0.31755932679E+03  0.51955114328E+03  0.00000000000E+00 0. -1.
<mgrwt>
<rscale>  0 0.10474478E+04</rscale>
<asrwt>0</asrwt>
<pdfrwt beam="1">  1        4 0.14783198E+00 0.10284986E+04</pdfrwt>
<pdfrwt beam="2">  1       -4 0.26764422E+00 0.10667460E+04</pdfrwt>
<totfact> 0.18855879E-01</totfact>
</mgrwt>
</event>
<event>
 8    1  0.2939692E-006  0.1113422E+04  0.7818608E-02  0.8676697E-01
         -4   -1    0    0    0  501 -0.00000000000E+00  0.00000000000E+00  0.75818401849E+03  0.75818401849E+03  0.00000000000E+00 0. -1.
          4   -1    0    0  502    0  0.00000000000E+00 -0.00000000000E+00 -0.21612538454E+04  0.21612538454E+04  0.00000000000E+00 0.  1.
   -9000010    2    1    2    0  501 -0.29751865522E+03  0.37093342999E+03  0.24454544535E+02  0.11090414963E+04  0.10016316968E+04 0.  0.
    9000010    2    1    2  502    0  0.29751865522E+03 -0.37093342999E+03 -0.14275243715E+04  0.18103963676E+04  0.10067771436E+04 0.  0.
        -13    1    4    4    0    0  0.63877678798E+03 -0.16089652117E+03 -0.11419915801E+04  0.13183581667E+04  0.10566000000E+00 0.  1.
          4    1    4    4  502    0 -0.34125813276E+03 -0.21003690883E+03 -0.28553279137E+03  0.49203820095E+03  0.00000000000E+00 0.  1.
         13    1    3    3    0    0  0.22994039432E+03 -0.79407181671E+02  0.27908097349E+03  0.37022194204E+03  0.10566000000E+00 0. -1.
         -4    1    3    3    0  501 -0.52745904954E+03  0.45034061166E+03 -0.25462642896E+03  0.73881955427E+03  0.00000000000E+00 0. -1.
<mgrwt>
<rscale>  0 0.11110946E+04</rscale>
<asrwt>0</asrwt>
<pdfrwt beam="2">  1        4 0.33250059E+00 0.11134223E+04</pdfrwt>
<pdfrwt beam="1">  1       -4 0.11664370E+00 0.11087719E+04</pdfrwt>
<totfact> 0.18360610E-01</totfact>
</mgrwt>
</event>
<event>
 8    1  0.2939692E-006  0.1405005E+04  0.7818608E-02  0.8468567E-01
         -4   -1    0    0    0  501 -0.00000000000E+00  0.00000000000E+00  0.21223369718E+04  0.21223369718E+04  0.00000000000E+00 0. -1.
          4   -1    0    0  502    0  0.00000000000E+00 -0.00000000000E+00 -0.23539480079E+04  0.23539480079E+04  0.00000000000E+00 0.  1.
   -9000010    2    1    2    0  501 -0.58822059445E+03  0.79206078676E+03  0.16276097808E+04  0.21501520886E+04  0.10003382667E+04 0.  0.
    9000010    2    1    2  502    0  0.58822059445E+03 -0.79206078676E+03 -0.18592208169E+04  0.23261328911E+04  0.99036782233E+03 0.  0.
        -13    1    4    4    0    0  0.39271798926E+03  0.15823457281E+03 -0.65129596004E+03  0.77682175423E+03  0.10566000000E+00 0.  1.
          4    1    4    4  502    0  0.19550260520E+03 -0.95029535958E+03 -0.12079248568E+04  0.15493111369E+04  0.00000000000E+00 0.  1.
         13    1    3    3    0    0  0.62013619128E+01  0.80324831074E+03  0.82655674379E+03  0.11525807423E+04  0.10566000000E+00 0. -1.
         -4    1    3    3    0  501 -0.59442195637E+03 -0.11187523971E+02  0.80105303702E+03  0.99757134633E+03  0.00000000000E+00 0. -1.
<mgrwt>
<rscale>  0 0.14014604E+04</rscale>
<asrwt>0</asrwt>
<pdfrwt beam="2">  1        4 0.36214585E+00 0.13979242E+04</pdfrwt>
<pdfrwt beam="1">  1       -4 0.32651338E+00 0.14050055E+04</pdfrwt>
<totfact> 0.30258702E-02</totfact>
</mgrwt>
</event>
<event>
 8    1  0.2939692E-006  0.1233248E+04  0.7818608E-02  0.8587743E-01
          4   -1    0    0  502    0  0.00000000000E+00  0.00000000000E+00  0.28916666284E+04  0.28916666284E+04  0.00000000000E+00 0.  1.
         -4   -1    0    0    0  501 -0.00000000000E+00 -0.00000000000E+00 -0.58484233155E+03  0.58484233155E+03  0.00000000000E+00 0. -1.
   -9000010    2    1    2    0  501  0.34672127705E+03  0.63111664542E+03  0.57782963622E+03  0.13619062570E+04  0.10011881443E+04 0.  0.
    9000010    2    1    2  502    0 -0.34672127705E+03 -0.63111664542E+03  0.17289946607E+04  0.21146027030E+04  0.98163037384E+03 0.  0.
        -13    1    4    4    0    0 -0.41119323103E+03  0.12228915546E+03  0.40539856296E+03  0.59023937246E+03  0.10566000000E+00 0.  1.
          4    1    4    4  502    0  0.64471953974E+02 -0.75340580088E+03  0.13235960977E+04  0.15243633305E+04  0.00000000000E+00 0.  1.
         13    1    3    3    0    0  0.83530956490E+02 -0.36307576133E+02  0.63564537767E+03  0.64213761617E+03  0.10566000000E+00 0. -1.
         -4    1    3    3    0  501  0.26319032056E+03  0.66742422155E+03 -0.57815741449E+02  0.71976864082E+03  0.00000000000E+00 0. -1.
<mgrwt>
<rscale>  0 0.12253108E+04</rscale>
<asrwt>0</asrwt>
<pdfrwt beam="1">  1        4 0.44487178E+00 0.12174244E+04</pdfrwt>
<pdfrwt beam="2">  1       -4 0.89975745E-01 0.12332484E+04</pdfrwt>
<totfact> 0.10989004E-01</totfact>
</mgrwt>
</event>
<event>
 8    1  0.2939692E-006  0.1089287E+04  0.7818608E-02  0.8697600E-01
         -4   -1    0    0    0  501 -0.00000000000E+00  0.00000000000E+00  0.64916029308E+03  0.64916029308E+03  0.00000000000E+00 0. -1.
          4   -1    0    0  502    0  0.00000000000E+00 -0.00000000000E+00 -0.19801467290E+04  0.19801467290E+04  0.00000000000E+00 0.  1.
   -9000010    2    1    2    0  501 -0.41716980189E+03  0.15389764933E+00 -0.28679778458E+03  0.11203752342E+04  0.99947837840E+03 0.  0.
    9000010    2    1    2  502    0  0.41716980189E+03 -0.15389764933E+00 -0.10441886513E+04  0.15089317879E+04  0.10062378116E+04 0.  0.
        -13    1    4    4    0    0  0.44979329286E+02  0.33401991253E+03 -0.93918942679E+03  0.99783226676E+03  0.10566000000E+00 0.  1.
          4    1    4    4  502    0  0.37219047261E+03 -0.33417381018E+03 -0.10499922452E+03  0.51109952109E+03  0.00000000000E+00 0.  1.
         13    1    3    3    0    0 -0.28545333761E+03 -0.29832891618E+03 -0.55936265284E+03  0.69524840075E+03  0.10566000000E+00 0. -1.
         -4    1    3    3    0  501 -0.13171646428E+03  0.29848281383E+03  0.27256486826E+03  0.42512683346E+03  0.00000000000E+00 0. -1.
<mgrwt>
<rscale>  0 0.10861616E+04</rscale>
<asrwt>0</asrwt>
<pdfrwt beam="2">  1        4 0.30463796E+00 0.10892866E+04</pdfrwt>
<pdfrwt beam="1">  1       -4 0.99870815E-01 0.10830456E+04</pdfrwt>
<totfact> 0.29178972E-01</totfact>
</mgrwt>
</event>
<event>
 8    1  0.2939692E-006  0.1180089E+04  0.7818608E-02  0.8632426E-01
         -4   -1    0    0    0  501 -0.00000000000E+00  0.00000000000E+00  0.16390655791E+04  0.16390655791E+04  0.00000000000E+00 0. -1.
          4   -1    0    0  502    0  0.00000000000E+00 -0.00000000000E+00 -0.21980317943E+04  0.21980317943E+04  0.00000000000E+00 0.  1.
   -9000010    2    1    2    0  501  0.39594051656E+02 -0.63185021507E+03  0.12353366969E+04  0.16895098376E+04  0.96311180736E+03 0.  0.
    9000010    2    1    2  502    0 -0.39594051656E+02  0.63185021507E+03 -0.17943029122E+04  0.21475875357E+04  0.99589502456E+03 0.  0.
        -13    1    4    4    0    0 -0.21715655395E+03  0.62360405599E+03 -0.46783887077E+03  0.80926646275E+03  0.10566000000E+00 0.  1.
          4    1    4    4  502    0  0.17756250229E+03  0.82461590862E+01 -0.13264640414E+04  0.13383210730E+04  0.00000000000E+00 0.  1.
         13    1    3    3    0    0  0.41869736054E+03 -0.28177837134E+02  0.61508621967E+03  0.74460226902E+03  0.10566000000E+00 0. -1.
         -4    1    3    3    0  501 -0.37910330888E+03 -0.60367237794E+03  0.62025047725E+03  0.94490756861E+03  0.00000000000E+00 0. -1.
<mgrwt>
<rscale>  0 0.11662414E+04</rscale>
<asrwt>0</asrwt>
<pdfrwt beam="2">  1        4 0.33815874E+00 0.11800887E+04</pdfrwt>
<pdfrwt beam="1">  1       -4 0.25216394E+00 0.11525566E+04</pdfrwt>
<totfact> 0.58605639E-02</totfact>
</mgrwt>
</event>
<event>
 8    1  0.2939692E-006  0.1255845E+04  0.7818608E-02  0.8567090E-01
          4   -1    0    0  502    0  0.00000000000E+00  0.00000000000E+00  0.10772071054E+04  0.10772071054E+04  0.00000000000E+00 0.  1.
         -4   -1    0    0    0  501 -0.00000000000E+00 -0.00000000000E+00 -0.18427074178E+04  0.18427074178E+04  0.00000000000E+00 0. -1.
   -9000010    2    1    2    0  501 -0.10163006003E+03  0.75140211718E+03 -0.10481046188E+04  0.16326650939E+04  0.99606134657E+03 0.  0.
    9000010    2    1    2  502    0  0.10163006003E+03 -0.75140211718E+03  0.28260430646E+03  0.12872494293E+04  0.10011054331E+04 0.  0.
        -13    1    4    4    0    0  0.15941634927E+03 -0.79451764282E+03 -0.17079262624E+03  0.82815577612E+03  0.10566000000E+00 0.  1.
          4    1    4    4  502    0 -0.57786289238E+02  0.43115525640E+02  0.45339693270E+03  0.45909365314E+03  0.00000000000E+00 0.  1.
         13    1    3    3    0    0 -0.34662954857E+03 -0.75058385156E+02 -0.14200978147E+03  0.38203742529E+03  0.10566000000E+00 0. -1.
         -4    1    3    3    0  501  0.24499948853E+03  0.82646050234E+03 -0.90609483737E+03  0.12506276687E+04  0.00000000000E+00 0. -1.
<mgrwt>
<rscale>  0 0.12538345E+04</rscale>
<asrwt>0</asrwt>
<pdfrwt beam="1">  1        4 0.16572417E+00 0.12558447E+04</pdfrwt>
<pdfrwt beam="2">  1       -4 0.28349344E+00 0.12518275E+04</pdfrwt>
<totfact> 0.14467890E-01</totfact>
</mgrwt>
</event>
<event>
 8    1  0.2939692E-006  0.1240258E+04  0.7818608E-02  0.8595671E-01
          4   -1    0    0  502    0  0.00000000000E+00  0.00000000000E+00  0.19189265125E+04  0.19189265125E+04  0.00000000000E+00 0.  1.
         -4   -1    0    0    0  501 -0.00000000000E+00 -0.00000000000E+00 -0.16746058523E+04  0.16746058523E+04  0.00000000000E+00 0. -1.
   -9000010    2    1    2    0  501 -0.29620756609E+03  0.57894405065E+03 -0.11977776358E+04  0.17242130252E+04  0.10560890850E+04 0.  0.
    9000010    2    1    2  502    0  0.29620756609E+03 -0.57894405065E+03  0.14420982959E+04  0.18693193396E+04  0.99588762527E+03 0.  0.
        -13    1    4    4    0    0  0.15754342766E+03 -0.65763594280E+02 -0.12689895620E+03  0.21271609761E+03  0.10566000000E+00 0.  1.
          4    1    4    4  502    0  0.13866413843E+03 -0.51318045637E+03  0.15689972521E+04  0.16566032420E+04  0.00000000000E+00 0.  1.
         13    1    3    3    0    0 -0.57473616995E+03  0.69767183386E+03 -0.70707328573E+03  0.11476150467E+04  0.10566000000E+00 0. -1.
         -4    1    3    3    0  501  0.27852860385E+03 -0.11872778321E+03 -0.49070435009E+03  0.57659797855E+03  0.00000000000E+00 0. -1.
<mgrwt>
<rscale>  0 0.12145702E+04</rscale>
<asrwt>0</asrwt>
<pdfrwt beam="1">  1        4 0.29521946E+00 0.11894147E+04</pdfrwt>
<pdfrwt beam="2">  1       -4 0.25763167E+00 0.12402578E+04</pdfrwt>
<totfact> 0.74751992E-02</totfact>
</mgrwt>
</event>
<event>
 8    1  0.2939692E-006  0.1701649E+04  0.7818608E-02  0.8303892E-01
         -4   -1    0    0    0  501 -0.00000000000E+00  0.00000000000E+00  0.20408469948E+04  0.20408469948E+04  0.00000000000E+00 0. -1.
          4   -1    0    0  502    0  0.00000000000E+00 -0.00000000000E+00 -0.15831206933E+04  0.15831206933E+04  0.00000000000E+00 0.  1.
   -9000010    2    1    2    0  501 -0.89536641144E+03 -0.10453189089E+04  0.82306195470E+03  0.18835430308E+04  0.98789206680E+03 0.  0.
    9000010    2    1    2  502    0  0.89536641144E+03  0.10453189089E+04 -0.36533565322E+03  0.17404246572E+04  0.10006174174E+04 0.  0.
        -13    1    4    4    0    0  0.28964273813E+02  0.36029833552E+02  0.26462603380E+03  0.26863362967E+03  0.10566000000E+00 0.  1.
          4    1    4    4  502    0  0.86640213763E+03  0.10092890753E+04 -0.62996168702E+03  0.14717910276E+04  0.00000000000E+00 0.  1.
         13    1    3    3    0    0  0.91365461705E+02  0.12154325460E+03  0.95443300320E+01  0.15235325967E+03  0.10566000000E+00 0. -1.
         -4    1    3    3    0  501 -0.98673187314E+03 -0.11668621635E+04  0.81351762467E+03  0.17311897711E+04  0.00000000000E+00 0. -1.
<mgrwt>
<rscale>  0 0.16979187E+04</rscale>
<asrwt>0</asrwt>
<pdfrwt beam="2">  1        4 0.24355703E+00 0.17016486E+04</pdfrwt>
<pdfrwt beam="1">  1       -4 0.31397646E+00 0.16941970E+04</pdfrwt>
<totfact> 0.69244917E-02</totfact>
</mgrwt>
</event>
<event>
 8    1  0.2939692E-006  0.1081093E+04  0.7818608E-02  0.8705078E-01
         -4   -1    0    0    0  501 -0.00000000000E+00  0.00000000000E+00  0.20058128591E+04  0.20058128591E+04  0.00000000000E+00 0. -1.
          4   -1    0    0  502    0  0.00000000000E+00 -0.00000000000E+00 -0.26824734429E+04  0.26824734429E+04  0.00000000000E+00 0.  1.
   -9000010    2    1    2    0  501  0.40310596326E+03 -0.86120214817E+02  0.17373491194E+04  0.20462512433E+04  0.99942537431E+03 0.  0.
    9000010    2    1    2  502    0 -0.40310596326E+03  0.86120214817E+02 -0.24140097032E+04  0.26420350587E+04  0.99146119208E+03 0.  0.
        -13    1    4    4    0    0 -0.11354145619E+03 -0.43577957215E+03 -0.75710792156E+03  0.88091311367E+03  0.10566000000E+00 0.  1.
          4    1    4    4  502    0 -0.28956450707E+03  0.52189978697E+03 -0.16569017816E+04  0.17611219450E+04  0.00000000000E+00 0.  1.
         13    1    3    3    0    0  0.55921766472E+03  0.25338365316E+03  0.14507920318E+04  0.15753492321E+04  0.10566000000E+00 0. -1.
         -4    1    3    3    0  501 -0.15611170146E+03 -0.33950386797E+03  0.28655708760E+03  0.47090201121E+03  0.00000000000E+00 0. -1.
<mgrwt>
<rscale>  0 0.10774076E+04</rscale>
<asrwt>0</asrwt>
<pdfrwt beam="2">  1        4 0.41268822E+00 0.10737348E+04</pdfrwt>
<pdfrwt beam="1">  1       -4 0.30858659E+00 0.10810931E+04</pdfrwt>
<totfact> 0.22672109E-02</totfact>
</mgrwt>
</event>
<event>
 8    1  0.2939692E-006  0.1106945E+04  0.7818608E-02  0.8680261E-01
         -4   -1    0    0    0  501 -0.00000000000E+00  0.00000000000E+00  0.14602458563E+04  0.14602458563E+04  0.00000000000E+00 0. -1.
          4   -1    0    0  502    0  0.00000000000E+00 -0.00000000000E+00 -0.23827416649E+04  0.23827416649E+04  0.00000000000E+00 0.  1.
   -9000010    2    1    2    0  501  0.20070848830E+03 -0.42312193413E+03  0.10854620649E+04  0.15501241733E+04  0.10026669386E+04 0.  0.
    9000010    2    1    2  502    0 -0.20070848830E+03  0.42312193413E+03 -0.20079578735E+04  0.22928633479E+04  0.10030012173E+04 0.  0.
        -13    1    4    4    0    0 -0.58077315063E+03  0.10686979252E+03 -0.86289474693E+03  0.10456127201E+04  0.10566000000E+00 0.  1.
          4    1    4    4  502    0  0.38006466232E+03  0.31625214161E+03 -0.11450631266E+04  0.12472506278E+04  0.00000000000E+00 0.  1.
         13    1    3    3    0    0  0.42331470839E+03 -0.33442703093E+03  0.11642365782E+03  0.55189787155E+03  0.10566000000E+00 0. -1.
         -4    1    3    3    0  501 -0.22260622008E+03 -0.88694903204E+02  0.96903840706E+03  0.99822630171E+03  0.00000000000E+00 0. -1.
<mgrwt>
<rscale>  0 0.11067937E+04</rscale>
<asrwt>0</asrwt>
<pdfrwt beam="2">  1        4 0.36657564E+00 0.11069451E+04</pdfrwt>
<pdfrwt beam="1">  1       -4 0.22465321E+00 0.11066422E+04</pdfrwt>
<totfact> 0.55071863E-02</totfact>
</mgrwt>
</event>
<event>
 8    1  0.2939692E-006  0.1190558E+04  0.7818608E-02  0.8617952E-01
         -4   -1    0    0    0  501 -0.00000000000E+00  0.00000000000E+00  0.43477124173E+04  0.43477124173E+04  0.00000000000E+00 0. -1.
          4   -1    0    0  502    0  0.00000000000E+00 -0.00000000000E+00 -0.16629475075E+04  0.16629475075E+04  0.00000000000E+00 0.  1.
   -9000010    2    1    2    0  501 -0.62097593864E+03  0.18349014541E+03  0.40388922239E+04  0.42075819337E+04  0.98580707151E+03 0.  0.
    9000010    2    1    2  502    0  0.62097593864E+03 -0.18349014541E+03 -0.13541273141E+04  0.18030779912E+04  0.99907442653E+03 0.  0.
        -13    1    4    4    0    0  0.83032149213E+03 -0.33148040344E+03 -0.83144652338E+03  0.12209080107E+04  0.10566000000E+00 0.  1.
          4    1    4    4  502    0 -0.20934555349E+03  0.14799025803E+03 -0.52268079068E+03  0.58216998049E+03  0.00000000000E+00 0.  1.
         13    1    3    3    0    0  0.26626432547E+03  0.54198048389E+02  0.71525733325E+03  0.76513213460E+03  0.10566000000E+00 0. -1.
         -4    1    3    3    0  501 -0.88724026411E+03  0.12929209703E+03  0.33236348907E+04  0.34424497991E+04  0.00000000000E+00 0. -1.
<mgrwt>
<rscale>  0 0.11849897E+04</rscale>
<asrwt>0</asrwt>
<pdfrwt beam="2">  1        4 0.25583808E+00 0.11905585E+04</pdfrwt>
<pdfrwt beam="1">  1       -4 0.66887883E+00 0.11794470E+04</pdfrwt>
<totfact> 0.15929640E-03</totfact>
</mgrwt>
</event>
<event>
 8    1  0.2939692E-006  0.1102422E+04  0.7818608E-02  0.8692520E-01
         -4   -1    0    0    0  501 -0.00000000000E+00  0.00000000000E+00  0.17847550897E+04  0.17847550897E+04  0.00000000000E+00 0. -1.
          4   -1    0    0  502    0  0.00000000000E+00 -0.00000000000E+00 -0.13958733554E+04  0.13958733554E+04  0.00000000000E+00 0.  1.
   -9000010    2    1    2    0  501  0.40184781875E+03  0.47574741331E+00  0.13433657353E+04  0.17378047314E+04  0.10265728859E+04 0.  0.
    9000010    2    1    2  502    0 -0.40184781875E+03 -0.47574741331E+00 -0.95448400103E+03  0.14428237137E+04  0.10045987582E+04 0.  0.
        -13    1    4    4    0    0 -0.24199261210E+03 -0.11810151113E+02  0.17699936357E+03  0.30004781261E+03  0.10566000000E+00 0.  1.
          4    1    4    4  502    0 -0.15985520665E+03  0.11334403700E+02 -0.11314833646E+04  0.11427759011E+04  0.00000000000E+00 0.  1.
         13    1    3    3    0    0  0.16147245340E+03  0.12753276119E+02  0.14609694581E+04  0.14699210074E+04  0.10566000000E+00 0. -1.
         -4    1    3    3    0  501  0.24037536536E+03 -0.12277528706E+02 -0.11760372282E+03  0.26788372403E+03  0.00000000000E+00 0. -1.
<mgrwt>
<rscale>  0 0.10921577E+04</rscale>
<asrwt>0</asrwt>
<pdfrwt beam="2">  1        4 0.21474975E+00 0.10819892E+04</pdfrwt>
<pdfrwt beam="1">  1       -4 0.27457771E+00 0.11024218E+04</pdfrwt>
<totfact> 0.10885500E-01</totfact>
</mgrwt>
</event>
<event>
 8    1  0.2939692E-006  0.1672974E+04  0.7818608E-02  0.8317602E-01
          4   -1    0    0  502    0  0.00000000000E+00  0.00000000000E+00  0.25264451338E+04  0.25264451338E+04  0.00000000000E+00 0.  1.
         -4   -1    0    0    0  501 -0.00000000000E+00 -0.00000000000E+00 -0.17098277022E+04  0.17098277022E+04  0.00000000000E+00 0. -1.
   -9000010    2    1    2    0  501  0.48901676183E+02 -0.13471065304E+04 -0.85153125118E+03  0.18772176657E+04  0.99083465542E+03 0.  0.
    9000010    2    1    2  502    0 -0.48901676183E+02  0.13471065304E+04  0.16681486827E+04  0.23590551703E+04  0.98251406647E+03 0.  0.
        -13    1    4    4    0    0  0.17110956535E+03  0.83168687767E+02 -0.66485331205E+02  0.20153368058E+03  0.10566000000E+00 0.  1.
          4    1    4    4  502    0 -0.22001124154E+03  0.12639378426E+04  0.17346340139E+04  0.21575214898E+04  0.00000000000E+00 0.  1.
         13    1    3    3    0    0  0.18834010852E+02 -0.13672748872E+04 -0.40065890441E+03  0.14248939982E+04  0.10566000000E+00 0. -1.
         -4    1    3    3    0  501  0.30067665331E+02  0.20168356796E+02 -0.45087234677E+03  0.45232366752E+03  0.00000000000E+00 0. -1.
<mgrwt>
<rscale>  0 0.16705146E+04</rscale>
<asrwt>0</asrwt>
<pdfrwt beam="1">  1        4 0.38868387E+00 0.16680591E+04</pdfrwt>
<pdfrwt beam="2">  1       -4 0.26305042E+00 0.16729736E+04</pdfrwt>
<totfact> 0.34693060E-02</totfact>
</mgrwt>
</event>
<event>
 8    1  0.2939692E-006  0.1148845E+04  0.7818608E-02  0.8653860E-01
         -4   -1    0    0    0  501 -0.00000000000E+00  0.00000000000E+00  0.16487019245E+04  0.16487019245E+04  0.00000000000E+00 0. -1.
          4   -1    0    0  502    0  0.00000000000E+00 -0.00000000000E+00 -0.10120295573E+04  0.10120295573E+04  0.00000000000E+00 0.  1.
   -9000010    2    1    2    0  501  0.10561677887E+03  0.53455167907E+03  0.94337964349E+03  0.14716500808E+04  0.98938789513E+03 0.  0.
    9000010    2    1    2  502    0 -0.10561677887E+03 -0.53455167907E+03 -0.30670727630E+03  0.11890814010E+04  0.10114073478E+04 0.  0.
        -13    1    4    4    0    0  0.42381951104E+03 -0.44016551497E+03 -0.15943899886E+03  0.63149779416E+03  0.10566000000E+00 0.  1.
          4    1    4    4  502    0 -0.52943628992E+03 -0.94386164100E+02 -0.14726827743E+03  0.55758360682E+03  0.00000000000E+00 0.  1.
         13    1    3    3    0    0  0.73463018656E+02  0.19757666916E+03  0.10845809340E+04  0.11048751825E+04  0.10566000000E+00 0. -1.
         -4    1    3    3    0  501  0.32153760217E+02  0.33697500991E+03 -0.14120129052E+03  0.36677489833E+03  0.00000000000E+00 0. -1.
<mgrwt>
<rscale>  0 0.11391357E+04</rscale>
<asrwt>0</asrwt>
<pdfrwt beam="2">  1        4 0.15569685E+00 0.11488452E+04</pdfrwt>
<pdfrwt beam="1">  1       -4 0.25364645E+00 0.11295082E+04</pdfrwt>
<totfact> 0.18767321E-01</totfact>
</mgrwt>
</event>
<event>
 8    1  0.2939692E-006  0.1149214E+04  0.7818608E-02  0.8648898E-01
         -4   -1    0    0    0  501 -0.00000000000E+00  0.00000000000E+00  0.18130386791E+04  0.18130386791E+04  0.00000000000E+00 0. -1.
          4   -1    0    0  502    0  0.00000000000E+00 -0.00000000000E+00 -0.11637140921E+04  0.11637140921E+04  0.00000000000E+00 0.  1.
   -9000010    2    1    2    0  501  0.50522333719E+03 -0.25127965720E+03  0.12393485268E+04  0.16849239293E+04  0.99226598764E+03 0.  0.
    9000010    2    1    2  502    0 -0.50522333719E+03  0.25127965720E+03 -0.59002393970E+03  0.12918288419E+04  0.10011500491E+04 0.  0.
        -13    1    4    4    0    0 -0.60824967005E+03  0.31130956569E+03 -0.79894069103E+03  0.10512790047E+04  0.10566000000E+00 0.  1.
          4    1    4    4  502    0  0.10302633286E+03 -0.60029908496E+02  0.20891675133E+03  0.24054983717E+03  0.00000000000E+00 0.  1.
         13    1    3    3    0    0 -0.87169182691E+02  0.69876143754E+00  0.99115407916E+03  0.99498008748E+03  0.10566000000E+00 0. -1.
         -4    1    3    3    0  501  0.59239251988E+03 -0.25197841864E+03  0.24819444760E+03  0.68994384183E+03  0.00000000000E+00 0. -1.
<mgrwt>
<rscale>  0 0.11453422E+04</rscale>
<asrwt>0</asrwt>
<pdfrwt beam="2">  1        4 0.17903294E+00 0.11492143E+04</pdfrwt>
<pdfrwt beam="1">  1       -4 0.27892903E+00 0.11414832E+04</pdfrwt>
<totfact> 0.13434331E-01</totfact>
</mgrwt>
</event>
<event>
 8    1  0.2939692E-006  0.1110712E+04  0.7818608E-02  0.8679936E-01
          4   -1    0    0  502    0  0.00000000000E+00  0.00000000000E+00  0.24640788975E+04  0.24640788975E+04  0.00000000000E+00 0.  1.
         -4   -1    0    0    0  501 -0.00000000000E+00 -0.00000000000E+00 -0.95841807222E+03  0.95841807222E+03  0.00000000000E+00 0. -1.
   -9000010    2    1    2    0  501  0.42996329487E+03  0.14277546745E+03 -0.43264576191E+03  0.11919999851E+04  0.10141145597E+04 0.  0.
    9000010    2    1    2  502    0 -0.42996329487E+03 -0.14277546745E+03  0.19383065871E+04  0.22304969845E+04  0.10063951030E+04 0.  0.
        -13    1    4    4    0    0 -0.46954403715E+03 -0.26438068982E+03  0.20119926617E+04  0.20829025983E+04  0.10566000000E+00 0.  1.
          4    1    4    4  502    0  0.39580742288E+02  0.12160522237E+03 -0.73686074578E+02  0.14759438626E+03  0.00000000000E+00 0.  1.
         13    1    3    3    0    0 -0.10786348582E+03  0.26452025723E+03 -0.55766228412E+03  0.62657220841E+03  0.10566000000E+00 0. -1.
         -4    1    3    3    0  501  0.53782678069E+03 -0.12174478979E+03  0.12501652221E+03  0.56542777672E+03  0.00000000000E+00 0. -1.
<mgrwt>
<rscale>  0 0.11071848E+04</rscale>
<asrwt>0</asrwt>
<pdfrwt beam="1">  1        4 0.37908906E+00 0.11036686E+04</pdfrwt>
<pdfrwt beam="2">  1       -4 0.14744893E+00 0.11107122E+04</pdfrwt>
<totfact> 0.87694930E-02</totfact>
</mgrwt>
</event>
<event>
 8    1  0.2939692E-006  0.1977219E+04  0.7818608E-02  0.8194546E-01
          4   -1    0    0  502    0  0.00000000000E+00  0.00000000000E+00  0.45675282408E+04  0.45675282408E+04  0.00000000000E+00 0.  1.
         -4   -1    0    0    0  501 -0.00000000000E+00 -0.00000000000E+00 -0.94967818004E+03  0.94967818004E+03  0.00000000000E+00 0. -1.
   -9000010    2    1    2    0  501  0.16529428986E+04  0.40217002005E+03  0.76453031867E+03  0.20457761229E+04  0.84067376894E+03 0.  0.
    9000010    2    1    2  502    0 -0.16529428986E+04 -0.40217002005E+03  0.28533197421E+04  0.34714302980E+04  0.10076873581E+04 0.  0.
        -13    1    4    4    0    0 -0.60827188871E+03 -0.20648033982E+03  0.20234982587E+04  0.21230106065E+04  0.10566000000E+00 0.  1.
          4    1    4    4  502    0 -0.10446710099E+04 -0.19568968023E+03  0.82982148345E+03  0.13484196914E+04  0.00000000000E+00 0.  1.
         13    1    3    3    0    0  0.12728885055E+04 -0.19604084424E+02  0.75062811012E+03  0.14778606289E+04  0.10566000000E+00 0. -1.
         -4    1    3    3    0  501  0.38005439307E+03  0.42177410447E+03  0.13902208546E+02  0.56791549398E+03  0.00000000000E+00 0. -1.
<mgrwt>
<rscale>  0 0.19369746E+04</rscale>
<asrwt>0</asrwt>
<pdfrwt beam="1">  1        4 0.70269664E+00 0.19772189E+04</pdfrwt>
<pdfrwt beam="2">  1       -4 0.14610434E+00 0.18975493E+04</pdfrwt>
<totfact> 0.22084441E-03</totfact>
</mgrwt>
</event>
<event>
 8    1  0.2939692E-006  0.1329016E+04  0.7818608E-02  0.8515733E-01
         -4   -1    0    0    0  501 -0.00000000000E+00  0.00000000000E+00  0.12790164114E+04  0.12790164114E+04  0.00000000000E+00 0. -1.
          4   -1    0    0  502    0  0.00000000000E+00 -0.00000000000E+00 -0.28673358066E+04  0.28673358066E+04  0.00000000000E+00 0.  1.
   -9000010    2    1    2    0  501 -0.57620333748E+03 -0.65649077412E+03  0.69942758353E+03  0.15005875486E+04  0.99978678909E+03 0.  0.
    9000010    2    1    2  502    0  0.57620333748E+03  0.65649077412E+03 -0.22877469787E+04  0.26457646695E+04  0.10016456584E+04 0.  0.
        -13    1    4    4    0    0  0.78089870073E+03  0.67285371732E+03 -0.14239061494E+04  0.17578519958E+04  0.10566000000E+00 0.  1.
          4    1    4    4  502    0 -0.20469536325E+03 -0.16362943200E+02 -0.86384082930E+03  0.88791267364E+03  0.00000000000E+00 0.  1.
         13    1    3    3    0    0  0.50602726599E+02 -0.53157338434E+03  0.67542431429E+03  0.86100459602E+03  0.10566000000E+00 0. -1.
         -4    1    3    3    0  501 -0.62680606408E+03 -0.12491738978E+03  0.24003269244E+02  0.63958295253E+03  0.00000000000E+00 0. -1.
<mgrwt>
<rscale>  0 0.13283160E+04</rscale>
<asrwt>0</asrwt>
<pdfrwt beam="2">  1        4 0.44112858E+00 0.13290163E+04</pdfrwt>
<pdfrwt beam="1">  1       -4 0.19677176E+00 0.13276159E+04</pdfrwt>
<totfact> 0.31911626E-02</totfact>
</mgrwt>
</event>
<event>
 8    1  0.2939692E-006  0.1153354E+04  0.7818608E-02  0.8643154E-01
         -4   -1    0    0    0  501 -0.00000000000E+00  0.00000000000E+00  0.13165005555E+04  0.13165005555E+04  0.00000000000E+00 0. -1.
          4   -1    0    0  502    0  0.00000000000E+00 -0.00000000000E+00 -0.33884374790E+04  0.33884374790E+04  0.00000000000E+00 0.  1.
   -9000010    2    1    2    0  501  0.55506094295E+03 -0.13650990741E+03  0.93555081541E+03  0.14838810637E+04  0.99996003808E+03 0.  0.
    9000010    2    1    2  502    0 -0.55506094295E+03  0.13650990741E+03 -0.30074877389E+04  0.32210569708E+04  0.10017474253E+04 0.  0.
        -13    1    4    4    0    0 -0.16405758224E+03  0.73253457123E+02 -0.27335986207E+04  0.27394967402E+04  0.10566000000E+00 0.  1.
          4    1    4    4  502    0 -0.39100336071E+03  0.63256450285E+02 -0.27388911820E+03  0.48156023056E+03  0.00000000000E+00 0.  1.
         13    1    3    3    0    0  0.83854320308E+03 -0.13348316506E+03  0.57612401314E+03  0.10261049403E+04  0.10566000000E+00 0. -1.
         -4    1    3    3    0  501 -0.28348226013E+03 -0.30267423477E+01  0.35942680227E+03  0.45777612341E+03  0.00000000000E+00 0. -1.
<mgrwt>
<rscale>  0 0.11525777E+04</rscale>
<asrwt>0</asrwt>
<pdfrwt beam="2">  1        4 0.52129807E+00 0.11533540E+04</pdfrwt>
<pdfrwt beam="1">  1       -4 0.20253855E+00 0.11518019E+04</pdfrwt>
<totfact> 0.13154490E-02</totfact>
</mgrwt>
</event>
<event>
 8    1  0.2939692E-006  0.1066515E+04  0.7818608E-02  0.8718946E-01
         -4   -1    0    0    0  501 -0.00000000000E+00  0.00000000000E+00  0.12273850965E+04  0.12273850965E+04  0.00000000000E+00 0. -1.
          4   -1    0    0  502    0  0.00000000000E+00 -0.00000000000E+00 -0.97737125594E+03  0.97737125594E+03  0.00000000000E+00 0.  1.
   -9000010    2    1    2    0  501  0.34109942412E+03 -0.28921380786E+02  0.39640482355E+03  0.11282409163E+04  0.99930251563E+03 0.  0.
    9000010    2    1    2  502    0 -0.34109942412E+03  0.28921380786E+02 -0.14639098298E+03  0.10765154361E+04  0.10100841059E+04 0.  0.
        -13    1    4    4    0    0 -0.52976476956E+03  0.34506545211E+03  0.90569455921E+02  0.63868905957E+03  0.10566000000E+00 0.  1.
          4    1    4    4  502    0  0.18866534544E+03 -0.31614407132E+03 -0.23696043890E+03  0.43782637655E+03  0.00000000000E+00 0.  1.
         13    1    3    3    0    0  0.76924335546E+02 -0.40898759769E+03 -0.12160909084E+03  0.43356313336E+03  0.10566000000E+00 0. -1.
         -4    1    3    3    0  501  0.26417508857E+03  0.38006621691E+03  0.51801391439E+03  0.69467778298E+03  0.00000000000E+00 0. -1.
<mgrwt>
<rscale>  0 0.10614004E+04</rscale>
<asrwt>0</asrwt>
<pdfrwt beam="2">  1        4 0.15036481E+00 0.10665154E+04</pdfrwt>
<pdfrwt beam="1">  1       -4 0.18882848E+00 0.10563100E+04</pdfrwt>
<totfact> 0.29085718E-01</totfact>
</mgrwt>
</event>
<event>
 8    1  0.2939692E-006  0.1102105E+04  0.7818608E-02  0.8695176E-01
         -4   -1    0    0    0  501 -0.00000000000E+00  0.00000000000E+00  0.89589315354E+03  0.89589315354E+03  0.00000000000E+00 0. -1.
          4   -1    0    0  502    0  0.00000000000E+00 -0.00000000000E+00 -0.13964183992E+04  0.13964183992E+04  0.00000000000E+00 0.  1.
   -9000010    2    1    2    0  501  0.15923715539E+03 -0.39711385572E+03  0.13638205249E+02  0.10761703192E+04  0.98737058350E+03 0.  0.
    9000010    2    1    2  502    0 -0.15923715539E+03  0.39711385572E+03 -0.51416345092E+03  0.12161412336E+04  0.10156670516E+04 0.  0.
        -13    1    4    4    0    0  0.87319086144E+02 -0.33046480968E+02  0.27150433490E+03  0.28710852955E+03  0.10566000000E+00 0.  1.
          4    1    4    4  502    0 -0.24655624154E+03  0.43016033669E+03 -0.78566778582E+03  0.92903270404E+03  0.00000000000E+00 0.  1.
         13    1    3    3    0    0  0.45182715884E+03 -0.14179871900E+03 -0.31391191190E+03  0.56815082309E+03  0.10566000000E+00 0. -1.
         -4    1    3    3    0  501 -0.29259000345E+03 -0.25531513671E+03  0.32755011715E+03  0.50801949608E+03  0.00000000000E+00 0. -1.
<mgrwt>
<rscale>  0 0.10890167E+04</rscale>
<asrwt>0</asrwt>
<pdfrwt beam="2">  1        4 0.21483360E+00 0.11021050E+04</pdfrwt>
<pdfrwt beam="1">  1       -4 0.13782972E+00 0.10760839E+04</pdfrwt>
<totfact> 0.28025640E-01</totfact>
</mgrwt>
</event>
<event>
 8    1  0.2939692E-006  0.1033705E+04  0.7818608E-02  0.8761413E-01
          4   -1    0    0  502    0  0.00000000000E+00  0.00000000000E+00  0.41334574158E+04  0.41334574158E+04  0.00000000000E+00 0.  1.
         -4   -1    0    0    0  501 -0.00000000000E+00 -0.00000000000E+00 -0.43933748105E+03  0.43933748105E+03  0.00000000000E+00 0. -1.
   -9000010    2    1    2    0  501 -0.22087469556E+03  0.27602837448E+02  0.36193122115E+03  0.10952351958E+04  0.10094544951E+04 0.  0.
    9000010    2    1    2  502    0  0.22087469556E+03 -0.27602837448E+02  0.33321887136E+04  0.34775597010E+04  0.96973826533E+03 0.  0.
        -13    1    4    4    0    0 -0.14089283265E+03 -0.42833700617E+03  0.13593708411E+04  0.14322054587E+04  0.10566000000E+00 0.  1.
          4    1    4    4  502    0  0.36176752821E+03  0.40073416872E+03  0.19728178725E+04  0.20453542423E+04  0.00000000000E+00 0.  1.
         13    1    3    3    0    0  0.36391365041E+03 -0.89344158700E+01 -0.65631267772E+02  0.36989247521E+03  0.10566000000E+00 0. -1.
         -4    1    3    3    0  501 -0.58478834596E+03  0.36537253318E+02  0.42756248892E+03  0.72534272064E+03  0.00000000000E+00 0. -1.
<mgrwt>
<rscale>  0 0.10141460E+04</rscale>
<asrwt>0</asrwt>
<pdfrwt beam="1">  1        4 0.63591650E+00 0.99495721E+03</pdfrwt>
<pdfrwt beam="2">  1       -4 0.67590385E-01 0.10337050E+04</pdfrwt>
<totfact> 0.22234103E-02</totfact>
</mgrwt>
</event>
<event>
 8    1  0.2939692E-006  0.1366293E+04  0.7818608E-02  0.8491623E-01
         -4   -1    0    0    0  501 -0.00000000000E+00  0.00000000000E+00  0.11454791853E+04  0.11454791853E+04  0.00000000000E+00 0. -1.
          4   -1    0    0  502    0  0.00000000000E+00 -0.00000000000E+00 -0.30087205440E+04  0.30087205440E+04  0.00000000000E+00 0.  1.
   -9000010    2    1    2    0  501  0.44531430542E+03  0.82715600876E+03  0.47646966004E+03  0.14447709882E+04  0.98886196097E+03 0.  0.
    9000010    2    1    2  502    0 -0.44531430542E+03 -0.82715600876E+03 -0.23397110187E+04  0.27094287412E+04  0.99210108310E+03 0.  0.
        -13    1    4    4    0    0 -0.65257033263E+03 -0.50567176517E+03 -0.90665487903E+03  0.12262035124E+04  0.10566000000E+00 0.  1.
          4    1    4    4  502    0  0.20725602720E+03 -0.32148424358E+03 -0.14330561397E+04  0.14832252288E+04  0.00000000000E+00 0.  1.
         13    1    3    3    0    0 -0.69744911327E+02 -0.19785754874E+03  0.12848226802E+03  0.24600745234E+03  0.10566000000E+00 0. -1.
         -4    1    3    3    0  501  0.51505921675E+03  0.10250135575E+04  0.34798739203E+03  0.11987635358E+04  0.00000000000E+00 0. -1.
<mgrwt>
<rscale>  0 0.13651174E+04</rscale>
<asrwt>0</asrwt>
<pdfrwt beam="2">  1        4 0.46288008E+00 0.13662930E+04</pdfrwt>
<pdfrwt beam="1">  1       -4 0.17622757E+00 0.13639428E+04</pdfrwt>
<totfact> 0.29092117E-02</totfact>
</mgrwt>
</event>
<event>
 8    1  0.2939692E-006  0.1088276E+04  0.7818608E-02  0.8697773E-01
          4   -1    0    0  502    0  0.00000000000E+00  0.00000000000E+00  0.20726148699E+04  0.20726148699E+04  0.00000000000E+00 0.  1.
         -4   -1    0    0    0  501 -0.00000000000E+00 -0.00000000000E+00 -0.17987706280E+04  0.17987706280E+04  0.00000000000E+00 0. -1.
   -9000010    2    1    2    0  501  0.43675525946E+03  0.63839310386E+01 -0.14636900848E+04  0.18211734018E+04  0.99170962670E+03 0.  0.
    9000010    2    1    2  502    0 -0.43675525946E+03 -0.63839310386E+01  0.17375343268E+04  0.20502120961E+04  0.99676887532E+03 0.  0.
        -13    1    4    4    0    0 -0.52452687690E+03  0.31131722359E+03  0.15618101652E+04  0.16766925364E+04  0.10566000000E+00 0.  1.
          4    1    4    4  502    0  0.87771617431E+02 -0.31770115463E+03  0.17572416156E+03  0.37351955964E+03  0.00000000000E+00 0.  1.
         13    1    3    3    0    0  0.25410374661E+03 -0.47248736667E+03 -0.51917415733E+03  0.74656201518E+03  0.10566000000E+00 0. -1.
         -4    1    3    3    0  501  0.18265151285E+03  0.47887129771E+03 -0.94451592752E+03  0.10746113866E+04  0.00000000000E+00 0. -1.
<mgrwt>
<rscale>  0 0.10859573E+04</rscale>
<asrwt>0</asrwt>
<pdfrwt beam="1">  1        4 0.31886383E+00 0.10882757E+04</pdfrwt>
<pdfrwt beam="2">  1       -4 0.27673394E+00 0.10836438E+04</pdfrwt>
<totfact> 0.58812727E-02</totfact>
</mgrwt>
</event>
<event>
 8    1  0.2939692E-006  0.1025981E+04  0.7818608E-02  0.8751080E-01
         -4   -1    0    0    0  501 -0.00000000000E+00  0.00000000000E+00  0.24460969027E+04  0.24460969027E+04  0.00000000000E+00 0. -1.
          4   -1    0    0  502    0  0.00000000000E+00 -0.00000000000E+00 -0.57997125598E+03  0.57997125598E+03  0.00000000000E+00 0.  1.
   -9000010    2    1    2    0  501  0.22719809095E+03 -0.68806793759E+02  0.17032269482E+04  0.19883709567E+04  0.99814010897E+03 0.  0.
    9000010    2    1    2  502    0 -0.22719809095E+03  0.68806793759E+02  0.16289869856E+03  0.10376972020E+04  0.99695844929E+03 0.  0.
        -13    1    4    4    0    0  0.21964649661E+03  0.40556370247E+03  0.11969029123E+03  0.47650002856E+03  0.10566000000E+00 0.  1.
          4    1    4    4  502    0 -0.44684458756E+03 -0.33675690871E+03  0.43208407327E+02  0.56119717343E+03  0.00000000000E+00 0.  1.
         13    1    3    3    0    0 -0.11909739698E+03  0.38750381009E+03  0.10148566264E+04  0.10928299850E+04  0.10566000000E+00 0. -1.
         -4    1    3    3    0  501  0.34629548793E+03 -0.45631060384E+03  0.68837032182E+03  0.89554097176E+03  0.00000000000E+00 0. -1.
<mgrwt>
<rscale>  0 0.10254061E+04</rscale>
<asrwt>0</asrwt>
<pdfrwt beam="2">  1        4 0.89226349E-01 0.10248314E+04</pdfrwt>
<pdfrwt beam="1">  1       -4 0.37632259E+00 0.10259810E+04</pdfrwt>
<totfact> 0.21690336E-01</totfact>
</mgrwt>
</event>
<event>
 8    1  0.2939692E-006  0.1078189E+04  0.7818608E-02  0.8752479E-01
         -4   -1    0    0    0  501 -0.00000000000E+00  0.00000000000E+00  0.15397505120E+04  0.15397505120E+04  0.00000000000E+00 0. -1.
          4   -1    0    0  502    0  0.00000000000E+00 -0.00000000000E+00 -0.17432797025E+04  0.17432797025E+04  0.00000000000E+00 0.  1.
   -9000010    2    1    2    0  501  0.19009924539E+03 -0.14755853793E+03  0.11800145816E+04  0.15289820476E+04  0.94204057439E+03 0.  0.
    9000010    2    1    2  502    0 -0.19009924539E+03  0.14755853793E+03 -0.13835437722E+04  0.17540481669E+04  0.10509901793E+04 0.  0.
        -13    1    4    4    0    0  0.98168539547E+02  0.17668832082E+03 -0.14439949750E+04  0.14580731545E+04  0.10566000000E+00 0.  1.
          4    1    4    4  502    0 -0.28826778494E+03 -0.29129782892E+02  0.60451202764E+02  0.29597501246E+03  0.00000000000E+00 0.  1.
         13    1    3    3    0    0 -0.34194907775E+03 -0.13578050790E+03  0.21280618162E+03  0.42503176375E+03  0.10566000000E+00 0. -1.
         -4    1    3    3    0  501  0.53204832314E+03 -0.11778030026E+02  0.96720840002E+03  0.11039502839E+04  0.00000000000E+00 0. -1.
<mgrwt>
<rscale>  0 0.10238723E+04</rscale>
<asrwt>0</asrwt>
<pdfrwt beam="2">  1        4 0.26819688E+00 0.10781890E+04</pdfrwt>
<pdfrwt beam="1">  1       -4 0.23688469E+00 0.97229198E+03</pdfrwt>
<totfact> 0.99770010E-02</totfact>
</mgrwt>
</event>
<event>
 8    1  0.2939692E-006  0.1531293E+04  0.7818608E-02  0.8395843E-01
         -4   -1    0    0    0  501 -0.00000000000E+00  0.00000000000E+00  0.20089428909E+04  0.20089428909E+04  0.00000000000E+00 0. -1.
          4   -1    0    0  502    0  0.00000000000E+00 -0.00000000000E+00 -0.31634617634E+04  0.31634617634E+04  0.00000000000E+00 0.  1.
   -9000010    2    1    2    0  501 -0.10912563994E+04 -0.35167639958E+03  0.14838820291E+04  0.21218282826E+04  0.99284065456E+03 0.  0.
    9000010    2    1    2  502    0  0.10912563994E+04  0.35167639958E+03 -0.26384009016E+04  0.30505763718E+04  0.10150566797E+04 0.  0.
        -13    1    4    4    0    0 -0.46242710048E+02  0.32890222380E+03 -0.10167452529E+04  0.10696195499E+04  0.10566000000E+00 0.  1.
          4    1    4    4  502    0  0.11374991095E+04  0.22774175781E+02 -0.16216556487E+04  0.19809568218E+04  0.00000000000E+00 0.  1.
         13    1    3    3    0    0 -0.75022489377E+03 -0.62379969233E+03  0.13495768819E+04  0.16653291623E+04  0.10566000000E+00 0. -1.
         -4    1    3    3    0  501 -0.34103150567E+03  0.27212329275E+03  0.13430514718E+03  0.45649912034E+03  0.00000000000E+00 0. -1.
<mgrwt>
<rscale>  0 0.15239574E+04</rscale>
<asrwt>0</asrwt>
<pdfrwt beam="2">  1        4 0.48668643E+00 0.15312926E+04</pdfrwt>
<pdfrwt beam="1">  1       -4 0.30906814E+00 0.15166573E+04</pdfrwt>
<totfact> 0.97602703E-03</totfact>
</mgrwt>
</event>
<event>
 8    1  0.2939692E-006  0.1130735E+04  0.7818608E-02  0.8709592E-01
          4   -1    0    0  502    0  0.00000000000E+00  0.00000000000E+00  0.13400548248E+04  0.13400548248E+04  0.00000000000E+00 0.  1.
         -4   -1    0    0    0  501 -0.00000000000E+00 -0.00000000000E+00 -0.14366082093E+04  0.14366082093E+04  0.00000000000E+00 0. -1.
   -9000010    2    1    2    0  501  0.93982732472E+01  0.17262026455E+03 -0.92843060546E+03  0.14630605057E+04  0.11174419765E+04 0.  0.
    9000010    2    1    2  502    0 -0.93982732472E+01 -0.17262026455E+03  0.83187722094E+03  0.13136025284E+04  0.10018212458E+04 0.  0.
        -13    1    4    4    0    0 -0.11611140137E+03 -0.21691317895E+03  0.10437055487E+04  0.10723126728E+04  0.10566000000E+00 0.  1.
          4    1    4    4  502    0  0.10671312813E+03  0.44292914395E+02 -0.21182832774E+03  0.24128985560E+03  0.00000000000E+00 0.  1.
         13    1    3    3    0    0  0.54344606551E+03 -0.44608901824E+02 -0.35979141268E+03  0.65327900015E+03  0.10566000000E+00 0. -1.
         -4    1    3    3    0  501 -0.53404779226E+03  0.21722916638E+03 -0.56863919278E+03  0.80978150553E+03  0.00000000000E+00 0. -1.
<mgrwt>
<rscale>  0 0.10721646E+04</rscale>
<asrwt>0</asrwt>
<pdfrwt beam="1">  1        4 0.20616228E+00 0.10166277E+04</pdfrwt>
<pdfrwt beam="2">  1       -4 0.22101665E+00 0.11307354E+04</pdfrwt>
<totfact> 0.15412690E-01</totfact>
</mgrwt>
</event>
<event>
 8    1  0.2939692E-006  0.1044619E+04  0.7818608E-02  0.8762009E-01
          4   -1    0    0  502    0  0.00000000000E+00  0.00000000000E+00  0.16859697578E+04  0.16859697578E+04  0.00000000000E+00 0.  1.
         -4   -1    0    0    0  501 -0.00000000000E+00 -0.00000000000E+00 -0.10274255503E+04  0.10274255503E+04  0.00000000000E+00 0. -1.
   -9000010    2    1    2    0  501 -0.35374295597E+03  0.22174578748E+03 -0.52954322586E+03  0.11711728662E+04  0.95756178980E+03 0.  0.
    9000010    2    1    2  502    0  0.35374295597E+03 -0.22174578748E+03  0.11880874334E+04  0.15422224419E+04  0.89027694432E+03 0.  0.
        -13    1    4    4    0    0 -0.29333287091E+03 -0.15042088425E+03  0.45403321534E+03  0.56108536549E+03  0.10566000000E+00 0.  1.
          4    1    4    4  502    0  0.64707582688E+03 -0.71324903228E+02  0.73405421809E+03  0.98113707638E+03  0.00000000000E+00 0.  1.
         13    1    3    3    0    0 -0.16731094921E+03 -0.27651039585E+03 -0.55095380264E+03  0.63874960395E+03  0.10566000000E+00 0. -1.
         -4    1    3    3    0  501 -0.18643200676E+03  0.49825618334E+03  0.21410576778E+02  0.53242326224E+03  0.00000000000E+00 0. -1.
<mgrwt>
<rscale>  0 0.10135012E+04</rscale>
<asrwt>0</asrwt>
<pdfrwt beam="1">  1        4 0.25937996E+00 0.98330988E+03</pdfrwt>
<pdfrwt beam="2">  1       -4 0.15806547E+00 0.10446195E+04</pdfrwt>
<totfact> 0.17918381E-01</totfact>
</mgrwt>
</event>
<event>
 8    1  0.2939692E-006  0.1342239E+04  0.7818608E-02  0.8525534E-01
          4   -1    0    0  502    0  0.00000000000E+00  0.00000000000E+00  0.23196706278E+04  0.23196706278E+04  0.00000000000E+00 0.  1.
         -4   -1    0    0    0  501 -0.00000000000E+00 -0.00000000000E+00 -0.87506645638E+03  0.87506645638E+03  0.00000000000E+00 0. -1.
   -9000010    2    1    2    0  501  0.25869071756E+02  0.81849764400E+03  0.11820388978E+03  0.13474335721E+04  0.10634836480E+04 0.  0.
    9000010    2    1    2  502    0 -0.25869071756E+02 -0.81849764400E+03  0.13264002816E+04  0.18473035120E+04  0.99125423400E+03 0.  0.
        -13    1    4    4    0    0  0.37819153606E+03 -0.98667975602E+02  0.16932756667E+03  0.42595309995E+03  0.10566000000E+00 0.  1.
          4    1    4    4  502    0 -0.40406060781E+03 -0.71982966840E+03  0.11570727150E+04  0.14213504121E+04  0.00000000000E+00 0.  1.
         13    1    3    3    0    0  0.17662864399E+03 -0.11004099179E+03  0.32344330721E+03  0.38460665868E+03  0.10566000000E+00 0. -1.
         -4    1    3    3    0  501 -0.15075957223E+03  0.92853863579E+03 -0.20523941743E+03  0.96282691344E+03  0.00000000000E+00 0. -1.
<mgrwt>
<rscale>  0 0.13136987E+04</rscale>
<asrwt>0</asrwt>
<pdfrwt beam="1">  1        4 0.35687240E+00 0.12857654E+04</pdfrwt>
<pdfrwt beam="2">  1       -4 0.13462561E+00 0.13422388E+04</pdfrwt>
<totfact> 0.11986499E-01</totfact>
</mgrwt>
</event>
<event>
 8    1  0.2939692E-006  0.1062706E+04  0.7818608E-02  0.8722460E-01
         -4   -1    0    0    0  501 -0.00000000000E+00  0.00000000000E+00  0.13306110513E+04  0.13306110513E+04  0.00000000000E+00 0. -1.
          4   -1    0    0  502    0  0.00000000000E+00 -0.00000000000E+00 -0.15022982958E+04  0.15022982958E+04  0.00000000000E+00 0.  1.
   -9000010    2    1    2    0  501  0.15104461613E+03 -0.23893115347E+03  0.85418498002E+03  0.13634427970E+04  0.10244226219E+04 0.  0.
    9000010    2    1    2  502    0 -0.15104461613E+03  0.23893115347E+03 -0.10258722246E+04  0.14694665502E+04  0.10134177563E+04 0.  0.
        -13    1    4    4    0    0 -0.33030960413E+03  0.57178875726E+03 -0.76262410491E+03  0.10087826099E+04  0.10566000000E+00 0.  1.
          4    1    4    4  502    0  0.17926498800E+03 -0.33285760379E+03 -0.26324811965E+03  0.46068394027E+03  0.00000000000E+00 0.  1.
         13    1    3    3    0    0 -0.31312420581E+03 -0.45138493256E+03  0.39266009380E+03  0.67526075411E+03  0.10566000000E+00 0. -1.
         -4    1    3    3    0  501  0.46416882195E+03  0.21245377909E+03  0.46152488621E+03  0.68818204286E+03  0.00000000000E+00 0. -1.
<mgrwt>
<rscale>  0 0.10573906E+04</rscale>
<asrwt>0</asrwt>
<pdfrwt beam="2">  1        4 0.23112281E+00 0.10521018E+04</pdfrwt>
<pdfrwt beam="1">  1       -4 0.20470939E+00 0.10627061E+04</pdfrwt>
<totfact> 0.14676553E-01</totfact>
</mgrwt>
</event>
<event>
 8    1  0.2939692E-006  0.1015975E+04  0.7818608E-02  0.8762144E-01
          4   -1    0    0  502    0  0.00000000000E+00  0.00000000000E+00  0.14352988906E+04  0.14352988906E+04  0.00000000000E+00 0.  1.
         -4   -1    0    0    0  501 -0.00000000000E+00 -0.00000000000E+00 -0.38525896995E+04  0.38525896995E+04  0.00000000000E+00 0. -1.
   -9000010    2    1    2    0  501  0.15681963106E+03 -0.57983451167E+01 -0.35950688495E+04  0.37358699580E+04  0.10037819948E+04 0.  0.
    9000010    2    1    2  502    0 -0.15681963106E+03  0.57983451167E+01  0.11777780406E+04  0.15520186321E+04  0.99848620621E+03 0.  0.
        -13    1    4    4    0    0 -0.72025464306E+02  0.42061280772E+03  0.17079192285E+03  0.45964409450E+03  0.10566000000E+00 0.  1.
          4    1    4    4  502    0 -0.84794166758E+02 -0.41481446261E+03  0.10069861177E+04  0.10923745376E+04  0.00000000000E+00 0.  1.
         13    1    3    3    0    0  0.24494324370E+03  0.42854562626E+03 -0.26018167936E+04  0.26482256673E+04  0.10566000000E+00 0. -1.
         -4    1    3    3    0  501 -0.88123612640E+02 -0.43434397137E+03 -0.99325205593E+03  0.10876442907E+04  0.00000000000E+00 0. -1.
<mgrwt>
<rscale>  0 0.10133552E+04</rscale>
<asrwt>0</asrwt>
<pdfrwt beam="1">  1        4 0.22081521E+00 0.10107427E+04</pdfrwt>
<pdfrwt beam="2">  1       -4 0.59270611E+00 0.10159746E+04</pdfrwt>
<totfact> 0.51427053E-03</totfact>
</mgrwt>
</event>
<event>
 8    1  0.2939692E-006  0.1040199E+04  0.7818608E-02  0.8774556E-01
          4   -1    0    0  502    0  0.00000000000E+00  0.00000000000E+00  0.11050315703E+04  0.11050315703E+04  0.00000000000E+00 0.  1.
         -4   -1    0    0    0  501 -0.00000000000E+00 -0.00000000000E+00 -0.17047754886E+04  0.17047754886E+04  0.00000000000E+00 0. -1.
   -9000010    2    1    2    0  501 -0.15055522824E+03  0.73904993802E+02 -0.12671639429E+04  0.16394260358E+04  0.10265887413E+04 0.  0.
    9000010    2    1    2  502    0  0.15055522824E+03 -0.73904993802E+02  0.66742002458E+03  0.11703810231E+04  0.94668549437E+03 0.  0.
        -13    1    4    4    0    0  0.29443576887E+03 -0.27409202254E+02  0.86926218562E+03  0.91818323056E+03  0.10566000000E+00 0.  1.
          4    1    4    4  502    0 -0.14388054063E+03 -0.46495791547E+02 -0.20184216105E+03  0.25219779258E+03  0.00000000000E+00 0.  1.
         13    1    3    3    0    0 -0.23411281535E+03  0.82279778439E+01 -0.14277586687E+04  0.14468487610E+04  0.10566000000E+00 0. -1.
         -4    1    3    3    0  501  0.83557587106E+02  0.65677015958E+02  0.16059472584E+03  0.19257727476E+03  0.00000000000E+00 0. -1.
<mgrwt>
<rscale>  0 0.10000376E+04</rscale>
<asrwt>0</asrwt>
<pdfrwt beam="1">  1        4 0.17000486E+00 0.96142719E+03</pdfrwt>
<pdfrwt beam="2">  1       -4 0.26227315E+00 0.10401987E+04</pdfrwt>
<totfact> 0.15923104E-01</totfact>
</mgrwt>
</event>
<event>
 8    1  0.2939692E-006  0.1045008E+04  0.7818608E-02  0.8776249E-01
         -4   -1    0    0    0  501 -0.00000000000E+00  0.00000000000E+00  0.74104966814E+03  0.74104966814E+03  0.00000000000E+00 0. -1.
          4   -1    0    0  502    0  0.00000000000E+00 -0.00000000000E+00 -0.29180509677E+04  0.29180509677E+04  0.00000000000E+00 0.  1.
   -9000010    2    1    2    0  501  0.21099495116E+03  0.46487798079E+02  0.23006864690E+03  0.10700343116E+04  0.10224293917E+04 0.  0.
    9000010    2    1    2  502    0 -0.21099495116E+03 -0.46487798079E+02 -0.24070699464E+04  0.25890663242E+04  0.92876192812E+03 0.  0.
        -13    1    4    4    0    0 -0.53838727990E+03 -0.22136508523E+03 -0.14997757157E+04  0.16087854340E+04  0.10566000000E+00 0.  1.
          4    1    4    4  502    0  0.32739232874E+03  0.17487728715E+03 -0.90729423078E+03  0.98028089020E+03  0.00000000000E+00 0.  1.
         13    1    3    3    0    0 -0.19518775571E+01 -0.47783226289E+03  0.13150630169E+03  0.49560205794E+03  0.10566000000E+00 0. -1.
         -4    1    3    3    0  501  0.21294682872E+03  0.52432006097E+03  0.98562345212E+02  0.57443225370E+03  0.00000000000E+00 0. -1.
<mgrwt>
<rscale>  0 0.99823795E+03</rscale>
<asrwt>0</asrwt>
<pdfrwt beam="2">  1        4 0.44893092E+00 0.95356106E+03</pdfrwt>
<pdfrwt beam="1">  1       -4 0.11400764E+00 0.10450081E+04</pdfrwt>
<totfact> 0.69074543E-02</totfact>
</mgrwt>
</event>
<event>
 8    1  0.2939692E-006  0.1315014E+04  0.7818608E-02  0.8528923E-01
         -4   -1    0    0    0  501 -0.00000000000E+00  0.00000000000E+00  0.10524582022E+04  0.10524582022E+04  0.00000000000E+00 0. -1.
          4   -1    0    0  502    0  0.00000000000E+00 -0.00000000000E+00 -0.31218380523E+04  0.31218380523E+04  0.00000000000E+00 0.  1.
   -9000010    2    1    2    0  501  0.13489243931E+03 -0.82487244003E+03  0.40679564394E+03  0.13764968811E+04  0.10152095622E+04 0.  0.
    9000010    2    1    2  502    0 -0.13489243931E+03  0.82487244003E+03 -0.24761754941E+04  0.27977993734E+04  0.99881216650E+03 0.  0.
        -13    1    4    4    0    0  0.22565506530E+03  0.87023321278E+03 -0.20451926056E+04  0.22340633067E+04  0.10566000000E+00 0.  1.
          4    1    4    4  502    0 -0.36054750461E+03 -0.45360772748E+02 -0.43098288854E+03  0.56373606679E+03  0.00000000000E+00 0.  1.
         13    1    3    3    0    0 -0.12029365223E+03 -0.88231643252E+03  0.58006184604E+03  0.10627439044E+04  0.10566000000E+00 0. -1.
         -4    1    3    3    0  501  0.25518609154E+03  0.57443992493E+02 -0.17326620210E+03  0.31375297669E+03  0.00000000000E+00 0. -1.
<mgrwt>
<rscale>  0 0.13086898E+04</rscale>
<asrwt>0</asrwt>
<pdfrwt beam="2">  1        4 0.48028278E+00 0.13023964E+04</pdfrwt>
<pdfrwt beam="1">  1       -4 0.16191665E+00 0.13150137E+04</pdfrwt>
<totfact> 0.27297418E-02</totfact>
</mgrwt>
</event>
<event>
 8    1  0.2939692E-006  0.1417594E+04  0.7818608E-02  0.8461165E-01
         -4   -1    0    0    0  501 -0.00000000000E+00  0.00000000000E+00  0.13141990660E+04  0.13141990660E+04  0.00000000000E+00 0. -1.
          4   -1    0    0  502    0  0.00000000000E+00 -0.00000000000E+00 -0.17335268029E+04  0.17335268029E+04  0.00000000000E+00 0.  1.
   -9000010    2    1    2    0  501 -0.64058745106E+03  0.76647393895E+03  0.32564122030E+03  0.14463037687E+04  0.99394054428E+03 0.  0.
    9000010    2    1    2  502    0  0.64058745106E+03 -0.76647393895E+03 -0.74496895720E+03  0.16014221002E+04  0.10058525807E+04 0.  0.
        -13    1    4    4    0    0  0.90345911761E+03 -0.68419929518E+03 -0.66759981459E+03  0.13153161507E+04  0.10566000000E+00 0.  1.
          4    1    4    4  502    0 -0.26287166654E+03 -0.82274643773E+02 -0.77369142605E+02  0.28610594944E+03  0.00000000000E+00 0.  1.
         13    1    3    3    0    0 -0.17458797786E+03  0.32186384451E+03 -0.35445734763E+03  0.50962468432E+03  0.10566000000E+00 0. -1.
         -4    1    3    3    0  501 -0.46599947320E+03  0.44461009444E+03  0.68009856793E+03  0.93667908443E+03  0.00000000000E+00 0. -1.
<mgrwt>
<rscale>  0 0.14133746E+04</rscale>
<asrwt>0</asrwt>
<pdfrwt beam="2">  1        4 0.26669643E+00 0.14175944E+04</pdfrwt>
<pdfrwt beam="1">  1       -4 0.20218447E+00 0.14091673E+04</pdfrwt>
<totfact> 0.12050602E-01</totfact>
</mgrwt>
</event>
<event>
 8    1  0.2939692E-006  0.1393136E+04  0.7818608E-02  0.8498188E-01
         -4   -1    0    0    0  501 -0.00000000000E+00  0.00000000000E+00  0.23881524443E+04  0.23881524443E+04  0.00000000000E+00 0. -1.
          4   -1    0    0  502    0  0.00000000000E+00 -0.00000000000E+00 -0.10080339023E+04  0.10080339023E+04  0.00000000000E+00 0.  1.
   -9000010    2    1    2    0  501  0.44224301263E+03 -0.86256415266E+03  0.15306984549E+04  0.20697501675E+04  0.10006159085E+04 0.  0.
    9000010    2    1    2  502    0 -0.44224301263E+03  0.86256415266E+03 -0.15057991283E+03  0.13264361791E+04  0.89283975460E+03 0.  0.
        -13    1    4    4    0    0  0.10776822908E+03  0.73197582916E+03 -0.17618600207E+03  0.76055514209E+03  0.10566000000E+00 0.  1.
          4    1    4    4  502    0 -0.55001124170E+03  0.13058832350E+03  0.25606089243E+02  0.56588103700E+03  0.00000000000E+00 0.  1.
         13    1    3    3    0    0  0.76618634505E+03 -0.55180485942E+03  0.10435800347E+04  0.14073341530E+04  0.10566000000E+00 0. -1.
         -4    1    3    3    0  501 -0.32394333242E+03 -0.31075929324E+03  0.48711842020E+03  0.66241601449E+03  0.00000000000E+00 0. -1.
<mgrwt>
<rscale>  0 0.13549761E+04</rscale>
<asrwt>0</asrwt>
<pdfrwt beam="2">  1        4 0.15508214E+00 0.13178614E+04</pdfrwt>
<pdfrwt beam="1">  1       -4 0.36740807E+00 0.13931360E+04</pdfrwt>
<totfact> 0.88008431E-02</totfact>
</mgrwt>
</event>
<event>
 8    1  0.2939692E-006  0.1049105E+04  0.7818608E-02  0.8744457E-01
         -4   -1    0    0    0  501 -0.00000000000E+00  0.00000000000E+00  0.19452074986E+04  0.19452074986E+04  0.00000000000E+00 0. -1.
          4   -1    0    0  502    0  0.00000000000E+00 -0.00000000000E+00 -0.16188246214E+04  0.16188246214E+04  0.00000000000E+00 0.  1.
   -9000010    2    1    2    0  501 -0.22170022904E+03 -0.20788599387E+03  0.16113345315E+04  0.19052006078E+04  0.97006329985E+03 0.  0.
    9000010    2    1    2  502    0  0.22170022904E+03  0.20788599387E+03 -0.12849516543E+04  0.16588315122E+04  0.10041183466E+04 0.  0.
        -13    1    4    4    0    0  0.43173024708E+03 -0.27892519611E+03 -0.55235066587E+03  0.75450748209E+03  0.10566000000E+00 0.  1.
          4    1    4    4  502    0 -0.21003001805E+03  0.48681118998E+03 -0.73260098847E+03  0.90432403013E+03  0.00000000000E+00 0.  1.
         13    1    3    3    0    0 -0.72932762094E+02 -0.36033752357E+03  0.10286208786E+03  0.38176293555E+03  0.10566000000E+00 0. -1.
         -4    1    3    3    0  501 -0.14876746694E+03  0.15245152970E+03  0.15084724436E+04  0.15234376723E+04  0.00000000000E+00 0. -1.
<mgrwt>
<rscale>  0 0.10327033E+04</rscale>
<asrwt>0</asrwt>
<pdfrwt beam="2">  1        4 0.24904994E+00 0.10491050E+04</pdfrwt>
<pdfrwt beam="1">  1       -4 0.29926269E+00 0.10165581E+04</pdfrwt>
<totfact> 0.77803547E-02</totfact>
</mgrwt>
</event>
<event>
 8    1  0.2939692E-006  0.1051687E+04  0.7818608E-02  0.8728905E-01
          4   -1    0    0  502    0  0.00000000000E+00  0.00000000000E+00  0.33760681136E+04  0.33760681136E+04  0.00000000000E+00 0.  1.
         -4   -1    0    0    0  501 -0.00000000000E+00 -0.00000000000E+00 -0.15049732587E+04  0.15049732587E+04  0.00000000000E+00 0. -1.
   -9000010    2    1    2    0  501 -0.18848513658E+03 -0.27118936212E+03 -0.12236589511E+04  0.16135011140E+04  0.99848600363E+03 0.  0.
    9000010    2    1    2  502    0  0.18848513658E+03  0.27118936212E+03  0.30947538060E+04  0.32675402582E+04  0.99511200497E+03 0.  0.
        -13    1    4    4    0    0 -0.16980402574E+03 -0.25243227392E+03  0.18018044702E+04  0.18273080802E+04  0.10566000000E+00 0.  1.
          4    1    4    4  502    0  0.35828916231E+03  0.52362163603E+03  0.12929493358E+04  0.14402321780E+04  0.00000000000E+00 0.  1.
         13    1    3    3    0    0  0.13953507399E+03  0.14263069055E+03 -0.10329755973E+04  0.10520704095E+04  0.10566000000E+00 0. -1.
         -4    1    3    3    0  501 -0.32802021057E+03 -0.41382005267E+03 -0.19068335379E+03  0.56143070449E+03  0.00000000000E+00 0. -1.
<mgrwt>
<rscale>  0 0.10500839E+04</rscale>
<asrwt>0</asrwt>
<pdfrwt beam="1">  1        4 0.51939509E+00 0.10484838E+04</pdfrwt>
<pdfrwt beam="2">  1       -4 0.23153435E+00 0.10516866E+04</pdfrwt>
<totfact> 0.11472715E-02</totfact>
</mgrwt>
</event>
<event>
 8    1  0.2939692E-006  0.1113608E+04  0.7818608E-02  0.8687491E-01
         -4   -1    0    0    0  501 -0.00000000000E+00  0.00000000000E+00  0.27477719835E+04  0.27477719835E+04  0.00000000000E+00 0. -1.
          4   -1    0    0  502    0  0.00000000000E+00 -0.00000000000E+00 -0.11621592875E+04  0.11621592875E+04  0.00000000000E+00 0.  1.
   -9000010    2    1    2    0  501 -0.47296637708E+03  0.11569458546E+03  0.23307517593E+04  0.25700227880E+04  0.96722848200E+03 0.  0.
    9000010    2    1    2  502    0  0.47296637708E+03 -0.11569458546E+03 -0.74513906326E+03  0.13399084830E+04  0.10015188907E+04 0.  0.
        -13    1    4    4    0    0  0.16516488154E+03 -0.47218398198E+03 -0.70877158375E+03  0.86752194210E+03  0.10566000000E+00 0.  1.
          4    1    4    4  502    0  0.30780149554E+03  0.35648939652E+03 -0.36367479515E+02  0.47238654093E+03  0.00000000000E+00 0.  1.
         13    1    3    3    0    0 -0.43064652379E+03 -0.13931595590E+03  0.22559667563E+04  0.23009240275E+04  0.10566000000E+00 0. -1.
         -4    1    3    3    0  501 -0.42319853295E+02  0.25501054136E+03  0.74785003002E+02  0.26909876042E+03  0.00000000000E+00 0. -1.
<mgrwt>
<rscale>  0 0.10981328E+04</rscale>
<asrwt>0</asrwt>
<pdfrwt beam="2">  1        4 0.17879374E+00 0.11136079E+04</pdfrwt>
<pdfrwt beam="1">  1       -4 0.42273415E+00 0.10828727E+04</pdfrwt>
<totfact> 0.44829360E-02</totfact>
</mgrwt>
</event>
<event>
 8    1  0.2939692E-006  0.1102444E+04  0.7818608E-02  0.8700092E-01
         -4   -1    0    0    0  501 -0.00000000000E+00  0.00000000000E+00  0.31998828311E+04  0.31998828311E+04  0.00000000000E+00 0. -1.
          4   -1    0    0  502    0  0.00000000000E+00 -0.00000000000E+00 -0.11049604719E+04  0.11049604719E+04  0.00000000000E+00 0.  1.
   -9000010    2    1    2    0  501  0.10294881916E+03  0.41421971223E+03  0.28005008284E+04  0.29959413626E+04  0.97502991177E+03 0.  0.
    9000010    2    1    2  502    0 -0.10294881916E+03 -0.41421971223E+03 -0.70557846924E+03  0.13089019404E+04  0.10164678470E+04 0.  0.
        -13    1    4    4    0    0  0.21107173221E+03 -0.62853389005E+03 -0.23388989283E+03  0.70307227240E+03  0.10566000000E+00 0.  1.
          4    1    4    4  502    0 -0.31402055137E+03  0.21431417783E+03 -0.47168857641E+03  0.60582966799E+03  0.00000000000E+00 0.  1.
         13    1    3    3    0    0  0.12299441504E+03  0.68125498587E+03  0.24970258298E+04  0.25912109115E+04  0.10566000000E+00 0. -1.
         -4    1    3    3    0  501 -0.20045595881E+02 -0.26703527364E+03  0.30347499860E+03  0.40473045111E+03  0.00000000000E+00 0. -1.
<mgrwt>
<rscale>  0 0.10832342E+04</rscale>
<asrwt>0</asrwt>
<pdfrwt beam="2">  1        4 0.16999392E+00 0.11024442E+04</pdfrwt>
<pdfrwt beam="1">  1       -4 0.49228966E+00 0.10643588E+04</pdfrwt>
<totfact> 0.23033177E-02</totfact>
</mgrwt>
</event>
<event>
 8    1  0.2939692E-006  0.1254257E+04  0.7818608E-02  0.8572139E-01
         -4   -1    0    0    0  501 -0.00000000000E+00  0.00000000000E+00  0.30993229645E+04  0.30993229645E+04  0.00000000000E+00 0. -1.
          4   -1    0    0  502    0  0.00000000000E+00 -0.00000000000E+00 -0.15443238069E+04  0.15443238069E+04  0.00000000000E+00 0.  1.
   -9000010    2    1    2    0  501  0.44057814010E+03  0.60696338851E+03  0.26838573063E+04  0.29561983473E+04  0.98666355730E+03 0.  0.
    9000010    2    1    2  502    0 -0.44057814010E+03 -0.60696338851E+03 -0.11288581487E+04  0.16874484241E+04  0.10053098087E+04 0.  0.
        -13    1    4    4    0    0  0.15578016625E+03 -0.49796069310E+03 -0.16214956340E+03  0.54637423452E+03  0.10566000000E+00 0.  1.
          4    1    4    4  502    0 -0.59635830635E+03 -0.10900269540E+03 -0.96670858534E+03  0.11410741896E+04  0.00000000000E+00 0.  1.
         13    1    3    3    0    0 -0.18141628526E+03  0.46718753972E+03  0.17863297660E+04  0.18553032393E+04  0.10566000000E+00 0. -1.
         -4    1    3    3    0  501  0.62199442535E+03  0.13977584879E+03  0.89752754028E+03  0.11008951079E+04  0.00000000000E+00 0. -1.
<mgrwt>
<rscale>  0 0.12467875E+04</rscale>
<asrwt>0</asrwt>
<pdfrwt beam="2">  1        4 0.23758828E+00 0.12542573E+04</pdfrwt>
<pdfrwt beam="1">  1       -4 0.47681892E+00 0.12393622E+04</pdfrwt>
<totfact> 0.17057173E-02</totfact>
</mgrwt>
</event>
<event>
 8    1  0.2939692E-006  0.1611510E+04  0.7818608E-02  0.8354644E-01
         -4   -1    0    0    0  501 -0.00000000000E+00  0.00000000000E+00  0.28322164444E+04  0.28322164444E+04  0.00000000000E+00 0. -1.
          4   -1    0    0  502    0  0.00000000000E+00 -0.00000000000E+00 -0.17864191722E+04  0.17864191722E+04  0.00000000000E+00 0.  1.
   -9000010    2    1    2    0  501 -0.10609539075E+04 -0.65014013770E+03  0.21448625134E+04  0.26680179227E+04  0.98467204788E+03 0.  0.
    9000010    2    1    2  502    0  0.10609539075E+04  0.65014013770E+03 -0.10990652413E+04  0.19506176939E+04  0.10240408149E+04 0.  0.
        -13    1    4    4    0    0  0.33931176325E+02  0.55782821657E+03 -0.23885351276E+03  0.60776200577E+03  0.10566000000E+00 0.  1.
          4    1    4    4  502    0  0.10270227312E+04  0.92311921124E+02 -0.86021172849E+03  0.13428556881E+04  0.00000000000E+00 0.  1.
         13    1    3    3    0    0 -0.11976799669E+04 -0.36067582405E+03  0.15428468497E+04  0.19861774256E+04  0.10566000000E+00 0. -1.
         -4    1    3    3    0  501  0.13672605933E+03 -0.28946431364E+03  0.60201566369E+03  0.68184049711E+03  0.00000000000E+00 0. -1.
<mgrwt>
<rscale>  0 0.15990994E+04</rscale>
<asrwt>0</asrwt>
<pdfrwt beam="2">  1        4 0.27483372E+00 0.16115102E+04</pdfrwt>
<pdfrwt beam="1">  1       -4 0.43572561E+00 0.15867843E+04</pdfrwt>
<totfact> 0.20852986E-02</totfact>
</mgrwt>
</event>
<event>
 8    1  0.2939692E-006  0.1152690E+04  0.7818608E-02  0.8655779E-01
         -4   -1    0    0    0  501 -0.00000000000E+00  0.00000000000E+00  0.13307846841E+04  0.13307846841E+04  0.00000000000E+00 0. -1.
          4   -1    0    0  502    0  0.00000000000E+00 -0.00000000000E+00 -0.10299045482E+04  0.10299045482E+04  0.00000000000E+00 0.  1.
   -9000010    2    1    2    0  501  0.40224709143E+03 -0.34580855938E+03  0.43026818969E+03  0.12007604220E+04  0.98757713306E+03 0.  0.
    9000010    2    1    2  502    0 -0.40224709143E+03  0.34580855938E+03 -0.12938805383E+03  0.11599288103E+04  0.10233803273E+04 0.  0.
        -13    1    4    4    0    0 -0.51520492350E+03 -0.53367075901E+02 -0.40872144628E+03  0.65980102289E+03  0.10566000000E+00 0.  1.
          4    1    4    4  502    0  0.11295783208E+03  0.39917563528E+03  0.27933339245E+03  0.50012778744E+03  0.00000000000E+00 0.  1.
         13    1    3    3    0    0  0.45686580699E+03  0.20280473320E+03 -0.25114921601E+01  0.49986242523E+03  0.10566000000E+00 0. -1.
         -4    1    3    3    0  501 -0.54618715558E+02 -0.54861329258E+03  0.43277968185E+03  0.70089799679E+03  0.00000000000E+00 0. -1.
<mgrwt>
<rscale>  0 0.11367466E+04</rscale>
<asrwt>0</asrwt>
<pdfrwt beam="2">  1        4 0.15844685E+00 0.11526897E+04</pdfrwt>
<pdfrwt beam="1">  1       -4 0.20473610E+00 0.11210240E+04</pdfrwt>
<totfact> 0.24230144E-01</totfact>
</mgrwt>
</event>
<event>
 8    1  0.2939692E-006  0.1338635E+04  0.7818608E-02  0.8549928E-01
         -4   -1    0    0    0  501 -0.00000000000E+00  0.00000000000E+00  0.22922311237E+04  0.22922311237E+04  0.00000000000E+00 0. -1.
          4   -1    0    0  502    0  0.00000000000E+00 -0.00000000000E+00 -0.14509644724E+04  0.14509644724E+04  0.00000000000E+00 0.  1.
   -9000010    2    1    2    0  501  0.51052830563E+03 -0.53749157714E+03  0.17440166040E+04  0.21286053343E+04  0.96944850694E+03 0.  0.
    9000010    2    1    2  502    0 -0.51052830563E+03  0.53749157714E+03 -0.90274995268E+03  0.16145902618E+04  0.11146335229E+04 0.  0.
        -13    1    4    4    0    0  0.63640688547E+02 -0.30738614024E+03 -0.16586611185E+03  0.35503232905E+03  0.10566000000E+00 0.  1.
          4    1    4    4  502    0 -0.57416899418E+03  0.84487771738E+03 -0.73688384083E+03  0.12595579328E+04  0.00000000000E+00 0.  1.
         13    1    3    3    0    0 -0.14126605308E+03 -0.21036115713E+02  0.10080143168E+04  0.10180822609E+04  0.10566000000E+00 0. -1.
         -4    1    3    3    0  501  0.65179435870E+03 -0.51645546143E+03  0.73600228721E+03  0.11105230734E+04  0.00000000000E+00 0. -1.
<mgrwt>
<rscale>  0 0.12781492E+04</rscale>
<asrwt>0</asrwt>
<pdfrwt beam="2">  1        4 0.22322530E+00 0.13386352E+04</pdfrwt>
<pdfrwt beam="1">  1       -4 0.35265094E+00 0.12203961E+04</pdfrwt>
<totfact> 0.61396728E-02</totfact>
</mgrwt>
</event>
<event>
 8    1  0.2939692E-006  0.1052899E+04  0.7818608E-02  0.8730222E-01
          4   -1    0    0  502    0  0.00000000000E+00  0.00000000000E+00  0.16480030124E+04  0.16480030124E+04  0.00000000000E+00 0.  1.
         -4   -1    0    0    0  501 -0.00000000000E+00 -0.00000000000E+00 -0.75857828122E+03  0.75857828122E+03  0.00000000000E+00 0. -1.
   -9000010    2    1    2    0  501 -0.26913709589E+03  0.17015405363E+03  0.25525001866E+02  0.10446273521E+04  0.99458916172E+03 0.  0.
    9000010    2    1    2  502    0  0.26913709589E+03 -0.17015405363E+03  0.86389972930E+03  0.13619539415E+04  0.10035978369E+04 0.  0.
        -13    1    4    4    0    0 -0.98651474215E+01  0.32481923854E+03  0.69815641091E+03  0.77008262162E+03  0.10566000000E+00 0.  1.
          4    1    4    4  502    0  0.27900224331E+03 -0.49497329218E+03  0.16574331838E+03  0.59187131991E+03  0.00000000000E+00 0.  1.
         13    1    3    3    0    0 -0.13925289448E+02 -0.30537584799E+03  0.30930693418E+03  0.43487827368E+03  0.10566000000E+00 0. -1.
         -4    1    3    3    0  501 -0.25521180644E+03  0.47552990162E+03 -0.28378193232E+03  0.60974907839E+03  0.00000000000E+00 0. -1.
<mgrwt>
<rscale>  0 0.10485983E+04</rscale>
<asrwt>0</asrwt>
<pdfrwt beam="1">  1        4 0.25353892E+00 0.10528988E+04</pdfrwt>
<pdfrwt beam="2">  1       -4 0.11670435E+00 0.10443155E+04</pdfrwt>
<totfact> 0.29592026E-01</totfact>
</mgrwt>
</event>
<event>
 8    1  0.2939692E-006  0.1213796E+04  0.7818608E-02  0.8669708E-01
         -4   -1    0    0    0  501 -0.00000000000E+00  0.00000000000E+00  0.11683980171E+04  0.11683980171E+04  0.00000000000E+00 0. -1.
          4   -1    0    0  502    0  0.00000000000E+00 -0.00000000000E+00 -0.36700742705E+04  0.36700742705E+04  0.00000000000E+00 0.  1.
   -9000010    2    1    2    0  501 -0.14123991404E+02  0.27616530190E+03  0.80929701048E+03  0.13120229982E+04  0.99497534414E+03 0.  0.
    9000010    2    1    2  502    0  0.14123991404E+02 -0.27616530190E+03 -0.33109732639E+04  0.35264492895E+04  0.11818772676E+04 0.  0.
        -13    1    4    4    0    0  0.13868710010E+02 -0.68967243254E+03 -0.12823591498E+04  0.14561199832E+04  0.10566000000E+00 0.  1.
          4    1    4    4  502    0  0.25528139364E+00  0.41350713064E+03 -0.20286141141E+04  0.20703293062E+04  0.00000000000E+00 0.  1.
         13    1    3    3    0    0  0.34546940524E+03  0.60359249690E+02 -0.51534198148E+02  0.35446880501E+03  0.10566000000E+00 0. -1.
         -4    1    3    3    0  501 -0.35959339665E+03  0.21580605221E+03  0.86083120862E+03  0.95755419315E+03  0.00000000000E+00 0. -1.
<mgrwt>
<rscale>  0 0.11195854E+04</rscale>
<asrwt>0</asrwt>
<pdfrwt beam="2">  1        4 0.56462681E+00 0.12137960E+04</pdfrwt>
<pdfrwt beam="1">  1       -4 0.17975354E+00 0.10326871E+04</pdfrwt>
<totfact> 0.92776985E-03</totfact>
</mgrwt>
</event>
<event>
 8    1  0.2939692E-006  0.1132557E+04  0.7818608E-02  0.8664715E-01
          4   -1    0    0  502    0  0.00000000000E+00  0.00000000000E+00  0.48528811771E+03  0.48528811771E+03  0.00000000000E+00 0.  1.
         -4   -1    0    0    0  501 -0.00000000000E+00 -0.00000000000E+00 -0.27574623588E+04  0.27574623588E+04  0.00000000000E+00 0. -1.
   -9000010    2    1    2    0  501 -0.51330510878E+03  0.81634020940E+02 -0.15027966086E+04  0.18735800342E+04  0.99083714583E+03 0.  0.
    9000010    2    1    2  502    0  0.51330510878E+03 -0.81634020940E+02 -0.76937763251E+03  0.13691704424E+04  0.10062502227E+04 0.  0.
        -13    1    4    4    0    0  0.30010572606E+03 -0.45460325418E+03 -0.71135622854E+02  0.54935221263E+03  0.10566000000E+00 0.  1.
          4    1    4    4  502    0  0.21319938272E+03  0.37296923324E+03 -0.69824200966E+03  0.81981822972E+03  0.00000000000E+00 0.  1.
         13    1    3    3    0    0 -0.24434959688E+03  0.17487814910E+03 -0.15553497470E+04  0.15841091942E+04  0.10566000000E+00 0. -1.
         -4    1    3    3    0  501 -0.26895551190E+03 -0.93244128164E+02  0.52553138422E+02  0.28947083994E+03  0.00000000000E+00 0. -1.
<mgrwt>
<rscale>  0 0.11257005E+04</rscale>
<asrwt>0</asrwt>
<pdfrwt beam="1">  1        4 0.74659710E-01 0.11325572E+04</pdfrwt>
<pdfrwt beam="2">  1       -4 0.42422498E+00 0.11188854E+04</pdfrwt>
<totfact> 0.20039716E-01</totfact>
</mgrwt>
</event>
<event>
 8    1  0.2939692E-006  0.1356099E+04  0.7818608E-02  0.8500601E-01
         -4   -1    0    0    0  501 -0.00000000000E+00  0.00000000000E+00  0.86751405536E+03  0.86751405536E+03  0.00000000000E+00 0. -1.
          4   -1    0    0  502    0  0.00000000000E+00 -0.00000000000E+00 -0.21715422044E+04  0.21715422044E+04  0.00000000000E+00 0.  1.
   -9000010    2    1    2    0  501 -0.12898573947E+03 -0.89710071719E+03 -0.38791064862E+03  0.14104891908E+04  0.10087507464E+04 0.  0.
    9000010    2    1    2  502    0  0.12898573947E+03  0.89710071719E+03 -0.91611750041E+03  0.16285670689E+04  0.99575720219E+03 0.  0.
        -13    1    4    4    0    0 -0.38881290933E+03  0.20317273335E+03 -0.50851651865E+03  0.67159786996E+03  0.10566000000E+00 0.  1.
          4    1    4    4  502    0  0.51779864880E+03  0.69392798385E+03 -0.40760098176E+03  0.95696919898E+03  0.00000000000E+00 0.  1.
         13    1    3    3    0    0 -0.46313505541E+03 -0.55579038328E+03 -0.54707269117E+03  0.90702015980E+03  0.10566000000E+00 0. -1.
         -4    1    3    3    0  501  0.33414931594E+03 -0.34131033391E+03  0.15916204255E+03  0.50346903099E+03  0.00000000000E+00 0. -1.
<mgrwt>
<rscale>  0 0.13512719E+04</rscale>
<asrwt>0</asrwt>
<pdfrwt beam="2">  1        4 0.33408341E+00 0.13464618E+04</pdfrwt>
<pdfrwt beam="1">  1       -4 0.13346370E+00 0.13560992E+04</pdfrwt>
<totfact> 0.14352850E-01</totfact>
</mgrwt>
</event>
<event>
 8    1  0.2939692E-006  0.1191876E+04  0.7818608E-02  0.8612844E-01
          4   -1    0    0  502    0  0.00000000000E+00  0.00000000000E+00  0.64462096411E+03  0.64462096411E+03  0.00000000000E+00 0.  1.
         -4   -1    0    0    0  501 -0.00000000000E+00 -0.00000000000E+00 -0.26890896630E+04  0.26890896630E+04  0.00000000000E+00 0. -1.
   -9000010    2    1    2    0  501  0.11536905257E+03  0.64839383874E+03 -0.17310109949E+04  0.21016585368E+04  0.99340070080E+03 0.  0.
    9000010    2    1    2  502    0 -0.11536905257E+03 -0.64839383874E+03 -0.31345770397E+03  0.12320520903E+04  0.99296124429E+03 0.  0.
        -13    1    4    4    0    0 -0.24401132377E+03 -0.47680984714E+03  0.27760618285E+03  0.60328630051E+03  0.10566000000E+00 0.  1.
          4    1    4    4  502    0  0.12864227120E+03 -0.17158399160E+03 -0.59106388683E+03  0.62876578980E+03  0.00000000000E+00 0.  1.
         13    1    3    3    0    0  0.50411113326E+03  0.51538309858E+03 -0.13973817368E+04  0.15723941943E+04  0.10566000000E+00 0. -1.
         -4    1    3    3    0  501 -0.38874208069E+03  0.13301074017E+03 -0.33362925814E+03  0.52926434245E+03  0.00000000000E+00 0. -1.
<mgrwt>
<rscale>  0 0.11916933E+04</rscale>
<asrwt>0</asrwt>
<pdfrwt beam="1">  1        4 0.99172455E-01 0.11915102E+04</pdfrwt>
<pdfrwt beam="2">  1       -4 0.41370611E+00 0.11918765E+04</pdfrwt>
<totfact> 0.12428070E-01</totfact>
</mgrwt>
</event>
<event>
 8    1  0.2939692E-006  0.1078271E+04  0.7818608E-02  0.8710690E-01
          4   -1    0    0  502    0  0.00000000000E+00  0.00000000000E+00  0.19289362928E+04  0.19289362928E+04  0.00000000000E+00 0.  1.
         -4   -1    0    0    0  501 -0.00000000000E+00 -0.00000000000E+00 -0.16836993137E+04  0.16836993137E+04  0.00000000000E+00 0. -1.
   -9000010    2    1    2    0  501  0.36639986506E+03 -0.72440338121E+02 -0.13304588385E+04  0.17033203209E+04  0.99583278258E+03 0.  0.
    9000010    2    1    2  502    0 -0.36639986506E+03  0.72440338121E+02  0.15756958177E+04  0.19093152857E+04  0.10115191974E+04 0.  0.
        -13    1    4    4    0    0 -0.63280850198E+03  0.31861243131E+03  0.93561576075E+03  0.11736001638E+04  0.10566000000E+00 0.  1.
          4    1    4    4  502    0  0.26640863692E+03 -0.24617209319E+03  0.64008005690E+03  0.73571512186E+03  0.00000000000E+00 0.  1.
         13    1    3    3    0    0  0.58235356793E+03 -0.19593271720E+03 -0.38363905247E+03  0.72436471580E+03  0.10566000000E+00 0. -1.
         -4    1    3    3    0  501 -0.21595370287E+03  0.12349237908E+03 -0.94681978607E+03  0.97895560511E+03  0.00000000000E+00 0. -1.
<mgrwt>
<rscale>  0 0.10708947E+04</rscale>
<asrwt>0</asrwt>
<pdfrwt beam="1">  1        4 0.29675943E+00 0.10782706E+04</pdfrwt>
<pdfrwt beam="2">  1       -4 0.25903066E+00 0.10635692E+04</pdfrwt>
<totfact> 0.74454889E-02</totfact>
</mgrwt>
</event>
<event>
 8    1  0.2939692E-006  0.1092879E+04  0.7818608E-02  0.8701204E-01
          4   -1    0    0  502    0  0.00000000000E+00  0.00000000000E+00  0.17068866824E+04  0.17068866824E+04  0.00000000000E+00 0.  1.
         -4   -1    0    0    0  501 -0.00000000000E+00 -0.00000000000E+00 -0.11697167197E+04  0.11697167197E+04  0.00000000000E+00 0. -1.
   -9000010    2    1    2    0  501  0.37193324379E+03  0.23331396641E+03 -0.65485279741E+03  0.12740552970E+04  0.10008071586E+04 0.  0.
    9000010    2    1    2  502    0 -0.37193324379E+03 -0.23331396641E+03  0.11920227602E+04  0.16025481051E+04  0.97697104540E+03 0.  0.
        -13    1    4    4    0    0  0.19680041648E+03 -0.10324509774E+03  0.94191987666E+03  0.96778252688E+03  0.10566000000E+00 0.  1.
          4    1    4    4  502    0 -0.56873366027E+03 -0.13006886867E+03  0.25010288353E+03  0.63476557820E+03  0.00000000000E+00 0.  1.
         13    1    3    3    0    0 -0.11882478386E+03 -0.31915316591E+03 -0.11704612895E+03  0.36010815047E+03  0.10566000000E+00 0. -1.
         -4    1    3    3    0  501  0.49075802765E+03  0.55246713232E+03 -0.53780666846E+03  0.91394714652E+03  0.00000000000E+00 0. -1.
<mgrwt>
<rscale>  0 0.10819317E+04</rscale>
<asrwt>0</asrwt>
<pdfrwt beam="1">  1        4 0.26259795E+00 0.10710939E+04</pdfrwt>
<pdfrwt beam="2">  1       -4 0.17995642E+00 0.10928791E+04</pdfrwt>
<totfact> 0.14647758E-01</totfact>
</mgrwt>
</event>
<event>
 8    1  0.2939692E-006  0.1128707E+04  0.7818608E-02  0.8663020E-01
          4   -1    0    0  502    0  0.00000000000E+00  0.00000000000E+00  0.22459276698E+04  0.22459276698E+04  0.00000000000E+00 0.  1.
         -4   -1    0    0    0  501 -0.00000000000E+00 -0.00000000000E+00 -0.10654577663E+04  0.10654577663E+04  0.00000000000E+00 0. -1.
   -9000010    2    1    2    0  501 -0.29430055108E+03 -0.43152204881E+03 -0.54326594607E+03  0.12509861746E+04  0.99850109058E+03 0.  0.
    9000010    2    1    2  502    0  0.29430055108E+03  0.43152204881E+03  0.17237358496E+04  0.20603992615E+04  0.10005777055E+04 0.  0.
        -13    1    4    4    0    0  0.51635838505E+03  0.12972230103E+03  0.35160186619E+03  0.63802644198E+03  0.10566000000E+00 0.  1.
          4    1    4    4  502    0 -0.22205783396E+03  0.30179974778E+03  0.13721339834E+04  0.14223728196E+04  0.00000000000E+00 0.  1.
         13    1    3    3    0    0  0.17704219312E+03 -0.50632844693E+03 -0.11559143597E+02  0.53651286963E+03  0.10566000000E+00 0. -1.
         -4    1    3    3    0  501 -0.47134274421E+03  0.74806398119E+02 -0.53170680247E+03  0.71447330497E+03  0.00000000000E+00 0. -1.
<mgrwt>
<rscale>  0 0.11277865E+04</rscale>
<asrwt>0</asrwt>
<pdfrwt beam="1">  1        4 0.34552733E+00 0.11287072E+04</pdfrwt>
<pdfrwt beam="2">  1       -4 0.16391658E+00 0.11268667E+04</pdfrwt>
<totfact> 0.99089259E-02</totfact>
</mgrwt>
</event>
<event>
 8    1  0.2939692E-006  0.1120083E+04  0.7818608E-02  0.8671002E-01
          4   -1    0    0  502    0  0.00000000000E+00  0.00000000000E+00  0.12271544512E+04  0.12271544512E+04  0.00000000000E+00 0.  1.
         -4   -1    0    0    0  501 -0.00000000000E+00 -0.00000000000E+00 -0.16474470197E+04  0.16474470197E+04  0.00000000000E+00 0. -1.
   -9000010    2    1    2    0  501 -0.16971977209E+03  0.48319957223E+03 -0.10979270891E+04  0.15654895407E+04  0.99147717142E+03 0.  0.
    9000010    2    1    2  502    0  0.16971977209E+03 -0.48319957223E+03  0.67763452062E+03  0.13091119301E+04  0.99614199511E+03 0.  0.
        -13    1    4    4    0    0 -0.11363959141E+03  0.20426261164E+03 -0.80477808785E+02  0.24721217632E+03  0.10566000000E+00 0.  1.
          4    1    4    4  502    0  0.28335936350E+03 -0.68746218387E+03  0.75811232940E+03  0.10618997538E+04  0.00000000000E+00 0.  1.
         13    1    3    3    0    0 -0.46669468157E+03  0.61643381282E+03 -0.89144150508E+03  0.11800264995E+04  0.10566000000E+00 0. -1.
         -4    1    3    3    0  501  0.29697490947E+03 -0.13323424060E+03 -0.20648558403E+03  0.38546304121E+03  0.00000000000E+00 0. -1.
<mgrwt>
<rscale>  0 0.11180076E+04</rscale>
<asrwt>0</asrwt>
<pdfrwt beam="1">  1        4 0.18879299E+00 0.11200828E+04</pdfrwt>
<pdfrwt beam="2">  1       -4 0.25345339E+00 0.11159362E+04</pdfrwt>
<totfact> 0.14381462E-01</totfact>
</mgrwt>
</event>
<event>
 8    1  0.2939692E-006  0.1112502E+04  0.7818608E-02  0.8678487E-01
         -4   -1    0    0    0  501 -0.00000000000E+00  0.00000000000E+00  0.31809668063E+04  0.31809668063E+04  0.00000000000E+00 0. -1.
          4   -1    0    0  502    0  0.00000000000E+00 -0.00000000000E+00 -0.61332708959E+03  0.61332708959E+03  0.00000000000E+00 0.  1.
   -9000010    2    1    2    0  501 -0.45030376892E+03  0.15971489644E+03  0.24347014802E+04  0.26738775236E+04  0.99677850163E+03 0.  0.
    9000010    2    1    2  502    0  0.45030376892E+03 -0.15971489644E+03  0.13293823649E+03  0.11204163722E+04  0.10046780280E+04 0.  0.
        -13    1    4    4    0    0  0.19438746851E+03 -0.17406830143E+03  0.56256757361E+03  0.62013591052E+03  0.10566000000E+00 0.  1.
          4    1    4    4  502    0  0.25591630040E+03  0.14353404986E+02 -0.42962933712E+03  0.50028046170E+03  0.00000000000E+00 0.  1.
         13    1    3    3    0    0 -0.41962022459E+03  0.11539359979E+03  0.27780286200E+03  0.51630539127E+03  0.10566000000E+00 0. -1.
         -4    1    3    3    0  501 -0.30683544331E+02  0.44321296652E+02  0.21568986182E+04  0.21575721324E+04  0.00000000000E+00 0. -1.
<mgrwt>
<rscale>  0 0.11089317E+04</rscale>
<asrwt>0</asrwt>
<pdfrwt beam="2">  1        4 0.94358015E-01 0.11125018E+04</pdfrwt>
<pdfrwt beam="1">  1       -4 0.48937950E+00 0.11053731E+04</pdfrwt>
<totfact> 0.62270475E-02</totfact>
</mgrwt>
</event>
<event>
 8    1  0.2939692E-006  0.1313756E+04  0.7818608E-02  0.8541269E-01
          4   -1    0    0  502    0  0.00000000000E+00  0.00000000000E+00  0.16539971389E+04  0.16539971389E+04  0.00000000000E+00 0.  1.
         -4   -1    0    0    0  501 -0.00000000000E+00 -0.00000000000E+00 -0.13729063416E+04  0.13729063416E+04  0.00000000000E+00 0. -1.
   -9000010    2    1    2    0  501  0.70471769707E+03  0.23186483375E+03 -0.63841668396E+03  0.14606614723E+04  0.10842360170E+04 0.  0.
    9000010    2    1    2  502    0 -0.70471769707E+03 -0.23186483375E+03  0.91950748117E+03  0.15662420082E+04  0.10282177234E+04 0.  0.
        -13    1    4    4    0    0 -0.72289478812E+03  0.13183068194E+03  0.20273390008E+03  0.76227111240E+03  0.10566000000E+00 0.  1.
          4    1    4    4  502    0  0.18177091052E+02 -0.36369551569E+03  0.71677358109E+03  0.80397089582E+03  0.00000000000E+00 0.  1.
         13    1    3    3    0    0  0.69411370584E+03  0.40003529144E+03 -0.78280065240E+00  0.80113837442E+03  0.10566000000E+00 0. -1.
         -4    1    3    3    0  501  0.10603991232E+02 -0.16817045768E+03 -0.63763388331E+03  0.65952309786E+03  0.00000000000E+00 0. -1.
<mgrwt>
<rscale>  0 0.12906345E+04</rscale>
<asrwt>0</asrwt>
<pdfrwt beam="1">  1        4 0.25446110E+00 0.12679196E+04</pdfrwt>
<pdfrwt beam="2">  1       -4 0.21121636E+00 0.13137565E+04</pdfrwt>
<totfact> 0.12241455E-01</totfact>
</mgrwt>
</event>
<event>
 8    1  0.2939692E-006  0.1158174E+04  0.7818608E-02  0.8641003E-01
          4   -1    0    0  502    0  0.00000000000E+00  0.00000000000E+00  0.15544785851E+04  0.15544785851E+04  0.00000000000E+00 0.  1.
         -4   -1    0    0    0  501 -0.00000000000E+00 -0.00000000000E+00 -0.10479570496E+04  0.10479570496E+04  0.00000000000E+00 0. -1.
   -9000010    2    1    2    0  501  0.58583357255E+03  0.16649512545E+02 -0.29928986534E+03  0.11962197508E+04  0.99894398627E+03 0.  0.
    9000010    2    1    2  502    0 -0.58583357255E+03 -0.16649512545E+02  0.80581140082E+03  0.14062158838E+04  0.99228671124E+03 0.  0.
        -13    1    4    4    0    0 -0.25096833102E+03  0.67310444791E+01 -0.21568129010E+03  0.33098163121E+03  0.10566000000E+00 0.  1.
          4    1    4    4  502    0 -0.33486524153E+03 -0.23380557024E+02  0.10214926909E+04  0.10752342526E+04  0.00000000000E+00 0.  1.
         13    1    3    3    0    0  0.80146887342E+03 -0.11067270891E+03 -0.42730072762E+03  0.91497908531E+03  0.10566000000E+00 0. -1.
         -4    1    3    3    0  501 -0.21563530088E+03  0.12732222146E+03  0.12801086228E+03  0.28124066549E+03  0.00000000000E+00 0. -1.
<mgrwt>
<rscale>  0 0.11553020E+04</rscale>
<asrwt>0</asrwt>
<pdfrwt beam="1">  1        4 0.23915055E+00 0.11524370E+04</pdfrwt>
<pdfrwt beam="2">  1       -4 0.16122416E+00 0.11581741E+04</pdfrwt>
<totfact> 0.19315975E-01</totfact>
</mgrwt>
</event>
<event>
 8    1  0.2939692E-006  0.1045741E+04  0.7818608E-02  0.8743988E-01
         -4   -1    0    0    0  501 -0.00000000000E+00  0.00000000000E+00  0.12587086907E+04  0.12587086907E+04  0.00000000000E+00 0. -1.
          4   -1    0    0  502    0  0.00000000000E+00 -0.00000000000E+00 -0.20431471012E+04  0.20431471012E+04  0.00000000000E+00 0.  1.
   -9000010    2    1    2    0  501 -0.22562604019E+03 -0.19301629441E+03  0.87223833860E+03  0.13427353314E+04  0.97671697585E+03 0.  0.
    9000010    2    1    2  502    0  0.22562604019E+03  0.19301629441E+03 -0.16566767490E+04  0.19591204605E+04  0.10027027117E+04 0.  0.
        -13    1    4    4    0    0  0.35197773481E+03 -0.24060759315E+03 -0.13434440753E+04  0.14094759076E+04  0.10566000000E+00 0.  1.
          4    1    4    4  502    0 -0.12635169461E+03  0.43362388756E+03 -0.31323267378E+03  0.54964455289E+03  0.00000000000E+00 0.  1.
         13    1    3    3    0    0 -0.24997581253E+02  0.37014012083E+03  0.13781716280E+03  0.39575518903E+03  0.10566000000E+00 0. -1.
         -4    1    3    3    0  501 -0.20062845894E+03 -0.56315641524E+03  0.73442117580E+03  0.94698014236E+03  0.00000000000E+00 0. -1.
<mgrwt>
<rscale>  0 0.10332217E+04</rscale>
<asrwt>0</asrwt>
<pdfrwt beam="2">  1        4 0.31433032E+00 0.10457414E+04</pdfrwt>
<pdfrwt beam="1">  1       -4 0.19364749E+00 0.10208518E+04</pdfrwt>
<totfact> 0.97882816E-02</totfact>
</mgrwt>
</event>
<event>
 8    1  0.2939692E-006  0.1005227E+04  0.7818608E-02  0.8779620E-01
         -4   -1    0    0    0  501 -0.00000000000E+00  0.00000000000E+00  0.23081458287E+04  0.23081458287E+04  0.00000000000E+00 0. -1.
          4   -1    0    0  502    0  0.00000000000E+00 -0.00000000000E+00 -0.18119269662E+04  0.18119269662E+04  0.00000000000E+00 0.  1.
   -9000010    2    1    2    0  501  0.31572366692E+02  0.14389639873E+03  0.20473871611E+04  0.22716668257E+04  0.97312537316E+03 0.  0.
    9000010    2    1    2  502    0 -0.31572366692E+02 -0.14389639873E+03 -0.15511682986E+04  0.18484059691E+04  0.99437344507E+03 0.  0.
        -13    1    4    4    0    0  0.15220502664E+03  0.15183538994E+03  0.40782852546E+02  0.21882323459E+03  0.10566000000E+00 0.  1.
          4    1    4    4  502    0 -0.18377739333E+03 -0.29573178867E+03 -0.15919511511E+04  0.16295827345E+04  0.00000000000E+00 0.  1.
         13    1    3    3    0    0 -0.14273724217E+03 -0.38790095587E+03  0.70392830785E+03  0.81630640425E+03  0.10566000000E+00 0. -1.
         -4    1    3    3    0  501  0.17430960886E+03  0.53179735460E+03  0.13434588532E+04  0.14553604215E+04  0.00000000000E+00 0. -1.
<mgrwt>
<rscale>  0 0.99466475E+03</rscale>
<asrwt>0</asrwt>
<pdfrwt beam="2">  1        4 0.27875799E+00 0.10052271E+04</pdfrwt>
<pdfrwt beam="1">  1       -4 0.35509936E+00 0.98421338E+03</pdfrwt>
<totfact> 0.45652135E-02</totfact>
</mgrwt>
</event>
<event>
 8    1  0.2939692E-006  0.1049120E+04  0.7818608E-02  0.8736633E-01
         -4   -1    0    0    0  501 -0.00000000000E+00  0.00000000000E+00  0.11061526469E+04  0.11061526469E+04  0.00000000000E+00 0. -1.
          4   -1    0    0  502    0  0.00000000000E+00 -0.00000000000E+00 -0.12783368751E+04  0.12783368751E+04  0.00000000000E+00 0.  1.
   -9000010    2    1    2    0  501  0.18201841616E+03  0.27711944885E+03  0.48889248956E+03  0.11574408756E+04  0.99535301349E+03 0.  0.
    9000010    2    1    2  502    0 -0.18201841616E+03 -0.27711944885E+03 -0.66107671776E+03  0.12270486464E+04  0.97913230007E+03 0.  0.
        -13    1    4    4    0    0 -0.54341309753E+03 -0.35607793903E+03 -0.32141417026E+03  0.72484230922E+03  0.10566000000E+00 0.  1.
          4    1    4    4  502    0  0.36139468137E+03  0.78958490183E+02 -0.33966254750E+03  0.50220633714E+03  0.00000000000E+00 0.  1.
         13    1    3    3    0    0 -0.37592992545E+03 -0.73514092225E+02  0.11577217302E+03  0.40016351385E+03  0.10566000000E+00 0. -1.
         -4    1    3    3    0  501  0.55794834162E+03  0.35063354107E+03  0.37312031654E+03  0.75727736177E+03  0.00000000000E+00 0. -1.
<mgrwt>
<rscale>  0 0.10414036E+04</rscale>
<asrwt>0</asrwt>
<pdfrwt beam="2">  1        4 0.19666721E+00 0.10337437E+04</pdfrwt>
<pdfrwt beam="1">  1       -4 0.17017733E+00 0.10491204E+04</pdfrwt>
<totfact> 0.23166293E-01</totfact>
</mgrwt>
</event>
<event>
 8    1  0.2939692E-006  0.1085373E+04  0.7818608E-02  0.8707471E-01
         -4   -1    0    0    0  501 -0.00000000000E+00  0.00000000000E+00  0.81196991398E+03  0.81196991398E+03  0.00000000000E+00 0. -1.
          4   -1    0    0  502    0  0.00000000000E+00 -0.00000000000E+00 -0.27699199005E+04  0.27699199005E+04  0.00000000000E+00 0.  1.
   -9000010    2    1    2    0  501 -0.33232550345E+03 -0.19142652755E+03  0.26515301550E+03  0.11172919528E+04  0.10153574890E+04 0.  0.
    9000010    2    1    2  502    0  0.33232550345E+03  0.19142652755E+03 -0.22231030020E+04  0.24645978617E+04  0.99245720630E+03 0.  0.
        -13    1    4    4    0    0  0.32037902184E+03  0.34765251495E+03 -0.22555739559E+04  0.23045864858E+04  0.10566000000E+00 0.  1.
          4    1    4    4  502    0  0.11946481614E+02 -0.15622598740E+03  0.32470953867E+02  0.16001137586E+03  0.00000000000E+00 0.  1.
         13    1    3    3    0    0 -0.19813819816E+03 -0.53906536338E+03  0.42230094439E+03  0.71287327791E+03  0.10566000000E+00 0. -1.
         -4    1    3    3    0  501 -0.13418730529E+03  0.34763883583E+03 -0.15714792889E+03  0.40441867493E+03  0.00000000000E+00 0. -1.
<mgrwt>
<rscale>  0 0.10746239E+04</rscale>
<asrwt>0</asrwt>
<pdfrwt beam="2">  1        4 0.42614153E+00 0.10639810E+04</pdfrwt>
<pdfrwt beam="1">  1       -4 0.12491845E+00 0.10853733E+04</pdfrwt>
<totfact> 0.73926134E-02</totfact>
</mgrwt>
</event>
<event>
 8    1  0.2939692E-006  0.1045521E+04  0.7818608E-02  0.8749390E-01
         -4   -1    0    0    0  501 -0.00000000000E+00  0.00000000000E+00  0.23713969459E+04  0.23713969459E+04  0.00000000000E+00 0. -1.
          4   -1    0    0  502    0  0.00000000000E+00 -0.00000000000E+00 -0.12569379259E+04  0.12569379259E+04  0.00000000000E+00 0.  1.
   -9000010    2    1    2    0  501  0.20606617653E+03  0.89431337193E+02  0.20185848117E+04  0.22732790880E+04  0.10211032939E+04 0.  0.
    9000010    2    1    2  502    0 -0.20606617653E+03 -0.89431337193E+02 -0.90412579164E+03  0.13550557838E+04  0.98400787448E+03 0.  0.
        -13    1    4    4    0    0 -0.35818540715E+03  0.16911625174E+03  0.66418548984E+01  0.39615807186E+03  0.10566000000E+00 0.  1.
          4    1    4    4  502    0  0.15211923062E+03 -0.25854758893E+03 -0.91076764654E+03  0.95889771198E+03  0.00000000000E+00 0.  1.
         13    1    3    3    0    0  0.50971890448E+02  0.55224026785E+03  0.98992217059E+03  0.11346864598E+04  0.10566000000E+00 0. -1.
         -4    1    3    3    0  501  0.15509428608E+03 -0.46280893066E+03  0.10286626411E+04  0.11385926282E+04  0.00000000000E+00 0. -1.
<mgrwt>
<rscale>  0 0.10272623E+04</rscale>
<asrwt>0</asrwt>
<pdfrwt beam="2">  1        4 0.19337507E+00 0.10093229E+04</pdfrwt>
<pdfrwt beam="1">  1       -4 0.36483030E+00 0.10455205E+04</pdfrwt>
<totfact> 0.68234761E-02</totfact>
</mgrwt>
</event>
<event>
 8    1  0.2939692E-006  0.1058507E+04  0.7818608E-02  0.8722332E-01
         -4   -1    0    0    0  501 -0.00000000000E+00  0.00000000000E+00  0.29114044426E+04  0.29114044426E+04  0.00000000000E+00 0. -1.
          4   -1    0    0  502    0  0.00000000000E+00 -0.00000000000E+00 -0.38625677921E+03  0.38625677921E+03  0.00000000000E+00 0.  1.
   -9000010    2    1    2    0  501  0.27169695726E+02  0.28978671258E+03  0.13835044773E+04  0.17408097324E+04  0.10156866418E+04 0.  0.
    9000010    2    1    2  502    0 -0.27169695726E+02 -0.28978671258E+03  0.11416431860E+04  0.15568514894E+04  0.10177047041E+04 0.  0.
        -13    1    4    4    0    0 -0.48143964783E+03 -0.31185475308E+03  0.44997235953E+03  0.72904914583E+03  0.10566000000E+00 0.  1.
          4    1    4    4  502    0  0.45426995211E+03  0.22068040502E+02  0.69167082649E+03  0.82780234356E+03  0.00000000000E+00 0.  1.
         13    1    3    3    0    0 -0.17173346284E+03 -0.17274371817E+02  0.13635303962E+04  0.13744111244E+04  0.10566000000E+00 0. -1.
         -4    1    3    3    0  501  0.19890315857E+03  0.30706108440E+03  0.19974081106E+02  0.36639860801E+03  0.00000000000E+00 0. -1.
<mgrwt>
<rscale>  0 0.10575366E+04</rscale>
<asrwt>0</asrwt>
<pdfrwt beam="2">  1        4 0.59424122E-01 0.10585072E+04</pdfrwt>
<pdfrwt beam="1">  1       -4 0.44790836E+00 0.10565670E+04</pdfrwt>
<totfact> 0.25566376E-01</totfact>
</mgrwt>
</event>
<event>
 8    1  0.2939692E-006  0.1196562E+04  0.7818608E-02  0.8609927E-01
          4   -1    0    0  502    0  0.00000000000E+00  0.00000000000E+00  0.70530186371E+03  0.70530186371E+03  0.00000000000E+00 0.  1.
         -4   -1    0    0    0  501 -0.00000000000E+00 -0.00000000000E+00 -0.22645624598E+04  0.22645624598E+04  0.00000000000E+00 0. -1.
   -9000010    2    1    2    0  501 -0.42397539150E+03 -0.51407505302E+03 -0.12616475266E+04  0.17388258011E+04  0.99384726826E+03 0.  0.
    9000010    2    1    2  502    0  0.42397539150E+03  0.51407505302E+03 -0.29761306955E+03  0.12310385224E+04  0.99138993930E+03 0.  0.
        -13    1    4    4    0    0  0.68340541022E+03  0.35207196456E+03  0.47088359714E+02  0.77020448436E+03  0.10566000000E+00 0.  1.
          4    1    4    4  502    0 -0.25943001872E+03  0.16200308846E+03 -0.34470142926E+03  0.46083403804E+03  0.00000000000E+00 0.  1.
         13    1    3    3    0    0  0.11657988628E+03 -0.51045262288E+03 -0.10203442359E+04  0.11468457268E+04  0.10566000000E+00 0. -1.
         -4    1    3    3    0  501 -0.54055527778E+03 -0.36224301397E+01 -0.24130329063E+03  0.59198007433E+03  0.00000000000E+00 0. -1.
<mgrwt>
<rscale>  0 0.11955415E+04</rscale>
<asrwt>0</asrwt>
<pdfrwt beam="1">  1        4 0.10850798E+00 0.11945218E+04</pdfrwt>
<pdfrwt beam="2">  1       -4 0.34839423E+00 0.11965620E+04</pdfrwt>
<totfact> 0.18570687E-01</totfact>
</mgrwt>
</event>
<event>
 8    1  0.2939692E-006  0.1065594E+04  0.7818608E-02  0.8720046E-01
          4   -1    0    0  502    0  0.00000000000E+00  0.00000000000E+00  0.16020816367E+04  0.16020816367E+04  0.00000000000E+00 0.  1.
         -4   -1    0    0    0  501 -0.00000000000E+00 -0.00000000000E+00 -0.11010466387E+04  0.11010466387E+04  0.00000000000E+00 0. -1.
   -9000010    2    1    2    0  501 -0.35843343197E+03 -0.34128576154E+01 -0.56442227084E+03  0.11962477456E+04  0.99194253675E+03 0.  0.
    9000010    2    1    2  502    0  0.35843343197E+03  0.34128576154E+01  0.10654572688E+04  0.15068805298E+04  0.10034956735E+04 0.  0.
        -13    1    4    4    0    0 -0.30842077348E+03  0.18823637672E+03  0.26091887984E+03  0.44568484387E+03  0.10566000000E+00 0.  1.
          4    1    4    4  502    0  0.66685420545E+03 -0.18482351911E+03  0.80453838894E+03  0.10611956859E+04  0.00000000000E+00 0.  1.
         13    1    3    3    0    0  0.19563799454E+02 -0.41622384624E+03 -0.47085712626E+03  0.62875390809E+03  0.10566000000E+00 0. -1.
         -4    1    3    3    0  501 -0.37799723142E+03  0.41281098863E+03 -0.93565144577E+02  0.56749383748E+03  0.00000000000E+00 0. -1.
<mgrwt>
<rscale>  0 0.10601433E+04</rscale>
<asrwt>0</asrwt>
<pdfrwt beam="1">  1        4 0.24647410E+00 0.10655936E+04</pdfrwt>
<pdfrwt beam="2">  1       -4 0.16939179E+00 0.10547209E+04</pdfrwt>
<totfact> 0.17410376E-01</totfact>
</mgrwt>
</event>
<event>
 8    1  0.2939692E-006  0.1318059E+04  0.7818608E-02  0.8523558E-01
         -4   -1    0    0    0  501 -0.00000000000E+00  0.00000000000E+00  0.21420139541E+04  0.21420139541E+04  0.00000000000E+00 0. -1.
          4   -1    0    0  502    0  0.00000000000E+00 -0.00000000000E+00 -0.30648529461E+04  0.30648529461E+04  0.00000000000E+00 0.  1.
   -9000010    2    1    2    0  501  0.46078622168E+02  0.85950592284E+03  0.17718601014E+04  0.22083407053E+04  0.99820177370E+03 0.  0.
    9000010    2    1    2  502    0 -0.46078622168E+02 -0.85950592284E+03 -0.26946990934E+04  0.29985261948E+04  0.99442569671E+03 0.  0.
        -13    1    4    4    0    0 -0.29174988244E+03 -0.20557967888E+03 -0.19302953654E+04  0.19630132977E+04  0.10566000000E+00 0.  1.
          4    1    4    4  502    0  0.24567126027E+03 -0.65392624396E+03 -0.76440372803E+03  0.10355128971E+04  0.00000000000E+00 0.  1.
         13    1    3    3    0    0 -0.20501746700E+03  0.95247340239E+03  0.10214567286E+04  0.14115989528E+04  0.10566000000E+00 0. -1.
         -4    1    3    3    0  501  0.25109608917E+03 -0.92967479551E+02  0.75040337284E+03  0.79674175253E+03  0.00000000000E+00 0. -1.
<mgrwt>
<rscale>  0 0.13166299E+04</rscale>
<asrwt>0</asrwt>
<pdfrwt beam="2">  1        4 0.47151584E+00 0.13152019E+04</pdfrwt>
<pdfrwt beam="1">  1       -4 0.32954061E+00 0.13180594E+04</pdfrwt>
<totfact> 0.10319760E-02</totfact>
</mgrwt>
</event>
<event>
 8    1  0.2939692E-006  0.1157627E+04  0.7818608E-02  0.8657238E-01
          4   -1    0    0  502    0  0.00000000000E+00  0.00000000000E+00  0.16119380200E+04  0.16119380200E+04  0.00000000000E+00 0.  1.
         -4   -1    0    0    0  501 -0.00000000000E+00 -0.00000000000E+00 -0.10681571128E+04  0.10681571128E+04  0.00000000000E+00 0. -1.
   -9000010    2    1    2    0  501 -0.53251369726E+03  0.20625274810E+03 -0.39616094314E+03  0.12235369946E+04  0.10069698359E+04 0.  0.
    9000010    2    1    2  502    0  0.53251369726E+03 -0.20625274810E+03  0.93994185034E+03  0.14565581383E+04  0.95496591268E+03 0.  0.
        -13    1    4    4    0    0  0.14561090814E+03  0.30326806719E+03  0.21295768166E+02  0.33708689985E+03  0.10566000000E+00 0.  1.
          4    1    4    4  502    0  0.38690278913E+03 -0.50952081528E+03  0.91864608217E+03  0.11194712385E+04  0.00000000000E+00 0.  1.
         13    1    3    3    0    0  0.23033266175E+03  0.28461054094E+03 -0.13209500286E+02  0.36637521361E+03  0.10566000000E+00 0. -1.
         -4    1    3    3    0  501 -0.76284635901E+03 -0.78357792847E+02 -0.38295144285E+03  0.85716178096E+03  0.00000000000E+00 0. -1.
<mgrwt>
<rscale>  0 0.11349340E+04</rscale>
<asrwt>0</asrwt>
<pdfrwt beam="1">  1        4 0.24799047E+00 0.11126864E+04</pdfrwt>
<pdfrwt beam="2">  1       -4 0.16433186E+00 0.11576266E+04</pdfrwt>
<totfact> 0.17954727E-01</totfact>
</mgrwt>
</event>
<event>
 8    1  0.2939692E-006  0.1089362E+04  0.7818608E-02  0.8760954E-01
          4   -1    0    0  502    0  0.00000000000E+00  0.00000000000E+00  0.18670394675E+04  0.18670394675E+04  0.00000000000E+00 0.  1.
         -4   -1    0    0    0  501 -0.00000000000E+00 -0.00000000000E+00 -0.12984875433E+04  0.12984875433E+04  0.00000000000E+00 0. -1.
   -9000010    2    1    2    0  501  0.37725905153E+03  0.94512945113E+02 -0.90413800068E+03  0.14156892855E+04  0.10175723759E+04 0.  0.
    9000010    2    1    2  502    0 -0.37725905153E+03 -0.94512945113E+02  0.14726899250E+04  0.17498377252E+04  0.86131258022E+03 0.  0.
        -13    1    4    4    0    0  0.15338186650E+03  0.22532231761E+03  0.74956154921E+03  0.79758301825E+03  0.10566000000E+00 0.  1.
          4    1    4    4  502    0 -0.53064091803E+03 -0.31983526272E+03  0.72312837574E+03  0.95225470699E+03  0.00000000000E+00 0.  1.
         13    1    3    3    0    0  0.72216720109E+03  0.10964847934E+02 -0.70237888425E+03  0.10074630526E+04  0.10566000000E+00 0. -1.
         -4    1    3    3    0  501 -0.34490814956E+03  0.83548097179E+02 -0.20175911643E+03  0.40822623291E+03  0.00000000000E+00 0. -1.
<mgrwt>
<rscale>  0 0.10146429E+04</rscale>
<asrwt>0</asrwt>
<pdfrwt beam="1">  1        4 0.28723684E+00 0.94504838E+03</pdfrwt>
<pdfrwt beam="2">  1       -4 0.19976731E+00 0.10893625E+04</pdfrwt>
<totfact> 0.11178805E-01</totfact>
</mgrwt>
</event>
<event>
 8    1  0.2939692E-006  0.1103788E+04  0.7818608E-02  0.8685994E-01
         -4   -1    0    0    0  501 -0.00000000000E+00  0.00000000000E+00  0.12184089781E+04  0.12184089781E+04  0.00000000000E+00 0. -1.
          4   -1    0    0  502    0  0.00000000000E+00 -0.00000000000E+00 -0.23982170269E+04  0.23982170269E+04  0.00000000000E+00 0.  1.
   -9000010    2    1    2    0  501 -0.14510197568E+02  0.49976756709E+03  0.79517424517E+03  0.13541265361E+04  0.97538629710E+03 0.  0.
    9000010    2    1    2  502    0  0.14510197568E+02 -0.49976756709E+03 -0.19749822940E+04  0.22624994689E+04  0.98405823916E+03 0.  0.
        -13    1    4    4    0    0  0.42982255758E+03 -0.17303132711E+03 -0.43949145473E+03  0.63862353630E+03  0.10566000000E+00 0.  1.
          4    1    4    4  502    0 -0.41531236002E+03 -0.32673623998E+03 -0.15354908393E+04  0.16238759326E+04  0.00000000000E+00 0.  1.
         13    1    3    3    0    0 -0.12417196347E+03 -0.18962626572E+03  0.58146908346E+03  0.62408581409E+03  0.10566000000E+00 0. -1.
         -4    1    3    3    0  501  0.10966176590E+03  0.68939383281E+03  0.21370516170E+03  0.73004072199E+03  0.00000000000E+00 0. -1.
<mgrwt>
<rscale>  0 0.10999195E+04</rscale>
<asrwt>0</asrwt>
<pdfrwt beam="2">  1        4 0.36895646E+00 0.11037884E+04</pdfrwt>
<pdfrwt beam="1">  1       -4 0.18744754E+00 0.10960641E+04</pdfrwt>
<totfact> 0.68211393E-02</totfact>
</mgrwt>
</event>
<event>
 8    1  0.2939692E-006  0.1212684E+04  0.7818608E-02  0.8622746E-01
         -4   -1    0    0    0  501 -0.00000000000E+00  0.00000000000E+00  0.23518729324E+04  0.23518729324E+04  0.00000000000E+00 0. -1.
          4   -1    0    0  502    0  0.00000000000E+00 -0.00000000000E+00 -0.87141481959E+03  0.87141481959E+03  0.00000000000E+00 0.  1.
   -9000010    2    1    2    0  501  0.51466834372E+03  0.25597975612E+03  0.16395478182E+04  0.20002128995E+04  0.99112333020E+03 0.  0.
    9000010    2    1    2  502    0 -0.51466834372E+03 -0.25597975612E+03 -0.15908970541E+03  0.12230748525E+04  0.10677983989E+04 0.  0.
        -13    1    4    4    0    0 -0.13491224310E+03 -0.51897083083E+03  0.26308946718E+03  0.59728394880E+03  0.10566000000E+00 0.  1.
          4    1    4    4  502    0 -0.37975610062E+03  0.26299107471E+03 -0.42217917258E+03  0.62579090366E+03  0.00000000000E+00 0.  1.
         13    1    3    3    0    0 -0.14760793155E+02 -0.29617159100E+03  0.85277519693E+03  0.90286269166E+03  0.10566000000E+00 0. -1.
         -4    1    3    3    0  501  0.52942913688E+03  0.55215134712E+03  0.78677262124E+03  0.10973502078E+04  0.00000000000E+00 0. -1.
<mgrwt>
<rscale>  0 0.11787401E+04</rscale>
<asrwt>0</asrwt>
<pdfrwt beam="2">  1        4 0.13406382E+00 0.12126840E+04</pdfrwt>
<pdfrwt beam="1">  1       -4 0.36182660E+00 0.11457463E+04</pdfrwt>
<totfact> 0.11696621E-01</totfact>
</mgrwt>
</event>
<event>
 8    1  0.2939692E-006  0.9944539E+03  0.7818608E-02  0.8781225E-01
          4   -1    0    0  502    0  0.00000000000E+00  0.00000000000E+00  0.72964602232E+03  0.72964602232E+03  0.00000000000E+00 0.  1.
         -4   -1    0    0    0  501 -0.00000000000E+00 -0.00000000000E+00 -0.20219862305E+04  0.20219862305E+04  0.00000000000E+00 0. -1.
   -9000010    2    1    2    0  501  0.42645109260E+02 -0.71261235549E+02 -0.14391732968E+04  0.17493308462E+04  0.99098025309E+03 0.  0.
    9000010    2    1    2  502    0 -0.42645109260E+02  0.71261235549E+02  0.14683308867E+03  0.10023014066E+04  0.98800373721E+03 0.  0.
        -13    1    4    4    0    0  0.12270424119E+03  0.53052198834E+02  0.55007974339E+03  0.56609063043E+03  0.10566000000E+00 0.  1.
          4    1    4    4  502    0 -0.16534935045E+03  0.18209036715E+02 -0.40324665472E+03  0.43621077618E+03  0.00000000000E+00 0.  1.
         13    1    3    3    0    0 -0.80546968779E+02 -0.24147800149E+03  0.37921110656E+02  0.25736639481E+03  0.10566000000E+00 0. -1.
         -4    1    3    3    0  501  0.12319207804E+03  0.17021676594E+03 -0.14770944075E+04  0.14919644513E+04  0.00000000000E+00 0. -1.
<mgrwt>
<rscale>  0 0.99296978E+03</rscale>
<asrwt>0</asrwt>
<pdfrwt beam="1">  1        4 0.11225324E+00 0.99148785E+03</pdfrwt>
<pdfrwt beam="2">  1       -4 0.31107480E+00 0.99445394E+03</pdfrwt>
<totfact> 0.22716978E-01</totfact>
</mgrwt>
</event>
<event>
 8    1  0.2939692E-006  0.1468411E+04  0.7818608E-02  0.8435017E-01
         -4   -1    0    0    0  501 -0.00000000000E+00  0.00000000000E+00  0.24715482564E+04  0.24715482564E+04  0.00000000000E+00 0. -1.
          4   -1    0    0  502    0  0.00000000000E+00 -0.00000000000E+00 -0.14168791175E+04  0.14168791175E+04  0.00000000000E+00 0.  1.
   -9000010    2    1    2    0  501 -0.61801560055E+03  0.87442788875E+03  0.17454098195E+04  0.22656664048E+04  0.96965014557E+03 0.  0.
    9000010    2    1    2  502    0  0.61801560055E+03 -0.87442788875E+03 -0.69074068060E+03  0.16227609691E+04  0.10048199142E+04 0.  0.
        -13    1    4    4    0    0  0.31909672067E+03 -0.44720421834E+03  0.20494650562E+03  0.58635945577E+03  0.10566000000E+00 0.  1.
          4    1    4    4  502    0  0.29891887988E+03 -0.42722367041E+03 -0.89568718622E+03  0.10364015133E+04  0.00000000000E+00 0.  1.
         13    1    3    3    0    0 -0.22969089782E+02  0.23684118114E+03  0.12296273515E+04  0.12524395230E+04  0.10566000000E+00 0. -1.
         -4    1    3    3    0  501 -0.59504651076E+03  0.63758670761E+03  0.51578246803E+03  0.10132268818E+04  0.00000000000E+00 0. -1.
<mgrwt>
<rscale>  0 0.14564428E+04</rscale>
<asrwt>0</asrwt>
<pdfrwt beam="2">  1        4 0.21798140E+00 0.14684109E+04</pdfrwt>
<pdfrwt beam="1">  1       -4 0.38023819E+00 0.14445722E+04</pdfrwt>
<totfact> 0.49284766E-02</totfact>
</mgrwt>
</event>
<event>
 8    1  0.2939692E-006  0.1445509E+04  0.7818608E-02  0.8448210E-01
          4   -1    0    0  502    0  0.00000000000E+00  0.00000000000E+00  0.17535731861E+04  0.17535731861E+04  0.00000000000E+00 0.  1.
         -4   -1    0    0    0  501 -0.00000000000E+00 -0.00000000000E+00 -0.15976821145E+04  0.15976821145E+04  0.00000000000E+00 0. -1.
   -9000010    2    1    2    0  501  0.99227400107E+03  0.22366635912E+03 -0.78578114481E+03  0.16260765183E+04  0.99601129640E+03 0.  0.
    9000010    2    1    2  502    0 -0.99227400107E+03 -0.22366635912E+03  0.94167221643E+03  0.17251787823E+04  0.10270642309E+04 0.  0.
        -13    1    4    4    0    0 -0.35720443227E+03 -0.58523792348E+03  0.62851110926E+03  0.93012077664E+03  0.10566000000E+00 0.  1.
          4    1    4    4  502    0 -0.63506956880E+03  0.36157156436E+03  0.31316110717E+03  0.79505800569E+03  0.00000000000E+00 0.  1.
         13    1    3    3    0    0  0.49617898179E+01  0.97411124792E+02 -0.60701148226E+03  0.61479793213E+03  0.10566000000E+00 0. -1.
         -4    1    3    3    0  501  0.98731221125E+03  0.12625523433E+03 -0.17876966255E+03  0.10112785862E+04  0.00000000000E+00 0. -1.
<mgrwt>
<rscale>  0 0.14345189E+04</rscale>
<asrwt>0</asrwt>
<pdfrwt beam="1">  1        4 0.26978049E+00 0.14455087E+04</pdfrwt>
<pdfrwt beam="2">  1       -4 0.24579725E+00 0.14236126E+04</pdfrwt>
<totfact> 0.91544252E-02</totfact>
</mgrwt>
</event>
<event>
 8    1  0.2939692E-006  0.1035057E+04  0.7818608E-02  0.8748694E-01
         -4   -1    0    0    0  501 -0.00000000000E+00  0.00000000000E+00  0.27614105876E+04  0.27614105876E+04  0.00000000000E+00 0. -1.
          4   -1    0    0  502    0  0.00000000000E+00 -0.00000000000E+00 -0.91021490923E+03  0.91021490923E+03  0.00000000000E+00 0.  1.
   -9000010    2    1    2    0  501  0.21185347926E+03  0.15016813982E+02  0.23204557061E+04  0.25351629439E+04  0.99871370602E+03 0.  0.
    9000010    2    1    2  502    0 -0.21185347926E+03 -0.15016813982E+02 -0.46926002778E+03  0.11364625529E+04  0.10130324571E+04 0.  0.
        -13    1    4    4    0    0  0.20234691289E+03  0.16970270407E+03 -0.60743306659E+03  0.66235807724E+03  0.10566000000E+00 0.  1.
          4    1    4    4  502    0 -0.41420039215E+03 -0.18471951805E+03  0.13817303881E+03  0.47410447568E+03  0.00000000000E+00 0.  1.
         13    1    3    3    0    0  0.37773656563E+03 -0.40314759213E+03  0.15150668495E+04  0.16126501368E+04  0.10566000000E+00 0. -1.
         -4    1    3    3    0  501 -0.16588308637E+03  0.41816440612E+03  0.80538885660E+03  0.92251280707E+03  0.00000000000E+00 0. -1.
<mgrwt>
<rscale>  0 0.10280278E+04</rscale>
<asrwt>0</asrwt>
<pdfrwt beam="2">  1        4 0.14003306E+00 0.10350566E+04</pdfrwt>
<pdfrwt beam="1">  1       -4 0.42483239E+00 0.10210468E+04</pdfrwt>
<totfact> 0.62751358E-02</totfact>
</mgrwt>
</event>
<event>
 8    1  0.2939692E-006  0.1008297E+04  0.7818608E-02  0.8770675E-01
          4   -1    0    0  502    0  0.00000000000E+00  0.00000000000E+00  0.17360253025E+04  0.17360253025E+04  0.00000000000E+00 0.  1.
         -4   -1    0    0    0  501 -0.00000000000E+00 -0.00000000000E+00 -0.64868132191E+03  0.64868132191E+03  0.00000000000E+00 0. -1.
   -9000010    2    1    2    0  501 -0.13883746676E+03 -0.33422969449E+02  0.16013367342E+03  0.10209341492E+04  0.99813366168E+03 0.  0.
    9000010    2    1    2  502    0  0.13883746676E+03  0.33422969449E+02  0.92721030715E+03  0.13637724752E+04  0.98983002244E+03 0.  0.
        -13    1    4    4    0    0  0.53313504906E+03 -0.16507233343E+03  0.49559879792E+03  0.74639134203E+03  0.10566000000E+00 0.  1.
          4    1    4    4  502    0 -0.39429758230E+03  0.19849530288E+03  0.43161150923E+03  0.61738113315E+03  0.00000000000E+00 0.  1.
         13    1    3    3    0    0 -0.12069369900E+03  0.44245450219E+03  0.27000761771E+03  0.53220022573E+03  0.10566000000E+00 0. -1.
         -4    1    3    3    0  501 -0.18143767755E+02 -0.47587747164E+03 -0.10987394429E+03  0.48873392347E+03  0.00000000000E+00 0. -1.
<mgrwt>
<rscale>  0 0.10041794E+04</rscale>
<asrwt>0</asrwt>
<pdfrwt beam="1">  1        4 0.26708081E+00 0.10000782E+04</pdfrwt>
<pdfrwt beam="2">  1       -4 0.99797127E-01 0.10082974E+04</pdfrwt>
<totfact> 0.36679127E-01</totfact>
</mgrwt>
</event>
<event>
 8    1  0.2939692E-006  0.1046744E+04  0.7818608E-02  0.8734475E-01
          4   -1    0    0  502    0  0.00000000000E+00  0.00000000000E+00  0.22178409557E+04  0.22178409557E+04  0.00000000000E+00 0.  1.
         -4   -1    0    0    0  501 -0.00000000000E+00 -0.00000000000E+00 -0.20103213957E+04  0.20103213957E+04  0.00000000000E+00 0. -1.
   -9000010    2    1    2    0  501 -0.24153349828E+03  0.22791562042E+03 -0.17340094726E+04  0.20224405868E+04  0.98650550690E+03 0.  0.
    9000010    2    1    2  502    0  0.24153349828E+03 -0.22791562042E+03  0.19415290327E+04  0.22057217646E+04  0.99266789883E+03 0.  0.
        -13    1    4    4    0    0  0.18763975411E+03 -0.60282086374E+03  0.14774987479E+04  0.16067371385E+04  0.10566000000E+00 0.  1.
          4    1    4    4  502    0  0.53893744174E+02  0.37490524331E+03  0.46403028482E+03  0.59898462614E+03  0.00000000000E+00 0.  1.
         13    1    3    3    0    0 -0.49950285803E+03  0.21017119430E+03 -0.42653762614E+03  0.68964439661E+03  0.10566000000E+00 0. -1.
         -4    1    3    3    0  501  0.25796935975E+03  0.17744426122E+02 -0.13074718465E+04  0.13327961902E+04  0.00000000000E+00 0. -1.
<mgrwt>
<rscale>  0 0.10438191E+04</rscale>
<asrwt>0</asrwt>
<pdfrwt beam="1">  1        4 0.34120630E+00 0.10467442E+04</pdfrwt>
<pdfrwt beam="2">  1       -4 0.30928021E+00 0.10409020E+04</pdfrwt>
<totfact> 0.41789589E-02</totfact>
</mgrwt>
</event>
<event>
 8    1  0.2939692E-006  0.1056951E+04  0.7818608E-02  0.8735638E-01
         -4   -1    0    0    0  501 -0.00000000000E+00  0.00000000000E+00  0.53219740451E+03  0.53219740451E+03  0.00000000000E+00 0. -1.
          4   -1    0    0  502    0  0.00000000000E+00 -0.00000000000E+00 -0.30517056675E+04  0.30517056675E+04  0.00000000000E+00 0.  1.
   -9000010    2    1    2    0  501  0.18924657150E+03 -0.28905131092E+03 -0.24095147414E+03  0.10840679477E+04  0.99888977227E+03 0.  0.
    9000010    2    1    2  502    0 -0.18924657150E+03  0.28905131092E+03 -0.22785567888E+04  0.24998351243E+04  0.96849867507E+03 0.  0.
        -13    1    4    4    0    0 -0.20503548871E+03 -0.22447135752E+03 -0.16962587053E+04  0.17232877149E+04  0.10566000000E+00 0.  1.
          4    1    4    4  502    0  0.15788917209E+02  0.51352266844E+03 -0.58229808350E+03  0.77654740934E+03  0.00000000000E+00 0.  1.
         13    1    3    3    0    0  0.21767398687E+03  0.18416193366E+03  0.26603785061E+03  0.38996632097E+03  0.10566000000E+00 0. -1.
         -4    1    3    3    0  501 -0.28427415372E+02 -0.47321324458E+03 -0.50698932475E+03  0.69410162671E+03  0.00000000000E+00 0. -1.
<mgrwt>
<rscale>  0 0.10425157E+04</rscale>
<asrwt>0</asrwt>
<pdfrwt beam="2">  1        4 0.46949319E+00 0.10282775E+04</pdfrwt>
<pdfrwt beam="1">  1       -4 0.81876522E-01 0.10569511E+04</pdfrwt>
<totfact> 0.10342110E-01</totfact>
</mgrwt>
</event>
<event>
 8    1  0.2939692E-006  0.2273579E+04  0.7818608E-02  0.8067335E-01
         -4   -1    0    0    0  501 -0.00000000000E+00  0.00000000000E+00  0.15026769100E+04  0.15026769100E+04  0.00000000000E+00 0.  1.
          4   -1    0    0  502    0  0.00000000000E+00 -0.00000000000E+00 -0.41478621591E+04  0.41478621591E+04  0.00000000000E+00 0. -1.
   -9000010    2    1    2    0  501  0.19170185613E+04  0.69877263085E+03 -0.14383885075E+03  0.22781240678E+04  0.10029537872E+04 0.  0.
    9000010    2    1    2  502    0 -0.19170185613E+04 -0.69877263085E+03 -0.25013463983E+04  0.33724150012E+04  0.97632258108E+03 0.  0.
        -13    1    4    4    0    0 -0.18334277691E+04 -0.55615901448E+03 -0.25595191281E+04  0.31971719397E+04  0.10566000000E+00 0.  1.
          4    1    4    4  502    0 -0.83590792294E+02 -0.14261361638E+03  0.58172729813E+02  0.17524306157E+03  0.00000000000E+00 0.  1.
         13    1    3    3    0    0  0.70146519784E+03  0.51731856427E+03  0.36888596615E+03  0.94644006039E+03  0.10566000000E+00 0. -1.
         -4    1    3    3    0  501  0.12155533635E+04  0.18145406658E+03 -0.51272481690E+03  0.13316840074E+04  0.00000000000E+00 0. -1.
<mgrwt>
<rscale>  0 0.22677603E+04</rscale>
<asrwt>0</asrwt>
<pdfrwt beam="2">  1        4 0.63813263E+00 0.22619569E+04</pdfrwt>
<pdfrwt beam="1">  1       -4 0.23118107E+00 0.22735786E+04</pdfrwt>
<totfact> 0.23964972E-03</totfact>
</mgrwt>
</event>
<event>
 8    1  0.2939692E-006  0.1257417E+04  0.7818608E-02  0.8566504E-01
         -4   -1    0    0    0  501 -0.00000000000E+00  0.00000000000E+00  0.19445782079E+04  0.19445782079E+04  0.00000000000E+00 0. -1.
          4   -1    0    0  502    0  0.00000000000E+00 -0.00000000000E+00 -0.95322260589E+03  0.95322260589E+03  0.00000000000E+00 0.  1.
   -9000010    2    1    2    0  501 -0.44868605551E+03 -0.61853202061E+03  0.10573229938E+04  0.16386542906E+04  0.99164254341E+03 0.  0.
    9000010    2    1    2  502    0  0.44868605551E+03  0.61853202061E+03 -0.65967391799E+02  0.12591465232E+04  0.99859763329E+03 0.  0.
        -13    1    4    4    0    0 -0.15134635236E+03  0.56064372808E+03  0.18016107077E+03  0.60801737705E+03  0.10566000000E+00 0.  1.
          4    1    4    4  502    0  0.60003240787E+03  0.57888292526E+02 -0.24612846257E+03  0.65112914617E+03  0.00000000000E+00 0.  1.
         13    1    3    3    0    0 -0.62702145057E+03 -0.73168498834E+02  0.77382796979E+03  0.99865873385E+03  0.10566000000E+00 0. -1.
         -4    1    3    3    0  501  0.17833539506E+03 -0.54536352177E+03  0.28349502403E+03  0.63999555675E+03  0.00000000000E+00 0. -1.
<mgrwt>
<rscale>  0 0.12546561E+04</rscale>
<asrwt>0</asrwt>
<pdfrwt beam="2">  1        4 0.14664963E+00 0.12574173E+04</pdfrwt>
<pdfrwt beam="1">  1       -4 0.29916588E+00 0.12519009E+04</pdfrwt>
<totfact> 0.15670560E-01</totfact>
</mgrwt>
</event>
<event>
 8    1  0.2939692E-006  0.1342705E+04  0.7818608E-02  0.8509895E-01
          4   -1    0    0  502    0  0.00000000000E+00  0.00000000000E+00  0.12746807719E+04  0.12746807719E+04  0.00000000000E+00 0.  1.
         -4   -1    0    0    0  501 -0.00000000000E+00 -0.00000000000E+00 -0.27249954105E+04  0.27249954105E+04  0.00000000000E+00 0. -1.
   -9000010    2    1    2    0  501 -0.29202646466E+03 -0.80550486561E+03 -0.21198219559E+04  0.25092828658E+04  0.10337977712E+04 0.  0.
    9000010    2    1    2  502    0  0.29202646466E+03  0.80550486561E+03  0.66950731732E+03  0.14903933165E+04  0.10192716249E+04 0.  0.
        -13    1    4    4    0    0  0.45934462685E+03  0.83748849397E+03  0.17987850091E+03  0.97197775181E+03  0.10566000000E+00 0.  1.
          4    1    4    4  502    0 -0.16731816218E+03 -0.31983628366E+02  0.48962881641E+03  0.51841556471E+03  0.00000000000E+00 0.  1.
         13    1    3    3    0    0 -0.63182051303E+03 -0.53653048909E+03 -0.17621964299E+04  0.19474081223E+04  0.10566000000E+00 0. -1.
         -4    1    3    3    0  501  0.33979404837E+03 -0.26897437651E+03 -0.35762552601E+03  0.56187474350E+03  0.00000000000E+00 0. -1.
<mgrwt>
<rscale>  0 0.13371169E+04</rscale>
<asrwt>0</asrwt>
<pdfrwt beam="1">  1        4 0.19610473E+00 0.13315525E+04</pdfrwt>
<pdfrwt beam="2">  1       -4 0.41923007E+00 0.13427045E+04</pdfrwt>
<totfact> 0.39885502E-02</totfact>
</mgrwt>
</event>
<event>
 8    1  0.2939692E-006  0.1224724E+04  0.7818608E-02  0.8601572E-01
          4   -1    0    0  502    0  0.00000000000E+00  0.00000000000E+00  0.17698396946E+04  0.17698396946E+04  0.00000000000E+00 0.  1.
         -4   -1    0    0    0  501 -0.00000000000E+00 -0.00000000000E+00 -0.10371575493E+04  0.10371575493E+04  0.00000000000E+00 0. -1.
   -9000010    2    1    2    0  501  0.43789213111E+03 -0.60186119389E+03 -0.27589618784E+03  0.12204349917E+04  0.92701480429E+03 0.  0.
    9000010    2    1    2  502    0 -0.43789213111E+03  0.60186119389E+03  0.10085783332E+04  0.15865622521E+04  0.97260634921E+03 0.  0.
        -13    1    4    4    0    0  0.19874661219E+03 -0.48526355481E+02  0.50848569932E+03  0.54809920690E+03  0.10566000000E+00 0.  1.
          4    1    4    4  502    0 -0.63663874330E+03  0.65038754937E+03  0.50009263386E+03  0.10384630452E+04  0.00000000000E+00 0.  1.
         13    1    3    3    0    0 -0.68935155807E+01 -0.11418017638E+03  0.31462968302E+03  0.33477825771E+03  0.10566000000E+00 0. -1.
         -4    1    3    3    0  501  0.44478564669E+03 -0.48768101751E+03 -0.59052587087E+03  0.88565673401E+03  0.00000000000E+00 0. -1.
<mgrwt>
<rscale>  0 0.12066492E+04</rscale>
<asrwt>0</asrwt>
<pdfrwt beam="1">  1        4 0.27228303E+00 0.12247243E+04</pdfrwt>
<pdfrwt beam="2">  1       -4 0.15956270E+00 0.11888410E+04</pdfrwt>
<totfact> 0.16328157E-01</totfact>
</mgrwt>
</event>
<event>
 8    1  0.2939692E-006  0.1039074E+04  0.7818608E-02  0.8740899E-01
         -4   -1    0    0    0  501 -0.00000000000E+00  0.00000000000E+00  0.10913461941E+04  0.10913461941E+04  0.00000000000E+00 0. -1.
          4   -1    0    0  502    0  0.00000000000E+00 -0.00000000000E+00 -0.41779350829E+04  0.41779350829E+04  0.00000000000E+00 0.  1.
   -9000010    2    1    2    0  501  0.22991265341E+03 -0.17416802086E+03  0.76088420947E+03  0.12839677035E+04  0.99319381580E+03 0.  0.
    9000010    2    1    2  502    0 -0.22991265341E+03  0.17416802086E+03 -0.38474730983E+04  0.39853135734E+04  0.99823880352E+03 0.  0.
        -13    1    4    4    0    0 -0.58074698150E+03  0.30411131113E+03 -0.21827018365E+04  0.22790212953E+04  0.10566000000E+00 0.  1.
          4    1    4    4  502    0  0.35083432808E+03 -0.12994329027E+03 -0.16647712617E+04  0.17062922781E+04  0.00000000000E+00 0.  1.
         13    1    3    3    0    0  0.23069295362E+03  0.39578123404E+03  0.40916462510E+03  0.61422937545E+03  0.10566000000E+00 0. -1.
         -4    1    3    3    0  501 -0.78030020865E+00 -0.56994925491E+03  0.35171958437E+03  0.66973832806E+03  0.00000000000E+00 0. -1.
<mgrwt>
<rscale>  0 0.10366484E+04</rscale>
<asrwt>0</asrwt>
<pdfrwt beam="2">  1        4 0.64275925E+00 0.10390741E+04</pdfrwt>
<pdfrwt beam="1">  1       -4 0.16789941E+00 0.10342284E+04</pdfrwt>
<totfact> 0.39716409E-03</totfact>
</mgrwt>
</event>
<event>
 8    1  0.2939692E-006  0.1133097E+04  0.7818608E-02  0.8661461E-01
         -4   -1    0    0    0  501 -0.00000000000E+00  0.00000000000E+00  0.23206802007E+04  0.23206802007E+04  0.00000000000E+00 0. -1.
          4   -1    0    0  502    0  0.00000000000E+00 -0.00000000000E+00 -0.94930673613E+03  0.94930673613E+03  0.00000000000E+00 0.  1.
   -9000010    2    1    2    0  501 -0.30328505512E+03 -0.42513830141E+03  0.17473344066E+04  0.20825672664E+04  0.10055766954E+04 0.  0.
    9000010    2    1    2  502    0  0.30328505512E+03  0.42513830141E+03 -0.37596094207E+03  0.11874196704E+04  0.99794511061E+03 0.  0.
        -13    1    4    4    0    0 -0.31693450221E+03  0.10261260648E+03  0.92702703480E+02  0.34578986118E+03  0.10566000000E+00 0.  1.
          4    1    4    4  502    0  0.62021955732E+03  0.32252569493E+03 -0.46866364555E+03  0.84162980926E+03  0.00000000000E+00 0.  1.
         13    1    3    3    0    0 -0.57551441829E+03 -0.50094237669E+03  0.15788976991E+04  0.17535900507E+04  0.10566000000E+00 0. -1.
         -4    1    3    3    0  501  0.27222936317E+03  0.75804075282E+02  0.16843670750E+03  0.32897721568E+03  0.00000000000E+00 0. -1.
<mgrwt>
<rscale>  0 0.11297084E+04</rscale>
<asrwt>0</asrwt>
<pdfrwt beam="2">  1        4 0.14604719E+00 0.11263298E+04</pdfrwt>
<pdfrwt beam="1">  1       -4 0.35702772E+00 0.11330970E+04</pdfrwt>
<totfact> 0.10687503E-01</totfact>
</mgrwt>
</event>
<event>
 8    1  0.2939692E-006  0.1294137E+04  0.7818608E-02  0.8547527E-01
          4   -1    0    0  502    0  0.00000000000E+00  0.00000000000E+00  0.10753307656E+04  0.10753307656E+04  0.00000000000E+00 0.  1.
         -4   -1    0    0    0  501 -0.00000000000E+00 -0.00000000000E+00 -0.19103816386E+04  0.19103816386E+04  0.00000000000E+00 0. -1.
   -9000010    2    1    2    0  501 -0.10992893937E+03  0.82021673757E+03 -0.10890162952E+04  0.16913745757E+04  0.99496311282E+03 0.  0.
    9000010    2    1    2  502    0  0.10992893937E+03 -0.82021673757E+03  0.25396542220E+03  0.12943378284E+04  0.96227444639E+03 0.  0.
        -13    1    4    4    0    0  0.89381560257E+02 -0.10332812302E+04  0.12552894960E+03  0.10447089032E+04  0.10566000000E+00 0.  1.
          4    1    4    4  502    0  0.20547379110E+02  0.21306449267E+03  0.12843647260E+03  0.24962892524E+03  0.00000000000E+00 0.  1.
         13    1    3    3    0    0 -0.13574107189E+03  0.12202003566E+03 -0.96459124666E+03  0.98170810937E+03  0.10566000000E+00 0. -1.
         -4    1    3    3    0  501  0.25812132522E+02  0.69819670191E+03 -0.12442504852E+03  0.70966646634E+03  0.00000000000E+00 0. -1.
<mgrwt>
<rscale>  0 0.12815967E+04</rscale>
<asrwt>0</asrwt>
<pdfrwt beam="1">  1        4 0.16543550E+00 0.12691777E+04</pdfrwt>
<pdfrwt beam="2">  1       -4 0.29390486E+00 0.12941373E+04</pdfrwt>
<totfact> 0.13574797E-01</totfact>
</mgrwt>
</event>
<event>
 8    1  0.2939692E-006  0.1923328E+04  0.7818608E-02  0.8201426E-01
          4   -1    0    0  502    0  0.00000000000E+00  0.00000000000E+00  0.21299201901E+04  0.21299201901E+04  0.00000000000E+00 0.  1.
         -4   -1    0    0    0  501 -0.00000000000E+00 -0.00000000000E+00 -0.19423627949E+04  0.19423627949E+04  0.00000000000E+00 0. -1.
   -9000010    2    1    2    0  501  0.15861409483E+04  0.44827954689E+03 -0.57609472321E+03  0.20028978458E+04  0.98128333865E+03 0.  0.
    9000010    2    1    2  502    0 -0.15861409483E+04 -0.44827954689E+03  0.76365211845E+03  0.20693851392E+04  0.99115722075E+03 0.  0.
        -13    1    4    4    0    0 -0.84039057038E+03  0.17476679354E+03  0.42787235123E+02  0.85943615328E+03  0.10566000000E+00 0.  1.
          4    1    4    4  502    0 -0.74575037793E+03 -0.62304634043E+03  0.72086488332E+03  0.12099489859E+04  0.00000000000E+00 0.  1.
         13    1    3    3    0    0  0.37108320525E+03  0.37591620379E+03  0.19379065323E+03  0.56264603965E+03  0.10566000000E+00 0. -1.
         -4    1    3    3    0  501  0.12150577431E+04  0.72363343105E+02 -0.76988537644E+03  0.14402518062E+04  0.00000000000E+00 0. -1.
<mgrwt>
<rscale>  0 0.19207914E+04</rscale>
<asrwt>0</asrwt>
<pdfrwt beam="1">  1        4 0.32768003E+00 0.19233279E+04</pdfrwt>
<pdfrwt beam="2">  1       -4 0.29882505E+00 0.19182582E+04</pdfrwt>
<totfact> 0.44890873E-02</totfact>
</mgrwt>
</event>
<event>
 8    1  0.2939692E-006  0.1301219E+04  0.7818608E-02  0.8537690E-01
         -4   -1    0    0    0  501 -0.00000000000E+00  0.00000000000E+00  0.18757782518E+04  0.18757782518E+04  0.00000000000E+00 0. -1.
          4   -1    0    0  502    0  0.00000000000E+00 -0.00000000000E+00 -0.10988673374E+04  0.10988673374E+04  0.00000000000E+00 0.  1.
   -9000010    2    1    2    0  501  0.58884997032E+03 -0.55678738123E+03  0.10274321226E+04  0.16495298331E+04  0.10042785611E+04 0.  0.
    9000010    2    1    2  502    0 -0.58884997032E+03  0.55678738123E+03 -0.25052120819E+03  0.13251157562E+04  0.10180444077E+04 0.  0.
        -13    1    4    4    0    0 -0.83180955603E+02  0.47572755265E+03 -0.54993182059E+03  0.73188851213E+03  0.10566000000E+00 0.  1.
          4    1    4    4  502    0 -0.50566901471E+03  0.81059828578E+02  0.29941061240E+03  0.59322724404E+03  0.00000000000E+00 0.  1.
         13    1    3    3    0    0  0.26682035643E+03  0.10007341120E+03  0.85037863519E+03  0.89685652397E+03  0.10566000000E+00 0. -1.
         -4    1    3    3    0  501  0.32202961389E+03 -0.65686079242E+03  0.17705348741E+03  0.75267330911E+03  0.00000000000E+00 0. -1.
<mgrwt>
<rscale>  0 0.12958371E+04</rscale>
<asrwt>0</asrwt>
<pdfrwt beam="2">  1        4 0.16905651E+00 0.13012190E+04</pdfrwt>
<pdfrwt beam="1">  1       -4 0.28858127E+00 0.12904774E+04</pdfrwt>
<totfact> 0.13614967E-01</totfact>
</mgrwt>
</event>
<event>
 8    1  0.2939692E-006  0.1064883E+04  0.7818608E-02  0.8761884E-01
         -4   -1    0    0    0  501 -0.00000000000E+00  0.00000000000E+00  0.12219545212E+04  0.12219545212E+04  0.00000000000E+00 0. -1.
          4   -1    0    0  502    0  0.00000000000E+00 -0.00000000000E+00 -0.16076724348E+04  0.16076724348E+04  0.00000000000E+00 0.  1.
   -9000010    2    1    2    0  501 -0.26476618364E+03 -0.27961496937E+03  0.78732950282E+03  0.12453242576E+04  0.88468022330E+03 0.  0.
    9000010    2    1    2  502    0  0.26476618364E+03  0.27961496937E+03 -0.11730474163E+04  0.15843026984E+04  0.99281878307E+03 0.  0.
        -13    1    4    4    0    0  0.43496515645E+03 -0.56551177755E+02 -0.11212147072E+04  0.12039581197E+04  0.10566000000E+00 0.  1.
          4    1    4    4  502    0 -0.17019897281E+03  0.33616614713E+03 -0.51832709103E+02  0.38034457871E+03  0.00000000000E+00 0.  1.
         13    1    3    3    0    0 -0.27453995157E+03 -0.41149665844E+03  0.92839839249E+03  0.10519625807E+04  0.10566000000E+00 0. -1.
         -4    1    3    3    0  501  0.97737679301E+01  0.13188168907E+03 -0.14106888967E+03  0.19336167688E+03  0.00000000000E+00 0. -1.
<mgrwt>
<rscale>  0 0.10136355E+04</rscale>
<asrwt>0</asrwt>
<pdfrwt beam="2">  1        4 0.24733422E+00 0.10648825E+04</pdfrwt>
<pdfrwt beam="1">  1       -4 0.18799300E+00 0.96485479E+03</pdfrwt>
<totfact> 0.15035199E-01</totfact>
</mgrwt>
</event>
<event>
 8    1  0.2939692E-006  0.1104381E+04  0.7818608E-02  0.8691703E-01
         -4   -1    0    0    0  501 -0.00000000000E+00  0.00000000000E+00  0.38783661357E+04  0.38783661357E+04  0.00000000000E+00 0. -1.
          4   -1    0    0  502    0  0.00000000000E+00 -0.00000000000E+00 -0.10322872250E+04  0.10322872250E+04  0.00000000000E+00 0.  1.
   -9000010    2    1    2    0  501  0.16334248296E+03 -0.40020906543E+03  0.34751376943E+04  0.36396804515E+04  0.99188897149E+03 0.  0.
    9000010    2    1    2  502    0 -0.16334248296E+03  0.40020906543E+03 -0.62905878366E+03  0.12709729092E+04  0.10162721682E+04 0.  0.
        -13    1    4    4    0    0  0.10000048180E+02 -0.33768873190E+03 -0.26882647657E+03  0.43174224519E+03  0.10566000000E+00 0.  1.
          4    1    4    4  502    0 -0.17334253114E+03  0.73789779733E+03 -0.36023230709E+03  0.83923066405E+03  0.00000000000E+00 0.  1.
         13    1    3    3    0    0  0.19484212640E+03  0.21712964821E+03  0.22356777178E+04  0.22546315902E+04  0.10566000000E+00 0. -1.
         -4    1    3    3    0  501 -0.31499643432E+02 -0.61733871364E+03  0.12394599765E+04  0.13850488613E+04  0.00000000000E+00 0. -1.
<mgrwt>
<rscale>  0 0.10931257E+04</rscale>
<asrwt>0</asrwt>
<pdfrwt beam="2">  1        4 0.15881342E+00 0.11043809E+04</pdfrwt>
<pdfrwt beam="1">  1       -4 0.59667170E+00 0.10819851E+04</pdfrwt>
<totfact> 0.75366642E-03</totfact>
</mgrwt>
</event>
<event>
 8    1  0.2939692E-006  0.1211408E+04  0.7818608E-02  0.8613004E-01
          4   -1    0    0  502    0  0.00000000000E+00  0.00000000000E+00  0.19774283024E+04  0.19774283024E+04  0.00000000000E+00 0.  1.
         -4   -1    0    0    0  501 -0.00000000000E+00 -0.00000000000E+00 -0.20093685350E+04  0.20093685350E+04  0.00000000000E+00 0. -1.
   -9000010    2    1    2    0  501  0.35711278443E+03 -0.55832477046E+03 -0.16137723135E+04  0.19943856113E+04  0.96646613844E+03 0.  0.
    9000010    2    1    2  502    0 -0.35711278443E+03  0.55832477046E+03  0.15818320808E+04  0.19924112261E+04  0.10140284374E+04 0.  0.
        -13    1    4    4    0    0 -0.42563632677E+02  0.74789492959E+03  0.13877490120E+04  0.15770243562E+04  0.10566000000E+00 0.  1.
          4    1    4    4  502    0 -0.31454915175E+03 -0.18957015913E+03  0.19408306878E+03  0.41538686990E+03  0.00000000000E+00 0.  1.
         13    1    3    3    0    0  0.42599476705E+03  0.10288329191E+03 -0.32964031225E+03  0.54837875591E+03  0.10566000000E+00 0. -1.
         -4    1    3    3    0  501 -0.68881982627E+02 -0.66120806238E+03 -0.12841320012E+04  0.14460068554E+04  0.00000000000E+00 0. -1.
<mgrwt>
<rscale>  0 0.11914824E+04</rscale>
<asrwt>0</asrwt>
<pdfrwt beam="1">  1        4 0.30421974E+00 0.12114082E+04</pdfrwt>
<pdfrwt beam="2">  1       -4 0.30913362E+00 0.11718843E+04</pdfrwt>
<totfact> 0.52227637E-02</totfact>
</mgrwt>
</event>
<event>
 8    1  0.2939692E-006  0.1334153E+04  0.7818608E-02  0.8532283E-01
         -4   -1    0    0    0  501 -0.00000000000E+00  0.00000000000E+00  0.17179961536E+04  0.17179961536E+04  0.00000000000E+00 0. -1.
          4   -1    0    0  502    0  0.00000000000E+00 -0.00000000000E+00 -0.17571760466E+04  0.17571760466E+04  0.00000000000E+00 0.  1.
   -9000010    2    1    2    0  501 -0.40282882708E+03 -0.76866756647E+03  0.11281699624E+04  0.17472066594E+04  0.10133324997E+04 0.  0.
    9000010    2    1    2  502    0  0.40282882708E+03  0.76866756647E+03 -0.11673498554E+04  0.17279655408E+04  0.93275845393E+03 0.  0.
        -13    1    4    4    0    0  0.11645405145E+03  0.43718261250E+03 -0.12061340960E+04  0.12881962784E+04  0.10566000000E+00 0.  1.
          4    1    4    4  502    0  0.28637477564E+03  0.33148495397E+03  0.38784240605E+02  0.43976926240E+03  0.00000000000E+00 0.  1.
         13    1    3    3    0    0 -0.72587140343E+03 -0.40689770838E+03  0.57473602859E+03  0.10113241583E+04  0.10566000000E+00 0. -1.
         -4    1    3    3    0  501  0.32304257635E+03 -0.36176985809E+03  0.55343393382E+03  0.73588250112E+03  0.00000000000E+00 0. -1.
<mgrwt>
<rscale>  0 0.13037462E+04</rscale>
<asrwt>0</asrwt>
<pdfrwt beam="2">  1        4 0.27033478E+00 0.12740327E+04</pdfrwt>
<pdfrwt beam="1">  1       -4 0.26430710E+00 0.13341528E+04</pdfrwt>
<totfact> 0.83144245E-02</totfact>
</mgrwt>
</event>
<event>
 8    1  0.2939692E-006  0.1063800E+04  0.7818608E-02  0.8724431E-01
         -4   -1    0    0    0  501 -0.00000000000E+00  0.00000000000E+00  0.18519952656E+04  0.18519952656E+04  0.00000000000E+00 0. -1.
          4   -1    0    0  502    0  0.00000000000E+00 -0.00000000000E+00 -0.80474724116E+03  0.80474724116E+03  0.00000000000E+00 0.  1.
   -9000010    2    1    2    0  501  0.27365971943E+03 -0.22106316949E+03  0.11948763962E+04  0.15998124024E+04  0.10039479835E+04 0.  0.
    9000010    2    1    2  502    0 -0.27365971943E+03  0.22106316949E+03 -0.14762837179E+03  0.10569301044E+04  0.98567161999E+03 0.  0.
        -13    1    4    4    0    0 -0.47473889721E+03  0.48574723010E+03  0.30333310595E+02  0.67988786793E+03  0.10566000000E+00 0.  1.
          4    1    4    4  502    0  0.20107917777E+03 -0.26468406060E+03 -0.17796168239E+03  0.37704223645E+03  0.00000000000E+00 0.  1.
         13    1    3    3    0    0  0.23728461728E+03  0.14412069682E+03 -0.67049762764E+02  0.28560540383E+03  0.10566000000E+00 0. -1.
         -4    1    3    3    0  501  0.36375102156E+02 -0.36518386632E+03  0.12619261590E+04  0.13142069986E+04  0.00000000000E+00 0. -1.
<mgrwt>
<rscale>  0 0.10551494E+04</rscale>
<asrwt>0</asrwt>
<pdfrwt beam="2">  1        4 0.12380727E+00 0.10465692E+04</pdfrwt>
<pdfrwt beam="1">  1       -4 0.28492235E+00 0.10637998E+04</pdfrwt>
<totfact> 0.22522225E-01</totfact>
</mgrwt>
</event>
<event>
 8    1  0.2939692E-006  0.1337966E+04  0.7818608E-02  0.8510579E-01
         -4   -1    0    0    0  501 -0.00000000000E+00  0.00000000000E+00  0.18700575288E+04  0.18700575288E+04  0.00000000000E+00 0. -1.
          4   -1    0    0  502    0  0.00000000000E+00 -0.00000000000E+00 -0.17942532629E+04  0.17942532629E+04  0.00000000000E+00 0.  1.
   -9000010    2    1    2    0  501  0.21411529282E+03  0.86747144255E+03  0.12912889089E+04  0.18594569437E+04  0.99589207090E+03 0.  0.
    9000010    2    1    2  502    0 -0.21411529282E+03 -0.86747144255E+03 -0.12154846431E+04  0.18048538480E+04  0.99082916438E+03 0.  0.
        -13    1    4    4    0    0 -0.39304826961E+03 -0.82166744554E+02 -0.74768896042E+02  0.40844671028E+03  0.10566000000E+00 0.  1.
          4    1    4    4  502    0  0.17893297679E+03 -0.78530469800E+03 -0.11407157470E+04  0.13964071378E+04  0.00000000000E+00 0.  1.
         13    1    3    3    0    0  0.89246761006E+02  0.68126832749E+03  0.14364851314E+04  0.15923507975E+04  0.10566000000E+00 0. -1.
         -4    1    3    3    0  501  0.12486853182E+03  0.18620311506E+03 -0.14519622250E+03  0.26710614618E+03  0.00000000000E+00 0. -1.
<mgrwt>
<rscale>  0 0.13360826E+04</rscale>
<asrwt>0</asrwt>
<pdfrwt beam="2">  1        4 0.27603896E+00 0.13342018E+04</pdfrwt>
<pdfrwt beam="1">  1       -4 0.28770116E+00 0.13379660E+04</pdfrwt>
<totfact> 0.70096952E-02</totfact>
</mgrwt>
</event>
<event>
 8    1  0.2939692E-006  0.1098493E+04  0.7818608E-02  0.8707153E-01
         -4   -1    0    0    0  501 -0.00000000000E+00  0.00000000000E+00  0.71412637897E+03  0.71412637897E+03  0.00000000000E+00 0. -1.
          4   -1    0    0  502    0  0.00000000000E+00 -0.00000000000E+00 -0.16949828636E+04  0.16949828636E+04  0.00000000000E+00 0.  1.
   -9000010    2    1    2    0  501  0.13169077205E+03 -0.34121250847E+03 -0.75557704951E+03  0.13332602054E+04  0.10358173885E+04 0.  0.
    9000010    2    1    2  502    0 -0.13169077205E+03  0.34121250847E+03 -0.22527943511E+03  0.10758490371E+04  0.98637309952E+03 0.  0.
        -13    1    4    4    0    0  0.90327193081E+02  0.30457277455E+03 -0.57678558878E+03  0.65848705636E+03  0.10566000000E+00 0.  1.
          4    1    4    4  502    0 -0.22201796513E+03  0.36639733921E+02  0.35150615367E+03  0.41736198079E+03  0.00000000000E+00 0.  1.
         13    1    3    3    0    0  0.64827828379E+01 -0.49819986160E+03  0.52134455154E+02  0.50096221529E+03  0.10566000000E+00 0. -1.
         -4    1    3    3    0  501  0.12520798921E+03  0.15698735313E+03 -0.80771150466E+03  0.83229799012E+03  0.00000000000E+00 0. -1.
<mgrwt>
<rscale>  0 0.10749941E+04</rscale>
<asrwt>0</asrwt>
<pdfrwt beam="2">  1        4 0.26076659E+00 0.10519983E+04</pdfrwt>
<pdfrwt beam="1">  1       -4 0.10986560E+00 0.10984926E+04</pdfrwt>
<totfact> 0.31667172E-01</totfact>
</mgrwt>
</event>
<event>
 8    1  0.2939692E-006  0.1173106E+04  0.7818608E-02  0.8644912E-01
          4   -1    0    0  502    0  0.00000000000E+00  0.00000000000E+00  0.16832007893E+04  0.16832007893E+04  0.00000000000E+00 0.  1.
         -4   -1    0    0    0  501 -0.00000000000E+00 -0.00000000000E+00 -0.30816490102E+04  0.30816490102E+04  0.00000000000E+00 0. -1.
   -9000010    2    1    2    0  501 -0.61640190778E+03  0.17248832370E+02 -0.27516782511E+04  0.29739253807E+04  0.94458993118E+03 0.  0.
    9000010    2    1    2  502    0  0.61640190778E+03 -0.17248832370E+02  0.13532300302E+04  0.17909244189E+04  0.99796288775E+03 0.  0.
        -13    1    4    4    0    0  0.49148191482E+03  0.16601593865E+03  0.11288227785E+03  0.53090317790E+03  0.10566000000E+00 0.  1.
          4    1    4    4  502    0  0.12491999296E+03 -0.18326477102E+03  0.12403477524E+04  0.12600212410E+04  0.00000000000E+00 0.  1.
         13    1    3    3    0    0  0.12470690759E+03  0.27324329963E+03 -0.43874241642E+03  0.53170351957E+03  0.10566000000E+00 0. -1.
         -4    1    3    3    0  501 -0.74110881537E+03 -0.25599446726E+03 -0.23129358347E+04  0.24422218611E+04  0.00000000000E+00 0. -1.
<mgrwt>
<rscale>  0 0.11503581E+04</rscale>
<asrwt>0</asrwt>
<pdfrwt beam="1">  1        4 0.25895397E+00 0.11731065E+04</pdfrwt>
<pdfrwt beam="2">  1       -4 0.47409984E+00 0.11280510E+04</pdfrwt>
<totfact> 0.15830229E-02</totfact>
</mgrwt>
</event>
<event>
 8    1  0.2939692E-006  0.1382728E+04  0.7818608E-02  0.8492252E-01
         -4   -1    0    0    0  501 -0.00000000000E+00  0.00000000000E+00  0.20666110620E+04  0.20666110620E+04  0.00000000000E+00 0. -1.
          4   -1    0    0  502    0  0.00000000000E+00 -0.00000000000E+00 -0.12325780911E+04  0.12325780911E+04  0.00000000000E+00 0.  1.
   -9000010    2    1    2    0  501 -0.92291793463E+03  0.21272317974E+03  0.12689165127E+04  0.18496853352E+04  0.95611613187E+03 0.  0.
    9000010    2    1    2  502    0  0.92291793463E+03 -0.21272317974E+03 -0.43488354178E+03  0.14495038179E+04  0.10074268996E+04 0.  0.
        -13    1    4    4    0    0  0.37693966865E+03  0.26277746287E+03 -0.54969027636E+03  0.71644603418E+03  0.10566000000E+00 0.  1.
          4    1    4    4  502    0  0.54597826598E+03 -0.47550064261E+03  0.11480673459E+03  0.73305778377E+03  0.00000000000E+00 0.  1.
         13    1    3    3    0    0 -0.97561444312E+03 -0.47474507204E+02  0.64197116433E+03  0.11688474483E+04  0.10566000000E+00 0. -1.
         -4    1    3    3    0  501  0.52696508491E+02  0.26019768694E+03  0.62694534837E+03  0.68083788683E+03  0.00000000000E+00 0. -1.
<mgrwt>
<rscale>  0 0.13641409E+04</rscale>
<asrwt>0</asrwt>
<pdfrwt beam="2">  1        4 0.18962740E+00 0.13827283E+04</pdfrwt>
<pdfrwt beam="1">  1       -4 0.31794016E+00 0.13458034E+04</pdfrwt>
<totfact> 0.96046157E-02</totfact>
</mgrwt>
</event>
<event>
 8    1  0.2939692E-006  0.1133746E+04  0.7818608E-02  0.8665319E-01
          4   -1    0    0  502    0  0.00000000000E+00  0.00000000000E+00  0.12503048086E+04  0.12503048086E+04  0.00000000000E+00 0.  1.
         -4   -1    0    0    0  501 -0.00000000000E+00 -0.00000000000E+00 -0.10424771450E+04  0.10424771450E+04  0.00000000000E+00 0. -1.
   -9000010    2    1    2    0  501  0.42817604076E+03 -0.27253809778E+03 -0.92100954934E+02  0.11200337868E+04  0.99417370773E+03 0.  0.
    9000010    2    1    2  502    0 -0.42817604076E+03  0.27253809778E+03  0.29992861852E+03  0.11727481667E+04  0.10137895983E+04 0.  0.
        -13    1    4    4    0    0 -0.48685788865E+03  0.46485061135E+03 -0.14135066694E+03  0.68782026491E+03  0.10566000000E+00 0.  1.
          4    1    4    4  502    0  0.58681847888E+02 -0.19231251356E+03  0.44127928546E+03  0.48492790178E+03  0.00000000000E+00 0.  1.
         13    1    3    3    0    0 -0.26586269964E+03  0.11572281875E+03  0.91129315775E+02  0.30393964730E+03  0.10566000000E+00 0. -1.
         -4    1    3    3    0  501  0.69403874041E+03 -0.38826091654E+03 -0.18323027071E+03  0.81609413954E+03  0.00000000000E+00 0. -1.
<mgrwt>
<rscale>  0 0.11249595E+04</rscale>
<asrwt>0</asrwt>
<pdfrwt beam="1">  1        4 0.19235459E+00 0.11337465E+04</pdfrwt>
<pdfrwt beam="2">  1       -4 0.16038110E+00 0.11162406E+04</pdfrwt>
<totfact> 0.25828596E-01</totfact>
</mgrwt>
</event>
<event>
 8    1  0.2939692E-006  0.1472079E+04  0.7818608E-02  0.8438956E-01
         -4   -1    0    0    0  501 -0.00000000000E+00  0.00000000000E+00  0.23203433095E+04  0.23203433095E+04  0.00000000000E+00 0. -1.
          4   -1    0    0  502    0  0.00000000000E+00 -0.00000000000E+00 -0.10045215948E+04  0.10045215948E+04  0.00000000000E+00 0.  1.
   -9000010    2    1    2    0  501 -0.29174769025E+03 -0.96814070898E+03  0.11690772670E+04  0.18454894317E+04  0.10083037436E+04 0.  0.
    9000010    2    1    2  502    0  0.29174769025E+03  0.96814070898E+03  0.14674444775E+03  0.14793754725E+04  0.10698620045E+04 0.  0.
        -13    1    4    4    0    0 -0.35127120595E+03  0.10491794437E+03  0.16686021439E+03  0.40279222620E+03  0.10566000000E+00 0.  1.
          4    1    4    4  502    0  0.64301889620E+03  0.86322276460E+03 -0.20115766640E+02  0.10765832463E+04  0.00000000000E+00 0.  1.
         13    1    3    3    0    0 -0.75503936380E+02 -0.10434103422E+04  0.54260353691E+03  0.11784840245E+04  0.10566000000E+00 0. -1.
         -4    1    3    3    0  501 -0.21624375387E+03  0.75269633248E+02  0.62647373004E+03  0.66700540718E+03  0.00000000000E+00 0. -1.
<mgrwt>
<rscale>  0 0.14498554E+04</rscale>
<asrwt>0</asrwt>
<pdfrwt beam="2">  1        4 0.15454178E+00 0.14720794E+04</pdfrwt>
<pdfrwt beam="1">  1       -4 0.35697589E+00 0.14279669E+04</pdfrwt>
<totfact> 0.96296713E-02</totfact>
</mgrwt>
</event>
<event>
 8    1  0.2939692E-006  0.1044260E+04  0.7818608E-02  0.8762988E-01
          4   -1    0    0  502    0  0.00000000000E+00  0.00000000000E+00  0.11558392058E+04  0.11558392058E+04  0.00000000000E+00 0.  1.
         -4   -1    0    0    0  501 -0.00000000000E+00 -0.00000000000E+00 -0.32237247739E+04  0.32237247739E+04  0.00000000000E+00 0. -1.
   -9000010    2    1    2    0  501  0.18263110005E+03 -0.23927037503E+02 -0.29065729580E+04  0.30884697105E+04  0.10278872364E+04 0.  0.
    9000010    2    1    2  502    0 -0.18263110005E+03  0.23927037503E+02  0.83868738977E+03  0.12910942692E+04  0.96415831294E+03 0.  0.
        -13    1    4    4    0    0 -0.41443022912E+03  0.21497454602E+03  0.78122068065E+02  0.47335984085E+03  0.10566000000E+00 0.  1.
          4    1    4    4  502    0  0.23179912907E+03 -0.19104750851E+03  0.76056532171E+03  0.81773442837E+03  0.00000000000E+00 0.  1.
         13    1    3    3    0    0  0.46233587680E+03 -0.25402412403E+03 -0.24475990320E+04  0.25038018594E+04  0.10566000000E+00 0. -1.
         -4    1    3    3    0  501 -0.27970477675E+03  0.23009708653E+03 -0.45897392593E+03  0.58466785105E+03  0.00000000000E+00 0. -1.
<mgrwt>
<rscale>  0 0.10124425E+04</rscale>
<asrwt>0</asrwt>
<pdfrwt beam="1">  1        4 0.17782142E+00 0.98159456E+03</pdfrwt>
<pdfrwt beam="2">  1       -4 0.49595765E+00 0.10442599E+04</pdfrwt>
<totfact> 0.20872827E-02</totfact>
</mgrwt>
</event>
<event>
 8    1  0.2939692E-006  0.1221653E+04  0.7818608E-02  0.8674582E-01
          4   -1    0    0  502    0  0.00000000000E+00  0.00000000000E+00  0.12248628088E+04  0.12248628088E+04  0.00000000000E+00 0.  1.
         -4   -1    0    0    0  501 -0.00000000000E+00 -0.00000000000E+00 -0.11286053633E+04  0.11286053633E+04  0.00000000000E+00 0. -1.
   -9000010    2    1    2    0  501 -0.96361966238E+02  0.95978034053E+02 -0.30938697575E+03  0.12602209816E+04  0.12140589813E+04 0.  0.
    9000010    2    1    2  502    0  0.96361966238E+02 -0.95978034053E+02  0.40564442129E+03  0.10932471906E+04  0.10060539805E+04 0.  0.
        -13    1    4    4    0    0  0.24439607073E+02  0.12035832387E+03 -0.31463196942E+03  0.33775243577E+03  0.10566000000E+00 0.  1.
          4    1    4    4  502    0  0.71922359165E+02 -0.21633635793E+03  0.72027639072E+03  0.75549475480E+03  0.00000000000E+00 0.  1.
         13    1    3    3    0    0 -0.59683269156E+02  0.62060514159E+03 -0.37915393845E+03  0.72970580003E+03  0.10566000000E+00 0. -1.
         -4    1    3    3    0  501 -0.36678697082E+02 -0.52462710754E+03  0.69766962702E+02  0.53051518156E+03  0.00000000000E+00 0. -1.
<mgrwt>
<rscale>  0 0.11136557E+04</rscale>
<asrwt>0</asrwt>
<pdfrwt beam="1">  1        4 0.18844043E+00 0.10152054E+04</pdfrwt>
<pdfrwt beam="2">  1       -4 0.17363160E+00 0.12216532E+04</pdfrwt>
<totfact> 0.23786970E-01</totfact>
</mgrwt>
</event>
<event>
 8    1  0.2939692E-006  0.1178624E+04  0.7818608E-02  0.8628465E-01
          4   -1    0    0  502    0  0.00000000000E+00  0.00000000000E+00  0.14729802738E+04  0.14729802738E+04  0.00000000000E+00 0.  1.
         -4   -1    0    0    0  501 -0.00000000000E+00 -0.00000000000E+00 -0.97521941868E+03  0.97521941868E+03  0.00000000000E+00 0. -1.
   -9000010    2    1    2    0  501  0.44392255815E+03  0.41222725969E+03 -0.88173553820E+01  0.11786567703E+04  0.10110170548E+04 0.  0.
    9000010    2    1    2  502    0 -0.44392255815E+03 -0.41222725969E+03  0.50657821051E+03  0.12695429222E+04  0.99404184854E+03 0.  0.
        -13    1    4    4    0    0 -0.41671863812E+03  0.17909467004E+03  0.50338327866E+03  0.67758693951E+03  0.10566000000E+00 0.  1.
          4    1    4    4  502    0 -0.27203920024E+02 -0.59132192973E+03  0.31949318581E+01  0.59195598269E+03  0.00000000000E+00 0.  1.
         13    1    3    3    0    0  0.77064105577E+03  0.34142085402E+03 -0.32537998922E+02  0.84351322985E+03  0.10566000000E+00 0. -1.
         -4    1    3    3    0  501 -0.32671849762E+03  0.70806405670E+02  0.23720643540E+02  0.33514354045E+03  0.00000000000E+00 0. -1.
<mgrwt>
<rscale>  0 0.11713370E+04</rscale>
<asrwt>0</asrwt>
<pdfrwt beam="1">  1        4 0.22661235E+00 0.11640952E+04</pdfrwt>
<pdfrwt beam="2">  1       -4 0.15003376E+00 0.11786238E+04</pdfrwt>
<totfact> 0.22997916E-01</totfact>
</mgrwt>
</event>
<event>
 8    1  0.2939692E-006  0.1025813E+04  0.7818608E-02  0.8768510E-01
         -4   -1    0    0    0  501 -0.00000000000E+00  0.00000000000E+00  0.84011497739E+03  0.84011497739E+03  0.00000000000E+00 0. -1.
          4   -1    0    0  502    0  0.00000000000E+00 -0.00000000000E+00 -0.18907625416E+04  0.18907625416E+04  0.00000000000E+00 0.  1.
   -9000010    2    1    2    0  501 -0.17065828206E+03  0.37549157526E+01  0.28977035996E+03  0.10659545342E+04  0.10115106816E+04 0.  0.
    9000010    2    1    2  502    0  0.17065828206E+03 -0.37549157526E+01 -0.13404179242E+04  0.16649229848E+04  0.97268185193E+03 0.  0.
        -13    1    4    4    0    0 -0.65387032031E+02 -0.71338808535E+02  0.13672869492E+03  0.16750951239E+03  0.10566000000E+00 0.  1.
          4    1    4    4  502    0  0.23604531410E+03  0.67583892782E+02 -0.14771466191E+04  0.14974134724E+04  0.00000000000E+00 0.  1.
         13    1    3    3    0    0 -0.26924191343E+03  0.46254519287E+03  0.26195387471E+03  0.59586836384E+03  0.10566000000E+00 0. -1.
         -4    1    3    3    0  501  0.98583631361E+02 -0.45879027711E+03  0.27816485254E+02  0.47008617040E+03  0.00000000000E+00 0. -1.
<mgrwt>
<rscale>  0 0.10064979E+04</rscale>
<asrwt>0</asrwt>
<pdfrwt beam="2">  1        4 0.29088654E+00 0.98754662E+03</pdfrwt>
<pdfrwt beam="1">  1       -4 0.12924846E+00 0.10258129E+04</pdfrwt>
<totfact> 0.20337010E-01</totfact>
</mgrwt>
</event>
<event>
 8    1  0.2939692E-006  0.1199696E+04  0.7818608E-02  0.8607079E-01
          4   -1    0    0  502    0  0.00000000000E+00  0.00000000000E+00  0.34947066909E+04  0.34947066909E+04  0.00000000000E+00 0.  1.
         -4   -1    0    0    0  501 -0.00000000000E+00 -0.00000000000E+00 -0.12867364127E+04  0.12867364127E+04  0.00000000000E+00 0. -1.
   -9000010    2    1    2    0  501  0.55438718331E+02  0.68148701236E+03 -0.86753893953E+03  0.14805049749E+04  0.98578555962E+03 0.  0.
    9000010    2    1    2  502    0 -0.55438718331E+02 -0.68148701236E+03  0.30755092177E+04  0.33009381287E+04  0.98485409169E+03 0.  0.
        -13    1    4    4    0    0 -0.41816085759E+03 -0.49047284609E+03  0.10321533292E+04  0.12168659013E+04  0.10566000000E+00 0.  1.
          4    1    4    4  502    0  0.36272213926E+03 -0.19101416627E+03  0.20433558886E+04  0.20840722275E+04  0.00000000000E+00 0.  1.
         13    1    3    3    0    0  0.80539981498E+02  0.71608554603E+03 -0.11853785785E+03  0.73028517222E+03  0.10566000000E+00 0. -1.
         -4    1    3    3    0  501 -0.25101263168E+02 -0.34598533673E+02 -0.74900108169E+03  0.75021980267E+03  0.00000000000E+00 0. -1.
<mgrwt>
<rscale>  0 0.11993136E+04</rscale>
<asrwt>0</asrwt>
<pdfrwt beam="1">  1        4 0.53764718E+00 0.11989310E+04</pdfrwt>
<pdfrwt beam="2">  1       -4 0.19795945E+00 0.11996963E+04</pdfrwt>
<totfact> 0.11319524E-02</totfact>
</mgrwt>
</event>
<event>
 8    1  0.2939692E-006  0.1076089E+04  0.7818608E-02  0.8727776E-01
          4   -1    0    0  502    0  0.00000000000E+00  0.00000000000E+00  0.18821371515E+04  0.18821371515E+04  0.00000000000E+00 0.  1.
         -4   -1    0    0    0  501 -0.00000000000E+00 -0.00000000000E+00 -0.11093342749E+04  0.11093342749E+04  0.00000000000E+00 0. -1.
   -9000010    2    1    2    0  501 -0.26172730540E+03 -0.30807777126E+03 -0.63445490937E+03  0.12491997249E+04  0.99727319478E+03 0.  0.
    9000010    2    1    2  502    0  0.26172730540E+03  0.30807777126E+03  0.14072577859E+04  0.17422717016E+04  0.94431091833E+03 0.  0.
        -13    1    4    4    0    0  0.28882214884E+03 -0.29435882956E+03  0.70369800908E+03  0.81563242539E+03  0.10566000000E+00 0.  1.
          4    1    4    4  502    0 -0.27094843436E+02  0.60243660082E+03  0.70355977687E+03  0.92663927619E+03  0.00000000000E+00 0.  1.
         13    1    3    3    0    0 -0.55150997115E+03 -0.28271710631E+03 -0.82413890230E+02  0.62520738235E+03  0.10566000000E+00 0. -1.
         -4    1    3    3    0  501  0.28978266575E+03 -0.25360664955E+02 -0.55204101914E+03  0.62399234251E+03  0.00000000000E+00 0. -1.
<mgrwt>
<rscale>  0 0.10513593E+04</rscale>
<asrwt>0</asrwt>
<pdfrwt beam="1">  1        4 0.28955956E+00 0.10271982E+04</pdfrwt>
<pdfrwt beam="2">  1       -4 0.17066681E+00 0.10760887E+04</pdfrwt>
<totfact> 0.13568548E-01</totfact>
</mgrwt>
</event>
<event>
 8    1  0.2939692E-006  0.1409571E+04  0.7818608E-02  0.8467061E-01
         -4   -1    0    0    0  501 -0.00000000000E+00  0.00000000000E+00  0.87324853157E+03  0.87324853157E+03  0.00000000000E+00 0. -1.
          4   -1    0    0  502    0  0.00000000000E+00 -0.00000000000E+00 -0.25166283347E+04  0.25166283347E+04  0.00000000000E+00 0.  1.
   -9000010    2    1    2    0  501 -0.93424123752E+03 -0.28889989269E+03 -0.27427757397E+03  0.14248496739E+04  0.99934907209E+03 0.  0.
    9000010    2    1    2  502    0  0.93424123752E+03  0.28889989269E+03 -0.13691022291E+04  0.19650271923E+04  0.10151951117E+04 0.  0.
        -13    1    4    4    0    0  0.48515718910E+03 -0.36246825429E+03 -0.72615095320E+03  0.94554531965E+03  0.10566000000E+00 0.  1.
          4    1    4    4  502    0  0.44908404842E+03  0.65136814698E+03 -0.64295127593E+03  0.10194818726E+04  0.00000000000E+00 0.  1.
         13    1    3    3    0    0  0.99452039210E+02 -0.96794655447E+02  0.22231903923E+03  0.26207952952E+03  0.10566000000E+00 0. -1.
         -4    1    3    3    0  501 -0.10336932767E+04 -0.19210523724E+03 -0.49659661320E+03  0.11627701444E+04  0.00000000000E+00 0. -1.
<mgrwt>
<rscale>  0 0.14038750E+04</rscale>
<asrwt>0</asrwt>
<pdfrwt beam="2">  1        4 0.38717358E+00 0.14095712E+04</pdfrwt>
<pdfrwt beam="1">  1       -4 0.13434593E+00 0.13982018E+04</pdfrwt>
<totfact> 0.91975240E-02</totfact>
</mgrwt>
</event>
<event>
 8    1  0.2939692E-006  0.1413681E+04  0.7818608E-02  0.8464217E-01
          4   -1    0    0  502    0  0.00000000000E+00  0.00000000000E+00  0.71326363927E+03  0.71326363927E+03  0.00000000000E+00 0.  1.
         -4   -1    0    0    0  501 -0.00000000000E+00 -0.00000000000E+00 -0.39506612330E+04  0.39506612330E+04  0.00000000000E+00 0. -1.
   -9000010    2    1    2    0  501  0.52243633395E+03 -0.83046622790E+03 -0.28832083658E+04  0.32065493967E+04  0.10032221459E+04 0.  0.
    9000010    2    1    2  502    0 -0.52243633395E+03  0.83046622790E+03 -0.35418922791E+03  0.14573754756E+04  0.10177816018E+04 0.  0.
        -13    1    4    4    0    0 -0.36802535934E+03  0.79461948504E+03  0.18528518030E+03  0.89509407345E+03  0.10566000000E+00 0.  1.
          4    1    4    4  502    0 -0.15441097461E+03  0.35846742862E+02 -0.53947440820E+03  0.56228140211E+03  0.00000000000E+00 0.  1.
         13    1    3    3    0    0  0.13730618835E+03 -0.33307586896E+03 -0.23628510047E+04  0.23901584478E+04  0.10566000000E+00 0. -1.
         -4    1    3    3    0  501  0.38513014560E+03 -0.49739035894E+03 -0.52035736105E+03  0.81639094889E+03  0.00000000000E+00 0. -1.
<mgrwt>
<rscale>  0 0.14084482E+04</rscale>
<asrwt>0</asrwt>
<pdfrwt beam="1">  1        4 0.10973287E+00 0.14136808E+04</pdfrwt>
<pdfrwt beam="2">  1       -4 0.60779401E+00 0.14032350E+04</pdfrwt>
<totfact> 0.11463911E-02</totfact>
</mgrwt>
</event>
<event>
 8    1  0.2939692E-006  0.1291101E+04  0.7818608E-02  0.8554802E-01
         -4   -1    0    0    0  501 -0.00000000000E+00  0.00000000000E+00  0.13162053407E+04  0.13162053407E+04  0.00000000000E+00 0.  1.
          4   -1    0    0  502    0  0.00000000000E+00 -0.00000000000E+00 -0.12459157438E+04  0.12459157438E+04  0.00000000000E+00 0. -1.
   -9000010    2    1    2    0  501  0.69906380766E+03  0.44248413660E+03  0.18925838611E+03  0.13048983495E+04  0.99119046980E+03 0.  0.
    9000010    2    1    2  502    0 -0.69906380766E+03 -0.44248413660E+03 -0.11896878919E+03  0.12572227350E+04  0.93913418329E+03 0.  0.
        -13    1    4    4    0    0 -0.28884253349E+03 -0.70670733923E+03 -0.82825560198E+02  0.76793577665E+03  0.10566000000E+00 0.  1.
          4    1    4    4  502    0 -0.41022127417E+03  0.26422320263E+03 -0.36143228993E+02  0.48928695833E+03  0.00000000000E+00 0.  1.
         13    1    3    3    0    0  0.82280382928E+03 -0.44657230266E+01  0.68445901178E+02  0.82565788115E+03  0.10566000000E+00 0. -1.
         -4    1    3    3    0  501 -0.12374002161E+03  0.44694985962E+03  0.12081248493E+03  0.47924046833E+03  0.00000000000E+00 0. -1.
<mgrwt>
<rscale>  0 0.12711874E+04</rscale>
<asrwt>0</asrwt>
<pdfrwt beam="2">  1        4 0.19167934E+00 0.12515812E+04</pdfrwt>
<pdfrwt beam="1">  1       -4 0.20249313E+00 0.12911007E+04</pdfrwt>
<totfact> 0.18804519E-01</totfact>
</mgrwt>
</event>
<event>
 8    1  0.2939692E-006  0.1196759E+04  0.7818608E-02  0.8611810E-01
          4   -1    0    0  502    0  0.00000000000E+00  0.00000000000E+00  0.25860864254E+04  0.25860864254E+04  0.00000000000E+00 0.  1.
         -4   -1    0    0    0  501 -0.00000000000E+00 -0.00000000000E+00 -0.58371905260E+03  0.58371905260E+03  0.00000000000E+00 0. -1.
   -9000010    2    1    2    0  501  0.65630121291E+03  0.10209016519E+03  0.62548546199E+03  0.13503569450E+04  0.99552907139E+03 0.  0.
    9000010    2    1    2  502    0 -0.65630121291E+03 -0.10209016519E+03  0.13768819108E+04  0.18194485329E+04  0.98662834128E+03 0.  0.
        -13    1    4    4    0    0  0.60725434666E+02 -0.15662859808E+03 -0.86485291616E+02  0.18894394137E+03  0.10566000000E+00 0.  1.
          4    1    4    4  502    0 -0.71702664758E+03  0.54538432888E+02  0.14633672024E+04  0.16305045916E+04  0.00000000000E+00 0.  1.
         13    1    3    3    0    0 -0.83600088064E+02  0.25291272425E+03 -0.11738060474E+03  0.29108768154E+03  0.10566000000E+00 0. -1.
         -4    1    3    3    0  501  0.73990130098E+03 -0.15082255906E+03  0.74286606673E+03  0.10592692635E+04  0.00000000000E+00 0. -1.
<mgrwt>
<rscale>  0 0.11930562E+04</rscale>
<asrwt>0</asrwt>
<pdfrwt beam="1">  1        4 0.39785944E+00 0.11893650E+04</pdfrwt>
<pdfrwt beam="2">  1       -4 0.89802932E-01 0.11967589E+04</pdfrwt>
<totfact> 0.17497953E-01</totfact>
</mgrwt>
</event>
<event>
 8    1  0.2939692E-006  0.1045955E+04  0.7818608E-02  0.8733078E-01
          4   -1    0    0  502    0  0.00000000000E+00  0.00000000000E+00  0.22461349130E+04  0.22461349130E+04  0.00000000000E+00 0.  1.
         -4   -1    0    0    0  501 -0.00000000000E+00 -0.00000000000E+00 -0.10644605204E+04  0.10644605204E+04  0.00000000000E+00 0. -1.
   -9000010    2    1    2    0  501  0.15762889591E+03  0.24641541645E+03 -0.62869568802E+03  0.12203602861E+04  0.10042178715E+04 0.  0.
    9000010    2    1    2  502    0 -0.15762889591E+03 -0.24641541645E+03  0.18103700806E+04  0.20902351473E+04  0.10030332576E+04 0.  0.
        -13    1    4    4    0    0  0.33540494804E+03 -0.20579215374E+03  0.13784274622E+04  0.14334954375E+04  0.10566000000E+00 0.  1.
          4    1    4    4  502    0 -0.49303384395E+03 -0.40623262716E+02  0.43194261847E+03  0.65673970978E+03  0.00000000000E+00 0.  1.
         13    1    3    3    0    0 -0.75306556275E+02  0.81260225697E+02  0.26229457965E+03  0.28473278592E+03  0.10566000000E+00 0. -1.
         -4    1    3    3    0  501  0.23293545219E+03  0.16515519075E+03 -0.89099026767E+03  0.93562750013E+03  0.00000000000E+00 0. -1.
<mgrwt>
<rscale>  0 0.10453858E+04</rscale>
<asrwt>0</asrwt>
<pdfrwt beam="1">  1        4 0.34555922E+00 0.10448173E+04</pdfrwt>
<pdfrwt beam="2">  1       -4 0.16376316E+00 0.10459546E+04</pdfrwt>
<totfact> 0.99901643E-02</totfact>
</mgrwt>
</event>
<event>
 8    1  0.2939692E-006  0.1071951E+04  0.7818608E-02  0.8717679E-01
         -4   -1    0    0    0  501 -0.00000000000E+00  0.00000000000E+00  0.76406778173E+03  0.76406778173E+03  0.00000000000E+00 0. -1.
          4   -1    0    0  502    0  0.00000000000E+00 -0.00000000000E+00 -0.17624165748E+04  0.17624165748E+04  0.00000000000E+00 0.  1.
   -9000010    2    1    2    0  501 -0.36645574558E+03  0.84676926232E+02  0.11336037649E+02  0.10538871668E+04  0.98442351625E+03 0.  0.
    9000010    2    1    2  502    0  0.36645574558E+03 -0.84676926232E+02 -0.10096848307E+04  0.14725971897E+04  0.10038022865E+04 0.  0.
        -13    1    4    4    0    0  0.38981292268E+03 -0.13518837237E+03  0.46271044795E+02  0.41517590424E+03  0.10566000000E+00 0.  1.
          4    1    4    4  502    0 -0.23357177099E+02  0.50511446140E+02 -0.10559558755E+04  0.10574212854E+04  0.00000000000E+00 0.  1.
         13    1    3    3    0    0  0.22634257743E+03  0.29377099728E+03  0.16636243839E+03  0.40645889494E+03  0.10566000000E+00 0. -1.
         -4    1    3    3    0  501 -0.59279832301E+03 -0.20909407105E+03 -0.15502640074E+03  0.64742827189E+03  0.00000000000E+00 0. -1.
<mgrwt>
<rscale>  0 0.10628500E+04</rscale>
<asrwt>0</asrwt>
<pdfrwt beam="2">  1        4 0.27114101E+00 0.10719510E+04</pdfrwt>
<pdfrwt beam="1">  1       -4 0.11754889E+00 0.10538262E+04</pdfrwt>
<totfact> 0.26608509E-01</totfact>
</mgrwt>
</event>
<event>
 8    1  0.2939692E-006  0.1450074E+04  0.7818608E-02  0.8440135E-01
          4   -1    0    0  502    0  0.00000000000E+00  0.00000000000E+00  0.11833380236E+04  0.11833380236E+04  0.00000000000E+00 0.  1.
         -4   -1    0    0    0  501 -0.00000000000E+00 -0.00000000000E+00 -0.27712949245E+04  0.27712949245E+04  0.00000000000E+00 0. -1.
   -9000010    2    1    2    0  501 -0.10720820175E+04  0.58547434357E+02 -0.19823444711E+04  0.24560953790E+04  0.97464211593E+03 0.  0.
    9000010    2    1    2  502    0  0.10720820175E+04 -0.58547434357E+02  0.39438757030E+03  0.14985375691E+04  0.96813513312E+03 0.  0.
        -13    1    4    4    0    0 -0.16336458526E+03  0.59012949452E+02 -0.49339818333E+02  0.18056839358E+03  0.10566000000E+00 0.  1.
          4    1    4    4  502    0  0.12354466028E+04 -0.11756038381E+03  0.44372738863E+03  0.13179691755E+04  0.00000000000E+00 0.  1.
         13    1    3    3    0    0 -0.47041575597E+03  0.47951170726E+03 -0.12497437389E+04  0.14188311686E+04  0.10566000000E+00 0. -1.
         -4    1    3    3    0  501 -0.60166626154E+03 -0.42096427290E+03 -0.73260073227E+03  0.10372642104E+04  0.00000000000E+00 0. -1.
<mgrwt>
<rscale>  0 0.14478897E+04</rscale>
<asrwt>0</asrwt>
<pdfrwt beam="1">  1        4 0.18205200E+00 0.14457086E+04</pdfrwt>
<pdfrwt beam="2">  1       -4 0.42635307E+00 0.14500741E+04</pdfrwt>
<totfact> 0.40715596E-02</totfact>
</mgrwt>
</event>
<event>
 8    1  0.2939692E-006  0.1160587E+04  0.7818608E-02  0.8637572E-01
          4   -1    0    0  502    0  0.00000000000E+00  0.00000000000E+00  0.12626594902E+04  0.12626594902E+04  0.00000000000E+00 0.  1.
         -4   -1    0    0    0  501 -0.00000000000E+00 -0.00000000000E+00 -0.16711662892E+04  0.16711662892E+04  0.00000000000E+00 0. -1.
   -9000010    2    1    2    0  501  0.58288188465E+03  0.15531731854E+03 -0.10875656601E+04  0.15891761816E+04  0.98934680991E+03 0.  0.
    9000010    2    1    2  502    0 -0.58288188465E+03 -0.15531731854E+03  0.67905886107E+03  0.13446495978E+04  0.99150735909E+03 0.  0.
        -13    1    4    4    0    0 -0.38307394953E+03  0.26538097211E+03 -0.61249564155E+02  0.47002577742E+03  0.10566000000E+00 0.  1.
          4    1    4    4  502    0 -0.19980793512E+03 -0.42069829065E+03  0.74030842522E+03  0.87462382036E+03  0.00000000000E+00 0.  1.
         13    1    3    3    0    0  0.17774917247E+03  0.40346151283E+03 -0.10175512548E+04  0.11089574059E+04  0.10566000000E+00 0. -1.
         -4    1    3    3    0  501  0.40513271218E+03 -0.24814419429E+03 -0.70014405276E+02  0.48021877575E+03  0.00000000000E+00 0. -1.
<mgrwt>
<rscale>  0 0.11596638E+04</rscale>
<asrwt>0</asrwt>
<pdfrwt beam="1">  1        4 0.19425531E+00 0.11605867E+04</pdfrwt>
<pdfrwt beam="2">  1       -4 0.25710251E+00 0.11587415E+04</pdfrwt>
<totfact> 0.13544003E-01</totfact>
</mgrwt>
</event>
<event>
 8    1  0.2939692E-006  0.1096476E+04  0.7818608E-02  0.8690579E-01
          4   -1    0    0  502    0  0.00000000000E+00  0.00000000000E+00  0.75938828197E+03  0.75938828197E+03  0.00000000000E+00 0. -1.
         -4   -1    0    0    0  501 -0.00000000000E+00 -0.00000000000E+00 -0.15859550467E+04  0.15859550467E+04  0.00000000000E+00 0.  1.
   -9000010    2    1    2    0  501 -0.50033736269E+03 -0.78387661199E+02 -0.49875140451E+03  0.12009120701E+04  0.96796422183E+03 0.  0.
    9000010    2    1    2  502    0  0.50033736269E+03  0.78387661199E+02 -0.32781536028E+03  0.11444312586E+04  0.97251112759E+03 0.  0.
        -13    1    4    4    0    0 -0.98681009845E+02 -0.20908235152E+03 -0.41425550189E+03  0.47440594793E+03  0.10566000000E+00 0.  1.
          4    1    4    4  502    0  0.59901837254E+03  0.28747001272E+03  0.86440141610E+02  0.67002531067E+03  0.00000000000E+00 0.  1.
         13    1    3    3    0    0 -0.11588028786E+03 -0.47921835012E+03 -0.40415551873E+03  0.63751091182E+03  0.10566000000E+00 0. -1.
         -4    1    3    3    0  501 -0.38445707484E+03  0.40083068892E+03 -0.94595885773E+02  0.56340115830E+03  0.00000000000E+00 0. -1.
<mgrwt>
<rscale>  0 0.10944589E+04</rscale>
<asrwt>0</asrwt>
<pdfrwt beam="1">  1        4 0.11682897E+00 0.10964762E+04</pdfrwt>
<pdfrwt beam="2">  1       -4 0.24399308E+00 0.10924453E+04</pdfrwt>
<totfact> 0.31114336E-01</totfact>
</mgrwt>
</event>
<event>
 8    1  0.2939692E-006  0.1186401E+04  0.7818608E-02  0.8636651E-01
          4   -1    0    0  502    0  0.00000000000E+00  0.00000000000E+00  0.16436948146E+04  0.16436948146E+04  0.00000000000E+00 0.  1.
         -4   -1    0    0    0  501 -0.00000000000E+00 -0.00000000000E+00 -0.94535072333E+03  0.94535072333E+03  0.00000000000E+00 0. -1.
   -9000010    2    1    2    0  501 -0.21138167831E+02 -0.55509948889E+03 -0.12831092066E+03  0.11430493598E+04  0.99071483382E+03 0.  0.
    9000010    2    1    2  502    0  0.21138167831E+02  0.55509948889E+03  0.82665501197E+03  0.14459961781E+04  0.10483149210E+04 0.  0.
        -13    1    4    4    0    0 -0.11493510340E+03 -0.22355761277E+03 -0.59709094583E+02  0.25836654459E+03  0.10566000000E+00 0.  1.
          4    1    4    4  502    0  0.13607327123E+03  0.77865710166E+03  0.88636410655E+03  0.11876296336E+04  0.00000000000E+00 0.  1.
         13    1    3    3    0    0  0.11123411513E+03  0.16131386363E+03 -0.33293625914E+03  0.38631820406E+03  0.10566000000E+00 0. -1.
         -4    1    3    3    0  501 -0.13237228296E+03 -0.71641335252E+03  0.20462533848E+03  0.75673115578E+03  0.00000000000E+00 0. -1.
<mgrwt>
<rscale>  0 0.11608373E+04</rscale>
<asrwt>0</asrwt>
<pdfrwt beam="1">  1        4 0.25287612E+00 0.11864006E+04</pdfrwt>
<pdfrwt beam="2">  1       -4 0.14543857E+00 0.11358249E+04</pdfrwt>
<totfact> 0.20789901E-01</totfact>
</mgrwt>
</event>
<event>
 8    1  0.2939692E-006  0.1030876E+04  0.7818608E-02  0.8755203E-01
          4   -1    0    0  502    0  0.00000000000E+00  0.00000000000E+00  0.44874546381E+03  0.44874546381E+03  0.00000000000E+00 0.  1.
         -4   -1    0    0    0  501 -0.00000000000E+00 -0.00000000000E+00 -0.48119548643E+04  0.48119548643E+04  0.00000000000E+00 0. -1.
   -9000010    2    1    2    0  501 -0.20808332823E+03  0.13901500373E+03 -0.40631495165E+04  0.41870428117E+04  0.97955074941E+03 0.  0.
    9000010    2    1    2  502    0  0.20808332823E+03 -0.13901500373E+03 -0.30005988394E+03  0.10736575164E+04  0.10000403421E+04 0.  0.
        -13    1    4    4    0    0 -0.26191206306E+03  0.29176043033E+03 -0.88609602140E+02  0.40196237416E+03  0.10566000000E+00 0.  1.
          4    1    4    4  502    0  0.46999539129E+03 -0.43077543406E+03 -0.21145028180E+03  0.67169514223E+03  0.00000000000E+00 0.  1.
         13    1    3    3    0    0  0.22287066018E+03 -0.31200731901E+03 -0.13749754755E+04  0.14274373779E+04  0.10566000000E+00 0. -1.
         -4    1    3    3    0  501 -0.43095398841E+03  0.45102232274E+03 -0.26881740410E+04  0.27596054338E+04  0.00000000000E+00 0. -1.
<mgrwt>
<rscale>  0 0.10208951E+04</rscale>
<asrwt>0</asrwt>
<pdfrwt beam="1">  1        4 0.69037764E-01 0.10308756E+04</pdfrwt>
<pdfrwt beam="2">  1       -4 0.74030074E+00 0.10110111E+04</pdfrwt>
<totfact> 0.63422432E-03</totfact>
</mgrwt>
</event>
<event>
 8    1  0.2939692E-006  0.1190906E+04  0.7818608E-02  0.8618420E-01
          4   -1    0    0  502    0  0.00000000000E+00  0.00000000000E+00  0.16865114338E+04  0.16865114338E+04  0.00000000000E+00 0.  1.
         -4   -1    0    0    0  501 -0.00000000000E+00 -0.00000000000E+00 -0.14065760278E+04  0.14065760278E+04  0.00000000000E+00 0. -1.
   -9000010    2    1    2    0  501 -0.16860156225E+03  0.62282261245E+03 -0.84912426888E+03  0.14520411457E+04  0.98543237794E+03 0.  0.
    9000010    2    1    2  502    0  0.16860156225E+03 -0.62282261245E+03  0.11290596749E+04  0.16410463159E+04  0.10009609223E+04 0.  0.
        -13    1    4    4    0    0  0.47652170978E+03 -0.61737162349E+03  0.46232825059E+03  0.90662455506E+03  0.10566000000E+00 0.  1.
          4    1    4    4  502    0 -0.30792014753E+03 -0.54509889524E+01  0.66673142436E+03  0.73442176081E+03  0.00000000000E+00 0.  1.
         13    1    3    3    0    0  0.41856208865E+02  0.83910886192E+03 -0.45437115406E+03  0.95514856498E+03  0.10566000000E+00 0. -1.
         -4    1    3    3    0  501 -0.21045777111E+03 -0.21628624948E+03 -0.39475311482E+03  0.49689258074E+03  0.00000000000E+00 0. -1.
<mgrwt>
<rscale>  0 0.11843773E+04</rscale>
<asrwt>0</asrwt>
<pdfrwt beam="1">  1        4 0.25946330E+00 0.11909061E+04</pdfrwt>
<pdfrwt beam="2">  1       -4 0.21639631E+00 0.11778843E+04</pdfrwt>
<totfact> 0.11616966E-01</totfact>
</mgrwt>
</event>
<event>
 8    1  0.2939692E-006  0.2011410E+04  0.7818608E-02  0.8168995E-01
          4   -1    0    0  502    0  0.00000000000E+00  0.00000000000E+00  0.39380090022E+04  0.39380090022E+04  0.00000000000E+00 0.  1.
         -4   -1    0    0    0  501 -0.00000000000E+00 -0.00000000000E+00 -0.14002762732E+04  0.14002762732E+04  0.00000000000E+00 0. -1.
   -9000010    2    1    2    0  501  0.17043541272E+04  0.33236376183E+03 -0.13840161068E+03  0.19905297899E+04  0.96320567752E+03 0.  0.
    9000010    2    1    2  502    0 -0.17043541272E+04 -0.33236376183E+03  0.26761343397E+04  0.33477554856E+04  0.10151271479E+04 0.  0.
        -13    1    4    4    0    0 -0.11272970588E+04 -0.43002387127E+03  0.98286888044E+03  0.15561974283E+04  0.10566000000E+00 0.  1.
          4    1    4    4  502    0 -0.57705706844E+03  0.97660109434E+02  0.16932654592E+04  0.17915580573E+04  0.00000000000E+00 0.  1.
         13    1    3    3    0    0  0.73167871142E+03 -0.32405541763E+03  0.51185246461E+02  0.80186382327E+03  0.10566000000E+00 0. -1.
         -4    1    3    3    0  501  0.97267541582E+03  0.65641917947E+03 -0.18958685714E+03  0.11886659666E+04  0.00000000000E+00 0. -1.
<mgrwt>
<rscale>  0 0.19985201E+04</rscale>
<asrwt>0</asrwt>
<pdfrwt beam="1">  1        4 0.60584754E+00 0.20114104E+04</pdfrwt>
<pdfrwt beam="2">  1       -4 0.21542712E+00 0.19857124E+04</pdfrwt>
<totfact> 0.40357234E-03</totfact>
</mgrwt>
</event>
<event>
 8    1  0.2939692E-006  0.1109477E+04  0.7818608E-02  0.8682805E-01
         -4   -1    0    0    0  501 -0.00000000000E+00  0.00000000000E+00  0.21368715401E+04  0.21368715401E+04  0.00000000000E+00 0. -1.
          4   -1    0    0  502    0  0.00000000000E+00 -0.00000000000E+00 -0.21646338929E+04  0.21646338929E+04  0.00000000000E+00 0.  1.
   -9000010    2    1    2    0  501  0.42648197694E+03  0.24879336020E+03  0.18320124491E+04  0.21417769820E+04  0.99355624610E+03 0.  0.
    9000010    2    1    2  502    0 -0.42648197694E+03 -0.24879336020E+03 -0.18597748019E+04  0.21597284511E+04  0.98075463587E+03 0.  0.
        -13    1    4    4    0    0  0.61951459214E+02  0.29912998958E+02 -0.14789709859E+04  0.14805701466E+04  0.10566000000E+00 0.  1.
          4    1    4    4  502    0 -0.48843343615E+03 -0.27870635916E+03 -0.38080381601E+03  0.67915830443E+03  0.00000000000E+00 0.  1.
         13    1    3    3    0    0  0.57960424631E+03  0.21625742349E+03  0.18790950182E+04  0.19783089886E+04  0.10566000000E+00 0. -1.
         -4    1    3    3    0  501 -0.15312226937E+03  0.32535936706E+02 -0.47082569133E+02  0.16346799341E+03  0.00000000000E+00 0. -1.
<mgrwt>
<rscale>  0 0.11037374E+04</rscale>
<asrwt>0</asrwt>
<pdfrwt beam="2">  1        4 0.33302060E+00 0.10980276E+04</pdfrwt>
<pdfrwt beam="1">  1       -4 0.32874947E+00 0.11094769E+04</pdfrwt>
<totfact> 0.38591664E-02</totfact>
</mgrwt>
</event>
<event>
 8    1  0.2939692E-006  0.1024600E+04  0.7818608E-02  0.8756118E-01
          4   -1    0    0  502    0  0.00000000000E+00  0.00000000000E+00  0.96389190698E+03  0.96389190698E+03  0.00000000000E+00 0.  1.
         -4   -1    0    0    0  501 -0.00000000000E+00 -0.00000000000E+00 -0.26011707763E+04  0.26011707763E+04  0.00000000000E+00 0. -1.
   -9000010    2    1    2    0  501  0.18289091468E+03  0.44199349161E+02 -0.21805828430E+04  0.24053282624E+04  0.99762710749E+03 0.  0.
    9000010    2    1    2  502    0 -0.18289091468E+03 -0.44199349161E+02  0.54330397372E+03  0.11597344208E+04  0.10071752826E+04 0.  0.
        -13    1    4    4    0    0  0.37634384155E+03 -0.11345976292E+03  0.43432355883E+03  0.58578560054E+03  0.10566000000E+00 0.  1.
          4    1    4    4  502    0 -0.55923475624E+03  0.69260413756E+02  0.10898041489E+03  0.57394882030E+03  0.00000000000E+00 0.  1.
         13    1    3    3    0    0  0.25774443616E+03  0.87043706430E+02 -0.54443025992E+02  0.27743982311E+03  0.10566000000E+00 0. -1.
         -4    1    3    3    0  501 -0.74853521477E+02 -0.42844357269E+02 -0.21261398170E+04  0.21278884393E+04  0.00000000000E+00 0. -1.
<mgrwt>
<rscale>  0 0.10198968E+04</rscale>
<asrwt>0</asrwt>
<pdfrwt beam="1">  1        4 0.14829107E+00 0.10245998E+04</pdfrwt>
<pdfrwt beam="2">  1       -4 0.40018011E+00 0.10152155E+04</pdfrwt>
<totfact> 0.72735901E-02</totfact>
</mgrwt>
</event>
<event>
 8    1  0.2939692E-006  0.1641180E+04  0.7818608E-02  0.8358271E-01
         -4   -1    0    0    0  501 -0.00000000000E+00  0.00000000000E+00  0.13115523542E+04  0.13115523542E+04  0.00000000000E+00 0. -1.
          4   -1    0    0  502    0  0.00000000000E+00 -0.00000000000E+00 -0.35414722535E+04  0.35414722535E+04  0.00000000000E+00 0.  1.
   -9000010    2    1    2    0  501 -0.66091756582E+03 -0.97241308326E+03  0.50053945915E+03  0.17158122856E+04  0.11450208801E+04 0.  0.
    9000010    2    1    2  502    0  0.66091756582E+03  0.97241308326E+03 -0.27304593584E+04  0.31372123221E+04  0.10021445068E+04 0.  0.
        -13    1    4    4    0    0  0.33551499614E+03  0.10836969574E+04 -0.24250069779E+04  0.26772426603E+04  0.10566000000E+00 0.  1.
          4    1    4    4  502    0  0.32540256968E+03 -0.11128387410E+03 -0.30545238049E+03  0.45996966176E+03  0.00000000000E+00 0.  1.
         13    1    3    3    0    0  0.25811826944E+03  0.44078371823E+02  0.14819586482E+03  0.30088198583E+03  0.10566000000E+00 0. -1.
         -4    1    3    3    0  501 -0.91903583526E+03 -0.10164914551E+04  0.35234359433E+03  0.14149302998E+04  0.00000000000E+00 0. -1.
<mgrwt>
<rscale>  0 0.15923086E+04</rscale>
<asrwt>0</asrwt>
<pdfrwt beam="2">  1        4 0.54484188E+00 0.15448925E+04</pdfrwt>
<pdfrwt beam="1">  1       -4 0.20177729E+00 0.16411801E+04</pdfrwt>
<totfact> 0.97688300E-03</totfact>
</mgrwt>
</event>
<event>
 8    1  0.2939692E-006  0.1022932E+04  0.7818608E-02  0.8762749E-01
          4   -1    0    0  502    0  0.00000000000E+00  0.00000000000E+00  0.28522273909E+04  0.28522273909E+04  0.00000000000E+00 0.  1.
         -4   -1    0    0    0  501 -0.00000000000E+00 -0.00000000000E+00 -0.44185009079E+03  0.44185009079E+03  0.00000000000E+00 0. -1.
   -9000010    2    1    2    0  501 -0.20376127415E+03 -0.46379293896E+02  0.48475289049E+03  0.11136145902E+04  0.98055208675E+03 0.  0.
    9000010    2    1    2  502    0  0.20376127415E+03  0.46379293896E+02  0.19256244096E+04  0.21804628915E+04  0.10013587562E+04 0.  0.
        -13    1    4    4    0    0 -0.33799054873E+03 -0.20383193284E+03  0.51534077277E+03  0.64912340207E+03  0.10566000000E+00 0.  1.
          4    1    4    4  502    0  0.54175182288E+03  0.25021122674E+03  0.14102836369E+04  0.15313394895E+04  0.00000000000E+00 0.  1.
         13    1    3    3    0    0 -0.29659144662E+03 -0.15702156818E+03 -0.21536599630E+03  0.39875403773E+03  0.10566000000E+00 0. -1.
         -4    1    3    3    0  501  0.92830172473E+02  0.11064227428E+03  0.70011888678E+03  0.71486055242E+03  0.00000000000E+00 0. -1.
<mgrwt>
<rscale>  0 0.10127010E+04</rscale>
<asrwt>0</asrwt>
<pdfrwt beam="1">  1        4 0.43880420E+00 0.10229316E+04</pdfrwt>
<pdfrwt beam="2">  1       -4 0.67976939E-01 0.10025727E+04</pdfrwt>
<totfact> 0.21220562E-01</totfact>
</mgrwt>
</event>
<event>
 8    1  0.2939692E-006  0.1323285E+04  0.7818608E-02  0.8524504E-01
         -4   -1    0    0    0  501 -0.00000000000E+00  0.00000000000E+00  0.31584974258E+04  0.31584974258E+04  0.00000000000E+00 0. -1.
          4   -1    0    0  502    0  0.00000000000E+00 -0.00000000000E+00 -0.25374444266E+04  0.25374444266E+04  0.00000000000E+00 0.  1.
   -9000010    2    1    2    0  501 -0.64687587412E+03 -0.58377608595E+03  0.28328777606E+04  0.31267040762E+04  0.99591117004E+03 0.  0.
    9000010    2    1    2  502    0  0.64687587412E+03  0.58377608595E+03 -0.22118247614E+04  0.25692377763E+04  0.97445936849E+03 0.  0.
        -13    1    4    4    0    0 -0.14488072256E+03 -0.77394384244E+02 -0.46410804538E+02  0.17068769265E+03  0.10566000000E+00 0.  1.
          4    1    4    4  502    0  0.79175659668E+03  0.66117047019E+03 -0.21654139569E+04  0.23985500836E+04  0.00000000000E+00 0.  1.
         13    1    3    3    0    0 -0.39216730975E+03  0.23017670416E+03  0.12241686101E+04  0.13058963630E+04  0.10566000000E+00 0. -1.
         -4    1    3    3    0  501 -0.25470856437E+03 -0.81395279011E+03  0.16087091505E+04  0.18208077132E+04  0.00000000000E+00 0. -1.
<mgrwt>
<rscale>  0 0.13152258E+04</rscale>
<asrwt>0</asrwt>
<pdfrwt beam="2">  1        4 0.39037606E+00 0.13072161E+04</pdfrwt>
<pdfrwt beam="1">  1       -4 0.48592268E+00 0.13232845E+04</pdfrwt>
<totfact> 0.54263945E-03</totfact>
</mgrwt>
</event>
<event>
 8    1  0.2939692E-006  0.1317732E+04  0.7818608E-02  0.8532836E-01
          4   -1    0    0  502    0  0.00000000000E+00  0.00000000000E+00  0.99214707767E+03  0.99214707767E+03  0.00000000000E+00 0.  1.
         -4   -1    0    0    0  501 -0.00000000000E+00 -0.00000000000E+00 -0.21115032655E+04  0.21115032655E+04  0.00000000000E+00 0. -1.
   -9000010    2    1    2    0  501 -0.78466384187E+03 -0.33071327641E+03 -0.12403701839E+04  0.18096783121E+04  0.10056583835E+04 0.  0.
    9000010    2    1    2  502    0  0.78466384187E+03  0.33071327641E+03  0.12101399601E+03  0.12939720311E+04  0.96677330026E+03 0.  0.
        -13    1    4    4    0    0  0.73008253369E+03  0.63296213675E+03  0.17541172019E+03  0.98205440547E+03  0.10566000000E+00 0.  1.
          4    1    4    4  502    0  0.54581308183E+02 -0.30224886034E+03 -0.54397724187E+02  0.31191762563E+03  0.00000000000E+00 0.  1.
         13    1    3    3    0    0 -0.32734740712E+03  0.30778487104E+03 -0.77765369543E+03  0.89812757054E+03  0.10566000000E+00 0. -1.
         -4    1    3    3    0  501 -0.45731643475E+03 -0.63849814745E+03 -0.46271648845E+03  0.91155074158E+03  0.00000000000E+00 0. -1.
<mgrwt>
<rscale>  0 0.13029333E+04</rscale>
<asrwt>0</asrwt>
<pdfrwt beam="1">  1        4 0.15263802E+00 0.12883009E+04</pdfrwt>
<pdfrwt beam="2">  1       -4 0.32484665E+00 0.13177319E+04</pdfrwt>
<totfact> 0.12476176E-01</totfact>
</mgrwt>
</event>
<event>
 8    1  0.2939692E-006  0.1045142E+04  0.7818608E-02  0.8737357E-01
         -4   -1    0    0    0  501 -0.00000000000E+00  0.00000000000E+00  0.49470622539E+03  0.49470622539E+03  0.00000000000E+00 0. -1.
          4   -1    0    0  502    0  0.00000000000E+00 -0.00000000000E+00 -0.22210276195E+04  0.22210276195E+04  0.00000000000E+00 0.  1.
   -9000010    2    1    2    0  501  0.29312699666E+03  0.12149718880E+03 -0.70354023431E+03  0.12598775129E+04  0.99580996338E+03 0.  0.
    9000010    2    1    2  502    0 -0.29312699666E+03 -0.12149718880E+03 -0.10227811598E+04  0.14558563320E+04  0.98628158025E+03 0.  0.
        -13    1    4    4    0    0 -0.58423989250E+03 -0.27789788767E+03 -0.88864234586E+03  0.10992036745E+04  0.10566000000E+00 0.  1.
          4    1    4    4  502    0  0.29111289583E+03  0.15640069887E+03 -0.13413881399E+03  0.35665265756E+03  0.00000000000E+00 0.  1.
         13    1    3    3    0    0 -0.28281922422E+03 -0.55318860909E+01 -0.59688673947E+03  0.66052335785E+03  0.10566000000E+00 0. -1.
         -4    1    3    3    0  501  0.57594622089E+03  0.12702907489E+03 -0.10665349484E+03  0.59935415505E+03  0.00000000000E+00 0. -1.
<mgrwt>
<rscale>  0 0.10405951E+04</rscale>
<asrwt>0</asrwt>
<pdfrwt beam="2">  1        4 0.34169657E+00 0.10360677E+04</pdfrwt>
<pdfrwt beam="1">  1       -4 0.76108648E-01 0.10451423E+04</pdfrwt>
<totfact> 0.39730269E-01</totfact>
</mgrwt>
</event>
<event>
 8    1  0.2939692E-006  0.1072427E+04  0.7818608E-02  0.8726559E-01
          4   -1    0    0  502    0  0.00000000000E+00  0.00000000000E+00  0.11309332559E+04  0.11309332559E+04  0.00000000000E+00 0.  1.
         -4   -1    0    0    0  501 -0.00000000000E+00 -0.00000000000E+00 -0.10406775696E+04  0.10406775696E+04  0.00000000000E+00 0. -1.
   -9000010    2    1    2    0  501  0.24266814366E+03  0.34150393006E+03 -0.21718872400E+03  0.10559842136E+04  0.94467928704E+03 0.  0.
    9000010    2    1    2  502    0 -0.24266814366E+03 -0.34150393006E+03  0.30744441028E+03  0.11156266119E+04  0.98721219078E+03 0.  0.
        -13    1    4    4    0    0  0.21151600752E+03  0.16708396086E+03 -0.13633334101E+03  0.30206433495E+03  0.10566000000E+00 0.  1.
          4    1    4    4  502    0 -0.45418415118E+03 -0.50858789092E+03  0.44377775129E+03  0.81356227697E+03  0.00000000000E+00 0.  1.
         13    1    3    3    0    0 -0.17146120551E+03 -0.98093181401E+02  0.23097152963E+03  0.30392281240E+03  0.10566000000E+00 0. -1.
         -4    1    3    3    0  501  0.41412934917E+03  0.43959711146E+03 -0.44816025363E+03  0.75206140121E+03  0.00000000000E+00 0. -1.
<mgrwt>
<rscale>  0 0.10527369E+04</rscale>
<asrwt>0</asrwt>
<pdfrwt beam="1">  1        4 0.17398973E+00 0.10724275E+04</pdfrwt>
<pdfrwt beam="2">  1       -4 0.16010424E+00 0.10334078E+04</pdfrwt>
<totfact> 0.29728351E-01</totfact>
</mgrwt>
</event>
<event>
 8    1  0.2939692E-006  0.1055960E+04  0.7818608E-02  0.8731821E-01
          4   -1    0    0  502    0  0.00000000000E+00  0.00000000000E+00  0.13783766428E+04  0.13783766428E+04  0.00000000000E+00 0.  1.
         -4   -1    0    0    0  501 -0.00000000000E+00 -0.00000000000E+00 -0.19886126951E+04  0.19886126951E+04  0.00000000000E+00 0. -1.
   -9000010    2    1    2    0  501 -0.31656359854E+03  0.17291182584E+03 -0.16082839657E+04  0.19140091774E+04  0.97300709413E+03 0.  0.
    9000010    2    1    2  502    0  0.31656359854E+03 -0.17291182584E+03  0.99804791338E+03  0.14529801605E+04  0.99244178573E+03 0.  0.
        -13    1    4    4    0    0  0.10319410460E+03 -0.39475931976E+03 -0.54550507114E+00  0.40802481848E+03  0.10566000000E+00 0.  1.
          4    1    4    4  502    0  0.21336949394E+03  0.22184749392E+03  0.99859341845E+03  0.10449553420E+04  0.00000000000E+00 0.  1.
         13    1    3    3    0    0 -0.41224651961E+03 -0.28929609906E+03 -0.11530706919E+04  0.12582573097E+04  0.10566000000E+00 0. -1.
         -4    1    3    3    0  501  0.95682921075E+02  0.46220792490E+03 -0.45521327382E+03  0.65575186762E+03  0.00000000000E+00 0. -1.
<mgrwt>
<rscale>  0 0.10467981E+04</rscale>
<asrwt>0</asrwt>
<pdfrwt beam="1">  1        4 0.21205795E+00 0.10559601E+04</pdfrwt>
<pdfrwt beam="2">  1       -4 0.30594041E+00 0.10377157E+04</pdfrwt>
<totfact> 0.91753027E-02</totfact>
</mgrwt>
</event>
<event>
 8    1  0.2939692E-006  0.1577892E+04  0.7818608E-02  0.8388126E-01
         -4   -1    0    0    0  501 -0.00000000000E+00  0.00000000000E+00  0.13616494017E+04  0.13616494017E+04  0.00000000000E+00 0.  1.
          4   -1    0    0  502    0  0.00000000000E+00 -0.00000000000E+00 -0.17669627768E+04  0.17669627768E+04  0.00000000000E+00 0. -1.
   -9000010    2    1    2    0  501 -0.11805785676E+04 -0.30054470469E+03 -0.40913031889E+03  0.16300710752E+04  0.10028216285E+04 0.  0.
    9000010    2    1    2  502    0  0.11805785676E+04  0.30054470469E+03  0.38169437706E+01  0.14985411033E+04  0.87264998445E+03 0.  0.
        -13    1    4    4    0    0  0.94191149227E+03 -0.18174521983E+03  0.30460613139E+02  0.95976895361E+03  0.10566000000E+00 0.  1.
          4    1    4    4  502    0  0.23866707534E+03  0.48228992452E+03 -0.26643669368E+02  0.53877214967E+03  0.00000000000E+00 0.  1.
         13    1    3    3    0    0 -0.84902011095E+03 -0.66374020708E+03 -0.35829310603E+03  0.11356760860E+04  0.10566000000E+00 0. -1.
         -4    1    3    3    0  501 -0.33155845666E+03  0.36319550239E+03 -0.50837212859E+02  0.49439498921E+03  0.00000000000E+00 0. -1.
<mgrwt>
<rscale>  0 0.15377024E+04</rscale>
<asrwt>0</asrwt>
<pdfrwt beam="2">  1        4 0.27184043E+00 0.14985362E+04</pdfrwt>
<pdfrwt beam="1">  1       -4 0.20948452E+00 0.15778923E+04</pdfrwt>
<totfact> 0.11117305E-01</totfact>
</mgrwt>
</event>
<event>
 8    1  0.2939692E-006  0.1131718E+04  0.7818608E-02  0.8677057E-01
         -4   -1    0    0    0  501 -0.00000000000E+00  0.00000000000E+00  0.34199481354E+03  0.34199481354E+03  0.00000000000E+00 0. -1.
          4   -1    0    0  502    0  0.00000000000E+00 -0.00000000000E+00 -0.40307855292E+04  0.40307855292E+04  0.00000000000E+00 0.  1.
   -9000010    2    1    2    0  501  0.34606699968E+02  0.48139755255E+03 -0.25831869333E+04  0.28202200016E+04  0.10236429541E+04 0.  0.
    9000010    2    1    2  502    0 -0.34606699968E+02 -0.48139755255E+03 -0.11056037823E+04  0.15525603412E+04  0.97731400388E+03 0.  0.
        -13    1    4    4    0    0 -0.12892806748E+03  0.28740655679E+03 -0.30018128933E+03  0.43512503157E+03  0.10566000000E+00 0.  1.
          4    1    4    4  502    0  0.94321367507E+02 -0.76880410934E+03 -0.80542249301E+03  0.11174353096E+04  0.00000000000E+00 0.  1.
         13    1    3    3    0    0  0.17634785666E+03  0.36474008268E+03 -0.24212766673E+03  0.47197427115E+03  0.10566000000E+00 0. -1.
         -4    1    3    3    0  501 -0.14174115669E+03  0.11665746987E+03 -0.23410592666E+04  0.23482457304E+04  0.00000000000E+00 0. -1.
<mgrwt>
<rscale>  0 0.11106595E+04</rscale>
<asrwt>0</asrwt>
<pdfrwt beam="2">  1        4 0.62012083E+00 0.10899926E+04</pdfrwt>
<pdfrwt beam="1">  1       -4 0.52614588E-01 0.11317182E+04</pdfrwt>
<totfact> 0.45656985E-02</totfact>
</mgrwt>
</event>
<event>
 8    1  0.2939692E-006  0.1252438E+04  0.7818608E-02  0.8623237E-01
          4   -1    0    0  502    0  0.00000000000E+00  0.00000000000E+00  0.95446688857E+03  0.95446688857E+03  0.00000000000E+00 0.  1.
         -4   -1    0    0    0  501 -0.00000000000E+00 -0.00000000000E+00 -0.18924163051E+04  0.18924163051E+04  0.00000000000E+00 0. -1.
   -9000010    2    1    2    0  501 -0.46481889228E+03 -0.64379943237E+02 -0.11266418466E+04  0.15803110267E+04  0.10039221638E+04 0.  0.
    9000010    2    1    2  502    0  0.46481889228E+03  0.64379943237E+02  0.18869243008E+03  0.12665721670E+04  0.11612057704E+04 0.  0.
        -13    1    4    4    0    0  0.16779060865E+03 -0.52240008156E+03  0.25598812347E+03  0.60546301628E+03  0.10566000000E+00 0.  1.
          4    1    4    4  502    0  0.29702828363E+03  0.58678002480E+03 -0.67295693389E+02  0.66110915069E+03  0.00000000000E+00 0.  1.
         13    1    3    3    0    0 -0.39454656134E+02 -0.49867482185E+03 -0.51546880811E+03  0.71829057570E+03  0.10566000000E+00 0. -1.
         -4    1    3    3    0  501 -0.42536423614E+03  0.43429487861E+03 -0.61117303853E+03  0.86202045104E+03  0.00000000000E+00 0. -1.
<mgrwt>
<rscale>  0 0.11781025E+04</rscale>
<asrwt>0</asrwt>
<pdfrwt beam="1">  1        4 0.14684106E+00 0.12524377E+04</pdfrwt>
<pdfrwt beam="2">  1       -4 0.29114097E+00 0.11081792E+04</pdfrwt>
<totfact> 0.16567827E-01</totfact>
</mgrwt>
</event>
<event>
 8    1  0.2939692E-006  0.1127458E+04  0.7818608E-02  0.8669132E-01
         -4   -1    0    0    0  501 -0.00000000000E+00  0.00000000000E+00  0.73580976071E+03  0.73580976071E+03  0.00000000000E+00 0. -1.
          4   -1    0    0  502    0  0.00000000000E+00 -0.00000000000E+00 -0.18485260669E+04  0.18485260669E+04  0.00000000000E+00 0.  1.
   -9000010    2    1    2    0  501 -0.37463430780E+03 -0.31900655833E+03 -0.20051007162E+03  0.11451486975E+04  0.10144186521E+04 0.  0.
    9000010    2    1    2  502    0  0.37463430780E+03  0.31900655833E+03 -0.91220623457E+03  0.14391871301E+04  0.99851055691E+03 0.  0.
        -13    1    4    4    0    0 -0.65881413718E+02 -0.32286888490E+03 -0.20974482458E+03  0.39061180232E+03  0.10566000000E+00 0.  1.
          4    1    4    4  502    0  0.44051572152E+03  0.64187544323E+03 -0.70246140999E+03  0.10485753278E+04  0.00000000000E+00 0.  1.
         13    1    3    3    0    0 -0.63270047770E+03 -0.49789501763E+03 -0.20616865191E+03  0.83109257442E+03  0.10566000000E+00 0. -1.
         -4    1    3    3    0  501  0.25806616989E+03  0.17888845930E+03  0.56585802860E+01  0.31405612309E+03  0.00000000000E+00 0. -1.
<mgrwt>
<rscale>  0 0.11202893E+04</rscale>
<asrwt>0</asrwt>
<pdfrwt beam="2">  1        4 0.28438863E+00 0.11131664E+04</pdfrwt>
<pdfrwt beam="1">  1       -4 0.11320150E+00 0.11274579E+04</pdfrwt>
<totfact> 0.26259455E-01</totfact>
</mgrwt>
</event>
<event>
 8    1  0.2939692E-006  0.1154109E+04  0.7818608E-02  0.8646086E-01
         -4   -1    0    0    0  501 -0.00000000000E+00  0.00000000000E+00  0.20565702883E+04  0.20565702883E+04  0.00000000000E+00 0. -1.
          4   -1    0    0  502    0  0.00000000000E+00 -0.00000000000E+00 -0.16053206755E+04  0.16053206755E+04  0.00000000000E+00 0.  1.
   -9000010    2    1    2    0  501 -0.36855525281E+03  0.42735432255E+03  0.16436803505E+04  0.20024153146E+04  0.99474484484E+03 0.  0.
    9000010    2    1    2  502    0  0.36855525281E+03 -0.42735432255E+03 -0.11924307377E+04  0.16594756491E+04  0.10067291962E+04 0.  0.
        -13    1    4    4    0    0  0.26278114051E+02 -0.66325545844E+03 -0.42940317648E+03  0.79056020743E+03  0.10566000000E+00 0.  1.
          4    1    4    4  502    0  0.34227713876E+03  0.23590113589E+03 -0.76302756125E+03  0.86891544172E+03  0.00000000000E+00 0.  1.
         13    1    3    3    0    0 -0.50796722036E+03  0.47200283804E+03  0.17073462329E+04  0.18427828267E+04  0.10566000000E+00 0. -1.
         -4    1    3    3    0  501  0.13941196754E+03 -0.44648515488E+02 -0.63665882423E+02  0.15963248797E+03  0.00000000000E+00 0. -1.
<mgrwt>
<rscale>  0 0.11488780E+04</rscale>
<asrwt>0</asrwt>
<pdfrwt beam="2">  1        4 0.24697241E+00 0.11541093E+04</pdfrwt>
<pdfrwt beam="1">  1       -4 0.31639543E+00 0.11436704E+04</pdfrwt>
<totfact> 0.69834792E-02</totfact>
</mgrwt>
</event>
<event>
 8    1  0.2939692E-006  0.1067641E+04  0.7818608E-02  0.8716619E-01
         -4   -1    0    0    0  501 -0.00000000000E+00  0.00000000000E+00  0.75737255353E+03  0.75737255353E+03  0.00000000000E+00 0. -1.
          4   -1    0    0  502    0  0.00000000000E+00 -0.00000000000E+00 -0.19008850911E+04  0.19008850911E+04  0.00000000000E+00 0.  1.
   -9000010    2    1    2    0  501  0.29864501692E+03 -0.22999447370E+03  0.40928343611E+02  0.10684256902E+04  0.99888538983E+03 0.  0.
    9000010    2    1    2  502    0 -0.29864501692E+03  0.22999447370E+03 -0.11844408812E+04  0.15898319545E+04  0.99125129932E+03 0.  0.
        -13    1    4    4    0    0 -0.48682001759E+02 -0.12245169388E+03  0.14263306803E+03  0.19418691483E+03  0.10566000000E+00 0.  1.
          4    1    4    4  502    0 -0.24996301516E+03  0.35244616759E+03 -0.13270739492E+04  0.13956450397E+04  0.00000000000E+00 0.  1.
         13    1    3    3    0    0  0.57485335550E+03  0.12228978498E+03 -0.10615384805E+03  0.59722677641E+03  0.10566000000E+00 0. -1.
         -4    1    3    3    0  501 -0.27620833858E+03 -0.35228425868E+03  0.14708219166E+03  0.47119891375E+03  0.00000000000E+00 0. -1.
<mgrwt>
<rscale>  0 0.10640660E+04</rscale>
<asrwt>0</asrwt>
<pdfrwt beam="2">  1        4 0.29244386E+00 0.10605024E+04</pdfrwt>
<pdfrwt beam="1">  1       -4 0.11651886E+00 0.10676415E+04</pdfrwt>
<totfact> 0.23833025E-01</totfact>
</mgrwt>
</event>
<event>
 8    1  0.2939692E-006  0.1076790E+04  0.7818608E-02  0.8708271E-01
          4   -1    0    0  502    0  0.00000000000E+00  0.00000000000E+00  0.18794785753E+04  0.18794785753E+04  0.00000000000E+00 0.  1.
         -4   -1    0    0    0  501 -0.00000000000E+00 -0.00000000000E+00 -0.86099768426E+03  0.86099768426E+03  0.00000000000E+00 0. -1.
   -9000010    2    1    2    0  501 -0.39287890528E+03  0.11244593897E+03 -0.22663105336E+03  0.10943353288E+04  0.98955053136E+03 0.  0.
    9000010    2    1    2  502    0  0.39287890528E+03 -0.11244593897E+03  0.12451119444E+04  0.16461409308E+04  0.99623204446E+03 0.  0.
        -13    1    4    4    0    0  0.20107640646E+03  0.10673187961E+03 -0.11510406512E+03  0.25509287001E+03  0.10566000000E+00 0.  1.
          4    1    4    4  502    0  0.19180249882E+03 -0.21917781858E+03  0.13602160095E+04  0.13910480608E+04  0.00000000000E+00 0.  1.
         13    1    3    3    0    0  0.24017350647E+03  0.14284018859E+03 -0.35081059016E+03  0.44850274695E+03  0.10566000000E+00 0. -1.
         -4    1    3    3    0  501 -0.63305241175E+03 -0.30394249614E+02  0.12417953680E+03  0.64583258186E+03  0.00000000000E+00 0. -1.
<mgrwt>
<rscale>  0 0.10736960E+04</rscale>
<asrwt>0</asrwt>
<pdfrwt beam="1">  1        4 0.28915055E+00 0.10767898E+04</pdfrwt>
<pdfrwt beam="2">  1       -4 0.13246118E+00 0.10706111E+04</pdfrwt>
<totfact> 0.19666393E-01</totfact>
</mgrwt>
</event>
<event>
 8    1  0.2939692E-006  0.1208389E+04  0.7818608E-02  0.8604934E-01
         -4   -1    0    0    0  501 -0.00000000000E+00  0.00000000000E+00  0.36536837854E+04  0.36536837854E+04  0.00000000000E+00 0. -1.
          4   -1    0    0  502    0  0.00000000000E+00 -0.00000000000E+00 -0.75289617799E+03  0.75289617799E+03  0.00000000000E+00 0.  1.
   -9000010    2    1    2    0  501 -0.32169351897E+03 -0.58681474893E+03  0.29722243279E+04  0.32084766300E+04  0.10061642809E+04 0.  0.
    9000010    2    1    2  502    0  0.32169351897E+03  0.58681474893E+03 -0.71436720513E+02  0.11981033334E+04  0.99121648630E+03 0.  0.
        -13    1    4    4    0    0  0.55649443227E+03  0.26374745837E+03 -0.35264667603E+03  0.70965376362E+03  0.10566000000E+00 0.  1.
          4    1    4    4  502    0 -0.23480091329E+03  0.32306729056E+03  0.28120995552E+03  0.48844956976E+03  0.00000000000E+00 0.  1.
         13    1    3    3    0    0  0.18237226646E+03 -0.28387015870E+03  0.22590057738E+04  0.22840641427E+04  0.10566000000E+00 0. -1.
         -4    1    3    3    0  501 -0.50406578543E+03 -0.30294459023E+03  0.71321855408E+03  0.92441248730E+03  0.00000000000E+00 0. -1.
<mgrwt>
<rscale>  0 0.12021645E+04</rscale>
<asrwt>0</asrwt>
<pdfrwt beam="2">  1        4 0.11583018E+00 0.11959717E+04</pdfrwt>
<pdfrwt beam="1">  1       -4 0.56210519E+00 0.12083894E+04</pdfrwt>
<totfact> 0.18664768E-02</totfact>
</mgrwt>
</event>
<event>
 8    1  0.2939692E-006  0.1624888E+04  0.7818608E-02  0.8341529E-01
         -4   -1    0    0    0  501 -0.00000000000E+00  0.00000000000E+00  0.19062536254E+04  0.19062536254E+04  0.00000000000E+00 0. -1.
          4   -1    0    0  502    0  0.00000000000E+00 -0.00000000000E+00 -0.31631467672E+04  0.31631467672E+04  0.00000000000E+00 0.  1.
   -9000010    2    1    2    0  501 -0.20958317859E+03 -0.12704892283E+04  0.12729556830E+04  0.20626753706E+04  0.98800077208E+03 0.  0.
    9000010    2    1    2  502    0  0.20958317859E+03  0.12704892283E+04 -0.25298488249E+04  0.30067250220E+04  0.99105615056E+03 0.  0.
        -13    1    4    4    0    0  0.12676515316E+03  0.93098290051E+03 -0.24821434389E+04  0.26540223487E+04  0.10566000000E+00 0.  1.
          4    1    4    4  502    0  0.82818025431E+02  0.33950632778E+03 -0.47705386003E+02  0.35270267335E+03  0.00000000000E+00 0.  1.
         13    1    3    3    0    0 -0.32979513555E+03 -0.89200487725E+03  0.27710890111E+03  0.99056897120E+03  0.10566000000E+00 0. -1.
         -4    1    3    3    0  501  0.12021195697E+03 -0.37848435103E+03  0.99584678193E+03  0.10721063994E+04  0.00000000000E+00 0. -1.
<mgrwt>
<rscale>  0 0.16239566E+04</rscale>
<asrwt>0</asrwt>
<pdfrwt beam="2">  1        4 0.48663796E+00 0.16248878E+04</pdfrwt>
<pdfrwt beam="1">  1       -4 0.29326979E+00 0.16230260E+04</pdfrwt>
<totfact> 0.10683859E-02</totfact>
</mgrwt>
</event>
<event>
 8    1  0.2939692E-006  0.1455210E+04  0.7818608E-02  0.8436951E-01
          4   -1    0    0  502    0  0.00000000000E+00  0.00000000000E+00  0.11761235176E+04  0.11761235176E+04  0.00000000000E+00 0.  1.
         -4   -1    0    0    0  501 -0.00000000000E+00 -0.00000000000E+00 -0.19429066238E+04  0.19429066238E+04  0.00000000000E+00 0. -1.
   -9000010    2    1    2    0  501  0.40463531578E+03 -0.96097983158E+03 -0.81334283577E+03  0.16670824202E+04  0.10150986414E+04 0.  0.
    9000010    2    1    2  502    0 -0.40463531578E+03  0.96097983158E+03  0.46559729585E+02  0.14519477212E+04  0.10093425589E+04 0.  0.
        -13    1    4    4    0    0 -0.73132965980E+03  0.79872611688E+03  0.78380988136E+02  0.10857946728E+04  0.10566000000E+00 0.  1.
          4    1    4    4  502    0  0.32669434402E+03  0.16225371470E+03 -0.31821258551E+02  0.36615304839E+03  0.00000000000E+00 0.  1.
         13    1    3    3    0    0  0.80766843942E+02  0.20658737480E+01 -0.62934689661E+03  0.63451168496E+03  0.10566000000E+00 0. -1.
         -4    1    3    3    0  501  0.32386847184E+03 -0.96304570533E+03 -0.18399593916E+03  0.10325707352E+04  0.00000000000E+00 0. -1.
<mgrwt>
<rscale>  0 0.14532043E+04</rscale>
<asrwt>0</asrwt>
<pdfrwt beam="1">  1        4 0.18094208E+00 0.14512010E+04</pdfrwt>
<pdfrwt beam="2">  1       -4 0.29890871E+00 0.14552104E+04</pdfrwt>
<totfact> 0.11498376E-01</totfact>
</mgrwt>
</event>
<event>
 8    1  0.2939692E-006  0.1054084E+04  0.7818608E-02  0.8732486E-01
         -4   -1    0    0    0  501 -0.00000000000E+00  0.00000000000E+00  0.15233750980E+04  0.15233750980E+04  0.00000000000E+00 0. -1.
          4   -1    0    0  502    0  0.00000000000E+00 -0.00000000000E+00 -0.18213225910E+04  0.18213225910E+04  0.00000000000E+00 0.  1.
   -9000010    2    1    2    0  501 -0.16708557020E+03  0.30959387575E+03  0.11519882230E+04  0.15614643715E+04  0.99364388089E+03 0.  0.
    9000010    2    1    2  502    0  0.16708557020E+03 -0.30959387575E+03 -0.14499357159E+04  0.17832333175E+04  0.97664810890E+03 0.  0.
        -13    1    4    4    0    0  0.82675497037E+02 -0.16778152166E+02 -0.14750503577E+04  0.14774607653E+04  0.10566000000E+00 0.  1.
          4    1    4    4  502    0  0.84410073167E+02 -0.29281572359E+03  0.25114641755E+02  0.30577255217E+03  0.00000000000E+00 0.  1.
         13    1    3    3    0    0 -0.32963185907E+03  0.51750982897E+03  0.11431449076E+04  0.12974027426E+04  0.10566000000E+00 0. -1.
         -4    1    3    3    0  501  0.16254628887E+03 -0.20791595322E+03  0.88433153306E+01  0.26406162889E+03  0.00000000000E+00 0. -1.
<mgrwt>
<rscale>  0 0.10460510E+04</rscale>
<asrwt>0</asrwt>
<pdfrwt beam="2">  1        4 0.28020348E+00 0.10380787E+04</pdfrwt>
<pdfrwt beam="1">  1       -4 0.23436540E+00 0.10540845E+04</pdfrwt>
<totfact> 0.94404462E-02</totfact>
</mgrwt>
</event>
<event>
 8    1  0.2939692E-006  0.1262084E+04  0.7818608E-02  0.8573509E-01
         -4   -1    0    0    0  501 -0.00000000000E+00  0.00000000000E+00  0.18800521401E+04  0.18800521401E+04  0.00000000000E+00 0. -1.
          4   -1    0    0  502    0  0.00000000000E+00 -0.00000000000E+00 -0.17247725218E+04  0.17247725218E+04  0.00000000000E+00 0.  1.
   -9000010    2    1    2    0  501  0.64250822673E+03  0.44446560954E+03  0.13792931379E+04  0.18466821308E+04  0.94732192656E+03 0.  0.
    9000010    2    1    2  502    0 -0.64250822673E+03 -0.44446560954E+03 -0.12240135196E+04  0.17581425311E+04  0.99120611584E+03 0.  0.
        -13    1    4    4    0    0 -0.27385258512E+03 -0.34495682901E+03  0.35641070489E+02  0.44188318516E+03  0.10566000000E+00 0.  1.
          4    1    4    4  502    0 -0.36865564161E+03 -0.99508780526E+02 -0.12596545901E+04  0.13162593459E+04  0.00000000000E+00 0.  1.
         13    1    3    3    0    0  0.43016132463E+03  0.42860730514E+03  0.18679719090E+03  0.63532368830E+03  0.10566000000E+00 0. -1.
         -4    1    3    3    0  501  0.21234690210E+03  0.15858304402E+02  0.11924959470E+04  0.12113584425E+04  0.00000000000E+00 0. -1.
<mgrwt>
<rscale>  0 0.12448844E+04</rscale>
<asrwt>0</asrwt>
<pdfrwt beam="2">  1        4 0.26534962E+00 0.12620840E+04</pdfrwt>
<pdfrwt beam="1">  1       -4 0.28923879E+00 0.12279191E+04</pdfrwt>
<totfact> 0.74281863E-02</totfact>
</mgrwt>
</event>
<event>
 8    1  0.2939692E-006  0.1081422E+04  0.7818608E-02  0.8721452E-01
         -4   -1    0    0    0  501 -0.00000000000E+00  0.00000000000E+00  0.17895155756E+04  0.17895155756E+04  0.00000000000E+00 0. -1.
          4   -1    0    0  502    0  0.00000000000E+00 -0.00000000000E+00 -0.11749207622E+04  0.11749207622E+04  0.00000000000E+00 0.  1.
   -9000010    2    1    2    0  501  0.33922774703E+03  0.17750274784E+03  0.13163917713E+04  0.16752536130E+04  0.96281082388E+03 0.  0.
    9000010    2    1    2  502    0 -0.33922774703E+03 -0.17750274784E+03 -0.70179695790E+03  0.12891827248E+04  0.10113804615E+04 0.  0.
        -13    1    4    4    0    0 -0.53072889752E+03 -0.79439594425E+02 -0.86582071497E+03  0.10186409247E+04  0.10566000000E+00 0.  1.
          4    1    4    4  502    0  0.19150115049E+03 -0.98063153417E+02  0.16402375706E+03  0.27054180006E+03  0.00000000000E+00 0.  1.
         13    1    3    3    0    0 -0.62228804329E+02  0.49411073475E+03  0.83940793516E+03  0.97602435167E+03  0.10566000000E+00 0. -1.
         -4    1    3    3    0  501  0.40145655136E+03 -0.31660798691E+03  0.47698383614E+03  0.69922926136E+03  0.00000000000E+00 0. -1.
<mgrwt>
<rscale>  0 0.10585391E+04</rscale>
<asrwt>0</asrwt>
<pdfrwt beam="2">  1        4 0.18075704E+00 0.10814218E+04</pdfrwt>
<pdfrwt beam="1">  1       -4 0.27531009E+00 0.10361406E+04</pdfrwt>
<totfact> 0.13622441E-01</totfact>
</mgrwt>
</event>
<event>
 8    1  0.2939692E-006  0.1027192E+04  0.7818608E-02  0.8804018E-01
         -4   -1    0    0    0  501 -0.00000000000E+00  0.00000000000E+00  0.12442518243E+04  0.12442518243E+04  0.00000000000E+00 0. -1.
          4   -1    0    0  502    0  0.00000000000E+00 -0.00000000000E+00 -0.83498271857E+03  0.83498271857E+03  0.00000000000E+00 0.  1.
   -9000010    2    1    2    0  501 -0.24235031591E+03  0.13617914272E+02  0.50987901951E+03  0.10471268688E+04  0.88180436692E+03 0.  0.
    9000010    2    1    2  502    0  0.24235031591E+03 -0.13617914272E+02 -0.10060991379E+03  0.10321076741E+04  0.99810058259E+03 0.  0.
        -13    1    4    4    0    0  0.25674986790E+02 -0.19712579840E+03  0.40560294284E+03  0.45169850979E+03  0.10566000000E+00 0.  1.
          4    1    4    4  502    0  0.21667532912E+03  0.18350788413E+03 -0.50621285664E+03  0.58040916431E+03  0.00000000000E+00 0.  1.
         13    1    3    3    0    0 -0.50455426645E+03 -0.22421097554E+03  0.24022210080E+03  0.60212310886E+03  0.10566000000E+00 0. -1.
         -4    1    3    3    0  501  0.26220395055E+03  0.23782888981E+03  0.26965691871E+03  0.44500375990E+03  0.00000000000E+00 0. -1.
<mgrwt>
<rscale>  0 0.96926404E+03</rscale>
<asrwt>0</asrwt>
<pdfrwt beam="2">  1        4 0.12845888E+00 0.10271922E+04</pdfrwt>
<pdfrwt beam="1">  1       -4 0.19142336E+00 0.91460268E+03</pdfrwt>
<totfact> 0.36451896E-01</totfact>
</mgrwt>
</event>
<event>
 8    1  0.2939692E-006  0.1207418E+04  0.7818608E-02  0.8608646E-01
         -4   -1    0    0    0  501 -0.00000000000E+00  0.00000000000E+00  0.84448482854E+03  0.84448482854E+03  0.00000000000E+00 0. -1.
          4   -1    0    0  502    0  0.00000000000E+00 -0.00000000000E+00 -0.20523261423E+04  0.20523261423E+04  0.00000000000E+00 0.  1.
   -9000010    2    1    2    0  501 -0.49596267161E+03 -0.39267010469E+03 -0.58870748121E+01  0.12074320621E+04  0.10284399565E+04 0.  0.
    9000010    2    1    2  502    0  0.49596267161E+03  0.39267010469E+03 -0.12019542389E+04  0.16893789088E+04  0.10045587699E+04 0.  0.
        -13    1    4    4    0    0  0.30061702948E+03  0.34591025228E+03  0.12471461764E+02  0.45845397759E+03  0.10566000000E+00 0.  1.
          4    1    4    4  502    0  0.19534564212E+03  0.46759852412E+02 -0.12144257007E+04  0.12309249312E+04  0.00000000000E+00 0.  1.
         13    1    3    3    0    0 -0.24472087067E+03  0.31158185993E+03 -0.18696164604E+03  0.43809385778E+03  0.10566000000E+00 0. -1.
         -4    1    3    3    0  501 -0.25124180094E+03 -0.70425196462E+03  0.18107457122E+03  0.76933820427E+03  0.00000000000E+00 0. -1.
<mgrwt>
<rscale>  0 0.11972371E+04</rscale>
<asrwt>0</asrwt>
<pdfrwt beam="2">  1        4 0.31574248E+00 0.11871424E+04</pdfrwt>
<pdfrwt beam="1">  1       -4 0.12992074E+00 0.12074177E+04</pdfrwt>
<totfact> 0.17071542E-01</totfact>
</mgrwt>
</event>
<event>
 8    1  0.2939692E-006  0.1164387E+04  0.7818608E-02  0.8679791E-01
         -4   -1    0    0    0  501 -0.00000000000E+00  0.00000000000E+00  0.14567287474E+04  0.14567287474E+04  0.00000000000E+00 0. -1.
          4   -1    0    0  502    0  0.00000000000E+00 -0.00000000000E+00 -0.96386012286E+03  0.96386012286E+03  0.00000000000E+00 0.  1.
   -9000010    2    1    2    0  501  0.21287358630E+03  0.25342007352E+03  0.68375348683E+03  0.13503023462E+04  0.11163604695E+04 0.  0.
    9000010    2    1    2  502    0 -0.21287358630E+03 -0.25342007352E+03 -0.19088486231E+03  0.10702865241E+04  0.99976963125E+03 0.  0.
        -13    1    4    4    0    0  0.20001510302E+03  0.30121309946E+03 -0.58230611544E+02  0.36623242348E+03  0.10566000000E+00 0.  1.
          4    1    4    4  502    0 -0.41288868932E+03 -0.55463317298E+03 -0.13265425077E+03  0.70405410061E+03  0.00000000000E+00 0.  1.
         13    1    3    3    0    0  0.24263841530E+03 -0.34961805584E+03 -0.16262574637E+02  0.42587635300E+03  0.10566000000E+00 0. -1.
         -4    1    3    3    0  501 -0.29764829004E+02  0.60303812936E+03  0.70001606147E+03  0.92442599316E+03  0.00000000000E+00 0. -1.
<mgrwt>
<rscale>  0 0.11073606E+04</rscale>
<asrwt>0</asrwt>
<pdfrwt beam="2">  1        4 0.14828617E+00 0.10531269E+04</pdfrwt>
<pdfrwt beam="1">  1       -4 0.22411211E+00 0.11643872E+04</pdfrwt>
<totfact> 0.23753151E-01</totfact>
</mgrwt>
</event>
<event>
 8    1  0.2939692E-006  0.1365701E+04  0.7818608E-02  0.8495458E-01
         -4   -1    0    0    0  501 -0.00000000000E+00  0.00000000000E+00  0.30481637975E+04  0.30481637975E+04  0.00000000000E+00 0. -1.
          4   -1    0    0  502    0  0.00000000000E+00 -0.00000000000E+00 -0.92108517034E+03  0.92108517034E+03  0.00000000000E+00 0.  1.
   -9000010    2    1    2    0  501  0.62809929119E+03  0.66484274733E+03  0.22274999813E+04  0.26128327856E+04  0.10142062909E+04 0.  0.
    9000010    2    1    2  502    0 -0.62809929119E+03 -0.66484274733E+03 -0.10042135413E+03  0.13564161823E+04  0.99662220168E+03 0.  0.
        -13    1    4    4    0    0 -0.54352299018E+03  0.82327861554E+02  0.13946197207E+03  0.56713734709E+03  0.10566000000E+00 0.  1.
          4    1    4    4  502    0 -0.84576301006E+02 -0.74717060889E+03 -0.23988332620E+03  0.78927883518E+03  0.00000000000E+00 0.  1.
         13    1    3    3    0    0  0.35041549111E+03 -0.11233537489E+03  0.18915675516E+03  0.41375178798E+03  0.10566000000E+00 0. -1.
         -4    1    3    3    0  501  0.27768380007E+03  0.77717812223E+03  0.20383432262E+04  0.21990809976E+04  0.00000000000E+00 0. -1.
<mgrwt>
<rscale>  0 0.13591818E+04</rscale>
<asrwt>0</asrwt>
<pdfrwt beam="2">  1        4 0.14170541E+00 0.13526938E+04</pdfrwt>
<pdfrwt beam="1">  1       -4 0.46894827E+00 0.13657009E+04</pdfrwt>
<totfact> 0.37298184E-02</totfact>
</mgrwt>
</event>
<event>
 8    1  0.2939692E-006  0.1641576E+04  0.7818608E-02  0.8337363E-01
          4   -1    0    0  502    0  0.00000000000E+00  0.00000000000E+00  0.28865781339E+04  0.28865781339E+04  0.00000000000E+00 0.  1.
         -4   -1    0    0    0  501 -0.00000000000E+00 -0.00000000000E+00 -0.14241987531E+04  0.14241987531E+04  0.00000000000E+00 0. -1.
   -9000010    2    1    2    0  501 -0.12434088666E+04  0.33685871774E+03 -0.54506644706E+03  0.17297020214E+04  0.10174636337E+04 0.  0.
    9000010    2    1    2  502    0  0.12434088666E+04 -0.33685871774E+03  0.20074458278E+04  0.25810748655E+04  0.98618928430E+03 0.  0.
        -13    1    4    4    0    0  0.65982105800E+03  0.86592863073E+02  0.16440825670E+04  0.17736599592E+04  0.10566000000E+00 0.  1.
          4    1    4    4  502    0  0.58358780859E+03 -0.42345158081E+03  0.36336326081E+03  0.80741490631E+03  0.00000000000E+00 0.  1.
         13    1    3    3    0    0 -0.76395205350E+03  0.11357023712E+02 -0.79138328625E+03  0.11000178357E+04  0.10566000000E+00 0. -1.
         -4    1    3    3    0  501 -0.47945681309E+03  0.32550169403E+03  0.24631683919E+03  0.62968418568E+03  0.00000000000E+00 0. -1.
<mgrwt>
<rscale>  0 0.16319485E+04</rscale>
<asrwt>0</asrwt>
<pdfrwt beam="1">  1        4 0.44408894E+00 0.16223775E+04</pdfrwt>
<pdfrwt beam="2">  1       -4 0.21910750E+00 0.16415760E+04</pdfrwt>
<totfact> 0.26144758E-02</totfact>
</mgrwt>
</event>
<event>
 8    1  0.2939692E-006  0.1919739E+04  0.7818608E-02  0.8204665E-01
         -4   -1    0    0    0  501 -0.00000000000E+00  0.00000000000E+00  0.27962599891E+04  0.27962599891E+04  0.00000000000E+00 0. -1.
          4   -1    0    0  502    0  0.00000000000E+00 -0.00000000000E+00 -0.28523202562E+04  0.28523202562E+04  0.00000000000E+00 0.  1.
   -9000010    2    1    2    0  501 -0.86351266034E+03 -0.13971423256E+04  0.20493630764E+04  0.28080754202E+04  0.99384996559E+03 0.  0.
    9000010    2    1    2  502    0  0.86351266034E+03  0.13971423256E+04 -0.21054233435E+04  0.28405048251E+04  0.96850369814E+03 0.  0.
        -13    1    4    4    0    0  0.21202877519E+03  0.57306997274E+02 -0.89320102835E+03  0.91980888322E+03  0.10566000000E+00 0.  1.
          4    1    4    4  502    0  0.65148388515E+03  0.13398353283E+04 -0.12122223151E+04  0.19206959419E+04  0.00000000000E+00 0.  1.
         13    1    3    3    0    0 -0.30252190943E+03  0.88679603014E+02  0.48761322406E+03  0.58064640283E+03  0.10566000000E+00 0. -1.
         -4    1    3    3    0  501 -0.56099075091E+03 -0.14858219286E+04  0.15617498524E+04  0.22274290174E+04  0.00000000000E+00 0. -1.
<mgrwt>
<rscale>  0 0.19132289E+04</rscale>
<asrwt>0</asrwt>
<pdfrwt beam="2">  1        4 0.43881850E+00 0.19067407E+04</pdfrwt>
<pdfrwt beam="1">  1       -4 0.43019385E+00 0.19197392E+04</pdfrwt>
<totfact> 0.57233130E-03</totfact>
</mgrwt>
</event>
<event>
 8    1  0.2939692E-006  0.1020461E+04  0.7818608E-02  0.8756897E-01
          4   -1    0    0  502    0  0.00000000000E+00  0.00000000000E+00  0.16567115357E+04  0.16567115357E+04  0.00000000000E+00 0.  1.
         -4   -1    0    0    0  501 -0.00000000000E+00 -0.00000000000E+00 -0.18196258156E+04  0.18196258156E+04  0.00000000000E+00 0. -1.
   -9000010    2    1    2    0  501  0.22725986387E+02  0.20808879672E+03 -0.14887140452E+04  0.18032906252E+04  0.99587657500E+03 0.  0.
    9000010    2    1    2  502    0 -0.22725986387E+02 -0.20808879672E+03  0.13257997654E+04  0.16730467261E+04  0.99876068813E+03 0.  0.
        -13    1    4    4    0    0 -0.24812192293E+03 -0.51885631000E+03  0.49885757791E+03  0.76133780497E+03  0.10566000000E+00 0.  1.
          4    1    4    4  502    0  0.22539593654E+03  0.31076751328E+03  0.82694218748E+03  0.91170892118E+03  0.00000000000E+00 0.  1.
         13    1    3    3    0    0 -0.38346713747E+03 -0.11370956273E+03 -0.28019241141E+03  0.48834896206E+03  0.10566000000E+00 0. -1.
         -4    1    3    3    0  501  0.40619312385E+03  0.32179835945E+03 -0.12085216338E+04  0.13149416631E+04  0.00000000000E+00 0. -1.
<mgrwt>
<rscale>  0 0.10190486E+04</rscale>
<asrwt>0</asrwt>
<pdfrwt beam="1">  1        4 0.25487870E+00 0.10204608E+04</pdfrwt>
<pdfrwt beam="2">  1       -4 0.27994243E+00 0.10176382E+04</pdfrwt>
<totfact> 0.84769310E-02</totfact>
</mgrwt>
</event>
<event>
 8    1  0.2939692E-006  0.1075150E+04  0.7818608E-02  0.8715525E-01
         -4   -1    0    0    0  501 -0.00000000000E+00  0.00000000000E+00  0.29976317539E+04  0.29976317539E+04  0.00000000000E+00 0. -1.
          4   -1    0    0  502    0  0.00000000000E+00 -0.00000000000E+00 -0.13653136463E+04  0.13653136463E+04  0.00000000000E+00 0.  1.
   -9000010    2    1    2    0  501  0.15418839244E+03 -0.26102983545E+03  0.26726939420E+04  0.28808404092E+04  0.10315221375E+04 0.  0.
    9000010    2    1    2  502    0 -0.15418839244E+03  0.26102983545E+03 -0.10403758344E+04  0.14821049910E+04  0.10111096340E+04 0.  0.
        -13    1    4    4    0    0  0.34455429467E+03  0.40953585306E+03 -0.52658990065E+03  0.75082235685E+03  0.10566000000E+00 0.  1.
          4    1    4    4  502    0 -0.49874268711E+03 -0.14850601761E+03 -0.51378593378E+03  0.73128263412E+03  0.00000000000E+00 0.  1.
         13    1    3    3    0    0 -0.35927070524E+03 -0.39856947351E+03  0.11785182624E+04  0.12949279404E+04  0.10566000000E+00 0. -1.
         -4    1    3    3    0  501  0.51345909768E+03  0.13753963807E+03  0.14941756796E+04  0.15859124688E+04  0.00000000000E+00 0. -1.
<mgrwt>
<rscale>  0 0.10653213E+04</rscale>
<asrwt>0</asrwt>
<pdfrwt beam="2">  1        4 0.21004825E+00 0.10555820E+04</pdfrwt>
<pdfrwt beam="1">  1       -4 0.46117412E+00 0.10751505E+04</pdfrwt>
<totfact> 0.24250356E-02</totfact>
</mgrwt>
</event>
<event>
 8    1  0.2939692E-006  0.1103670E+04  0.7818608E-02  0.8692142E-01
         -4   -1    0    0    0  501 -0.00000000000E+00  0.00000000000E+00  0.22078829757E+04  0.22078829757E+04  0.00000000000E+00 0. -1.
          4   -1    0    0  502    0  0.00000000000E+00 -0.00000000000E+00 -0.97199051283E+03  0.97199051283E+03  0.00000000000E+00 0.  1.
   -9000010    2    1    2    0  501 -0.42502262443E+03 -0.56971886442E+02  0.16734862986E+04  0.19926177512E+04  0.99301514777E+03 0.  0.
    9000010    2    1    2  502    0  0.42502262443E+03  0.56971886442E+02 -0.43759383573E+03  0.11872557373E+04  0.10169551581E+04 0.  0.
        -13    1    4    4    0    0  0.45996448575E+03  0.20816463551E+03 -0.71151055170E+03  0.87243745906E+03  0.10566000000E+00 0.  1.
          4    1    4    4  502    0 -0.34941861324E+02 -0.15119274907E+03  0.27391671597E+03  0.31481827826E+03  0.00000000000E+00 0.  1.
         13    1    3    3    0    0 -0.38819429776E+03 -0.49398782604E+03  0.81967113476E+03  0.10327533904E+04  0.10566000000E+00 0. -1.
         -4    1    3    3    0  501 -0.36828326666E+02  0.43701593960E+03  0.85381516384E+03  0.95986436079E+03  0.00000000000E+00 0. -1.
<mgrwt>
<rscale>  0 0.10926052E+04</rscale>
<asrwt>0</asrwt>
<pdfrwt beam="2">  1        4 0.14953700E+00 0.11036702E+04</pdfrwt>
<pdfrwt beam="1">  1       -4 0.33967430E+00 0.10816511E+04</pdfrwt>
<totfact> 0.11832208E-01</totfact>
</mgrwt>
</event>
<event>
 8    1  0.2939692E-006  0.1162753E+04  0.7818608E-02  0.8636530E-01
          4   -1    0    0  502    0  0.00000000000E+00  0.00000000000E+00  0.25748281692E+04  0.25748281692E+04  0.00000000000E+00 0.  1.
         -4   -1    0    0    0  501 -0.00000000000E+00 -0.00000000000E+00 -0.82737263724E+03  0.82737263724E+03  0.00000000000E+00 0. -1.
   -9000010    2    1    2    0  501 -0.51286910958E+03 -0.29073762295E+03 -0.15804216661E+03  0.11699563368E+04  0.99812695314E+03 0.  0.
    9000010    2    1    2  502    0  0.51286910958E+03  0.29073762295E+03  0.19054976986E+04  0.22322444697E+04  0.10022129535E+04 0.  0.
        -13    1    4    4    0    0  0.20155553973E+01  0.21049129748E+03  0.16352976712E+04  0.16487902030E+04  0.10566000000E+00 0.  1.
          4    1    4    4  502    0  0.51085355418E+03  0.80246325475E+02  0.27020002740E+03  0.58345426674E+03  0.00000000000E+00 0.  1.
         13    1    3    3    0    0 -0.25451522265E+03  0.34815864407E+03 -0.20836513384E+03  0.47896605325E+03  0.10566000000E+00 0. -1.
         -4    1    3    3    0  501 -0.25835388693E+03 -0.63889626702E+03  0.50322967238E+02  0.69099028353E+03  0.00000000000E+00 0. -1.
<mgrwt>
<rscale>  0 0.11609914E+04</rscale>
<asrwt>0</asrwt>
<pdfrwt beam="1">  1        4 0.39612741E+00 0.11627527E+04</pdfrwt>
<pdfrwt beam="2">  1       -4 0.12728810E+00 0.11592327E+04</pdfrwt>
<totfact> 0.94252596E-02</totfact>
</mgrwt>
</event>
<event>
 8    1  0.2939692E-006  0.1126189E+04  0.7818608E-02  0.8667688E-01
          4   -1    0    0  502    0  0.00000000000E+00  0.00000000000E+00  0.11216056504E+04  0.11216056504E+04  0.00000000000E+00 0.  1.
         -4   -1    0    0    0  501 -0.00000000000E+00 -0.00000000000E+00 -0.11576630226E+04  0.11576630226E+04  0.00000000000E+00 0. -1.
   -9000010    2    1    2    0  501  0.12155895034E+02 -0.51469425325E+03 -0.21665229323E+03  0.11468394989E+04  0.10016210261E+04 0.  0.
    9000010    2    1    2  502    0 -0.12155895034E+02  0.51469425325E+03  0.18059492106E+03  0.11324291741E+04  0.99233228741E+03 0.  0.
        -13    1    4    4    0    0  0.12374805536E+03 -0.25468026551E+03  0.20691812334E+03  0.35070035611E+03  0.10566000000E+00 0.  1.
          4    1    4    4  502    0 -0.13590395039E+03  0.76937451875E+03 -0.26323202278E+02  0.78172881795E+03  0.00000000000E+00 0.  1.
         13    1    3    3    0    0 -0.46926334628E+03 -0.80382076389E+02 -0.60516628450E+02  0.47992878622E+03  0.10566000000E+00 0. -1.
         -4    1    3    3    0  501  0.48141924131E+03 -0.43431217686E+03 -0.15613566478E+03  0.66691071268E+03  0.00000000000E+00 0. -1.
<mgrwt>
<rscale>  0 0.11220552E+04</rscale>
<asrwt>0</asrwt>
<pdfrwt beam="1">  1        4 0.17255472E+00 0.11179362E+04</pdfrwt>
<pdfrwt beam="2">  1       -4 0.17810200E+00 0.11261894E+04</pdfrwt>
<totfact> 0.25903241E-01</totfact>
</mgrwt>
</event>
<event>
 8    1  0.2939692E-006  0.1192119E+04  0.7818608E-02  0.8613844E-01
          4   -1    0    0  502    0  0.00000000000E+00  0.00000000000E+00  0.33333948758E+04  0.33333948758E+04  0.00000000000E+00 0.  1.
         -4   -1    0    0    0  501 -0.00000000000E+00 -0.00000000000E+00 -0.93323707109E+03  0.93323707109E+03  0.00000000000E+00 0. -1.
   -9000010    2    1    2    0  501 -0.50337267940E+03 -0.37139267395E+03 -0.37329558370E+03  0.12491990203E+04  0.10148063987E+04 0.  0.
    9000010    2    1    2  502    0  0.50337267940E+03  0.37139267395E+03  0.27734533884E+04  0.30174329266E+04  0.10107132116E+04 0.  0.
        -13    1    4    4    0    0 -0.91098820774E+02 -0.66261402201E+02 -0.31498322787E+02  0.11696890215E+03  0.10566000000E+00 0.  1.
          4    1    4    4  502    0  0.59447150017E+03  0.43765407615E+03  0.28049517112E+04  0.29004640244E+04  0.00000000000E+00 0.  1.
         13    1    3    3    0    0  0.27537323445E+03 -0.14512277311E+03 -0.30432151129E+03  0.43531899904E+03  0.10566000000E+00 0. -1.
         -4    1    3    3    0  501 -0.77874591385E+03 -0.22626990084E+03 -0.68974072409E+02  0.81388002127E+03  0.00000000000E+00 0. -1.
<mgrwt>
<rscale>  0 0.11903769E+04</rscale>
<asrwt>0</asrwt>
<pdfrwt beam="1">  1        4 0.51282998E+00 0.11886369E+04</pdfrwt>
<pdfrwt beam="2">  1       -4 0.14357494E+00 0.11921194E+04</pdfrwt>
<totfact> 0.23230090E-02</totfact>
</mgrwt>
</event>
<event>
 8    1  0.2939692E-006  0.1132394E+04  0.7818608E-02  0.8659482E-01
          4   -1    0    0  502    0  0.00000000000E+00  0.00000000000E+00  0.18291185179E+04  0.18291185179E+04  0.00000000000E+00 0.  1.
         -4   -1    0    0    0  501 -0.00000000000E+00 -0.00000000000E+00 -0.14898104519E+04  0.14898104519E+04  0.00000000000E+00 0. -1.
   -9000010    2    1    2    0  501  0.51455794074E+03  0.84355992650E+02 -0.10380177635E+04  0.15361630085E+04  0.10052015238E+04 0.  0.
    9000010    2    1    2  502    0 -0.51455794074E+03 -0.84355992650E+02  0.13773258295E+04  0.17827659614E+04  0.10046602533E+04 0.  0.
        -13    1    4    4    0    0  0.26468088571E+03 -0.18327838930E+03  0.58094013656E+03  0.66418249952E+03  0.10566000000E+00 0.  1.
          4    1    4    4  502    0 -0.77923882645E+03  0.98922396645E+02  0.79638569293E+03  0.11185834618E+04  0.00000000000E+00 0.  1.
         13    1    3    3    0    0  0.41152459880E+03  0.36556846249E+03 -0.11002599467E+04  0.12302701970E+04  0.10566000000E+00 0. -1.
         -4    1    3    3    0  501  0.10303334194E+03 -0.28121246984E+03  0.62242183200E+02  0.30589281148E+03  0.00000000000E+00 0. -1.
<mgrwt>
<rscale>  0 0.11321536E+04</rscale>
<asrwt>0</asrwt>
<pdfrwt beam="1">  1        4 0.28140285E+00 0.11319134E+04</pdfrwt>
<pdfrwt beam="2">  1       -4 0.22920161E+00 0.11323939E+04</pdfrwt>
<totfact> 0.95838323E-02</totfact>
</mgrwt>
</event>
<event>
 8    1  0.2939692E-006  0.1084908E+04  0.7818608E-02  0.8707748E-01
         -4   -1    0    0    0  501 -0.00000000000E+00  0.00000000000E+00  0.20705868051E+04  0.20705868051E+04  0.00000000000E+00 0. -1.
          4   -1    0    0  502    0  0.00000000000E+00 -0.00000000000E+00 -0.70998142018E+03  0.70998142018E+03  0.00000000000E+00 0.  1.
   -9000010    2    1    2    0  501  0.34088357274E+03  0.14410061883E+03  0.13194479273E+04  0.16948797287E+04  0.99735042170E+03 0.  0.
    9000010    2    1    2  502    0 -0.34088357274E+03 -0.14410061883E+03  0.41157457704E+02  0.10856884966E+04  0.10198328180E+04 0.  0.
        -13    1    4    4    0    0 -0.33938512364E+03 -0.31741356866E+02 -0.45975186783E+03  0.57232994594E+03  0.10566000000E+00 0.  1.
          4    1    4    4  502    0 -0.14984490998E+01 -0.11235926197E+03  0.50090932553E+03  0.51335855063E+03  0.00000000000E+00 0.  1.
         13    1    3    3    0    0  0.55799432770E+02 -0.18546416695E+03 -0.94360826509E+02  0.21544027169E+03  0.10566000000E+00 0. -1.
         -4    1    3    3    0  501  0.28508413997E+03  0.32956478579E+03  0.14138087538E+04  0.14794394571E+04  0.00000000000E+00 0. -1.
<mgrwt>
<rscale>  0 0.10743032E+04</rscale>
<asrwt>0</asrwt>
<pdfrwt beam="2">  1        4 0.10922791E+00 0.10849081E+04</pdfrwt>
<pdfrwt beam="1">  1       -4 0.31855181E+00 0.10638019E+04</pdfrwt>
<totfact> 0.22677369E-01</totfact>
</mgrwt>
</event>
<event>
 8    1  0.2939692E-006  0.1047815E+04  0.7818608E-02  0.8732690E-01
          4   -1    0    0  502    0  0.00000000000E+00  0.00000000000E+00  0.44345035594E+03  0.44345035594E+03  0.00000000000E+00 0.  1.
         -4   -1    0    0    0  501 -0.00000000000E+00 -0.00000000000E+00 -0.24918378735E+04  0.24918378735E+04  0.00000000000E+00 0. -1.
   -9000010    2    1    2    0  501 -0.29663249193E+03 -0.11129406367E+03 -0.11704099179E+04  0.15682618836E+04  0.99458974240E+03 0.  0.
    9000010    2    1    2  502    0  0.29663249193E+03  0.11129406367E+03 -0.87797759964E+03  0.13670263458E+04  0.99876882253E+03 0.  0.
        -13    1    4    4    0    0  0.58415592106E+03  0.19197702144E+03 -0.87367772393E+03  0.10683660858E+04  0.10566000000E+00 0.  1.
          4    1    4    4  502    0 -0.28752342914E+03 -0.80682957777E+02 -0.42998757073E+01  0.29866026001E+03  0.00000000000E+00 0.  1.
         13    1    3    3    0    0  0.24821650384E+03 -0.36218156990E+03 -0.42036727963E+03  0.60786148364E+03  0.10566000000E+00 0. -1.
         -4    1    3    3    0  501 -0.54484899576E+03  0.25088750623E+03 -0.75004263826E+03  0.96040039992E+03  0.00000000000E+00 0. -1.
<mgrwt>
<rscale>  0 0.10458218E+04</rscale>
<asrwt>0</asrwt>
<pdfrwt beam="1">  1        4 0.68223133E-01 0.10478150E+04</pdfrwt>
<pdfrwt beam="2">  1       -4 0.38335966E+00 0.10438323E+04</pdfrwt>
<totfact> 0.35465024E-01</totfact>
</mgrwt>
</event>
<event>
 8    1  0.2939692E-006  0.1111138E+04  0.7818608E-02  0.8678672E-01
         -4   -1    0    0    0  501 -0.00000000000E+00  0.00000000000E+00  0.18699891390E+04  0.18699891390E+04  0.00000000000E+00 0. -1.
          4   -1    0    0  502    0  0.00000000000E+00 -0.00000000000E+00 -0.12364554575E+04  0.12364554575E+04  0.00000000000E+00 0.  1.
   -9000010    2    1    2    0  501 -0.48099400779E+03  0.10603006044E+03  0.13793702021E+04  0.17681993033E+04  0.99059023444E+03 0.  0.
    9000010    2    1    2  502    0  0.48099400779E+03 -0.10603006044E+03 -0.74583652059E+03  0.13382452932E+04  0.99600739967E+03 0.  0.
        -13    1    4    4    0    0  0.27171195423E+03  0.44458303655E+03 -0.32102345652E+03  0.61199471670E+03  0.10566000000E+00 0.  1.
          4    1    4    4  502    0  0.20928205355E+03 -0.55061309700E+03 -0.42481306406E+03  0.72625057654E+03  0.00000000000E+00 0.  1.
         13    1    3    3    0    0 -0.35322235526E+03  0.57694709437E+02  0.15262259119E+04  0.15676288646E+04  0.10566000000E+00 0. -1.
         -4    1    3    3    0  501 -0.12777165252E+03  0.48335351006E+02 -0.14685570987E+03  0.20057043867E+03  0.00000000000E+00 0. -1.
<mgrwt>
<rscale>  0 0.11087090E+04</rscale>
<asrwt>0</asrwt>
<pdfrwt beam="2">  1        4 0.19022392E+00 0.11111383E+04</pdfrwt>
<pdfrwt beam="1">  1       -4 0.28769064E+00 0.11062851E+04</pdfrwt>
<totfact> 0.11767249E-01</totfact>
</mgrwt>
</event>
<event>
 8    1  0.2939692E-006  0.1065044E+04  0.7818608E-02  0.8716183E-01
          4   -1    0    0  502    0  0.00000000000E+00  0.00000000000E+00  0.38798079945E+04  0.38798079945E+04  0.00000000000E+00 0.  1.
         -4   -1    0    0    0  501 -0.00000000000E+00 -0.00000000000E+00 -0.31126866483E+03  0.31126866483E+03  0.00000000000E+00 0. -1.
   -9000010    2    1    2    0  501 -0.18474623891E+03  0.30190675638E+03  0.12650321714E+04  0.16536702839E+04  0.10045099057E+04 0.  0.
    9000010    2    1    2  502    0  0.18474623891E+03 -0.30190675638E+03  0.23035071583E+04  0.25374063755E+04  0.10034973960E+04 0.  0.
        -13    1    4    4    0    0 -0.38282967126E+03  0.18465042331E+01  0.55561083273E+03  0.67473355881E+03  0.10566000000E+00 0.  1.
          4    1    4    4  502    0  0.56757591017E+03 -0.30375326062E+03  0.17478963255E+04  0.18626728167E+04  0.00000000000E+00 0.  1.
         13    1    3    3    0    0 -0.42098934476E+03 -0.17400795090E+03  0.90097381068E+03  0.10095863579E+04  0.10566000000E+00 0. -1.
         -4    1    3    3    0  501  0.23624310585E+03  0.47591470728E+03  0.36405836076E+03  0.64408392598E+03  0.00000000000E+00 0. -1.
<mgrwt>
<rscale>  0 0.10645666E+04</rscale>
<asrwt>0</asrwt>
<pdfrwt beam="1">  1        4 0.59689350E+00 0.10640892E+04</pdfrwt>
<pdfrwt beam="2">  1       -4 0.47887490E-01 0.10650441E+04</pdfrwt>
<totfact> 0.74079065E-02</totfact>
</mgrwt>
</event>
<event>
 8    1  0.2939692E-006  0.1021715E+04  0.7818608E-02  0.8766579E-01
         -4   -1    0    0    0  501 -0.00000000000E+00  0.00000000000E+00  0.20556083723E+04  0.20556083723E+04  0.00000000000E+00 0. -1.
          4   -1    0    0  502    0  0.00000000000E+00 -0.00000000000E+00 -0.14243798028E+04  0.14243798028E+04  0.00000000000E+00 0.  1.
   -9000010    2    1    2    0  501 -0.95592039743E+02  0.31138457668E+02  0.17197061483E+04  0.19871098614E+04  0.99050942608E+03 0.  0.
    9000010    2    1    2  502    0  0.95592039743E+02 -0.31138457668E+02 -0.10884775788E+04  0.14928783136E+04  0.10167569907E+04 0.  0.
        -13    1    4    4    0    0 -0.42641429932E+03 -0.19896442696E+02 -0.22176750205E+03  0.48104662895E+03  0.10566000000E+00 0.  1.
          4    1    4    4  502    0  0.52200633907E+03 -0.11242014972E+02 -0.86671007679E+03  0.10118316847E+04  0.00000000000E+00 0.  1.
         13    1    3    3    0    0 -0.13367167368E+03  0.32739461119E+03  0.14150607664E+03  0.38089280470E+03  0.10566000000E+00 0. -1.
         -4    1    3    3    0  501  0.38079633933E+02 -0.29625615353E+03  0.15782000717E+04  0.16062170567E+04  0.00000000000E+00 0. -1.
<mgrwt>
<rscale>  0 0.10085724E+04</rscale>
<asrwt>0</asrwt>
<pdfrwt beam="2">  1        4 0.21913535E+00 0.10217153E+04</pdfrwt>
<pdfrwt beam="1">  1       -4 0.31624744E+00 0.99559850E+03</pdfrwt>
<totfact> 0.82884328E-02</totfact>
</mgrwt>
</event>
<event>
 8    1  0.2939692E-006  0.1166797E+04  0.7818608E-02  0.8634974E-01
         -4   -1    0    0    0  501 -0.00000000000E+00  0.00000000000E+00  0.19671587770E+04  0.19671587770E+04  0.00000000000E+00 0. -1.
          4   -1    0    0  502    0  0.00000000000E+00 -0.00000000000E+00 -0.91204186488E+03  0.91204186488E+03  0.00000000000E+00 0.  1.
   -9000010    2    1    2    0  501  0.55847240046E+03 -0.19586813439E+03  0.12430735740E+04  0.17048889287E+04  0.10055638223E+04 0.  0.
    9000010    2    1    2  502    0 -0.55847240046E+03  0.19586813439E+03 -0.18795666191E+03  0.11743117132E+04  0.99670684996E+03 0.  0.
        -13    1    4    4    0    0 -0.49431606415E+03 -0.35245196463E+03 -0.95851619269E+02  0.61462045420E+03  0.10566000000E+00 0.  1.
          4    1    4    4  502    0 -0.64156336311E+02  0.54832009901E+03 -0.92105042638E+02  0.55969125895E+03  0.00000000000E+00 0.  1.
         13    1    3    3    0    0  0.11403670193E+03 -0.11966525324E+02 -0.17401665831E+03  0.20839715844E+03  0.10566000000E+00 0. -1.
         -4    1    3    3    0  501  0.44443569853E+03 -0.18390160906E+03  0.14170902323E+04  0.14964917703E+04  0.00000000000E+00 0. -1.
<mgrwt>
<rscale>  0 0.11629782E+04</rscale>
<asrwt>0</asrwt>
<pdfrwt beam="2">  1        4 0.14031413E+00 0.11591722E+04</pdfrwt>
<pdfrwt beam="1">  1       -4 0.30263981E+00 0.11667966E+04</pdfrwt>
<totfact> 0.16454039E-01</totfact>
</mgrwt>
</event>
<event>
 8    1  0.2939692E-006  0.1365747E+04  0.7818608E-02  0.8528299E-01
          4   -1    0    0  502    0  0.00000000000E+00  0.00000000000E+00  0.11387470711E+04  0.11387470711E+04  0.00000000000E+00 0.  1.
         -4   -1    0    0    0  501 -0.00000000000E+00 -0.00000000000E+00 -0.19486183844E+04  0.19486183844E+04  0.00000000000E+00 0. -1.
   -9000010    2    1    2    0  501 -0.46952491677E+03 -0.78662450016E+03 -0.11509997390E+04  0.17860753310E+04  0.10129328394E+04 0.  0.
    9000010    2    1    2  502    0  0.46952491677E+03  0.78662450016E+03  0.34112842566E+03  0.13012901246E+04  0.85892702474E+03 0.  0.
        -13    1    4    4    0    0  0.22320505094E+03  0.62322753010E+03  0.61112853663E+03  0.90095013652E+03  0.10566000000E+00 0.  1.
          4    1    4    4  502    0  0.24631986582E+03  0.16339697006E+03 -0.27000011097E+03  0.40033998807E+03  0.00000000000E+00 0.  1.
         13    1    3    3    0    0 -0.18491147514E+03  0.25579238973E+02  0.14081667130E+03  0.23382877749E+03  0.10566000000E+00 0. -1.
         -4    1    3    3    0  501 -0.28461344163E+03 -0.81220373914E+03 -0.12918164103E+04  0.15522465535E+04  0.00000000000E+00 0. -1.
<mgrwt>
<rscale>  0 0.13096106E+04</rscale>
<asrwt>0</asrwt>
<pdfrwt beam="1">  1        4 0.17519186E+00 0.12557816E+04</pdfrwt>
<pdfrwt beam="2">  1       -4 0.29978744E+00 0.13657469E+04</pdfrwt>
<totfact> 0.12039478E-01</totfact>
</mgrwt>
</event>
<event>
 8    1  0.2939692E-006  0.1782828E+04  0.7818608E-02  0.8264373E-01
         -4   -1    0    0    0  501 -0.00000000000E+00  0.00000000000E+00  0.27638976396E+04  0.27638976396E+04  0.00000000000E+00 0. -1.
          4   -1    0    0  502    0  0.00000000000E+00 -0.00000000000E+00 -0.19181572642E+04  0.19181572642E+04  0.00000000000E+00 0.  1.
   -9000010    2    1    2    0  501  0.46812720166E+03 -0.14012588756E+04  0.19082477867E+04  0.26114907041E+04  0.99790007936E+03 0.  0.
    9000010    2    1    2  502    0 -0.46812720166E+03  0.14012588756E+04 -0.10625074113E+04  0.20705641997E+04  0.98774723121E+03 0.  0.
        -13    1    4    4    0    0  0.21175856303E+03  0.39057695058E+03 -0.64441408418E+03  0.78272700630E+03  0.10566000000E+00 0.  1.
          4    1    4    4  502    0 -0.67988576469E+03  0.10106819250E+04 -0.41809332710E+03  0.12878371934E+04  0.00000000000E+00 0.  1.
         13    1    3    3    0    0 -0.96963073707E+02 -0.10840915683E+04  0.14704550892E+04  0.18294519798E+04  0.10566000000E+00 0. -1.
         -4    1    3    3    0  501  0.56509027536E+03 -0.31716730736E+03  0.43779269755E+03  0.78203872423E+03  0.00000000000E+00 0. -1.
<mgrwt>
<rscale>  0 0.17799938E+04</rscale>
<asrwt>0</asrwt>
<pdfrwt beam="2">  1        4 0.29510112E+00 0.17771646E+04</pdfrwt>
<pdfrwt beam="1">  1       -4 0.42521502E+00 0.17828276E+04</pdfrwt>
<totfact> 0.20090683E-02</totfact>
</mgrwt>
</event>
<event>
 8    1  0.2939692E-006  0.1303535E+04  0.7818608E-02  0.8541387E-01
          4   -1    0    0  502    0  0.00000000000E+00  0.00000000000E+00  0.12681100028E+04  0.12681100028E+04  0.00000000000E+00 0.  1.
         -4   -1    0    0    0  501 -0.00000000000E+00 -0.00000000000E+00 -0.19325643036E+04  0.19325643036E+04  0.00000000000E+00 0. -1.
   -9000010    2    1    2    0  501  0.55308498759E+03 -0.60372212111E+03 -0.12357930392E+04  0.17774278354E+04  0.98065379788E+03 0.  0.
    9000010    2    1    2  502    0 -0.55308498759E+03  0.60372212111E+03  0.57133873841E+03  0.14232464710E+04  0.10143072317E+04 0.  0.
        -13    1    4    4    0    0 -0.77380798696E+03  0.50622813950E+03  0.69057590252E+03  0.11540974041E+04  0.10566000000E+00 0.  1.
          4    1    4    4  502    0  0.22072299938E+03  0.97493981616E+02 -0.11923716411E+03  0.26914906689E+03  0.00000000000E+00 0.  1.
         13    1    3    3    0    0 -0.27279801223E+03 -0.21859367351E+03 -0.22119715968E+03  0.41367879350E+03  0.10566000000E+00 0. -1.
         -4    1    3    3    0  501  0.82588299982E+03 -0.38512844761E+03 -0.10145958795E+04  0.13637490419E+04  0.00000000000E+00 0. -1.
<mgrwt>
<rscale>  0 0.12904633E+04</rscale>
<asrwt>0</asrwt>
<pdfrwt beam="1">  1        4 0.19509385E+00 0.13035346E+04</pdfrwt>
<pdfrwt beam="2">  1       -4 0.29731759E+00 0.12775231E+04</pdfrwt>
<totfact> 0.10598844E-01</totfact>
</mgrwt>
</event>
<event>
 8    1  0.2939692E-006  0.1164387E+04  0.7818608E-02  0.8640993E-01
         -4   -1    0    0    0  501 -0.00000000000E+00  0.00000000000E+00  0.25277510194E+04  0.25277510194E+04  0.00000000000E+00 0. -1.
          4   -1    0    0  502    0  0.00000000000E+00 -0.00000000000E+00 -0.76698741602E+03  0.76698741602E+03  0.00000000000E+00 0.  1.
   -9000010    2    1    2    0  501 -0.57492197553E+03  0.19284469033E+03  0.18045341517E+04  0.21475894013E+04  0.99401829935E+03 0.  0.
    9000010    2    1    2  502    0  0.57492197553E+03 -0.19284469033E+03 -0.43770548338E+02  0.11471490341E+04  0.97278501888E+03 0.  0.
        -13    1    4    4    0    0 -0.25816656547E+03 -0.82960814466E+02  0.11046863553E+03  0.29280676710E+03  0.10566000000E+00 0.  1.
          4    1    4    4  502    0  0.83308854100E+03 -0.10988387586E+03 -0.15423918387E+03  0.85434226698E+03  0.00000000000E+00 0.  1.
         13    1    3    3    0    0 -0.12365708748E+03 -0.19579426800E+03 -0.15993646463E+02  0.23212556636E+03  0.10566000000E+00 0. -1.
         -4    1    3    3    0  501 -0.45126488805E+03  0.38863895833E+03  0.18205277982E+04  0.19154638350E+04  0.00000000000E+00 0. -1.
<mgrwt>
<rscale>  0 0.11553149E+04</rscale>
<asrwt>0</asrwt>
<pdfrwt beam="2">  1        4 0.11799806E+00 0.11463137E+04</pdfrwt>
<pdfrwt beam="1">  1       -4 0.38888477E+00 0.11643868E+04</pdfrwt>
<totfact> 0.11408112E-01</totfact>
</mgrwt>
</event>
<event>
 8    1  0.2939692E-006  0.1263322E+04  0.7818608E-02  0.8578861E-01
         -4   -1    0    0    0  501 -0.00000000000E+00  0.00000000000E+00  0.17434652088E+04  0.17434652088E+04  0.00000000000E+00 0. -1.
          4   -1    0    0  502    0  0.00000000000E+00 -0.00000000000E+00 -0.11803375543E+04  0.11803375543E+04  0.00000000000E+00 0.  1.
   -9000010    2    1    2    0  501 -0.48121575450E+03 -0.53948250275E+03  0.10247813398E+04  0.16267020629E+04  0.10360370813E+04 0.  0.
    9000010    2    1    2  502    0  0.48121575450E+03  0.53948250275E+03 -0.46165368530E+03  0.12971007002E+04  0.97300366302E+03 0.  0.
        -13    1    4    4    0    0  0.58540926311E+03  0.75227828954E+03 -0.46400359574E+03  0.10601537522E+04  0.10566000000E+00 0.  1.
          4    1    4    4  502    0 -0.10419350861E+03 -0.21279578679E+03  0.23499104378E+01  0.23694694805E+03  0.00000000000E+00 0.  1.
         13    1    3    3    0    0  0.16743322009E+03  0.17525384418E+03  0.42814357801E+03  0.49199057679E+03  0.10566000000E+00 0. -1.
         -4    1    3    3    0  501 -0.64864897459E+03 -0.71473634693E+03  0.59663776176E+03  0.11347114861E+04  0.00000000000E+00 0. -1.
<mgrwt>
<rscale>  0 0.12374797E+04</rscale>
<asrwt>0</asrwt>
<pdfrwt beam="2">  1        4 0.18159039E+00 0.12121659E+04</pdfrwt>
<pdfrwt beam="1">  1       -4 0.26822542E+00 0.12633221E+04</pdfrwt>
<totfact> 0.13913774E-01</totfact>
</mgrwt>
</event>
<event>
 8    1  0.2939692E-006  0.1091894E+04  0.7818608E-02  0.8695568E-01
          4   -1    0    0  502    0  0.00000000000E+00  0.00000000000E+00  0.17420867581E+04  0.17420867581E+04  0.00000000000E+00 0.  1.
         -4   -1    0    0    0  501 -0.00000000000E+00 -0.00000000000E+00 -0.10689255789E+04  0.10689255789E+04  0.00000000000E+00 0. -1.
   -9000010    2    1    2    0  501  0.11833424922E+03  0.43121532307E+03 -0.51165572551E+03  0.11997942420E+04  0.98881999990E+03 0.  0.
    9000010    2    1    2  502    0 -0.11833424922E+03 -0.43121532307E+03  0.11848169048E+04  0.16112180950E+04  0.99613402836E+03 0.  0.
        -13    1    4    4    0    0 -0.84479823180E+02 -0.42406669521E+03  0.65560459037E+01  0.43244929809E+03  0.10566000000E+00 0.  1.
          4    1    4    4  502    0 -0.33854426036E+02 -0.71486278518E+01  0.11782608589E+04  0.11787687969E+04  0.00000000000E+00 0.  1.
         13    1    3    3    0    0  0.20877791200E+03 -0.28443973410E+03 -0.25012255228E+03  0.43249911121E+03  0.10566000000E+00 0. -1.
         -4    1    3    3    0  501 -0.90443662780E+02  0.71565505716E+03 -0.26153317323E+03  0.76729513075E+03  0.00000000000E+00 0. -1.
<mgrwt>
<rscale>  0 0.10885547E+04</rscale>
<asrwt>0</asrwt>
<pdfrwt beam="1">  1        4 0.26801335E+00 0.10918941E+04</pdfrwt>
<pdfrwt beam="2">  1       -4 0.16445009E+00 0.10852256E+04</pdfrwt>
<totfact> 0.16126291E-01</totfact>
</mgrwt>
</event>
<event>
 8    1  0.2939692E-006  0.1292966E+04  0.7818608E-02  0.8540223E-01
         -4   -1    0    0    0  501 -0.00000000000E+00  0.00000000000E+00  0.92265716593E+03  0.92265716593E+03  0.00000000000E+00 0. -1.
          4   -1    0    0  502    0  0.00000000000E+00 -0.00000000000E+00 -0.23741073522E+04  0.23741073522E+04  0.00000000000E+00 0.  1.
   -9000010    2    1    2    0  501  0.29967293664E+03 -0.76948730576E+03  0.77702398329E+02  0.12952986378E+04  0.99491020485E+03 0.  0.
    9000010    2    1    2  502    0 -0.29967293664E+03  0.76948730576E+03 -0.15291525846E+04  0.20014658803E+04  0.99279577981E+03 0.  0.
        -13    1    4    4    0    0 -0.99099899972E+02 -0.22860761114E+03 -0.47253529695E+03  0.53420206670E+03  0.10566000000E+00 0.  1.
          4    1    4    4  502    0 -0.20057303667E+03  0.99809491690E+03 -0.10566172876E+04  0.14672638136E+04  0.00000000000E+00 0.  1.
         13    1    3    3    0    0  0.64610414098E+03 -0.65572444847E+03 -0.85807627702E+01  0.92059695522E+03  0.10566000000E+00 0. -1.
         -4    1    3    3    0  501 -0.34643120434E+03 -0.11376285730E+03  0.86283161099E+02  0.37470168258E+03  0.00000000000E+00 0. -1.
<mgrwt>
<rscale>  0 0.12921525E+04</rscale>
<asrwt>0</asrwt>
<pdfrwt beam="2">  1        4 0.36524728E+00 0.12913396E+04</pdfrwt>
<pdfrwt beam="1">  1       -4 0.14194726E+00 0.12929659E+04</pdfrwt>
<totfact> 0.10292929E-01</totfact>
</mgrwt>
</event>
<event>
 8    1  0.2939692E-006  0.1064858E+04  0.7818608E-02  0.8720948E-01
          4   -1    0    0  502    0  0.00000000000E+00  0.00000000000E+00  0.95498531148E+03  0.95498531148E+03  0.00000000000E+00 0.  1.
         -4   -1    0    0    0  501 -0.00000000000E+00 -0.00000000000E+00 -0.26521678706E+04  0.26521678706E+04  0.00000000000E+00 0. -1.
   -9000010    2    1    2    0  501 -0.31843726140E+02 -0.37000295514E+03 -0.21927302138E+04  0.24326363773E+04  0.98576759118E+03 0.  0.
    9000010    2    1    2  502    0  0.31843726140E+02  0.37000295514E+03  0.49554765466E+03  0.11745168048E+04  0.99800102057E+03 0.  0.
        -13    1    4    4    0    0 -0.37767397339E+02 -0.26612314135E+03 -0.11286903687E+03  0.29152587074E+03  0.10566000000E+00 0.  1.
          4    1    4    4  502    0  0.69611123479E+02  0.63612609648E+03  0.60841669153E+03  0.88299093408E+03  0.00000000000E+00 0.  1.
         13    1    3    3    0    0  0.25774251873E+03 -0.15621471408E+02 -0.79147212476E+02  0.27007319144E+03  0.10566000000E+00 0. -1.
         -4    1    3    3    0  501 -0.28958624487E+03 -0.35438148373E+03 -0.21135830013E+04  0.21625631858E+04  0.00000000000E+00 0. -1.
<mgrwt>
<rscale>  0 0.10591140E+04</rscale>
<asrwt>0</asrwt>
<pdfrwt beam="1">  1        4 0.14692082E+00 0.10648579E+04</pdfrwt>
<pdfrwt beam="2">  1       -4 0.40802583E+00 0.10534011E+04</pdfrwt>
<totfact> 0.68332175E-02</totfact>
</mgrwt>
</event>
<event>
 8    1  0.2939692E-006  0.1121179E+04  0.7818608E-02  0.8690032E-01
         -4   -1    0    0    0  501 -0.00000000000E+00  0.00000000000E+00  0.16259311857E+04  0.16259311857E+04  0.00000000000E+00 0. -1.
          4   -1    0    0  502    0  0.00000000000E+00 -0.00000000000E+00 -0.10281959077E+04  0.10281959077E+04  0.00000000000E+00 0.  1.
   -9000010    2    1    2    0  501 -0.49151192296E+03  0.11921949176E+03  0.10087989263E+04  0.15082168971E+04  0.10006226449E+04 0.  0.
    9000010    2    1    2  502    0  0.49151192296E+03 -0.11921949176E+03 -0.41106364825E+03  0.11459101962E+04  0.94251769070E+03 0.  0.
        -13    1    4    4    0    0  0.41699046325E+03  0.22242744198E+03 -0.58769735395E+03  0.75415065099E+03  0.10566000000E+00 0.  1.
          4    1    4    4  502    0  0.74521459712E+02 -0.34164693374E+03  0.17663370570E+03  0.39175954524E+03  0.00000000000E+00 0.  1.
         13    1    3    3    0    0 -0.32410047878E+03  0.43983891128E+03  0.10079734553E+04  0.11465207744E+04  0.10566000000E+00 0. -1.
         -4    1    3    3    0  501 -0.16741144418E+03 -0.32061941951E+03  0.82547091278E+00  0.36169612275E+03  0.00000000000E+00 0. -1.
<mgrwt>
<rscale>  0 0.10951082E+04</rscale>
<asrwt>0</asrwt>
<pdfrwt beam="2">  1        4 0.15818399E+00 0.10696433E+04</pdfrwt>
<pdfrwt beam="1">  1       -4 0.25014326E+00 0.11211793E+04</pdfrwt>
<totfact> 0.18723884E-01</totfact>
</mgrwt>
</event>
<event>
 8    1  0.2939692E-006  0.1670433E+04  0.7818608E-02  0.8318171E-01
          4   -1    0    0  502    0  0.00000000000E+00  0.00000000000E+00  0.82880311222E+03  0.82880311222E+03  0.00000000000E+00 0.  1.
         -4   -1    0    0    0  501 -0.00000000000E+00 -0.00000000000E+00 -0.34037544898E+04  0.34037544898E+04  0.00000000000E+00 0. -1.
   -9000010    2    1    2    0  501  0.13296349444E+04  0.10014932736E+03 -0.15212234217E+04  0.22593065657E+04  0.10061741826E+04 0.  0.
    9000010    2    1    2  502    0 -0.13296349444E+04 -0.10014932736E+03 -0.10537279558E+04  0.19732510363E+04  0.10027053775E+04 0.  0.
        -13    1    4    4    0    0 -0.82726186155E+03  0.18315160015E+03 -0.92576700008E+02  0.85233629089E+03  0.10566000000E+00 0.  1.
          4    1    4    4  502    0 -0.50237308288E+03 -0.28330092750E+03 -0.96115125582E+03  0.11209147454E+04  0.00000000000E+00 0.  1.
         13    1    3    3    0    0 -0.10958202728E+03 -0.17359050014E+03 -0.19628469127E+03  0.28402389624E+03  0.10566000000E+00 0. -1.
         -4    1    3    3    0  501  0.14392169717E+04  0.27373982750E+03 -0.13249387304E+04  0.19752826695E+04  0.00000000000E+00 0. -1.
<mgrwt>
<rscale>  0 0.16693888E+04</rscale>
<asrwt>0</asrwt>
<pdfrwt beam="1">  1        4 0.12750817E+00 0.16683456E+04</pdfrwt>
<pdfrwt beam="2">  1       -4 0.52365453E+00 0.16704327E+04</pdfrwt>
<totfact> 0.23824910E-02</totfact>
</mgrwt>
</event>
<event>
 8    1  0.2939692E-006  0.1114090E+04  0.7818608E-02  0.8690907E-01
         -4   -1    0    0    0  501 -0.00000000000E+00  0.00000000000E+00  0.30463648982E+04  0.30463648982E+04  0.00000000000E+00 0. -1.
          4   -1    0    0  502    0  0.00000000000E+00 -0.00000000000E+00 -0.17013070454E+04  0.17013070454E+04  0.00000000000E+00 0.  1.
   -9000010    2    1    2    0  501  0.44655783885E+03 -0.10939027180E+03  0.27569063328E+04  0.29735045586E+04  0.10147988456E+04 0.  0.
    9000010    2    1    2  502    0 -0.44655783885E+03  0.10939027180E+03 -0.14118484801E+04  0.17741673850E+04  0.97106830050E+03 0.  0.
        -13    1    4    4    0    0  0.26423308989E+03 -0.16581044408E+03 -0.39269132923E+03  0.50151642084E+03  0.10566000000E+00 0.  1.
          4    1    4    4  502    0 -0.71079092874E+03  0.27520071587E+03 -0.10191571509E+04  0.12726509642E+04  0.00000000000E+00 0.  1.
         13    1    3    3    0    0  0.71712496803E+02 -0.35345218983E+03  0.28014104830E+03  0.45667291446E+03  0.10566000000E+00 0. -1.
         -4    1    3    3    0  501  0.37484534204E+03  0.24406191804E+03  0.24767652846E+04  0.25168316442E+04  0.00000000000E+00 0. -1.
<mgrwt>
<rscale>  0 0.10940695E+04</rscale>
<asrwt>0</asrwt>
<pdfrwt beam="2">  1        4 0.26173955E+00 0.10744086E+04</pdfrwt>
<pdfrwt beam="1">  1       -4 0.46867152E+00 0.11140901E+04</pdfrwt>
<totfact> 0.16629474E-02</totfact>
</mgrwt>
</event>
<event>
 8    1  0.2939692E-006  0.1118311E+04  0.7818608E-02  0.8698839E-01
         -4   -1    0    0    0  501 -0.00000000000E+00  0.00000000000E+00  0.22689306420E+04  0.22689306420E+04  0.00000000000E+00 0. -1.
          4   -1    0    0  502    0  0.00000000000E+00 -0.00000000000E+00 -0.11513142384E+04  0.11513142384E+04  0.00000000000E+00 0.  1.
   -9000010    2    1    2    0  501  0.52716836744E+03  0.18132031283E+02  0.18335312114E+04  0.21476628140E+04  0.98609512800E+03 0.  0.
    9000010    2    1    2  502    0 -0.52716836744E+03 -0.18132031283E+02 -0.71591480778E+03  0.12725820663E+04  0.91032732865E+03 0.  0.
        -13    1    4    4    0    0  0.11755950664E+03 -0.22056999697E+03 -0.50700242549E+03  0.56526350650E+03  0.10566000000E+00 0.  1.
          4    1    4    4  502    0 -0.64472787408E+03  0.20243796569E+03 -0.20891238228E+03  0.70731855980E+03  0.00000000000E+00 0.  1.
         13    1    3    3    0    0 -0.13373881059E+03  0.25403156932E+03  0.15038923799E+03  0.32409110098E+03  0.10566000000E+00 0. -1.
         -4    1    3    3    0  501  0.66090717803E+03 -0.23589953804E+03  0.16831419734E+04  0.18235717131E+04  0.00000000000E+00 0. -1.
<mgrwt>
<rscale>  0 0.10847044E+04</rscale>
<asrwt>0</asrwt>
<pdfrwt beam="2">  1        4 0.17712527E+00 0.10521079E+04</pdfrwt>
<pdfrwt beam="1">  1       -4 0.34906625E+00 0.11183107E+04</pdfrwt>
<totfact> 0.86750653E-02</totfact>
</mgrwt>
</event>
<event>
 8    1  0.2939692E-006  0.1185270E+04  0.7818608E-02  0.8618129E-01
          4   -1    0    0  502    0  0.00000000000E+00  0.00000000000E+00  0.52863676791E+03  0.52863676791E+03  0.00000000000E+00 0.  1.
         -4   -1    0    0    0  501 -0.00000000000E+00 -0.00000000000E+00 -0.26806936600E+04  0.26806936600E+04  0.00000000000E+00 0. -1.
   -9000010    2    1    2    0  501 -0.63293174191E+03  0.38514681458E+02 -0.12328877792E+04  0.17102272998E+04  0.10013886210E+04 0.  0.
    9000010    2    1    2  502    0  0.63293174191E+03 -0.38514681458E+02 -0.91916911286E+03  0.14991031281E+04  0.10001761645E+04 0.  0.
        -13    1    4    4    0    0  0.48081439473E+03 -0.46249368608E+02  0.78937936455E+02  0.48944120714E+03  0.10566000000E+00 0.  1.
          4    1    4    4  502    0  0.15211734719E+03  0.77346871502E+01 -0.99810704931E+03  0.10096619209E+04  0.00000000000E+00 0.  1.
         13    1    3    3    0    0 -0.52408103839E+03 -0.42329155650E+03 -0.92615428248E+03  0.11452503843E+04  0.10566000000E+00 0. -1.
         -4    1    3    3    0  501 -0.10885070353E+03  0.46180623795E+03 -0.30673349677E+03  0.56497691556E+03  0.00000000000E+00 0. -1.
<mgrwt>
<rscale>  0 0.11847579E+04</rscale>
<asrwt>0</asrwt>
<pdfrwt beam="1">  1        4 0.81328734E-01 0.11842459E+04</pdfrwt>
<pdfrwt beam="2">  1       -4 0.41241441E+00 0.11852701E+04</pdfrwt>
<totfact> 0.18732382E-01</totfact>
</mgrwt>
</event>
<event>
 8    1  0.2939692E-006  0.1320831E+04  0.7818608E-02  0.8525005E-01
          4   -1    0    0  502    0  0.00000000000E+00  0.00000000000E+00  0.18031600517E+04  0.18031600517E+04  0.00000000000E+00 0.  1.
         -4   -1    0    0    0  501 -0.00000000000E+00 -0.00000000000E+00 -0.10314170019E+04  0.10314170019E+04  0.00000000000E+00 0. -1.
   -9000010    2    1    2    0  501  0.23456812877E+03 -0.80274208134E+03  0.67036523294E+01  0.13081826285E+04  0.10059223600E+04 0.  0.
    9000010    2    1    2  502    0 -0.23456812877E+03  0.80274208134E+03  0.76503939750E+03  0.15263944251E+04  0.10223392808E+04 0.  0.
        -13    1    4    4    0    0  0.69938184826E+02  0.97026501048E+03  0.54497189023E+03  0.11150335926E+04  0.10566000000E+00 0.  1.
          4    1    4    4  502    0 -0.30450631360E+03 -0.16752292914E+03  0.22006750726E+03  0.41136083256E+03  0.00000000000E+00 0.  1.
         13    1    3    3    0    0 -0.66824119818E+02 -0.95253814183E+03  0.96782510374E+02  0.95977145202E+03  0.10566000000E+00 0. -1.
         -4    1    3    3    0  501  0.30139224859E+03  0.14979606049E+03 -0.90078858045E+02  0.34841117651E+03  0.00000000000E+00 0. -1.
<mgrwt>
<rscale>  0 0.13144830E+04</rscale>
<asrwt>0</asrwt>
<pdfrwt beam="1">  1        4 0.27740924E+00 0.13208310E+04</pdfrwt>
<pdfrwt beam="2">  1       -4 0.15867954E+00 0.13081655E+04</pdfrwt>
<totfact> 0.15900998E-01</totfact>
</mgrwt>
</event>
<event>
 8    1  0.2939692E-006  0.1057368E+04  0.7818608E-02  0.8735939E-01
          4   -1    0    0  502    0  0.00000000000E+00  0.00000000000E+00  0.20253159904E+04  0.20253159904E+04  0.00000000000E+00 0.  1.
         -4   -1    0    0    0  501 -0.00000000000E+00 -0.00000000000E+00 -0.11894683158E+04  0.11894683158E+04  0.00000000000E+00 0. -1.
   -9000010    2    1    2    0  501  0.21564898317E+03 -0.21822295060E+02 -0.77578835077E+03  0.12872476250E+04  0.10040807668E+04 0.  0.
    9000010    2    1    2  502    0 -0.21564898317E+03  0.21822295060E+02  0.16116360255E+04  0.19275366812E+04  0.10349136594E+04 0.  0.
        -13    1    4    4    0    0  0.34550735765E+03  0.27418232712E+03  0.63188500411E+03  0.77060362851E+03  0.10566000000E+00 0.  1.
          4    1    4    4  502    0 -0.56115634082E+03 -0.25236003206E+03  0.97975102134E+03  0.11569330527E+04  0.00000000000E+00 0.  1.
         13    1    3    3    0    0  0.55903632849E+03  0.10374931770E+03 -0.19526187810E+03  0.60117613867E+03  0.10566000000E+00 0. -1.
         -4    1    3    3    0  501 -0.34338734533E+03 -0.12557161276E+03 -0.58052647267E+03  0.68607148631E+03  0.00000000000E+00 0. -1.
<mgrwt>
<rscale>  0 0.10421795E+04</rscale>
<asrwt>0</asrwt>
<pdfrwt beam="1">  1        4 0.31158708E+00 0.10573679E+04</pdfrwt>
<pdfrwt beam="2">  1       -4 0.18299513E+00 0.10272093E+04</pdfrwt>
<totfact> 0.10723349E-01</totfact>
</mgrwt>
</event>
<event>
 8    1  0.2939692E-006  0.1612929E+04  0.7818608E-02  0.8347418E-01
         -4   -1    0    0    0  501 -0.00000000000E+00  0.00000000000E+00  0.11687293303E+04  0.11687293303E+04  0.00000000000E+00 0. -1.
          4   -1    0    0  502    0  0.00000000000E+00 -0.00000000000E+00 -0.35530253768E+04  0.35530253768E+04  0.00000000000E+00 0.  1.
   -9000010    2    1    2    0  501  0.82827797232E+03 -0.96134013862E+03  0.25089955781E+03  0.16323266376E+04  0.99565074303E+03 0.  0.
    9000010    2    1    2  502    0 -0.82827797232E+03  0.96134013862E+03 -0.26351956043E+04  0.30894280694E+04  0.99503299529E+03 0.  0.
        -13    1    4    4    0    0 -0.65815688599E+03  0.56339648355E+03 -0.72163805026E+03  0.11275404964E+04  0.10566000000E+00 0.  1.
          4    1    4    4  502    0 -0.17012108633E+03  0.39794365507E+03 -0.19135575540E+04  0.19618875730E+04  0.00000000000E+00 0.  1.
         13    1    3    3    0    0  0.62490999204E+02 -0.36850254933E+03  0.50767084299E+03  0.63041966168E+03  0.10566000000E+00 0. -1.
         -4    1    3    3    0  501  0.76578697312E+03 -0.59283758929E+03 -0.25677128518E+03  0.10019069759E+04  0.00000000000E+00 0. -1.
<mgrwt>
<rscale>  0 0.16127383E+04</rscale>
<asrwt>0</asrwt>
<pdfrwt beam="2">  1        4 0.54661929E+00 0.16125476E+04</pdfrwt>
<pdfrwt beam="1">  1       -4 0.17980451E+00 0.16129289E+04</pdfrwt>
<totfact> 0.11124513E-02</totfact>
</mgrwt>
</event>
<event>
 8    1  0.2939692E-006  0.1183708E+04  0.7818608E-02  0.8671082E-01
          4   -1    0    0  502    0  0.00000000000E+00  0.00000000000E+00  0.22176731639E+04  0.22176731639E+04  0.00000000000E+00 0.  1.
         -4   -1    0    0    0  501 -0.00000000000E+00 -0.00000000000E+00 -0.57376466733E+03  0.57376466733E+03  0.00000000000E+00 0. -1.
   -9000010    2    1    2    0  501  0.31464709122E+03 -0.51948165580E+03  0.94419008291E+03  0.14163846560E+04  0.86358936901E+03 0.  0.
    9000010    2    1    2  502    0 -0.31464709122E+03  0.51948165580E+03  0.69971841361E+03  0.13750531752E+04  0.10160223391E+04 0.  0.
        -13    1    4    4    0    0 -0.57592290716E+03  0.31543438816E+03  0.66120575535E+02  0.65996817339E+03  0.10566000000E+00 0.  1.
          4    1    4    4  502    0  0.26127581593E+03  0.20404726764E+03  0.63359783808E+03  0.71508500183E+03  0.00000000000E+00 0.  1.
         13    1    3    3    0    0  0.56772238973E+03 -0.55916893773E+03  0.66939233910E+03  0.10407039577E+04  0.10566000000E+00 0. -1.
         -4    1    3    3    0  501 -0.25307529851E+03  0.39687281931E+02  0.27479774381E+03  0.37568069829E+03  0.00000000000E+00 0. -1.
<mgrwt>
<rscale>  0 0.11179105E+04</rscale>
<asrwt>0</asrwt>
<pdfrwt beam="1">  1        4 0.34118048E+00 0.11837083E+04</pdfrwt>
<pdfrwt beam="2">  1       -4 0.88271489E-01 0.10557701E+04</pdfrwt>
<totfact> 0.29116934E-01</totfact>
</mgrwt>
</event>
<event>
 8    1  0.2939692E-006  0.1080549E+04  0.7818608E-02  0.8703138E-01
         -4   -1    0    0    0  501 -0.00000000000E+00  0.00000000000E+00  0.12994931193E+04  0.12994931193E+04  0.00000000000E+00 0. -1.
          4   -1    0    0  502    0  0.00000000000E+00 -0.00000000000E+00 -0.19869920956E+04  0.19869920956E+04  0.00000000000E+00 0.  1.
   -9000010    2    1    2    0  501  0.43196004479E+03  0.46633441216E+02  0.87317520915E+03  0.13892517883E+04  0.98935404544E+03 0.  0.
    9000010    2    1    2  502    0 -0.43196004479E+03 -0.46633441216E+02 -0.15606741855E+04  0.18972334267E+04  0.98743435422E+03 0.  0.
        -13    1    4    4    0    0  0.86210288786E+01 -0.18163824248E+03  0.75882587349E+02  0.19704048187E+03  0.10566000000E+00 0.  1.
          4    1    4    4  502    0 -0.44058107367E+03  0.13500480126E+03 -0.16365567728E+04  0.17001929448E+04  0.00000000000E+00 0.  1.
         13    1    3    3    0    0 -0.12851948428E+02 -0.11097115813E+03  0.90913791114E+03  0.91597572193E+03  0.10566000000E+00 0. -1.
         -4    1    3    3    0  501  0.44481199322E+03  0.15760459935E+03 -0.35962701990E+02  0.47327606635E+03  0.00000000000E+00 0. -1.
<mgrwt>
<rscale>  0 0.10796697E+04</rscale>
<asrwt>0</asrwt>
<pdfrwt beam="2">  1        4 0.30569109E+00 0.10787913E+04</pdfrwt>
<pdfrwt beam="1">  1       -4 0.19992202E+00 0.10805487E+04</pdfrwt>
<totfact> 0.98807807E-02</totfact>
</mgrwt>
</event>
<event>
 8    1  0.2939692E-006  0.1055431E+04  0.7818608E-02  0.8746365E-01
          4   -1    0    0  502    0  0.00000000000E+00  0.00000000000E+00  0.95757546660E+03  0.95757546660E+03  0.00000000000E+00 0.  1.
         -4   -1    0    0    0  501 -0.00000000000E+00 -0.00000000000E+00 -0.42669959193E+04  0.42669959193E+04  0.00000000000E+00 0. -1.
   -9000010    2    1    2    0  501 -0.19630453790E+03 -0.14622011277E+02 -0.38913316751E+04  0.40193515913E+04  0.98690208919E+03 0.  0.
    9000010    2    1    2  502    0  0.19630453790E+03  0.14622011277E+02  0.58191122245E+03  0.12052197946E+04  0.10369111860E+04 0.  0.
        -13    1    4    4    0    0  0.12920848916E+03  0.45763321091E+03  0.58913050847E+03  0.75709824764E+03  0.10566000000E+00 0.  1.
          4    1    4    4  502    0  0.67096048735E+02 -0.44301119963E+03 -0.72192860209E+01  0.44812154696E+03  0.00000000000E+00 0.  1.
         13    1    3    3    0    0 -0.17458666801E+03  0.21263496790E+02 -0.39462943745E+04  0.39502116326E+04  0.10566000000E+00 0. -1.
         -4    1    3    3    0  501 -0.21717869883E+02 -0.35885508067E+02  0.54962699383E+02  0.69139958670E+02  0.00000000000E+00 0. -1.
<mgrwt>
<rscale>  0 0.10305943E+04</rscale>
<asrwt>0</asrwt>
<pdfrwt beam="1">  1        4 0.14731930E+00 0.10554308E+04</pdfrwt>
<pdfrwt beam="2">  1       -4 0.65646091E+00 0.10063424E+04</pdfrwt>
<totfact> 0.40482728E-03</totfact>
</mgrwt>
</event>
<event>
 8    1  0.2939692E-006  0.1137597E+04  0.7818608E-02  0.8659700E-01
         -4   -1    0    0    0  501 -0.00000000000E+00  0.00000000000E+00  0.28325848324E+04  0.28325848324E+04  0.00000000000E+00 0. -1.
          4   -1    0    0  502    0  0.00000000000E+00 -0.00000000000E+00 -0.15549447856E+04  0.15549447856E+04  0.00000000000E+00 0.  1.
   -9000010    2    1    2    0  501 -0.41801136438E+03  0.34604174861E+03  0.24870990247E+04  0.27349201514E+04  0.99982412599E+03 0.  0.
    9000010    2    1    2  502    0  0.41801136438E+03 -0.34604174861E+03 -0.12094589779E+04  0.16526094667E+04  0.98683769570E+03 0.  0.
        -13    1    4    4    0    0  0.67299433742E+02  0.32134214299E+03 -0.59677821198E+03  0.68112717762E+03  0.10566000000E+00 0.  1.
          4    1    4    4  502    0  0.35071193064E+03 -0.66738389160E+03 -0.61268076597E+03  0.97148228911E+03  0.00000000000E+00 0.  1.
         13    1    3    3    0    0 -0.56602967992E+03  0.10977679007E+03  0.61822871004E+03  0.84536813949E+03  0.10566000000E+00 0. -1.
         -4    1    3    3    0  501  0.14801831554E+03  0.23626495854E+03  0.18688703147E+04  0.18895520119E+04  0.00000000000E+00 0. -1.
<mgrwt>
<rscale>  0 0.11318842E+04</rscale>
<asrwt>0</asrwt>
<pdfrwt beam="2">  1        4 0.23922228E+00 0.11262003E+04</pdfrwt>
<pdfrwt beam="1">  1       -4 0.43578228E+00 0.11375969E+04</pdfrwt>
<totfact> 0.26742683E-02</totfact>
</mgrwt>
</event>
<event>
 8    1  0.2939692E-006  0.1311538E+04  0.7818608E-02  0.8532309E-01
         -4   -1    0    0    0  501 -0.00000000000E+00  0.00000000000E+00  0.49961774005E+03  0.49961774005E+03  0.00000000000E+00 0. -1.
          4   -1    0    0  502    0  0.00000000000E+00 -0.00000000000E+00 -0.40434422816E+04  0.40434422816E+04  0.00000000000E+00 0.  1.
   -9000010    2    1    2    0  501  0.68297348234E+03 -0.45336395378E+03 -0.85828137238E+03  0.15543690687E+04  0.10037054525E+04 0.  0.
    9000010    2    1    2  502    0 -0.68297348234E+03  0.45336395378E+03 -0.26855431692E+04  0.29886909530E+04  0.10237870124E+04 0.  0.
        -13    1    4    4    0    0 -0.47656413817E+03 -0.19053454066E+03 -0.18162977221E+04  0.18874199892E+04  0.10566000000E+00 0.  1.
          4    1    4    4  502    0 -0.20640934417E+03  0.64389849444E+03 -0.86924544708E+03  0.11012709638E+04  0.00000000000E+00 0.  1.
         13    1    3    3    0    0 -0.56995722863E+02 -0.94715839553E+02  0.19135085366E+03  0.22098588879E+03  0.10566000000E+00 0. -1.
         -4    1    3    3    0  501  0.73996920520E+03 -0.35864811422E+03 -0.10496322260E+04  0.13333831799E+04  0.00000000000E+00 0. -1.
<mgrwt>
<rscale>  0 0.13037070E+04</rscale>
<asrwt>0</asrwt>
<pdfrwt beam="2">  1        4 0.62206801E+00 0.13115378E+04</pdfrwt>
<pdfrwt beam="1">  1       -4 0.76864272E-01 0.12959229E+04</pdfrwt>
<totfact> 0.19560377E-02</totfact>
</mgrwt>
</event>
<event>
 8    1  0.2939692E-006  0.1234273E+04  0.7818608E-02  0.8592093E-01
         -4   -1    0    0    0  501 -0.00000000000E+00  0.00000000000E+00  0.15821402290E+04  0.15821402290E+04  0.00000000000E+00 0. -1.
          4   -1    0    0  502    0  0.00000000000E+00 -0.00000000000E+00 -0.27113760114E+04  0.27113760114E+04  0.00000000000E+00 0.  1.
   -9000010    2    1    2    0  501 -0.50917223191E+03 -0.52223046381E+03  0.11681576746E+04  0.16994180306E+04  0.99571495475E+03 0.  0.
    9000010    2    1    2  502    0  0.50917223191E+03  0.52223046381E+03 -0.22973934571E+04  0.25940982097E+04  0.95882626480E+03 0.  0.
        -13    1    4    4    0    0  0.29392389631E+03  0.79958438819E+03 -0.15622420147E+04  0.17794174818E+04  0.10566000000E+00 0.  1.
          4    1    4    4  502    0  0.21524833560E+03 -0.27735392438E+03 -0.73515144236E+03  0.81468072798E+03  0.00000000000E+00 0.  1.
         13    1    3    3    0    0 -0.41453592767E+03 -0.37147965538E+03  0.13406151351E+04  0.14515805597E+04  0.10566000000E+00 0. -1.
         -4    1    3    3    0  501 -0.94636304241E+02 -0.15075080843E+03 -0.17245746050E+03  0.24783747095E+03  0.00000000000E+00 0. -1.
<mgrwt>
<rscale>  0 0.12194024E+04</rscale>
<asrwt>0</asrwt>
<pdfrwt beam="2">  1        4 0.41713477E+00 0.12047111E+04</pdfrwt>
<pdfrwt beam="1">  1       -4 0.24340619E+00 0.12342728E+04</pdfrwt>
<totfact> 0.31121948E-02</totfact>
</mgrwt>
</event>
<event>
 8    1  0.2939692E-006  0.1486193E+04  0.7818608E-02  0.8418145E-01
          4   -1    0    0  502    0  0.00000000000E+00  0.00000000000E+00  0.14228407930E+04  0.14228407930E+04  0.00000000000E+00 0. -1.
         -4   -1    0    0    0  501 -0.00000000000E+00 -0.00000000000E+00 -0.15556427420E+04  0.15556427420E+04  0.00000000000E+00 0.  1.
   -9000010    2    1    2    0  501 -0.63573830603E+03  0.89735587099E+03  0.23224071649E+02  0.14841225779E+04  0.99632811645E+03 0.  0.
    9000010    2    1    2  502    0  0.63573830603E+03 -0.89735587099E+03 -0.15602602065E+03  0.14943609571E+04  0.99967984771E+03 0.  0.
        -13    1    4    4    0    0 -0.26743016815E+03 -0.30722779685E+03 -0.44235338007E+02  0.40971281441E+03  0.10566000000E+00 0.  1.
          4    1    4    4  502    0  0.90316847418E+03 -0.59012807414E+03 -0.11179068264E+03  0.10846481427E+04  0.00000000000E+00 0.  1.
         13    1    3    3    0    0 -0.35010863304E+03  0.29865093590E+03 -0.46979133604E+03  0.65762629739E+03  0.10566000000E+00 0. -1.
         -4    1    3    3    0  501 -0.28562967300E+03  0.59870493509E+03  0.49301540769E+03  0.82649628046E+03  0.00000000000E+00 0. -1.
<mgrwt>
<rscale>  0 0.14850667E+04</rscale>
<asrwt>0</asrwt>
<pdfrwt beam="1">  1        4 0.21889858E+00 0.14861933E+04</pdfrwt>
<pdfrwt beam="2">  1       -4 0.23932965E+00 0.14839409E+04</pdfrwt>
<totfact> 0.12600767E-01</totfact>
</mgrwt>
</event>
<event>
 8    1  0.2939692E-006  0.1423339E+04  0.7818608E-02  0.8457381E-01
          4   -1    0    0  502    0  0.00000000000E+00  0.00000000000E+00  0.24168796620E+04  0.24168796620E+04  0.00000000000E+00 0.  1.
         -4   -1    0    0    0  501 -0.00000000000E+00 -0.00000000000E+00 -0.16595066801E+04  0.16595066801E+04  0.00000000000E+00 0. -1.
   -9000010    2    1    2    0  501  0.64746937037E+03 -0.76116727179E+03 -0.10595851098E+04  0.17683068549E+04  0.10027942595E+04 0.  0.
    9000010    2    1    2  502    0 -0.64746937037E+03  0.76116727179E+03  0.18169580917E+04  0.23080794872E+04  0.10135590812E+04 0.  0.
        -13    1    4    4    0    0 -0.78726945439E+03  0.15755649433E+03  0.10654034880E+04  0.13340546639E+04  0.10566000000E+00 0.  1.
          4    1    4    4  502    0  0.13980008402E+03  0.60361077746E+03  0.75155460370E+03  0.97402482335E+03  0.00000000000E+00 0.  1.
         13    1    3    3    0    0  0.11082824502E+03  0.19513579520E+03 -0.47566608857E+03  0.52594592635E+03  0.10566000000E+00 0. -1.
         -4    1    3    3    0  501  0.53664112536E+03 -0.95630306699E+03 -0.58391902128E+03  0.12423609285E+04  0.00000000000E+00 0. -1.
<mgrwt>
<rscale>  0 0.14195112E+04</rscale>
<asrwt>0</asrwt>
<pdfrwt beam="1">  1        4 0.37182764E+00 0.14233391E+04</pdfrwt>
<pdfrwt beam="2">  1       -4 0.25530872E+00 0.14156937E+04</pdfrwt>
<totfact> 0.42917358E-02</totfact>
</mgrwt>
</event>
<event>
 8    1  0.2939692E-006  0.1096666E+04  0.7818608E-02  0.8729299E-01
         -4   -1    0    0    0  501 -0.00000000000E+00  0.00000000000E+00  0.18560041468E+04  0.18560041468E+04  0.00000000000E+00 0. -1.
          4   -1    0    0  502    0  0.00000000000E+00 -0.00000000000E+00 -0.13894044397E+04  0.13894044397E+04  0.00000000000E+00 0.  1.
   -9000010    2    1    2    0  501  0.43627267393E+03  0.63697102078E+01  0.14643657827E+04  0.18294924548E+04  0.10061317395E+04 0.  0.
    9000010    2    1    2  502    0 -0.43627267393E+03 -0.63697102078E+01 -0.99776607556E+03  0.14159161317E+04  0.90493476631E+03 0.  0.
        -13    1    4    4    0    0  0.14607448123E+02  0.19560809644E+03  0.94040043968E+02  0.21753033344E+03  0.10566000000E+00 0.  1.
          4    1    4    4  502    0 -0.45088012205E+03 -0.20197780665E+03 -0.10918061195E+04  0.11983857983E+04  0.00000000000E+00 0.  1.
         13    1    3    3    0    0 -0.32728141017E+03  0.51263737323E+02  0.41693474497E+03  0.53251824846E+03  0.10566000000E+00 0. -1.
         -4    1    3    3    0  501  0.76355408410E+03 -0.44894027116E+02  0.10474310378E+04  0.12969742063E+04  0.00000000000E+00 0. -1.
<mgrwt>
<rscale>  0 0.10496395E+04</rscale>
<asrwt>0</asrwt>
<pdfrwt beam="2">  1        4 0.21375453E+00 0.10046300E+04</pdfrwt>
<pdfrwt beam="1">  1       -4 0.28553910E+00 0.10966656E+04</pdfrwt>
<totfact> 0.10287111E-01</totfact>
</mgrwt>
</event>
<event>
 8    1  0.2939692E-006  0.1156721E+04  0.7818608E-02  0.8651986E-01
          4   -1    0    0  502    0  0.00000000000E+00  0.00000000000E+00  0.24979110119E+04  0.24979110119E+04  0.00000000000E+00 0.  1.
         -4   -1    0    0    0  501 -0.00000000000E+00 -0.00000000000E+00 -0.87604627605E+03  0.87604627605E+03  0.00000000000E+00 0. -1.
   -9000010    2    1    2    0  501 -0.87453573435E+02 -0.53183935623E+03 -0.26830027437E+03  0.11579411607E+04  0.98911145278E+03 0.  0.
    9000010    2    1    2  502    0  0.87453573435E+02  0.53183935623E+03  0.18901650102E+04  0.22160161272E+04  0.10234756871E+04 0.  0.
        -13    1    4    4    0    0 -0.28485818685E+03  0.16655139750E+02  0.13561184119E+04  0.13858133852E+04  0.10566000000E+00 0.  1.
          4    1    4    4  502    0  0.37231176028E+03  0.51518421648E+03  0.53404659826E+03  0.83020274203E+03  0.00000000000E+00 0.  1.
         13    1    3    3    0    0  0.33703124677E+03 -0.43684101329E+03  0.13143143337E+03  0.56718106900E+03  0.10566000000E+00 0. -1.
         -4    1    3    3    0  501 -0.42448482020E+03 -0.94998342943E+02 -0.39973170774E+03  0.59076009168E+03  0.00000000000E+00 0. -1.
<mgrwt>
<rscale>  0 0.11414747E+04</rscale>
<asrwt>0</asrwt>
<pdfrwt beam="1">  1        4 0.38429400E+00 0.11567211E+04</pdfrwt>
<pdfrwt beam="2">  1       -4 0.13477635E+00 0.11264292E+04</pdfrwt>
<totfact> 0.95621664E-02</totfact>
</mgrwt>
</event>
<event>
 8    1  0.2939692E-006  0.1533266E+04  0.7818608E-02  0.8409630E-01
          4   -1    0    0  502    0  0.00000000000E+00  0.00000000000E+00  0.30208117008E+04  0.30208117008E+04  0.00000000000E+00 0. -1.
         -4   -1    0    0    0  501 -0.00000000000E+00 -0.00000000000E+00 -0.75960574272E+03  0.75960574272E+03  0.00000000000E+00 0.  1.
   -9000010    2    1    2    0  501 -0.65590926522E+03 -0.84942479029E+03  0.84379905534E+03  0.16923689626E+04  0.10001881928E+04 0.  0.
    9000010    2    1    2  502    0  0.65590926522E+03  0.84942479029E+03  0.14174069027E+04  0.20880484809E+04  0.10950637846E+04 0.  0.
        -13    1    4    4    0    0  0.15884781359E+03 -0.18238451207E+03  0.69029077433E+03  0.73143564475E+03  0.10566000000E+00 0.  1.
          4    1    4    4  502    0  0.49706145163E+03  0.10318093024E+04  0.72711612836E+03  0.13566128362E+04  0.00000000000E+00 0.  1.
         13    1    3    3    0    0 -0.18648284494E+03  0.18875161557E+03  0.37715481078E+03  0.46113857602E+03  0.10566000000E+00 0. -1.
         -4    1    3    3    0  501 -0.46942642028E+03 -0.10381764059E+04  0.46664424456E+03  0.12312303865E+04  0.00000000000E+00 0. -1.
<mgrwt>
<rscale>  0 0.14997717E+04</rscale>
<asrwt>0</asrwt>
<pdfrwt beam="1">  1        4 0.46474026E+00 0.15332658E+04</pdfrwt>
<pdfrwt beam="2">  1       -4 0.11686242E+00 0.14670092E+04</pdfrwt>
<totfact> 0.52725074E-02</totfact>
</mgrwt>
</event>
<event>
 8    1  0.2939692E-006  0.1224854E+04  0.7818608E-02  0.8589051E-01
          4   -1    0    0  502    0  0.00000000000E+00  0.00000000000E+00  0.19062470120E+04  0.19062470120E+04  0.00000000000E+00 0.  1.
         -4   -1    0    0    0  501 -0.00000000000E+00 -0.00000000000E+00 -0.38438968269E+04  0.38438968269E+04  0.00000000000E+00 0. -1.
   -9000010    2    1    2    0  501  0.22550521874E+03  0.65947710659E+03 -0.35336530168E+04  0.37399158210E+04  0.10072259164E+04 0.  0.
    9000010    2    1    2  502    0 -0.22550521874E+03 -0.65947710659E+03  0.15960032020E+04  0.20102280179E+04  0.10040058792E+04 0.  0.
        -13    1    4    4    0    0 -0.52156176662E+03 -0.79455145215E+02  0.45598867572E+03  0.69732738370E+03  0.10566000000E+00 0.  1.
          4    1    4    4  502    0  0.29605654788E+03 -0.58002196137E+03  0.11400145263E+04  0.13129006342E+04  0.00000000000E+00 0.  1.
         13    1    3    3    0    0  0.18230448860E+03 -0.17410890926E+03 -0.26249223812E+03  0.36393821603E+03  0.10566000000E+00 0. -1.
         -4    1    3    3    0  501  0.43200730147E+02  0.83358601585E+03 -0.32711607787E+04  0.33759776050E+04  0.00000000000E+00 0. -1.
<mgrwt>
<rscale>  0 0.12235298E+04</rscale>
<asrwt>0</asrwt>
<pdfrwt beam="1">  1        4 0.29326878E+00 0.12222072E+04</pdfrwt>
<pdfrwt beam="2">  1       -4 0.59136873E+00 0.12248537E+04</pdfrwt>
<totfact> 0.33519647E-03</totfact>
</mgrwt>
</event>
<event>
 8    1  0.2939692E-006  0.1748154E+04  0.7818608E-02  0.8281617E-01
          4   -1    0    0  502    0  0.00000000000E+00  0.00000000000E+00  0.27224321441E+04  0.27224321441E+04  0.00000000000E+00 0.  1.
         -4   -1    0    0    0  501 -0.00000000000E+00 -0.00000000000E+00 -0.12197424871E+04  0.12197424871E+04  0.00000000000E+00 0. -1.
   -9000010    2    1    2    0  501  0.20497864272E+03  0.14234682942E+04  0.17670565560E+03  0.17480288885E+04  0.97780462151E+03 0.  0.
    9000010    2    1    2  502    0 -0.20497864272E+03 -0.14234682942E+04  0.13259840014E+04  0.21941457427E+04  0.99386303876E+03 0.  0.
        -13    1    4    4    0    0  0.53908482915E+02 -0.83587423578E+03  0.13062625208E+04  0.15517453550E+04  0.10566000000E+00 0.  1.
          4    1    4    4  502    0 -0.25888712564E+03 -0.58759405839E+03  0.19721480627E+02  0.64240038767E+03  0.00000000000E+00 0.  1.
         13    1    3    3    0    0  0.13684798108E+03  0.12824465234E+03 -0.31031903783E+03  0.36259064685E+03  0.10566000000E+00 0. -1.
         -4    1    3    3    0  501  0.68130661647E+02  0.12952236418E+04  0.48702469343E+03  0.13854382417E+04  0.00000000000E+00 0. -1.
<mgrwt>
<rscale>  0 0.17436083E+04</rscale>
<asrwt>0</asrwt>
<pdfrwt beam="1">  1        4 0.41883571E+00 0.17481539E+04</pdfrwt>
<pdfrwt beam="2">  1       -4 0.18765269E+00 0.17390745E+04</pdfrwt>
<totfact> 0.41085792E-02</totfact>
</mgrwt>
</event>
<event>
 8    1  0.2939692E-006  0.1865379E+04  0.7818608E-02  0.8229352E-01
          4   -1    0    0  502    0  0.00000000000E+00  0.00000000000E+00  0.31784874440E+04  0.31784874440E+04  0.00000000000E+00 0.  1.
         -4   -1    0    0    0  501 -0.00000000000E+00 -0.00000000000E+00 -0.14257789550E+04  0.14257789550E+04  0.00000000000E+00 0. -1.
   -9000010    2    1    2    0  501  0.49902298137E+02  0.15533870337E+04 -0.25279299670E+03  0.18653476197E+04  0.10000579619E+04 0.  0.
    9000010    2    1    2  502    0 -0.49902298137E+02 -0.15533870337E+04  0.20055014856E+04  0.27389187793E+04  0.10315708192E+04 0.  0.
        -13    1    4    4    0    0 -0.23140838629E+03  0.31143959742E+02  0.99910881657E+02  0.25397240581E+03  0.10566000000E+00 0.  1.
          4    1    4    4  502    0  0.18150608816E+03 -0.15845309935E+04  0.19055906040E+04  0.24849463735E+04  0.00000000000E+00 0.  1.
         13    1    3    3    0    0 -0.38263645855E+03  0.92518623675E+03 -0.41801061592E+03  0.10849484404E+04  0.10566000000E+00 0. -1.
         -4    1    3    3    0  501  0.43253875668E+03  0.62820079698E+03  0.16521761922E+03  0.78039917931E+03  0.00000000000E+00 0. -1.
<mgrwt>
<rscale>  0 0.18567391E+04</rscale>
<asrwt>0</asrwt>
<pdfrwt beam="1">  1        4 0.48899807E+00 0.18653793E+04</pdfrwt>
<pdfrwt beam="2">  1       -4 0.21935061E+00 0.18481389E+04</pdfrwt>
<totfact> 0.15678550E-02</totfact>
</mgrwt>
</event>
<event>
 8    1  0.2939692E-006  0.1030304E+04  0.7818608E-02  0.8756644E-01
         -4   -1    0    0    0  501 -0.00000000000E+00  0.00000000000E+00  0.21592041120E+04  0.21592041120E+04  0.00000000000E+00 0. -1.
          4   -1    0    0  502    0  0.00000000000E+00 -0.00000000000E+00 -0.14854392383E+04  0.14854392383E+04  0.00000000000E+00 0.  1.
   -9000010    2    1    2    0  501  0.86350666600E+02  0.70186921264E+02  0.18339997889E+04  0.20929760921E+04  0.10023028759E+04 0.  0.
    9000010    2    1    2  502    0 -0.86350666600E+02 -0.70186921264E+02 -0.11602349152E+04  0.15516672581E+04  0.10242771012E+04 0.  0.
        -13    1    4    4    0    0  0.33463392003E+03  0.24450097507E+03 -0.83871952055E+03  0.93552714154E+03  0.10566000000E+00 0.  1.
          4    1    4    4  502    0 -0.42098458663E+03 -0.31468789633E+03 -0.32151539465E+03  0.61614011659E+03  0.00000000000E+00 0.  1.
         13    1    3    3    0    0 -0.83882886898E+02  0.24209541503E+03  0.13606940889E+02  0.25657686703E+03  0.10566000000E+00 0. -1.
         -4    1    3    3    0  501  0.17023355350E+03 -0.17190849377E+03  0.18203928480E+04  0.18363992251E+04  0.00000000000E+00 0. -1.
<mgrwt>
<rscale>  0 0.10193240E+04</rscale>
<asrwt>0</asrwt>
<pdfrwt beam="2">  1        4 0.22852911E+00 0.10303039E+04</pdfrwt>
<pdfrwt beam="1">  1       -4 0.33218525E+00 0.10084611E+04</pdfrwt>
<totfact> 0.70605697E-02</totfact>
</mgrwt>
</event>
<event>
 8    1  0.2939692E-006  0.1607868E+04  0.7818608E-02  0.8350888E-01
          4   -1    0    0  502    0  0.00000000000E+00  0.00000000000E+00  0.20400575956E+04  0.20400575956E+04  0.00000000000E+00 0.  1.
         -4   -1    0    0    0  501 -0.00000000000E+00 -0.00000000000E+00 -0.22661800071E+04  0.22661800071E+04  0.00000000000E+00 0. -1.
   -9000010    2    1    2    0  501  0.10855108790E+04  0.66283512097E+03 -0.15445589146E+04  0.22295521059E+04  0.98364428850E+03 0.  0.
    9000010    2    1    2  502    0 -0.10855108790E+04 -0.66283512097E+03  0.13184365031E+04  0.20766854968E+04  0.97809180250E+03 0.  0.
        -13    1    4    4    0    0 -0.80814118305E+03 -0.15627980994E+03  0.24676614048E+03  0.85930733152E+03  0.10566000000E+00 0.  1.
          4    1    4    4  502    0 -0.27736969595E+03 -0.50655531104E+03  0.10716703626E+04  0.12173781653E+04  0.00000000000E+00 0.  1.
         13    1    3    3    0    0 -0.85881622466E+02 -0.14053613405E+03 -0.29441037327E+03  0.33734779843E+03  0.10566000000E+00 0. -1.
         -4    1    3    3    0  501  0.11713925015E+04  0.80337125502E+03 -0.12501485413E+04  0.18922043075E+04  0.00000000000E+00 0. -1.
<mgrwt>
<rscale>  0 0.16061720E+04</rscale>
<asrwt>0</asrwt>
<pdfrwt beam="1">  1        4 0.31385502E+00 0.16044774E+04</pdfrwt>
<pdfrwt beam="2">  1       -4 0.34864308E+00 0.16078683E+04</pdfrwt>
<totfact> 0.35972967E-02</totfact>
</mgrwt>
</event>
<event>
 8    1  0.2939692E-006  0.1079101E+04  0.7818608E-02  0.8705939E-01
          4   -1    0    0  502    0  0.00000000000E+00  0.00000000000E+00  0.24895985103E+04  0.24895985103E+04  0.00000000000E+00 0.  1.
         -4   -1    0    0    0  501 -0.00000000000E+00 -0.00000000000E+00 -0.10160097096E+04  0.10160097096E+04  0.00000000000E+00 0. -1.
   -9000010    2    1    2    0  501 -0.23717905655E+02  0.36815623517E+03 -0.55439715798E+03  0.12083954930E+04  0.10083461241E+04 0.  0.
    9000010    2    1    2  502    0  0.23717905655E+02 -0.36815623517E+03  0.20279859587E+04  0.22972127269E+04  0.10140797362E+04 0.  0.
        -13    1    4    4    0    0 -0.35420225320E+01 -0.12726354657E+03  0.20498489218E+04  0.20537987169E+04  0.10566000000E+00 0.  1.
          4    1    4    4  502    0  0.27259928187E+02 -0.24089268860E+03 -0.21862963078E+02  0.24341401000E+03  0.00000000000E+00 0.  1.
         13    1    3    3    0    0 -0.75827068985E+02 -0.12541979459E+03 -0.68066625950E+03  0.69626606785E+03  0.10566000000E+00 0. -1.
         -4    1    3    3    0  501  0.52109163331E+02  0.49357602976E+03  0.12626910151E+03  0.51212942510E+03  0.00000000000E+00 0. -1.
<mgrwt>
<rscale>  0 0.10764046E+04</rscale>
<asrwt>0</asrwt>
<pdfrwt beam="1">  1        4 0.38301515E+00 0.10791011E+04</pdfrwt>
<pdfrwt beam="2">  1       -4 0.15630919E+00 0.10737148E+04</pdfrwt>
<totfact> 0.78006957E-02</totfact>
</mgrwt>
</event>
<event>
 8    1  0.2939692E-006  0.1039459E+04  0.7818608E-02  0.8739552E-01
         -4   -1    0    0    0  501 -0.00000000000E+00  0.00000000000E+00  0.62039584855E+03  0.62039584855E+03  0.00000000000E+00 0. -1.
          4   -1    0    0  502    0  0.00000000000E+00 -0.00000000000E+00 -0.18132064881E+04  0.18132064881E+04  0.00000000000E+00 0.  1.
   -9000010    2    1    2    0  501 -0.28049835654E+03  0.18480637898E+00 -0.34655181614E+03  0.10932182481E+04  0.99817263766E+03 0.  0.
    9000010    2    1    2  502    0  0.28049835654E+03 -0.18480637898E+00 -0.84625882336E+03  0.13403840885E+04  0.10008976703E+04 0.  0.
        -13    1    4    4    0    0 -0.20356110971E+03  0.33340230575E+03 -0.56956490366E+03  0.69065071745E+03  0.10566000000E+00 0.  1.
          4    1    4    4  502    0  0.48405946625E+03 -0.33358711213E+03 -0.27669391970E+03  0.64973337104E+03  0.00000000000E+00 0.  1.
         13    1    3    3    0    0 -0.23959977422E+03  0.30227208883E+03  0.22421196242E+03  0.44614737784E+03  0.10566000000E+00 0. -1.
         -4    1    3    3    0  501 -0.40898582315E+02 -0.30208728245E+03 -0.57076377856E+03  0.64707087029E+03  0.00000000000E+00 0. -1.
<mgrwt>
<rscale>  0 0.10381466E+04</rscale>
<asrwt>0</asrwt>
<pdfrwt beam="2">  1        4 0.27895484E+00 0.10394592E+04</pdfrwt>
<pdfrwt beam="1">  1       -4 0.95445518E-01 0.10368356E+04</pdfrwt>
<totfact> 0.37333109E-01</totfact>
</mgrwt>
</event>
<event>
 8    1  0.2939692E-006  0.1255067E+04  0.7818608E-02  0.8567992E-01
          4   -1    0    0  502    0  0.00000000000E+00  0.00000000000E+00  0.22926414366E+04  0.22926414366E+04  0.00000000000E+00 0.  1.
         -4   -1    0    0    0  501 -0.00000000000E+00 -0.00000000000E+00 -0.94043790897E+03  0.94043790897E+03  0.00000000000E+00 0. -1.
   -9000010    2    1    2    0  501  0.59112233067E+03  0.47942122228E+03 -0.16649600193E+03  0.12660624300E+04  0.99795933773E+03 0.  0.
    9000010    2    1    2  502    0 -0.59112233067E+03 -0.47942122228E+03  0.15186995296E+04  0.19670169156E+04  0.99168390478E+03 0.  0.
        -13    1    4    4    0    0 -0.77947590029E+03 -0.61769175197E+03  0.10681051921E+04  0.14594432131E+04  0.10566000000E+00 0.  1.
          4    1    4    4  502    0  0.18835356963E+03  0.13827052969E+03  0.45059433742E+03  0.50757370252E+03  0.00000000000E+00 0.  1.
         13    1    3    3    0    0  0.40880616186E+03  0.79178278823E+03 -0.15304020611E+03  0.90413703472E+03  0.10566000000E+00 0. -1.
         -4    1    3    3    0  501  0.18231616880E+03 -0.31236156595E+03 -0.13455795815E+02  0.36192539525E+03  0.00000000000E+00 0. -1.
<mgrwt>
<rscale>  0 0.12525725E+04</rscale>
<asrwt>0</asrwt>
<pdfrwt beam="1">  1        4 0.35271407E+00 0.12500829E+04</pdfrwt>
<pdfrwt beam="2">  1       -4 0.14468276E+00 0.12550670E+04</pdfrwt>
<totfact> 0.11125127E-01</totfact>
</mgrwt>
</event>
<event>
 8    1  0.2939692E-006  0.1159531E+04  0.7818608E-02  0.8646719E-01
         -4   -1    0    0    0  501 -0.00000000000E+00  0.00000000000E+00  0.92645111537E+03  0.92645111537E+03  0.00000000000E+00 0. -1.
          4   -1    0    0  502    0  0.00000000000E+00 -0.00000000000E+00 -0.17372433187E+04  0.17372433187E+04  0.00000000000E+00 0.  1.
   -9000010    2    1    2    0  501  0.49045487393E+03  0.21442429564E+03  0.16443735048E+03  0.11485755890E+04  0.10028272431E+04 0.  0.
    9000010    2    1    2  502    0 -0.49045487393E+03 -0.21442429564E+03 -0.97522955380E+03  0.15151188451E+04  0.10285857622E+04 0.  0.
        -13    1    4    4    0    0 -0.12946156668E+03  0.87138602797E+02  0.19741729577E+03  0.25164863039E+03  0.10566000000E+00 0.  1.
          4    1    4    4  502    0 -0.36099330725E+03 -0.30156289844E+03 -0.11726468496E+04  0.12634702147E+04  0.00000000000E+00 0.  1.
         13    1    3    3    0    0  0.13887482408E+03  0.88339975818E+02  0.57231993926E+03  0.59551682775E+03  0.10566000000E+00 0. -1.
         -4    1    3    3    0  501  0.35158004985E+03  0.12608431982E+03 -0.40788258878E+03  0.55305876124E+03  0.00000000000E+00 0. -1.
<mgrwt>
<rscale>  0 0.11480809E+04</rscale>
<asrwt>0</asrwt>
<pdfrwt beam="2">  1        4 0.26726820E+00 0.11595311E+04</pdfrwt>
<pdfrwt beam="1">  1       -4 0.14253094E+00 0.11367437E+04</pdfrwt>
<totfact> 0.19863192E-01</totfact>
</mgrwt>
</event>
<event>
 8    1  0.2939692E-006  0.1213735E+04  0.7818608E-02  0.8599419E-01
         -4   -1    0    0    0  501 -0.00000000000E+00  0.00000000000E+00  0.37263473195E+04  0.37263473195E+04  0.00000000000E+00 0. -1.
          4   -1    0    0  502    0  0.00000000000E+00 -0.00000000000E+00 -0.11259778480E+04  0.11259778480E+04  0.00000000000E+00 0.  1.
   -9000010    2    1    2    0  501  0.34515830661E+02 -0.68067816548E+03  0.32566281524E+04  0.34725319798E+04  0.99415155807E+03 0.  0.
    9000010    2    1    2  502    0 -0.34515830661E+02  0.68067816548E+03 -0.65625868088E+03  0.13797931877E+04  0.10043105481E+04 0.  0.
        -13    1    4    4    0    0 -0.26564555964E+03  0.71744987807E+03 -0.94040361700E+02  0.77080833655E+03  0.10566000000E+00 0.  1.
          4    1    4    4  502    0  0.23112972898E+03 -0.36771712593E+02 -0.56221831918E+03  0.60898485111E+03  0.00000000000E+00 0.  1.
         13    1    3    3    0    0 -0.29412671205E+02  0.31262013994E+01 -0.69872111506E+02  0.75874906873E+02  0.10566000000E+00 0. -1.
         -4    1    3    3    0  501  0.63928501867E+02 -0.68380436688E+03  0.33265002639E+04  0.33966570730E+04  0.00000000000E+00 0. -1.
<mgrwt>
<rscale>  0 0.12095319E+04</rscale>
<asrwt>0</asrwt>
<pdfrwt beam="2">  1        4 0.17322736E+00 0.12137355E+04</pdfrwt>
<pdfrwt beam="1">  1       -4 0.57328420E+00 0.12053429E+04</pdfrwt>
<totfact> 0.87271066E-03</totfact>
</mgrwt>
</event>
<event>
 8    1  0.2939692E-006  0.1785027E+04  0.7818608E-02  0.8262123E-01
          4   -1    0    0  502    0  0.00000000000E+00  0.00000000000E+00  0.17277109160E+04  0.17277109160E+04  0.00000000000E+00 0.  1.
         -4   -1    0    0    0  501 -0.00000000000E+00 -0.00000000000E+00 -0.19169379186E+04  0.19169379186E+04  0.00000000000E+00 0. -1.
   -9000010    2    1    2    0  501  0.14466222659E+04  0.33238657108E+03 -0.45058717896E+03  0.18410190177E+04  0.99152680494E+03 0.  0.
    9000010    2    1    2  502    0 -0.14466222659E+04 -0.33238657108E+03  0.26136017635E+03  0.18036298169E+04  0.99074444826E+03 0.  0.
        -13    1    4    4    0    0 -0.82678987129E+03 -0.65201918366E+03 -0.16081315028E+02  0.10530760310E+04  0.10566000000E+00 0.  1.
          4    1    4    4  502    0 -0.61983239465E+03  0.31963261258E+03  0.27744149138E+03  0.75055378596E+03  0.00000000000E+00 0.  1.
         13    1    3    3    0    0  0.12527804028E+03  0.42366607751E+03 -0.23066614311E+03  0.49839182713E+03  0.10566000000E+00 0. -1.
         -4    1    3    3    0  501  0.13213442257E+04 -0.91279506431E+02 -0.21992103585E+03  0.13426271906E+04  0.00000000000E+00 0. -1.
<mgrwt>
<rscale>  0 0.17848100E+04</rscale>
<asrwt>0</asrwt>
<pdfrwt beam="1">  1        4 0.26580168E+00 0.17845928E+04</pdfrwt>
<pdfrwt beam="2">  1       -4 0.29491353E+00 0.17850272E+04</pdfrwt>
<totfact> 0.68743312E-02</totfact>
</mgrwt>
</event>
<event>
 8    1  0.2939692E-006  0.1351706E+04  0.7818608E-02  0.8503799E-01
          4   -1    0    0  502    0  0.00000000000E+00  0.00000000000E+00  0.20274073521E+04  0.20274073521E+04  0.00000000000E+00 0.  1.
         -4   -1    0    0    0  501 -0.00000000000E+00 -0.00000000000E+00 -0.13067479590E+04  0.13067479590E+04  0.00000000000E+00 0. -1.
   -9000010    2    1    2    0  501  0.84523305041E+03  0.32905932424E+03 -0.57546201789E+03  0.14691039538E+04  0.10022030457E+04 0.  0.
    9000010    2    1    2  502    0 -0.84523305041E+03 -0.32905932424E+03  0.12961214110E+04  0.18650513572E+04  0.98781926724E+03 0.  0.
        -13    1    4    4    0    0 -0.41399282702E+03 -0.66853223067E+03  0.67623405998E+03  0.10371200120E+04  0.10566000000E+00 0.  1.
          4    1    4    4  502    0 -0.43124022339E+03  0.33947290643E+03  0.61988735100E+03  0.82793134522E+03  0.00000000000E+00 0.  1.
         13    1    3    3    0    0  0.10712003044E+04  0.19745148806E+03 -0.48569735088E+03  0.11926269786E+04  0.10566000000E+00 0. -1.
         -4    1    3    3    0  501 -0.22596725395E+03  0.13160783618E+03 -0.89764667003E+02  0.27647697525E+03  0.00000000000E+00 0. -1.
<mgrwt>
<rscale>  0 0.13463808E+04</rscale>
<asrwt>0</asrwt>
<pdfrwt beam="1">  1        4 0.31190882E+00 0.13410764E+04</pdfrwt>
<pdfrwt beam="2">  1       -4 0.20103815E+00 0.13517063E+04</pdfrwt>
<totfact> 0.92490673E-02</totfact>
</mgrwt>
</event>
<event>
 8    1  0.2939692E-006  0.1133618E+04  0.7818608E-02  0.8683821E-01
         -4   -1    0    0    0  501 -0.00000000000E+00  0.00000000000E+00  0.76283908090E+03  0.76283908090E+03  0.00000000000E+00 0. -1.
          4   -1    0    0  502    0  0.00000000000E+00 -0.00000000000E+00 -0.20647687173E+04  0.20647687173E+04  0.00000000000E+00 0.  1.
   -9000010    2    1    2    0  501  0.45613969194E+03  0.57437165801E+02  0.94435487792E+01  0.11336574627E+04  0.10362082877E+04 0.  0.
    9000010    2    1    2  502    0 -0.45613969194E+03 -0.57437165801E+02 -0.13113731852E+04  0.16939503355E+04  0.96871340536E+03 0.  0.
        -13    1    4    4    0    0  0.16951655492E+03  0.23313126387E+03 -0.75354278882E+03  0.80679166724E+03  0.10566000000E+00 0.  1.
          4    1    4    4  502    0 -0.62565624686E+03 -0.29056842967E+03 -0.55783039639E+03  0.88715866827E+03  0.00000000000E+00 0.  1.
         13    1    3    3    0    0  0.60660781717E+03  0.40152586164E+03 -0.11821957406E+03  0.73700199476E+03  0.10566000000E+00 0. -1.
         -4    1    3    3    0  501 -0.15046812523E+03 -0.34408869584E+03  0.12766312284E+03  0.39665546794E+03  0.00000000000E+00 0. -1.
<mgrwt>
<rscale>  0 0.11025187E+04</rscale>
<asrwt>0</asrwt>
<pdfrwt beam="2">  1        4 0.31765672E+00 0.10722724E+04</pdfrwt>
<pdfrwt beam="1">  1       -4 0.11735986E+00 0.11336181E+04</pdfrwt>
<totfact> 0.20099440E-01</totfact>
</mgrwt>
</event>
<event>
 8    1  0.2939692E-006  0.1025160E+04  0.7818608E-02  0.8772995E-01
          4   -1    0    0  502    0  0.00000000000E+00  0.00000000000E+00  0.21349052323E+04  0.21349052323E+04  0.00000000000E+00 0.  1.
         -4   -1    0    0    0  501 -0.00000000000E+00 -0.00000000000E+00 -0.23306499116E+04  0.23306499116E+04  0.00000000000E+00 0. -1.
   -9000010    2    1    2    0  501 -0.11474701920E+03 -0.17563109799E+03 -0.20930700542E+04  0.23306427829E+04  0.10034641840E+04 0.  0.
    9000010    2    1    2  502    0  0.11474701920E+03  0.17563109799E+03  0.18973253749E+04  0.21349123610E+04  0.95603036024E+03 0.  0.
        -13    1    4    4    0    0  0.15259287810E+03 -0.10848721978E+03  0.18312121119E+04  0.18407585048E+04  0.10566000000E+00 0.  1.
          4    1    4    4  502    0 -0.37845858898E+02  0.28411831777E+03  0.66113263055E+02  0.29415385614E+03  0.00000000000E+00 0.  1.
         13    1    3    3    0    0 -0.13270474160E+03  0.83636819271E+02 -0.20630735698E+04  0.20690283303E+04  0.10566000000E+00 0. -1.
         -4    1    3    3    0  501  0.17957722394E+02 -0.25926791726E+03 -0.29996484377E+02  0.26161445256E+03  0.00000000000E+00 0. -1.
<mgrwt>
<rscale>  0 0.10017009E+04</rscale>
<asrwt>0</asrwt>
<pdfrwt beam="1">  1        4 0.32844696E+00 0.97877843E+03</pdfrwt>
<pdfrwt beam="2">  1       -4 0.35856152E+00 0.10251602E+04</pdfrwt>
<totfact> 0.32510843E-02</totfact>
</mgrwt>
</event>
<event>
 8    1  0.2939692E-006  0.1204714E+04  0.7818608E-02  0.8605343E-01
          4   -1    0    0  502    0  0.00000000000E+00  0.00000000000E+00  0.74301448760E+03  0.74301448760E+03  0.00000000000E+00 0.  1.
         -4   -1    0    0    0  501 -0.00000000000E+00 -0.00000000000E+00 -0.20111824439E+04  0.20111824439E+04  0.00000000000E+00 0. -1.
   -9000010    2    1    2    0  501  0.53645444864E+03 -0.35714057914E+03 -0.88864919336E+03  0.14970081053E+04  0.10178423797E+04 0.  0.
    9000010    2    1    2  502    0 -0.53645444864E+03  0.35714057914E+03 -0.37951876292E+03  0.12571888261E+04  0.10105228767E+04 0.  0.
        -13    1    4    4    0    0 -0.73726609492E+03  0.43913282729E+03 -0.46035451722E+02  0.85937082141E+03  0.10566000000E+00 0.  1.
          4    1    4    4  502    0  0.20081164628E+03 -0.81992248142E+02 -0.33348331120E+03  0.39781800473E+03  0.00000000000E+00 0.  1.
         13    1    3    3    0    0  0.55688204379E+03  0.93360618028E+02 -0.78883081083E+02  0.57013714783E+03  0.10566000000E+00 0. -1.
         -4    1    3    3    0  501 -0.20427595152E+02 -0.45050119717E+03 -0.80976611228E+03  0.92687095752E+03  0.00000000000E+00 0. -1.
<mgrwt>
<rscale>  0 0.12016212E+04</rscale>
<asrwt>0</asrwt>
<pdfrwt beam="1">  1        4 0.11430992E+00 0.11985363E+04</pdfrwt>
<pdfrwt beam="2">  1       -4 0.30941269E+00 0.12047140E+04</pdfrwt>
<totfact> 0.21992673E-01</totfact>
</mgrwt>
</event>
<event>
 8    1  0.2939692E-006  0.1086290E+04  0.7818608E-02  0.8706575E-01
         -4   -1    0    0    0  501 -0.00000000000E+00  0.00000000000E+00  0.79574690342E+03  0.79574690342E+03  0.00000000000E+00 0. -1.
          4   -1    0    0  502    0  0.00000000000E+00 -0.00000000000E+00 -0.18874896023E+04  0.18874896023E+04  0.00000000000E+00 0.  1.
   -9000010    2    1    2    0  501 -0.34553680991E+03  0.13937861097E+03  0.92778114760E+02  0.10902450336E+04  0.10203942231E+04 0.  0.
    9000010    2    1    2  502    0  0.34553680991E+03 -0.13937861097E+03 -0.11845208137E+04  0.15929914721E+04  0.99785278874E+03 0.  0.
        -13    1    4    4    0    0  0.22749996688E+03 -0.21097076642E+03  0.80436841783E+02  0.32052300369E+03  0.10566000000E+00 0.  1.
          4    1    4    4  502    0  0.11803684303E+03  0.71592155449E+02 -0.12649576555E+04  0.12724684684E+04  0.00000000000E+00 0.  1.
         13    1    3    3    0    0 -0.48230979500E+03  0.47052886210E+03  0.22189398757E+03  0.70940616103E+03  0.10566000000E+00 0. -1.
         -4    1    3    3    0  501  0.13677298510E+03 -0.33115025113E+03 -0.12911587281E+03  0.38083887260E+03  0.00000000000E+00 0. -1.
<mgrwt>
<rscale>  0 0.10756653E+04</rscale>
<asrwt>0</asrwt>
<pdfrwt beam="2">  1        4 0.29038301E+00 0.10651442E+04</pdfrwt>
<pdfrwt beam="1">  1       -4 0.12242260E+00 0.10862902E+04</pdfrwt>
<totfact> 0.22204994E-01</totfact>
</mgrwt>
</event>
<event>
 8    1  0.2939692E-006  0.1195133E+04  0.7818608E-02  0.8638697E-01
          4   -1    0    0  502    0  0.00000000000E+00  0.00000000000E+00  0.25902851850E+04  0.25902851850E+04  0.00000000000E+00 0.  1.
         -4   -1    0    0    0  501 -0.00000000000E+00 -0.00000000000E+00 -0.89161211557E+03  0.89161211557E+03  0.00000000000E+00 0. -1.
   -9000010    2    1    2    0  501  0.32682287125E+03  0.39099815943E+03 -0.26120565527E+03  0.12233442381E+04  0.10810411559E+04 0.  0.
    9000010    2    1    2  502    0 -0.32682287125E+03 -0.39099815943E+03  0.19598787247E+04  0.22585530624E+04  0.10001222778E+04 0.  0.
        -13    1    4    4    0    0 -0.62523591805E+03 -0.35767270617E+03  0.17493188184E+04  0.18918155453E+04  0.10566000000E+00 0.  1.
          4    1    4    4  502    0  0.29841304680E+03 -0.33325453264E+02  0.21055990628E+03  0.36673751713E+03  0.00000000000E+00 0.  1.
         13    1    3    3    0    0 -0.30787017130E+03  0.25653972681E+03  0.17942689909E+03  0.43907937448E+03  0.10566000000E+00 0. -1.
         -4    1    3    3    0  501  0.63469304255E+03  0.13445843262E+03 -0.44063255436E+03  0.78426486363E+03  0.00000000000E+00 0. -1.
<mgrwt>
<rscale>  0 0.11582314E+04</rscale>
<asrwt>0</asrwt>
<pdfrwt beam="1">  1        4 0.39850541E+00 0.11224693E+04</pdfrwt>
<pdfrwt beam="2">  1       -4 0.13717110E+00 0.11951329E+04</pdfrwt>
<totfact> 0.82199879E-02</totfact>
</mgrwt>
</event>
<event>
 8    1  0.2939692E-006  0.1710405E+04  0.7818608E-02  0.8331095E-01
         -4   -1    0    0    0  501 -0.00000000000E+00  0.00000000000E+00  0.15752794000E+04  0.15752794000E+04  0.00000000000E+00 0. -1.
          4   -1    0    0  502    0  0.00000000000E+00 -0.00000000000E+00 -0.19583974092E+04  0.19583974092E+04  0.00000000000E+00 0.  1.
   -9000010    2    1    2    0  501  0.53571369638E+03 -0.10802934386E+04  0.41970486040E+03  0.17611463129E+04  0.12130379581E+04 0.  0.
    9000010    2    1    2  502    0 -0.53571369638E+03  0.10802934386E+04 -0.80282286968E+03  0.17725304963E+04  0.10214287651E+04 0.  0.
        -13    1    4    4    0    0  0.16061894036E+03 -0.11444813326E+03 -0.11006979185E+03  0.22585878210E+03  0.10566000000E+00 0.  1.
          4    1    4    4  502    0 -0.69633263674E+03  0.11947415719E+04 -0.69275307783E+03  0.15466717142E+04  0.00000000000E+00 0.  1.
         13    1    3    3    0    0 -0.19399560192E+03 -0.15466451325E+02  0.42809514380E+03  0.47025415255E+03  0.10566000000E+00 0. -1.
         -4    1    3    3    0  501  0.72970929830E+03 -0.10648269873E+04 -0.83902834064E+01  0.12908921604E+04  0.00000000000E+00 0. -1.
<mgrwt>
<rscale>  0 0.16440645E+04</rscale>
<asrwt>0</asrwt>
<pdfrwt beam="2">  1        4 0.30129191E+00 0.15802974E+04</pdfrwt>
<pdfrwt beam="1">  1       -4 0.24235068E+00 0.17104047E+04</pdfrwt>
<totfact> 0.75981623E-02</totfact>
</mgrwt>
</event>
<event>
 8    1  0.2939692E-006  0.1150768E+04  0.7818608E-02  0.8652690E-01
          4   -1    0    0  502    0  0.00000000000E+00  0.00000000000E+00  0.20512303199E+04  0.20512303199E+04  0.00000000000E+00 0.  1.
         -4   -1    0    0    0  501 -0.00000000000E+00 -0.00000000000E+00 -0.81504679940E+03  0.81504679940E+03  0.00000000000E+00 0. -1.
   -9000010    2    1    2    0  501 -0.46682740341E+03  0.29118064101E+03 -0.52536542132E+02  0.11519663053E+04  0.10107186997E+04 0.  0.
    9000010    2    1    2  502    0  0.46682740341E+03 -0.29118064101E+03  0.12887200627E+04  0.17143108141E+04  0.98759717348E+03 0.  0.
        -13    1    4    4    0    0  0.43160180600E+03 -0.37280654781E+03  0.17431387559E+03  0.59636413324E+03  0.10566000000E+00 0.  1.
          4    1    4    4  502    0  0.35225597413E+02  0.81625906798E+02  0.11144061871E+04  0.11179466808E+04  0.00000000000E+00 0.  1.
         13    1    3    3    0    0 -0.12087585127E+03 -0.23428166385E+03  0.32483003995E+03  0.41834607140E+03  0.10566000000E+00 0. -1.
         -4    1    3    3    0  501 -0.34595155214E+03  0.52546230486E+03 -0.37736658208E+03  0.73362023386E+03  0.00000000000E+00 0. -1.
<mgrwt>
<rscale>  0 0.11405959E+04</rscale>
<asrwt>0</asrwt>
<pdfrwt beam="1">  1        4 0.31557389E+00 0.11305141E+04</pdfrwt>
<pdfrwt beam="2">  1       -4 0.12539182E+00 0.11507677E+04</pdfrwt>
<totfact> 0.18163454E-01</totfact>
</mgrwt>
</event>
<event>
 8    1  0.2939692E-006  0.1667857E+04  0.7818608E-02  0.8344621E-01
          4   -1    0    0  502    0  0.00000000000E+00  0.00000000000E+00  0.26969041738E+04  0.26969041738E+04  0.00000000000E+00 0.  1.
         -4   -1    0    0    0  501 -0.00000000000E+00 -0.00000000000E+00 -0.13900597280E+04  0.13900597280E+04  0.00000000000E+00 0. -1.
   -9000010    2    1    2    0  501 -0.92124165673E+03  0.81922108655E+03 -0.45347260303E+03  0.17284047344E+04  0.11233593127E+04 0.  0.
    9000010    2    1    2  502    0  0.92124165673E+03 -0.81922108655E+03  0.17603170488E+04  0.23585591674E+04  0.97173857347E+03 0.  0.
        -13    1    4    4    0    0 -0.20753604975E+03 -0.16051780459E+03  0.31586881483E+03  0.41062184171E+03  0.10566000000E+00 0.  1.
          4    1    4    4  502    0  0.11287777065E+04 -0.65870328195E+03  0.14444482340E+04  0.19479373257E+04  0.00000000000E+00 0.  1.
         13    1    3    3    0    0 -0.11850952063E+04  0.62473699347E+03 -0.34940547500E+03  0.13844967158E+04  0.10566000000E+00 0. -1.
         -4    1    3    3    0  501  0.26385354959E+03  0.19448409308E+03 -0.10406712803E+03  0.34390801856E+03  0.00000000000E+00 0. -1.
<mgrwt>
<rscale>  0 0.16180550E+04</rscale>
<asrwt>0</asrwt>
<pdfrwt beam="1">  1        4 0.41490833E+00 0.15697405E+04</pdfrwt>
<pdfrwt beam="2">  1       -4 0.21385534E+00 0.16678566E+04</pdfrwt>
<totfact> 0.36315969E-02</totfact>
</mgrwt>
</event>
<event>
 8    1  0.2939692E-006  0.1163167E+04  0.7818608E-02  0.8653163E-01
          4   -1    0    0  502    0  0.00000000000E+00  0.00000000000E+00  0.92383062479E+03  0.92383062479E+03  0.00000000000E+00 0.  1.
         -4   -1    0    0    0  501 -0.00000000000E+00 -0.00000000000E+00 -0.19343949814E+04  0.19343949814E+04  0.00000000000E+00 0. -1.
   -9000010    2    1    2    0  501 -0.33162201649E+02 -0.57558452637E+03 -0.12585421041E+04  0.17137347478E+04  0.10102283302E+04 0.  0.
    9000010    2    1    2  502    0  0.33162201649E+02  0.57558452637E+03  0.24797774755E+03  0.11444908584E+04  0.95706273728E+03 0.  0.
        -13    1    4    4    0    0  0.37179521132E+03 -0.64157545519E+02  0.17832121254E+03  0.41730844206E+03  0.10566000000E+00 0.  1.
          4    1    4    4  502    0 -0.33863300967E+03  0.63974207189E+03  0.69656535007E+02  0.72718241635E+03  0.00000000000E+00 0.  1.
         13    1    3    3    0    0 -0.14649997397E+03 -0.46107819775E+03 -0.40942265563E+02  0.48552201503E+03  0.10566000000E+00 0. -1.
         -4    1    3    3    0  501  0.11333777232E+03 -0.11450632863E+03 -0.12175998386E+04  0.12282127327E+04  0.00000000000E+00 0. -1.
<mgrwt>
<rscale>  0 0.11400047E+04</rscale>
<asrwt>0</asrwt>
<pdfrwt beam="1">  1        4 0.14212779E+00 0.11173032E+04</pdfrwt>
<pdfrwt beam="2">  1       -4 0.29759923E+00 0.11631675E+04</pdfrwt>
<totfact> 0.16662518E-01</totfact>
</mgrwt>
</event>
<event>
 8    1  0.2939692E-006  0.1166997E+04  0.7818608E-02  0.8634094E-01
          4   -1    0    0  502    0  0.00000000000E+00  0.00000000000E+00  0.77447844483E+03  0.77447844483E+03  0.00000000000E+00 0. -1.
         -4   -1    0    0    0  501 -0.00000000000E+00 -0.00000000000E+00 -0.18093309093E+04  0.18093309093E+04  0.00000000000E+00 0.  1.
   -9000010    2    1    2    0  501  0.29855317083E+03 -0.52529874199E+03 -0.28424512998E+03  0.12011149598E+04  0.99840326948E+03 0.  0.
    9000010    2    1    2  502    0 -0.29855317083E+03  0.52529874199E+03 -0.75060733450E+03  0.13826943944E+04  0.99164492309E+03 0.  0.
        -13    1    4    4    0    0 -0.52110749399E+03  0.65370091074E+03 -0.34896739053E+03  0.90590074059E+03  0.10566000000E+00 0.  1.
          4    1    4    4  502    0  0.22255432316E+03 -0.12840216874E+03 -0.40163994397E+03  0.47679365379E+03  0.00000000000E+00 0.  1.
         13    1    3    3    0    0 -0.68144754502E+02 -0.73897003074E+03 -0.16417660584E+03  0.76004893459E+03  0.10566000000E+00 0. -1.
         -4    1    3    3    0  501  0.36669792533E+03  0.21367128875E+03 -0.12006852414E+03  0.44106602518E+03  0.00000000000E+00 0. -1.
<mgrwt>
<rscale>  0 0.11641050E+04</rscale>
<asrwt>0</asrwt>
<pdfrwt beam="1">  1        4 0.11915053E+00 0.11612202E+04</pdfrwt>
<pdfrwt beam="2">  1       -4 0.27835860E+00 0.11669969E+04</pdfrwt>
<totfact> 0.24859467E-01</totfact>
</mgrwt>
</event>
<event>
 8    1  0.2939692E-006  0.1100862E+04  0.7818608E-02  0.8699965E-01
         -4   -1    0    0    0  501 -0.00000000000E+00  0.00000000000E+00  0.12064232369E+04  0.12064232369E+04  0.00000000000E+00 0. -1.
          4   -1    0    0  502    0  0.00000000000E+00 -0.00000000000E+00 -0.14601283122E+04  0.14601283122E+04  0.00000000000E+00 0.  1.
   -9000010    2    1    2    0  501 -0.10002459994E+03  0.36903141529E+03  0.64171622661E+03  0.12742436011E+04  0.10323313098E+04 0.  0.
    9000010    2    1    2  502    0  0.10002459994E+03 -0.36903141529E+03 -0.89542130190E+03  0.13923079480E+04  0.99526529535E+03 0.  0.
        -13    1    4    4    0    0 -0.42579995461E+03 -0.32761926625E+03 -0.48843728862E+03  0.72609295620E+03  0.10566000000E+00 0.  1.
          4    1    4    4  502    0  0.52582455455E+03 -0.41412149049E+02 -0.40698401328E+03  0.66621499182E+03  0.00000000000E+00 0.  1.
         13    1    3    3    0    0 -0.18930290677E+03 -0.48573414196E+02  0.79641612538E+03  0.82004489085E+03  0.10566000000E+00 0. -1.
         -4    1    3    3    0  501  0.89278306826E+02  0.41760482949E+03 -0.15469989877E+03  0.45419871022E+03  0.00000000000E+00 0. -1.
<mgrwt>
<rscale>  0 0.10833828E+04</rscale>
<asrwt>0</asrwt>
<pdfrwt beam="2">  1        4 0.22463513E+00 0.10661811E+04</pdfrwt>
<pdfrwt beam="1">  1       -4 0.18560357E+00 0.11008620E+04</pdfrwt>
<totfact> 0.17307542E-01</totfact>
</mgrwt>
</event>
<event>
 8    1  0.2939692E-006  0.1063552E+04  0.7818608E-02  0.8739479E-01
         -4   -1    0    0    0  501 -0.00000000000E+00  0.00000000000E+00  0.14205265422E+04  0.14205265422E+04  0.00000000000E+00 0. -1.
          4   -1    0    0  502    0  0.00000000000E+00 -0.00000000000E+00 -0.10557264965E+04  0.10557264965E+04  0.00000000000E+00 0.  1.
   -9000010    2    1    2    0  501  0.21373770162E+03  0.92579697735E+02  0.84153802675E+03  0.13562187589E+04  0.10377322709E+04 0.  0.
    9000010    2    1    2  502    0 -0.21373770162E+03 -0.92579697735E+02 -0.47673798101E+03  0.11200342798E+04  0.98637866963E+03 0.  0.
        -13    1    4    4    0    0 -0.17005014166E+03 -0.53802335882E+03 -0.23384817439E+03  0.61079551828E+03  0.10566000000E+00 0.  1.
          4    1    4    4  502    0 -0.43687559955E+02  0.44544366108E+03 -0.24288980662E+03  0.50923876154E+03  0.00000000000E+00 0.  1.
         13    1    3    3    0    0  0.45977038710E+03 -0.28475244690E+03  0.69892662673E+03  0.88372575247E+03  0.10566000000E+00 0. -1.
         -4    1    3    3    0  501 -0.24603268548E+03  0.37733214463E+03  0.14261140002E+03  0.47249300642E+03  0.00000000000E+00 0. -1.
<mgrwt>
<rscale>  0 0.10382284E+04</rscale>
<asrwt>0</asrwt>
<pdfrwt beam="2">  1        4 0.16241946E+00 0.10135076E+04</pdfrwt>
<pdfrwt beam="1">  1       -4 0.21854254E+00 0.10635521E+04</pdfrwt>
<totfact> 0.21586322E-01</totfact>
</mgrwt>
</event>
<event>
 8    1  0.2939692E-006  0.1954602E+04  0.7818608E-02  0.8192160E-01
          4   -1    0    0  502    0  0.00000000000E+00  0.00000000000E+00  0.16279258059E+04  0.16279258059E+04  0.00000000000E+00 0.  1.
         -4   -1    0    0    0  501 -0.00000000000E+00 -0.00000000000E+00 -0.36737268923E+04  0.36737268923E+04  0.00000000000E+00 0. -1.
   -9000010    2    1    2    0  501 -0.16051126931E+04 -0.43961597167E+03 -0.26370278855E+04  0.32824356820E+04  0.10250946186E+04 0.  0.
    9000010    2    1    2  502    0  0.16051126931E+04  0.43961597167E+03  0.59122679921E+03  0.20192170163E+04  0.97879480516E+03 0.  0.
        -13    1    4    4    0    0  0.72141719813E+03 -0.13341608590E+03  0.62745092070E+03  0.96536899411E+03  0.10566000000E+00 0.  1.
          4    1    4    4  502    0  0.88369549494E+03  0.57303205757E+03 -0.36224121495E+02  0.10538480221E+04  0.00000000000E+00 0.  1.
         13    1    3    3    0    0 -0.14524704188E+04  0.37342274383E+02 -0.19179378809E+04  0.24061484761E+04  0.10566000000E+00 0. -1.
         -4    1    3    3    0  501 -0.15264227429E+03 -0.47695824606E+03 -0.71909000469E+03  0.87628720590E+03  0.00000000000E+00 0. -1.
<mgrwt>
<rscale>  0 0.19426253E+04</rscale>
<asrwt>0</asrwt>
<pdfrwt beam="1">  1        4 0.25045013E+00 0.19307222E+04</pdfrwt>
<pdfrwt beam="2">  1       -4 0.56518875E+00 0.19546017E+04</pdfrwt>
<totfact> 0.54572297E-03</totfact>
</mgrwt>
</event>
<event>
 8    1  0.2939692E-006  0.1135864E+04  0.7818608E-02  0.8664710E-01
          4   -1    0    0  502    0  0.00000000000E+00  0.00000000000E+00  0.13663128392E+04  0.13663128392E+04  0.00000000000E+00 0.  1.
         -4   -1    0    0    0  501 -0.00000000000E+00 -0.00000000000E+00 -0.12978905222E+04  0.12978905222E+04  0.00000000000E+00 0. -1.
   -9000010    2    1    2    0  501 -0.47816154440E+03 -0.12675588068E+03 -0.67712422222E+03  0.13223781358E+04  0.10224877535E+04 0.  0.
    9000010    2    1    2  502    0  0.47816154440E+03  0.12675588068E+03  0.74554653922E+03  0.13418252255E+04  0.99997488858E+03 0.  0.
        -13    1    4    4    0    0  0.22732352531E+03  0.52318315069E+03  0.64683086604E+03  0.86243073620E+03  0.10566000000E+00 0.  1.
          4    1    4    4  502    0  0.25083801909E+03 -0.39642727001E+03  0.98715673180E+02  0.47939448928E+03  0.00000000000E+00 0.  1.
         13    1    3    3    0    0 -0.38661015394E+01  0.34288982483E+03  0.36977370061E+02  0.34489957346E+03  0.10566000000E+00 0. -1.
         -4    1    3    3    0  501 -0.47429544286E+03 -0.46964570551E+03 -0.71410159229E+03  0.97747856238E+03  0.00000000000E+00 0. -1.
<mgrwt>
<rscale>  0 0.11257071E+04</rscale>
<asrwt>0</asrwt>
<pdfrwt beam="1">  1        4 0.21020197E+00 0.11156412E+04</pdfrwt>
<pdfrwt beam="2">  1       -4 0.19967547E+00 0.11358639E+04</pdfrwt>
<totfact> 0.17076959E-01</totfact>
</mgrwt>
</event>
<event>
 8    1  0.2939692E-006  0.1118599E+04  0.7818608E-02  0.8685585E-01
         -4   -1    0    0    0  501 -0.00000000000E+00  0.00000000000E+00  0.33709758951E+04  0.33709758951E+04  0.00000000000E+00 0. -1.
          4   -1    0    0  502    0  0.00000000000E+00 -0.00000000000E+00 -0.16410061950E+04  0.16410061950E+04  0.00000000000E+00 0.  1.
   -9000010    2    1    2    0  501 -0.21347228969E+03  0.45621196332E+03  0.30827354497E+04  0.32794087852E+04  0.99878143449E+03 0.  0.
    9000010    2    1    2  502    0  0.21347228969E+03 -0.45621196332E+03 -0.13527657496E+04  0.17325733048E+04  0.95819377448E+03 0.  0.
        -13    1    4    4    0    0  0.30684881404E+03 -0.30806784907E+03 -0.14625989362E+04  0.15258629210E+04  0.10566000000E+00 0.  1.
          4    1    4    4  502    0 -0.93376524343E+02 -0.14814411425E+03  0.10983318666E+03  0.20671038381E+03  0.00000000000E+00 0.  1.
         13    1    3    3    0    0 -0.33539939377E+03  0.27993371325E+03  0.30264312010E+04  0.30578001018E+04  0.10566000000E+00 0. -1.
         -4    1    3    3    0  501  0.12192710408E+03  0.17627825008E+03  0.56304248755E+02  0.22160868347E+03  0.00000000000E+00 0. -1.
<mgrwt>
<rscale>  0 0.11004083E+04</rscale>
<asrwt>0</asrwt>
<pdfrwt beam="2">  1        4 0.25246249E+00 0.10825133E+04</pdfrwt>
<pdfrwt beam="1">  1       -4 0.51861168E+00 0.11185992E+04</pdfrwt>
<totfact> 0.10225453E-02</totfact>
</mgrwt>
</event>
<event>
 8    1  0.2939692E-006  0.1632630E+04  0.7818608E-02  0.8339301E-01
         -4   -1    0    0    0  501 -0.00000000000E+00  0.00000000000E+00  0.24786663691E+04  0.24786663691E+04  0.00000000000E+00 0. -1.
          4   -1    0    0  502    0  0.00000000000E+00 -0.00000000000E+00 -0.15676438244E+04  0.15676438244E+04  0.00000000000E+00 0.  1.
   -9000010    2    1    2    0  501  0.11699933087E+04  0.50661724876E+03  0.15950420127E+04  0.22761794562E+04  0.10056284182E+04 0.  0.
    9000010    2    1    2  502    0 -0.11699933087E+04 -0.50661724876E+03 -0.68401946798E+03  0.17701307374E+04  0.10197719429E+04 0.  0.
        -13    1    4    4    0    0 -0.10147377082E+04 -0.48441152035E+03 -0.59266429342E+02  0.11259927435E+04  0.10566000000E+00 0.  1.
          4    1    4    4  502    0 -0.15525560048E+03 -0.22205728408E+02 -0.62475303864E+03  0.64413799387E+03  0.00000000000E+00 0.  1.
         13    1    3    3    0    0  0.10848586944E+04  0.74034349083E+03  0.10659503402E+04  0.16915309663E+04  0.10566000000E+00 0. -1.
         -4    1    3    3    0  501  0.85134614346E+02 -0.23372624208E+03  0.52909167251E+03  0.58464848988E+03  0.00000000000E+00 0. -1.
<mgrwt>
<rscale>  0 0.16282255E+04</rscale>
<asrwt>0</asrwt>
<pdfrwt beam="2">  1        4 0.24117597E+00 0.16326298E+04</pdfrwt>
<pdfrwt beam="1">  1       -4 0.38133329E+00 0.16238331E+04</pdfrwt>
<totfact> 0.42030858E-02</totfact>
</mgrwt>
</event>
<event>
 8    1  0.2939692E-006  0.1303381E+04  0.7818608E-02  0.8536380E-01
         -4   -1    0    0    0  501 -0.00000000000E+00  0.00000000000E+00  0.82841232049E+03  0.82841232049E+03  0.00000000000E+00 0. -1.
          4   -1    0    0  502    0  0.00000000000E+00 -0.00000000000E+00 -0.20905361295E+04  0.20905361295E+04  0.00000000000E+00 0.  1.
   -9000010    2    1    2    0  501  0.78346989439E+03  0.26194969604E+03 -0.39164484810E+03  0.13609507259E+04  0.10081460571E+04 0.  0.
    9000010    2    1    2  502    0 -0.78346989439E+03 -0.26194969604E+03 -0.87047896091E+03  0.15579977241E+04  0.99356960920E+03 0.  0.
        -13    1    4    4    0    0 -0.91365071695E+03  0.86943206379E+02 -0.65766972172E+03  0.11290908855E+04  0.10566000000E+00 0.  1.
          4    1    4    4  502    0  0.13018082256E+03 -0.34889290242E+03 -0.21280923919E+03  0.42890683861E+03  0.00000000000E+00 0.  1.
         13    1    3    3    0    0  0.88478888735E+03 -0.13248226637E+03 -0.23878961471E+03  0.92597160720E+03  0.10566000000E+00 0. -1.
         -4    1    3    3    0  501 -0.10131899296E+03  0.39443196241E+03 -0.15285523339E+03  0.43497911867E+03  0.00000000000E+00 0. -1.
<mgrwt>
<rscale>  0 0.12977477E+04</rscale>
<asrwt>0</asrwt>
<pdfrwt beam="2">  1        4 0.32162094E+00 0.12921390E+04</pdfrwt>
<pdfrwt beam="1">  1       -4 0.12744805E+00 0.13033807E+04</pdfrwt>
<totfact> 0.16856545E-01</totfact>
</mgrwt>
</event>
<event>
 8    1  0.2939692E-006  0.1035555E+04  0.7818608E-02  0.8761776E-01
         -4   -1    0    0    0  501 -0.00000000000E+00  0.00000000000E+00  0.15658533044E+04  0.15658533044E+04  0.00000000000E+00 0. -1.
          4   -1    0    0  502    0  0.00000000000E+00 -0.00000000000E+00 -0.26647826462E+04  0.26647826462E+04  0.00000000000E+00 0.  1.
   -9000010    2    1    2    0  501 -0.20298375447E+03 -0.38453222968E+02  0.12838579378E+04  0.16494441729E+04  0.10147383013E+04 0.  0.
    9000010    2    1    2  502    0  0.20298375447E+03  0.38453222968E+02 -0.23827872796E+04  0.25811917777E+04  0.97066715141E+03 0.  0.
        -13    1    4    4    0    0  0.13100566312E+02  0.33719336291E+03 -0.21032436006E+04  0.21301419304E+04  0.10566000000E+00 0.  1.
          4    1    4    4  502    0  0.18988318816E+03 -0.29874013994E+03 -0.27954367893E+03  0.45104984734E+03  0.00000000000E+00 0.  1.
         13    1    3    3    0    0 -0.50854628693E+03  0.28946558608E+03  0.77965021569E+03  0.97481491652E+03  0.10566000000E+00 0. -1.
         -4    1    3    3    0  501  0.30556253246E+03 -0.32791880905E+03  0.50420772209E+03  0.67462925639E+03  0.00000000000E+00 0. -1.
<mgrwt>
<rscale>  0 0.10137527E+04</rscale>
<asrwt>0</asrwt>
<pdfrwt beam="2">  1        4 0.40996656E+00 0.99240908E+03</pdfrwt>
<pdfrwt beam="1">  1       -4 0.24090051E+00 0.10355553E+04</pdfrwt>
<totfact> 0.34701277E-02</totfact>
</mgrwt>
</event>
<event>
 8    1  0.2939692E-006  0.1535887E+04  0.7818608E-02  0.8397002E-01
          4   -1    0    0  502    0  0.00000000000E+00  0.00000000000E+00  0.20280390924E+04  0.20280390924E+04  0.00000000000E+00 0.  1.
         -4   -1    0    0    0  501 -0.00000000000E+00 -0.00000000000E+00 -0.27403683596E+04  0.27403683596E+04  0.00000000000E+00 0. -1.
   -9000010    2    1    2    0  501  0.10278101719E+04  0.41814226003E+03 -0.21755332644E+04  0.26471070072E+04  0.10212706906E+04 0.  0.
    9000010    2    1    2  502    0 -0.10278101719E+04 -0.41814226003E+03  0.14632039972E+04  0.21213004448E+04  0.10619382940E+04 0.  0.
        -13    1    4    4    0    0 -0.85979308003E+03 -0.33049186484E+03  0.33945019189E+03  0.98167991583E+03  0.10566000000E+00 0.  1.
          4    1    4    4  502    0 -0.16801709186E+03 -0.87650395188E+02  0.11237538053E+04  0.11396205289E+04  0.00000000000E+00 0.  1.
         13    1    3    3    0    0 -0.18917707970E+03  0.19113160749E+03 -0.42898049580E+03  0.50630379794E+03  0.10566000000E+00 0. -1.
         -4    1    3    3    0  501  0.12169872516E+04  0.22701065254E+03 -0.17465527686E+04  0.21408032092E+04  0.00000000000E+00 0. -1.
<mgrwt>
<rscale>  0 0.15219076E+04</rscale>
<asrwt>0</asrwt>
<pdfrwt beam="1">  1        4 0.31200601E+00 0.15358872E+04</pdfrwt>
<pdfrwt beam="2">  1       -4 0.42159513E+00 0.15080552E+04</pdfrwt>
<totfact> 0.19184201E-02</totfact>
</mgrwt>
</event>
<event>
 8    1  0.2939692E-006  0.1385556E+04  0.7818608E-02  0.8478669E-01
          4   -1    0    0  502    0  0.00000000000E+00  0.00000000000E+00  0.14744541179E+04  0.14744541179E+04  0.00000000000E+00 0.  1.
         -4   -1    0    0    0  501 -0.00000000000E+00 -0.00000000000E+00 -0.17369857411E+04  0.17369857411E+04  0.00000000000E+00 0. -1.
   -9000010    2    1    2    0  501 -0.90038803228E+03 -0.28657363558E+03 -0.93506036515E+03  0.16712901936E+04  0.10129412458E+04 0.  0.
    9000010    2    1    2  502    0  0.90038803228E+03  0.28657363558E+03  0.67252874192E+03  0.15401496654E+04  0.10133819743E+04 0.  0.
        -13    1    4    4    0    0  0.18881549291E+03  0.10765534350E+03  0.76990319452E+03  0.79999493963E+03  0.10566000000E+00 0.  1.
          4    1    4    4  502    0  0.71157253936E+03  0.17891829208E+03 -0.97374452594E+02  0.74015472574E+03  0.00000000000E+00 0.  1.
         13    1    3    3    0    0  0.17412197633E+03 -0.25265894939E+03 -0.25715474818E+03  0.40035432185E+03  0.10566000000E+00 0. -1.
         -4    1    3    3    0  501 -0.10745100086E+04 -0.33914686193E+02 -0.67790561697E+03  0.12709358717E+04  0.00000000000E+00 0. -1.
<mgrwt>
<rscale>  0 0.13853951E+04</rscale>
<asrwt>0</asrwt>
<pdfrwt beam="1">  1        4 0.22683909E+00 0.13855562E+04</pdfrwt>
<pdfrwt beam="2">  1       -4 0.26722858E+00 0.13852339E+04</pdfrwt>
<totfact> 0.10360115E-01</totfact>
</mgrwt>
</event>
<event>
 8    1  0.2939692E-006  0.1102468E+04  0.7818608E-02  0.8690195E-01
          4   -1    0    0  502    0  0.00000000000E+00  0.00000000000E+00  0.69463047614E+03  0.69463047614E+03  0.00000000000E+00 0.  1.
         -4   -1    0    0    0  501 -0.00000000000E+00 -0.00000000000E+00 -0.35021083972E+04  0.35021083972E+04  0.00000000000E+00 0. -1.
   -9000010    2    1    2    0  501 -0.39651253938E+03 -0.12733786027E+03 -0.29028485674E+04  0.31051515739E+04  0.10207837026E+04 0.  0.
    9000010    2    1    2  502    0  0.39651253938E+03  0.12733786027E+03  0.95370646277E+02  0.10915872995E+04  0.10045049266E+04 0.  0.
        -13    1    4    4    0    0  0.43645456787E+03 -0.54148613301E+02 -0.37997392654E+03  0.58120982283E+03  0.10566000000E+00 0.  1.
          4    1    4    4  502    0 -0.39942028498E+02  0.18148647357E+03  0.47534457282E+03  0.51037747662E+03  0.00000000000E+00 0.  1.
         13    1    3    3    0    0  0.49779493161E+02  0.31439335110E+03 -0.18662007226E+04  0.18931524834E+04  0.10566000000E+00 0. -1.
         -4    1    3    3    0  501 -0.44629203254E+03 -0.44173121137E+03 -0.10366478448E+04  0.12119990905E+04  0.00000000000E+00 0. -1.
<mgrwt>
<rscale>  0 0.10949149E+04</rscale>
<asrwt>0</asrwt>
<pdfrwt beam="1">  1        4 0.10686623E+00 0.10874131E+04</pdfrwt>
<pdfrwt beam="2">  1       -4 0.53878590E+00 0.11024684E+04</pdfrwt>
<totfact> 0.28932366E-02</totfact>
</mgrwt>
</event>
<event>
 8    1  0.2939692E-006  0.1072692E+04  0.7818608E-02  0.8714684E-01
         -4   -1    0    0    0  501 -0.00000000000E+00  0.00000000000E+00  0.64592180118E+03  0.64592180118E+03  0.00000000000E+00 0. -1.
          4   -1    0    0  502    0  0.00000000000E+00 -0.00000000000E+00 -0.21103324890E+04  0.21103324890E+04  0.00000000000E+00 0.  1.
   -9000010    2    1    2    0  501  0.29935235885E+03  0.24529803886E+03 -0.17460005884E+03  0.10868090331E+04  0.10004427677E+04 0.  0.
    9000010    2    1    2  502    0 -0.29935235885E+03 -0.24529803886E+03 -0.12898106290E+04  0.16694452571E+04  0.98673859003E+03 0.  0.
        -13    1    4    4    0    0  0.41591910052E+02  0.24028876558E+03 -0.96025729641E+03  0.99073844395E+03  0.10566000000E+00 0.  1.
          4    1    4    4  502    0 -0.34094426891E+03 -0.48558680444E+03 -0.32955333259E+03  0.67870681312E+03  0.00000000000E+00 0.  1.
         13    1    3    3    0    0  0.51819399295E+03  0.41347038244E+03  0.13022150965E+03  0.67560374794E+03  0.10566000000E+00 0. -1.
         -4    1    3    3    0  501 -0.21884163410E+03 -0.16817234358E+03 -0.30482156849E+03  0.41120528520E+03  0.00000000000E+00 0. -1.
<mgrwt>
<rscale>  0 0.10662883E+04</rscale>
<asrwt>0</asrwt>
<pdfrwt beam="2">  1        4 0.32466654E+00 0.10599226E+04</pdfrwt>
<pdfrwt beam="1">  1       -4 0.99372585E-01 0.10726923E+04</pdfrwt>
<totfact> 0.25976760E-01</totfact>
</mgrwt>
</event>
<event>
 8    1  0.2939692E-006  0.1086433E+04  0.7818608E-02  0.8699760E-01
         -4   -1    0    0    0  501 -0.00000000000E+00  0.00000000000E+00  0.18026653584E+04  0.18026653584E+04  0.00000000000E+00 0. -1.
          4   -1    0    0  502    0  0.00000000000E+00 -0.00000000000E+00 -0.97804195361E+03  0.97804195361E+03  0.00000000000E+00 0.  1.
   -9000010    2    1    2    0  501  0.38702198264E+03 -0.17401939203E+03  0.12165208328E+04  0.16310303955E+04  0.10001342163E+04 0.  0.
    9000010    2    1    2  502    0 -0.38702198264E+03  0.17401939203E+03 -0.39189742802E+03  0.11496769165E+04  0.99403453381E+03 0.  0.
        -13    1    4    4    0    0 -0.62425045390E+02  0.11885200416E+03  0.32998782774E+03  0.35625084253E+03  0.10566000000E+00 0.  1.
          4    1    4    4  502    0 -0.32459693725E+03  0.55167387876E+02 -0.72188525577E+03  0.79342607397E+03  0.00000000000E+00 0.  1.
         13    1    3    3    0    0  0.10722738808E+03  0.17865452426E+02  0.12810696835E+04  0.12856735325E+04  0.10566000000E+00 0. -1.
         -4    1    3    3    0  501  0.27979459456E+03 -0.19188484446E+03 -0.64548850673E+02  0.34535686297E+03  0.00000000000E+00 0. -1.
<mgrwt>
<rscale>  0 0.10836234E+04</rscale>
<asrwt>0</asrwt>
<pdfrwt beam="2">  1        4 0.15046799E+00 0.10808207E+04</pdfrwt>
<pdfrwt beam="1">  1       -4 0.27733313E+00 0.10864333E+04</pdfrwt>
<totfact> 0.17384070E-01</totfact>
</mgrwt>
</event>
<event>
 8    1  0.2939692E-006  0.1070005E+04  0.7818608E-02  0.8717655E-01
         -4   -1    0    0    0  501 -0.00000000000E+00  0.00000000000E+00  0.75402489933E+03  0.75402489933E+03  0.00000000000E+00 0. -1.
          4   -1    0    0  502    0  0.00000000000E+00 -0.00000000000E+00 -0.15436336419E+04  0.15436336419E+04  0.00000000000E+00 0.  1.
   -9000010    2    1    2    0  501 -0.37337587733E+03 -0.11286079364E+03 -0.19538101029E+03  0.10737230657E+04  0.98110161458E+03 0.  0.
    9000010    2    1    2  502    0  0.37337587733E+03  0.11286079364E+03 -0.59422773233E+03  0.12239354756E+04  0.99637560487E+03 0.  0.
        -13    1    4    4    0    0  0.34426924832E+03 -0.41392376967E+03 -0.35320062342E+03  0.64389820157E+03  0.10566000000E+00 0.  1.
          4    1    4    4  502    0  0.29106629009E+02  0.52678456331E+03 -0.24102710891E+03  0.58003727400E+03  0.00000000000E+00 0.  1.
         13    1    3    3    0    0 -0.48110980549E+03  0.80690681838E+02  0.27053923937E+03  0.55782535105E+03  0.10566000000E+00 0. -1.
         -4    1    3    3    0  501  0.10773392816E+03 -0.19355147548E+03 -0.46592024966E+03  0.51589771465E+03  0.00000000000E+00 0. -1.
<mgrwt>
<rscale>  0 0.10628775E+04</rscale>
<asrwt>0</asrwt>
<pdfrwt beam="2">  1        4 0.23748210E+00 0.10700054E+04</pdfrwt>
<pdfrwt beam="1">  1       -4 0.11600383E+00 0.10557971E+04</pdfrwt>
<totfact> 0.32613820E-01</totfact>
</mgrwt>
</event>
<event>
 8    1  0.2939692E-006  0.1044584E+04  0.7818608E-02  0.8735331E-01
         -4   -1    0    0    0  501 -0.00000000000E+00  0.00000000000E+00  0.10225749422E+04  0.10225749422E+04  0.00000000000E+00 0. -1.
          4   -1    0    0  502    0  0.00000000000E+00 -0.00000000000E+00 -0.15831661737E+04  0.15831661737E+04  0.00000000000E+00 0.  1.
   -9000010    2    1    2    0  501 -0.13232893464E+03  0.26290804087E+03  0.46580519193E+03  0.11437350542E+04  0.10022593539E+04 0.  0.
    9000010    2    1    2  502    0  0.13232893464E+03 -0.26290804087E+03 -0.10263964235E+04  0.14620060617E+04  0.99866937548E+03 0.  0.
        -13    1    4    4    0    0 -0.21304486781E+03 -0.92763723291E+02  0.11367472449E+03  0.25867968264E+03  0.10566000000E+00 0.  1.
          4    1    4    4  502    0  0.34537380245E+03 -0.17014431757E+03 -0.11400711479E+04  0.12033263791E+04  0.00000000000E+00 0.  1.
         13    1    3    3    0    0  0.22141878888E+02  0.61757002922E+03  0.43490331945E+03  0.75566124171E+03  0.10566000000E+00 0. -1.
         -4    1    3    3    0  501 -0.15447081352E+03 -0.35466198835E+03  0.30901872475E+02  0.38807381248E+03  0.00000000000E+00 0. -1.
<mgrwt>
<rscale>  0 0.10428604E+04</rscale>
<asrwt>0</asrwt>
<pdfrwt beam="2">  1        4 0.24356403E+00 0.10411398E+04</pdfrwt>
<pdfrwt beam="1">  1       -4 0.15731922E+00 0.10445838E+04</pdfrwt>
<totfact> 0.19628351E-01</totfact>
</mgrwt>
</event>
<event>
 8    1  0.2939692E-006  0.1161039E+04  0.7818608E-02  0.8640035E-01
          4   -1    0    0  502    0  0.00000000000E+00  0.00000000000E+00  0.18827520846E+04  0.18827520846E+04  0.00000000000E+00 0.  1.
         -4   -1    0    0    0  501 -0.00000000000E+00 -0.00000000000E+00 -0.79193204929E+03  0.79193204929E+03  0.00000000000E+00 0. -1.
   -9000010    2    1    2    0  501  0.58549473521E+03 -0.41214956773E+02  0.11831778685E+03  0.11670517953E+04  0.10017524827E+04 0.  0.
    9000010    2    1    2  502    0 -0.58549473521E+03  0.41214956773E+02  0.97250224846E+03  0.15076323386E+04  0.99130816982E+03 0.  0.
        -13    1    4    4    0    0 -0.68681347124E+02  0.74005271570E+01  0.98709420088E+03  0.98950839704E+03  0.10566000000E+00 0.  1.
          4    1    4    4  502    0 -0.51681338809E+03  0.33814429616E+02 -0.14591952416E+02  0.51812394157E+03  0.00000000000E+00 0.  1.
         13    1    3    3    0    0  0.24778866759E+03 -0.10617576960E+03  0.55155828131E+03  0.61391291457E+03  0.10566000000E+00 0. -1.
         -4    1    3    3    0  501  0.33770606762E+03  0.64960812828E+02 -0.43324049446E+03  0.55313888071E+03  0.00000000000E+00 0. -1.
<mgrwt>
<rscale>  0 0.11565303E+04</rscale>
<asrwt>0</asrwt>
<pdfrwt beam="1">  1        4 0.28965417E+00 0.11520393E+04</pdfrwt>
<pdfrwt beam="2">  1       -4 0.12183570E+00 0.11610387E+04</pdfrwt>
<totfact> 0.22390717E-01</totfact>
</mgrwt>
</event>
<event>
 8    1  0.2939692E-006  0.1377811E+04  0.7818608E-02  0.8491909E-01
          4   -1    0    0  502    0  0.00000000000E+00  0.00000000000E+00  0.82472170278E+03  0.82472170278E+03  0.00000000000E+00 0.  1.
         -4   -1    0    0    0  501 -0.00000000000E+00 -0.00000000000E+00 -0.29839078192E+04  0.29839078192E+04  0.00000000000E+00 0. -1.
   -9000010    2    1    2    0  501 -0.75242903357E+03 -0.46583025468E+03 -0.20107715993E+04  0.24228484675E+04  0.10216873276E+04 0.  0.
    9000010    2    1    2  502    0  0.75242903357E+03  0.46583025468E+03 -0.14841451715E+03  0.13857810545E+04  0.10560373977E+04 0.  0.
        -13    1    4    4    0    0 -0.15199081291E+03  0.41309102114E+03  0.89354066335E+02  0.44914313898E+03  0.10566000000E+00 0.  1.
          4    1    4    4  502    0  0.90441984648E+03  0.52739233535E+02 -0.23776858349E+03  0.93663791550E+03  0.00000000000E+00 0.  1.
         13    1    3    3    0    0 -0.56693394137E+03  0.18726317131E+03 -0.54897482490E+03  0.81108258442E+03  0.10566000000E+00 0. -1.
         -4    1    3    3    0  501 -0.18549509220E+03 -0.65309342599E+03 -0.14617967744E+04  0.16117658831E+04  0.00000000000E+00 0. -1.
<mgrwt>
<rscale>  0 0.13646741E+04</rscale>
<asrwt>0</asrwt>
<pdfrwt beam="1">  1        4 0.12688026E+00 0.13778107E+04</pdfrwt>
<pdfrwt beam="2">  1       -4 0.45906275E+00 0.13516628E+04</pdfrwt>
<totfact> 0.49615936E-02</totfact>
</mgrwt>
</event>
<event>
 8    1  0.2939692E-006  0.1092460E+04  0.7818608E-02  0.8696971E-01
          4   -1    0    0  502    0  0.00000000000E+00  0.00000000000E+00  0.24441187930E+04  0.24441187930E+04  0.00000000000E+00 0.  1.
         -4   -1    0    0    0  501 -0.00000000000E+00 -0.00000000000E+00 -0.14119951412E+04  0.14119951412E+04  0.00000000000E+00 0. -1.
   -9000010    2    1    2    0  501  0.38373023807E+03  0.10383757848E+03 -0.10484347777E+04  0.15061793048E+04  0.10056487840E+04 0.  0.
    9000010    2    1    2  502    0 -0.38373023807E+03 -0.10383757848E+03  0.20805584295E+04  0.23499346294E+04  0.10175648605E+04 0.  0.
        -13    1    4    4    0    0 -0.51328303659E+03  0.24348907991E+03  0.17927842449E+04  0.18806439768E+04  0.10566000000E+00 0.  1.
          4    1    4    4  502    0  0.12955279852E+03 -0.34732665838E+03  0.28777418465E+03  0.46929065256E+03  0.00000000000E+00 0.  1.
         13    1    3    3    0    0  0.57817822389E+03 -0.25265205545E+03 -0.83751513577E+03  0.10485965542E+04  0.10566000000E+00 0. -1.
         -4    1    3    3    0  501 -0.19444798582E+03  0.35648963392E+03 -0.21091964192E+03  0.45758275058E+03  0.00000000000E+00 0. -1.
<mgrwt>
<rscale>  0 0.10869009E+04</rscale>
<asrwt>0</asrwt>
<pdfrwt beam="1">  1        4 0.37601828E+00 0.10924602E+04</pdfrwt>
<pdfrwt beam="2">  1       -4 0.21723002E+00 0.10813698E+04</pdfrwt>
<totfact> 0.53184463E-02</totfact>
</mgrwt>
</event>
<event>
 8    1  0.2939692E-006  0.1078317E+04  0.7818608E-02  0.8729595E-01
         -4   -1    0    0    0  501 -0.00000000000E+00  0.00000000000E+00  0.33389908692E+04  0.33389908692E+04  0.00000000000E+00 0. -1.
          4   -1    0    0  502    0  0.00000000000E+00 -0.00000000000E+00 -0.12584880843E+04  0.12584880843E+04  0.00000000000E+00 0.  1.
   -9000010    2    1    2    0  501  0.86365905043E+02 -0.16162826881E+03  0.30071061460E+04  0.31757330778E+04  0.10044951176E+04 0.  0.
    9000010    2    1    2  502    0 -0.86365905043E+02  0.16162826881E+03 -0.92660336114E+03  0.14217458756E+04  0.10626310645E+04 0.  0.
        -13    1    4    4    0    0 -0.26527316133E+03  0.54643855065E+03 -0.33499851422E+03  0.69367784703E+03  0.10566000000E+00 0.  1.
          4    1    4    4  502    0  0.17890725629E+03 -0.38481028184E+03 -0.59160484692E+03  0.72806802860E+03  0.00000000000E+00 0.  1.
         13    1    3    3    0    0 -0.33234018302E+03 -0.22976836441E+03  0.24079041198E+04  0.24415662514E+04  0.10566000000E+00 0. -1.
         -4    1    3    3    0  501  0.41870608807E+03  0.68140095598E+02  0.59920202626E+03  0.73416682647E+03  0.00000000000E+00 0. -1.
<mgrwt>
<rscale>  0 0.10493055E+04</rscale>
<asrwt>0</asrwt>
<pdfrwt beam="2">  1        4 0.19361355E+00 0.10783170E+04</pdfrwt>
<pdfrwt beam="1">  1       -4 0.51369090E+00 0.10210745E+04</pdfrwt>
<totfact> 0.15426650E-02</totfact>
</mgrwt>
</event>
<event>
 8    1  0.2939692E-006  0.1029867E+04  0.7818608E-02  0.8756515E-01
         -4   -1    0    0    0  501 -0.00000000000E+00  0.00000000000E+00  0.19881875540E+04  0.19881875540E+04  0.00000000000E+00 0. -1.
          4   -1    0    0  502    0  0.00000000000E+00 -0.00000000000E+00 -0.22395544441E+04  0.22395544441E+04  0.00000000000E+00 0.  1.
   -9000010    2    1    2    0  501  0.20569471659E+03  0.62171312962E+02  0.17247657270E+04  0.20088410471E+04  0.10071990623E+04 0.  0.
    9000010    2    1    2  502    0 -0.20569471659E+03 -0.62171312962E+02 -0.19761326171E+04  0.22189009509E+04  0.98602521326E+03 0.  0.
        -13    1    4    4    0    0 -0.33304619693E+03  0.40465902717E+03 -0.97354156348E+03  0.11056454606E+04  0.10566000000E+00 0.  1.
          4    1    4    4  502    0  0.12735148034E+03 -0.46683034013E+03 -0.10025910536E+04  0.11132554903E+04  0.00000000000E+00 0.  1.
         13    1    3    3    0    0  0.25453760176E+03  0.48224114988E+03  0.12986702845E+04  0.14085064559E+04  0.10566000000E+00 0. -1.
         -4    1    3    3    0  501 -0.48842885172E+02 -0.42006983692E+03  0.42609544243E+03  0.60033459119E+03  0.00000000000E+00 0. -1.
<mgrwt>
<rscale>  0 0.10194652E+04</rscale>
<asrwt>0</asrwt>
<pdfrwt beam="2">  1        4 0.34454684E+00 0.10091686E+04</pdfrwt>
<pdfrwt beam="1">  1       -4 0.30587501E+00 0.10298668E+04</pdfrwt>
<totfact> 0.41840392E-02</totfact>
</mgrwt>
</event>
<event>
 8    1  0.2939692E-006  0.1226784E+04  0.7818608E-02  0.8620603E-01
          4   -1    0    0  502    0  0.00000000000E+00  0.00000000000E+00  0.17712486239E+04  0.17712486239E+04  0.00000000000E+00 0.  1.
         -4   -1    0    0    0  501 -0.00000000000E+00 -0.00000000000E+00 -0.30716914510E+04  0.30716914510E+04  0.00000000000E+00 0. -1.
   -9000010    2    1    2    0  501 -0.56400885617E+03 -0.27746120243E+02 -0.27434383368E+04  0.30052377626E+04  0.10890933223E+04 0.  0.
    9000010    2    1    2  502    0  0.56400885617E+03  0.27746120243E+02  0.14429955098E+04  0.18377023123E+04  0.98794630950E+03 0.  0.
        -13    1    4    4    0    0  0.60340402517E+02 -0.38797599526E+01 -0.15263094184E+03  0.16417135038E+03  0.10566000000E+00 0.  1.
          4    1    4    4  502    0  0.50366845366E+03  0.31625880196E+02  0.15956264516E+04  0.16735309619E+04  0.00000000000E+00 0.  1.
         13    1    3    3    0    0 -0.15585063518E+03 -0.42583692407E+03 -0.20873180068E+04  0.21360063153E+04  0.10566000000E+00 0. -1.
         -4    1    3    3    0  501 -0.40815822099E+03  0.39809080382E+03 -0.65612033003E+03  0.86923144728E+03  0.00000000000E+00 0. -1.
<mgrwt>
<rscale>  0 0.11815289E+04</rscale>
<asrwt>0</asrwt>
<pdfrwt beam="1">  1        4 0.27249979E+00 0.11379428E+04</pdfrwt>
<pdfrwt beam="2">  1       -4 0.47256791E+00 0.12267845E+04</pdfrwt>
<totfact> 0.14851841E-02</totfact>
</mgrwt>
</event>
<event>
 8    1  0.2939692E-006  0.1418741E+04  0.7818608E-02  0.8458723E-01
         -4   -1    0    0    0  501 -0.00000000000E+00  0.00000000000E+00  0.10273409197E+04  0.10273409197E+04  0.00000000000E+00 0. -1.
          4   -1    0    0  502    0  0.00000000000E+00 -0.00000000000E+00 -0.23312121419E+04  0.23312121419E+04  0.00000000000E+00 0.  1.
   -9000010    2    1    2    0  501 -0.70354296155E+03  0.71741120107E+03  0.21791327677E+02  0.14189078954E+04  0.10015853550E+04 0.  0.
    9000010    2    1    2  502    0  0.70354296155E+03 -0.71741120107E+03 -0.13256625499E+04  0.19396451662E+04  0.99759242404E+03 0.  0.
        -13    1    4    4    0    0  0.52162772564E+03  0.74769926400E+02 -0.84355305684E+03  0.99461942315E+03  0.10566000000E+00 0.  1.
          4    1    4    4  502    0  0.18191523591E+03 -0.79218112747E+03 -0.48210949309E+03  0.94502574309E+03  0.00000000000E+00 0.  1.
         13    1    3    3    0    0  0.22860181294E+02  0.63299769083E+03 -0.18330425103E+03  0.65940057938E+03  0.10566000000E+00 0. -1.
         -4    1    3    3    0  501 -0.72640314284E+03  0.84413510246E+02  0.20509557871E+03  0.75950731599E+03  0.00000000000E+00 0. -1.
<mgrwt>
<rscale>  0 0.14173318E+04</rscale>
<asrwt>0</asrwt>
<pdfrwt beam="2">  1        4 0.35864802E+00 0.14159245E+04</pdfrwt>
<pdfrwt beam="1">  1       -4 0.15805245E+00 0.14187406E+04</pdfrwt>
<totfact> 0.92008215E-02</totfact>
</mgrwt>
</event>
<event>
 8    1  0.2939692E-006  0.1148876E+04  0.7818608E-02  0.8648363E-01
         -4   -1    0    0    0  501 -0.00000000000E+00  0.00000000000E+00  0.21991773633E+04  0.21991773633E+04  0.00000000000E+00 0. -1.
          4   -1    0    0  502    0  0.00000000000E+00 -0.00000000000E+00 -0.11591687284E+04  0.11591687284E+04  0.00000000000E+00 0.  1.
   -9000010    2    1    2    0  501 -0.52669279511E+03  0.16577033947E+03  0.16898384790E+04  0.20433964581E+04  0.10074869201E+04 0.  0.
    9000010    2    1    2  502    0  0.52669279511E+03 -0.16577033947E+03 -0.64982984413E+03  0.13149496335E+04  0.10009638388E+04 0.  0.
        -13    1    4    4    0    0  0.42345797833E+03 -0.28979716579E+02 -0.90959174199E+03  0.10037497854E+04  0.10566000000E+00 0.  1.
          4    1    4    4  502    0  0.10323481678E+03 -0.13679062289E+03  0.25976189786E+03  0.31119984815E+03  0.00000000000E+00 0.  1.
         13    1    3    3    0    0 -0.57511548947E+03  0.26520674366E+03  0.40051115256E+03  0.74933412948E+03  0.10566000000E+00 0. -1.
         -4    1    3    3    0  501  0.48422694363E+02 -0.99436404191E+02  0.12893273264E+04  0.12940623287E+04  0.00000000000E+00 0. -1.
<mgrwt>
<rscale>  0 0.11460140E+04</rscale>
<asrwt>0</asrwt>
<pdfrwt beam="2">  1        4 0.17833365E+00 0.11431595E+04</pdfrwt>
<pdfrwt beam="1">  1       -4 0.33833498E+00 0.11488755E+04</pdfrwt>
<totfact> 0.92607729E-02</totfact>
</mgrwt>
</event>
<event>
 8    1  0.2939692E-006  0.1126011E+04  0.7818608E-02  0.8664976E-01
          4   -1    0    0  502    0  0.00000000000E+00  0.00000000000E+00  0.77750509908E+03  0.77750509908E+03  0.00000000000E+00 0.  1.
         -4   -1    0    0    0  501 -0.00000000000E+00 -0.00000000000E+00 -0.22745207409E+04  0.22745207409E+04  0.00000000000E+00 0. -1.
   -9000010    2    1    2    0  501  0.47910937095E+03  0.17103702326E+03 -0.15618273271E+04  0.19254102007E+04  0.10045398891E+04 0.  0.
    9000010    2    1    2  502    0 -0.47910937095E+03 -0.17103702326E+03  0.64811685239E+02  0.11266156393E+04  0.10031265082E+04 0.  0.
        -13    1    4    4    0    0 -0.54293382381E+03 -0.86379781335E+02  0.46039026205E+03  0.71707587340E+03  0.10566000000E+00 0.  1.
          4    1    4    4  502    0  0.63824452855E+02 -0.84657241930E+02 -0.39557857681E+03  0.40953976587E+03  0.00000000000E+00 0.  1.
         13    1    3    3    0    0 -0.24168758272E+03 -0.27170666996E+02 -0.64145564827E+02  0.25152693183E+03  0.10566000000E+00 0. -1.
         -4    1    3    3    0  501  0.72079695367E+03  0.19820769026E+03 -0.14976817622E+04  0.16738832689E+04  0.00000000000E+00 0. -1.
<mgrwt>
<rscale>  0 0.11253800E+04</rscale>
<asrwt>0</asrwt>
<pdfrwt beam="1">  1        4 0.11961617E+00 0.11247499E+04</pdfrwt>
<pdfrwt beam="2">  1       -4 0.34992627E+00 0.11260106E+04</pdfrwt>
<totfact> 0.15538609E-01</totfact>
</mgrwt>
</event>
<event>
 8    1  0.2939692E-006  0.1220641E+04  0.7818608E-02  0.8646103E-01
          4   -1    0    0  502    0  0.00000000000E+00  0.00000000000E+00  0.10686163321E+04  0.10686163321E+04  0.00000000000E+00 0.  1.
         -4   -1    0    0    0  501 -0.00000000000E+00 -0.00000000000E+00 -0.21599399293E+04  0.21599399293E+04  0.00000000000E+00 0. -1.
   -9000010    2    1    2    0  501 -0.63275379438E+03  0.30122632514E+03 -0.15792936285E+04  0.19139915613E+04  0.82345653707E+03 0.  0.
    9000010    2    1    2  502    0  0.63275379438E+03 -0.30122632514E+03  0.48797003136E+03  0.13145647001E+04  0.99942530289E+03 0.  0.
        -13    1    4    4    0    0 -0.18557849673E+03 -0.92855383334E+02 -0.15014376218E+03  0.25613406869E+03  0.10566000000E+00 0.  1.
          4    1    4    4  502    0  0.81833229111E+03 -0.20837094181E+03  0.63811379353E+03  0.10584306314E+04  0.00000000000E+00 0.  1.
         13    1    3    3    0    0 -0.14622478572E+03  0.49017555466E+03 -0.50088256302E+03  0.71591697525E+03  0.10566000000E+00 0. -1.
         -4    1    3    3    0  501 -0.48652900866E+03 -0.18894922951E+03 -0.10784110655E+04  0.11980745860E+04  0.00000000000E+00 0. -1.
<mgrwt>
<rscale>  0 0.11488566E+04</rscale>
<asrwt>0</asrwt>
<pdfrwt beam="1">  1        4 0.16440251E+00 0.12206415E+04</pdfrwt>
<pdfrwt beam="2">  1       -4 0.33229845E+00 0.10812934E+04</pdfrwt>
<totfact> 0.10834578E-01</totfact>
</mgrwt>
</event>
<event>
 8    1  0.2939692E-006  0.1180236E+04  0.7818608E-02  0.8652285E-01
         -4   -1    0    0    0  501 -0.00000000000E+00  0.00000000000E+00  0.22630625712E+04  0.22630625712E+04  0.00000000000E+00 0. -1.
          4   -1    0    0  502    0  0.00000000000E+00 -0.00000000000E+00 -0.10168280929E+04  0.10168280929E+04  0.00000000000E+00 0.  1.
   -9000010    2    1    2    0  501 -0.31480204971E+03 -0.52168017034E+03  0.16906259556E+04  0.20187637776E+04  0.91975025818E+03 0.  0.
    9000010    2    1    2  502    0  0.31480204971E+03  0.52168017034E+03 -0.44439147722E+03  0.12611268865E+04  0.10107950871E+04 0.  0.
        -13    1    4    4    0    0 -0.18254015116E+03  0.35121932446E+03 -0.59464163949E+03  0.71433508330E+03  0.10566000000E+00 0.  1.
          4    1    4    4  502    0  0.49734220087E+03  0.17046084589E+03  0.15025016227E+03  0.54679180317E+03  0.00000000000E+00 0.  1.
         13    1    3    3    0    0 -0.54004022710E+03 -0.80019277062E+02  0.54951563388E+03  0.77460568977E+03  0.10566000000E+00 0. -1.
         -4    1    3    3    0  501  0.22523817739E+03 -0.44166089328E+03  0.11411103217E+04  0.12441580878E+04  0.00000000000E+00 0. -1.
<mgrwt>
<rscale>  0 0.11411011E+04</rscale>
<asrwt>0</asrwt>
<pdfrwt beam="2">  1        4 0.15643509E+00 0.11802361E+04</pdfrwt>
<pdfrwt beam="1">  1       -4 0.34816347E+00 0.11032638E+04</pdfrwt>
<totfact> 0.10394154E-01</totfact>
</mgrwt>
</event>
<event>
 8    1  0.2939692E-006  0.1440359E+04  0.7818608E-02  0.8444689E-01
          4   -1    0    0  502    0  0.00000000000E+00  0.00000000000E+00  0.43216627713E+04  0.43216627713E+04  0.00000000000E+00 0.  1.
         -4   -1    0    0    0  501 -0.00000000000E+00 -0.00000000000E+00 -0.19154437568E+04  0.19154437568E+04  0.00000000000E+00 0. -1.
   -9000010    2    1    2    0  501 -0.76343301275E+03 -0.69633700550E+03 -0.14965261761E+04  0.20770714175E+04  0.10034539788E+04 0.  0.
    9000010    2    1    2  502    0  0.76343301275E+03  0.69633700550E+03  0.39027451905E+04  0.41600351105E+04  0.10033727665E+04 0.  0.
        -13    1    4    4    0    0  0.45554982777E+03  0.80328658441E+02  0.47209891873E+03  0.66095063294E+03  0.10566000000E+00 0.  1.
          4    1    4    4  502    0  0.30788318498E+03  0.61600834706E+03  0.34306462718E+04  0.34990844776E+04  0.00000000000E+00 0.  1.
         13    1    3    3    0    0 -0.11543022224E+03  0.23291877144E+03 -0.52018819801E+03  0.58152477403E+03  0.10566000000E+00 0. -1.
         -4    1    3    3    0  501 -0.64800279051E+03 -0.92925577694E+03 -0.97633797808E+03  0.14955466435E+04  0.00000000000E+00 0. -1.
<mgrwt>
<rscale>  0 0.14403311E+04</rscale>
<asrwt>0</asrwt>
<pdfrwt beam="1">  1        4 0.66487119E+00 0.14403028E+04</pdfrwt>
<pdfrwt beam="2">  1       -4 0.29468366E+00 0.14403594E+04</pdfrwt>
<totfact> 0.12880823E-03</totfact>
</mgrwt>
</event>
<event>
 8    1  0.2939692E-006  0.1078984E+04  0.7818608E-02  0.8712728E-01
          4   -1    0    0  502    0  0.00000000000E+00  0.00000000000E+00  0.13400341591E+04  0.13400341591E+04  0.00000000000E+00 0.  1.
         -4   -1    0    0    0  501 -0.00000000000E+00 -0.00000000000E+00 -0.15781446631E+04  0.15781446631E+04  0.00000000000E+00 0. -1.
   -9000010    2    1    2    0  501 -0.65679044069E+02  0.34680236193E+03 -0.11080509865E+04  0.15321761984E+04  0.99759776417E+03 0.  0.
    9000010    2    1    2  502    0  0.65679044069E+02 -0.34680236193E+03  0.86994048249E+03  0.13860026239E+04  0.10196181713E+04 0.  0.
        -13    1    4    4    0    0 -0.29911316000E+03 -0.57203245155E+03  0.58559636155E+03  0.87155775365E+03  0.10566000000E+00 0.  1.
          4    1    4    4  502    0  0.36479220407E+03  0.22523008962E+03  0.28434412093E+03  0.51444487025E+03  0.00000000000E+00 0.  1.
         13    1    3    3    0    0  0.17770094141E+03  0.44981211615E+03 -0.11653760728E+04  0.12617487732E+04  0.10566000000E+00 0. -1.
         -4    1    3    3    0  501 -0.24337998548E+03 -0.10300975422E+03  0.57325086253E+02  0.27042742522E+03  0.00000000000E+00 0. -1.
<mgrwt>
<rscale>  0 0.10685415E+04</rscale>
<asrwt>0</asrwt>
<pdfrwt beam="1">  1        4 0.20615910E+00 0.10789842E+04</pdfrwt>
<pdfrwt beam="2">  1       -4 0.24279149E+00 0.10581998E+04</pdfrwt>
<totfact> 0.13644392E-01</totfact>
</mgrwt>
</event>
<event>
 8    1  0.2939692E-006  0.1410023E+04  0.7818608E-02  0.8474497E-01
         -4   -1    0    0    0  501 -0.00000000000E+00  0.00000000000E+00  0.18353821941E+04  0.18353821941E+04  0.00000000000E+00 0. -1.
          4   -1    0    0  502    0  0.00000000000E+00 -0.00000000000E+00 -0.13321477197E+04  0.13321477197E+04  0.00000000000E+00 0.  1.
   -9000010    2    1    2    0  501 -0.50797153312E+03 -0.84484322026E+03  0.97020807530E+03  0.16821917508E+04  0.95742896966E+03 0.  0.
    9000010    2    1    2  502    0  0.50797153312E+03  0.84484322026E+03 -0.46697360089E+03  0.14853381630E+04  0.10081517591E+04 0.  0.
        -13    1    4    4    0    0  0.61336553988E+03  0.96002193485E+03 -0.59333525750E+03  0.12844867223E+04  0.10566000000E+00 0.  1.
          4    1    4    4  502    0 -0.10539400676E+03 -0.11517871460E+03  0.12636165661E+03  0.20085144067E+03  0.00000000000E+00 0.  1.
         13    1    3    3    0    0  0.52844391001E+02  0.18929270350E+03  0.16485819153E+03  0.25651996363E+03  0.10566000000E+00 0. -1.
         -4    1    3    3    0  501 -0.56081592413E+03 -0.10341359238E+04  0.80534988377E+03  0.14256717872E+04  0.00000000000E+00 0. -1.
<mgrwt>
<rscale>  0 0.13920036E+04</rscale>
<asrwt>0</asrwt>
<pdfrwt beam="2">  1        4 0.20494580E+00 0.14100231E+04</pdfrwt>
<pdfrwt beam="1">  1       -4 0.28236649E+00 0.13742145E+04</pdfrwt>
<totfact> 0.10829986E-01</totfact>
</mgrwt>
</event>
<event>
 8    1  0.2939692E-006  0.1269706E+04  0.7818608E-02  0.8556552E-01
         -4   -1    0    0    0  501 -0.00000000000E+00  0.00000000000E+00  0.95993102280E+03  0.95993102280E+03  0.00000000000E+00 0. -1.
          4   -1    0    0  502    0  0.00000000000E+00 -0.00000000000E+00 -0.20027738550E+04  0.20027738550E+04  0.00000000000E+00 0.  1.
   -9000010    2    1    2    0  501  0.52903942883E+03  0.58702421254E+03  0.76572214912E+02  0.12700016361E+04  0.99124200291E+03 0.  0.
    9000010    2    1    2  502    0 -0.52903942883E+03 -0.58702421254E+03 -0.11194150471E+04  0.16927032417E+04  0.99381792761E+03 0.  0.
        -13    1    4    4    0    0 -0.69990228847E+03 -0.69568091707E+03 -0.11166272538E+04  0.14901985058E+04  0.10566000000E+00 0.  1.
          4    1    4    4  502    0  0.17086285963E+03  0.10865670453E+03 -0.27877933631E+01  0.20250473583E+03  0.00000000000E+00 0.  1.
         13    1    3    3    0    0  0.28529375667E+03  0.73674083421E+02  0.48686668664E+03  0.56908661897E+03  0.10566000000E+00 0. -1.
         -4    1    3    3    0  501  0.24374567216E+03  0.51335012912E+03 -0.41029447173E+03  0.70091501717E+03  0.00000000000E+00 0. -1.
<mgrwt>
<rscale>  0 0.12686984E+04</rscale>
<asrwt>0</asrwt>
<pdfrwt beam="2">  1        4 0.30811905E+00 0.12697064E+04</pdfrwt>
<pdfrwt beam="1">  1       -4 0.14768170E+00 0.12676911E+04</pdfrwt>
<totfact> 0.14636379E-01</totfact>
</mgrwt>
</event>
<event>
 8    1  0.2939692E-006  0.1041173E+04  0.7818608E-02  0.8740279E-01
          4   -1    0    0  502    0  0.00000000000E+00  0.00000000000E+00  0.10021026352E+04  0.10021026352E+04  0.00000000000E+00 0.  1.
         -4   -1    0    0    0  501 -0.00000000000E+00 -0.00000000000E+00 -0.12659690459E+04  0.12659690459E+04  0.00000000000E+00 0. -1.
   -9000010    2    1    2    0  501 -0.23655043722E+03 -0.10532540092E+03 -0.57331786652E+03  0.11818847263E+04  0.10005541368E+04 0.  0.
    9000010    2    1    2  502    0  0.23655043722E+03  0.10532540092E+03  0.30945145582E+03  0.10861869547E+04  0.10084603848E+04 0.  0.
        -13    1    4    4    0    0  0.37444718419E+03 -0.18407023231E+03 -0.21663035527E+03  0.47012898885E+03  0.10566000000E+00 0.  1.
          4    1    4    4  502    0 -0.13789674697E+03  0.28939563323E+03  0.52608181109E+03  0.61605796587E+03  0.00000000000E+00 0.  1.
         13    1    3    3    0    0 -0.27692960799E+03 -0.50662254465E+03 -0.14862290383E+03  0.59619224184E+03  0.10566000000E+00 0. -1.
         -4    1    3    3    0  501  0.40379170768E+02  0.40129714373E+03 -0.42469496269E+03  0.58569248444E+03  0.00000000000E+00 0. -1.
<mgrwt>
<rscale>  0 0.10373383E+04</rscale>
<asrwt>0</asrwt>
<pdfrwt beam="1">  1        4 0.15416964E+00 0.10411733E+04</pdfrwt>
<pdfrwt beam="2">  1       -4 0.19476447E+00 0.10335174E+04</pdfrwt>
<totfact> 0.26949473E-01</totfact>
</mgrwt>
</event>
<event>
 8    1  0.2939692E-006  0.1170205E+04  0.7818608E-02  0.8634092E-01
         -4   -1    0    0    0  501 -0.00000000000E+00  0.00000000000E+00  0.20854877297E+04  0.20854877297E+04  0.00000000000E+00 0. -1.
          4   -1    0    0  502    0  0.00000000000E+00 -0.00000000000E+00 -0.10440796663E+04  0.10440796663E+04  0.00000000000E+00 0.  1.
   -9000010    2    1    2    0  501  0.31068594955E+03 -0.50782720292E+03  0.14839603052E+04  0.18898461966E+04  0.10074553251E+04 0.  0.
    9000010    2    1    2  502    0 -0.31068594955E+03  0.50782720292E+03 -0.44255224185E+03  0.12397211994E+04  0.99329851420E+03 0.  0.
        -13    1    4    4    0    0 -0.37630008411E+03  0.72770410412E+03 -0.54960449935E+03  0.98651920069E+03  0.10566000000E+00 0.  1.
          4    1    4    4  502    0  0.65614134558E+02 -0.21987690120E+03  0.10705225751E+03  0.25320199875E+03  0.00000000000E+00 0.  1.
         13    1    3    3    0    0  0.45667093276E+02  0.42176124511E+02 -0.14093728785E+03  0.15403778484E+03  0.10566000000E+00 0. -1.
         -4    1    3    3    0  501  0.26501885628E+03 -0.55000332743E+03  0.16248975930E+04  0.17358084117E+04  0.00000000000E+00 0. -1.
<mgrwt>
<rscale>  0 0.11641067E+04</rscale>
<asrwt>0</asrwt>
<pdfrwt beam="2">  1        4 0.16062764E+00 0.11580398E+04</pdfrwt>
<pdfrwt beam="1">  1       -4 0.32084427E+00 0.11702053E+04</pdfrwt>
<totfact> 0.12012767E-01</totfact>
</mgrwt>
</event>
<event>
 8    1  0.2939692E-006  0.1060295E+04  0.7818608E-02  0.8729904E-01
          4   -1    0    0  502    0  0.00000000000E+00  0.00000000000E+00  0.17590271216E+04  0.17590271216E+04  0.00000000000E+00 0.  1.
         -4   -1    0    0    0  501 -0.00000000000E+00 -0.00000000000E+00 -0.21859984593E+04  0.21859984593E+04  0.00000000000E+00 0. -1.
   -9000010    2    1    2    0  501 -0.21892975357E+03  0.15264116445E+03 -0.18806457306E+04  0.21589476339E+04  0.10261564013E+04 0.  0.
    9000010    2    1    2  502    0  0.21892975357E+03 -0.15264116445E+03  0.14536743930E+04  0.17860779470E+04  0.10028337998E+04 0.  0.
        -13    1    4    4    0    0  0.13694325941E+03  0.40413565237E+03  0.36913743232E+03  0.56421763258E+03  0.10566000000E+00 0.  1.
          4    1    4    4  502    0  0.81986494162E+02 -0.55677681682E+03  0.10845369606E+04  0.12218603144E+04  0.00000000000E+00 0.  1.
         13    1    3    3    0    0  0.19778117157E+03 -0.15894245366E+02 -0.16344300950E+04  0.16464300062E+04  0.10566000000E+00 0. -1.
         -4    1    3    3    0  501 -0.41671092514E+03  0.16853540981E+03 -0.24621563565E+03  0.51251762773E+03  0.00000000000E+00 0. -1.
<mgrwt>
<rscale>  0 0.10489573E+04</rscale>
<asrwt>0</asrwt>
<pdfrwt beam="1">  1        4 0.27061956E+00 0.10377404E+04</pdfrwt>
<pdfrwt beam="2">  1       -4 0.33630745E+00 0.10602955E+04</pdfrwt>
<totfact> 0.54509111E-02</totfact>
</mgrwt>
</event>
