<event>
 6    2  0.2267664E-005  0.1020432E+04  0.7818608E-02  0.9872642E-01
         -4   -1    0    0    0  501 -0.00000000000E+00  0.00000000000E+00  0.16433476343E+04  0.16433476343E+04  0.00000000000E+00 0. -1.
         21   -1    0    0  501  502  0.00000000000E+00 -0.00000000000E+00 -0.20478991813E+03  0.20478991813E+03  0.00000000000E+00 0. -1.
   -9000010    2    1    2    0  502  0.13509914152E+03 -0.11165201401E+02  0.13169518097E+04  0.16660264671E+04  0.10113879968E+04 0.  0.
         13    1    3    3    0    0 -0.16656328273E+03 -0.45457776012E+03  0.62300782560E+03  0.78900128585E+03  0.10566000000E+00 0. -1.
         -4    1    3    3    0  502  0.30166242425E+03  0.44341255872E+03  0.69394398407E+03  0.87702518120E+03  0.00000000000E+00 0. -1.
        -13    1    1    2    0    0 -0.13509914152E+03  0.11165201401E+02  0.12160590651E+03  0.18211108539E+03  0.10566000000E+00 0.  1.
<mgrwt>
<rscale>  1 0.61605702E+03</rscale>
<asrwt>0</asrwt>
<pdfrwt beam="2">  1       21 0.31506142E-01 0.10204323E+04</pdfrwt>
<pdfrwt beam="1">  1       -4 0.25282270E+00 0.10204323E+04</pdfrwt>
<totfact> 0.23965615E+01</totfact>
</mgrwt>
</event>
<event>
 6    2  0.2267664E-005  0.9917537E+03  0.7818608E-02  0.9697653E-01
         21   -1    0    0  501  502  0.00000000000E+00  0.00000000000E+00  0.61820808271E+03  0.61820808271E+03  0.00000000000E+00 0.  1.
         -4   -1    0    0    0  501 -0.00000000000E+00 -0.00000000000E+00 -0.84544090981E+03  0.84544090981E+03  0.00000000000E+00 0. -1.
   -9000010    2    1    2    0  502  0.26138743971E+03 -0.27364701799E+02  0.15088430135E+03  0.10031657740E+04  0.95629664707E+03 0.  0.
         13    1    3    3    0    0  0.15973675476E+03 -0.30206533343E+03 -0.30716878929E+03  0.45946922940E+03  0.10566000000E+00 0. -1.
         -4    1    3    3    0  502  0.10165068494E+03  0.27470063163E+03  0.45805309065E+03  0.54369654461E+03  0.00000000000E+00 0. -1.
        -13    1    1    2    0    0 -0.26138743971E+03  0.27364701799E+02 -0.37811712845E+03  0.46048321851E+03  0.10566000000E+00 0.  1.
<mgrwt>
<rscale>  1 0.71156704E+03</rscale>
<asrwt>0</asrwt>
<pdfrwt beam="1">  1       21 0.95108937E-01 0.99175375E+03</pdfrwt>
<pdfrwt beam="2">  1       -4 0.13006783E+00 0.99175375E+03</pdfrwt>
<totfact> 0.14975155E+01</totfact>
</mgrwt>
</event>
<event>
 6    2  0.2267664E-005  0.1052661E+04  0.7818608E-02  0.9633621E-01
         21   -1    0    0  501  502  0.00000000000E+00  0.00000000000E+00  0.83508487827E+03  0.83508487827E+03  0.00000000000E+00 0. -1.
         -4   -1    0    0    0  501 -0.00000000000E+00 -0.00000000000E+00 -0.60801220111E+03  0.60801220111E+03  0.00000000000E+00 0. -1.
   -9000010    2    1    2    0  502  0.13299989299E+03  0.23824600162E+03  0.39313896733E+03  0.11236786192E+04  0.10166834624E+04 0.  0.
         13    1    3    3    0    0  0.20876384925E+03  0.16612052082E+03 -0.31217616142E+03  0.41064868088E+03  0.10566000000E+00 0. -1.
         -4    1    3    3    0  502 -0.75763956252E+02  0.72125480802E+02  0.70531512875E+03  0.71302993828E+03  0.00000000000E+00 0. -1.
        -13    1    1    2    0    0 -0.13299989299E+03 -0.23824600162E+03 -0.16606629017E+03  0.31941846021E+03  0.10566000000E+00 0.  1.
<mgrwt>
<rscale>  1 0.75110321E+03</rscale>
<asrwt>0</asrwt>
<pdfrwt beam="1">  1       21 0.12847460E+00 0.10526611E+04</pdfrwt>
<pdfrwt beam="2">  1       -4 0.93540339E-01 0.10526611E+04</pdfrwt>
<totfact> 0.15623775E+01</totfact>
</mgrwt>
</event>
<event>
 6    2  0.2267664E-005  0.1026142E+04  0.7818608E-02  0.9704700E-01
         21   -1    0    0  501  502  0.00000000000E+00  0.00000000000E+00  0.96130796341E+03  0.96130796341E+03  0.00000000000E+00 0. -1.
         -4   -1    0    0    0  501 -0.00000000000E+00 -0.00000000000E+00 -0.47444787628E+03  0.47444787628E+03  0.00000000000E+00 0. -1.
   -9000010    2    1    2    0  502  0.51639062463E+02  0.22590200106E+03  0.58827330954E+03  0.11828073080E+04  0.99963460035E+03 0.  0.
         13    1    3    3    0    0 -0.20232852440E+03 -0.34097368284E+03  0.15618350934E+03  0.42613751763E+03  0.10566000000E+00 0. -1.
         -4    1    3    3    0  502  0.25396758686E+03  0.56687568390E+03  0.43208980020E+03  0.75666979034E+03  0.00000000000E+00 0. -1.
        -13    1    1    2    0    0 -0.51639062463E+02 -0.22590200106E+03 -0.10141322241E+03  0.25294853172E+03  0.10566000000E+00 0.  1.
<mgrwt>
<rscale>  1 0.70737665E+03</rscale>
<asrwt>0</asrwt>
<pdfrwt beam="1">  1       21 0.14789353E+00 0.10261421E+04</pdfrwt>
<pdfrwt beam="2">  1       -4 0.72991981E-01 0.10261421E+04</pdfrwt>
<totfact> 0.18991852E+01</totfact>
</mgrwt>
</event>
<event>
 6    2  0.2267664E-005  0.1040294E+04  0.7818608E-02  0.9728455E-01
         21   -1    0    0  501  502  0.00000000000E+00  0.00000000000E+00  0.43984207071E+03  0.43984207071E+03  0.00000000000E+00 0. -1.
         -4   -1    0    0    0  501 -0.00000000000E+00 -0.00000000000E+00 -0.88214369751E+03  0.88214369751E+03  0.00000000000E+00 0. -1.
   -9000010    2    1    2    0  502  0.16247632847E+03 -0.12570450594E+03 -0.37485860306E+03  0.11057711694E+04  0.10198091619E+04 0.  0.
         13    1    3    3    0    0 -0.33746547956E+03  0.85624321348E+01 -0.47078010165E+03  0.57930145901E+03  0.10566000000E+00 0. -1.
         -4    1    3    3    0  502  0.49994180803E+03 -0.13426693807E+03  0.95921498588E+02  0.52646971040E+03  0.00000000000E+00 0. -1.
        -13    1    1    2    0    0 -0.16247632847E+03  0.12570450594E+03 -0.67443023732E+02  0.21621459881E+03  0.10566000000E+00 0.  1.
<mgrwt>
<rscale>  1 0.69347582E+03</rscale>
<asrwt>0</asrwt>
<pdfrwt beam="1">  1       21 0.67668011E-01 0.10402937E+04</pdfrwt>
<pdfrwt beam="2">  1       -4 0.13571442E+00 0.10402937E+04</pdfrwt>
<totfact> 0.29800062E+01</totfact>
</mgrwt>
</event>
<event>
 6    2  0.2267664E-005  0.1120956E+04  0.7818608E-02  0.9406399E-01
         -4   -1    0    0    0  501 -0.00000000000E+00  0.00000000000E+00  0.79763199667E+03  0.79763199667E+03  0.00000000000E+00 0. -1.
         21   -1    0    0  501  502  0.00000000000E+00 -0.00000000000E+00 -0.93441259246E+03  0.93441259246E+03  0.00000000000E+00 0.  1.
   -9000010    2    1    2    0  502  0.48477291194E+03 -0.11725937858E+03  0.18835860955E+03  0.11366707133E+04  0.10038858534E+04 0.  0.
         13    1    3    3    0    0  0.18530564036E+03 -0.52053721430E+03 -0.93947844313E+02  0.56046710915E+03  0.10566000000E+00 0. -1.
         -4    1    3    3    0  502  0.29946727158E+03  0.40327783572E+03  0.28230645386E+03  0.57620360414E+03  0.00000000000E+00 0. -1.
        -13    1    1    2    0    0 -0.48477291194E+03  0.11725937858E+03 -0.32513920535E+03  0.59537387584E+03  0.10566000000E+00 0.  1.
<mgrwt>
<rscale>  1 0.91550923E+03</rscale>
<asrwt>0</asrwt>
<pdfrwt beam="2">  1       21 0.14375578E+00 0.11209555E+04</pdfrwt>
<pdfrwt beam="1">  1       -4 0.12271262E+00 0.11209555E+04</pdfrwt>
<totfact> 0.58826632E+00</totfact>
</mgrwt>
</event>
<event>
 6    2  0.2267664E-005  0.9934129E+03  0.7818608E-02  0.1004526E+00
         -4   -1    0    0    0  501 -0.00000000000E+00  0.00000000000E+00  0.22478173523E+03  0.22478173523E+03  0.00000000000E+00 0. -1.
         21   -1    0    0  501  502  0.00000000000E+00 -0.00000000000E+00 -0.16170766599E+04  0.16170766599E+04  0.00000000000E+00 0. -1.
   -9000010    2    1    2    0  502 -0.24686101705E+02 -0.81211083841E+02 -0.14362017067E+04  0.17462944875E+04  0.98978000123E+03 0.  0.
         13    1    3    3    0    0 -0.15691569801E+01  0.56224428152E+02 -0.15593203824E+04  0.15603344881E+04  0.10566000000E+00 0. -1.
         -4    1    3    3    0  502 -0.23116944725E+02 -0.13743551199E+03  0.12311867565E+03  0.18595999942E+03  0.00000000000E+00 0. -1.
        -13    1    1    2    0    0  0.24686101705E+02  0.81211083841E+02  0.43906782113E+02  0.95563907599E+02  0.10566000000E+00 0.  1.
<mgrwt>
<rscale>  1 0.53709237E+03</rscale>
<asrwt>0</asrwt>
<pdfrwt beam="2">  1       21 0.24878103E+00 0.99341285E+03</pdfrwt>
<pdfrwt beam="1">  1       -4 0.34581805E-01 0.99341285E+03</pdfrwt>
<totfact> 0.18158407E+01</totfact>
</mgrwt>
</event>
<event>
 6    2  0.2267664E-005  0.1125693E+04  0.7818608E-02  0.9695435E-01
         21   -1    0    0  501  502  0.00000000000E+00  0.00000000000E+00  0.80934471174E+03  0.80934471174E+03  0.00000000000E+00 0. -1.
         -4   -1    0    0    0  501 -0.00000000000E+00 -0.00000000000E+00 -0.53785710670E+03  0.53785710670E+03  0.00000000000E+00 0. -1.
   -9000010    2    1    2    0  502 -0.18088003151E+03  0.81929108596E+01  0.29733761334E+03  0.11643003595E+04  0.11110359856E+04 0.  0.
         13    1    3    3    0    0  0.39577723321E+03 -0.25336321756E+03  0.12792917870E+02  0.47010233806E+03  0.10566000000E+00 0. -1.
         -4    1    3    3    0  502 -0.57665726471E+03  0.26155612842E+03  0.28454469546E+03  0.69419802144E+03  0.00000000000E+00 0. -1.
        -13    1    1    2    0    0  0.18088003151E+03 -0.81929108596E+01 -0.25850008297E+02  0.18290145893E+03  0.10566000000E+00 0.  1.
<mgrwt>
<rscale>  1 0.71289248E+03</rscale>
<asrwt>0</asrwt>
<pdfrwt beam="1">  1       21 0.12451457E+00 0.11256934E+04</pdfrwt>
<pdfrwt beam="2">  1       -4 0.82747247E-01 0.11256934E+04</pdfrwt>
<totfact> 0.22467759E+01</totfact>
</mgrwt>
</event>
<event>
 6    2  0.2267664E-005  0.1047113E+04  0.7818608E-02  0.9586665E-01
         -4   -1    0    0    0  501 -0.00000000000E+00  0.00000000000E+00  0.21871792003E+03  0.21871792003E+03  0.00000000000E+00 0. -1.
         21   -1    0    0  501  502  0.00000000000E+00 -0.00000000000E+00 -0.21878053354E+04  0.21878053354E+04  0.00000000000E+00 0. -1.
   -9000010    2    1    2    0  502 -0.29958107340E+03 -0.12721737327E+03 -0.16226852958E+04  0.19312049208E+04  0.99524459174E+03 0.  0.
         13    1    3    3    0    0 -0.14634841764E+03 -0.45911204020E+03 -0.14479541353E+04  0.15260317539E+04  0.10566000000E+00 0. -1.
         -4    1    3    3    0  502 -0.15323265576E+03  0.33189466693E+03 -0.17473116045E+03  0.40517316688E+03  0.00000000000E+00 0. -1.
        -13    1    1    2    0    0  0.29958107340E+03  0.12721737327E+03 -0.34640211958E+03  0.47531833461E+03  0.10566000000E+00 0.  1.
<mgrwt>
<rscale>  1 0.78185102E+03</rscale>
<asrwt>0</asrwt>
<pdfrwt beam="2">  1       21 0.33658543E+00 0.10471126E+04</pdfrwt>
<pdfrwt beam="1">  1       -4 0.33648911E-01 0.10471126E+04</pdfrwt>
<totfact> 0.53653446E+00</totfact>
</mgrwt>
</event>
<event>
 6    2  0.2267664E-005  0.1003728E+04  0.7818608E-02  0.1014455E+00
         -4   -1    0    0    0  501 -0.00000000000E+00  0.00000000000E+00  0.66818318116E+03  0.66818318116E+03  0.00000000000E+00 0. -1.
         21   -1    0    0  501  502  0.00000000000E+00 -0.00000000000E+00 -0.53483912995E+03  0.53483912995E+03  0.00000000000E+00 0. -1.
   -9000010    2    1    2    0  502 -0.14158136106E+01  0.60522268015E+02 -0.54954251981E+02  0.10052314832E+04  0.10019009011E+04 0.  0.
         13    1    3    3    0    0 -0.37380660479E+03  0.27669559573E+03 -0.25505530052E+03  0.53041969040E+03  0.10566000000E+00 0. -1.
         -4    1    3    3    0  502  0.37239079118E+03 -0.21617332771E+03  0.20010104854E+03  0.47481179281E+03  0.00000000000E+00 0. -1.
        -13    1    1    2    0    0  0.14158136106E+01 -0.60522268015E+02  0.18829830319E+03  0.19779082790E+03  0.10566000000E+00 0.  1.
<mgrwt>
<rscale>  1 0.49741717E+03</rscale>
<asrwt>0</asrwt>
<pdfrwt beam="2">  1       21 0.82282943E-01 0.10037282E+04</pdfrwt>
<pdfrwt beam="1">  1       -4 0.10279741E+00 0.10037282E+04</pdfrwt>
<totfact> 0.38110798E+01</totfact>
</mgrwt>
</event>
<event>
 6    2  0.2267664E-005  0.9943197E+03  0.7818608E-02  0.9963995E-01
         -4   -1    0    0    0  501 -0.00000000000E+00  0.00000000000E+00  0.76151975722E+03  0.76151975722E+03  0.00000000000E+00 0. -1.
         21   -1    0    0  501  502  0.00000000000E+00 -0.00000000000E+00 -0.40263223471E+03  0.40263223471E+03  0.00000000000E+00 0. -1.
   -9000010    2    1    2    0  502  0.55597611872E+02 -0.94141978421E+02  0.29339057075E+03  0.10367013411E+04  0.98829036070E+03 0.  0.
         13    1    3    3    0    0  0.38836307120E+03 -0.72972913812E+02  0.50541862238E+03  0.64155975266E+03  0.10566000000E+00 0. -1.
         -4    1    3    3    0  502 -0.33276545933E+03 -0.21169064609E+02 -0.21202805163E+03  0.39514158842E+03  0.00000000000E+00 0. -1.
        -13    1    1    2    0    0 -0.55597611872E+02  0.94141978421E+02  0.65496951762E+02  0.12745065085E+03  0.10566000000E+00 0.  1.
<mgrwt>
<rscale>  1 0.57257563E+03</rscale>
<asrwt>0</asrwt>
<pdfrwt beam="2">  1       21 0.61943421E-01 0.99431969E+03</pdfrwt>
<pdfrwt beam="1">  1       -4 0.11715689E+00 0.99431969E+03</pdfrwt>
<totfact> 0.53146605E+01</totfact>
</mgrwt>
</event>
<event>
 6    2  0.2267664E-005  0.1022063E+04  0.7818608E-02  0.9952262E-01
         -4   -1    0    0    0  501 -0.00000000000E+00  0.00000000000E+00  0.35781969771E+03  0.35781969771E+03  0.00000000000E+00 0. -1.
         21   -1    0    0  501  502  0.00000000000E+00 -0.00000000000E+00 -0.10849682541E+04  0.10849682541E+04  0.00000000000E+00 0. -1.
   -9000010    2    1    2    0  502  0.85996866559E+01  0.10414069551E+03 -0.81424525563E+03  0.13067545543E+04  0.10167068849E+04 0.  0.
         13    1    3    3    0    0 -0.44013319844E+03  0.24185005028E+03 -0.62222741514E+03  0.79960968385E+03  0.10566000000E+00 0. -1.
         -4    1    3    3    0  502  0.44873288509E+03 -0.13770935477E+03 -0.19201784049E+03  0.50714487045E+03  0.00000000000E+00 0. -1.
        -13    1    1    2    0    0 -0.85996866559E+01 -0.10414069551E+03  0.87096699200E+02  0.13603339755E+03  0.10566000000E+00 0.  1.
<mgrwt>
<rscale>  1 0.57793933E+03</rscale>
<asrwt>0</asrwt>
<pdfrwt beam="2">  1       21 0.16691819E+00 0.10220627E+04</pdfrwt>
<pdfrwt beam="1">  1       -4 0.55049185E-01 0.10220627E+04</pdfrwt>
<totfact> 0.25067180E+01</totfact>
</mgrwt>
</event>
<event>
 6    2  0.2267664E-005  0.9000230E+03  0.7818608E-02  0.9839832E-01
         -4   -1    0    0    0  501 -0.00000000000E+00  0.00000000000E+00  0.37388335015E+03  0.37388335015E+03  0.00000000000E+00 0. -1.
         21   -1    0    0  501  502  0.00000000000E+00 -0.00000000000E+00 -0.11826110269E+04  0.11826110269E+04  0.00000000000E+00 0. -1.
   -9000010    2    1    2    0  502  0.21941960167E+03 -0.12480179771E+02 -0.93927072170E+03  0.13008731451E+04  0.87277759732E+03 0.  0.
         13    1    3    3    0    0  0.33059312589E+03  0.66159429296E+02 -0.10640428768E+04  0.11161792597E+04  0.10566000000E+00 0. -1.
         -4    1    3    3    0  502 -0.11117352422E+03 -0.78639609068E+02  0.12477215509E+03  0.18469388535E+03  0.00000000000E+00 0. -1.
        -13    1    1    2    0    0 -0.21941960167E+03  0.12480179771E+02  0.13054304498E+03  0.25562123198E+03  0.10566000000E+00 0.  1.
<mgrwt>
<rscale>  1 0.63268047E+03</rscale>
<asrwt>0</asrwt>
<pdfrwt beam="2">  1       21 0.18194016E+00 0.90002303E+03</pdfrwt>
<pdfrwt beam="1">  1       -4 0.57520516E-01 0.90002303E+03</pdfrwt>
<totfact> 0.17935026E+01</totfact>
</mgrwt>
</event>
<event>
 6    2  0.2267664E-005  0.9503505E+03  0.7818608E-02  0.1033096E+00
         21   -1    0    0  501  502  0.00000000000E+00  0.00000000000E+00  0.29811678340E+03  0.29811678340E+03  0.00000000000E+00 0. -1.
         -4   -1    0    0    0  501 -0.00000000000E+00 -0.00000000000E+00 -0.86206173311E+03  0.86206173311E+03  0.00000000000E+00 0. -1.
   -9000010    2    1    2    0  502 -0.15110019283E+02 -0.37831662384E+02 -0.47521123035E+03  0.10625402480E+04  0.94947697067E+03 0.  0.
         13    1    3    3    0    0  0.27205663542E+03  0.34821129955E+03 -0.35444376646E+03  0.56647711053E+03  0.10566000000E+00 0. -1.
         -4    1    3    3    0  502 -0.28716665470E+03 -0.38604296193E+03 -0.12076746389E+03  0.49606313748E+03  0.00000000000E+00 0. -1.
        -13    1    1    2    0    0  0.15110019283E+02  0.37831662384E+02 -0.88733719355E+02  0.97638268502E+02  0.10566000000E+00 0.  1.
<mgrwt>
<rscale>  1 0.43242613E+03</rscale>
<asrwt>0</asrwt>
<pdfrwt beam="1">  1       21 0.45864120E-01 0.95035050E+03</pdfrwt>
<pdfrwt beam="2">  1       -4 0.13262488E+00 0.95035050E+03</pdfrwt>
<totfact> 0.75021425E+01</totfact>
</mgrwt>
</event>
<event>
 6    2  0.2267664E-005  0.7298007E+03  0.7818608E-02  0.1008124E+00
         21   -1    0    0  501  502  0.00000000000E+00  0.00000000000E+00  0.31088847961E+03  0.31088847961E+03  0.00000000000E+00 0. -1.
         -4   -1    0    0    0  501 -0.00000000000E+00 -0.00000000000E+00 -0.68416987551E+03  0.68416987551E+03  0.00000000000E+00 0. -1.
   -9000010    2    1    2    0  502 -0.93113587955E+02  0.16723943182E+03 -0.27505693263E+03  0.77991369642E+03  0.70425129738E+03 0.  0.
         13    1    3    3    0    0  0.12961383620E+03 -0.18785228781E+03 -0.27935093503E+03  0.36072868563E+03  0.10566000000E+00 0. -1.
         -4    1    3    3    0  502 -0.22272742416E+03  0.35509171962E+03  0.42940024030E+01  0.41918501079E+03  0.00000000000E+00 0. -1.
        -13    1    1    2    0    0  0.93113587955E+02 -0.16723943182E+03 -0.98224463271E+02  0.21514465870E+03  0.10566000000E+00 0.  1.
<mgrwt>
<rscale>  1 0.52227161E+03</rscale>
<asrwt>0</asrwt>
<pdfrwt beam="1">  1       21 0.47828997E-01 0.72980070E+03</pdfrwt>
<pdfrwt beam="2">  1       -4 0.10525690E+00 0.72980070E+03</pdfrwt>
<totfact> 0.12431769E+02</totfact>
</mgrwt>
</event>
<event>
 6    2  0.2267664E-005  0.1033871E+04  0.7818608E-02  0.9831784E-01
         21   -1    0    0  501  502  0.00000000000E+00  0.00000000000E+00  0.11343182244E+04  0.11343182244E+04  0.00000000000E+00 0.  1.
         -4   -1    0    0    0  501 -0.00000000000E+00 -0.00000000000E+00 -0.32909172156E+03  0.32909172156E+03  0.00000000000E+00 0. -1.
   -9000010    2    1    2    0  502  0.13231981500E+03  0.68161824149E+02  0.55801872470E+03  0.11748510015E+04  0.10231008801E+04 0.  0.
         13    1    3    3    0    0 -0.42400871445E+03 -0.48459724589E+02  0.39989058106E+03  0.58484546918E+03  0.10566000000E+00 0. -1.
         -4    1    3    3    0  502  0.55632852945E+03  0.11662154874E+03  0.15812814364E+03  0.59000553228E+03  0.00000000000E+00 0. -1.
        -13    1    1    2    0    0 -0.13231981500E+03 -0.68161824149E+02  0.24720777817E+03  0.28855894452E+03  0.10566000000E+00 0.  1.
<mgrwt>
<rscale>  1 0.63684372E+03</rscale>
<asrwt>0</asrwt>
<pdfrwt beam="1">  1       21 0.17451049E+00 0.10338714E+04</pdfrwt>
<pdfrwt beam="2">  1       -4 0.50629496E-01 0.10338714E+04</pdfrwt>
<totfact> 0.26260443E+01</totfact>
</mgrwt>
</event>
<event>
 6    2  0.2267664E-005  0.1245791E+04  0.7818608E-02  0.9211942E-01
         -4   -1    0    0    0  501 -0.00000000000E+00  0.00000000000E+00  0.13069591665E+04  0.13069591665E+04  0.00000000000E+00 0. -1.
         21   -1    0    0  501  502  0.00000000000E+00 -0.00000000000E+00 -0.78063076804E+03  0.78063076804E+03  0.00000000000E+00 0. -1.
   -9000010    2    1    2    0  502  0.72591095063E+03  0.13536898758E+03  0.51780168418E+03  0.13491157055E+04  0.10033559346E+04 0.  0.
         13    1    3    3    0    0  0.17279785445E+03  0.43728612761E+03 -0.84150267799E+02  0.47766048051E+03  0.10566000000E+00 0. -1.
         -4    1    3    3    0  502  0.55311309617E+03 -0.30191714003E+03  0.60195195198E+03  0.87145522495E+03  0.00000000000E+00 0. -1.
        -13    1    1    2    0    0 -0.72591095063E+03 -0.13536898758E+03  0.85267143052E+01  0.73847422911E+03  0.10566000000E+00 0.  1.
<mgrwt>
<rscale>  1 0.10931015E+04</rscale>
<asrwt>0</asrwt>
<pdfrwt beam="2">  1       21 0.12009704E+00 0.12457908E+04</pdfrwt>
<pdfrwt beam="1">  1       -4 0.20107064E+00 0.12457908E+04</pdfrwt>
<totfact> 0.23992081E+00</totfact>
</mgrwt>
</event>
<event>
 6    2  0.2267664E-005  0.1000063E+04  0.7818608E-02  0.9909358E-01
         21   -1    0    0  501  502  0.00000000000E+00  0.00000000000E+00  0.32527450025E+03  0.32527450025E+03  0.00000000000E+00 0. -1.
         -4   -1    0    0    0  501 -0.00000000000E+00 -0.00000000000E+00 -0.10313664785E+04  0.10313664785E+04  0.00000000000E+00 0. -1.
   -9000010    2    1    2    0  502 -0.90773665285E+02 -0.90161247617E+02 -0.51024892199E+03  0.11227105987E+04  0.99184485534E+03 0.  0.
         13    1    3    3    0    0 -0.62814260156E+02  0.80897697618E+02  0.28809925891E+03  0.30576341002E+03  0.10566000000E+00 0. -1.
         -4    1    3    3    0  502 -0.27959405128E+02 -0.17105894523E+03 -0.79834818090E+03  0.81694718864E+03  0.00000000000E+00 0. -1.
        -13    1    1    2    0    0  0.90773665285E+02  0.90161247617E+02 -0.19584305624E+03  0.23393038008E+03  0.10566000000E+00 0.  1.
<mgrwt>
<rscale>  1 0.59809873E+03</rscale>
<asrwt>0</asrwt>
<pdfrwt beam="1">  1       21 0.50042231E-01 0.10000626E+04</pdfrwt>
<pdfrwt beam="2">  1       -4 0.15867177E+00 0.10000626E+04</pdfrwt>
<totfact> 0.38475460E+01</totfact>
</mgrwt>
</event>
<event>
 6    2  0.2267664E-005  0.1015674E+04  0.7818608E-02  0.9804358E-01
         21   -1    0    0  501  502  0.00000000000E+00  0.00000000000E+00  0.23633045489E+04  0.23633045489E+04  0.00000000000E+00 0. -1.
         -4   -1    0    0    0  501 -0.00000000000E+00 -0.00000000000E+00 -0.17532007593E+03  0.17532007593E+03  0.00000000000E+00 0. -1.
   -9000010    2    1    2    0  502 -0.13795004939E+03 -0.10227485704E+03  0.21258173487E+04  0.23559907698E+04  0.10010508201E+04 0.  0.
         13    1    3    3    0    0 -0.17589039983E+03  0.95966809435E+02 -0.19395103992E+02  0.20130385611E+03  0.10566000000E+00 0. -1.
         -4    1    3    3    0  502  0.37940350431E+02 -0.19824166647E+03  0.21452124527E+04  0.21546869136E+04  0.00000000000E+00 0. -1.
        -13    1    1    2    0    0  0.13795004939E+03  0.10227485704E+03  0.62167124200E+02  0.18263385504E+03  0.10566000000E+00 0.  1.
<mgrwt>
<rscale>  1 0.65129193E+03</rscale>
<asrwt>0</asrwt>
<pdfrwt beam="1">  1       21 0.36358529E+00 0.10156737E+04</pdfrwt>
<pdfrwt beam="2">  1       -4 0.26972321E-01 0.10156737E+04</pdfrwt>
<totfact> 0.56189820E+00</totfact>
</mgrwt>
</event>
<event>
 6    2  0.2267664E-005  0.1010603E+04  0.7818608E-02  0.9892412E-01
         -4   -1    0    0    0  501 -0.00000000000E+00  0.00000000000E+00  0.11109935871E+04  0.11109935871E+04  0.00000000000E+00 0. -1.
         21   -1    0    0  501  502  0.00000000000E+00 -0.00000000000E+00 -0.30774539717E+03  0.30774539717E+03  0.00000000000E+00 0. -1.
   -9000010    2    1    2    0  502 -0.10578845524E+03  0.77136415900E+02  0.79804922259E+03  0.12877112607E+04  0.10020860768E+04 0.  0.
         13    1    3    3    0    0  0.39888537223E+03  0.25185821531E+03  0.43706756611E+03  0.64309421496E+03  0.10566000000E+00 0. -1.
         -4    1    3    3    0  502 -0.50467382747E+03 -0.17472179941E+03  0.36098165648E+03  0.64461704573E+03  0.00000000000E+00 0. -1.
        -13    1    1    2    0    0  0.10578845524E+03 -0.77136415900E+02  0.51989673310E+01  0.13102772357E+03  0.10566000000E+00 0.  1.
<mgrwt>
<rscale>  1 0.60630430E+03</rscale>
<asrwt>0</asrwt>
<pdfrwt beam="2">  1       21 0.47345446E-01 0.10106027E+04</pdfrwt>
<pdfrwt beam="1">  1       -4 0.17092209E+00 0.10106027E+04</pdfrwt>
<totfact> 0.35213041E+01</totfact>
</mgrwt>
</event>
<event>
 6    2  0.2267664E-005  0.1031482E+04  0.7818608E-02  0.9960304E-01
         -4   -1    0    0    0  501 -0.00000000000E+00  0.00000000000E+00  0.11238399028E+04  0.11238399028E+04  0.00000000000E+00 0. -1.
         21   -1    0    0  501  502  0.00000000000E+00 -0.00000000000E+00 -0.35962915362E+03  0.35962915362E+03  0.00000000000E+00 0. -1.
   -9000010    2    1    2    0  502  0.19035614097E+02 -0.97246371983E+02  0.40050700391E+03  0.11065080015E+04  0.10267107118E+04 0.  0.
         13    1    3    3    0    0 -0.20751900296E+03  0.41000059060E+03  0.27978721769E+03  0.53800141192E+03  0.10566000000E+00 0. -1.
         -4    1    3    3    0  502  0.22655461706E+03 -0.50724696258E+03  0.12071978622E+03  0.56850658953E+03  0.00000000000E+00 0. -1.
        -13    1    1    2    0    0 -0.19035614097E+02  0.97246371983E+02  0.36370374533E+03  0.37696105501E+03  0.10566000000E+00 0.  1.
<mgrwt>
<rscale>  1 0.57425624E+03</rscale>
<asrwt>0</asrwt>
<pdfrwt beam="2">  1       21 0.55327563E-01 0.10314815E+04</pdfrwt>
<pdfrwt beam="1">  1       -4 0.17289844E+00 0.10314815E+04</pdfrwt>
<totfact> 0.24257772E+01</totfact>
</mgrwt>
</event>
<event>
 6    2  0.2267664E-005  0.9748622E+03  0.7818608E-02  0.9618502E-01
         -4   -1    0    0    0  501 -0.00000000000E+00  0.00000000000E+00  0.15952540889E+04  0.15952540889E+04  0.00000000000E+00 0. -1.
         21   -1    0    0  501  502  0.00000000000E+00 -0.00000000000E+00 -0.36370243549E+03  0.36370243549E+03  0.00000000000E+00 0. -1.
   -9000010    2    1    2    0  502 -0.16441508447E+03  0.32215878502E+03  0.40295497317E+03  0.10548596975E+04  0.90528319779E+03 0.  0.
         13    1    3    3    0    0 -0.51607721276E+03  0.30976811884E+03  0.35746195909E+03  0.70005074126E+03  0.10566000000E+00 0. -1.
         -4    1    3    3    0  502  0.35166212829E+03  0.12390666172E+02  0.45493014085E+02  0.35480895622E+03  0.00000000000E+00 0. -1.
        -13    1    1    2    0    0  0.16441508447E+03 -0.32215878502E+03  0.82859668021E+03  0.90409682689E+03  0.10566000000E+00 0.  1.
<mgrwt>
<rscale>  1 0.76083610E+03</rscale>
<asrwt>0</asrwt>
<pdfrwt beam="2">  1       21 0.55954222E-01 0.97486218E+03</pdfrwt>
<pdfrwt beam="1">  1       -4 0.24542370E+00 0.97486218E+03</pdfrwt>
<totfact> 0.79694418E+00</totfact>
</mgrwt>
</event>
<event>
 6    2  0.2267664E-005  0.9889494E+03  0.7818608E-02  0.9932798E-01
         21   -1    0    0  501  502  0.00000000000E+00  0.00000000000E+00  0.37325919237E+03  0.37325919237E+03  0.00000000000E+00 0. -1.
         -4   -1    0    0    0  501 -0.00000000000E+00 -0.00000000000E+00 -0.84714866210E+03  0.84714866210E+03  0.00000000000E+00 0. -1.
   -9000010    2    1    2    0  502  0.10494995337E+02 -0.12228408031E+03 -0.35842527440E+03  0.10518981135E+04  0.98130394001E+03 0.  0.
         13    1    3    3    0    0 -0.21505576510E+03  0.78594062671E+02 -0.61459313953E+03  0.65585878595E+03  0.10566000000E+00 0. -1.
         -4    1    3    3    0  502  0.22555076043E+03 -0.20087814298E+03  0.25616786513E+03  0.39603932757E+03  0.00000000000E+00 0. -1.
        -13    1    1    2    0    0 -0.10494995337E+02  0.12228408031E+03 -0.11546419533E+03  0.16850974094E+03  0.10566000000E+00 0.  1.
<mgrwt>
<rscale>  1 0.58697754E+03</rscale>
<asrwt>0</asrwt>
<pdfrwt beam="1">  1       21 0.57424492E-01 0.98894942E+03</pdfrwt>
<pdfrwt beam="2">  1       -4 0.13033056E+00 0.98894942E+03</pdfrwt>
<totfact> 0.48029067E+01</totfact>
</mgrwt>
</event>
<event>
 6    2  0.2267664E-005  0.1051175E+04  0.7818608E-02  0.9659881E-01
         -4   -1    0    0    0  501 -0.00000000000E+00  0.00000000000E+00  0.14004884855E+04  0.14004884855E+04  0.00000000000E+00 0. -1.
         21   -1    0    0  501  502  0.00000000000E+00 -0.00000000000E+00 -0.32467410108E+03  0.32467410108E+03  0.00000000000E+00 0. -1.
   -9000010    2    1    2    0  502  0.16732372721E+03 -0.18664524032E+03  0.66484491349E+03  0.12437795867E+04  0.10208502465E+04 0.  0.
         13    1    3    3    0    0  0.16378820493E+03 -0.31288964683E+03  0.90553513059E+03  0.97196727880E+03  0.10566000000E+00 0. -1.
         -4    1    3    3    0  502  0.35355222810E+01  0.12624440651E+03 -0.24069021710E+03  0.27181230785E+03  0.00000000000E+00 0. -1.
        -13    1    1    2    0    0 -0.16732372721E+03  0.18664524032E+03  0.41096947097E+03  0.48138299996E+03  0.10566000000E+00 0.  1.
<mgrwt>
<rscale>  1 0.73456518E+03</rscale>
<asrwt>0</asrwt>
<pdfrwt beam="2">  1       21 0.49949862E-01 0.10511750E+04</pdfrwt>
<pdfrwt beam="1">  1       -4 0.21545976E+00 0.10511750E+04</pdfrwt>
<totfact> 0.15630055E+01</totfact>
</mgrwt>
</event>
<event>
 6    2  0.2267664E-005  0.1082492E+04  0.7818608E-02  0.9632094E-01
         -4   -1    0    0    0  501 -0.00000000000E+00  0.00000000000E+00  0.73197841016E+03  0.73197841016E+03  0.00000000000E+00 0. -1.
         21   -1    0    0  501  502  0.00000000000E+00 -0.00000000000E+00 -0.64124029019E+03  0.64124029019E+03  0.00000000000E+00 0. -1.
   -9000010    2    1    2    0  502 -0.23360874897E+03  0.95091095636E+02  0.19568235655E+03  0.11000362192E+04  0.10526978364E+04 0.  0.
         13    1    3    3    0    0 -0.10000188422E+03 -0.87085803372E+02 -0.42199525348E+03  0.44233959705E+03  0.10566000000E+00 0. -1.
         -4    1    3    3    0  502 -0.13360686475E+03  0.18217689901E+03  0.61767761002E+03  0.65769662213E+03  0.00000000000E+00 0. -1.
        -13    1    1    2    0    0  0.23360874897E+03 -0.95091095636E+02 -0.10494423657E+03  0.27318248117E+03  0.10566000000E+00 0.  1.
<mgrwt>
<rscale>  1 0.75207945E+03</rscale>
<asrwt>0</asrwt>
<pdfrwt beam="2">  1       21 0.98652352E-01 0.10824916E+04</pdfrwt>
<pdfrwt beam="1">  1       -4 0.11261206E+00 0.10824916E+04</pdfrwt>
<totfact> 0.19512869E+01</totfact>
</mgrwt>
</event>
<event>
 6    2  0.2267664E-005  0.1048422E+04  0.7818608E-02  0.9562020E-01
         -4   -1    0    0    0  501 -0.00000000000E+00  0.00000000000E+00  0.10314744485E+04  0.10314744485E+04  0.00000000000E+00 0. -1.
         21   -1    0    0  501  502  0.00000000000E+00 -0.00000000000E+00 -0.64721321902E+03  0.64721321902E+03  0.00000000000E+00 0. -1.
   -9000010    2    1    2    0  502 -0.22685100067E+03  0.27042913892E+03 -0.12840575550E+03  0.10562563505E+04  0.98721636146E+03 0.  0.
         13    1    3    3    0    0  0.36078265428E+03  0.72168058008E+02  0.12171608144E+03  0.38753989198E+03  0.10566000000E+00 0. -1.
         -4    1    3    3    0  502 -0.58763365496E+03  0.19826108091E+03 -0.25012183694E+03  0.66871645857E+03  0.00000000000E+00 0. -1.
        -13    1    1    2    0    0  0.22685100067E+03 -0.27042913892E+03  0.51266698499E+03  0.62243131697E+03  0.10566000000E+00 0.  1.
<mgrwt>
<rscale>  1 0.79861791E+03</rscale>
<asrwt>0</asrwt>
<pdfrwt beam="2">  1       21 0.99571264E-01 0.10484224E+04</pdfrwt>
<pdfrwt beam="1">  1       -4 0.15868838E+00 0.10484224E+04</pdfrwt>
<totfact> 0.78459642E+00</totfact>
</mgrwt>
</event>
<event>
 6    2  0.2267664E-005  0.9989495E+03  0.7818608E-02  0.1010829E+00
         -4   -1    0    0    0  501 -0.00000000000E+00  0.00000000000E+00  0.81857352080E+03  0.81857352080E+03  0.00000000000E+00 0. -1.
         21   -1    0    0  501  502  0.00000000000E+00 -0.00000000000E+00 -0.44842076463E+03  0.44842076463E+03  0.00000000000E+00 0. -1.
   -9000010    2    1    2    0  502 -0.27363787870E+02  0.62958144059E+02  0.11827225569E+03  0.10059266649E+04  0.99658799107E+03 0.  0.
         13    1    3    3    0    0  0.14624861193E+03  0.22094446255E+03  0.49534578732E+03  0.56175846429E+03  0.10566000000E+00 0. -1.
         -4    1    3    3    0  502 -0.17361239980E+03 -0.15798631850E+03 -0.37707353163E+03  0.44416820063E+03  0.00000000000E+00 0. -1.
        -13    1    1    2    0    0  0.27363787870E+02 -0.62958144059E+02  0.25188050049E+03  0.26106762051E+03  0.10566000000E+00 0.  1.
<mgrwt>
<rscale>  1 0.51146304E+03</rscale>
<asrwt>0</asrwt>
<pdfrwt beam="2">  1       21 0.68987810E-01 0.99894951E+03</pdfrwt>
<pdfrwt beam="1">  1       -4 0.12593439E+00 0.99894951E+03</pdfrwt>
<totfact> 0.34687315E+01</totfact>
</mgrwt>
</event>
<event>
 6    2  0.2267664E-005  0.1048653E+04  0.7818608E-02  0.9610986E-01
         -4   -1    0    0    0  501 -0.00000000000E+00  0.00000000000E+00  0.25209456593E+03  0.25209456593E+03  0.00000000000E+00 0. -1.
         21   -1    0    0  501  502  0.00000000000E+00 -0.00000000000E+00 -0.18601233999E+04  0.18601233999E+04  0.00000000000E+00 0. -1.
   -9000010    2    1    2    0  502  0.28269535551E+03 -0.94701330942E+02 -0.13977239370E+04  0.17473711939E+04  0.10053799676E+04 0.  0.
         13    1    3    3    0    0  0.38295419943E+03 -0.69244112405E+01 -0.42224021718E+02  0.38533718417E+03  0.10566000000E+00 0. -1.
         -4    1    3    3    0  502 -0.10025884392E+03 -0.87776919702E+02 -0.13554999153E+04  0.13620340097E+04  0.00000000000E+00 0. -1.
        -13    1    1    2    0    0 -0.28269535551E+03  0.94701330942E+02 -0.21030489697E+03  0.36484677190E+03  0.10566000000E+00 0.  1.
<mgrwt>
<rscale>  1 0.76573331E+03</rscale>
<asrwt>0</asrwt>
<pdfrwt beam="2">  1       21 0.28617284E+00 0.10486534E+04</pdfrwt>
<pdfrwt beam="1">  1       -4 0.38783778E-01 0.10486534E+04</pdfrwt>
<totfact> 0.83209498E+00</totfact>
</mgrwt>
</event>
<event>
 6    2  0.2267664E-005  0.1047974E+04  0.7818608E-02  0.9591240E-01
         21   -1    0    0  501  502  0.00000000000E+00  0.00000000000E+00  0.57865738557E+03  0.57865738557E+03  0.00000000000E+00 0.  1.
         -4   -1    0    0    0  501 -0.00000000000E+00 -0.00000000000E+00 -0.80812408342E+03  0.80812408342E+03  0.00000000000E+00 0. -1.
   -9000010    2    1    2    0  502 -0.15205099793E+02  0.31924986078E+03 -0.16951746452E+03  0.10615959982E+04  0.99804720527E+03 0.  0.
         13    1    3    3    0    0 -0.30787759230E+02  0.24773561347E+03  0.40862018260E+03  0.47884369589E+03  0.10566000000E+00 0. -1.
         -4    1    3    3    0  502  0.15582659437E+02  0.71514247305E+02 -0.57813764711E+03  0.58275230231E+03  0.00000000000E+00 0. -1.
        -13    1    1    2    0    0  0.15205099793E+02 -0.31924986078E+03 -0.59949233332E+02  0.32518547078E+03  0.10566000000E+00 0.  1.
<mgrwt>
<rscale>  1 0.77878688E+03</rscale>
<asrwt>0</asrwt>
<pdfrwt beam="1">  1       21 0.89024213E-01 0.10479742E+04</pdfrwt>
<pdfrwt beam="2">  1       -4 0.12432678E+00 0.10479742E+04</pdfrwt>
<totfact> 0.19622093E+01</totfact>
</mgrwt>
</event>
<event>
 6    2  0.2267664E-005  0.1036526E+04  0.7818608E-02  0.9719008E-01
         21   -1    0    0  501  502  0.00000000000E+00  0.00000000000E+00  0.14267079046E+04  0.14267079046E+04  0.00000000000E+00 0. -1.
         -4   -1    0    0    0  501 -0.00000000000E+00 -0.00000000000E+00 -0.27727488211E+03  0.27727488211E+03  0.00000000000E+00 0. -1.
   -9000010    2    1    2    0  502 -0.13929615525E+03 -0.16288675035E+03  0.10165061194E+04  0.14517823009E+04  0.10141260505E+04 0.  0.
         13    1    3    3    0    0  0.11782145022E+03  0.35173708238E+03  0.12627651766E+03  0.39185027668E+03  0.10566000000E+00 0. -1.
         -4    1    3    3    0  502 -0.25711760547E+03 -0.51462383274E+03  0.89022960171E+03  0.10599320242E+04  0.00000000000E+00 0. -1.
        -13    1    1    2    0    0  0.13929615525E+03  0.16288675035E+03  0.13292690316E+03  0.25220048584E+03  0.10566000000E+00 0.  1.
<mgrwt>
<rscale>  1 0.69896252E+03</rscale>
<asrwt>0</asrwt>
<pdfrwt beam="1">  1       21 0.21949352E+00 0.10365265E+04</pdfrwt>
<pdfrwt beam="2">  1       -4 0.42657675E-01 0.10365265E+04</pdfrwt>
<totfact> 0.18258429E+01</totfact>
</mgrwt>
</event>
<event>
 6    2  0.2267664E-005  0.1005968E+04  0.7818608E-02  0.1033521E+00
         21   -1    0    0  501  502  0.00000000000E+00  0.00000000000E+00  0.12541802303E+04  0.12541802303E+04  0.00000000000E+00 0. -1.
         -4   -1    0    0    0  501 -0.00000000000E+00 -0.00000000000E+00 -0.32588336413E+03  0.32588336413E+03  0.00000000000E+00 0. -1.
   -9000010    2    1    2    0  502 -0.24127671389E+02  0.23840964785E+02  0.10497624082E+04  0.14539508465E+04  0.10053961479E+04 0.  0.
         13    1    3    3    0    0 -0.42158959997E+02  0.49906654596E+03  0.71255349801E+03  0.87096342857E+03  0.10566000000E+00 0. -1.
         -4    1    3    3    0  502  0.18031288608E+02 -0.47522558118E+03  0.33720891021E+03  0.58298741796E+03  0.00000000000E+00 0. -1.
        -13    1    1    2    0    0  0.24127671389E+02 -0.23840964785E+02 -0.12146554202E+03  0.12611274794E+03  0.10566000000E+00 0.  1.
<mgrwt>
<rscale>  1 0.43107341E+03</rscale>
<asrwt>0</asrwt>
<pdfrwt beam="1">  1       21 0.19295080E+00 0.10059682E+04</pdfrwt>
<pdfrwt beam="2">  1       -4 0.50135903E-01 0.10059682E+04</pdfrwt>
<totfact> 0.19826210E+01</totfact>
</mgrwt>
</event>
<event>
 6    2  0.2267664E-005  0.1002283E+04  0.7818608E-02  0.9726754E-01
         -4   -1    0    0    0  501 -0.00000000000E+00  0.00000000000E+00  0.15788919444E+04  0.15788919444E+04  0.00000000000E+00 0. -1.
         21   -1    0    0  501  502  0.00000000000E+00 -0.00000000000E+00 -0.31410715066E+03  0.31410715066E+03  0.00000000000E+00 0. -1.
   -9000010    2    1    2    0  502 -0.19531859912E+03  0.12334075599E+03  0.55310771851E+03  0.11447701409E+04  0.97529904644E+03 0.  0.
         13    1    3    3    0    0 -0.34305420605E+03  0.49474049963E+03  0.31401428788E+03  0.67901350091E+03  0.10566000000E+00 0. -1.
         -4    1    3    3    0  502  0.14773560693E+03 -0.37139974364E+03  0.23909343062E+03  0.46575663999E+03  0.00000000000E+00 0. -1.
        -13    1    1    2    0    0  0.19531859912E+03 -0.12334075599E+03  0.71167707521E+03  0.74822895412E+03  0.10566000000E+00 0.  1.
<mgrwt>
<rscale>  1 0.69445960E+03</rscale>
<asrwt>0</asrwt>
<pdfrwt beam="2">  1       21 0.48324178E-01 0.10022827E+04</pdfrwt>
<pdfrwt beam="1">  1       -4 0.24290645E+00 0.10022827E+04</pdfrwt>
<totfact> 0.11325556E+01</totfact>
</mgrwt>
</event>
<event>
 6    2  0.2267664E-005  0.1024737E+04  0.7818608E-02  0.9706913E-01
         21   -1    0    0  501  502  0.00000000000E+00  0.00000000000E+00  0.67574644145E+03  0.67574644145E+03  0.00000000000E+00 0. -1.
         -4   -1    0    0    0  501 -0.00000000000E+00 -0.00000000000E+00 -0.58335492380E+03  0.58335492380E+03  0.00000000000E+00 0. -1.
   -9000010    2    1    2    0  502  0.51103329721E+02  0.22524101279E+03  0.76768408090E+02  0.10276080460E+04  0.99836859102E+03 0.  0.
         13    1    3    3    0    0 -0.23220623132E+03  0.14909417070E+03 -0.38912825030E+03  0.47704256828E+03  0.10566000000E+00 0. -1.
         -4    1    3    3    0  502  0.28330956104E+03  0.76146842088E+02  0.46589665839E+03  0.55056547770E+03  0.00000000000E+00 0. -1.
        -13    1    1    2    0    0 -0.51103329721E+02 -0.22524101279E+03  0.15623109561E+02  0.23149331927E+03  0.10566000000E+00 0.  1.
<mgrwt>
<rscale>  1 0.70606705E+03</rscale>
<asrwt>0</asrwt>
<pdfrwt beam="1">  1       21 0.10396099E+00 0.10247365E+04</pdfrwt>
<pdfrwt beam="2">  1       -4 0.89746911E-01 0.10247365E+04</pdfrwt>
<totfact> 0.29785318E+01</totfact>
</mgrwt>
</event>
<event>
 6    2  0.2267664E-005  0.1011188E+04  0.7818608E-02  0.9810762E-01
         -4   -1    0    0    0  501 -0.00000000000E+00  0.00000000000E+00  0.67601963606E+03  0.67601963606E+03  0.00000000000E+00 0. -1.
         21   -1    0    0  501  502  0.00000000000E+00 -0.00000000000E+00 -0.52035055100E+03  0.52035055100E+03  0.00000000000E+00 0. -1.
   -9000010    2    1    2    0  502  0.90853548452E+02  0.14416682458E+03  0.95647636370E+02  0.10157019108E+04  0.99672637204E+03 0.  0.
         13    1    3    3    0    0 -0.15271224117E+03  0.36399908027E+03 -0.30428594103E+03  0.49840375612E+03  0.10566000000E+00 0. -1.
         -4    1    3    3    0  502  0.24356578962E+03 -0.21983225570E+03  0.39993357740E+03  0.51729815469E+03  0.00000000000E+00 0. -1.
        -13    1    1    2    0    0 -0.90853548452E+02 -0.14416682458E+03  0.60021448697E+02  0.18066827625E+03  0.10566000000E+00 0.  1.
<mgrwt>
<rscale>  1 0.64788172E+03</rscale>
<asrwt>0</asrwt>
<pdfrwt beam="2">  1       21 0.80053930E-01 0.10111884E+04</pdfrwt>
<pdfrwt beam="1">  1       -4 0.10400302E+00 0.10111884E+04</pdfrwt>
<totfact> 0.39499160E+01</totfact>
</mgrwt>
</event>
<event>
 6    2  0.2267664E-005  0.1003774E+04  0.7818608E-02  0.9893789E-01
         -4   -1    0    0    0  501 -0.00000000000E+00  0.00000000000E+00  0.97161698137E+03  0.97161698137E+03  0.00000000000E+00 0. -1.
         21   -1    0    0  501  502  0.00000000000E+00 -0.00000000000E+00 -0.34836554872E+03  0.34836554872E+03  0.00000000000E+00 0. -1.
   -9000010    2    1    2    0  502 -0.19431420558E+02  0.13159647059E+03  0.44607870978E+03  0.10984302878E+04  0.99492093687E+03 0.  0.
         13    1    3    3    0    0  0.24337458451E+03  0.48543312244E+03  0.35380841050E+03  0.64811797325E+03  0.10566000000E+00 0. -1.
         -4    1    3    3    0  502 -0.26280600507E+03 -0.35383665185E+03  0.92270299275E+02  0.45031231453E+03  0.00000000000E+00 0. -1.
        -13    1    1    2    0    0  0.19431420558E+02 -0.13159647059E+03  0.17717272287E+03  0.22155224231E+03  0.10566000000E+00 0.  1.
<mgrwt>
<rscale>  1 0.60563235E+03</rscale>
<asrwt>0</asrwt>
<pdfrwt beam="2">  1       21 0.53594700E-01 0.10037743E+04</pdfrwt>
<pdfrwt beam="1">  1       -4 0.14947953E+00 0.10037743E+04</pdfrwt>
<totfact> 0.38955059E+01</totfact>
</mgrwt>
</event>
<event>
 6    2  0.2267664E-005  0.1031339E+04  0.7818608E-02  0.9648649E-01
         21   -1    0    0  501  502  0.00000000000E+00  0.00000000000E+00  0.10318041117E+04  0.10318041117E+04  0.00000000000E+00 0. -1.
         -4   -1    0    0    0  501 -0.00000000000E+00 -0.00000000000E+00 -0.41467150218E+03  0.41467150218E+03  0.00000000000E+00 0. -1.
   -9000010    2    1    2    0  502  0.23914574374E+03  0.13718183233E+03  0.46153723586E+03  0.11299010202E+04  0.99380589332E+03 0.  0.
         13    1    3    3    0    0  0.66610793048E+02  0.22816853679E+03 -0.27760082524E+03  0.36545876411E+03  0.10566000000E+00 0. -1.
         -4    1    3    3    0  502  0.17253495070E+03 -0.90986704455E+02  0.73913806110E+03  0.76444225613E+03  0.00000000000E+00 0. -1.
        -13    1    1    2    0    0 -0.23914574374E+03 -0.13718183233E+03  0.15559537369E+03  0.31657459366E+03  0.10566000000E+00 0.  1.
<mgrwt>
<rscale>  1 0.74158270E+03</rscale>
<asrwt>0</asrwt>
<pdfrwt beam="1">  1       21 0.15873909E+00 0.10313388E+04</pdfrwt>
<pdfrwt beam="2">  1       -4 0.63795616E-01 0.10313388E+04</pdfrwt>
<totfact> 0.21005456E+01</totfact>
</mgrwt>
</event>
<event>
 6    2  0.2267664E-005  0.1038315E+04  0.7818608E-02  0.9572895E-01
         -4   -1    0    0    0  501 -0.00000000000E+00  0.00000000000E+00  0.11317973714E+04  0.11317973714E+04  0.00000000000E+00 0. -1.
         21   -1    0    0  501  502  0.00000000000E+00 -0.00000000000E+00 -0.49575625609E+03  0.49575625609E+03  0.00000000000E+00 0. -1.
   -9000010    2    1    2    0  502  0.33312199365E+03 -0.10740756694E+03  0.18180687860E+03  0.10541119120E+04  0.97754362249E+03 0.  0.
         13    1    3    3    0    0  0.62206483284E+03  0.16140392971E+03  0.13508906385E+03  0.65670766032E+03  0.10566000000E+00 0. -1.
         -4    1    3    3    0  502 -0.28894283919E+03 -0.26881149665E+03  0.46717814757E+02  0.39740425170E+03  0.00000000000E+00 0. -1.
        -13    1    1    2    0    0 -0.33312199365E+03  0.10740756694E+03  0.45423423672E+03  0.57344171549E+03  0.10566000000E+00 0.  1.
<mgrwt>
<rscale>  1 0.79116457E+03</rscale>
<asrwt>0</asrwt>
<pdfrwt beam="2">  1       21 0.76270194E-01 0.10383151E+04</pdfrwt>
<pdfrwt beam="1">  1       -4 0.17412267E+00 0.10383151E+04</pdfrwt>
<totfact> 0.11490282E+01</totfact>
</mgrwt>
</event>
<event>
 6    2  0.2267664E-005  0.1010174E+04  0.7818608E-02  0.9949742E-01
         -4   -1    0    0    0  501 -0.00000000000E+00  0.00000000000E+00  0.19135164304E+04  0.19135164304E+04  0.00000000000E+00 0. -1.
         21   -1    0    0  501  502  0.00000000000E+00 -0.00000000000E+00 -0.17832641006E+03  0.17832641006E+03  0.00000000000E+00 0. -1.
   -9000010    2    1    2    0  502  0.92966212738E+02 -0.57097115319E+02  0.13178371789E+04  0.16604657401E+04  0.10042653268E+04 0.  0.
         13    1    3    3    0    0 -0.12881064249E+03 -0.45730168089E+03  0.98841494249E+03  0.10966681899E+04  0.10566000000E+00 0. -1.
         -4    1    3    3    0  502  0.22177685523E+03  0.40020456557E+03  0.32942223643E+03  0.56379755025E+03  0.00000000000E+00 0. -1.
        -13    1    1    2    0    0 -0.92966212738E+02  0.57097115319E+02  0.41735284146E+03  0.43137710038E+03  0.10566000000E+00 0.  1.
<mgrwt>
<rscale>  1 0.57909970E+03</rscale>
<asrwt>0</asrwt>
<pdfrwt beam="2">  1       21 0.27434834E-01 0.10101741E+04</pdfrwt>
<pdfrwt beam="1">  1       -4 0.29438713E+00 0.10101741E+04</pdfrwt>
<totfact> 0.17578485E+01</totfact>
</mgrwt>
</event>
<event>
 6    2  0.2267664E-005  0.1008777E+04  0.7818608E-02  0.9805005E-01
         -4   -1    0    0    0  501 -0.00000000000E+00  0.00000000000E+00  0.92356607830E+03  0.92356607830E+03  0.00000000000E+00 0. -1.
         21   -1    0    0  501  502  0.00000000000E+00 -0.00000000000E+00 -0.39061376563E+03  0.39061376563E+03  0.00000000000E+00 0. -1.
   -9000010    2    1    2    0  502 -0.54157469779E+02  0.16630610858E+03  0.36811737886E+03  0.10738439959E+04  0.99349875169E+03 0.  0.
         13    1    3    3    0    0  0.30358972749E+03 -0.22209533672E+03  0.39455597573E+03  0.54513070944E+03  0.10566000000E+00 0. -1.
         -4    1    3    3    0  502 -0.35774719727E+03  0.38840144530E+03 -0.26438596869E+02  0.52871328645E+03  0.00000000000E+00 0. -1.
        -13    1    1    2    0    0  0.54157469779E+02 -0.16630610858E+03  0.16483493381E+03  0.24033584804E+03  0.10566000000E+00 0.  1.
<mgrwt>
<rscale>  1 0.65094619E+03</rscale>
<asrwt>0</asrwt>
<pdfrwt beam="2">  1       21 0.60094426E-01 0.10087767E+04</pdfrwt>
<pdfrwt beam="1">  1       -4 0.14208709E+00 0.10087767E+04</pdfrwt>
<totfact> 0.34617014E+01</totfact>
</mgrwt>
</event>
<event>
 6    2  0.2267664E-005  0.9996194E+03  0.7818608E-02  0.1002651E+00
         -4   -1    0    0    0  501 -0.00000000000E+00  0.00000000000E+00  0.21090684403E+03  0.21090684403E+03  0.00000000000E+00 0. -1.
         21   -1    0    0  501  502  0.00000000000E+00 -0.00000000000E+00 -0.21340726860E+04  0.21340726860E+04  0.00000000000E+00 0. -1.
   -9000010    2    1    2    0  502  0.85853282077E+02 -0.20825824535E+02 -0.19947970719E+04  0.22312449914E+04  0.99570796552E+03 0.  0.
         13    1    3    3    0    0  0.19420896759E+03 -0.43539643393E+03 -0.56834698620E+03  0.74182577851E+03  0.10566000000E+00 0. -1.
         -4    1    3    3    0  502 -0.10835568552E+03  0.41457060940E+03 -0.14264500857E+04  0.14894192129E+04  0.00000000000E+00 0. -1.
        -13    1    1    2    0    0 -0.85853282077E+02  0.20825824535E+02  0.71631229929E+02  0.11373453862E+03  0.10566000000E+00 0.  1.
<mgrwt>
<rscale>  1 0.54502850E+03</rscale>
<asrwt>0</asrwt>
<pdfrwt beam="2">  1       21 0.32831888E+00 0.99961935E+03</pdfrwt>
<pdfrwt beam="1">  1       -4 0.32447206E-01 0.99961935E+03</pdfrwt>
<totfact> 0.65547176E+00</totfact>
</mgrwt>
</event>
<event>
 6    2  0.2267664E-005  0.9961323E+03  0.7818608E-02  0.9878729E-01
         -4   -1    0    0    0  501 -0.00000000000E+00  0.00000000000E+00  0.15132113332E+04  0.15132113332E+04  0.00000000000E+00 0. -1.
         21   -1    0    0  501  502  0.00000000000E+00 -0.00000000000E+00 -0.21594597973E+03  0.21594597973E+03  0.00000000000E+00 0. -1.
   -9000010    2    1    2    0  502  0.90813676767E+02  0.11031228266E+03  0.11805592208E+04  0.15446681367E+04  0.98583145367E+03 0.  0.
         13    1    3    3    0    0 -0.75993952843E+02 -0.35935193609E+03  0.90150635716E+03  0.97345909930E+03  0.10566000000E+00 0. -1.
         -4    1    3    3    0  502  0.16680762961E+03  0.46966421875E+03  0.27905286362E+03  0.57120903736E+03  0.00000000000E+00 0. -1.
        -13    1    1    2    0    0 -0.90813676767E+02 -0.11031228266E+03  0.11670613272E+03  0.18448917630E+03  0.10566000000E+00 0.  1.
<mgrwt>
<rscale>  1 0.61303318E+03</rscale>
<asrwt>0</asrwt>
<pdfrwt beam="2">  1       21 0.33222459E-01 0.99613231E+03</pdfrwt>
<pdfrwt beam="1">  1       -4 0.23280174E+00 0.99613231E+03</pdfrwt>
<totfact> 0.28732181E+01</totfact>
</mgrwt>
</event>
<event>
 6    2  0.2267664E-005  0.1111136E+04  0.7818608E-02  0.9422129E-01
         -4   -1    0    0    0  501 -0.00000000000E+00  0.00000000000E+00  0.42476069940E+03  0.42476069940E+03  0.00000000000E+00 0. -1.
         21   -1    0    0  501  502  0.00000000000E+00 -0.00000000000E+00 -0.15412426234E+04  0.15412426234E+04  0.00000000000E+00 0. -1.
   -9000010    2    1    2    0  502  0.12109247917E+03 -0.46878726675E+03 -0.92341426222E+03  0.14447547994E+04  0.10000988155E+04 0.  0.
         13    1    3    3    0    0  0.44220461936E+03  0.23730230191E+01 -0.11753611546E+03  0.45756453776E+03  0.10566000000E+00 0. -1.
         -4    1    3    3    0  502 -0.32111214018E+03 -0.47116028977E+03 -0.80587814676E+03  0.98719026163E+03  0.00000000000E+00 0. -1.
        -13    1    1    2    0    0 -0.12109247917E+03  0.46878726675E+03 -0.19306766182E+03  0.52124852344E+03  0.10566000000E+00 0.  1.
<mgrwt>
<rscale>  1 0.90276724E+03</rscale>
<asrwt>0</asrwt>
<pdfrwt beam="2">  1       21 0.23711424E+00 0.11111357E+04</pdfrwt>
<pdfrwt beam="1">  1       -4 0.65347802E-01 0.11111357E+04</pdfrwt>
<totfact> 0.55796341E+00</totfact>
</mgrwt>
</event>
<event>
 6    2  0.2267664E-005  0.9976199E+03  0.7818608E-02  0.9760242E-01
         -4   -1    0    0    0  501 -0.00000000000E+00  0.00000000000E+00  0.36555612118E+03  0.36555612118E+03  0.00000000000E+00 0. -1.
         21   -1    0    0  501  502  0.00000000000E+00 -0.00000000000E+00 -0.10293981112E+04  0.10293981112E+04  0.00000000000E+00 0. -1.
   -9000010    2    1    2    0  502 -0.17265849755E+03  0.11880885140E+03 -0.63702745386E+03  0.11836593425E+04  0.97535581316E+03 0.  0.
         13    1    3    3    0    0 -0.21992592446E+03 -0.33703648947E+02  0.21940082732E+03  0.31247413077E+03  0.10566000000E+00 0. -1.
         -4    1    3    3    0  502  0.47267426912E+02  0.15251250035E+03 -0.85642828118E+03  0.87118521178E+03  0.00000000000E+00 0. -1.
        -13    1    1    2    0    0  0.17265849755E+03 -0.11880885140E+03 -0.26814536137E+02  0.21129488981E+03  0.10566000000E+00 0.  1.
<mgrwt>
<rscale>  1 0.67540561E+03</rscale>
<asrwt>0</asrwt>
<pdfrwt beam="2">  1       21 0.15836894E+00 0.99761990E+03</pdfrwt>
<pdfrwt beam="1">  1       -4 0.56239404E-01 0.99761990E+03</pdfrwt>
<totfact> 0.27927710E+01</totfact>
</mgrwt>
</event>
<event>
 6    2  0.2267664E-005  0.1055077E+04  0.7818608E-02  0.9582183E-01
         -4   -1    0    0    0  501 -0.00000000000E+00  0.00000000000E+00  0.12162870756E+04  0.12162870756E+04  0.00000000000E+00 0. -1.
         21   -1    0    0  501  502  0.00000000000E+00 -0.00000000000E+00 -0.39489629505E+03  0.39489629505E+03  0.00000000000E+00 0. -1.
   -9000010    2    1    2    0  502  0.16897752101E+03  0.27538691234E+03  0.69932720178E+03  0.12657982486E+04  0.10043880311E+04 0.  0.
         13    1    3    3    0    0  0.41859710410E+02 -0.21596840718E+03  0.72497646230E+03  0.75761828800E+03  0.10566000000E+00 0. -1.
         -4    1    3    3    0  502  0.12711781060E+03  0.49135531952E+03 -0.25649260523E+02  0.50817996060E+03  0.00000000000E+00 0. -1.
        -13    1    1    2    0    0 -0.16897752101E+03 -0.27538691234E+03  0.12206357875E+03  0.34538512202E+03  0.10566000000E+00 0.  1.
<mgrwt>
<rscale>  1 0.78486710E+03</rscale>
<asrwt>0</asrwt>
<pdfrwt beam="2">  1       21 0.60753276E-01 0.10550766E+04</pdfrwt>
<pdfrwt beam="1">  1       -4 0.18712109E+00 0.10550766E+04</pdfrwt>
<totfact> 0.15645704E+01</totfact>
</mgrwt>
</event>
<event>
 6    2  0.2267664E-005  0.1043109E+04  0.7818608E-02  0.9536028E-01
         21   -1    0    0  501  502  0.00000000000E+00  0.00000000000E+00  0.76178446070E+03  0.76178446070E+03  0.00000000000E+00 0. -1.
         -4   -1    0    0    0  501 -0.00000000000E+00 -0.00000000000E+00 -0.71857186980E+03  0.71857186980E+03  0.00000000000E+00 0. -1.
   -9000010    2    1    2    0  502 -0.43054018765E+01 -0.39212665763E+03  0.19255355746E+03  0.10607319895E+04  0.96658865549E+03 0.  0.
         13    1    3    3    0    0 -0.71760071100E+02 -0.40455249332E+02 -0.37813534130E+03  0.38700449934E+03  0.10566000000E+00 0. -1.
         -4    1    3    3    0  502  0.67454669224E+02 -0.35167140830E+03  0.57068889876E+03  0.67372749015E+03  0.00000000000E+00 0. -1.
        -13    1    1    2    0    0  0.43054018765E+01  0.39212665763E+03 -0.14934096656E+03  0.41962434101E+03  0.10566000000E+00 0.  1.
<mgrwt>
<rscale>  1 0.81678974E+03</rscale>
<asrwt>0</asrwt>
<pdfrwt beam="1">  1       21 0.11719761E+00 0.10431086E+04</pdfrwt>
<pdfrwt beam="2">  1       -4 0.11054952E+00 0.10431086E+04</pdfrwt>
<totfact> 0.13271192E+01</totfact>
</mgrwt>
</event>
<event>
 6    2  0.2267664E-005  0.1056457E+04  0.7818608E-02  0.9514316E-01
         21   -1    0    0  501  502  0.00000000000E+00  0.00000000000E+00  0.42829171017E+03  0.42829171017E+03  0.00000000000E+00 0.  1.
         -4   -1    0    0    0  501 -0.00000000000E+00 -0.00000000000E+00 -0.12768424050E+04  0.12768424050E+04  0.00000000000E+00 0. -1.
   -9000010    2    1    2    0  502 -0.63203025645E+02  0.40216421552E+03 -0.49819944900E+03  0.11680338589E+04  0.97486908138E+03 0.  0.
         13    1    3    3    0    0 -0.20213068827E+03 -0.94591713769E+02 -0.60186040243E+03  0.64190370199E+03  0.10566000000E+00 0. -1.
         -4    1    3    3    0  502  0.13892766263E+03  0.49675592929E+03  0.10366095343E+03  0.52613015689E+03  0.00000000000E+00 0. -1.
        -13    1    1    2    0    0  0.63203025645E+02 -0.40216421552E+03 -0.35035124584E+03  0.53710025630E+03  0.10566000000E+00 0.  1.
<mgrwt>
<rscale>  1 0.83236554E+03</rscale>
<asrwt>0</asrwt>
<pdfrwt beam="1">  1       21 0.65891035E-01 0.10564565E+04</pdfrwt>
<pdfrwt beam="2">  1       -4 0.19643729E+00 0.10564565E+04</pdfrwt>
<totfact> 0.11270419E+01</totfact>
</mgrwt>
</event>
<event>
 6    2  0.2267664E-005  0.9760741E+03  0.7818608E-02  0.9945916E-01
         21   -1    0    0  501  502  0.00000000000E+00  0.00000000000E+00  0.93301198394E+03  0.93301198394E+03  0.00000000000E+00 0. -1.
         -4   -1    0    0    0  501 -0.00000000000E+00 -0.00000000000E+00 -0.55915591203E+03  0.55915591203E+03  0.00000000000E+00 0. -1.
   -9000010    2    1    2    0  502  0.12199851143E+03  0.10167333366E+02  0.66180054728E+03  0.11792796675E+04  0.96836643803E+03 0.  0.
         13    1    3    3    0    0  0.42102805485E+03  0.31565647516E+03  0.48848550707E+03  0.71799842274E+03  0.10566000000E+00 0. -1.
         -4    1    3    3    0  502 -0.29902954342E+03 -0.30548914179E+03  0.17331504021E+03  0.46128124475E+03  0.00000000000E+00 0. -1.
        -13    1    1    2    0    0 -0.12199851143E+03 -0.10167333366E+02 -0.28794447537E+03  0.31288822847E+03  0.10566000000E+00 0.  1.
<mgrwt>
<rscale>  1 0.58086673E+03</rscale>
<asrwt>0</asrwt>
<pdfrwt beam="1">  1       21 0.14354031E+00 0.97607406E+03</pdfrwt>
<pdfrwt beam="2">  1       -4 0.86023987E-01 0.97607406E+03</pdfrwt>
<totfact> 0.14229763E+01</totfact>
</mgrwt>
</event>
<event>
 6    2  0.2267664E-005  0.1033209E+04  0.7818608E-02  0.9642411E-01
         -4   -1    0    0    0  501 -0.00000000000E+00  0.00000000000E+00  0.39892577221E+03  0.39892577221E+03  0.00000000000E+00 0. -1.
         21   -1    0    0  501  502  0.00000000000E+00 -0.00000000000E+00 -0.11934393910E+04  0.11934393910E+04  0.00000000000E+00 0. -1.
   -9000010    2    1    2    0  502  0.20114873995E+03 -0.19487772494E+03 -0.39865499383E+03  0.11074505260E+04  0.99452637983E+03 0.  0.
         13    1    3    3    0    0 -0.40273752577E+03 -0.17499660214E+02 -0.17549688504E+03  0.43966228016E+03  0.10566000000E+00 0. -1.
         -4    1    3    3    0  502  0.60388626572E+03 -0.17737806472E+03 -0.22315810879E+03  0.66778824584E+03  0.00000000000E+00 0. -1.
        -13    1    1    2    0    0 -0.20114873995E+03  0.19487772494E+03 -0.39585862496E+03  0.48491463721E+03  0.10566000000E+00 0.  1.
<mgrwt>
<rscale>  1 0.74551625E+03</rscale>
<asrwt>0</asrwt>
<pdfrwt beam="2">  1       21 0.18360606E+00 0.10332090E+04</pdfrwt>
<pdfrwt beam="1">  1       -4 0.61373197E-01 0.10332090E+04</pdfrwt>
<totfact> 0.14902066E+01</totfact>
</mgrwt>
</event>
<event>
 6    2  0.2267664E-005  0.1048326E+04  0.7818608E-02  0.9525163E-01
         -4   -1    0    0    0  501 -0.00000000000E+00  0.00000000000E+00  0.66527761002E+03  0.66527761002E+03  0.00000000000E+00 0. -1.
         21   -1    0    0  501  502  0.00000000000E+00 -0.00000000000E+00 -0.19444215163E+04  0.19444215163E+04  0.00000000000E+00 0. -1.
   -9000010    2    1    2    0  502  0.26307739429E+03 -0.30289735957E+03 -0.17195757483E+04  0.20139334472E+04  0.96851982419E+03 0.  0.
         13    1    3    3    0    0 -0.37262076708E+02  0.10134618540E+03 -0.14278688216E+04  0.14319458421E+04  0.10566000000E+00 0. -1.
         -4    1    3    3    0  502  0.30033947100E+03 -0.40424354496E+03 -0.29170692668E+03  0.58198760516E+03  0.00000000000E+00 0. -1.
        -13    1    1    2    0    0 -0.26307739429E+03  0.30289735957E+03  0.44043184200E+03  0.59576567913E+03  0.10566000000E+00 0.  1.
<mgrwt>
<rscale>  1 0.82453826E+03</rscale>
<asrwt>0</asrwt>
<pdfrwt beam="2">  1       21 0.29914177E+00 0.10483259E+04</pdfrwt>
<pdfrwt beam="1">  1       -4 0.10235040E+00 0.10483259E+04</pdfrwt>
<totfact> 0.81103640E-01</totfact>
</mgrwt>
</event>
<event>
 6    2  0.2267664E-005  0.1067504E+04  0.7818608E-02  0.9529657E-01
         21   -1    0    0  501  502  0.00000000000E+00  0.00000000000E+00  0.36042213343E+03  0.36042213343E+03  0.00000000000E+00 0. -1.
         -4   -1    0    0    0  501 -0.00000000000E+00 -0.00000000000E+00 -0.22571147894E+04  0.22571147894E+04  0.00000000000E+00 0. -1.
   -9000010    2    1    2    0  502  0.26463860500E+03 -0.26436619132E+03 -0.51336924226E+03  0.11845307287E+04  0.99982098094E+03 0.  0.
         13    1    3    3    0    0  0.45241785942E+02 -0.32268245032E+03  0.23548376785E+03  0.40202412742E+03  0.10566000000E+00 0. -1.
         -4    1    3    3    0  502  0.21939681906E+03  0.58316259002E+02 -0.74885301011E+03  0.78250660127E+03  0.00000000000E+00 0. -1.
        -13    1    1    2    0    0 -0.26463860500E+03  0.26436619132E+03 -0.13833234138E+04  0.14330061942E+04  0.10566000000E+00 0.  1.
<mgrwt>
<rscale>  1 0.82132179E+03</rscale>
<asrwt>0</asrwt>
<pdfrwt beam="1">  1       21 0.55449560E-01 0.10675041E+04</pdfrwt>
<pdfrwt beam="2">  1       -4 0.34724842E+00 0.10675041E+04</pdfrwt>
<totfact> 0.18598375E+00</totfact>
</mgrwt>
</event>
<event>
 6    2  0.2267664E-005  0.1037365E+04  0.7818608E-02  0.9769284E-01
         21   -1    0    0  501  502  0.00000000000E+00  0.00000000000E+00  0.30448437126E+03  0.30448437126E+03  0.00000000000E+00 0. -1.
         -4   -1    0    0    0  501 -0.00000000000E+00 -0.00000000000E+00 -0.14529678689E+04  0.14529678689E+04  0.00000000000E+00 0. -1.
   -9000010    2    1    2    0  502  0.10396581575E+03 -0.14805662346E+03 -0.11828578456E+04  0.15733021342E+04  0.10214681923E+04 0.  0.
         13    1    3    3    0    0  0.38572060835E+03 -0.75305516211E+02 -0.41216827062E+02  0.39515838151E+03  0.10566000000E+00 0. -1.
         -4    1    3    3    0  502 -0.28175479260E+03 -0.72751107254E+02 -0.11416410185E+04  0.11781437526E+04  0.00000000000E+00 0. -1.
        -13    1    1    2    0    0 -0.10396581575E+03  0.14805662346E+03  0.34374347903E+02  0.18415010604E+03  0.10566000000E+00 0.  1.
<mgrwt>
<rscale>  1 0.67037307E+03</rscale>
<asrwt>0</asrwt>
<pdfrwt beam="1">  1       21 0.46843749E-01 0.10373654E+04</pdfrwt>
<pdfrwt beam="2">  1       -4 0.22353352E+00 0.10373654E+04</pdfrwt>
<totfact> 0.15959676E+01</totfact>
</mgrwt>
</event>
<event>
 6    2  0.2267664E-005  0.1019942E+04  0.7818608E-02  0.9846768E-01
         21   -1    0    0  501  502  0.00000000000E+00  0.00000000000E+00  0.31915460963E+04  0.31915460963E+04  0.00000000000E+00 0. -1.
         -4   -1    0    0    0  501 -0.00000000000E+00 -0.00000000000E+00 -0.12115980509E+03  0.12115980509E+03  0.00000000000E+00 0. -1.
   -9000010    2    1    2    0  502 -0.26607564290E+02  0.14522387220E+03  0.29527135668E+04  0.31239075519E+04  0.10091992122E+04 0.  0.
         13    1    3    3    0    0 -0.32841875183E+03  0.23493683119E+03  0.46293469557E+03  0.61429857132E+03  0.10566000000E+00 0. -1.
         -4    1    3    3    0  502  0.30181118754E+03 -0.89712958990E+02  0.24897788712E+04  0.25096089806E+04  0.00000000000E+00 0. -1.
        -13    1    1    2    0    0  0.26607564290E+02 -0.14522387220E+03  0.11767272447E+03  0.18879834952E+03  0.10566000000E+00 0.  1.
<mgrwt>
<rscale>  1 0.62911993E+03</rscale>
<asrwt>0</asrwt>
<pdfrwt beam="1">  1       21 0.49100703E+00 0.10199417E+04</pdfrwt>
<pdfrwt beam="2">  1       -4 0.18639972E-01 0.10199417E+04</pdfrwt>
<totfact> 0.15633240E+00</totfact>
</mgrwt>
</event>
<event>
 6    2  0.2267664E-005  0.9450340E+03  0.7818608E-02  0.1003175E+00
         21   -1    0    0  501  502  0.00000000000E+00  0.00000000000E+00  0.82794391208E+03  0.82794391208E+03  0.00000000000E+00 0. -1.
         -4   -1    0    0    0  501 -0.00000000000E+00 -0.00000000000E+00 -0.39118633420E+03  0.39118633420E+03  0.00000000000E+00 0. -1.
   -9000010    2    1    2    0  502  0.66753543795E+02 -0.78246482525E+02  0.52722436140E+03  0.10821528842E+04  0.93942045426E+03 0.  0.
         13    1    3    3    0    0  0.45661720053E+03  0.59942640241E+02  0.48104077082E+03  0.66595241744E+03  0.10566000000E+00 0. -1.
         -4    1    3    3    0  502 -0.38986365673E+03 -0.13818912277E+03  0.46183590582E+02  0.41620046676E+03  0.00000000000E+00 0. -1.
        -13    1    1    2    0    0 -0.66753543795E+02  0.78246482525E+02 -0.90466783521E+02  0.13697736208E+03  0.10566000000E+00 0.  1.
<mgrwt>
<rscale>  1 0.54279883E+03</rscale>
<asrwt>0</asrwt>
<pdfrwt beam="1">  1       21 0.12737599E+00 0.94503404E+03</pdfrwt>
<pdfrwt beam="2">  1       -4 0.60182513E-01 0.94503404E+03</pdfrwt>
<totfact> 0.43984604E+01</totfact>
</mgrwt>
</event>
<event>
 6    2  0.2267664E-005  0.9886465E+03  0.7818608E-02  0.1009257E+00
         21   -1    0    0  501  502  0.00000000000E+00  0.00000000000E+00  0.10414273901E+04  0.10414273901E+04  0.00000000000E+00 0. -1.
         -4   -1    0    0    0  501 -0.00000000000E+00 -0.00000000000E+00 -0.28392065224E+03  0.28392065224E+03  0.00000000000E+00 0. -1.
   -9000010    2    1    2    0  502 -0.65274070205E+02  0.35575998483E+02  0.76579840021E+03  0.12505475160E+04  0.98584762724E+03 0.  0.
         13    1    3    3    0    0 -0.26858843729E+03  0.52418451541E+02  0.94202133209E+03  0.98096464971E+03  0.10566000000E+00 0. -1.
         -4    1    3    3    0  502  0.20331436709E+03 -0.16842453058E+02 -0.17622293187E+03  0.26958286631E+03  0.00000000000E+00 0. -1.
        -13    1    1    2    0    0  0.65274070205E+02 -0.35575998483E+02 -0.82916623468E+01  0.74800526320E+02  0.10566000000E+00 0.  1.
<mgrwt>
<rscale>  1 0.51770903E+03</rscale>
<asrwt>0</asrwt>
<pdfrwt beam="1">  1       21 0.16021960E+00 0.98864650E+03</pdfrwt>
<pdfrwt beam="2">  1       -4 0.43680101E-01 0.98864650E+03</pdfrwt>
<totfact> 0.46072032E+01</totfact>
</mgrwt>
</event>
<event>
 6    2  0.2267664E-005  0.1035188E+04  0.7818608E-02  0.9656608E-01
         21   -1    0    0  501  502  0.00000000000E+00  0.00000000000E+00  0.50785333709E+03  0.50785333709E+03  0.00000000000E+00 0. -1.
         -4   -1    0    0    0  501 -0.00000000000E+00 -0.00000000000E+00 -0.86549036045E+03  0.86549036045E+03  0.00000000000E+00 0. -1.
   -9000010    2    1    2    0  502  0.26537891957E+03 -0.14011286479E+01 -0.17176128518E+03  0.10493410196E+04  0.10005931752E+04 0.  0.
         13    1    3    3    0    0  0.47438762235E+03  0.31764842477E+03 -0.30254727484E+03  0.64612615074E+03  0.10566000000E+00 0. -1.
         -4    1    3    3    0  502 -0.20900870278E+03 -0.31904955342E+03  0.13078598965E+03  0.40321486885E+03  0.00000000000E+00 0. -1.
        -13    1    1    2    0    0 -0.26537891957E+03  0.14011286479E+01 -0.18587573817E+03  0.32400267795E+03  0.10566000000E+00 0.  1.
<mgrwt>
<rscale>  1 0.73660153E+03</rscale>
<asrwt>0</asrwt>
<pdfrwt beam="1">  1       21 0.78131283E-01 0.10351882E+04</pdfrwt>
<pdfrwt beam="2">  1       -4 0.13315236E+00 0.10351882E+04</pdfrwt>
<totfact> 0.22469428E+01</totfact>
</mgrwt>
</event>
<event>
 6    2  0.2267664E-005  0.1021686E+04  0.7818608E-02  0.9788912E-01
         21   -1    0    0  501  502  0.00000000000E+00  0.00000000000E+00  0.11146169272E+04  0.11146169272E+04  0.00000000000E+00 0. -1.
         -4   -1    0    0    0  501 -0.00000000000E+00 -0.00000000000E+00 -0.38237726845E+03  0.38237726845E+03  0.00000000000E+00 0. -1.
   -9000010    2    1    2    0  502 -0.15112706518E+03  0.93094833151E+02  0.80940305135E+03  0.13034477204E+04  0.10061494036E+04 0.  0.
         13    1    3    3    0    0  0.21952997414E+03  0.25324836726E+03  0.83409966529E+03  0.89891624074E+03  0.10566000000E+00 0. -1.
         -4    1    3    3    0  502 -0.37065703932E+03 -0.16015353411E+03 -0.24696613940E+02  0.40453147965E+03  0.00000000000E+00 0. -1.
        -13    1    1    2    0    0  0.15112706518E+03 -0.93094833151E+02 -0.77163392550E+02  0.19354647531E+03  0.10566000000E+00 0.  1.
<mgrwt>
<rscale>  1 0.65961023E+03</rscale>
<asrwt>0</asrwt>
<pdfrwt beam="1">  1       21 0.17147953E+00 0.10216862E+04</pdfrwt>
<pdfrwt beam="2">  1       -4 0.58827273E-01 0.10216862E+04</pdfrwt>
<totfact> 0.20076161E+01</totfact>
</mgrwt>
</event>
<event>
 6    2  0.2267664E-005  0.9882682E+03  0.7818608E-02  0.9913809E-01
         21   -1    0    0  501  502  0.00000000000E+00  0.00000000000E+00  0.11029101973E+04  0.11029101973E+04  0.00000000000E+00 0. -1.
         -4   -1    0    0    0  501 -0.00000000000E+00 -0.00000000000E+00 -0.28996002099E+03  0.28996002099E+03  0.00000000000E+00 0. -1.
   -9000010    2    1    2    0  502 -0.55844176821E+02  0.11816492590E+03  0.77750421985E+03  0.12574525356E+04  0.97958794682E+03 0.  0.
         13    1    3    3    0    0  0.14784814464E+03 -0.33081401078E+03  0.32121497112E+02  0.36377023702E+03  0.10566000000E+00 0. -1.
         -4    1    3    3    0  502 -0.20369232146E+03  0.44897893668E+03  0.74538272274E+03  0.89368229856E+03  0.00000000000E+00 0. -1.
        -13    1    1    2    0    0  0.55844176821E+02 -0.11816492590E+03  0.35445956474E+02  0.13541768272E+03  0.10566000000E+00 0.  1.
<mgrwt>
<rscale>  1 0.59596668E+03</rscale>
<asrwt>0</asrwt>
<pdfrwt beam="1">  1       21 0.16967849E+00 0.98826822E+03</pdfrwt>
<pdfrwt beam="2">  1       -4 0.44609235E-01 0.98826822E+03</pdfrwt>
<totfact> 0.37367131E+01</totfact>
</mgrwt>
</event>
<event>
 6    2  0.2267664E-005  0.9233124E+03  0.7818608E-02  0.9741946E-01
         21   -1    0    0  501  502  0.00000000000E+00  0.00000000000E+00  0.31178120196E+03  0.31178120196E+03  0.00000000000E+00 0. -1.
         -4   -1    0    0    0  501 -0.00000000000E+00 -0.00000000000E+00 -0.14930598450E+04  0.14930598450E+04  0.00000000000E+00 0. -1.
   -9000010    2    1    2    0  502  0.88641025137E+02 -0.26656326276E+03 -0.46157826453E+03  0.10322597565E+04  0.87954107703E+03 0.  0.
         13    1    3    3    0    0  0.22814819953E+03 -0.43017256029E+03  0.37966945087E+02  0.48840713822E+03  0.10566000000E+00 0. -1.
         -4    1    3    3    0  502 -0.13950717439E+03  0.16360929754E+03 -0.49954520961E+03  0.54385261827E+03  0.00000000000E+00 0. -1.
        -13    1    1    2    0    0 -0.88641025137E+02  0.26656326276E+03 -0.71970037855E+03  0.77258129050E+03  0.10566000000E+00 0.  1.
<mgrwt>
<rscale>  1 0.68573324E+03</rscale>
<asrwt>0</asrwt>
<pdfrwt beam="1">  1       21 0.47966339E-01 0.92331236E+03</pdfrwt>
<pdfrwt beam="2">  1       -4 0.22970151E+00 0.92331236E+03</pdfrwt>
<totfact> 0.14049472E+01</totfact>
</mgrwt>
</event>
<event>
 6    2  0.2267664E-005  0.1019740E+04  0.7818608E-02  0.9887374E-01
         -4   -1    0    0    0  501 -0.00000000000E+00  0.00000000000E+00  0.51197395913E+03  0.51197395913E+03  0.00000000000E+00 0. -1.
         21   -1    0    0  501  502  0.00000000000E+00 -0.00000000000E+00 -0.74876457874E+03  0.74876457874E+03  0.00000000000E+00 0. -1.
   -9000010    2    1    2    0  502  0.10673793272E+03  0.73370981419E+02 -0.36054094042E+03  0.10816004898E+04  0.10114808761E+04 0.  0.
         13    1    3    3    0    0 -0.40978438737E+03 -0.17567477568E+03 -0.14162047082E+03  0.46780470269E+03  0.10566000000E+00 0. -1.
         -4    1    3    3    0  502  0.51652232009E+03  0.24904575710E+03 -0.21892046960E+03  0.61379578712E+03  0.00000000000E+00 0. -1.
        -13    1    1    2    0    0 -0.10673793272E+03 -0.73370981419E+02  0.12375032081E+03  0.17913804805E+03  0.10566000000E+00 0.  1.
<mgrwt>
<rscale>  1 0.60877125E+03</rscale>
<asrwt>0</asrwt>
<pdfrwt beam="2">  1       21 0.11519455E+00 0.10197401E+04</pdfrwt>
<pdfrwt beam="1">  1       -4 0.78765225E-01 0.10197401E+04</pdfrwt>
<totfact> 0.31111544E+01</totfact>
</mgrwt>
</event>
<event>
 6    2  0.2267664E-005  0.1016458E+04  0.7818608E-02  0.9794939E-01
         -4   -1    0    0    0  501 -0.00000000000E+00  0.00000000000E+00  0.67833713284E+03  0.67833713284E+03  0.00000000000E+00 0. -1.
         21   -1    0    0  501  502  0.00000000000E+00 -0.00000000000E+00 -0.54445924696E+03  0.54445924696E+03  0.00000000000E+00 0. -1.
   -9000010    2    1    2    0  502  0.11200604050E+02 -0.17635820641E+03  0.28106818639E+02  0.10168468706E+04  0.10009794676E+04 0.  0.
         13    1    3    3    0    0 -0.15533098760E+03 -0.20271440253E+03 -0.44583972733E+03  0.51380338490E+03  0.10566000000E+00 0. -1.
         -4    1    3    3    0  502  0.16653159165E+03  0.26356196111E+02  0.47394654597E+03  0.50304348572E+03  0.00000000000E+00 0. -1.
        -13    1    1    2    0    0 -0.11200604050E+02  0.17635820641E+03  0.10577106725E+03  0.20594950918E+03  0.10566000000E+00 0.  1.
<mgrwt>
<rscale>  1 0.65634874E+03</rscale>
<asrwt>0</asrwt>
<pdfrwt beam="2">  1       21 0.83762961E-01 0.10164583E+04</pdfrwt>
<pdfrwt beam="1">  1       -4 0.10435956E+00 0.10164583E+04</pdfrwt>
<totfact> 0.35176518E+01</totfact>
</mgrwt>
</event>
<event>
 6    2  0.2267664E-005  0.1035892E+04  0.7818608E-02  0.9671169E-01
         21   -1    0    0  501  502  0.00000000000E+00  0.00000000000E+00  0.29553992779E+03  0.29553992779E+03  0.00000000000E+00 0. -1.
         -4   -1    0    0    0  501 -0.00000000000E+00 -0.00000000000E+00 -0.19906822589E+04  0.19906822589E+04  0.00000000000E+00 0. -1.
   -9000010    2    1    2    0  502 -0.68691929941E+02  0.24258855981E+03 -0.67740498898E+03  0.12377198742E+04  0.10047413484E+04 0.  0.
         13    1    3    3    0    0  0.40689854144E+03  0.69170345842E+02 -0.27120018245E+02  0.41362599812E+03  0.10566000000E+00 0. -1.
         -4    1    3    3    0  502 -0.47559047138E+03  0.17341821396E+03 -0.65028497074E+03  0.82409387606E+03  0.00000000000E+00 0. -1.
        -13    1    1    2    0    0  0.68691929941E+02 -0.24258855981E+03 -0.10177373422E+04  0.10485023125E+04  0.10566000000E+00 0.  1.
<mgrwt>
<rscale>  1 0.72759653E+03</rscale>
<asrwt>0</asrwt>
<pdfrwt beam="1">  1       21 0.45467681E-01 0.10358924E+04</pdfrwt>
<pdfrwt beam="2">  1       -4 0.30625881E+00 0.10358924E+04</pdfrwt>
<totfact> 0.52193218E+00</totfact>
</mgrwt>
</event>
<event>
 6    2  0.2267664E-005  0.1021631E+04  0.7818608E-02  0.9705371E-01
         -4   -1    0    0    0  501 -0.00000000000E+00  0.00000000000E+00  0.23009233692E+03  0.23009233692E+03  0.00000000000E+00 0. -1.
         21   -1    0    0  501  502  0.00000000000E+00 -0.00000000000E+00 -0.22473473226E+04  0.22473473226E+04  0.00000000000E+00 0. -1.
   -9000010    2    1    2    0  502  0.15149417041E+03 -0.17871383116E+03 -0.19959119165E+04  0.22421852124E+04  0.99440486275E+03 0.  0.
         13    1    3    3    0    0 -0.39930478833E+03  0.59597655972E+02 -0.10136754477E+04  0.10911159970E+04  0.10566000000E+00 0. -1.
         -4    1    3    3    0  502  0.55079895873E+03 -0.23831148713E+03 -0.98223646883E+03  0.11510692154E+04  0.00000000000E+00 0. -1.
        -13    1    1    2    0    0 -0.15149417041E+03  0.17871383116E+03 -0.21343069138E+02  0.23525444710E+03  0.10566000000E+00 0.  1.
<mgrwt>
<rscale>  1 0.70697878E+03</rscale>
<asrwt>0</asrwt>
<pdfrwt beam="2">  1       21 0.34574574E+00 0.10216311E+04</pdfrwt>
<pdfrwt beam="1">  1       -4 0.35398821E-01 0.10216311E+04</pdfrwt>
<totfact> 0.42667254E+00</totfact>
</mgrwt>
</event>
<event>
 6    2  0.2267664E-005  0.9992242E+03  0.7818608E-02  0.1010816E+00
         21   -1    0    0  501  502  0.00000000000E+00  0.00000000000E+00  0.14888011477E+04  0.14888011477E+04  0.00000000000E+00 0. -1.
         -4   -1    0    0    0  501 -0.00000000000E+00 -0.00000000000E+00 -0.25775727689E+03  0.25775727689E+03  0.00000000000E+00 0. -1.
   -9000010    2    1    2    0  502 -0.53822169765E+02  0.42566943844E+02  0.13063427724E+04  0.16446824881E+04  0.99686522515E+03 0.  0.
         13    1    3    3    0    0 -0.25123669165E+03  0.65875859867E+02 -0.57840345904E+02  0.26609212864E+03  0.10566000000E+00 0. -1.
         -4    1    3    3    0  502  0.19741452189E+03 -0.23308916023E+02  0.13641831183E+04  0.13785903595E+04  0.00000000000E+00 0. -1.
        -13    1    1    2    0    0  0.53822169765E+02 -0.42566943844E+02 -0.75298901644E+02  0.10187593641E+03  0.10566000000E+00 0.  1.
<mgrwt>
<rscale>  1 0.51151784E+03</rscale>
<asrwt>0</asrwt>
<pdfrwt beam="1">  1       21 0.22904633E+00 0.99922422E+03</pdfrwt>
<pdfrwt beam="2">  1       -4 0.39654967E-01 0.99922422E+03</pdfrwt>
<totfact> 0.18443537E+01</totfact>
</mgrwt>
</event>
<event>
 6    2  0.2267664E-005  0.1005772E+04  0.7818608E-02  0.9757963E-01
         -4   -1    0    0    0  501 -0.00000000000E+00  0.00000000000E+00  0.21069706207E+04  0.21069706207E+04  0.00000000000E+00 0. -1.
         21   -1    0    0  501  502  0.00000000000E+00 -0.00000000000E+00 -0.20789723356E+03  0.20789723356E+03  0.00000000000E+00 0. -1.
   -9000010    2    1    2    0  502 -0.77345739745E+02 -0.19101543421E+03  0.18457631023E+04  0.21020034439E+04  0.98443272433E+03 0.  0.
         13    1    3    3    0    0 -0.42876642566E+03  0.19666690795E+03  0.72269791426E+03  0.86302422150E+03  0.10566000000E+00 0. -1.
         -4    1    3    3    0  502  0.35142068592E+03 -0.38768234216E+03  0.11230651880E+04  0.12389792224E+04  0.00000000000E+00 0. -1.
        -13    1    1    2    0    0  0.77345739745E+02  0.19101543421E+03  0.53310284802E+02  0.21286441035E+03  0.10566000000E+00 0.  1.
<mgrwt>
<rscale>  1 0.67668105E+03</rscale>
<asrwt>0</asrwt>
<pdfrwt beam="2">  1       21 0.31984191E-01 0.10057719E+04</pdfrwt>
<pdfrwt beam="1">  1       -4 0.32414931E+00 0.10057719E+04</pdfrwt>
<totfact> 0.84221349E+00</totfact>
</mgrwt>
</event>
<event>
 6    2  0.2267664E-005  0.1008191E+04  0.7818608E-02  0.9735305E-01
         -4   -1    0    0    0  501 -0.00000000000E+00  0.00000000000E+00  0.68073202379E+03  0.68073202379E+03  0.00000000000E+00 0. -1.
         21   -1    0    0  501  502  0.00000000000E+00 -0.00000000000E+00 -0.56428938659E+03  0.56428938659E+03  0.00000000000E+00 0.  1.
   -9000010    2    1    2    0  502 -0.18295118382E+03  0.12324300862E+03  0.15816040828E+03  0.10205211689E+04  0.98376255601E+03 0.  0.
         13    1    3    3    0    0  0.38017574224E+03  0.18499389988E+03 -0.29295223954E+02  0.42380957904E+03  0.10566000000E+00 0. -1.
         -4    1    3    3    0  502 -0.56312692606E+03 -0.61750891258E+02  0.18745563224E+03  0.59671158986E+03  0.00000000000E+00 0. -1.
        -13    1    1    2    0    0  0.18295118382E+03 -0.12324300862E+03 -0.41717771076E+02  0.22450024147E+03  0.10566000000E+00 0.  1.
<mgrwt>
<rscale>  1 0.68953070E+03</rscale>
<asrwt>0</asrwt>
<pdfrwt beam="2">  1       21 0.86813752E-01 0.10081908E+04</pdfrwt>
<pdfrwt beam="1">  1       -4 0.10472800E+00 0.10081908E+04</pdfrwt>
<totfact> 0.32044441E+01</totfact>
</mgrwt>
</event>
<event>
 6    2  0.2267664E-005  0.8771538E+03  0.7818608E-02  0.9678333E-01
         21   -1    0    0  501  502  0.00000000000E+00  0.00000000000E+00  0.10290968896E+04  0.10290968896E+04  0.00000000000E+00 0. -1.
         -4   -1    0    0    0  501 -0.00000000000E+00 -0.00000000000E+00 -0.50716979494E+03  0.50716979494E+03  0.00000000000E+00 0. -1.
   -9000010    2    1    2    0  502  0.86673087808E+02  0.39598900786E+03  0.67098767569E+03  0.11043655541E+04  0.77786843209E+03 0.  0.
         13    1    3    3    0    0  0.36743660005E+03  0.37827284566E+02  0.49226316862E+03  0.61543772785E+03  0.10566000000E+00 0. -1.
         -4    1    3    3    0  502 -0.28076351225E+03  0.35816172330E+03  0.17872450707E+03  0.48892782624E+03  0.00000000000E+00 0. -1.
        -13    1    1    2    0    0 -0.86673087808E+02 -0.39598900786E+03 -0.14906058104E+03  0.43190113045E+03  0.10566000000E+00 0.  1.
<mgrwt>
<rscale>  1 0.72321590E+03</rscale>
<asrwt>0</asrwt>
<pdfrwt beam="1">  1       21 0.15832260E+00 0.87715382E+03</pdfrwt>
<pdfrwt beam="2">  1       -4 0.78026123E-01 0.87715382E+03</pdfrwt>
<totfact> 0.13727849E+01</totfact>
</mgrwt>
</event>
<event>
 6    2  0.2267664E-005  0.1021534E+04  0.7818608E-02  0.9936891E-01
         21   -1    0    0  501  502  0.00000000000E+00  0.00000000000E+00  0.45738378415E+03  0.45738378415E+03  0.00000000000E+00 0. -1.
         -4   -1    0    0    0  501 -0.00000000000E+00 -0.00000000000E+00 -0.74967198507E+03  0.74967198507E+03  0.00000000000E+00 0. -1.
   -9000010    2    1    2    0  502 -0.10209103626E+03  0.40722103600E+02 -0.15825717935E+03  0.10337202699E+04  0.10156039544E+04 0.  0.
         13    1    3    3    0    0  0.39853434676E+03 -0.13455338270E+03  0.11634851196E+03  0.43643009261E+03  0.10566000000E+00 0. -1.
         -4    1    3    3    0  502 -0.50062538302E+03  0.17527548630E+03 -0.27460569131E+03  0.59729017731E+03  0.00000000000E+00 0. -1.
        -13    1    1    2    0    0  0.10209103626E+03 -0.40722103600E+02 -0.13403102158E+03  0.17333549930E+03  0.10566000000E+00 0.  1.
<mgrwt>
<rscale>  1 0.58506219E+03</rscale>
<asrwt>0</asrwt>
<pdfrwt beam="1">  1       21 0.70366737E-01 0.10215343E+04</pdfrwt>
<pdfrwt beam="2">  1       -4 0.11533415E+00 0.10215343E+04</pdfrwt>
<totfact> 0.41293712E+01</totfact>
</mgrwt>
</event>
<event>
 6    2  0.2267664E-005  0.9856176E+03  0.7818608E-02  0.1032970E+00
         21   -1    0    0  501  502  0.00000000000E+00  0.00000000000E+00  0.50094970607E+03  0.50094970607E+03  0.00000000000E+00 0. -1.
         -4   -1    0    0    0  501 -0.00000000000E+00 -0.00000000000E+00 -0.59349289302E+03  0.59349289302E+03  0.00000000000E+00 0. -1.
   -9000010    2    1    2    0  502 -0.12119156424E+02 -0.34594076273E+02  0.98701464564E+01  0.98566702238E+03  0.98493575178E+03 0.  0.
         13    1    3    3    0    0  0.33770292120E+03  0.10299505664E+03 -0.32675799789E+03  0.48106345218E+03  0.10566000000E+00 0. -1.
         -4    1    3    3    0  502 -0.34982207763E+03 -0.13758913291E+03  0.33662814434E+03  0.50460357019E+03  0.00000000000E+00 0. -1.
        -13    1    1    2    0    0  0.12119156424E+02  0.34594076273E+02 -0.10241333341E+03  0.10877557671E+03  0.10566000000E+00 0.  1.
<mgrwt>
<rscale>  1 0.43282916E+03</rscale>
<asrwt>0</asrwt>
<pdfrwt beam="1">  1       21 0.77069186E-01 0.98561760E+03</pdfrwt>
<pdfrwt beam="2">  1       -4 0.91306599E-01 0.98561760E+03</pdfrwt>
<totfact> 0.59112595E+01</totfact>
</mgrwt>
</event>
<event>
 6    2  0.2267664E-005  0.1078133E+04  0.7818608E-02  0.9509679E-01
         -4   -1    0    0    0  501 -0.00000000000E+00  0.00000000000E+00  0.10307779828E+04  0.10307779828E+04  0.00000000000E+00 0. -1.
         21   -1    0    0  501  502  0.00000000000E+00 -0.00000000000E+00 -0.70831169912E+03  0.70831169912E+03  0.00000000000E+00 0. -1.
   -9000010    2    1    2    0  502 -0.24533032573E+03  0.30225107848E+03 -0.19081084134E+03  0.10948877715E+04  0.10053993097E+04 0.  0.
         13    1    3    3    0    0 -0.29238795384E+03 -0.18167922590E+03  0.26034947002E+03  0.43160156902E+03  0.10566000000E+00 0. -1.
         -4    1    3    3    0  502  0.47057628112E+02  0.48393030439E+03 -0.45116031136E+03  0.66328620249E+03  0.00000000000E+00 0. -1.
        -13    1    1    2    0    0  0.24533032573E+03 -0.30225107848E+03  0.51327712505E+03  0.64420191045E+03  0.10566000000E+00 0.  1.
<mgrwt>
<rscale>  1 0.83573980E+03</rscale>
<asrwt>0</asrwt>
<pdfrwt beam="2">  1       21 0.10897103E+00 0.10781329E+04</pdfrwt>
<pdfrwt beam="1">  1       -4 0.15858123E+00 0.10781329E+04</pdfrwt>
<totfact> 0.62462938E+00</totfact>
</mgrwt>
</event>
<event>
 6    2  0.2267664E-005  0.1078390E+04  0.7818608E-02  0.9507250E-01
         21   -1    0    0  501  502  0.00000000000E+00  0.00000000000E+00  0.17476299356E+03  0.17476299356E+03  0.00000000000E+00 0. -1.
         -4   -1    0    0    0  501 -0.00000000000E+00 -0.00000000000E+00 -0.35019567282E+04  0.35019567282E+04  0.00000000000E+00 0. -1.
   -9000010    2    1    2    0  502  0.37569041538E+03  0.11301519860E+03 -0.17854845132E+04  0.20858762166E+04  0.10044943607E+04 0.  0.
         13    1    3    3    0    0  0.22329121779E+03 -0.21269185894E+03 -0.48632129100E+02  0.31218886903E+03  0.10566000000E+00 0. -1.
         -4    1    3    3    0  502  0.15239919758E+03  0.32570705754E+03 -0.17368523841E+04  0.17736873475E+04  0.00000000000E+00 0. -1.
        -13    1    1    2    0    0 -0.37569041538E+03 -0.11301519860E+03 -0.15417092215E+04  0.15908435052E+04  0.10566000000E+00 0.  1.
<mgrwt>
<rscale>  1 0.83751427E+03</rscale>
<asrwt>0</asrwt>
<pdfrwt beam="1">  1       21 0.26886613E-01 0.10783898E+04</pdfrwt>
<pdfrwt beam="2">  1       -4 0.53876260E+00 0.10783898E+04</pdfrwt>
<totfact> 0.32182770E-01</totfact>
</mgrwt>
</event>
<event>
 6    2  0.2267664E-005  0.1096768E+04  0.7818608E-02  0.1000468E+00
         21   -1    0    0  501  502  0.00000000000E+00  0.00000000000E+00  0.20234707441E+04  0.20234707441E+04  0.00000000000E+00 0. -1.
         -4   -1    0    0    0  501 -0.00000000000E+00 -0.00000000000E+00 -0.29823445190E+03  0.29823445190E+03  0.00000000000E+00 0. -1.
   -9000010    2    1    2    0  502  0.46203619296E+02  0.54740564299E+02  0.18656064056E+04  0.21641136870E+04  0.10944265557E+04 0.  0.
         13    1    3    3    0    0  0.55751777896E+03  0.84293990358E+02  0.76669601683E+03  0.95171127138E+03  0.10566000000E+00 0. -1.
         -4    1    3    3    0  502 -0.51131415967E+03 -0.29553426059E+02  0.10989103887E+04  0.12124024156E+04  0.00000000000E+00 0. -1.
        -13    1    1    2    0    0 -0.46203619296E+02 -0.54740564299E+02 -0.14037011339E+03  0.15759150901E+03  0.10566000000E+00 0.  1.
<mgrwt>
<rscale>  1 0.55445303E+03</rscale>
<asrwt>0</asrwt>
<pdfrwt beam="1">  1       21 0.31130318E+00 0.10967683E+04</pdfrwt>
<pdfrwt beam="2">  1       -4 0.45882225E-01 0.10967683E+04</pdfrwt>
<totfact> 0.40733518E+00</totfact>
</mgrwt>
</event>
<event>
 6    2  0.2267664E-005  0.1008344E+04  0.7818608E-02  0.1003266E+00
         -4   -1    0    0    0  501 -0.00000000000E+00  0.00000000000E+00  0.40238719408E+03  0.40238719408E+03  0.00000000000E+00 0. -1.
         21   -1    0    0  501  502  0.00000000000E+00 -0.00000000000E+00 -0.74292789992E+03  0.74292789992E+03  0.00000000000E+00 0. -1.
   -9000010    2    1    2    0  502  0.83716177757E+02  0.10943689295E+02 -0.32533156269E+03  0.10595276127E+04  0.10048034502E+04 0.  0.
         13    1    3    3    0    0  0.63977262280E+01 -0.44808016469E+03  0.64013160258E+02  0.45267478475E+03  0.10566000000E+00 0. -1.
         -4    1    3    3    0  502  0.77318451528E+02  0.45902385399E+03 -0.38934472295E+03  0.60685282793E+03  0.00000000000E+00 0. -1.
        -13    1    1    2    0    0 -0.83716177757E+02 -0.10943689295E+02 -0.15209143151E+02  0.85787481330E+02  0.10566000000E+00 0.  1.
<mgrwt>
<rscale>  1 0.54241152E+03</rscale>
<asrwt>0</asrwt>
<pdfrwt beam="2">  1       21 0.11429660E+00 0.10083443E+04</pdfrwt>
<pdfrwt beam="1">  1       -4 0.61905722E-01 0.10083443E+04</pdfrwt>
<totfact> 0.54488342E+01</totfact>
</mgrwt>
</event>
<event>
 6    2  0.2267664E-005  0.1391678E+04  0.7818608E-02  0.9056614E-01
         21   -1    0    0  501  502  0.00000000000E+00  0.00000000000E+00  0.12352953975E+04  0.12352953975E+04  0.00000000000E+00 0.  1.
         -4   -1    0    0    0  501 -0.00000000000E+00 -0.00000000000E+00 -0.12503848123E+04  0.12503848123E+04  0.00000000000E+00 0. -1.
   -9000010    2    1    2    0  502 -0.75352077918E+03 -0.58568318957E+03  0.39542769395E+03  0.14467660310E+04  0.10128921582E+04 0.  0.
         13    1    3    3    0    0 -0.64842529727E+02 -0.60102128364E+03 -0.80001556705E+02  0.60977979409E+03  0.10566000000E+00 0. -1.
         -4    1    3    3    0  502 -0.68867824945E+03  0.15338094064E+02  0.47542925066E+03  0.83698623691E+03  0.00000000000E+00 0. -1.
        -13    1    1    2    0    0  0.75352077918E+03  0.58568318957E+03 -0.41051710872E+03  0.10389141788E+04  0.10566000000E+00 0.  1.
<mgrwt>
<rscale>  1 0.12664357E+04</rscale>
<asrwt>0</asrwt>
<pdfrwt beam="1">  1       21 0.19004545E+00 0.13916784E+04</pdfrwt>
<pdfrwt beam="2">  1       -4 0.19236689E+00 0.13916784E+04</pdfrwt>
<totfact> 0.73433930E-01</totfact>
</mgrwt>
</event>
<event>
 6    2  0.2267664E-005  0.9764704E+03  0.7818608E-02  0.9781479E-01
         -4   -1    0    0    0  501 -0.00000000000E+00  0.00000000000E+00  0.12672881262E+04  0.12672881262E+04  0.00000000000E+00 0. -1.
         21   -1    0    0  501  502  0.00000000000E+00 -0.00000000000E+00 -0.10238526106E+04  0.10238526106E+04  0.00000000000E+00 0. -1.
   -9000010    2    1    2    0  502  0.16850144526E+03  0.12255365301E+03 -0.77810026614E+03  0.12485729935E+04  0.95398236932E+03 0.  0.
         13    1    3    3    0    0  0.36221795749E+03  0.24264238285E+03 -0.89269278159E+03  0.99346745701E+03  0.10566000000E+00 0. -1.
         -4    1    3    3    0  502 -0.19371651223E+03 -0.12008872983E+03  0.11459251545E+03  0.25510553647E+03  0.00000000000E+00 0. -1.
        -13    1    1    2    0    0 -0.16850144526E+03 -0.12255365301E+03  0.10215357818E+04  0.10425677434E+04  0.10566000000E+00 0.  1.
<mgrwt>
<rscale>  1 0.66366013E+03</rscale>
<asrwt>0</asrwt>
<pdfrwt beam="2">  1       21 0.15751579E+00 0.97647043E+03</pdfrwt>
<pdfrwt beam="1">  1       -4 0.19496741E+00 0.97647043E+03</pdfrwt>
<totfact> 0.13098985E+00</totfact>
</mgrwt>
</event>
<event>
 6    2  0.2267664E-005  0.1006773E+04  0.7818608E-02  0.9795285E-01
         -4   -1    0    0    0  501 -0.00000000000E+00  0.00000000000E+00  0.50270561598E+03  0.50270561598E+03  0.00000000000E+00 0. -1.
         21   -1    0    0  501  502  0.00000000000E+00 -0.00000000000E+00 -0.96689009819E+03  0.96689009819E+03  0.00000000000E+00 0. -1.
   -9000010    2    1    2    0  502  0.70670847699E+02 -0.16734513177E+03 -0.65896208976E+03  0.12032555381E+04  0.99024951012E+03 0.  0.
         13    1    3    3    0    0 -0.55628371127E+02 -0.27853233142E+03 -0.88043189138E+03  0.92511356160E+03  0.10566000000E+00 0. -1.
         -4    1    3    3    0  502  0.12629921883E+03  0.11118719965E+03  0.22146980162E+03  0.27814197647E+03  0.00000000000E+00 0. -1.
        -13    1    1    2    0    0 -0.70670847699E+02  0.16734513177E+03  0.19477760754E+03  0.26634017610E+03  0.10566000000E+00 0.  1.
<mgrwt>
<rscale>  1 0.65616196E+03</rscale>
<asrwt>0</asrwt>
<pdfrwt beam="2">  1       21 0.14875232E+00 0.10067735E+04</pdfrwt>
<pdfrwt beam="1">  1       -4 0.77339325E-01 0.10067735E+04</pdfrwt>
<totfact> 0.16423588E+01</totfact>
</mgrwt>
</event>
<event>
 6    2  0.2267664E-005  0.1145742E+04  0.7818608E-02  0.9410579E-01
         -4   -1    0    0    0  501 -0.00000000000E+00  0.00000000000E+00  0.81610795255E+03  0.81610795255E+03  0.00000000000E+00 0. -1.
         21   -1    0    0  501  502  0.00000000000E+00 -0.00000000000E+00 -0.79688547796E+03  0.79688547796E+03  0.00000000000E+00 0.  1.
   -9000010    2    1    2    0  502  0.59201352981E+02  0.45633966486E+03 -0.54129533266E+02  0.11470200213E+04  0.10492731927E+04 0.  0.
         13    1    3    3    0    0 -0.43400593134E+03  0.99638362554E+02 -0.24611206063E+03  0.50878296874E+03  0.10566000000E+00 0. -1.
         -4    1    3    3    0  502  0.49320728433E+03  0.35670130231E+03  0.19198252736E+03  0.63823705251E+03  0.00000000000E+00 0. -1.
        -13    1    1    2    0    0 -0.59201352981E+02 -0.45633966486E+03  0.73352007858E+02  0.46597340926E+03  0.10566000000E+00 0.  1.
<mgrwt>
<rscale>  1 0.91210168E+03</rscale>
<asrwt>0</asrwt>
<pdfrwt beam="2">  1       21 0.12259777E+00 0.11457421E+04</pdfrwt>
<pdfrwt beam="1">  1       -4 0.12555507E+00 0.11457421E+04</pdfrwt>
<totfact> 0.84870983E+00</totfact>
</mgrwt>
</event>
<event>
 6    2  0.2267664E-005  0.1011159E+04  0.7818608E-02  0.9777793E-01
         21   -1    0    0  501  502  0.00000000000E+00  0.00000000000E+00  0.21347802820E+03  0.21347802820E+03  0.00000000000E+00 0. -1.
         -4   -1    0    0    0  501 -0.00000000000E+00 -0.00000000000E+00 -0.17035108378E+04  0.17035108378E+04  0.00000000000E+00 0. -1.
   -9000010    2    1    2    0  502 -0.18724831155E+03  0.31833429766E+02 -0.11863814841E+04  0.15588276787E+04  0.99316031370E+03 0.  0.
         13    1    3    3    0    0 -0.33410363824E+03  0.29134993619E+02  0.27122909400E+02  0.33646656939E+03  0.10566000000E+00 0. -1.
         -4    1    3    3    0  502  0.14685532669E+03  0.26984361468E+01 -0.12135043935E+04  0.12223611094E+04  0.00000000000E+00 0. -1.
        -13    1    1    2    0    0  0.18724831155E+03 -0.31833429766E+02 -0.30365132544E+03  0.35816118722E+03  0.10566000000E+00 0.  1.
<mgrwt>
<rscale>  1 0.66568056E+03</rscale>
<asrwt>0</asrwt>
<pdfrwt beam="1">  1       21 0.32842775E-01 0.10111591E+04</pdfrwt>
<pdfrwt beam="2">  1       -4 0.26207858E+00 0.10111591E+04</pdfrwt>
<totfact> 0.19326970E+01</totfact>
</mgrwt>
</event>
<event>
 6    2  0.2267664E-005  0.1020742E+04  0.7818608E-02  0.9869036E-01
         21   -1    0    0  501  502  0.00000000000E+00  0.00000000000E+00  0.14475072145E+03  0.14475072145E+03  0.00000000000E+00 0. -1.
         -4   -1    0    0    0  501 -0.00000000000E+00 -0.00000000000E+00 -0.24939726950E+04  0.24939726950E+04  0.00000000000E+00 0. -1.
   -9000010    2    1    2    0  502 -0.13283357654E+03 -0.33636702730E+02 -0.17674060827E+04  0.20409894214E+04  0.10115025310E+04 0.  0.
         13    1    3    3    0    0 -0.39389079264E+02 -0.27050324677E+03 -0.17653093861E+04  0.17863484391E+04  0.10566000000E+00 0. -1.
         -4    1    3    3    0  502 -0.93444497280E+02  0.23686654404E+03 -0.20966966633E+01  0.25464098235E+03  0.00000000000E+00 0. -1.
        -13    1    1    2    0    0  0.13283357654E+03  0.33636702730E+02 -0.58181589086E+03  0.59773399506E+03  0.10566000000E+00 0.  1.
<mgrwt>
<rscale>  1 0.61785681E+03</rscale>
<asrwt>0</asrwt>
<pdfrwt beam="1">  1       21 0.22269342E-01 0.10207417E+04</pdfrwt>
<pdfrwt beam="2">  1       -4 0.38368810E+00 0.10207417E+04</pdfrwt>
<totfact> 0.70786954E+00</totfact>
</mgrwt>
</event>
<event>
 6    2  0.2267664E-005  0.1057306E+04  0.7818608E-02  0.9612090E-01
         21   -1    0    0  501  502  0.00000000000E+00  0.00000000000E+00  0.11438066525E+04  0.11438066525E+04  0.00000000000E+00 0. -1.
         -4   -1    0    0    0  501 -0.00000000000E+00 -0.00000000000E+00 -0.54759749375E+03  0.54759749375E+03  0.00000000000E+00 0. -1.
   -9000010    2    1    2    0  502  0.47418089189E+02  0.28587470216E+03  0.80948332690E+03  0.13316004464E+04  0.10168203734E+04 0.  0.
         13    1    3    3    0    0 -0.30898605576E+03  0.38209474968E+03  0.82704950691E+03  0.96201854371E+03  0.10566000000E+00 0. -1.
         -4    1    3    3    0  502  0.35640414495E+03 -0.96220047518E+02 -0.17566180015E+02  0.36958190265E+03  0.00000000000E+00 0. -1.
        -13    1    1    2    0    0 -0.47418089189E+02 -0.28587470216E+03 -0.21327416813E+03  0.35980369992E+03  0.10566000000E+00 0.  1.
<mgrwt>
<rscale>  1 0.76501147E+03</rscale>
<asrwt>0</asrwt>
<pdfrwt beam="1">  1       21 0.17597025E+00 0.10573062E+04</pdfrwt>
<pdfrwt beam="2">  1       -4 0.84245769E-01 0.10573062E+04</pdfrwt>
<totfact> 0.82702015E+00</totfact>
</mgrwt>
</event>
<event>
 6    2  0.2267664E-005  0.1038954E+04  0.7818608E-02  0.9647081E-01
         21   -1    0    0  501  502  0.00000000000E+00  0.00000000000E+00  0.37806155318E+03  0.37806155318E+03  0.00000000000E+00 0. -1.
         -4   -1    0    0    0  501 -0.00000000000E+00 -0.00000000000E+00 -0.17531648625E+04  0.17531648625E+04  0.00000000000E+00 0. -1.
   -9000010    2    1    2    0  502 -0.12634900368E+03  0.23987747350E+03 -0.39040048580E+03  0.11098817457E+04  0.10029554712E+04 0.  0.
         13    1    3    3    0    0  0.25065843205E+03 -0.14173317497E+03 -0.48609093920E+03  0.56497995963E+03  0.10566000000E+00 0. -1.
         -4    1    3    3    0  502 -0.37700743573E+03  0.38161064847E+03  0.95690453398E+02  0.54490178610E+03  0.00000000000E+00 0. -1.
        -13    1    1    2    0    0  0.12634900368E+03 -0.23987747350E+03 -0.98470282350E+03  0.10213446699E+04  0.10566000000E+00 0.  1.
<mgrwt>
<rscale>  1 0.74256930E+03</rscale>
<asrwt>0</asrwt>
<pdfrwt beam="1">  1       21 0.58163316E-01 0.10389538E+04</pdfrwt>
<pdfrwt beam="2">  1       -4 0.26971767E+00 0.10389538E+04</pdfrwt>
<totfact> 0.51360765E+00</totfact>
</mgrwt>
</event>
<event>
 6    2  0.2267664E-005  0.1098861E+04  0.7818608E-02  0.9476346E-01
         21   -1    0    0  501  502  0.00000000000E+00  0.00000000000E+00  0.40353451414E+03  0.40353451414E+03  0.00000000000E+00 0.  1.
         -4   -1    0    0    0  501 -0.00000000000E+00 -0.00000000000E+00 -0.17655055200E+04  0.17655055200E+04  0.00000000000E+00 0. -1.
   -9000010    2    1    2    0  502  0.30773992148E+03  0.27576892771E+03 -0.48808722759E+03  0.12023833061E+04  0.10182063211E+04 0.  0.
         13    1    3    3    0    0  0.52964046680E+03  0.49638121568E+03 -0.14907306977E+03  0.74103719653E+03  0.10566000000E+00 0. -1.
         -4    1    3    3    0  502 -0.22190054532E+03 -0.22061228797E+03 -0.33901415781E+03  0.46134610957E+03  0.00000000000E+00 0. -1.
        -13    1    1    2    0    0 -0.30773992148E+03 -0.27576892771E+03 -0.87388377828E+03  0.96665672804E+03  0.10566000000E+00 0.  1.
<mgrwt>
<rscale>  1 0.86050430E+03</rscale>
<asrwt>0</asrwt>
<pdfrwt beam="1">  1       21 0.62082233E-01 0.10988614E+04</pdfrwt>
<pdfrwt beam="2">  1       -4 0.27161623E+00 0.10988614E+04</pdfrwt>
<totfact> 0.42886754E+00</totfact>
</mgrwt>
</event>
<event>
 6    2  0.2267664E-005  0.9918236E+03  0.7818608E-02  0.9873407E-01
         21   -1    0    0  501  502  0.00000000000E+00  0.00000000000E+00  0.16204126218E+04  0.16204126218E+04  0.00000000000E+00 0. -1.
         -4   -1    0    0    0  501 -0.00000000000E+00 -0.00000000000E+00 -0.23491608098E+03  0.23491608098E+03  0.00000000000E+00 0. -1.
   -9000010    2    1    2    0  502  0.14697663013E+03  0.92397189312E+01  0.13904933967E+04  0.17079771437E+04  0.98082951369E+03 0.  0.
         13    1    3    3    0    0 -0.17640448058E+03 -0.41232910657E+03  0.77002253327E+03  0.89110523835E+03  0.10566000000E+00 0. -1.
         -4    1    3    3    0  502  0.32338111071E+03  0.42156882551E+03  0.62047086347E+03  0.81687190539E+03  0.00000000000E+00 0. -1.
        -13    1    1    2    0    0 -0.14697663013E+03 -0.92397189312E+01 -0.49968559537E+01  0.14735155902E+03  0.10566000000E+00 0.  1.
<mgrwt>
<rscale>  1 0.61567575E+03</rscale>
<asrwt>0</asrwt>
<pdfrwt beam="1">  1       21 0.24929424E+00 0.99182359E+03</pdfrwt>
<pdfrwt beam="2">  1       -4 0.36140937E-01 0.99182359E+03</pdfrwt>
<totfact> 0.16503526E+01</totfact>
</mgrwt>
</event>
<event>
 6    2  0.2267664E-005  0.1195231E+04  0.7818608E-02  0.9262814E-01
         21   -1    0    0  501  502  0.00000000000E+00  0.00000000000E+00  0.54775055128E+03  0.54775055128E+03  0.00000000000E+00 0.  1.
         -4   -1    0    0    0  501 -0.00000000000E+00 -0.00000000000E+00 -0.19773484029E+04  0.19773484029E+04  0.00000000000E+00 0. -1.
   -9000010    2    1    2    0  502  0.21156468325E+03  0.65942710241E+03 -0.13874515902E+04  0.18312833900E+04  0.97415256534E+03 0.  0.
         13    1    3    3    0    0 -0.17831004245E+03 -0.14767749875E+03 -0.58147049833E+03  0.62586825009E+03  0.10566000000E+00 0. -1.
         -4    1    3    3    0  502  0.38987472570E+03  0.80710460117E+03 -0.80598109191E+03  0.12054151399E+04  0.00000000000E+00 0. -1.
        -13    1    1    2    0    0 -0.21156468325E+03 -0.65942710241E+03 -0.42146261369E+02  0.69381556419E+03  0.10566000000E+00 0.  1.
<mgrwt>
<rscale>  1 0.10427957E+04</rscale>
<asrwt>0</asrwt>
<pdfrwt beam="1">  1       21 0.84269317E-01 0.11952309E+04</pdfrwt>
<pdfrwt beam="2">  1       -4 0.30420744E+00 0.11952309E+04</pdfrwt>
<totfact> 0.13117142E+00</totfact>
</mgrwt>
</event>
<event>
 6    2  0.2267664E-005  0.1124158E+04  0.7818608E-02  0.9380534E-01
         21   -1    0    0  501  502  0.00000000000E+00  0.00000000000E+00  0.56469715810E+03  0.56469715810E+03  0.00000000000E+00 0. -1.
         -4   -1    0    0    0  501 -0.00000000000E+00 -0.00000000000E+00 -0.18592223460E+04  0.18592223460E+04  0.00000000000E+00 0. -1.
   -9000010    2    1    2    0  502 -0.52897494492E+03  0.12029939981E+03 -0.12047161985E+03  0.11305950167E+04  0.98460410450E+03 0.  0.
         13    1    3    3    0    0 -0.18261850207E+02  0.24151808786E+03 -0.44984827192E+03  0.51090895554E+03  0.10566000000E+00 0. -1.
         -4    1    3    3    0  502 -0.51071309472E+03 -0.12121868805E+03  0.32937665207E+03  0.61968606114E+03  0.00000000000E+00 0. -1.
        -13    1    1    2    0    0  0.52897494492E+03 -0.12029939981E+03 -0.11740535680E+04  0.12933244874E+04  0.10566000000E+00 0.  1.
<mgrwt>
<rscale>  1 0.93695096E+03</rscale>
<asrwt>0</asrwt>
<pdfrwt beam="1">  1       21 0.86876486E-01 0.11241582E+04</pdfrwt>
<pdfrwt beam="2">  1       -4 0.28603421E+00 0.11241582E+04</pdfrwt>
<totfact> 0.15970898E+00</totfact>
</mgrwt>
</event>
<event>
 6    2  0.2267664E-005  0.8911288E+03  0.7818608E-02  0.9779323E-01
         21   -1    0    0  501  502  0.00000000000E+00  0.00000000000E+00  0.14538800255E+04  0.14538800255E+04  0.00000000000E+00 0. -1.
         -4   -1    0    0    0  501 -0.00000000000E+00 -0.00000000000E+00 -0.32443126462E+03  0.32443126462E+03  0.00000000000E+00 0. -1.
   -9000010    2    1    2    0  502 -0.27103445392E+03 -0.52587977393E+02  0.11987181023E+04  0.14936651529E+04  0.84728113973E+03 0.  0.
         13    1    3    3    0    0 -0.29320863660E+03 -0.45611828801E+02  0.20207394424E+01  0.29674203958E+03  0.10566000000E+00 0. -1.
         -4    1    3    3    0  502  0.22174182676E+02 -0.69761485928E+01  0.11966973629E+04  0.11969231134E+04  0.00000000000E+00 0. -1.
        -13    1    1    2    0    0  0.27103445392E+03  0.52587977393E+02 -0.69269341440E+02  0.28464613717E+03  0.10566000000E+00 0.  1.
<mgrwt>
<rscale>  1 0.66484080E+03</rscale>
<asrwt>0</asrwt>
<pdfrwt beam="1">  1       21 0.22367385E+00 0.89112878E+03</pdfrwt>
<pdfrwt beam="2">  1       -4 0.49912503E-01 0.89112878E+03</pdfrwt>
<totfact> 0.12612122E+01</totfact>
</mgrwt>
</event>
<event>
 6    2  0.2267664E-005  0.1047212E+04  0.7818608E-02  0.9694761E-01
         -4   -1    0    0    0  501 -0.00000000000E+00  0.00000000000E+00  0.39097301689E+03  0.39097301689E+03  0.00000000000E+00 0. -1.
         21   -1    0    0  501  502  0.00000000000E+00 -0.00000000000E+00 -0.12749642374E+04  0.12749642374E+04  0.00000000000E+00 0. -1.
   -9000010    2    1    2    0  502 -0.16618514600E+03  0.15229008118E+03 -0.96732825807E+03  0.14256148779E+04  0.10226651699E+04 0.  0.
         13    1    3    3    0    0 -0.57976560160E+03 -0.32737887684E+02 -0.65483057582E+03  0.87521598265E+03  0.10566000000E+00 0. -1.
         -4    1    3    3    0  502  0.41358045560E+03  0.18502796886E+03 -0.31249768224E+03  0.55039889528E+03  0.00000000000E+00 0. -1.
        -13    1    1    2    0    0  0.16618514600E+03 -0.15229008118E+03  0.83337037577E+02  0.24032237634E+03  0.10566000000E+00 0.  1.
<mgrwt>
<rscale>  1 0.71329553E+03</rscale>
<asrwt>0</asrwt>
<pdfrwt beam="2">  1       21 0.19614834E+00 0.10472124E+04</pdfrwt>
<pdfrwt beam="1">  1       -4 0.60149696E-01 0.10472124E+04</pdfrwt>
<totfact> 0.12676791E+01</totfact>
</mgrwt>
</event>
<event>
 6    2  0.2267664E-005  0.9922061E+03  0.7818608E-02  0.9843238E-01
         -4   -1    0    0    0  501 -0.00000000000E+00  0.00000000000E+00  0.21031961257E+03  0.21031961257E+03  0.00000000000E+00 0. -1.
         21   -1    0    0  501  502  0.00000000000E+00 -0.00000000000E+00 -0.16123229546E+04  0.16123229546E+04  0.00000000000E+00 0. -1.
   -9000010    2    1    2    0  502  0.12491485520E+03 -0.10350342665E+03 -0.12806950187E+04  0.16200780075E+04  0.97885460561E+03 0.  0.
         13    1    3    3    0    0  0.98123260610E+02  0.38115005668E+03 -0.21367133440E+03  0.44783812956E+03  0.10566000000E+00 0. -1.
         -4    1    3    3    0  502  0.26791594586E+02 -0.48465348334E+03 -0.10670236843E+04  0.11722398779E+04  0.00000000000E+00 0. -1.
        -13    1    1    2    0    0 -0.12491485520E+03  0.10350342665E+03 -0.12130832331E+03  0.20256455970E+03  0.10566000000E+00 0.  1.
<mgrwt>
<rscale>  1 0.63092879E+03</rscale>
<asrwt>0</asrwt>
<pdfrwt beam="2">  1       21 0.24804968E+00 0.99220614E+03</pdfrwt>
<pdfrwt beam="1">  1       -4 0.32356864E-01 0.99220614E+03</pdfrwt>
<totfact> 0.20949673E+01</totfact>
</mgrwt>
</event>
<event>
 6    2  0.2267664E-005  0.1261794E+04  0.7818608E-02  0.9196333E-01
         -4   -1    0    0    0  501 -0.00000000000E+00  0.00000000000E+00  0.16300411560E+04  0.16300411560E+04  0.00000000000E+00 0. -1.
         21   -1    0    0  501  502  0.00000000000E+00 -0.00000000000E+00 -0.70634914556E+03  0.70634914556E+03  0.00000000000E+00 0.  1.
   -9000010    2    1    2    0  502  0.66969913092E+03 -0.34492964234E+03  0.95497119157E+03  0.15824328873E+04  0.10122502072E+04 0.  0.
         13    1    3    3    0    0  0.84855956692E+03 -0.13244678387E+02  0.47616149791E+03  0.97311794936E+03  0.10566000000E+00 0. -1.
         -4    1    3    3    0  502 -0.17886043599E+03 -0.33168496395E+03  0.47880969367E+03  0.60931493796E+03  0.00000000000E+00 0. -1.
        -13    1    1    2    0    0 -0.66969913092E+03  0.34492964234E+03 -0.31279181147E+02  0.75395741422E+03  0.10566000000E+00 0.  1.
<mgrwt>
<rscale>  1 0.11091354E+04</rscale>
<asrwt>0</asrwt>
<pdfrwt beam="2">  1       21 0.10866910E+00 0.12617939E+04</pdfrwt>
<pdfrwt beam="1">  1       -4 0.25077556E+00 0.12617939E+04</pdfrwt>
<totfact> 0.14900910E+00</totfact>
</mgrwt>
</event>
<event>
 6    2  0.2267664E-005  0.1090689E+04  0.7818608E-02  0.9463105E-01
         21   -1    0    0  501  502  0.00000000000E+00  0.00000000000E+00  0.50359695286E+03  0.50359695286E+03  0.00000000000E+00 0.  1.
         -4   -1    0    0    0  501 -0.00000000000E+00 -0.00000000000E+00 -0.11715015828E+04  0.11715015828E+04  0.00000000000E+00 0. -1.
   -9000010    2    1    2    0  502 -0.43787034088E+03 -0.65567835732E+02 -0.42920560144E+03  0.11721007088E+04  0.99678134345E+03 0.  0.
         13    1    3    3    0    0 -0.49900704585E+03  0.19269523819E+03 -0.63932535957E+03  0.83359247429E+03  0.10566000000E+00 0. -1.
         -4    1    3    3    0  502  0.61136704969E+02 -0.25826307392E+03  0.21011975813E+03  0.33850823447E+03  0.00000000000E+00 0. -1.
        -13    1    1    2    0    0  0.43787034088E+03  0.65567835732E+02 -0.23869902851E+03  0.50299782692E+03  0.10566000000E+00 0.  1.
<mgrwt>
<rscale>  1 0.87059450E+03</rscale>
<asrwt>0</asrwt>
<pdfrwt beam="1">  1       21 0.77476456E-01 0.10906891E+04</pdfrwt>
<pdfrwt beam="2">  1       -4 0.18023101E+00 0.10906891E+04</pdfrwt>
<totfact> 0.99751710E+00</totfact>
</mgrwt>
</event>
<event>
 6    2  0.2267664E-005  0.1070118E+04  0.7818608E-02  0.9579432E-01
         -4   -1    0    0    0  501 -0.00000000000E+00  0.00000000000E+00  0.74494757367E+03  0.74494757367E+03  0.00000000000E+00 0. -1.
         21   -1    0    0  501  502  0.00000000000E+00 -0.00000000000E+00 -0.15042977466E+04  0.15042977466E+04  0.00000000000E+00 0. -1.
   -9000010    2    1    2    0  502 -0.29294393900E+03 -0.10912040499E+03 -0.12636664416E+04  0.16559002906E+04  0.10234400240E+04 0.  0.
         13    1    3    3    0    0  0.37030927949E+03  0.80782211549E+02 -0.41103808968E+03  0.55911273506E+03  0.10566000000E+00 0. -1.
         -4    1    3    3    0  502 -0.66325321849E+03 -0.18990261654E+03 -0.85262835190E+03  0.10967875556E+04  0.00000000000E+00 0. -1.
        -13    1    1    2    0    0  0.29294393900E+03  0.10912040499E+03  0.50431626866E+03  0.59334502962E+03  0.10566000000E+00 0.  1.
<mgrwt>
<rscale>  1 0.78672625E+03</rscale>
<asrwt>0</asrwt>
<pdfrwt beam="2">  1       21 0.23143042E+00 0.10701182E+04</pdfrwt>
<pdfrwt beam="1">  1       -4 0.11460732E+00 0.10701182E+04</pdfrwt>
<totfact> 0.16387443E+00</totfact>
</mgrwt>
</event>
<event>
 6    2  0.2267664E-005  0.1013282E+04  0.7818608E-02  0.9876442E-01
         21   -1    0    0  501  502  0.00000000000E+00  0.00000000000E+00  0.13974277430E+04  0.13974277430E+04  0.00000000000E+00 0. -1.
         -4   -1    0    0    0  501 -0.00000000000E+00 -0.00000000000E+00 -0.28448023244E+03  0.28448023244E+03  0.00000000000E+00 0. -1.
   -9000010    2    1    2    0  502  0.91247469075E+02 -0.10186731643E+03  0.11572329250E+04  0.15381572890E+04  0.10040103347E+04 0.  0.
         13    1    3    3    0    0  0.23229451956E+03  0.25408779084E+03  0.10980181909E+04  0.11507238191E+04  0.10566000000E+00 0. -1.
         -4    1    3    3    0  502 -0.14104705049E+03 -0.35595510726E+03  0.59214734167E+02  0.38743346988E+03  0.00000000000E+00 0. -1.
        -13    1    1    2    0    0 -0.91247469075E+02  0.10186731643E+03 -0.44285414424E+02  0.14375068648E+03  0.10566000000E+00 0.  1.
<mgrwt>
<rscale>  1 0.61416737E+03</rscale>
<asrwt>0</asrwt>
<pdfrwt beam="1">  1       21 0.21498888E+00 0.10132817E+04</pdfrwt>
<pdfrwt beam="2">  1       -4 0.43766191E-01 0.10132817E+04</pdfrwt>
<totfact> 0.18609187E+01</totfact>
</mgrwt>
</event>
<event>
 6    2  0.2267664E-005  0.1105748E+04  0.7818608E-02  0.9736409E-01
         21   -1    0    0  501  502  0.00000000000E+00  0.00000000000E+00  0.31672751529E+03  0.31672751529E+03  0.00000000000E+00 0. -1.
         -4   -1    0    0    0  501 -0.00000000000E+00 -0.00000000000E+00 -0.14391752619E+04  0.14391752619E+04  0.00000000000E+00 0. -1.
   -9000010    2    1    2    0  502 -0.81938210967E+02  0.14504658880E+03 -0.71778849747E+03  0.13182939308E+04  0.10931267894E+04 0.  0.
         13    1    3    3    0    0  0.13946023141E+03 -0.43500388478E+03 -0.45293783796E+03  0.64329637970E+03  0.10566000000E+00 0. -1.
         -4    1    3    3    0  502 -0.22139844237E+03  0.58005047357E+03 -0.26485065951E+03  0.67499755112E+03  0.00000000000E+00 0. -1.
        -13    1    1    2    0    0  0.81938210967E+02 -0.14504658880E+03 -0.40465924910E+03  0.43760884633E+03  0.10566000000E+00 0.  1.
<mgrwt>
<rscale>  1 0.68889760E+03</rscale>
<asrwt>0</asrwt>
<pdfrwt beam="1">  1       21 0.48727311E-01 0.11057480E+04</pdfrwt>
<pdfrwt beam="2">  1       -4 0.22141158E+00 0.11057480E+04</pdfrwt>
<totfact> 0.15020031E+01</totfact>
</mgrwt>
</event>
<event>
 6    2  0.2267664E-005  0.1034602E+04  0.7818608E-02  0.9599490E-01
         -4   -1    0    0    0  501 -0.00000000000E+00  0.00000000000E+00  0.56910429758E+03  0.56910429758E+03  0.00000000000E+00 0. -1.
         21   -1    0    0  501  502  0.00000000000E+00 -0.00000000000E+00 -0.90130427683E+03  0.90130427683E+03  0.00000000000E+00 0. -1.
   -9000010    2    1    2    0  502 -0.30316226420E+03  0.11117011216E+03 -0.44791400085E+03  0.11273985188E+04  0.98292131721E+03 0.  0.
         13    1    3    3    0    0  0.29783324531E+03  0.15944724465E+03 -0.39852681412E+03  0.52244779507E+03  0.10566000000E+00 0. -1.
         -4    1    3    3    0  502 -0.60099550951E+03 -0.48277132495E+02 -0.49387186732E+02  0.60495072376E+03  0.00000000000E+00 0. -1.
        -13    1    1    2    0    0  0.30316226420E+03 -0.11117011216E+03  0.11571402160E+03  0.34301005558E+03  0.10566000000E+00 0.  1.
<mgrwt>
<rscale>  1 0.77329960E+03</rscale>
<asrwt>0</asrwt>
<pdfrwt beam="2">  1       21 0.13866220E+00 0.10346016E+04</pdfrwt>
<pdfrwt beam="1">  1       -4 0.87554508E-01 0.10346016E+04</pdfrwt>
<totfact> 0.14911437E+01</totfact>
</mgrwt>
</event>
<event>
 6    2  0.2267664E-005  0.1061446E+04  0.7818608E-02  0.9568832E-01
         -4   -1    0    0    0  501 -0.00000000000E+00  0.00000000000E+00  0.53614002580E+03  0.53614002580E+03  0.00000000000E+00 0. -1.
         21   -1    0    0  501  502  0.00000000000E+00 -0.00000000000E+00 -0.94228743228E+03  0.94228743228E+03  0.00000000000E+00 0. -1.
   -9000010    2    1    2    0  502 -0.25690254616E+02  0.33124710611E+03 -0.43020942476E+03  0.11453154253E+04  0.10081084465E+04 0.  0.
         13    1    3    3    0    0  0.43368447123E+03  0.31681949057E+03 -0.33405402383E+02  0.53811963564E+03  0.10566000000E+00 0. -1.
         -4    1    3    3    0  502 -0.45937472584E+03  0.14427615543E+02 -0.39680402237E+03  0.60719578968E+03  0.00000000000E+00 0. -1.
        -13    1    1    2    0    0  0.25690254616E+02 -0.33124710611E+03  0.24062018274E+02  0.33311203277E+03  0.10566000000E+00 0.  1.
<mgrwt>
<rscale>  1 0.79393868E+03</rscale>
<asrwt>0</asrwt>
<pdfrwt beam="2">  1       21 0.14496730E+00 0.10614458E+04</pdfrwt>
<pdfrwt beam="1">  1       -4 0.82483081E-01 0.10614458E+04</pdfrwt>
<totfact> 0.15122250E+01</totfact>
</mgrwt>
</event>
<event>
 6    2  0.2267664E-005  0.1053854E+04  0.7818608E-02  0.9572992E-01
         21   -1    0    0  501  502  0.00000000000E+00  0.00000000000E+00  0.99320617700E+03  0.99320617700E+03  0.00000000000E+00 0. -1.
         -4   -1    0    0    0  501 -0.00000000000E+00 -0.00000000000E+00 -0.89624760635E+03  0.89624760635E+03  0.00000000000E+00 0. -1.
   -9000010    2    1    2    0  502 -0.99216595052E+01 -0.33449466890E+03  0.65351649598E+03  0.12400372312E+04  0.99931146361E+03 0.  0.
         13    1    3    3    0    0 -0.28508408112E+03 -0.60397137861E+03  0.39047993079E+03  0.77364652588E+03  0.10566000000E+00 0. -1.
         -4    1    3    3    0  502  0.27516242162E+03  0.26947670971E+03  0.26303656518E+03  0.46639070528E+03  0.00000000000E+00 0. -1.
        -13    1    1    2    0    0  0.99216595052E+01  0.33449466890E+03 -0.55655792532E+03  0.64941655219E+03  0.10566000000E+00 0.  1.
<mgrwt>
<rscale>  1 0.79109825E+03</rscale>
<asrwt>0</asrwt>
<pdfrwt beam="1">  1       21 0.15280095E+00 0.10538541E+04</pdfrwt>
<pdfrwt beam="2">  1       -4 0.13788425E+00 0.10538541E+04</pdfrwt>
<totfact> 0.37078664E+00</totfact>
</mgrwt>
</event>
<event>
 6    2  0.2267664E-005  0.1054645E+04  0.7818608E-02  0.9512349E-01
         -4   -1    0    0    0  501 -0.00000000000E+00  0.00000000000E+00  0.23643660305E+04  0.23643660305E+04  0.00000000000E+00 0. -1.
         21   -1    0    0  501  502  0.00000000000E+00 -0.00000000000E+00 -0.27530956409E+03  0.27530956409E+03  0.00000000000E+00 0. -1.
   -9000010    2    1    2    0  502 -0.41094068367E+03 -0.29799647042E+02  0.91786556931E+03  0.13981247929E+04  0.97083235878E+03 0.  0.
         13    1    3    3    0    0 -0.40813130291E+03  0.27485509005E+03  0.97128274833E+03  0.10888097489E+04  0.10566000000E+00 0. -1.
         -4    1    3    3    0  502 -0.28093807559E+01 -0.30465473709E+03 -0.53417179017E+02  0.30931504404E+03  0.00000000000E+00 0. -1.
        -13    1    1    2    0    0  0.41094068367E+03  0.29799647042E+02  0.11711908971E+04  0.12415508016E+04  0.10566000000E+00 0.  1.
<mgrwt>
<rscale>  1 0.83379480E+03</rscale>
<asrwt>0</asrwt>
<pdfrwt beam="2">  1       21 0.42355319E-01 0.10546448E+04</pdfrwt>
<pdfrwt beam="1">  1       -4 0.36374861E+00 0.10546448E+04</pdfrwt>
<totfact> 0.25990961E+00</totfact>
</mgrwt>
</event>
<event>
 6    2  0.2267664E-005  0.1011329E+04  0.7818608E-02  0.9638335E-01
         21   -1    0    0  501  502  0.00000000000E+00  0.00000000000E+00  0.66471624285E+03  0.66471624285E+03  0.00000000000E+00 0. -1.
         -4   -1    0    0    0  501 -0.00000000000E+00 -0.00000000000E+00 -0.68218805754E+03  0.68218805754E+03  0.00000000000E+00 0. -1.
   -9000010    2    1    2    0  502 -0.24926596523E+03  0.17192215517E+03  0.11213853287E+03  0.10175267022E+04  0.96493253142E+03 0.  0.
         13    1    3    3    0    0 -0.27590144406E+03  0.40109904952E+03  0.41297998047E+03  0.63839997634E+03  0.10566000000E+00 0. -1.
         -4    1    3    3    0  502  0.26635478834E+02 -0.22917689435E+03 -0.30084144760E+03  0.37912672582E+03  0.00000000000E+00 0. -1.
        -13    1    1    2    0    0  0.24926596523E+03 -0.17192215517E+03 -0.12961034755E+03  0.32937759823E+03  0.10566000000E+00 0.  1.
<mgrwt>
<rscale>  1 0.74810045E+03</rscale>
<asrwt>0</asrwt>
<pdfrwt beam="1">  1       21 0.10226404E+00 0.10113286E+04</pdfrwt>
<pdfrwt beam="2">  1       -4 0.10495201E+00 0.10113286E+04</pdfrwt>
<totfact> 0.21361298E+01</totfact>
</mgrwt>
</event>
<event>
 6    2  0.2267664E-005  0.1021303E+04  0.7818608E-02  0.9736101E-01
         21   -1    0    0  501  502  0.00000000000E+00  0.00000000000E+00  0.69337081048E+03  0.69337081048E+03  0.00000000000E+00 0. -1.
         -4   -1    0    0    0  501 -0.00000000000E+00 -0.00000000000E+00 -0.55308369166E+03  0.55308369166E+03  0.00000000000E+00 0. -1.
   -9000010    2    1    2    0  502  0.16210384728E+03 -0.13606659372E+03  0.71031437912E+02  0.10237705653E+04  0.99913409008E+03 0.  0.
         13    1    3    3    0    0  0.57647530902E+03 -0.16004839981E+03 -0.20906269547E+02  0.59864543385E+03  0.10566000000E+00 0. -1.
         -4    1    3    3    0  502 -0.41437146174E+03  0.23981806092E+02  0.91937707459E+02  0.42512513144E+03  0.00000000000E+00 0. -1.
        -13    1    1    2    0    0 -0.16210384728E+03  0.13606659372E+03  0.69255680900E+02  0.22268393685E+03  0.10566000000E+00 0.  1.
<mgrwt>
<rscale>  1 0.68907413E+03</rscale>
<asrwt>0</asrwt>
<pdfrwt beam="1">  1       21 0.10667243E+00 0.10213034E+04</pdfrwt>
<pdfrwt beam="2">  1       -4 0.85089799E-01 0.10213034E+04</pdfrwt>
<totfact> 0.31633633E+01</totfact>
</mgrwt>
</event>
<event>
 6    2  0.2267664E-005  0.1037243E+04  0.7818608E-02  0.9946631E-01
         21   -1    0    0  501  502  0.00000000000E+00  0.00000000000E+00  0.16276866298E+04  0.16276866298E+04  0.00000000000E+00 0. -1.
         -4   -1    0    0    0  501 -0.00000000000E+00 -0.00000000000E+00 -0.20044702086E+03  0.20044702086E+03  0.00000000000E+00 0. -1.
   -9000010    2    1    2    0  502 -0.10177082272E+03  0.15674254145E+01  0.13365009660E+04  0.16917765105E+04  0.10322369749E+04 0.  0.
         13    1    3    3    0    0 -0.46445068536E+03 -0.28873622495E+03  0.90687596142E+03  0.10590123074E+04  0.10566000000E+00 0. -1.
         -4    1    3    3    0  502  0.36267986264E+03  0.29030365036E+03  0.42962500457E+03  0.63276420310E+03  0.00000000000E+00 0. -1.
        -13    1    1    2    0    0  0.10177082272E+03 -0.15674254145E+01  0.90738642996E+02  0.13635714017E+03  0.10566000000E+00 0.  1.
<mgrwt>
<rscale>  1 0.58053596E+03</rscale>
<asrwt>0</asrwt>
<pdfrwt beam="1">  1       21 0.25041332E+00 0.10372429E+04</pdfrwt>
<pdfrwt beam="2">  1       -4 0.30838004E-01 0.10372429E+04</pdfrwt>
<totfact> 0.22108435E+01</totfact>
</mgrwt>
</event>
<event>
 6    2  0.2267664E-005  0.1002924E+04  0.7818608E-02  0.1021911E+00
         21   -1    0    0  501  502  0.00000000000E+00  0.00000000000E+00  0.19386993924E+04  0.19386993924E+04  0.00000000000E+00 0. -1.
         -4   -1    0    0    0  501 -0.00000000000E+00 -0.00000000000E+00 -0.15643204920E+03  0.15643204920E+03  0.00000000000E+00 0. -1.
   -9000010    2    1    2    0  502 -0.95905163388E+01  0.47423965926E+02  0.17841435841E+04  0.20467109708E+04  0.10017566864E+04 0.  0.
         13    1    3    3    0    0 -0.14502952693E+03  0.40085025633E+03  0.15361823055E+04  0.15942304033E+04  0.10566000000E+00 0. -1.
         -4    1    3    3    0  502  0.13543901059E+03 -0.35342629040E+03  0.24796127858E+03  0.45248056755E+03  0.00000000000E+00 0. -1.
        -13    1    1    2    0    0  0.95905163388E+01 -0.47423965926E+02 -0.18762409091E+01  0.48420470792E+02  0.10566000000E+00 0.  1.
<mgrwt>
<rscale>  1 0.47003137E+03</rscale>
<asrwt>0</asrwt>
<pdfrwt beam="1">  1       21 0.29826143E+00 0.10029245E+04</pdfrwt>
<pdfrwt beam="2">  1       -4 0.24066471E-01 0.10029245E+04</pdfrwt>
<totfact> 0.17996167E+01</totfact>
</mgrwt>
</event>
<event>
 6    2  0.2267664E-005  0.1141082E+04  0.7818608E-02  0.9513119E-01
         21   -1    0    0  501  502  0.00000000000E+00  0.00000000000E+00  0.39724418378E+03  0.39724418378E+03  0.00000000000E+00 0. -1.
         -4   -1    0    0    0  501 -0.00000000000E+00 -0.00000000000E+00 -0.17767239123E+04  0.17767239123E+04  0.00000000000E+00 0. -1.
   -9000010    2    1    2    0  502 -0.38637813900E+02  0.32211922863E+03 -0.51748113920E+03  0.12529386409E+04  0.10939903246E+04 0.  0.
         13    1    3    3    0    0 -0.14969800182E+03  0.68608596512E+03 -0.51765459114E+03  0.87240456795E+03  0.10566000000E+00 0. -1.
         -4    1    3    3    0  502  0.11106018792E+03 -0.36396673649E+03  0.17345193958E+00  0.38053407298E+03  0.00000000000E+00 0. -1.
        -13    1    1    2    0    0  0.38637813900E+02 -0.32211922863E+03 -0.86199858932E+03  0.92102945516E+03  0.10566000000E+00 0.  1.
<mgrwt>
<rscale>  1 0.83323471E+03</rscale>
<asrwt>0</asrwt>
<pdfrwt beam="1">  1       21 0.61114492E-01 0.11410822E+04</pdfrwt>
<pdfrwt beam="2">  1       -4 0.27334213E+00 0.11410822E+04</pdfrwt>
<totfact> 0.43120664E+00</totfact>
</mgrwt>
</event>
<event>
 6    2  0.2267664E-005  0.1025336E+04  0.7818608E-02  0.9646431E-01
         -4   -1    0    0    0  501 -0.00000000000E+00  0.00000000000E+00  0.83430769139E+03  0.83430769139E+03  0.00000000000E+00 0. -1.
         21   -1    0    0  501  502  0.00000000000E+00 -0.00000000000E+00 -0.57368745680E+03  0.57368745680E+03  0.00000000000E+00 0. -1.
   -9000010    2    1    2    0  502  0.19693591100E+03  0.20280048843E+03  0.27188504550E+01  0.10253400473E+04  0.98559780299E+03 0.  0.
         13    1    3    3    0    0 -0.39743721765E+03  0.37888279704E+00 -0.71914922861E-01  0.39743741880E+03  0.10566000000E+00 0. -1.
         -4    1    3    3    0  502  0.59437312865E+03  0.20242160564E+03  0.27907653779E+01  0.62790262849E+03  0.00000000000E+00 0. -1.
        -13    1    1    2    0    0 -0.19693591100E+03 -0.20280048843E+03  0.25790138413E+03  0.38265510090E+03  0.10566000000E+00 0.  1.
<mgrwt>
<rscale>  1 0.74297835E+03</rscale>
<asrwt>0</asrwt>
<pdfrwt beam="2">  1       21 0.88259609E-01 0.10253364E+04</pdfrwt>
<pdfrwt beam="1">  1       -4 0.12835503E+00 0.10253364E+04</pdfrwt>
<totfact> 0.18507540E+01</totfact>
</mgrwt>
</event>
<event>
 6    2  0.2267664E-005  0.9518427E+03  0.7818608E-02  0.1021891E+00
         -4   -1    0    0    0  501 -0.00000000000E+00  0.00000000000E+00  0.36074176995E+03  0.36074176995E+03  0.00000000000E+00 0. -1.
         21   -1    0    0  501  502  0.00000000000E+00 -0.00000000000E+00 -0.73588929777E+03  0.73588929777E+03  0.00000000000E+00 0. -1.
   -9000010    2    1    2    0  502 -0.32732041078E+02  0.46217161502E+02 -0.40285263823E+03  0.10335834917E+04  0.95015639436E+03 0.  0.
         13    1    3    3    0    0  0.35664880191E+03  0.20352940329E+03 -0.45209624103E+03  0.61074840010E+03  0.10566000000E+00 0. -1.
         -4    1    3    3    0  502 -0.38938084299E+03 -0.15731224179E+03  0.49243602799E+02  0.42283509164E+03  0.00000000000E+00 0. -1.
        -13    1    1    2    0    0  0.32732041078E+02 -0.46217161502E+02  0.27705110409E+02  0.63047575982E+02  0.10566000000E+00 0.  1.
<mgrwt>
<rscale>  1 0.47010345E+03</rscale>
<asrwt>0</asrwt>
<pdfrwt beam="2">  1       21 0.11321374E+00 0.95184273E+03</pdfrwt>
<pdfrwt beam="1">  1       -4 0.55498734E-01 0.95184273E+03</pdfrwt>
<totfact> 0.71086828E+01</totfact>
</mgrwt>
</event>
<event>
 6    2  0.2267664E-005  0.1032665E+04  0.7818608E-02  0.9631979E-01
         -4   -1    0    0    0  501 -0.00000000000E+00  0.00000000000E+00  0.77908802637E+03  0.77908802637E+03  0.00000000000E+00 0. -1.
         21   -1    0    0  501  502  0.00000000000E+00 -0.00000000000E+00 -0.62947047772E+03  0.62947047772E+03  0.00000000000E+00 0. -1.
   -9000010    2    1    2    0  502  0.37276985996E+02  0.28823303822E+03  0.30793744902E+03  0.10776007122E+04  0.99092379344E+03 0.  0.
         13    1    3    3    0    0  0.48152525799E+03  0.22927675631E+03  0.33301656432E+03  0.62875627102E+03  0.10566000000E+00 0. -1.
         -4    1    3    3    0  502 -0.44424827199E+03  0.58956281905E+02 -0.25079115307E+02  0.44884444117E+03  0.00000000000E+00 0. -1.
        -13    1    1    2    0    0 -0.37276985996E+02 -0.28823303822E+03 -0.15831990036E+03  0.33095779190E+03  0.10566000000E+00 0.  1.
<mgrwt>
<rscale>  1 0.75215304E+03</rscale>
<asrwt>0</asrwt>
<pdfrwt beam="2">  1       21 0.96841612E-01 0.10326654E+04</pdfrwt>
<pdfrwt beam="1">  1       -4 0.11985970E+00 0.10326654E+04</pdfrwt>
<totfact> 0.17567724E+01</totfact>
</mgrwt>
</event>
<event>
 6    2  0.2267664E-005  0.1121854E+04  0.7818608E-02  0.9386816E-01
         21   -1    0    0  501  502  0.00000000000E+00  0.00000000000E+00  0.52694962999E+03  0.52694962999E+03  0.00000000000E+00 0. -1.
         -4   -1    0    0    0  501 -0.00000000000E+00 -0.00000000000E+00 -0.13206582167E+04  0.13206582167E+04  0.00000000000E+00 0. -1.
   -9000010    2    1    2    0  502  0.16801424018E+03  0.50652877198E+03 -0.42831877918E+03  0.12008390283E+04  0.98679137291E+03 0.  0.
         13    1    3    3    0    0 -0.18220686456E+03  0.69799315025E+03 -0.30360150075E+03  0.78266701841E+03  0.10566000000E+00 0. -1.
         -4    1    3    3    0  502  0.35022110475E+03 -0.19146437827E+03 -0.12471727844E+03  0.41817200994E+03  0.00000000000E+00 0. -1.
        -13    1    1    2    0    0 -0.16801424018E+03 -0.50652877198E+03 -0.36538980748E+03  0.64676881830E+03  0.10566000000E+00 0.  1.
<mgrwt>
<rscale>  1 0.93168675E+03</rscale>
<asrwt>0</asrwt>
<pdfrwt beam="1">  1       21 0.81069173E-01 0.11218544E+04</pdfrwt>
<pdfrwt beam="2">  1       -4 0.20317819E+00 0.11218544E+04</pdfrwt>
<totfact> 0.62466819E+00</totfact>
</mgrwt>
</event>
<event>
 6    2  0.2267664E-005  0.1113865E+04  0.7818608E-02  0.9431717E-01
         21   -1    0    0  501  502  0.00000000000E+00  0.00000000000E+00  0.75987732889E+03  0.75987732889E+03  0.00000000000E+00 0. -1.
         -4   -1    0    0    0  501 -0.00000000000E+00 -0.00000000000E+00 -0.86676066684E+03  0.86676066684E+03  0.00000000000E+00 0. -1.
   -9000010    2    1    2    0  502 -0.17033575316E+03 -0.43216211288E+03 -0.24803295348E+03  0.11411469188E+04  0.10123821333E+04 0.  0.
         13    1    3    3    0    0  0.32169075496E+03  0.89893472517E+02 -0.26061516264E+03  0.42365794267E+03  0.10566000000E+00 0. -1.
         -4    1    3    3    0  502 -0.49202650812E+03 -0.52205558540E+03  0.12582209152E+02  0.71748897617E+03  0.00000000000E+00 0. -1.
        -13    1    1    2    0    0  0.17033575316E+03  0.43216211288E+03  0.14114961553E+03  0.48549107689E+03  0.10566000000E+00 0.  1.
<mgrwt>
<rscale>  1 0.89510824E+03</rscale>
<asrwt>0</asrwt>
<pdfrwt beam="1">  1       21 0.11690420E+00 0.11138653E+04</pdfrwt>
<pdfrwt beam="2">  1       -4 0.13334780E+00 0.11138653E+04</pdfrwt>
<totfact> 0.82555459E+00</totfact>
</mgrwt>
</event>
<event>
 6    2  0.2267664E-005  0.1062289E+04  0.7818608E-02  0.9798376E-01
         21   -1    0    0  501  502  0.00000000000E+00  0.00000000000E+00  0.78155130766E+03  0.78155130766E+03  0.00000000000E+00 0. -1.
         -4   -1    0    0    0  501 -0.00000000000E+00 -0.00000000000E+00 -0.49489285181E+03  0.49489285181E+03  0.00000000000E+00 0. -1.
   -9000010    2    1    2    0  502 -0.14147192774E+02 -0.15242001888E+03  0.33835801729E+03  0.11148741714E+04  0.10512022950E+04 0.  0.
         13    1    3    3    0    0 -0.11958120305E+03 -0.36124357334E+03 -0.26768897470E+03  0.46524615178E+03  0.10566000000E+00 0. -1.
         -4    1    3    3    0  502  0.10543401027E+03  0.20882355446E+03  0.60604699199E+03  0.64962801965E+03  0.00000000000E+00 0. -1.
        -13    1    1    2    0    0  0.14147192774E+02  0.15242001888E+03 -0.51699561429E+02  0.16156998804E+03  0.10566000000E+00 0.  1.
<mgrwt>
<rscale>  1 0.65449792E+03</rscale>
<asrwt>0</asrwt>
<pdfrwt beam="1">  1       21 0.12023866E+00 0.10622892E+04</pdfrwt>
<pdfrwt beam="2">  1       -4 0.76137362E-01 0.10622892E+04</pdfrwt>
<totfact> 0.29984918E+01</totfact>
</mgrwt>
</event>
<event>
 6    2  0.2267664E-005  0.1153680E+04  0.7818608E-02  0.9320906E-01
         -4   -1    0    0    0  501 -0.00000000000E+00  0.00000000000E+00  0.21824632916E+04  0.21824632916E+04  0.00000000000E+00 0. -1.
         21   -1    0    0  501  502  0.00000000000E+00 -0.00000000000E+00 -0.40007973602E+03  0.40007973602E+03  0.00000000000E+00 0. -1.
   -9000010    2    1    2    0  502  0.63770589388E+02  0.61929919699E+03  0.74702371315E+03  0.13744171244E+04  0.97127741685E+03 0.  0.
         13    1    3    3    0    0 -0.23652129861E+03  0.55529256011E+03  0.41515015367E+02  0.60499228068E+03  0.10566000000E+00 0. -1.
         -4    1    3    3    0  502  0.30029188800E+03  0.64006636880E+02  0.70550869778E+03  0.76942484376E+03  0.00000000000E+00 0. -1.
        -13    1    1    2    0    0 -0.63770589388E+02 -0.61929919699E+03  0.10353598425E+04  0.12081259032E+04  0.10566000000E+00 0.  1.
<mgrwt>
<rscale>  1 0.98880760E+03</rscale>
<asrwt>0</asrwt>
<pdfrwt beam="2">  1       21 0.61550730E-01 0.11536802E+04</pdfrwt>
<pdfrwt beam="1">  1       -4 0.33576358E+00 0.11536802E+04</pdfrwt>
<totfact> 0.17256496E+00</totfact>
</mgrwt>
</event>
<event>
 6    2  0.2267664E-005  0.1153972E+04  0.7818608E-02  0.9600563E-01
         21   -1    0    0  501  502  0.00000000000E+00  0.00000000000E+00  0.82413512088E+03  0.82413512088E+03  0.00000000000E+00 0. -1.
         -4   -1    0    0    0  501 -0.00000000000E+00 -0.00000000000E+00 -0.59798348297E+03  0.59798348297E+03  0.00000000000E+00 0. -1.
   -9000010    2    1    2    0  502  0.42495720946E+02 -0.22792283249E+03  0.27243109319E+03  0.11856941909E+04  0.11304412015E+04 0.  0.
         13    1    3    3    0    0  0.15138747000E+03 -0.50526698014E+03 -0.25043435611E+03  0.58389234040E+03  0.10566000000E+00 0. -1.
         -4    1    3    3    0  502 -0.10889174906E+03  0.27734414765E+03  0.52286544930E+03  0.60180185055E+03  0.00000000000E+00 0. -1.
        -13    1    1    2    0    0 -0.42495720946E+02  0.22792283249E+03 -0.46279455276E+02  0.23642441290E+03  0.10566000000E+00 0.  1.
<mgrwt>
<rscale>  1 0.77258914E+03</rscale>
<asrwt>0</asrwt>
<pdfrwt beam="1">  1       21 0.12679002E+00 0.11539723E+04</pdfrwt>
<pdfrwt beam="2">  1       -4 0.91997459E-01 0.11539723E+04</pdfrwt>
<totfact> 0.16666083E+01</totfact>
</mgrwt>
</event>
<event>
 6    2  0.2267664E-005  0.1106521E+04  0.7818608E-02  0.9426627E-01
         21   -1    0    0  501  502  0.00000000000E+00  0.00000000000E+00  0.50135924821E+03  0.50135924821E+03  0.00000000000E+00 0. -1.
         -4   -1    0    0    0  501 -0.00000000000E+00 -0.00000000000E+00 -0.12649611197E+04  0.12649611197E+04  0.00000000000E+00 0. -1.
   -9000010    2    1    2    0  502  0.46946546549E+02  0.48018794608E+03 -0.47542859412E+03  0.12043343443E+04  0.99579336359E+03 0.  0.
         13    1    3    3    0    0 -0.35408061679E+03  0.51689865754E+03 -0.49895272509E+03  0.80094390465E+03  0.10566000000E+00 0. -1.
         -4    1    3    3    0  502  0.40102716334E+03 -0.36710711455E+02  0.23524130973E+02  0.40339043966E+03  0.00000000000E+00 0. -1.
        -13    1    1    2    0    0 -0.46946546549E+02 -0.48018794608E+03 -0.28817327741E+03  0.56198602364E+03  0.10566000000E+00 0.  1.
<mgrwt>
<rscale>  1 0.89916421E+03</rscale>
<asrwt>0</asrwt>
<pdfrwt beam="1">  1       21 0.77132192E-01 0.11065211E+04</pdfrwt>
<pdfrwt beam="2">  1       -4 0.19460940E+00 0.11065211E+04</pdfrwt>
<totfact> 0.80221158E+00</totfact>
</mgrwt>
</event>
<event>
 6    2  0.2267664E-005  0.9977437E+03  0.7818608E-02  0.9955309E-01
         -4   -1    0    0    0  501 -0.00000000000E+00  0.00000000000E+00  0.34483609439E+03  0.34483609439E+03  0.00000000000E+00 0. -1.
         21   -1    0    0  501  502  0.00000000000E+00 -0.00000000000E+00 -0.89840198438E+03  0.89840198438E+03  0.00000000000E+00 0. -1.
   -9000010    2    1    2    0  502 -0.13934558281E+02  0.11036396888E+03 -0.46369140360E+03  0.11002282469E+04  0.99152312125E+03 0.  0.
         13    1    3    3    0    0 -0.23445416870E+03 -0.38688697905E+03 -0.18153166230E+03  0.48744645589E+03  0.10566000000E+00 0. -1.
         -4    1    3    3    0  502  0.22051961042E+03  0.49725094793E+03 -0.28215974130E+03  0.61278179102E+03  0.00000000000E+00 0. -1.
        -13    1    1    2    0    0  0.13934558281E+02 -0.11036396888E+03 -0.89874486396E+02  0.14300983186E+03  0.10566000000E+00 0.  1.
<mgrwt>
<rscale>  1 0.57654043E+03</rscale>
<asrwt>0</asrwt>
<pdfrwt beam="2">  1       21 0.13821569E+00 0.99774369E+03</pdfrwt>
<pdfrwt beam="1">  1       -4 0.53051708E-01 0.99774369E+03</pdfrwt>
<totfact> 0.46178289E+01</totfact>
</mgrwt>
</event>
<event>
 6    2  0.2267664E-005  0.1037546E+04  0.7818608E-02  0.9807842E-01
         -4   -1    0    0    0  501 -0.00000000000E+00  0.00000000000E+00  0.36421228077E+03  0.36421228077E+03  0.00000000000E+00 0. -1.
         21   -1    0    0  501  502  0.00000000000E+00 -0.00000000000E+00 -0.11271778237E+04  0.11271778237E+04  0.00000000000E+00 0. -1.
   -9000010    2    1    2    0  502 -0.13866760440E+03  0.78334683343E+02 -0.81975034257E+03  0.13223056530E+04  0.10252495250E+04 0.  0.
         13    1    3    3    0    0  0.21814003231E+03 -0.39107628691E+03 -0.36378843661E+03  0.57694694180E+03  0.10566000000E+00 0. -1.
         -4    1    3    3    0  502 -0.35680763672E+03  0.46941097025E+03 -0.45596190596E+03  0.74535871116E+03  0.00000000000E+00 0. -1.
        -13    1    1    2    0    0  0.13866760440E+03 -0.78334683343E+02  0.56784799600E+02  0.16908445155E+03  0.10566000000E+00 0.  1.
<mgrwt>
<rscale>  1 0.64943389E+03</rscale>
<asrwt>0</asrwt>
<pdfrwt beam="2">  1       21 0.17341198E+00 0.10375460E+04</pdfrwt>
<pdfrwt beam="1">  1       -4 0.56032658E-01 0.10375460E+04</pdfrwt>
<totfact> 0.21540998E+01</totfact>
</mgrwt>
</event>
<event>
 6    2  0.2267664E-005  0.1020714E+04  0.7818608E-02  0.9699019E-01
         21   -1    0    0  501  502  0.00000000000E+00  0.00000000000E+00  0.44845494032E+03  0.44845494032E+03  0.00000000000E+00 0. -1.
         -4   -1    0    0    0  501 -0.00000000000E+00 -0.00000000000E+00 -0.90436941127E+03  0.90436941127E+03  0.00000000000E+00 0. -1.
   -9000010    2    1    2    0  502  0.33630772649E+02  0.23760369143E+03 -0.44242534649E+03  0.11124735440E+04  0.99210415578E+03 0.  0.
         13    1    3    3    0    0 -0.26147757992E+03  0.10941547578E+00  0.22505654537E+03  0.34499419785E+03  0.10566000000E+00 0. -1.
         -4    1    3    3    0  502  0.29510835257E+03  0.23749427595E+03 -0.66748189186E+03  0.76747934619E+03  0.00000000000E+00 0. -1.
        -13    1    1    2    0    0 -0.33630772649E+02 -0.23760369143E+03 -0.13489124453E+02  0.24035080756E+03  0.10566000000E+00 0.  1.
<mgrwt>
<rscale>  1 0.71075229E+03</rscale>
<asrwt>0</asrwt>
<pdfrwt beam="1">  1       21 0.68993070E-01 0.10207141E+04</pdfrwt>
<pdfrwt beam="2">  1       -4 0.13913375E+00 0.10207141E+04</pdfrwt>
<totfact> 0.26759681E+01</totfact>
</mgrwt>
</event>
<event>
 6    2  0.2267664E-005  0.9099802E+03  0.7818608E-02  0.9740180E-01
         -4   -1    0    0    0  501 -0.00000000000E+00  0.00000000000E+00  0.13198441151E+04  0.13198441151E+04  0.00000000000E+00 0. -1.
         21   -1    0    0  501  502  0.00000000000E+00 -0.00000000000E+00 -0.28797378526E+03  0.28797378526E+03  0.00000000000E+00 0. -1.
   -9000010    2    1    2    0  502 -0.28869523637E+03 -0.61494636919E+02  0.62008042008E+03  0.11011646947E+04  0.86077722297E+03 0.  0.
         13    1    3    3    0    0  0.22956476464E+03  0.12033804408E+02 -0.65096560494E+02  0.23891916408E+03  0.10566000000E+00 0. -1.
         -4    1    3    3    0  502 -0.51826000101E+03 -0.73528441326E+02  0.68517698058E+03  0.86224553061E+03  0.00000000000E+00 0. -1.
        -13    1    1    2    0    0  0.28869523637E+03  0.61494636919E+02  0.41178990971E+03  0.50665320563E+03  0.10566000000E+00 0.  1.
<mgrwt>
<rscale>  1 0.68674067E+03</rscale>
<asrwt>0</asrwt>
<pdfrwt beam="2">  1       21 0.44303660E-01 0.90998020E+03</pdfrwt>
<pdfrwt beam="1">  1       -4 0.20305294E+00 0.90998020E+03</pdfrwt>
<totfact> 0.24694743E+01</totfact>
</mgrwt>
</event>
<event>
 6    2  0.2267664E-005  0.9577305E+03  0.7818608E-02  0.9668086E-01
         21   -1    0    0  501  502  0.00000000000E+00  0.00000000000E+00  0.61421748335E+03  0.61421748335E+03  0.00000000000E+00 0. -1.
         -4   -1    0    0    0  501 -0.00000000000E+00 -0.00000000000E+00 -0.73918156279E+03  0.73918156279E+03  0.00000000000E+00 0. -1.
   -9000010    2    1    2    0  502  0.28208311740E+03  0.15604374179E+03  0.96063554950E+02  0.96253620472E+03  0.90184655254E+03 0.  0.
         13    1    3    3    0    0  0.50387797578E+02  0.48583368547E+03 -0.12316310301E+03  0.50372855904E+03  0.10566000000E+00 0. -1.
         -4    1    3    3    0  502  0.23169531983E+03 -0.32978994368E+03  0.21922665796E+03  0.45880764569E+03  0.00000000000E+00 0. -1.
        -13    1    1    2    0    0 -0.28208311740E+03 -0.15604374179E+03 -0.22102763439E+03  0.39086284142E+03  0.10566000000E+00 0.  1.
<mgrwt>
<rscale>  1 0.72949139E+03</rscale>
<asrwt>0</asrwt>
<pdfrwt beam="1">  1       21 0.94494998E-01 0.95773051E+03</pdfrwt>
<pdfrwt beam="2">  1       -4 0.11372024E+00 0.95773051E+03</pdfrwt>
<totfact> 0.21426695E+01</totfact>
</mgrwt>
</event>
<event>
 6    2  0.2267664E-005  0.1079820E+04  0.7818608E-02  0.9517664E-01
         -4   -1    0    0    0  501 -0.00000000000E+00  0.00000000000E+00  0.17385334029E+04  0.17385334029E+04  0.00000000000E+00 0. -1.
         21   -1    0    0  501  502  0.00000000000E+00 -0.00000000000E+00 -0.38530150693E+03  0.38530150693E+03  0.00000000000E+00 0. -1.
   -9000010    2    1    2    0  502  0.33507894212E+03 -0.17237820769E+03  0.49770751372E+03  0.11890011686E+04  0.10119381729E+04 0.  0.
         13    1    3    3    0    0 -0.30338577202E+03  0.49401292087E+02 -0.59445757518E+02  0.31307702499E+03  0.10566000000E+00 0. -1.
         -4    1    3    3    0  502  0.63846471414E+03 -0.22177949978E+03  0.55715327124E+03  0.87592414362E+03  0.00000000000E+00 0. -1.
        -13    1    1    2    0    0 -0.33507894212E+03  0.17237820769E+03  0.85552438222E+03  0.93483374119E+03  0.10566000000E+00 0.  1.
<mgrwt>
<rscale>  1 0.82993970E+03</rscale>
<asrwt>0</asrwt>
<pdfrwt beam="2">  1       21 0.59277156E-01 0.10798199E+04</pdfrwt>
<pdfrwt beam="1">  1       -4 0.26746667E+00 0.10798199E+04</pdfrwt>
<totfact> 0.50570386E+00</totfact>
</mgrwt>
</event>
<event>
 6    2  0.2267664E-005  0.1258773E+04  0.7818608E-02  0.9190497E-01
         21   -1    0    0  501  502  0.00000000000E+00  0.00000000000E+00  0.13654461696E+04  0.13654461696E+04  0.00000000000E+00 0.  1.
         -4   -1    0    0    0  501 -0.00000000000E+00 -0.00000000000E+00 -0.91990953991E+03  0.91990953991E+03  0.00000000000E+00 0. -1.
   -9000010    2    1    2    0  502  0.43675158486E+03  0.64081014545E+03 -0.20223071824E+03  0.12749141538E+04  0.99152369950E+03 0.  0.
         13    1    3    3    0    0 -0.23769621529E+03  0.19907400966E+03  0.20497940208E+03  0.37168066740E+03  0.10566000000E+00 0. -1.
         -4    1    3    3    0  502  0.67444780015E+03  0.44173613579E+03 -0.40721012032E+03  0.90323348636E+03  0.00000000000E+00 0. -1.
        -13    1    1    2    0    0 -0.43675158486E+03 -0.64081014545E+03  0.64776734795E+03  0.10104415558E+04  0.10566000000E+00 0.  1.
<mgrwt>
<rscale>  1 0.11152059E+04</rscale>
<asrwt>0</asrwt>
<pdfrwt beam="1">  1       21 0.21006864E+00 0.12587727E+04</pdfrwt>
<pdfrwt beam="2">  1       -4 0.14152455E+00 0.12587727E+04</pdfrwt>
<totfact> 0.12857677E+00</totfact>
</mgrwt>
</event>
<event>
 6    2  0.2267664E-005  0.1044195E+04  0.7818608E-02  0.9818709E-01
         21   -1    0    0  501  502  0.00000000000E+00  0.00000000000E+00  0.71265239950E+03  0.71265239950E+03  0.00000000000E+00 0.  1.
         -4   -1    0    0    0  501 -0.00000000000E+00 -0.00000000000E+00 -0.56918082470E+03  0.56918082470E+03  0.00000000000E+00 0. -1.
   -9000010    2    1    2    0  502 -0.50718434911E+02 -0.14199143711E+03 -0.39251906248E+02  0.10449328031E+04  0.10332521100E+04 0.  0.
         13    1    3    3    0    0 -0.47777953519E+03  0.17254653676E+03  0.35874069742E+02  0.50924704382E+03  0.10566000000E+00 0. -1.
         -4    1    3    3    0  502  0.42706110028E+03 -0.31453797387E+03 -0.75125975989E+02  0.53568575923E+03  0.00000000000E+00 0. -1.
        -13    1    1    2    0    0  0.50718434911E+02  0.14199143711E+03  0.18272348105E+03  0.23690042115E+03  0.10566000000E+00 0.  1.
<mgrwt>
<rscale>  1 0.64368101E+03</rscale>
<asrwt>0</asrwt>
<pdfrwt beam="1">  1       21 0.10963883E+00 0.10441953E+04</pdfrwt>
<pdfrwt beam="2">  1       -4 0.87566281E-01 0.10441953E+04</pdfrwt>
<totfact> 0.27545650E+01</totfact>
</mgrwt>
</event>
<event>
 6    2  0.2267664E-005  0.1006924E+04  0.7818608E-02  0.9766021E-01
         21   -1    0    0  501  502  0.00000000000E+00  0.00000000000E+00  0.78267792123E+03  0.78267792123E+03  0.00000000000E+00 0. -1.
         -4   -1    0    0    0  501 -0.00000000000E+00 -0.00000000000E+00 -0.69498502687E+03  0.69498502687E+03  0.00000000000E+00 0. -1.
   -9000010    2    1    2    0  502  0.19611931045E+03  0.39046803668E+02  0.41905082083E+03  0.10906416006E+04  0.98686780965E+03 0.  0.
         13    1    3    3    0    0  0.39771583980E+03 -0.26323411605E+03  0.52781020120E+03  0.71137452072E+03  0.10566000000E+00 0. -1.
         -4    1    3    3    0  502 -0.20159652935E+03  0.30228091971E+03 -0.10875938036E+03  0.37926707989E+03  0.00000000000E+00 0. -1.
        -13    1    1    2    0    0 -0.19611931045E+03 -0.39046803668E+02 -0.33135792647E+03  0.38702134749E+03  0.10566000000E+00 0.  1.
<mgrwt>
<rscale>  1 0.67218360E+03</rscale>
<asrwt>0</asrwt>
<pdfrwt beam="1">  1       21 0.12041199E+00 0.10069238E+04</pdfrwt>
<pdfrwt beam="2">  1       -4 0.10692077E+00 0.10069238E+04</pdfrwt>
<totfact> 0.13482995E+01</totfact>
</mgrwt>
</event>
<event>
 6    2  0.2267664E-005  0.1011965E+04  0.7818608E-02  0.9769306E-01
         21   -1    0    0  501  502  0.00000000000E+00  0.00000000000E+00  0.97317322999E+03  0.97317322999E+03  0.00000000000E+00 0. -1.
         -4   -1    0    0    0  501 -0.00000000000E+00 -0.00000000000E+00 -0.38235006028E+03  0.38235006028E+03  0.00000000000E+00 0. -1.
   -9000010    2    1    2    0  502 -0.19477404299E+03  0.60041469542E+01  0.41741800208E+03  0.10946740217E+04  0.99302590482E+03 0.  0.
         13    1    3    3    0    0 -0.46025902206E+03  0.23957705802E+03 -0.35470622333E+02  0.52009009828E+03  0.10566000000E+00 0. -1.
         -4    1    3    3    0  502  0.26548497907E+03 -0.23357291106E+03  0.45288862441E+03  0.57458392339E+03  0.00000000000E+00 0. -1.
        -13    1    1    2    0    0  0.19477404299E+03 -0.60041469542E+01  0.17340516763E+03  0.26084926860E+03  0.10566000000E+00 0.  1.
<mgrwt>
<rscale>  1 0.67036073E+03</rscale>
<asrwt>0</asrwt>
<pdfrwt beam="1">  1       21 0.14971896E+00 0.10119651E+04</pdfrwt>
<pdfrwt beam="2">  1       -4 0.58823087E-01 0.10119651E+04</pdfrwt>
<totfact> 0.29639512E+01</totfact>
</mgrwt>
</event>
<event>
 6    2  0.2267664E-005  0.1086886E+04  0.7818608E-02  0.9692148E-01
         -4   -1    0    0    0  501 -0.00000000000E+00  0.00000000000E+00  0.82803017824E+03  0.82803017824E+03  0.00000000000E+00 0. -1.
         21   -1    0    0  501  502  0.00000000000E+00 -0.00000000000E+00 -0.50551361555E+03  0.50551361555E+03  0.00000000000E+00 0. -1.
   -9000010    2    1    2    0  502 -0.17955975400E+03 -0.95536015665E+02  0.23435358849E+03  0.11118648441E+04  0.10676858113E+04 0.  0.
         13    1    3    3    0    0  0.13172060115E+03 -0.47570285534E+03 -0.11766304982E+03  0.50743288009E+03  0.10566000000E+00 0. -1.
         -4    1    3    3    0  502 -0.31128035515E+03  0.38016683967E+03  0.35201663831E+03  0.60443196402E+03  0.00000000000E+00 0. -1.
        -13    1    1    2    0    0  0.17955975400E+03  0.95536015665E+02  0.88162974200E+02  0.22167894968E+03  0.10566000000E+00 0.  1.
<mgrwt>
<rscale>  1 0.71486208E+03</rscale>
<asrwt>0</asrwt>
<pdfrwt beam="2">  1       21 0.77771325E-01 0.10868863E+04</pdfrwt>
<pdfrwt beam="1">  1       -4 0.12738926E+00 0.10868863E+04</pdfrwt>
<totfact> 0.25334434E+01</totfact>
</mgrwt>
</event>
<event>
 6    2  0.2267664E-005  0.9598687E+03  0.7818608E-02  0.9726349E-01
         21   -1    0    0  501  502  0.00000000000E+00  0.00000000000E+00  0.28046371620E+03  0.28046371620E+03  0.00000000000E+00 0.  1.
         -4   -1    0    0    0  501 -0.00000000000E+00 -0.00000000000E+00 -0.18358050023E+04  0.18358050023E+04  0.00000000000E+00 0. -1.
   -9000010    2    1    2    0  502  0.29683629173E+02  0.26167521080E+03 -0.61557225963E+03  0.11402969627E+04  0.92303462698E+03 0.  0.
         13    1    3    3    0    0 -0.70331965439E+02  0.60097115207E+03 -0.36236331189E+03  0.70528015140E+03  0.10566000000E+00 0. -1.
         -4    1    3    3    0  502  0.10001559461E+03 -0.33929594127E+03 -0.25320894775E+03  0.43501681134E+03  0.00000000000E+00 0. -1.
        -13    1    1    2    0    0 -0.29683629173E+02 -0.26167521080E+03 -0.93976902645E+03  0.97597175575E+03  0.10566000000E+00 0.  1.
<mgrwt>
<rscale>  1 0.69469414E+03</rscale>
<asrwt>0</asrwt>
<pdfrwt beam="1">  1       21 0.43148265E-01 0.95986872E+03</pdfrwt>
<pdfrwt beam="2">  1       -4 0.28243153E+00 0.95986872E+03</pdfrwt>
<totfact> 0.82734786E+00</totfact>
</mgrwt>
</event>
<event>
 6    2  0.2267664E-005  0.7993634E+03  0.7818608E-02  0.9828828E-01
         -4   -1    0    0    0  501 -0.00000000000E+00  0.00000000000E+00  0.16769006712E+03  0.16769006712E+03  0.00000000000E+00 0. -1.
         21   -1    0    0  501  502  0.00000000000E+00 -0.00000000000E+00 -0.21416741951E+04  0.21416741951E+04  0.00000000000E+00 0. -1.
   -9000010    2    1    2    0  502 -0.18852063696E+03 -0.26492368134E+03 -0.17203268363E+04  0.18969729186E+04  0.73024464581E+03 0.  0.
         13    1    3    3    0    0 -0.28687875709E+02  0.13183943557E+03 -0.12652477465E+04  0.12724215112E+04  0.10566000000E+00 0. -1.
         -4    1    3    3    0  502 -0.15983276126E+03 -0.39676311691E+03 -0.45507908977E+03  0.62455140738E+03  0.00000000000E+00 0. -1.
        -13    1    1    2    0    0  0.18852063696E+03  0.26492368134E+03 -0.25365729169E+03  0.41239134362E+03  0.10566000000E+00 0.  1.
<mgrwt>
<rscale>  1 0.63838136E+03</rscale>
<asrwt>0</asrwt>
<pdfrwt beam="2">  1       21 0.32948832E+00 0.79936339E+03</pdfrwt>
<pdfrwt beam="1">  1       -4 0.25798473E-01 0.79936339E+03</pdfrwt>
<totfact> 0.10487463E+01</totfact>
</mgrwt>
</event>
<event>
 6    2  0.2267664E-005  0.1009068E+04  0.7818608E-02  0.9687480E-01
         21   -1    0    0  501  502  0.00000000000E+00  0.00000000000E+00  0.29845079324E+03  0.29845079324E+03  0.00000000000E+00 0. -1.
         -4   -1    0    0    0  501 -0.00000000000E+00 -0.00000000000E+00 -0.15922420700E+04  0.15922420700E+04  0.00000000000E+00 0. -1.
   -9000010    2    1    2    0  502  0.25739447020E+03  0.20268440811E+02 -0.65845700947E+03  0.12048996252E+04  0.97547667859E+03 0.  0.
         13    1    3    3    0    0 -0.97203695682E+02  0.31183077763E+03 -0.67032882143E+03  0.74567267104E+03  0.10566000000E+00 0. -1.
         -4    1    3    3    0  502  0.35459816588E+03 -0.29156233682E+03  0.11871811966E+02  0.45922695415E+03  0.00000000000E+00 0. -1.
        -13    1    1    2    0    0 -0.25739447020E+03 -0.20268440811E+02 -0.63533426731E+03  0.68579323806E+03  0.10566000000E+00 0.  1.
<mgrwt>
<rscale>  1 0.71767133E+03</rscale>
<asrwt>0</asrwt>
<pdfrwt beam="1">  1       21 0.45915506E-01 0.10090676E+04</pdfrwt>
<pdfrwt beam="2">  1       -4 0.24496032E+00 0.10090676E+04</pdfrwt>
<totfact> 0.12261696E+01</totfact>
</mgrwt>
</event>
<event>
 6    2  0.2267664E-005  0.9993030E+03  0.7818608E-02  0.9620714E-01
         -4   -1    0    0    0  501 -0.00000000000E+00  0.00000000000E+00  0.97528308875E+03  0.97528308875E+03  0.00000000000E+00 0. -1.
         21   -1    0    0  501  502  0.00000000000E+00 -0.00000000000E+00 -0.49793786259E+03  0.49793786259E+03  0.00000000000E+00 0. -1.
   -9000010    2    1    2    0  502 -0.26930737650E+03  0.19632282297E+03  0.15812999708E+03  0.10117369457E+04  0.94209205356E+03 0.  0.
         13    1    3    3    0    0 -0.35917940586E+02 -0.95904889229E+01 -0.38444069757E+03  0.38623404439E+03  0.10566000000E+00 0. -1.
         -4    1    3    3    0  502 -0.23338943591E+03  0.20591331189E+03  0.54257069465E+03  0.62550290127E+03  0.00000000000E+00 0. -1.
        -13    1    1    2    0    0  0.26930737650E+03 -0.19632282297E+03  0.31921522908E+03  0.46148400568E+03  0.10566000000E+00 0.  1.
<mgrwt>
<rscale>  1 0.75940259E+03</rscale>
<asrwt>0</asrwt>
<pdfrwt beam="2">  1       21 0.76605825E-01 0.99930303E+03</pdfrwt>
<pdfrwt beam="1">  1       -4 0.15004355E+00 0.99930303E+03</pdfrwt>
<totfact> 0.17232151E+01</totfact>
</mgrwt>
</event>
<event>
 6    2  0.2267664E-005  0.1012446E+04  0.7818608E-02  0.9843384E-01
         21   -1    0    0  501  502  0.00000000000E+00  0.00000000000E+00  0.99355935426E+03  0.99355935426E+03  0.00000000000E+00 0. -1.
         -4   -1    0    0    0  501 -0.00000000000E+00 -0.00000000000E+00 -0.44062824080E+03  0.44062824080E+03  0.00000000000E+00 0. -1.
   -9000010    2    1    2    0  502 -0.13117699420E+03  0.78000865270E+02  0.69310729184E+03  0.12269657069E+04  0.10008774096E+04 0.  0.
         13    1    3    3    0    0 -0.58666898317E+02 -0.45511380074E+02 -0.25628852181E+03  0.26682748781E+03  0.10566000000E+00 0. -1.
         -4    1    3    3    0  502 -0.72510095882E+02  0.12351224534E+03  0.94939581365E+03  0.96013821907E+03  0.00000000000E+00 0. -1.
        -13    1    1    2    0    0  0.13117699420E+03 -0.78000865270E+02 -0.14017617838E+03  0.20722188818E+03  0.10566000000E+00 0.  1.
<mgrwt>
<rscale>  1 0.63085382E+03</rscale>
<asrwt>0</asrwt>
<pdfrwt beam="1">  1       21 0.15285528E+00 0.10124461E+04</pdfrwt>
<pdfrwt beam="2">  1       -4 0.67788960E-01 0.10124461E+04</pdfrwt>
<totfact> 0.20476821E+01</totfact>
</mgrwt>
</event>
<event>
 6    2  0.2267664E-005  0.1013532E+04  0.7818608E-02  0.9762600E-01
         21   -1    0    0  501  502  0.00000000000E+00  0.00000000000E+00  0.20006376144E+04  0.20006376144E+04  0.00000000000E+00 0. -1.
         -4   -1    0    0    0  501 -0.00000000000E+00 -0.00000000000E+00 -0.18571490485E+03  0.18571490485E+03  0.00000000000E+00 0. -1.
   -9000010    2    1    2    0  502 -0.13868864161E+03  0.14175382985E+03  0.15991825055E+04  0.18933123609E+04  0.99394080432E+03 0.  0.
         13    1    3    3    0    0 -0.54620921279E+03  0.23382865528E+03  0.99060718909E+03  0.11551289791E+04  0.10566000000E+00 0. -1.
         -4    1    3    3    0  502  0.40752057118E+03 -0.92074825423E+02  0.60857531640E+03  0.73818338178E+03  0.00000000000E+00 0. -1.
        -13    1    1    2    0    0  0.13868864161E+03 -0.14175382985E+03  0.21574020402E+03  0.29304015831E+03  0.10566000000E+00 0.  1.
<mgrwt>
<rscale>  1 0.67408828E+03</rscale>
<asrwt>0</asrwt>
<pdfrwt beam="1">  1       21 0.30779039E+00 0.10135319E+04</pdfrwt>
<pdfrwt beam="2">  1       -4 0.28571525E-01 0.10135319E+04</pdfrwt>
<totfact> 0.11266589E+01</totfact>
</mgrwt>
</event>
<event>
 6    2  0.2267664E-005  0.1069268E+04  0.7818608E-02  0.9552725E-01
         -4   -1    0    0    0  501 -0.00000000000E+00  0.00000000000E+00  0.16795653914E+04  0.16795653914E+04  0.00000000000E+00 0. -1.
         21   -1    0    0  501  502  0.00000000000E+00 -0.00000000000E+00 -0.40957509330E+03  0.40957509330E+03  0.00000000000E+00 0.  1.
   -9000010    2    1    2    0  502  0.82829685064E+02  0.33346271740E+03  0.13637715733E+04  0.17329760854E+04  0.10125586738E+04 0.  0.
         13    1    3    3    0    0 -0.44974855950E+03  0.34558123495E+02  0.47969261709E+03  0.65846264034E+03  0.10566000000E+00 0. -1.
         -4    1    3    3    0  502  0.53257824456E+03  0.29890459390E+03  0.88407895617E+03  0.10745134450E+04  0.00000000000E+00 0. -1.
        -13    1    1    2    0    0 -0.82829685064E+02 -0.33346271740E+03 -0.93781275140E+02  0.35616439934E+03  0.10566000000E+00 0.  1.
<mgrwt>
<rscale>  1 0.80505742E+03</rscale>
<asrwt>0</asrwt>
<pdfrwt beam="2">  1       21 0.63011553E-01 0.10692676E+04</pdfrwt>
<pdfrwt beam="1">  1       -4 0.25839467E+00 0.10692676E+04</pdfrwt>
<totfact> 0.50237873E+00</totfact>
</mgrwt>
</event>
<event>
 6    2  0.2267664E-005  0.1153947E+04  0.7818608E-02  0.9441705E-01
         -4   -1    0    0    0  501 -0.00000000000E+00  0.00000000000E+00  0.35934474961E+03  0.35934474961E+03  0.00000000000E+00 0. -1.
         21   -1    0    0  501  502  0.00000000000E+00 -0.00000000000E+00 -0.17781211534E+04  0.17781211534E+04  0.00000000000E+00 0. -1.
   -9000010    2    1    2    0  502  0.36024102274E+03 -0.18117662016E+03 -0.82021435299E+03  0.14157491289E+04  0.10812009291E+04 0.  0.
         13    1    3    3    0    0  0.18345925192E+03 -0.60854264263E+03 -0.68377386073E+03  0.93355671965E+03  0.10566000000E+00 0. -1.
         -4    1    3    3    0  502  0.17678177082E+03  0.42736602247E+03 -0.13644049225E+03  0.48219240929E+03  0.00000000000E+00 0. -1.
        -13    1    1    2    0    0 -0.36024102274E+03  0.18117662016E+03 -0.59856205077E+03  0.72171677405E+03  0.10566000000E+00 0.  1.
<mgrwt>
<rscale>  1 0.88721542E+03</rscale>
<asrwt>0</asrwt>
<pdfrwt beam="2">  1       21 0.27355710E+00 0.11539471E+04</pdfrwt>
<pdfrwt beam="1">  1       -4 0.55283808E-01 0.11539471E+04</pdfrwt>
<totfact> 0.46842061E+00</totfact>
</mgrwt>
</event>
<event>
 6    2  0.2267664E-005  0.1106479E+04  0.7818608E-02  0.9438425E-01
         -4   -1    0    0    0  501 -0.00000000000E+00  0.00000000000E+00  0.11341148437E+04  0.11341148437E+04  0.00000000000E+00 0. -1.
         21   -1    0    0  501  502  0.00000000000E+00 -0.00000000000E+00 -0.61258380361E+03  0.61258380361E+03  0.00000000000E+00 0. -1.
   -9000010    2    1    2    0  502  0.45222982179E+03  0.98058839307E+02  0.83673617571E+02  0.11096378329E+04  0.10050708921E+04 0.  0.
         13    1    3    3    0    0  0.50531453148E+03  0.18421607670E+03  0.46754293457E+03  0.71265331366E+03  0.10566000000E+00 0. -1.
         -4    1    3    3    0  502 -0.53084709683E+02 -0.86157237398E+02 -0.38386931700E+03  0.39698451921E+03  0.00000000000E+00 0. -1.
        -13    1    1    2    0    0 -0.45222982179E+03 -0.98058839307E+02  0.43785742253E+03  0.63706081446E+03  0.10566000000E+00 0.  1.
<mgrwt>
<rscale>  1 0.88979770E+03</rscale>
<asrwt>0</asrwt>
<pdfrwt beam="2">  1       21 0.94243662E-01 0.11064786E+04</pdfrwt>
<pdfrwt beam="1">  1       -4 0.17447921E+00 0.11064786E+04</pdfrwt>
<totfact> 0.68430046E+00</totfact>
</mgrwt>
</event>
<event>
 6    2  0.2267664E-005  0.1079104E+04  0.7818608E-02  0.9745874E-01
         -4   -1    0    0    0  501 -0.00000000000E+00  0.00000000000E+00  0.13349332656E+04  0.13349332656E+04  0.00000000000E+00 0. -1.
         21   -1    0    0  501  502  0.00000000000E+00 -0.00000000000E+00 -0.29534736682E+03  0.29534736682E+03  0.00000000000E+00 0. -1.
   -9000010    2    1    2    0  502 -0.17307233703E+03  0.14576409543E+02  0.93285224856E+03  0.14264213947E+04  0.10650343525E+04 0.  0.
         13    1    3    3    0    0  0.89744722850E+02 -0.27765820358E+03  0.98740691115E+03  0.10296215871E+04  0.10566000000E+00 0. -1.
         -4    1    3    3    0  502 -0.26281705988E+03  0.29223461312E+03 -0.54554662587E+02  0.39679980756E+03  0.00000000000E+00 0. -1.
        -13    1    1    2    0    0  0.17307233703E+03 -0.14576409543E+02  0.10673365018E+03  0.20385923773E+03  0.10566000000E+00 0.  1.
<mgrwt>
<rscale>  1 0.68349929E+03</rscale>
<asrwt>0</asrwt>
<pdfrwt beam="2">  1       21 0.45438057E-01 0.10791036E+04</pdfrwt>
<pdfrwt beam="1">  1       -4 0.20537434E+00 0.10791036E+04</pdfrwt>
<totfact> 0.22214182E+01</totfact>
</mgrwt>
</event>
<event>
 6    2  0.2267664E-005  0.9849067E+03  0.7818608E-02  0.9781825E-01
         21   -1    0    0  501  502  0.00000000000E+00  0.00000000000E+00  0.99377111709E+03  0.99377111709E+03  0.00000000000E+00 0. -1.
         -4   -1    0    0    0  501 -0.00000000000E+00 -0.00000000000E+00 -0.35865975484E+03  0.35865975484E+03  0.00000000000E+00 0. -1.
   -9000010    2    1    2    0  502  0.14794038146E+03  0.13873747991E+03  0.57689733898E+03  0.11414253543E+04  0.96379814013E+03 0.  0.
         13    1    3    3    0    0 -0.26432363550E+03  0.39729125584E+03  0.16828312332E+03  0.50599065902E+03  0.10566000000E+00 0. -1.
         -4    1    3    3    0  502  0.41226401697E+03 -0.25855377593E+03  0.40861421566E+03  0.63543469528E+03  0.00000000000E+00 0. -1.
        -13    1    1    2    0    0 -0.14794038146E+03 -0.13873747991E+03  0.58214023266E+02  0.21100551763E+03  0.10566000000E+00 0.  1.
<mgrwt>
<rscale>  1 0.66347117E+03</rscale>
<asrwt>0</asrwt>
<pdfrwt beam="1">  1       21 0.15288786E+00 0.98490675E+03</pdfrwt>
<pdfrwt beam="2">  1       -4 0.55178424E-01 0.98490675E+03</pdfrwt>
<totfact> 0.32183641E+01</totfact>
</mgrwt>
</event>
<event>
 6    2  0.2267664E-005  0.1050111E+04  0.7818608E-02  0.9599988E-01
         -4   -1    0    0    0  501 -0.00000000000E+00  0.00000000000E+00  0.18335481293E+03  0.18335481293E+03  0.00000000000E+00 0. -1.
         21   -1    0    0  501  502  0.00000000000E+00 -0.00000000000E+00 -0.25268389493E+04  0.25268389493E+04  0.00000000000E+00 0. -1.
   -9000010    2    1    2    0  502 -0.12614259271E+03 -0.28129017258E+03 -0.18835681038E+04  0.21565161638E+04  0.10038411468E+04 0.  0.
         13    1    3    3    0    0  0.31609174525E+03  0.12049116439E+03 -0.12087631526E+04  0.12552053547E+04  0.10566000000E+00 0. -1.
         -4    1    3    3    0  502 -0.44223433796E+03 -0.40178133697E+03 -0.67480495118E+03  0.90131080907E+03  0.00000000000E+00 0. -1.
        -13    1    1    2    0    0  0.12614259271E+03  0.28129017258E+03 -0.45991603255E+03  0.55367759847E+03  0.10566000000E+00 0.  1.
<mgrwt>
<rscale>  1 0.77296976E+03</rscale>
<asrwt>0</asrwt>
<pdfrwt beam="2">  1       21 0.38874442E+00 0.10501110E+04</pdfrwt>
<pdfrwt beam="1">  1       -4 0.28208435E-01 0.10501110E+04</pdfrwt>
<totfact> 0.35234969E+00</totfact>
</mgrwt>
</event>
<event>
 6    2  0.2267664E-005  0.1030483E+04  0.7818608E-02  0.9658477E-01
         21   -1    0    0  501  502  0.00000000000E+00  0.00000000000E+00  0.41103444527E+03  0.41103444527E+03  0.00000000000E+00 0. -1.
         -4   -1    0    0    0  501 -0.00000000000E+00 -0.00000000000E+00 -0.10581184484E+04  0.10581184484E+04  0.00000000000E+00 0. -1.
   -9000010    2    1    2    0  502 -0.21102988553E+03  0.16412303499E+03 -0.40086863856E+03  0.11057082622E+04  0.99520104130E+03 0.  0.
         13    1    3    3    0    0  0.14149155167E+03 -0.86392225840E+01 -0.63364387575E+03  0.64930660538E+03  0.10566000000E+00 0. -1.
         -4    1    3    3    0  502 -0.35252143720E+03  0.17276225757E+03  0.23277523719E+03  0.45640165685E+03  0.00000000000E+00 0. -1.
        -13    1    1    2    0    0  0.21102988553E+03 -0.16412303499E+03 -0.24621536454E+03  0.36344463141E+03  0.10566000000E+00 0.  1.
<mgrwt>
<rscale>  1 0.73543801E+03</rscale>
<asrwt>0</asrwt>
<pdfrwt beam="1">  1       21 0.63236068E-01 0.10304829E+04</pdfrwt>
<pdfrwt beam="2">  1       -4 0.16278745E+00 0.10304829E+04</pdfrwt>
<totfact> 0.21339324E+01</totfact>
</mgrwt>
</event>
<event>
 6    2  0.2267664E-005  0.1091703E+04  0.7818608E-02  0.9459667E-01
         21   -1    0    0  501  502  0.00000000000E+00  0.00000000000E+00  0.40283823503E+03  0.40283823503E+03  0.00000000000E+00 0. -1.
         -4   -1    0    0    0  501 -0.00000000000E+00 -0.00000000000E+00 -0.16674001021E+04  0.16674001021E+04  0.00000000000E+00 0. -1.
   -9000010    2    1    2    0  502 -0.16763569191E+03 -0.41427578988E+03 -0.53760264144E+03  0.12168943958E+04  0.99603675393E+03 0.  0.
         13    1    3    3    0    0  0.68114172081E+02 -0.37473309399E+03  0.20795914810E+03  0.43394867279E+03  0.10566000000E+00 0. -1.
         -4    1    3    3    0  502 -0.23574986399E+03 -0.39542695887E+02 -0.74556178954E+03  0.78294572302E+03  0.00000000000E+00 0. -1.
        -13    1    1    2    0    0  0.16763569191E+03  0.41427578988E+03 -0.72695922563E+03  0.85334394131E+03  0.10566000000E+00 0.  1.
<mgrwt>
<rscale>  1 0.87323823E+03</rscale>
<asrwt>0</asrwt>
<pdfrwt beam="1">  1       21 0.61975112E-01 0.10917030E+04</pdfrwt>
<pdfrwt beam="2">  1       -4 0.25652310E+00 0.10917030E+04</pdfrwt>
<totfact> 0.53404932E+00</totfact>
</mgrwt>
</event>
<event>
 6    2  0.2267664E-005  0.9969556E+03  0.7818608E-02  0.1014767E+00
         21   -1    0    0  501  502  0.00000000000E+00  0.00000000000E+00  0.91062655615E+03  0.91062655615E+03  0.00000000000E+00 0. -1.
         -4   -1    0    0    0  501 -0.00000000000E+00 -0.00000000000E+00 -0.31533407120E+03  0.31533407120E+03  0.00000000000E+00 0. -1.
   -9000010    2    1    2    0  502  0.27802058120E+02  0.54514299440E+02  0.60165666788E+03  0.11644360203E+04  0.99507574394E+03 0.  0.
         13    1    3    3    0    0  0.14232348289E+03  0.26717231842E+01  0.86287787197E+03  0.87454064799E+03  0.10566000000E+00 0. -1.
         -4    1    3    3    0  502 -0.11452142477E+03  0.51842576255E+02 -0.26122120409E+03  0.28989537235E+03  0.00000000000E+00 0. -1.
        -13    1    1    2    0    0 -0.27802058120E+02 -0.54514299440E+02 -0.63641829341E+01  0.61524607009E+02  0.10566000000E+00 0.  1.
<mgrwt>
<rscale>  1 0.49623235E+03</rscale>
<asrwt>0</asrwt>
<pdfrwt beam="1">  1       21 0.14009639E+00 0.99695562E+03</pdfrwt>
<pdfrwt beam="2">  1       -4 0.48512934E-01 0.99695562E+03</pdfrwt>
<totfact> 0.53787570E+01</totfact>
</mgrwt>
</event>
<event>
 6    2  0.2267664E-005  0.1138651E+04  0.7818608E-02  0.9360941E-01
         21   -1    0    0  501  502  0.00000000000E+00  0.00000000000E+00  0.81034775301E+03  0.81034775301E+03  0.00000000000E+00 0. -1.
         -4   -1    0    0    0  501 -0.00000000000E+00 -0.00000000000E+00 -0.12036151705E+04  0.12036151705E+04  0.00000000000E+00 0. -1.
   -9000010    2    1    2    0  502  0.33995227334E+03 -0.44520752360E+03  0.24504056561E+03  0.11647195075E+04  0.99133716015E+03 0.  0.
         13    1    3    3    0    0  0.26679201726E+03 -0.76158625414E+03  0.11585461363E+03  0.81523855750E+03  0.10566000000E+00 0. -1.
         -4    1    3    3    0  502  0.73160256081E+02  0.31637873055E+03  0.12918595198E+03  0.34948094998E+03  0.00000000000E+00 0. -1.
        -13    1    1    2    0    0 -0.33995227334E+03  0.44520752360E+03 -0.63830798312E+03  0.84924341605E+03  0.10566000000E+00 0.  1.
<mgrwt>
<rscale>  1 0.95360986E+03</rscale>
<asrwt>0</asrwt>
<pdfrwt beam="1">  1       21 0.12466888E+00 0.11386512E+04</pdfrwt>
<pdfrwt beam="2">  1       -4 0.18517156E+00 0.11386512E+04</pdfrwt>
<totfact> 0.28222841E+00</totfact>
</mgrwt>
</event>
<event>
 6    2  0.2267664E-005  0.9961309E+03  0.7818608E-02  0.1031726E+00
         21   -1    0    0  501  502  0.00000000000E+00  0.00000000000E+00  0.20083376557E+03  0.20083376557E+03  0.00000000000E+00 0. -1.
         -4   -1    0    0    0  501 -0.00000000000E+00 -0.00000000000E+00 -0.14232625954E+04  0.14232625954E+04  0.00000000000E+00 0. -1.
   -9000010    2    1    2    0  502  0.26048361143E+02  0.26046003272E+02 -0.10482514997E+04  0.14460664059E+04  0.99544961311E+03 0.  0.
         13    1    3    3    0    0  0.10289637734E+03 -0.23106923623E+03  0.96165269813E+02  0.27060751410E+03  0.10566000000E+00 0. -1.
         -4    1    3    3    0  502 -0.76848016194E+02  0.25711523951E+03 -0.11444167695E+04  0.11754588918E+04  0.00000000000E+00 0. -1.
        -13    1    1    2    0    0 -0.26048361143E+02 -0.26046003272E+02 -0.17417733017E+03  0.17802995510E+03  0.10566000000E+00 0.  1.
<mgrwt>
<rscale>  1 0.43682421E+03</rscale>
<asrwt>0</asrwt>
<pdfrwt beam="1">  1       21 0.30897502E-01 0.99613094E+03</pdfrwt>
<pdfrwt beam="2">  1       -4 0.21896348E+00 0.99613094E+03</pdfrwt>
<totfact> 0.40739282E+01</totfact>
</mgrwt>
</event>
<event>
 6    2  0.2267664E-005  0.9949161E+03  0.7818608E-02  0.9812481E-01
         21   -1    0    0  501  502  0.00000000000E+00  0.00000000000E+00  0.14802941223E+04  0.14802941223E+04  0.00000000000E+00 0. -1.
         -4   -1    0    0    0  501 -0.00000000000E+00 -0.00000000000E+00 -0.28994823432E+03  0.28994823432E+03  0.00000000000E+00 0. -1.
   -9000010    2    1    2    0  502 -0.37551540387E+01  0.17786083019E+03  0.12358997239E+04  0.15866021126E+04  0.97888179066E+03 0.  0.
         13    1    3    3    0    0  0.41539029292E+03  0.27049723900E+03  0.94787653358E+03  0.10696671379E+04  0.10566000000E+00 0. -1.
         -4    1    3    3    0  502 -0.41914544696E+03 -0.92636408814E+02  0.28802319031E+03  0.51693497473E+03  0.00000000000E+00 0. -1.
        -13    1    1    2    0    0  0.37551540387E+01 -0.17786083019E+03 -0.45553835903E+02  0.18364024403E+03  0.10566000000E+00 0.  1.
<mgrwt>
<rscale>  1 0.64697001E+03</rscale>
<asrwt>0</asrwt>
<pdfrwt beam="1">  1       21 0.22773755E+00 0.99491615E+03</pdfrwt>
<pdfrwt beam="2">  1       -4 0.44607422E-01 0.99491615E+03</pdfrwt>
<totfact> 0.14778652E+01</totfact>
</mgrwt>
</event>
<event>
 6    2  0.2267664E-005  0.8482144E+03  0.7818608E-02  0.9687485E-01
         21   -1    0    0  501  502  0.00000000000E+00  0.00000000000E+00  0.18674329232E+04  0.18674329232E+04  0.00000000000E+00 0. -1.
         -4   -1    0    0    0  501 -0.00000000000E+00 -0.00000000000E+00 -0.22780486596E+03  0.22780486596E+03  0.00000000000E+00 0. -1.
   -9000010    2    1    2    0  502  0.75377455872E+02 -0.42810343098E+03  0.89547911443E+03  0.12334304042E+04  0.72836351448E+03 0.  0.
         13    1    3    3    0    0  0.27270594592E+03 -0.44304729856E+03  0.89536421669E+03  0.10355368334E+04  0.10566000000E+00 0. -1.
         -4    1    3    3    0  502 -0.19732849005E+03  0.14943867573E+02  0.11489774108E+00  0.19789357080E+03  0.00000000000E+00 0. -1.
        -13    1    1    2    0    0 -0.75377455872E+02  0.42810343098E+03  0.74414894277E+03  0.86180738490E+03  0.10566000000E+00 0.  1.
<mgrwt>
<rscale>  1 0.71766852E+03</rscale>
<asrwt>0</asrwt>
<pdfrwt beam="1">  1       21 0.28729736E+00 0.84821443E+03</pdfrwt>
<pdfrwt beam="2">  1       -4 0.35046904E-01 0.84821443E+03</pdfrwt>
<totfact> 0.10400254E+01</totfact>
</mgrwt>
</event>
<event>
 6    2  0.2267664E-005  0.1000546E+04  0.7818608E-02  0.9861644E-01
         21   -1    0    0  501  502  0.00000000000E+00  0.00000000000E+00  0.70445024075E+03  0.70445024075E+03  0.00000000000E+00 0. -1.
         -4   -1    0    0    0  501 -0.00000000000E+00 -0.00000000000E+00 -0.56226693894E+03  0.56226693894E+03  0.00000000000E+00 0. -1.
   -9000010    2    1    2    0  502 -0.88289660728E+02 -0.12004829548E+03  0.30499956027E+03  0.10460006134E+04  0.98938662518E+03 0.  0.
         13    1    3    3    0    0 -0.36490202573E+03 -0.64090462363E+02 -0.23357041782E+03  0.43796829450E+03  0.10566000000E+00 0. -1.
         -4    1    3    3    0  502  0.27661236500E+03 -0.55957833118E+02  0.53856997809E+03  0.60803231893E+03  0.00000000000E+00 0. -1.
        -13    1    1    2    0    0  0.88289660728E+02  0.12004829548E+03 -0.16281625845E+03  0.22071656626E+03  0.10566000000E+00 0.  1.
<mgrwt>
<rscale>  1 0.62156745E+03</rscale>
<asrwt>0</asrwt>
<pdfrwt beam="1">  1       21 0.10837696E+00 0.10005461E+04</pdfrwt>
<pdfrwt beam="2">  1       -4 0.86502606E-01 0.10005461E+04</pdfrwt>
<totfact> 0.29305238E+01</totfact>
</mgrwt>
</event>
<event>
 6    2  0.2267664E-005  0.1020699E+04  0.7818608E-02  0.9873978E-01
         -4   -1    0    0    0  501 -0.00000000000E+00  0.00000000000E+00  0.10309443402E+04  0.10309443402E+04  0.00000000000E+00 0. -1.
         21   -1    0    0  501  502  0.00000000000E+00 -0.00000000000E+00 -0.32897514590E+03  0.32897514590E+03  0.00000000000E+00 0. -1.
   -9000010    2    1    2    0  502 -0.10176544485E+03 -0.88506838033E+02  0.67111635113E+03  0.12215664043E+04  0.10117497997E+04 0.  0.
         13    1    3    3    0    0 -0.40554124752E+03  0.10873293859E+03 -0.41780151288E+02  0.42193855901E+03  0.10566000000E+00 0. -1.
         -4    1    3    3    0  502  0.30377580268E+03 -0.19723977662E+03  0.71289650242E+03  0.79962784527E+03  0.00000000000E+00 0. -1.
        -13    1    1    2    0    0  0.10176544485E+03  0.88506838033E+02  0.30852843136E+02  0.13835308178E+03  0.10566000000E+00 0.  1.
<mgrwt>
<rscale>  1 0.61539163E+03</rscale>
<asrwt>0</asrwt>
<pdfrwt beam="2">  1       21 0.50611561E-01 0.10206994E+04</pdfrwt>
<pdfrwt beam="1">  1       -4 0.15860682E+00 0.10206994E+04</pdfrwt>
<totfact> 0.37520754E+01</totfact>
</mgrwt>
</event>
<event>
 6    2  0.2267664E-005  0.1004674E+04  0.7818608E-02  0.9881764E-01
         21   -1    0    0  501  502  0.00000000000E+00  0.00000000000E+00  0.91580588313E+03  0.91580588313E+03  0.00000000000E+00 0. -1.
         -4   -1    0    0    0  501 -0.00000000000E+00 -0.00000000000E+00 -0.40431782152E+03  0.40431782152E+03  0.00000000000E+00 0. -1.
   -9000010    2    1    2    0  502 -0.21955234415E+02 -0.13615330830E+03  0.58629052871E+03  0.11632314616E+04  0.99516385261E+03 0.  0.
         13    1    3    3    0    0  0.14507094296E+02  0.15368053862E+03  0.79138836679E+03  0.80630250030E+03  0.10566000000E+00 0. -1.
         -4    1    3    3    0  502 -0.36462328711E+02 -0.28983384693E+03 -0.20509783808E+03  0.35692896131E+03  0.00000000000E+00 0. -1.
        -13    1    1    2    0    0  0.21955234415E+02  0.13615330830E+03 -0.74802467093E+02  0.15689224304E+03  0.10566000000E+00 0.  1.
<mgrwt>
<rscale>  1 0.61153270E+03</rscale>
<asrwt>0</asrwt>
<pdfrwt beam="1">  1       21 0.14089321E+00 0.10046745E+04</pdfrwt>
<pdfrwt beam="2">  1       -4 0.62202742E-01 0.10046745E+04</pdfrwt>
<totfact> 0.31050107E+01</totfact>
</mgrwt>
</event>
<event>
 6    2  0.2267664E-005  0.1022502E+04  0.7818608E-02  0.9701619E-01
         -4   -1    0    0    0  501 -0.00000000000E+00  0.00000000000E+00  0.74676222901E+03  0.74676222901E+03  0.00000000000E+00 0. -1.
         21   -1    0    0  501  502  0.00000000000E+00 -0.00000000000E+00 -0.53100822862E+03  0.53100822862E+03  0.00000000000E+00 0. -1.
   -9000010    2    1    2    0  502 -0.19878282919E+03 -0.12839664215E+03  0.16468386882E+03  0.10356785734E+04  0.99474067972E+03 0.  0.
         13    1    3    3    0    0  0.28347727202E+03 -0.16817026935E+03  0.38258166807E+03  0.50498450189E+03  0.10566000000E+00 0. -1.
         -4    1    3    3    0  502 -0.48226010121E+03  0.39773627201E+02 -0.21789779925E+03  0.53069407153E+03  0.00000000000E+00 0. -1.
        -13    1    1    2    0    0  0.19878282919E+03  0.12839664215E+03  0.51070131561E+02  0.24209188421E+03  0.10566000000E+00 0.  1.
<mgrwt>
<rscale>  1 0.70920499E+03</rscale>
<asrwt>0</asrwt>
<pdfrwt beam="2">  1       21 0.81693574E-01 0.10225015E+04</pdfrwt>
<pdfrwt beam="1">  1       -4 0.11488650E+00 0.10225015E+04</pdfrwt>
<totfact> 0.29451482E+01</totfact>
</mgrwt>
</event>
<event>
 6    2  0.2267664E-005  0.1047155E+04  0.7818608E-02  0.9576290E-01
         21   -1    0    0  501  502  0.00000000000E+00  0.00000000000E+00  0.17372336750E+04  0.17372336750E+04  0.00000000000E+00 0. -1.
         -4   -1    0    0    0  501 -0.00000000000E+00 -0.00000000000E+00 -0.45902003754E+03  0.45902003754E+03  0.00000000000E+00 0. -1.
   -9000010    2    1    2    0  502  0.22695519973E+03 -0.24946267524E+03  0.14726268681E+04  0.18069764278E+04  0.99135948521E+03 0.  0.
         13    1    3    3    0    0 -0.22104721480E+03 -0.33768848147E+03  0.12202480323E+04  0.12852628732E+04  0.10566000000E+00 0. -1.
         -4    1    3    3    0  502  0.44800241453E+03  0.88225806223E+02  0.25237883582E+03  0.52171355463E+03  0.00000000000E+00 0. -1.
        -13    1    1    2    0    0 -0.22695519973E+03  0.24946267524E+03 -0.19441323063E+03  0.38927728476E+03  0.10566000000E+00 0.  1.
<mgrwt>
<rscale>  1 0.78885571E+03</rscale>
<asrwt>0</asrwt>
<pdfrwt beam="1">  1       21 0.26726672E+00 0.10471552E+04</pdfrwt>
<pdfrwt beam="2">  1       -4 0.70618468E-01 0.10471552E+04</pdfrwt>
<totfact> 0.30461824E+00</totfact>
</mgrwt>
</event>
<event>
 6    2  0.2267664E-005  0.1207688E+04  0.7818608E-02  0.9256732E-01
         21   -1    0    0  501  502  0.00000000000E+00  0.00000000000E+00  0.23824370514E+04  0.23824370514E+04  0.00000000000E+00 0.  1.
         -4   -1    0    0    0  501 -0.00000000000E+00 -0.00000000000E+00 -0.39067096531E+03  0.39067096531E+03  0.00000000000E+00 0. -1.
   -9000010    2    1    2    0  502 -0.52475828330E+03  0.44268736684E+03  0.10058374173E+04  0.15716927214E+04  0.99356214695E+03 0.  0.
         13    1    3    3    0    0 -0.73383399770E+03  0.27409415645E+03  0.34043324325E+03  0.85412806245E+03  0.10566000000E+00 0. -1.
         -4    1    3    3    0  502  0.20907571440E+03  0.16859321038E+03  0.66540417408E+03  0.71756465899E+03  0.00000000000E+00 0. -1.
        -13    1    1    2    0    0  0.52475828330E+03 -0.44268736684E+03  0.98592866872E+03  0.12014152952E+04  0.10566000000E+00 0.  1.
<mgrwt>
<rscale>  1 0.10486563E+04</rscale>
<asrwt>0</asrwt>
<pdfrwt beam="1">  1       21 0.36652877E+00 0.12076875E+04</pdfrwt>
<pdfrwt beam="2">  1       -4 0.60103227E-01 0.12076875E+04</pdfrwt>
<totfact> 0.10059509E+00</totfact>
</mgrwt>
</event>
<event>
 6    2  0.2267664E-005  0.1021751E+04  0.7818608E-02  0.9723849E-01
         21   -1    0    0  501  502  0.00000000000E+00  0.00000000000E+00  0.70442921317E+03  0.70442921317E+03  0.00000000000E+00 0. -1.
         -4   -1    0    0    0  501 -0.00000000000E+00 -0.00000000000E+00 -0.62500931402E+03  0.62500931402E+03  0.00000000000E+00 0. -1.
   -9000010    2    1    2    0  502 -0.34438518114E+02  0.21746116845E+03  0.24885416630E+03  0.10516196053E+04  0.99774747648E+03 0.  0.
         13    1    3    3    0    0 -0.26927910898E+03  0.42156642950E+02 -0.31476092289E+03  0.41636867176E+03  0.10566000000E+00 0. -1.
         -4    1    3    3    0  502  0.23484059086E+03  0.17530452550E+03  0.56361508920E+03  0.63525093353E+03  0.00000000000E+00 0. -1.
        -13    1    1    2    0    0  0.34438518114E+02 -0.21746116845E+03 -0.16943426715E+03  0.27781892190E+03  0.10566000000E+00 0.  1.
<mgrwt>
<rscale>  1 0.69614387E+03</rscale>
<asrwt>0</asrwt>
<pdfrwt beam="1">  1       21 0.10837372E+00 0.10217511E+04</pdfrwt>
<pdfrwt beam="2">  1       -4 0.96155279E-01 0.10217511E+04</pdfrwt>
<totfact> 0.22786530E+01</totfact>
</mgrwt>
</event>
<event>
 6    2  0.2267664E-005  0.9961540E+03  0.7818608E-02  0.1004277E+00
         -4   -1    0    0    0  501 -0.00000000000E+00  0.00000000000E+00  0.83262352904E+03  0.83262352904E+03  0.00000000000E+00 0. -1.
         21   -1    0    0  501  502  0.00000000000E+00 -0.00000000000E+00 -0.40579680166E+03  0.40579680166E+03  0.00000000000E+00 0. -1.
   -9000010    2    1    2    0  502  0.74903099360E+02 -0.39841080536E+02  0.22751783491E+03  0.10218058534E+04  0.99253465978E+03 0.  0.
         13    1    3    3    0    0  0.45440199483E+02  0.99805090682E+02 -0.38115889286E+03  0.39662070121E+03  0.10566000000E+00 0. -1.
         -4    1    3    3    0  502  0.29462899877E+02 -0.13964617122E+03  0.60867672777E+03  0.62518515220E+03  0.00000000000E+00 0. -1.
        -13    1    1    2    0    0 -0.74903099360E+02  0.39841080536E+02  0.19930889247E+03  0.21661447729E+03  0.10566000000E+00 0.  1.
<mgrwt>
<rscale>  1 0.53813944E+03</rscale>
<asrwt>0</asrwt>
<pdfrwt beam="2">  1       21 0.62430277E-01 0.99615402E+03</pdfrwt>
<pdfrwt beam="1">  1       -4 0.12809593E+00 0.99615402E+03</pdfrwt>
<totfact> 0.41650835E+01</totfact>
</mgrwt>
</event>
<event>
 6    2  0.2267664E-005  0.9005673E+03  0.7818608E-02  0.9849300E-01
         21   -1    0    0  501  502  0.00000000000E+00  0.00000000000E+00  0.45790490622E+03  0.45790490622E+03  0.00000000000E+00 0. -1.
         -4   -1    0    0    0  501 -0.00000000000E+00 -0.00000000000E+00 -0.10409096377E+04  0.10409096377E+04  0.00000000000E+00 0. -1.
   -9000010    2    1    2    0  502 -0.32617663937E+01  0.21269505578E+03 -0.24201565310E+02  0.90089246241E+03  0.87508381723E+03 0.  0.
         13    1    3    3    0    0 -0.51876081771E+02  0.50475790664E+03  0.18311316766E+03  0.53944611920E+03  0.10566000000E+00 0. -1.
         -4    1    3    3    0  502  0.48614315377E+02 -0.29206285086E+03 -0.20731473297E+03  0.36144634321E+03  0.00000000000E+00 0. -1.
        -13    1    1    2    0    0  0.32617663937E+01 -0.21269505578E+03 -0.55880316617E+03  0.59792208151E+03  0.10566000000E+00 0.  1.
<mgrwt>
<rscale>  1 0.62782596E+03</rscale>
<asrwt>0</asrwt>
<pdfrwt beam="1">  1       21 0.70446910E-01 0.90056733E+03</pdfrwt>
<pdfrwt beam="2">  1       -4 0.16013994E+00 0.90056733E+03</pdfrwt>
<totfact> 0.17709951E+01</totfact>
</mgrwt>
</event>
<event>
 6    2  0.2267664E-005  0.1030802E+04  0.7818608E-02  0.9765205E-01
         -4   -1    0    0    0  501 -0.00000000000E+00  0.00000000000E+00  0.87460175116E+03  0.87460175116E+03  0.00000000000E+00 0. -1.
         21   -1    0    0  501  502  0.00000000000E+00 -0.00000000000E+00 -0.42992437041E+03  0.42992437041E+03  0.00000000000E+00 0. -1.
   -9000010    2    1    2    0  502  0.18571317036E+03 -0.20985850850E+02  0.43052373275E+03  0.11170958025E+04  0.10137171992E+04 0.  0.
         13    1    3    3    0    0 -0.36598984559E+03  0.18114188586E+03  0.37242812796E+02  0.41005851796E+03  0.10566000000E+00 0. -1.
         -4    1    3    3    0  502  0.55170301595E+03 -0.20212773671E+03  0.39328091995E+03  0.70703728456E+03  0.00000000000E+00 0. -1.
        -13    1    1    2    0    0 -0.18571317036E+03  0.20985850850E+02  0.14153647998E+02  0.18743031905E+03  0.10566000000E+00 0.  1.
<mgrwt>
<rscale>  1 0.67263729E+03</rscale>
<asrwt>0</asrwt>
<pdfrwt beam="2">  1       21 0.66142211E-01 0.10308018E+04</pdfrwt>
<pdfrwt beam="1">  1       -4 0.13455412E+00 0.10308018E+04</pdfrwt>
<totfact> 0.32119051E+01</totfact>
</mgrwt>
</event>
<event>
 6    2  0.2267664E-005  0.1037146E+04  0.7818608E-02  0.9636662E-01
         -4   -1    0    0    0  501 -0.00000000000E+00  0.00000000000E+00  0.36238909446E+03  0.36238909446E+03  0.00000000000E+00 0. -1.
         21   -1    0    0  501  502  0.00000000000E+00 -0.00000000000E+00 -0.12013686777E+04  0.12013686777E+04  0.00000000000E+00 0. -1.
   -9000010    2    1    2    0  502 -0.27435885005E+03  0.66701976918E+02 -0.66887051785E+03  0.12341230689E+04  0.99797296914E+03 0.  0.
         13    1    3    3    0    0  0.26205191398E+03  0.12362839279E+03  0.89696771980E+02  0.30331618353E+03  0.10566000000E+00 0. -1.
         -4    1    3    3    0  502 -0.53641076403E+03 -0.56926415873E+02 -0.75856728983E+03  0.93080688534E+03  0.00000000000E+00 0. -1.
        -13    1    1    2    0    0  0.27435885005E+03 -0.66701976918E+02 -0.17010906539E+03  0.32963470330E+03  0.10566000000E+00 0.  1.
<mgrwt>
<rscale>  1 0.74916448E+03</rscale>
<asrwt>0</asrwt>
<pdfrwt beam="2">  1       21 0.18482595E+00 0.10371461E+04</pdfrwt>
<pdfrwt beam="1">  1       -4 0.55752168E-01 0.10371461E+04</pdfrwt>
<totfact> 0.17979990E+01</totfact>
</mgrwt>
</event>
<event>
 6    2  0.2267664E-005  0.1014178E+04  0.7818608E-02  0.9815158E-01
         21   -1    0    0  501  502  0.00000000000E+00  0.00000000000E+00  0.22723717016E+04  0.22723717016E+04  0.00000000000E+00 0. -1.
         -4   -1    0    0    0  501 -0.00000000000E+00 -0.00000000000E+00 -0.33668273588E+03  0.33668273588E+03  0.00000000000E+00 0. -1.
   -9000010    2    1    2    0  502  0.14116129694E+03 -0.88274006394E+02  0.21264139688E+04  0.23558848305E+04  0.10004189903E+04 0.  0.
         13    1    3    3    0    0 -0.57600955960E+02 -0.14005079549E+03 -0.57759684088E+02  0.16207494475E+03  0.10566000000E+00 0. -1.
         -4    1    3    3    0  502  0.19876225290E+03  0.51776789101E+02  0.21841736528E+04  0.21938098858E+04  0.00000000000E+00 0. -1.
        -13    1    1    2    0    0 -0.14116129694E+03  0.88274006394E+02 -0.19072500303E+03  0.25316960698E+03  0.10566000000E+00 0.  1.
<mgrwt>
<rscale>  1 0.64555386E+03</rscale>
<asrwt>0</asrwt>
<pdfrwt beam="1">  1       21 0.34959564E+00 0.10141780E+04</pdfrwt>
<pdfrwt beam="2">  1       -4 0.51797345E-01 0.10141780E+04</pdfrwt>
<totfact> 0.18435734E+00</totfact>
</mgrwt>
</event>
<event>
 6    2  0.2267664E-005  0.1048000E+04  0.7818608E-02  0.9621753E-01
         21   -1    0    0  501  502  0.00000000000E+00  0.00000000000E+00  0.64599155868E+03  0.64599155868E+03  0.00000000000E+00 0. -1.
         -4   -1    0    0    0  501 -0.00000000000E+00 -0.00000000000E+00 -0.85260525293E+03  0.85260525293E+03  0.00000000000E+00 0. -1.
   -9000010    2    1    2    0  502 -0.79280466942E+02 -0.27678593367E+03  0.12956385384E+03  0.10559782393E+04  0.10076742550E+04 0.  0.
         13    1    3    3    0    0 -0.32480419622E+03  0.28675789789E+03  0.56600416537E+02  0.43695706448E+03  0.10566000000E+00 0. -1.
         -4    1    3    3    0  502  0.24552372928E+03 -0.56354383156E+03  0.72963437308E+02  0.61902117485E+03  0.00000000000E+00 0. -1.
        -13    1    1    2    0    0  0.79280466942E+02  0.27678593367E+03 -0.33617754810E+03  0.44261857228E+03  0.10566000000E+00 0.  1.
<mgrwt>
<rscale>  1 0.75873034E+03</rscale>
<asrwt>0</asrwt>
<pdfrwt beam="1">  1       21 0.99383317E-01 0.10479996E+04</pdfrwt>
<pdfrwt beam="2">  1       -4 0.13117004E+00 0.10479996E+04</pdfrwt>
<totfact> 0.13075245E+01</totfact>
</mgrwt>
</event>
<event>
 6    2  0.2267664E-005  0.1048926E+04  0.7818608E-02  0.9583442E-01
         -4   -1    0    0    0  501 -0.00000000000E+00  0.00000000000E+00  0.94778399339E+03  0.94778399339E+03  0.00000000000E+00 0. -1.
         21   -1    0    0  501  502  0.00000000000E+00 -0.00000000000E+00 -0.50071052423E+03  0.50071052423E+03  0.00000000000E+00 0. -1.
   -9000010    2    1    2    0  502 -0.14988499443E+02  0.32705057452E+03  0.36882229360E+03  0.11118790232E+04  0.99652312802E+03 0.  0.
         13    1    3    3    0    0 -0.29562172771E+03  0.34507120410E+03 -0.18511732245E+03  0.49064730309E+03  0.10566000000E+00 0. -1.
         -4    1    3    3    0  502  0.28063322827E+03 -0.18020629583E+02  0.55393961605E+03  0.62123172016E+03  0.00000000000E+00 0. -1.
        -13    1    1    2    0    0  0.14988499443E+02 -0.32705057452E+03  0.78251175566E+02  0.33661549437E+03  0.10566000000E+00 0.  1.
<mgrwt>
<rscale>  1 0.78401835E+03</rscale>
<asrwt>0</asrwt>
<pdfrwt beam="2">  1       21 0.77032388E-01 0.10489257E+04</pdfrwt>
<pdfrwt beam="1">  1       -4 0.14581292E+00 0.10489257E+04</pdfrwt>
<totfact> 0.18272714E+01</totfact>
</mgrwt>
</event>
<event>
 6    2  0.2267664E-005  0.1085320E+04  0.7818608E-02  0.9512160E-01
         -4   -1    0    0    0  501 -0.00000000000E+00  0.00000000000E+00  0.45205323258E+03  0.45205323258E+03  0.00000000000E+00 0. -1.
         21   -1    0    0  501  502  0.00000000000E+00 -0.00000000000E+00 -0.11849289737E+04  0.11849289737E+04  0.00000000000E+00 0. -1.
   -9000010    2    1    2    0  502  0.20435406682E+03 -0.31836893541E+03 -0.55305051185E+03  0.12181069410E+04  0.10172513393E+04 0.  0.
         13    1    3    3    0    0  0.15048892247E+03  0.33958630393E+03 -0.24171616305E+02  0.37222312099E+03  0.10566000000E+00 0. -1.
         -4    1    3    3    0  502  0.53865144349E+02 -0.65795523933E+03 -0.52887889555E+03  0.84588381997E+03  0.00000000000E+00 0. -1.
        -13    1    1    2    0    0 -0.20435406682E+03  0.31836893541E+03 -0.17982522929E+03  0.41887526533E+03  0.10566000000E+00 0.  1.
<mgrwt>
<rscale>  1 0.83393208E+03</rscale>
<asrwt>0</asrwt>
<pdfrwt beam="2">  1       21 0.18229676E+00 0.10853201E+04</pdfrwt>
<pdfrwt beam="1">  1       -4 0.69546652E-01 0.10853201E+04</pdfrwt>
<totfact> 0.11477384E+01</totfact>
</mgrwt>
</event>
<event>
 6    2  0.2267664E-005  0.1018819E+04  0.7818608E-02  0.1004407E+00
         21   -1    0    0  501  502  0.00000000000E+00  0.00000000000E+00  0.15064259910E+04  0.15064259910E+04  0.00000000000E+00 0. -1.
         -4   -1    0    0    0  501 -0.00000000000E+00 -0.00000000000E+00 -0.20200452868E+03  0.20200452868E+03  0.00000000000E+00 0. -1.
   -9000010    2    1    2    0  502  0.88225706461E+01  0.78488442224E+02  0.12495639477E+04  0.16122659140E+04  0.10157524524E+04 0.  0.
         13    1    3    3    0    0 -0.23583496141E+03 -0.34899199488E+03  0.22987152983E+03  0.47984838533E+03  0.10566000000E+00 0. -1.
         -4    1    3    3    0  502  0.24465753205E+03  0.42748043710E+03  0.10196924179E+04  0.11324175287E+04  0.00000000000E+00 0. -1.
        -13    1    1    2    0    0 -0.88225706461E+01 -0.78488442224E+02  0.54857514572E+02  0.96164605675E+02  0.10566000000E+00 0.  1.
<mgrwt>
<rscale>  1 0.53759571E+03</rscale>
<asrwt>0</asrwt>
<pdfrwt beam="1">  1       21 0.23175784E+00 0.10188186E+04</pdfrwt>
<pdfrwt beam="2">  1       -4 0.31077621E-01 0.10188186E+04</pdfrwt>
<totfact> 0.28762837E+01</totfact>
</mgrwt>
</event>
<event>
 6    2  0.2267664E-005  0.1213310E+04  0.7818608E-02  0.9359147E-01
         -4   -1    0    0    0  501 -0.00000000000E+00  0.00000000000E+00  0.69472219748E+03  0.69472219748E+03  0.00000000000E+00 0. -1.
         21   -1    0    0  501  502  0.00000000000E+00 -0.00000000000E+00 -0.10695792978E+04  0.10695792978E+04  0.00000000000E+00 0. -1.
   -9000010    2    1    2    0  502  0.73791767116E+02  0.46010989349E+03 -0.86678637610E+02  0.12164026209E+04  0.11202570290E+04 0.  0.
         13    1    3    3    0    0  0.37514804825E+03  0.60191187597E+03 -0.35086798516E+03  0.79129155102E+03  0.10566000000E+00 0. -1.
         -4    1    3    3    0  502 -0.30135628114E+03 -0.14180198248E+03  0.26418934755E+03  0.42511106993E+03  0.00000000000E+00 0. -1.
        -13    1    1    2    0    0 -0.73791767116E+02 -0.46010989349E+03 -0.28817846276E+03  0.54789887438E+03  0.10566000000E+00 0.  1.
<mgrwt>
<rscale>  1 0.95515326E+03</rscale>
<asrwt>0</asrwt>
<pdfrwt beam="2">  1       21 0.16455066E+00 0.12133104E+04</pdfrwt>
<pdfrwt beam="1">  1       -4 0.10688034E+00 0.12133104E+04</pdfrwt>
<totfact> 0.56048560E+00</totfact>
</mgrwt>
</event>
<event>
 6    2  0.2267664E-005  0.1024185E+04  0.7818608E-02  0.9764751E-01
         -4   -1    0    0    0  501 -0.00000000000E+00  0.00000000000E+00  0.66367449787E+03  0.66367449787E+03  0.00000000000E+00 0. -1.
         21   -1    0    0  501  502  0.00000000000E+00 -0.00000000000E+00 -0.65419725712E+03  0.65419725712E+03  0.00000000000E+00 0. -1.
   -9000010    2    1    2    0  502 -0.14533014269E+03  0.12367036129E+03 -0.19017338281E+03  0.10416913949E+04  0.10062503854E+04 0.  0.
         13    1    3    3    0    0  0.41188732421E+03 -0.61252981259E+02 -0.18220845903E+03  0.45453605937E+03  0.10566000000E+00 0. -1.
         -4    1    3    3    0  502 -0.55721746691E+03  0.18492334255E+03 -0.79649237719E+01  0.58715533554E+03  0.00000000000E+00 0. -1.
        -13    1    1    2    0    0  0.14533014269E+03 -0.12367036129E+03  0.19965062356E+03  0.27618036007E+03  0.10566000000E+00 0.  1.
<mgrwt>
<rscale>  1 0.67289019E+03</rscale>
<asrwt>0</asrwt>
<pdfrwt beam="2">  1       21 0.10064573E+00 0.10241851E+04</pdfrwt>
<pdfrwt beam="1">  1       -4 0.10210377E+00 0.10241851E+04</pdfrwt>
<totfact> 0.23740304E+01</totfact>
</mgrwt>
</event>
<event>
 6    2  0.2267664E-005  0.1142655E+04  0.7818608E-02  0.9361557E-01
         21   -1    0    0  501  502  0.00000000000E+00  0.00000000000E+00  0.22056299105E+04  0.22056299105E+04  0.00000000000E+00 0.  1.
         -4   -1    0    0    0  501 -0.00000000000E+00 -0.00000000000E+00 -0.34110280762E+03  0.34110280762E+03  0.00000000000E+00 0. -1.
   -9000010    2    1    2    0  502  0.26334145295E+03 -0.48634113271E+03  0.14946224691E+04  0.18813712619E+04  0.99989253502E+03 0.  0.
         13    1    3    3    0    0  0.11259495574E+03 -0.36907043650E+02 -0.13766912983E+03  0.18163852676E+03  0.10566000000E+00 0. -1.
         -4    1    3    3    0  502  0.15074649721E+03 -0.44943408906E+03  0.16322915989E+04  0.16997327351E+04  0.00000000000E+00 0. -1.
        -13    1    1    2    0    0 -0.26334145295E+03  0.48634113271E+03  0.36990463377E+03  0.66536145625E+03  0.10566000000E+00 0.  1.
<mgrwt>
<rscale>  1 0.95308081E+03</rscale>
<asrwt>0</asrwt>
<pdfrwt beam="1">  1       21 0.33932767E+00 0.11426555E+04</pdfrwt>
<pdfrwt beam="2">  1       -4 0.52477356E-01 0.11426555E+04</pdfrwt>
<totfact> 0.20317612E+00</totfact>
</mgrwt>
</event>
<event>
 6    2  0.2267664E-005  0.1235061E+04  0.7818608E-02  0.9203464E-01
         21   -1    0    0  501  502  0.00000000000E+00  0.00000000000E+00  0.11850082923E+04  0.11850082923E+04  0.00000000000E+00 0.  1.
         -4   -1    0    0    0  501 -0.00000000000E+00 -0.00000000000E+00 -0.10866833108E+04  0.10866833108E+04  0.00000000000E+00 0. -1.
   -9000010    2    1    2    0  502  0.77178074508E+03  0.12710730233E+03  0.56791664565E+03  0.13593768948E+04  0.95581088132E+03 0.  0.
         13    1    3    3    0    0  0.89531721412E+03  0.10386716363E+03  0.13845215019E+03  0.91189380448E+03  0.10566000000E+00 0. -1.
         -4    1    3    3    0  502 -0.12353646905E+03  0.23240138696E+02  0.42946449546E+03  0.44748309029E+03  0.00000000000E+00 0. -1.
        -13    1    1    2    0    0 -0.77178074508E+03 -0.12710730233E+03 -0.46959166422E+03  0.91231470833E+03  0.10566000000E+00 0.  1.
<mgrwt>
<rscale>  1 0.11017745E+04</rscale>
<asrwt>0</asrwt>
<pdfrwt beam="1">  1       21 0.18230897E+00 0.12350612E+04</pdfrwt>
<pdfrwt beam="2">  1       -4 0.16718205E+00 0.12350612E+04</pdfrwt>
<totfact> 0.12810958E+00</totfact>
</mgrwt>
</event>
<event>
 6    2  0.2267664E-005  0.1007125E+04  0.7818608E-02  0.1022527E+00
         21   -1    0    0  501  502  0.00000000000E+00  0.00000000000E+00  0.62471898728E+03  0.62471898728E+03  0.00000000000E+00 0. -1.
         -4   -1    0    0    0  501 -0.00000000000E+00 -0.00000000000E+00 -0.57969266680E+03  0.57969266680E+03  0.00000000000E+00 0. -1.
   -9000010    2    1    2    0  502 -0.46471016020E+02  0.63512687302E+01  0.21352128482E+03  0.10295103730E+04  0.10060319951E+04 0.  0.
         13    1    3    3    0    0 -0.26556030071E+03  0.24226718986E+03 -0.26932538255E+03  0.44916793902E+03  0.10566000000E+00 0. -1.
         -4    1    3    3    0  502  0.21908928469E+03 -0.23591592113E+03  0.48284666737E+03  0.58034243399E+03  0.00000000000E+00 0. -1.
        -13    1    1    2    0    0  0.46471016020E+02 -0.63512687302E+01 -0.16849496434E+03  0.17490128106E+03  0.10566000000E+00 0.  1.
<mgrwt>
<rscale>  1 0.46785680E+03</rscale>
<asrwt>0</asrwt>
<pdfrwt beam="1">  1       21 0.96110613E-01 0.10071248E+04</pdfrwt>
<pdfrwt beam="2">  1       -4 0.89183487E-01 0.10071248E+04</pdfrwt>
<totfact> 0.36787078E+01</totfact>
</mgrwt>
</event>
<event>
 6    2  0.2267664E-005  0.1044822E+04  0.7818608E-02  0.9631868E-01
         21   -1    0    0  501  502  0.00000000000E+00  0.00000000000E+00  0.54759348936E+03  0.54759348936E+03  0.00000000000E+00 0. -1.
         -4   -1    0    0    0  501 -0.00000000000E+00 -0.00000000000E+00 -0.82283071659E+03  0.82283071659E+03  0.00000000000E+00 0. -1.
   -9000010    2    1    2    0  502  0.22948234729E+03 -0.16166993979E+03 -0.12567020230E+03  0.10523524794E+04  0.10064061923E+04 0.  0.
         13    1    3    3    0    0 -0.24796158159E+03  0.28828247020E+03  0.18271900189E+02  0.38069095349E+03  0.10566000000E+00 0. -1.
         -4    1    3    3    0  502  0.47744392888E+03 -0.44995240998E+03 -0.14394210249E+03  0.67166152587E+03  0.00000000000E+00 0. -1.
        -13    1    1    2    0    0 -0.22948234729E+03  0.16166993979E+03 -0.14956702493E+03  0.31807172659E+03  0.10566000000E+00 0.  1.
<mgrwt>
<rscale>  1 0.75222369E+03</rscale>
<asrwt>0</asrwt>
<pdfrwt beam="1">  1       21 0.84245153E-01 0.10448219E+04</pdfrwt>
<pdfrwt beam="2">  1       -4 0.12658934E+00 0.10448219E+04</pdfrwt>
<totfact> 0.21395500E+01</totfact>
</mgrwt>
</event>
<event>
 6    2  0.2267664E-005  0.1055433E+04  0.7818608E-02  0.9549466E-01
         21   -1    0    0  501  502  0.00000000000E+00  0.00000000000E+00  0.44663298364E+03  0.44663298364E+03  0.00000000000E+00 0. -1.
         -4   -1    0    0    0  501 -0.00000000000E+00 -0.00000000000E+00 -0.13953413344E+04  0.13953413344E+04  0.00000000000E+00 0. -1.
   -9000010    2    1    2    0  502 -0.61980220893E+02 -0.35598283188E+03 -0.29638407375E+03  0.10962583547E+04  0.99165192320E+03 0.  0.
         13    1    3    3    0    0  0.22958818816E+03  0.29923715051E+02  0.26721929980E+03  0.35357082772E+03  0.10566000000E+00 0. -1.
         -4    1    3    3    0  502 -0.29156840905E+03 -0.38590654693E+03 -0.56360337355E+03  0.74268752703E+03  0.00000000000E+00 0. -1.
        -13    1    1    2    0    0  0.61980220893E+02  0.35598283188E+03 -0.65232427705E+03  0.74571596334E+03  0.10566000000E+00 0.  1.
<mgrwt>
<rscale>  1 0.80733075E+03</rscale>
<asrwt>0</asrwt>
<pdfrwt beam="1">  1       21 0.68712766E-01 0.10554330E+04</pdfrwt>
<pdfrwt beam="2">  1       -4 0.21466790E+00 0.10554330E+04</pdfrwt>
<totfact> 0.77804486E+00</totfact>
</mgrwt>
</event>
<event>
 6    2  0.2267664E-005  0.9920101E+03  0.7818608E-02  0.9868517E-01
         21   -1    0    0  501  502  0.00000000000E+00  0.00000000000E+00  0.65877410864E+03  0.65877410864E+03  0.00000000000E+00 0. -1.
         -4   -1    0    0    0  501 -0.00000000000E+00 -0.00000000000E+00 -0.51324470417E+03  0.51324470417E+03  0.00000000000E+00 0. -1.
   -9000010    2    1    2    0  502  0.46840949752E+02  0.14200556881E+03  0.20165922977E+03  0.10122996073E+04  0.98067547839E+03 0.  0.
         13    1    3    3    0    0 -0.11230549446E+02 -0.14530364820E+03 -0.35468624569E+03  0.38346006241E+03  0.10566000000E+00 0. -1.
         -4    1    3    3    0  502  0.58071499199E+02  0.28730921701E+03  0.55634547545E+03  0.62883954492E+03  0.00000000000E+00 0. -1.
        -13    1    1    2    0    0 -0.46840949752E+02 -0.14200556881E+03 -0.56129825297E+02  0.15971920548E+03  0.10566000000E+00 0.  1.
<mgrwt>
<rscale>  1 0.61811636E+03</rscale>
<asrwt>0</asrwt>
<pdfrwt beam="1">  1       21 0.10134986E+00 0.99201011E+03</pdfrwt>
<pdfrwt beam="2">  1       -4 0.78960724E-01 0.99201011E+03</pdfrwt>
<totfact> 0.42852562E+01</totfact>
</mgrwt>
</event>
<event>
 6    2  0.2267664E-005  0.1062197E+04  0.7818608E-02  0.9725780E-01
         21   -1    0    0  501  502  0.00000000000E+00  0.00000000000E+00  0.26092236312E+04  0.26092236312E+04  0.00000000000E+00 0. -1.
         -4   -1    0    0    0  501 -0.00000000000E+00 -0.00000000000E+00 -0.24787163674E+03  0.24787163674E+03  0.00000000000E+00 0. -1.
   -9000010    2    1    2    0  502 -0.64872429656E+02  0.18358287238E+03  0.24289002290E+04  0.26510033508E+04  0.10441988989E+04 0.  0.
         13    1    3    3    0    0 -0.35766162495E+01  0.39762207435E+03  0.23926033177E+04  0.24254209435E+04  0.10566000000E+00 0. -1.
         -4    1    3    3    0  502 -0.61295813407E+02 -0.21403920197E+03  0.36296911302E+02  0.22558240732E+03  0.00000000000E+00 0. -1.
        -13    1    1    2    0    0  0.64872429656E+02 -0.18358287238E+03 -0.67548234515E+02  0.20609191714E+03  0.10566000000E+00 0.  1.
<mgrwt>
<rscale>  1 0.69502371E+03</rscale>
<asrwt>0</asrwt>
<pdfrwt beam="1">  1       21 0.40141900E+00 0.10621970E+04</pdfrwt>
<pdfrwt beam="2">  1       -4 0.38134100E-01 0.10621970E+04</pdfrwt>
<totfact> 0.15971851E+00</totfact>
</mgrwt>
</event>
<event>
 6    2  0.2267664E-005  0.1016214E+04  0.7818608E-02  0.9711989E-01
         21   -1    0    0  501  502  0.00000000000E+00  0.00000000000E+00  0.20666013098E+03  0.20666013098E+03  0.00000000000E+00 0. -1.
         -4   -1    0    0    0  501 -0.00000000000E+00 -0.00000000000E+00 -0.19531129881E+04  0.19531129881E+04  0.00000000000E+00 0. -1.
   -9000010    2    1    2    0  502  0.18988384370E+03  0.13474584439E+03 -0.15585099252E+04  0.18605493341E+04  0.98918063109E+03 0.  0.
         13    1    3    3    0    0  0.56858616119E+03  0.14179190770E+02 -0.62003029317E+03  0.84138507697E+03  0.10566000000E+00 0. -1.
         -4    1    3    3    0  502 -0.37870231748E+03  0.12056665362E+03 -0.93847963205E+03  0.10191642571E+04  0.00000000000E+00 0. -1.
        -13    1    1    2    0    0 -0.18988384370E+03 -0.13474584439E+03 -0.18794293187E+03  0.29922378496E+03  0.10566000000E+00 0.  1.
<mgrwt>
<rscale>  1 0.70307418E+03</rscale>
<asrwt>0</asrwt>
<pdfrwt beam="1">  1       21 0.31793866E-01 0.10162139E+04</pdfrwt>
<pdfrwt beam="2">  1       -4 0.30047893E+00 0.10162139E+04</pdfrwt>
<totfact> 0.11964892E+01</totfact>
</mgrwt>
</event>
<event>
 6    2  0.2267664E-005  0.1053735E+04  0.7818608E-02  0.9681404E-01
         -4   -1    0    0    0  501 -0.00000000000E+00  0.00000000000E+00  0.10095998148E+04  0.10095998148E+04  0.00000000000E+00 0. -1.
         21   -1    0    0  501  502  0.00000000000E+00 -0.00000000000E+00 -0.43192679539E+03  0.43192679539E+03  0.00000000000E+00 0. -1.
   -9000010    2    1    2    0  502  0.21556874776E+03 -0.84153418571E+02  0.59384629254E+03  0.12095497389E+04  0.10280104420E+04 0.  0.
         13    1    3    3    0    0  0.12094444318E+03  0.45904322600E+03  0.41315334401E+03  0.62932021936E+03  0.10566000000E+00 0. -1.
         -4    1    3    3    0  502  0.94624304577E+02 -0.54319664457E+03  0.18069294853E+03  0.58022951954E+03  0.00000000000E+00 0. -1.
        -13    1    1    2    0    0 -0.21556874776E+03  0.84153418571E+02 -0.16173273164E+02  0.23197687125E+03  0.10566000000E+00 0.  1.
<mgrwt>
<rscale>  1 0.72134864E+03</rscale>
<asrwt>0</asrwt>
<pdfrwt beam="2">  1       21 0.66450277E-01 0.10537349E+04</pdfrwt>
<pdfrwt beam="1">  1       -4 0.15532305E+00 0.10537349E+04</pdfrwt>
<totfact> 0.21658740E+01</totfact>
</mgrwt>
</event>
<event>
 6    2  0.2267664E-005  0.1059280E+04  0.7818608E-02  0.9663032E-01
         -4   -1    0    0    0  501 -0.00000000000E+00  0.00000000000E+00  0.42479046776E+03  0.42479046776E+03  0.00000000000E+00 0. -1.
         21   -1    0    0  501  502  0.00000000000E+00 -0.00000000000E+00 -0.15445722504E+04  0.15445722504E+04  0.00000000000E+00 0. -1.
   -9000010    2    1    2    0  502  0.13415219089E+03  0.20184632230E+03 -0.12929714382E+04  0.16714811710E+04  0.10311815635E+04 0.  0.
         13    1    3    3    0    0 -0.34666514151E+03 -0.16767516199E+03 -0.80772413497E+03  0.89482398809E+03  0.10566000000E+00 0. -1.
         -4    1    3    3    0  502  0.48081733239E+03  0.36952148428E+03 -0.48524730323E+03  0.77665718291E+03  0.00000000000E+00 0. -1.
        -13    1    1    2    0    0 -0.13415219089E+03 -0.20184632230E+03  0.17318965560E+03  0.29788154712E+03  0.10566000000E+00 0.  1.
<mgrwt>
<rscale>  1 0.73261142E+03</rscale>
<asrwt>0</asrwt>
<pdfrwt beam="2">  1       21 0.23762650E+00 0.10592800E+04</pdfrwt>
<pdfrwt beam="1">  1       -4 0.65352381E-01 0.10592800E+04</pdfrwt>
<totfact> 0.55771189E+00</totfact>
</mgrwt>
</event>
<event>
 6    2  0.2267664E-005  0.1037005E+04  0.7818608E-02  0.9560199E-01
         -4   -1    0    0    0  501 -0.00000000000E+00  0.00000000000E+00  0.11482479664E+04  0.11482479664E+04  0.00000000000E+00 0. -1.
         21   -1    0    0  501  502  0.00000000000E+00 -0.00000000000E+00 -0.80899270701E+03  0.80899270701E+03  0.00000000000E+00 0. -1.
   -9000010    2    1    2    0  502 -0.36598998069E+03  0.28087375369E+02 -0.41613818122E+03  0.11173854312E+04  0.96986682042E+03 0.  0.
         13    1    3    3    0    0  0.31735981574E+03  0.12988321334E+03 -0.97117169898E+02  0.35639676992E+03  0.10566000000E+00 0. -1.
         -4    1    3    3    0  502 -0.68334979643E+03 -0.10179583797E+03 -0.31902101132E+03  0.76098866127E+03  0.00000000000E+00 0. -1.
        -13    1    1    2    0    0  0.36598998069E+03 -0.28087375369E+02  0.75539344066E+03  0.83985524227E+03  0.10566000000E+00 0.  1.
<mgrwt>
<rscale>  1 0.79987423E+03</rscale>
<asrwt>0</asrwt>
<pdfrwt beam="2">  1       21 0.12446042E+00 0.10370049E+04</pdfrwt>
<pdfrwt beam="1">  1       -4 0.17665353E+00 0.10370049E+04</pdfrwt>
<totfact> 0.32934873E+00</totfact>
</mgrwt>
</event>
<event>
 6    2  0.2267664E-005  0.1043337E+04  0.7818608E-02  0.9643189E-01
         -4   -1    0    0    0  501 -0.00000000000E+00  0.00000000000E+00  0.36592700500E+03  0.36592700500E+03  0.00000000000E+00 0. -1.
         21   -1    0    0  501  502  0.00000000000E+00 -0.00000000000E+00 -0.11891152983E+04  0.11891152983E+04  0.00000000000E+00 0. -1.
   -9000010    2    1    2    0  502 -0.25982509559E+03 -0.77976178101E+02 -0.70464868679E+03  0.12590000527E+04  0.10074532229E+04 0.  0.
         13    1    3    3    0    0 -0.51135940630E+03  0.29613878756E+03 -0.36498353423E+03  0.69454993725E+03  0.10566000000E+00 0. -1.
         -4    1    3    3    0  502  0.25153431071E+03 -0.37411496566E+03 -0.33966515256E+03  0.56445011547E+03  0.00000000000E+00 0. -1.
        -13    1    1    2    0    0  0.25982509559E+03  0.77976178101E+02 -0.11853960652E+03  0.29604225058E+03  0.10566000000E+00 0.  1.
<mgrwt>
<rscale>  1 0.74502395E+03</rscale>
<asrwt>0</asrwt>
<pdfrwt beam="2">  1       21 0.18294081E+00 0.10433366E+04</pdfrwt>
<pdfrwt beam="1">  1       -4 0.56296462E-01 0.10433366E+04</pdfrwt>
<totfact> 0.18151983E+01</totfact>
</mgrwt>
</event>
<event>
 6    2  0.2267664E-005  0.1109481E+04  0.7818608E-02  0.9454999E-01
         -4   -1    0    0    0  501 -0.00000000000E+00  0.00000000000E+00  0.71786149237E+03  0.71786149237E+03  0.00000000000E+00 0. -1.
         21   -1    0    0  501  502  0.00000000000E+00 -0.00000000000E+00 -0.10626599024E+04  0.10626599024E+04  0.00000000000E+00 0.  1.
   -9000010    2    1    2    0  502  0.36711616486E+03  0.22930097034E+03 -0.61670491996E+03  0.12693596055E+04  0.10215652873E+04 0.  0.
         13    1    3    3    0    0  0.53277900620E+03  0.26501384670E+03  0.34903894124E+02  0.59607390597E+03  0.10566000000E+00 0. -1.
         -4    1    3    3    0  502 -0.16566284134E+03 -0.35712876355E+02 -0.65160881408E+03  0.67328569948E+03  0.00000000000E+00 0. -1.
        -13    1    1    2    0    0 -0.36711616486E+03 -0.22930097034E+03  0.27190650997E+03  0.51116178929E+03  0.10566000000E+00 0.  1.
<mgrwt>
<rscale>  1 0.87684464E+03</rscale>
<asrwt>0</asrwt>
<pdfrwt beam="2">  1       21 0.16348614E+00 0.11094813E+04</pdfrwt>
<pdfrwt beam="1">  1       -4 0.11044023E+00 0.11094813E+04</pdfrwt>
<totfact> 0.53323453E+00</totfact>
</mgrwt>
</event>
<event>
 6    2  0.2267664E-005  0.1251851E+04  0.7818608E-02  0.9200670E-01
         21   -1    0    0  501  502  0.00000000000E+00  0.00000000000E+00  0.13644327911E+04  0.13644327911E+04  0.00000000000E+00 0.  1.
         -4   -1    0    0    0  501 -0.00000000000E+00 -0.00000000000E+00 -0.74156194792E+03  0.74156194792E+03  0.00000000000E+00 0. -1.
   -9000010    2    1    2    0  502  0.44398469661E+03  0.61559945038E+03  0.41862589093E+03  0.13199914911E+04  0.99551233333E+03 0.  0.
         13    1    3    3    0    0  0.50721844945E+03  0.58181406715E+03 -0.11603984364E+03  0.78054046703E+03  0.10566000000E+00 0. -1.
         -4    1    3    3    0  502 -0.63233752845E+02  0.33785383233E+02  0.53466573457E+03  0.53945102404E+03  0.00000000000E+00 0. -1.
        -13    1    1    2    0    0 -0.44398469661E+03 -0.61559945038E+03  0.20424495226E+03  0.78600324797E+03  0.10566000000E+00 0.  1.
<mgrwt>
<rscale>  1 0.11046513E+04</rscale>
<asrwt>0</asrwt>
<pdfrwt beam="1">  1       21 0.20991274E+00 0.12518506E+04</pdfrwt>
<pdfrwt beam="2">  1       -4 0.11408645E+00 0.12518506E+04</pdfrwt>
<totfact> 0.22432276E+00</totfact>
</mgrwt>
</event>
<event>
 6    2  0.2267664E-005  0.1089554E+04  0.7818608E-02  0.9474794E-01
         21   -1    0    0  501  502  0.00000000000E+00  0.00000000000E+00  0.99971714686E+03  0.99971714686E+03  0.00000000000E+00 0. -1.
         -4   -1    0    0    0  501 -0.00000000000E+00 -0.00000000000E+00 -0.61693771407E+03  0.61693771407E+03  0.00000000000E+00 0. -1.
   -9000010    2    1    2    0  502 -0.42585790297E+03  0.17652471574E+02  0.46143064380E+03  0.11832352174E+04  0.10027266713E+04 0.  0.
         13    1    3    3    0    0  0.23944193146E+03  0.23171371119E+03  0.33595893709E+03  0.47317237987E+03  0.10566000000E+00 0. -1.
         -4    1    3    3    0  502 -0.66529983443E+03 -0.21406123962E+03  0.12547170671E+03  0.71006283749E+03  0.00000000000E+00 0. -1.
        -13    1    1    2    0    0  0.42585790297E+03 -0.17652471574E+02 -0.78651211011E+02  0.43341964357E+03  0.10566000000E+00 0.  1.
<mgrwt>
<rscale>  1 0.86167971E+03</rscale>
<asrwt>0</asrwt>
<pdfrwt beam="1">  1       21 0.15380264E+00 0.10895537E+04</pdfrwt>
<pdfrwt beam="2">  1       -4 0.94913495E-01 0.10895537E+04</pdfrwt>
<totfact> 0.91954170E+00</totfact>
</mgrwt>
</event>
<event>
 6    2  0.2267664E-005  0.1030796E+04  0.7818608E-02  0.9990222E-01
         -4   -1    0    0    0  501 -0.00000000000E+00  0.00000000000E+00  0.56765309589E+03  0.56765309589E+03  0.00000000000E+00 0. -1.
         21   -1    0    0  501  502  0.00000000000E+00 -0.00000000000E+00 -0.56409364669E+03  0.56409364669E+03  0.00000000000E+00 0. -1.
   -9000010    2    1    2    0  502  0.45817439299E+02  0.77827090263E+02 -0.39802148356E+02  0.10315642440E+04  0.10268321599E+04 0.  0.
         13    1    3    3    0    0  0.27159548258E+03  0.48734391962E+03  0.30154367862E+02  0.55872846644E+03  0.10566000000E+00 0. -1.
         -4    1    3    3    0  502 -0.22577804328E+03 -0.40951682935E+03 -0.69956516218E+02  0.47283577753E+03  0.00000000000E+00 0. -1.
        -13    1    1    2    0    0 -0.45817439299E+02 -0.77827090263E+02  0.43361597552E+02  0.10018249862E+03  0.10566000000E+00 0.  1.
<mgrwt>
<rscale>  1 0.56081065E+03</rscale>
<asrwt>0</asrwt>
<pdfrwt beam="2">  1       21 0.86783638E-01 0.10307961E+04</pdfrwt>
<pdfrwt beam="1">  1       -4 0.87331246E-01 0.10307961E+04</pdfrwt>
<totfact> 0.49390088E+01</totfact>
</mgrwt>
</event>
<event>
 6    2  0.2267664E-005  0.1144774E+04  0.7818608E-02  0.9333328E-01
         21   -1    0    0  501  502  0.00000000000E+00  0.00000000000E+00  0.31831682837E+03  0.31831682837E+03  0.00000000000E+00 0. -1.
         -4   -1    0    0    0  501 -0.00000000000E+00 -0.00000000000E+00 -0.24363078573E+04  0.24363078573E+04  0.00000000000E+00 0. -1.
   -9000010    2    1    2    0  502  0.33697598732E+03 -0.50740148856E+03 -0.12596557248E+04  0.17021283236E+04  0.96927766840E+03 0.  0.
         13    1    3    3    0    0  0.63587638252E+03 -0.11351905157E+03 -0.78665723832E+03  0.10178678552E+04  0.10566000000E+00 0. -1.
         -4    1    3    3    0  502 -0.29890039520E+03 -0.39388243699E+03 -0.47299848646E+03  0.68426046840E+03  0.00000000000E+00 0. -1.
        -13    1    1    2    0    0 -0.33697598732E+03  0.50740148856E+03 -0.85833530415E+03  0.10524963621E+04  0.10566000000E+00 0.  1.
<mgrwt>
<rscale>  1 0.97771659E+03</rscale>
<asrwt>0</asrwt>
<pdfrwt beam="1">  1       21 0.48971820E-01 0.11447743E+04</pdfrwt>
<pdfrwt beam="2">  1       -4 0.37481659E+00 0.11447743E+04</pdfrwt>
<totfact> 0.15875767E+00</totfact>
</mgrwt>
</event>
<event>
 6    2  0.2267664E-005  0.1058512E+04  0.7818608E-02  0.9520668E-01
         21   -1    0    0  501  502  0.00000000000E+00  0.00000000000E+00  0.33826476897E+04  0.33826476897E+04  0.00000000000E+00 0.  1.
         -4   -1    0    0    0  501 -0.00000000000E+00 -0.00000000000E+00 -0.16192617605E+03  0.16192617605E+03  0.00000000000E+00 0. -1.
   -9000010    2    1    2    0  502 -0.39164084854E+03 -0.57712654597E+02  0.20240757446E+04  0.22841475837E+04  0.98169967886E+03 0.  0.
         13    1    3    3    0    0 -0.34270766257E+03 -0.49517587488E+03  0.96837140371E+03  0.11403468226E+04  0.10566000000E+00 0. -1.
         -4    1    3    3    0  502 -0.48933185968E+02  0.43746322028E+03  0.10557043409E+04  0.11438007612E+04  0.00000000000E+00 0. -1.
        -13    1    1    2    0    0  0.39164084854E+03  0.57712654597E+02  0.11966457690E+04  0.12604262820E+04  0.10566000000E+00 0.  1.
<mgrwt>
<rscale>  1 0.82777083E+03</rscale>
<asrwt>0</asrwt>
<pdfrwt beam="1">  1       21 0.52040728E+00 0.10585120E+04</pdfrwt>
<pdfrwt beam="2">  1       -4 0.24911722E-01 0.10585120E+04</pdfrwt>
<totfact> 0.55060337E-01</totfact>
</mgrwt>
</event>
<event>
 6    2  0.2267664E-005  0.9256198E+03  0.7818608E-02  0.9800299E-01
         -4   -1    0    0    0  501 -0.00000000000E+00  0.00000000000E+00  0.67602591358E+03  0.67602591358E+03  0.00000000000E+00 0. -1.
         21   -1    0    0  501  502  0.00000000000E+00 -0.00000000000E+00 -0.49597559311E+03  0.49597559311E+03  0.00000000000E+00 0. -1.
   -9000010    2    1    2    0  502 -0.22522381064E+03 -0.46271080603E+02  0.11296895201E+03  0.93248804373E+03  0.89660760079E+03 0.  0.
         13    1    3    3    0    0  0.29358100899E+03  0.19564113336E+03  0.29939731663E+02  0.35406448649E+03  0.10566000000E+00 0. -1.
         -4    1    3    3    0  502 -0.51880481963E+03 -0.24191221396E+03  0.83029220348E+02  0.57842355724E+03  0.00000000000E+00 0. -1.
        -13    1    1    2    0    0  0.22522381064E+03  0.46271080603E+02  0.67081368454E+02  0.23951346296E+03  0.10566000000E+00 0.  1.
<mgrwt>
<rscale>  1 0.65346501E+03</rscale>
<asrwt>0</asrwt>
<pdfrwt beam="2">  1       21 0.76303937E-01 0.92561977E+03</pdfrwt>
<pdfrwt beam="1">  1       -4 0.10400399E+00 0.92561977E+03</pdfrwt>
<totfact> 0.44517438E+01</totfact>
</mgrwt>
</event>
<event>
 6    2  0.2267664E-005  0.1006152E+04  0.7818608E-02  0.1008045E+00
         21   -1    0    0  501  502  0.00000000000E+00  0.00000000000E+00  0.89940411731E+03  0.89940411731E+03  0.00000000000E+00 0. -1.
         -4   -1    0    0    0  501 -0.00000000000E+00 -0.00000000000E+00 -0.37942419816E+03  0.37942419816E+03  0.00000000000E+00 0. -1.
   -9000010    2    1    2    0  502 -0.68403124487E+02 -0.26133929489E+02  0.59911132440E+03  0.11710147719E+04  0.10034835561E+04 0.  0.
         13    1    3    3    0    0 -0.14570971630E+03 -0.49458498556E+03  0.41466537284E+03  0.66165928691E+03  0.10566000000E+00 0. -1.
         -4    1    3    3    0  502  0.77306591816E+02  0.46845105607E+03  0.18444595156E+03  0.50935548502E+03  0.00000000000E+00 0. -1.
        -13    1    1    2    0    0  0.68403124487E+02  0.26133929489E+02 -0.79131405251E+02  0.10781354354E+03  0.10566000000E+00 0.  1.
<mgrwt>
<rscale>  1 0.52259260E+03</rscale>
<asrwt>0</asrwt>
<pdfrwt beam="1">  1       21 0.13836986E+00 0.10061517E+04</pdfrwt>
<pdfrwt beam="2">  1       -4 0.58372954E-01 0.10061517E+04</pdfrwt>
<totfact> 0.37458510E+01</totfact>
</mgrwt>
</event>
<event>
 6    2  0.2267664E-005  0.1144615E+04  0.7818608E-02  0.9361531E-01
         21   -1    0    0  501  502  0.00000000000E+00  0.00000000000E+00  0.63708158437E+03  0.63708158437E+03  0.00000000000E+00 0. -1.
         -4   -1    0    0    0  501 -0.00000000000E+00 -0.00000000000E+00 -0.11418601851E+04  0.11418601851E+04  0.00000000000E+00 0. -1.
   -9000010    2    1    2    0  502  0.14138632934E+03  0.53180296435E+03 -0.24552869810E+03  0.11706531783E+04  0.10036633077E+04 0.  0.
         13    1    3    3    0    0 -0.21077461714E+02  0.68239215016E+03 -0.49029324836E+03  0.84053006285E+03  0.10566000000E+00 0. -1.
         -4    1    3    3    0  502  0.16246379106E+03 -0.15058918582E+03  0.24476455026E+03  0.33012311545E+03  0.00000000000E+00 0. -1.
        -13    1    1    2    0    0 -0.14138632934E+03 -0.53180296435E+03 -0.25924990266E+03  0.60828859122E+03  0.10566000000E+00 0.  1.
<mgrwt>
<rscale>  1 0.95310334E+03</rscale>
<asrwt>0</asrwt>
<pdfrwt beam="1">  1       21 0.98012552E-01 0.11446154E+04</pdfrwt>
<pdfrwt beam="2">  1       -4 0.17567080E+00 0.11446154E+04</pdfrwt>
<totfact> 0.60688884E+00</totfact>
</mgrwt>
</event>
<event>
 6    2  0.2267664E-005  0.1038889E+04  0.7818608E-02  0.9629056E-01
         -4   -1    0    0    0  501 -0.00000000000E+00  0.00000000000E+00  0.13473815573E+04  0.13473815573E+04  0.00000000000E+00 0. -1.
         21   -1    0    0  501  502  0.00000000000E+00 -0.00000000000E+00 -0.42761911961E+03  0.42761911961E+03  0.00000000000E+00 0. -1.
   -9000010    2    1    2    0  502  0.17964425732E+03 -0.22548074418E+03  0.28412624178E+03  0.10770415020E+04  0.99808669487E+03 0.  0.
         13    1    3    3    0    0 -0.10090235110E+03 -0.20920754202E+03 -0.32891549346E+03  0.40265927668E+03  0.10566000000E+00 0. -1.
         -4    1    3    3    0  502  0.28054660842E+03 -0.16273202158E+02  0.61304173525E+03  0.67438222527E+03  0.00000000000E+00 0. -1.
        -13    1    1    2    0    0 -0.17964425732E+03  0.22548074418E+03  0.63563619586E+03  0.69795917491E+03  0.10566000000E+00 0.  1.
<mgrwt>
<rscale>  1 0.75402535E+03</rscale>
<asrwt>0</asrwt>
<pdfrwt beam="2">  1       21 0.65787557E-01 0.10388892E+04</pdfrwt>
<pdfrwt beam="1">  1       -4 0.20728947E+00 0.10388892E+04</pdfrwt>
<totfact> 0.96091334E+00</totfact>
</mgrwt>
</event>
<event>
 6    2  0.2267664E-005  0.9937017E+03  0.7818608E-02  0.1003711E+00
         -4   -1    0    0    0  501 -0.00000000000E+00  0.00000000000E+00  0.90625628659E+03  0.90625628659E+03  0.00000000000E+00 0. -1.
         21   -1    0    0  501  502  0.00000000000E+00 -0.00000000000E+00 -0.42347050054E+03  0.42347050054E+03  0.00000000000E+00 0. -1.
   -9000010    2    1    2    0  502  0.62993814155E+02  0.59998179648E+02  0.17387356788E+03  0.10087988016E+04  0.98988635831E+03 0.  0.
         13    1    3    3    0    0  0.52266063778E+03 -0.33122026653E+02  0.11417486309E+03  0.53601037440E+03  0.10566000000E+00 0. -1.
         -4    1    3    3    0  502 -0.45966682363E+03  0.93120206301E+02  0.59698704798E+02  0.47278842723E+03  0.00000000000E+00 0. -1.
        -13    1    1    2    0    0 -0.62993814155E+02 -0.59998179648E+02  0.30891221817E+03  0.32092798551E+03  0.10566000000E+00 0.  1.
<mgrwt>
<rscale>  1 0.54052371E+03</rscale>
<asrwt>0</asrwt>
<pdfrwt beam="2">  1       21 0.65149308E-01 0.99370167E+03</pdfrwt>
<pdfrwt beam="1">  1       -4 0.13942404E+00 0.99370167E+03</pdfrwt>
<totfact> 0.30392485E+01</totfact>
</mgrwt>
</event>
<event>
 6    2  0.2267664E-005  0.1040386E+04  0.7818608E-02  0.9634667E-01
         -4   -1    0    0    0  501 -0.00000000000E+00  0.00000000000E+00  0.24781189808E+04  0.24781189808E+04  0.00000000000E+00 0. -1.
         21   -1    0    0  501  502  0.00000000000E+00 -0.00000000000E+00 -0.17851835620E+03  0.17851835620E+03  0.00000000000E+00 0. -1.
   -9000010    2    1    2    0  502 -0.17044548236E+03 -0.22418878528E+03  0.16803474031E+04  0.19763529572E+04  0.10015444785E+04 0.  0.
         13    1    3    3    0    0 -0.55425433727E+03  0.40269952825E+02  0.10964457315E+04  0.12292326032E+04  0.10566000000E+00 0. -1.
         -4    1    3    3    0  502  0.38380885491E+03 -0.26445873811E+03  0.58390167169E+03  0.74712035407E+03  0.00000000000E+00 0. -1.
        -13    1    1    2    0    0  0.17044548236E+03  0.22418878528E+03  0.61925322143E+03  0.68028437974E+03  0.10566000000E+00 0.  1.
<mgrwt>
<rscale>  1 0.75043576E+03</rscale>
<asrwt>0</asrwt>
<pdfrwt beam="2">  1       21 0.27464364E-01 0.10403863E+04</pdfrwt>
<pdfrwt beam="1">  1       -4 0.38124905E+00 0.10403863E+04</pdfrwt>
<totfact> 0.48452311E+00</totfact>
</mgrwt>
</event>
<event>
 6    2  0.2267664E-005  0.1016946E+04  0.7818608E-02  0.9805693E-01
         -4   -1    0    0    0  501 -0.00000000000E+00  0.00000000000E+00  0.40480992417E+03  0.40480992417E+03  0.00000000000E+00 0. -1.
         21   -1    0    0  501  502  0.00000000000E+00 -0.00000000000E+00 -0.90890738992E+03  0.90890738992E+03  0.00000000000E+00 0. -1.
   -9000010    2    1    2    0  502 -0.11011236828E+03 -0.12995995359E+03 -0.52083280485E+03  0.11425612277E+04  0.10025791865E+04 0.  0.
         13    1    3    3    0    0  0.40617294958E+03 -0.11005528934E+03 -0.17398312028E+02  0.42117851810E+03  0.10566000000E+00 0. -1.
         -4    1    3    3    0  502 -0.51628531786E+03 -0.19904664252E+02 -0.50343449282E+03  0.72138270956E+03  0.00000000000E+00 0. -1.
        -13    1    1    2    0    0  0.11011236828E+03  0.12995995359E+03  0.16735339090E+02  0.17115608643E+03  0.10566000000E+00 0.  1.
<mgrwt>
<rscale>  1 0.65057898E+03</rscale>
<asrwt>0</asrwt>
<pdfrwt beam="2">  1       21 0.13983191E+00 0.10169461E+04</pdfrwt>
<pdfrwt beam="1">  1       -4 0.62278449E-01 0.10169461E+04</pdfrwt>
<totfact> 0.31575006E+01</totfact>
</mgrwt>
</event>
<event>
 6    2  0.2267664E-005  0.1028419E+04  0.7818608E-02  0.9744477E-01
         21   -1    0    0  501  502  0.00000000000E+00  0.00000000000E+00  0.49901612835E+03  0.49901612835E+03  0.00000000000E+00 0. -1.
         -4   -1    0    0    0  501 -0.00000000000E+00 -0.00000000000E+00 -0.75801998333E+03  0.75801998333E+03  0.00000000000E+00 0. -1.
   -9000010    2    1    2    0  502  0.55560793902E+02  0.19377604973E+03 -0.22114809834E+03  0.10519282651E+04  0.10084693521E+04 0.  0.
         13    1    3    3    0    0  0.26124664890E+03  0.54914396975E+03 -0.60885709313E+02  0.61115954696E+03  0.10566000000E+00 0. -1.
         -4    1    3    3    0  502 -0.20568585500E+03 -0.35536792002E+03 -0.16026238903E+03  0.44076871810E+03  0.00000000000E+00 0. -1.
        -13    1    1    2    0    0 -0.55560793902E+02 -0.19377604973E+03 -0.37855756632E+02  0.20510784662E+03  0.10566000000E+00 0.  1.
<mgrwt>
<rscale>  1 0.68429264E+03</rscale>
<asrwt>0</asrwt>
<pdfrwt beam="1">  1       21 0.76771712E-01 0.10284195E+04</pdfrwt>
<pdfrwt beam="2">  1       -4 0.11661846E+00 0.10284195E+04</pdfrwt>
<totfact> 0.32819516E+01</totfact>
</mgrwt>
</event>
<event>
 6    2  0.2267664E-005  0.1004066E+04  0.7818608E-02  0.9846444E-01
         -4   -1    0    0    0  501 -0.00000000000E+00  0.00000000000E+00  0.40307647719E+03  0.40307647719E+03  0.00000000000E+00 0. -1.
         21   -1    0    0  501  502  0.00000000000E+00 -0.00000000000E+00 -0.83396107862E+03  0.83396107862E+03  0.00000000000E+00 0. -1.
   -9000010    2    1    2    0  502 -0.20096642613E+02 -0.15360968858E+03 -0.35976298751E+03  0.10665731707E+04  0.99204289713E+03 0.  0.
         13    1    3    3    0    0  0.38785787550E+02 -0.57613138579E+03 -0.20311990795E+03  0.61211879499E+03  0.10566000000E+00 0. -1.
         -4    1    3    3    0  502 -0.58882430163E+02  0.42252169722E+03 -0.15664307956E+03  0.45445437568E+03  0.00000000000E+00 0. -1.
        -13    1    1    2    0    0  0.20096642613E+02  0.15360968858E+03 -0.71121613928E+02  0.17046438514E+03  0.10566000000E+00 0.  1.
<mgrwt>
<rscale>  1 0.62928563E+03</rscale>
<asrwt>0</asrwt>
<pdfrwt beam="2">  1       21 0.12830170E+00 0.10040662E+04</pdfrwt>
<pdfrwt beam="1">  1       -4 0.62011766E-01 0.10040662E+04</pdfrwt>
<totfact> 0.40194367E+01</totfact>
</mgrwt>
</event>
<event>
 6    2  0.2267664E-005  0.1029741E+04  0.7818608E-02  0.9696315E-01
         -4   -1    0    0    0  501 -0.00000000000E+00  0.00000000000E+00  0.12695687925E+04  0.12695687925E+04  0.00000000000E+00 0. -1.
         21   -1    0    0  501  502  0.00000000000E+00 -0.00000000000E+00 -0.60730816553E+03  0.60730816553E+03  0.00000000000E+00 0. -1.
   -9000010    2    1    2    0  502 -0.23375908923E+03  0.31309460461E+02 -0.14132801605E+03  0.10393936373E+04  0.10023681614E+04 0.  0.
         13    1    3    3    0    0  0.73833145305E+02 -0.39360535921E+03 -0.28967882911E+03  0.49425736954E+03  0.10566000000E+00 0. -1.
         -4    1    3    3    0  502 -0.30759223453E+03  0.42491481967E+03  0.14835081305E+03  0.54513626778E+03  0.00000000000E+00 0. -1.
        -13    1    1    2    0    0  0.23375908923E+03 -0.31309460461E+02  0.80358864304E+03  0.83748332072E+03  0.10566000000E+00 0.  1.
<mgrwt>
<rscale>  1 0.71236610E+03</rscale>
<asrwt>0</asrwt>
<pdfrwt beam="2">  1       21 0.93432026E-01 0.10297405E+04</pdfrwt>
<pdfrwt beam="1">  1       -4 0.19531828E+00 0.10297405E+04</pdfrwt>
<totfact> 0.50661203E+00</totfact>
</mgrwt>
</event>
<event>
 6    2  0.2267664E-005  0.1013029E+04  0.7818608E-02  0.9865806E-01
         21   -1    0    0  501  502  0.00000000000E+00  0.00000000000E+00  0.87153278188E+03  0.87153278188E+03  0.00000000000E+00 0. -1.
         -4   -1    0    0    0  501 -0.00000000000E+00 -0.00000000000E+00 -0.39029930881E+03  0.39029930881E+03  0.00000000000E+00 0. -1.
   -9000010    2    1    2    0  502 -0.13848049989E+03 -0.29815673231E+02  0.47800575100E+03  0.11201413974E+04  0.10030759836E+04 0.  0.
         13    1    3    3    0    0 -0.15034998431E+03 -0.45548095881E+03  0.50112734802E+03  0.69368339444E+03  0.10566000000E+00 0. -1.
         -4    1    3    3    0  502  0.11869484419E+02  0.42566528558E+03 -0.23121597024E+02  0.42645800292E+03  0.00000000000E+00 0. -1.
        -13    1    1    2    0    0  0.13848049989E+03  0.29815673231E+02  0.32277220744E+01  0.14169069332E+03  0.10566000000E+00 0.  1.
<mgrwt>
<rscale>  1 0.61947457E+03</rscale>
<asrwt>0</asrwt>
<pdfrwt beam="1">  1       21 0.13408197E+00 0.10130288E+04</pdfrwt>
<pdfrwt beam="2">  1       -4 0.60046048E-01 0.10130288E+04</pdfrwt>
<totfact> 0.38320682E+01</totfact>
</mgrwt>
</event>
<event>
 6    2  0.2267664E-005  0.1012511E+04  0.7818608E-02  0.9850092E-01
         -4   -1    0    0    0  501 -0.00000000000E+00  0.00000000000E+00  0.16231730459E+04  0.16231730459E+04  0.00000000000E+00 0. -1.
         21   -1    0    0  501  502  0.00000000000E+00 -0.00000000000E+00 -0.21541911769E+03  0.21541911769E+03  0.00000000000E+00 0. -1.
   -9000010    2    1    2    0  502 -0.12739553824E+03 -0.77838989803E+02  0.10911370973E+04  0.14885425095E+04  0.10014440105E+04 0.  0.
         13    1    3    3    0    0  0.42390181337E+03  0.14540762422E+01  0.29311542954E+03  0.51537513319E+03  0.10566000000E+00 0. -1.
         -4    1    3    3    0  502 -0.55129735161E+03 -0.79293066045E+02  0.79802166774E+03  0.97316737635E+03  0.00000000000E+00 0. -1.
        -13    1    1    2    0    0  0.12739553824E+03  0.77838989803E+02  0.31661683090E+03  0.35004965401E+03  0.10566000000E+00 0.  1.
<mgrwt>
<rscale>  1 0.62742243E+03</rscale>
<asrwt>0</asrwt>
<pdfrwt beam="2">  1       21 0.33141404E-01 0.10125111E+04</pdfrwt>
<pdfrwt beam="1">  1       -4 0.24971892E+00 0.10125111E+04</pdfrwt>
<totfact> 0.22615658E+01</totfact>
</mgrwt>
</event>
<event>
 6    2  0.2267664E-005  0.9852234E+03  0.7818608E-02  0.9993589E-01
         -4   -1    0    0    0  501 -0.00000000000E+00  0.00000000000E+00  0.15913218198E+04  0.15913218198E+04  0.00000000000E+00 0. -1.
         21   -1    0    0  501  502  0.00000000000E+00 -0.00000000000E+00 -0.19382527674E+03  0.19382527674E+03  0.00000000000E+00 0. -1.
   -9000010    2    1    2    0  502  0.59770856003E+02 -0.83071302441E+02  0.11324875235E+04  0.15010640310E+04  0.97989378901E+03 0.  0.
         13    1    3    3    0    0 -0.14121893717E+03 -0.33766570186E+03  0.11179838147E+04  0.11763710025E+04  0.10566000000E+00 0. -1.
         -4    1    3    3    0  502  0.20098979317E+03  0.25459439942E+03  0.14503708796E+02  0.32469302848E+03  0.00000000000E+00 0. -1.
        -13    1    1    2    0    0 -0.59770856003E+02  0.83071302441E+02  0.26500901956E+03  0.28408306555E+03  0.10566000000E+00 0.  1.
<mgrwt>
<rscale>  1 0.55932220E+03</rscale>
<asrwt>0</asrwt>
<pdfrwt beam="2">  1       21 0.29819274E-01 0.98522344E+03</pdfrwt>
<pdfrwt beam="1">  1       -4 0.24481873E+00 0.98522344E+03</pdfrwt>
<totfact> 0.30138859E+01</totfact>
</mgrwt>
</event>
<event>
 6    2  0.2267664E-005  0.1020516E+04  0.7818608E-02  0.9800829E-01
         -4   -1    0    0    0  501 -0.00000000000E+00  0.00000000000E+00  0.10400490363E+04  0.10400490363E+04  0.00000000000E+00 0. -1.
         21   -1    0    0  501  502  0.00000000000E+00 -0.00000000000E+00 -0.36309378954E+03  0.36309378954E+03  0.00000000000E+00 0. -1.
   -9000010    2    1    2    0  502 -0.12083216831E+03  0.12137515544E+03  0.44134735864E+03  0.11118638713E+04  0.10060424623E+04 0.  0.
         13    1    3    3    0    0  0.40179869434E+03  0.24957036055E+03  0.28182628469E+03  0.55059388077E+03  0.10566000000E+00 0. -1.
         -4    1    3    3    0  502 -0.52263086265E+03 -0.12819520511E+03  0.15952107395E+03  0.56126999051E+03  0.00000000000E+00 0. -1.
        -13    1    1    2    0    0  0.12083216831E+03 -0.12137515544E+03  0.23560788809E+03  0.29127895453E+03  0.10566000000E+00 0.  1.
<mgrwt>
<rscale>  1 0.65318073E+03</rscale>
<asrwt>0</asrwt>
<pdfrwt beam="2">  1       21 0.55860584E-01 0.10205164E+04</pdfrwt>
<pdfrwt beam="1">  1       -4 0.16000754E+00 0.10205164E+04</pdfrwt>
<totfact> 0.29524122E+01</totfact>
</mgrwt>
</event>
<event>
 6    2  0.2267664E-005  0.1048863E+04  0.7818608E-02  0.9576162E-01
         -4   -1    0    0    0  501 -0.00000000000E+00  0.00000000000E+00  0.89900020149E+03  0.89900020149E+03  0.00000000000E+00 0. -1.
         21   -1    0    0  501  502  0.00000000000E+00 -0.00000000000E+00 -0.72701187197E+03  0.72701187197E+03  0.00000000000E+00 0. -1.
   -9000010    2    1    2    0  502 -0.29672640564E+03  0.15711723673E+03 -0.25832663539E+03  0.10802068279E+04  0.99367084824E+03 0.  0.
         13    1    3    3    0    0 -0.27341963219E+03 -0.22714908155E+03 -0.50898532962E+03  0.62082290345E+03  0.10566000000E+00 0. -1.
         -4    1    3    3    0  502 -0.23306773454E+02  0.38426631829E+03  0.25065869423E+03  0.45938392446E+03  0.00000000000E+00 0. -1.
        -13    1    1    2    0    0  0.29672640564E+03 -0.15711723673E+03  0.43031496490E+03  0.54580524555E+03  0.10566000000E+00 0.  1.
<mgrwt>
<rscale>  1 0.78894231E+03</rscale>
<asrwt>0</asrwt>
<pdfrwt beam="2">  1       21 0.11184798E+00 0.10488633E+04</pdfrwt>
<pdfrwt beam="1">  1       -4 0.13830772E+00 0.10488633E+04</pdfrwt>
<totfact> 0.84646793E+00</totfact>
</mgrwt>
</event>
<event>
 6    2  0.2267664E-005  0.1082634E+04  0.7818608E-02  0.9436521E-01
         -4   -1    0    0    0  501 -0.00000000000E+00  0.00000000000E+00  0.17188002586E+04  0.17188002586E+04  0.00000000000E+00 0. -1.
         21   -1    0    0  501  502  0.00000000000E+00 -0.00000000000E+00 -0.37844776155E+03  0.37844776155E+03  0.00000000000E+00 0.  1.
   -9000010    2    1    2    0  502  0.45831508068E+03  0.19311835482E+03  0.71152190782E+03  0.12955153133E+04  0.96163875208E+03 0.  0.
         13    1    3    3    0    0  0.71257501574E+03  0.13056420934E+03  0.73576898480E+03  0.10325532315E+04  0.10566000000E+00 0. -1.
         -4    1    3    3    0  502 -0.25425993506E+03  0.62554145479E+02 -0.24247076976E+02  0.26296208174E+03  0.00000000000E+00 0. -1.
        -13    1    1    2    0    0 -0.45831508068E+03 -0.19311835482E+03  0.62883058926E+03  0.80173270689E+03  0.10566000000E+00 0.  1.
<mgrwt>
<rscale>  1 0.89130160E+03</rscale>
<asrwt>0</asrwt>
<pdfrwt beam="2">  1       21 0.58222734E-01 0.10826341E+04</pdfrwt>
<pdfrwt beam="1">  1       -4 0.26443080E+00 0.10826341E+04</pdfrwt>
<totfact> 0.54930466E+00</totfact>
</mgrwt>
</event>
<event>
 6    2  0.2267664E-005  0.1003887E+04  0.7818608E-02  0.1014950E+00
         -4   -1    0    0    0  501 -0.00000000000E+00  0.00000000000E+00  0.10755243815E+04  0.10755243815E+04  0.00000000000E+00 0. -1.
         21   -1    0    0  501  502  0.00000000000E+00 -0.00000000000E+00 -0.33924530608E+03  0.33924530608E+03  0.00000000000E+00 0. -1.
   -9000010    2    1    2    0  502  0.59402894748E+02 -0.48671806040E+01  0.41213833340E+03  0.10851947717E+04  0.10021164071E+04 0.  0.
         13    1    3    3    0    0  0.10392442100E+03  0.41972910917E+03  0.48753742741E+03  0.65166368984E+03  0.10566000000E+00 0. -1.
         -4    1    3    3    0  502 -0.44521526252E+02 -0.42459628977E+03 -0.75399094015E+02  0.43353108189E+03  0.00000000000E+00 0. -1.
        -13    1    1    2    0    0 -0.59402894748E+02  0.48671806040E+01  0.32414074206E+03  0.32957491589E+03  0.10566000000E+00 0.  1.
<mgrwt>
<rscale>  1 0.49554034E+03</rscale>
<asrwt>0</asrwt>
<pdfrwt beam="2">  1       21 0.52191586E-01 0.10038873E+04</pdfrwt>
<pdfrwt beam="1">  1       -4 0.16546529E+00 0.10038873E+04</pdfrwt>
<totfact> 0.31262859E+01</totfact>
</mgrwt>
</event>
<event>
 6    2  0.2267664E-005  0.1088493E+04  0.7818608E-02  0.9621266E-01
         -4   -1    0    0    0  501 -0.00000000000E+00  0.00000000000E+00  0.66796257328E+03  0.66796257328E+03  0.00000000000E+00 0. -1.
         21   -1    0    0  501  502  0.00000000000E+00 -0.00000000000E+00 -0.84506080004E+03  0.84506080004E+03  0.00000000000E+00 0. -1.
   -9000010    2    1    2    0  502 -0.20261317703E+03  0.15873818607E+03 -0.41268128400E+03  0.11640974510E+04  0.10576233366E+04 0.  0.
         13    1    3    3    0    0  0.15175790077E+03  0.51525997980E+03 -0.40567630435E+02  0.53867341778E+03  0.10566000000E+00 0. -1.
         -4    1    3    3    0  502 -0.35437107780E+03 -0.35652179373E+03 -0.37211365357E+03  0.62542403324E+03  0.00000000000E+00 0. -1.
        -13    1    1    2    0    0  0.20261317703E+03 -0.15873818607E+03  0.23558305724E+03  0.34892592229E+03  0.10566000000E+00 0.  1.
<mgrwt>
<rscale>  1 0.75904479E+03</rscale>
<asrwt>0</asrwt>
<pdfrwt beam="2">  1       21 0.13000935E+00 0.10884930E+04</pdfrwt>
<pdfrwt beam="1">  1       -4 0.10276347E+00 0.10884930E+04</pdfrwt>
<totfact> 0.12032603E+01</totfact>
</mgrwt>
</event>
<event>
 6    2  0.2267664E-005  0.1004583E+04  0.7818608E-02  0.9871796E-01
         21   -1    0    0  501  502  0.00000000000E+00  0.00000000000E+00  0.10700944398E+04  0.10700944398E+04  0.00000000000E+00 0. -1.
         -4   -1    0    0    0  501 -0.00000000000E+00 -0.00000000000E+00 -0.59715894958E+03  0.59715894958E+03  0.00000000000E+00 0. -1.
   -9000010    2    1    2    0  502 -0.10144391507E+03 -0.10002990174E+03  0.81699616762E+03  0.12948629892E+04  0.99442977322E+03 0.  0.
         13    1    3    3    0    0 -0.54933143472E+03 -0.36244091937E+02  0.41140921932E+03  0.68726720879E+03  0.10566000000E+00 0. -1.
         -4    1    3    3    0  502  0.44788751965E+03 -0.63785809802E+02  0.40558694830E+03  0.60759578045E+03  0.00000000000E+00 0. -1.
        -13    1    1    2    0    0  0.10144391507E+03  0.10002990174E+03 -0.34406067745E+03  0.37239040008E+03  0.10566000000E+00 0.  1.
<mgrwt>
<rscale>  1 0.61647865E+03</rscale>
<asrwt>0</asrwt>
<pdfrwt beam="1">  1       21 0.16462991E+00 0.10045832E+04</pdfrwt>
<pdfrwt beam="2">  1       -4 0.91870608E-01 0.10045832E+04</pdfrwt>
<totfact> 0.82626099E+00</totfact>
</mgrwt>
</event>
<event>
 6    2  0.2267664E-005  0.9958264E+03  0.7818608E-02  0.9922198E-01
         21   -1    0    0  501  502  0.00000000000E+00  0.00000000000E+00  0.64010119268E+03  0.64010119268E+03  0.00000000000E+00 0.  1.
         -4   -1    0    0    0  501 -0.00000000000E+00 -0.00000000000E+00 -0.54796842386E+03  0.54796842386E+03  0.00000000000E+00 0. -1.
   -9000010    2    1    2    0  502  0.18443392621E+02  0.12297884052E+03 -0.52645525023E+02  0.99721700462E+03  0.98803150205E+03 0.  0.
         13    1    3    3    0    0  0.22271644969E+03  0.46896030515E+03  0.15917894544E+03  0.54301411823E+03  0.10566000000E+00 0. -1.
         -4    1    3    3    0  502 -0.20427305707E+03 -0.34598146463E+03 -0.21182447046E+03  0.45420288638E+03  0.00000000000E+00 0. -1.
        -13    1    1    2    0    0 -0.18443392621E+02 -0.12297884052E+03  0.14477829384E+03  0.19085261192E+03  0.10566000000E+00 0.  1.
<mgrwt>
<rscale>  1 0.59197435E+03</rscale>
<asrwt>0</asrwt>
<pdfrwt beam="1">  1       21 0.98477106E-01 0.99582639E+03</pdfrwt>
<pdfrwt beam="2">  1       -4 0.84302835E-01 0.99582639E+03</pdfrwt>
<totfact> 0.39556761E+01</totfact>
</mgrwt>
</event>
<event>
 6    2  0.2267664E-005  0.1130354E+04  0.7818608E-02  0.9382080E-01
         21   -1    0    0  501  502  0.00000000000E+00  0.00000000000E+00  0.30033806310E+03  0.30033806310E+03  0.00000000000E+00 0.  1.
         -4   -1    0    0    0  501 -0.00000000000E+00 -0.00000000000E+00 -0.23221398015E+04  0.23221398015E+04  0.00000000000E+00 0. -1.
   -9000010    2    1    2    0  502  0.11662916070E+03 -0.51768192769E+03 -0.15003431267E+04  0.18784912826E+04  0.99804962875E+03 0.  0.
         13    1    3    3    0    0  0.72833012577E+02  0.21896535735E+03 -0.29150148882E+02  0.23259453515E+03  0.10566000000E+00 0. -1.
         -4    1    3    3    0  502  0.43796148123E+02 -0.73664728503E+03 -0.14711929778E+04  0.16458967474E+04  0.00000000000E+00 0. -1.
        -13    1    1    2    0    0 -0.11662916070E+03  0.51768192769E+03 -0.52145861173E+03  0.74398658206E+03  0.10566000000E+00 0.  1.
<mgrwt>
<rscale>  1 0.93565207E+03</rscale>
<asrwt>0</asrwt>
<pdfrwt beam="1">  1       21 0.46205853E-01 0.11303539E+04</pdfrwt>
<pdfrwt beam="2">  1       -4 0.35725230E+00 0.11303539E+04</pdfrwt>
<totfact> 0.23566349E+00</totfact>
</mgrwt>
</event>
<event>
 6    2  0.2267664E-005  0.1021486E+04  0.7818608E-02  0.9707238E-01
         21   -1    0    0  501  502  0.00000000000E+00  0.00000000000E+00  0.38492150480E+03  0.38492150480E+03  0.00000000000E+00 0. -1.
         -4   -1    0    0    0  501 -0.00000000000E+00 -0.00000000000E+00 -0.11140874634E+04  0.11140874634E+04  0.00000000000E+00 0. -1.
   -9000010    2    1    2    0  502  0.22994472911E+03 -0.37130412033E+02 -0.40276702188E+03  0.10980232789E+04  0.99457558849E+03 0.  0.
         13    1    3    3    0    0  0.83825232550E+02 -0.36564680122E+03 -0.58498936129E+03  0.69493655598E+03  0.10566000000E+00 0. -1.
         -4    1    3    3    0  502  0.14611949656E+03  0.32851638919E+03  0.18222233941E+03  0.40308672295E+03  0.00000000000E+00 0. -1.
        -13    1    1    2    0    0 -0.22994472911E+03  0.37130412033E+02 -0.32639893671E+03  0.40098568926E+03  0.10566000000E+00 0.  1.
<mgrwt>
<rscale>  1 0.70587463E+03</rscale>
<asrwt>0</asrwt>
<pdfrwt beam="1">  1       21 0.59218692E-01 0.10214861E+04</pdfrwt>
<pdfrwt beam="2">  1       -4 0.17139807E+00 0.10214861E+04</pdfrwt>
<totfact> 0.21414060E+01</totfact>
</mgrwt>
</event>
<event>
 6    2  0.2267664E-005  0.1046775E+04  0.7818608E-02  0.9790332E-01
         -4   -1    0    0    0  501 -0.00000000000E+00  0.00000000000E+00  0.26089947823E+03  0.26089947823E+03  0.00000000000E+00 0. -1.
         21   -1    0    0  501  502  0.00000000000E+00 -0.00000000000E+00 -0.14187346036E+04  0.14187346036E+04  0.00000000000E+00 0. -1.
   -9000010    2    1    2    0  502  0.15543832667E+03 -0.53137172454E+02 -0.10529443004E+04  0.14847322378E+04  0.10338053422E+04 0.  0.
         13    1    3    3    0    0  0.47543857540E+03  0.98031246276E+01 -0.10564910972E+04  0.11585816285E+04  0.10566000000E+00 0. -1.
         -4    1    3    3    0  502 -0.32000024873E+03 -0.62940297081E+02  0.35467967763E+01  0.32615060930E+03  0.00000000000E+00 0. -1.
        -13    1    1    2    0    0 -0.15543832667E+03  0.53137172454E+02 -0.10489082498E+03  0.19490184407E+03  0.10566000000E+00 0.  1.
<mgrwt>
<rscale>  1 0.65883949E+03</rscale>
<asrwt>0</asrwt>
<pdfrwt beam="2">  1       21 0.21826686E+00 0.10467751E+04</pdfrwt>
<pdfrwt beam="1">  1       -4 0.40138381E-01 0.10467751E+04</pdfrwt>
<totfact> 0.21049448E+01</totfact>
</mgrwt>
</event>
<event>
 6    2  0.2267664E-005  0.1039336E+04  0.7818608E-02  0.9632983E-01
         21   -1    0    0  501  502  0.00000000000E+00  0.00000000000E+00  0.56797848201E+03  0.56797848201E+03  0.00000000000E+00 0. -1.
         -4   -1    0    0    0  501 -0.00000000000E+00 -0.00000000000E+00 -0.11138060738E+04  0.11138060738E+04  0.00000000000E+00 0. -1.
   -9000010    2    1    2    0  502 -0.69301614816E+02  0.27551961865E+03  0.29910138384E+02  0.10397660832E+04  0.99975252802E+03 0.  0.
         13    1    3    3    0    0  0.36307864033E+03  0.55366015242E+02  0.30904588506E+03  0.48000090098E+03  0.10566000000E+00 0. -1.
         -4    1    3    3    0  502 -0.43238025515E+03  0.22015360341E+03 -0.27913574668E+03  0.55976518220E+03  0.00000000000E+00 0. -1.
        -13    1    1    2    0    0  0.69301614816E+02 -0.27551961865E+03 -0.57573773013E+03  0.64201847258E+03  0.10566000000E+00 0.  1.
<mgrwt>
<rscale>  1 0.75151106E+03</rscale>
<asrwt>0</asrwt>
<pdfrwt beam="1">  1       21 0.87381307E-01 0.10393358E+04</pdfrwt>
<pdfrwt beam="2">  1       -4 0.17135478E+00 0.10393358E+04</pdfrwt>
<totfact> 0.87162908E+00</totfact>
</mgrwt>
</event>
<event>
 6    2  0.2267664E-005  0.1051450E+04  0.7818608E-02  0.9614660E-01
         21   -1    0    0  501  502  0.00000000000E+00  0.00000000000E+00  0.27930154042E+03  0.27930154042E+03  0.00000000000E+00 0.  1.
         -4   -1    0    0    0  501 -0.00000000000E+00 -0.00000000000E+00 -0.16541863139E+04  0.16541863139E+04  0.00000000000E+00 0. -1.
   -9000010    2    1    2    0  502  0.23249165941E+03  0.17679017040E+03 -0.94462268719E+03  0.14134564994E+04  0.10100693632E+04 0.  0.
         13    1    3    3    0    0  0.17478770221E+03  0.45471786255E+03 -0.67821410078E+02  0.49185244759E+03  0.10566000000E+00 0. -1.
         -4    1    3    3    0  502  0.57703957207E+02 -0.27792769216E+03 -0.87680127711E+03  0.92160405180E+03  0.00000000000E+00 0. -1.
        -13    1    1    2    0    0 -0.23249165941E+03 -0.17679017040E+03 -0.43026208627E+03  0.52003135491E+03  0.10566000000E+00 0.  1.
<mgrwt>
<rscale>  1 0.76333411E+03</rscale>
<asrwt>0</asrwt>
<pdfrwt beam="1">  1       21 0.42969468E-01 0.10514501E+04</pdfrwt>
<pdfrwt beam="2">  1       -4 0.25449020E+00 0.10514501E+04</pdfrwt>
<totfact> 0.12263025E+01</totfact>
</mgrwt>
</event>
<event>
 6    2  0.2267664E-005  0.1011370E+04  0.7818608E-02  0.1018597E+00
         21   -1    0    0  501  502  0.00000000000E+00  0.00000000000E+00  0.38555914554E+03  0.38555914554E+03  0.00000000000E+00 0. -1.
         -4   -1    0    0    0  501 -0.00000000000E+00 -0.00000000000E+00 -0.73510232059E+03  0.73510232059E+03  0.00000000000E+00 0. -1.
   -9000010    2    1    2    0  502 -0.33796814807E+02  0.39727403797E+02 -0.32037055762E+03  0.10608990693E+04  0.10100242818E+04 0.  0.
         13    1    3    3    0    0 -0.40546646378E+03  0.34329290072E+03 -0.15754265071E+03  0.55414146830E+03  0.10566000000E+00 0. -1.
         -4    1    3    3    0  502  0.37166964897E+03 -0.30356549692E+03 -0.16282790691E+03  0.50675760099E+03  0.00000000000E+00 0. -1.
        -13    1    1    2    0    0  0.33796814807E+02 -0.39727403797E+02 -0.29172617431E+02  0.59762396834E+02  0.10566000000E+00 0.  1.
<mgrwt>
<rscale>  1 0.48196304E+03</rscale>
<asrwt>0</asrwt>
<pdfrwt beam="1">  1       21 0.59316792E-01 0.10113701E+04</pdfrwt>
<pdfrwt beam="2">  1       -4 0.11309266E+00 0.10113701E+04</pdfrwt>
<totfact> 0.63820519E+01</totfact>
</mgrwt>
</event>
<event>
 6    2  0.2267664E-005  0.9676751E+03  0.7818608E-02  0.9951550E-01
         -4   -1    0    0    0  501 -0.00000000000E+00  0.00000000000E+00  0.16741633686E+03  0.16741633686E+03  0.00000000000E+00 0. -1.
         21   -1    0    0  501  502  0.00000000000E+00 -0.00000000000E+00 -0.23291352708E+04  0.23291352708E+04  0.00000000000E+00 0. -1.
   -9000010    2    1    2    0  502 -0.53388936787E+02  0.11125574334E+03 -0.21667827838E+04  0.23730450381E+04  0.95977440141E+03 0.  0.
         13    1    3    3    0    0  0.33115520253E+03 -0.16272011585E+02 -0.25356294147E+03  0.41739995565E+03  0.10566000000E+00 0. -1.
         -4    1    3    3    0  502 -0.38454413932E+03  0.12752775493E+03 -0.19132198423E+04  0.19556450824E+04  0.00000000000E+00 0. -1.
        -13    1    1    2    0    0  0.53388936787E+02 -0.11125574334E+03  0.50638498207E+01  0.12350656961E+03  0.10566000000E+00 0.  1.
<mgrwt>
<rscale>  1 0.57826693E+03</rscale>
<asrwt>0</asrwt>
<pdfrwt beam="2">  1       21 0.35832849E+00 0.96767511E+03</pdfrwt>
<pdfrwt beam="1">  1       -4 0.25756360E-01 0.96767511E+03</pdfrwt>
<totfact> 0.66953085E+00</totfact>
</mgrwt>
</event>
<event>
 6    2  0.2267664E-005  0.1048145E+04  0.7818608E-02  0.9620929E-01
         21   -1    0    0  501  502  0.00000000000E+00  0.00000000000E+00  0.24809717419E+04  0.24809717419E+04  0.00000000000E+00 0. -1.
         -4   -1    0    0    0  501 -0.00000000000E+00 -0.00000000000E+00 -0.20442050429E+03  0.20442050429E+03  0.00000000000E+00 0. -1.
   -9000010    2    1    2    0  502  0.19192224406E+03 -0.21554378020E+03  0.21000677076E+04  0.23471028487E+04  0.10076279754E+04 0.  0.
         13    1    3    3    0    0  0.53383551277E+02 -0.61536361908E+03  0.11074312497E+04  0.12680402877E+04  0.10566000000E+00 0. -1.
         -4    1    3    3    0  502  0.13853869278E+03  0.39981983887E+03  0.99263645786E+03  0.10790625609E+04  0.00000000000E+00 0. -1.
        -13    1    1    2    0    0 -0.19192224406E+03  0.21554378020E+03  0.17648352999E+03  0.33828939752E+03  0.10566000000E+00 0.  1.
<mgrwt>
<rscale>  1 0.75926292E+03</rscale>
<asrwt>0</asrwt>
<pdfrwt beam="1">  1       21 0.38168794E+00 0.10481447E+04</pdfrwt>
<pdfrwt beam="2">  1       -4 0.31449310E-01 0.10481447E+04</pdfrwt>
<totfact> 0.31656972E+00</totfact>
</mgrwt>
</event>
<event>
 6    2  0.2267664E-005  0.1008702E+04  0.7818608E-02  0.9964758E-01
         21   -1    0    0  501  502  0.00000000000E+00  0.00000000000E+00  0.13997466129E+03  0.13997466129E+03  0.00000000000E+00 0. -1.
         -4   -1    0    0    0  501 -0.00000000000E+00 -0.00000000000E+00 -0.22347938211E+04  0.22347938211E+04  0.00000000000E+00 0. -1.
   -9000010    2    1    2    0  502 -0.73646050766E+02 -0.74096340034E+02 -0.18212333749E+04  0.20819149332E+04  0.10032770180E+04 0.  0.
         13    1    3    3    0    0  0.13896894987E+03  0.38520748774E+03 -0.12661542845E+04  0.13307305741E+04  0.10566000000E+00 0. -1.
         -4    1    3    3    0  502 -0.21261500064E+03 -0.45930382778E+03 -0.55507909044E+03  0.75118435910E+03  0.00000000000E+00 0. -1.
        -13    1    1    2    0    0  0.73646050766E+02  0.74096340034E+02 -0.27358578489E+03  0.29285354917E+03  0.10566000000E+00 0.  1.
<mgrwt>
<rscale>  1 0.57222931E+03</rscale>
<asrwt>0</asrwt>
<pdfrwt beam="1">  1       21 0.21534566E-01 0.10087015E+04</pdfrwt>
<pdfrwt beam="2">  1       -4 0.34381440E+00 0.10087015E+04</pdfrwt>
<totfact> 0.13860533E+01</totfact>
</mgrwt>
</event>
<event>
 6    2  0.2267664E-005  0.1217422E+04  0.7818608E-02  0.9251069E-01
         -4   -1    0    0    0  501 -0.00000000000E+00  0.00000000000E+00  0.16821490212E+04  0.16821490212E+04  0.00000000000E+00 0. -1.
         21   -1    0    0  501  502  0.00000000000E+00 -0.00000000000E+00 -0.54984654403E+03  0.54984654403E+03  0.00000000000E+00 0.  1.
   -9000010    2    1    2    0  502 -0.43283163677E+03  0.53010674583E+03  0.56077364826E+03  0.13403669423E+04  0.10068565279E+04 0.  0.
         13    1    3    3    0    0 -0.17801050122E+02  0.40123477939E+03  0.76207370239E+03  0.86143053383E+03  0.10566000000E+00 0. -1.
         -4    1    3    3    0  502 -0.41503058665E+03  0.12887196644E+03 -0.20130005412E+03  0.47893640849E+03  0.00000000000E+00 0. -1.
        -13    1    1    2    0    0  0.43283163677E+03 -0.53010674583E+03  0.57152882893E+03  0.89162862293E+03  0.10566000000E+00 0.  1.
<mgrwt>
<rscale>  1 0.10541513E+04</rscale>
<asrwt>0</asrwt>
<pdfrwt beam="2">  1       21 0.84591777E-01 0.12174221E+04</pdfrwt>
<pdfrwt beam="1">  1       -4 0.25879215E+00 0.12174221E+04</pdfrwt>
<totfact> 0.24777221E+00</totfact>
</mgrwt>
</event>
<event>
 6    2  0.2267664E-005  0.1014566E+04  0.7818608E-02  0.9780311E-01
         21   -1    0    0  501  502  0.00000000000E+00  0.00000000000E+00  0.84882475052E+03  0.84882475052E+03  0.00000000000E+00 0. -1.
         -4   -1    0    0    0  501 -0.00000000000E+00 -0.00000000000E+00 -0.47249720867E+03  0.47249720867E+03  0.00000000000E+00 0. -1.
   -9000010    2    1    2    0  502 -0.18640354199E+03  0.50876946751E+01  0.14606951187E+03  0.10250266055E+04  0.99728184307E+03 0.  0.
         13    1    3    3    0    0 -0.51530933816E+03  0.15920374448E+03 -0.14621150192E+03  0.55880887673E+03  0.10566000000E+00 0. -1.
         -4    1    3    3    0  502  0.32890579617E+03 -0.15411604981E+03  0.29228101379E+03  0.46621772874E+03  0.00000000000E+00 0. -1.
        -13    1    1    2    0    0  0.18640354199E+03 -0.50876946751E+01  0.23025802998E+03  0.29629535372E+03  0.10566000000E+00 0.  1.
<mgrwt>
<rscale>  1 0.66429980E+03</rscale>
<asrwt>0</asrwt>
<pdfrwt beam="1">  1       21 0.13058842E+00 0.10145655E+04</pdfrwt>
<pdfrwt beam="2">  1       -4 0.72691879E-01 0.10145655E+04</pdfrwt>
<totfact> 0.26913750E+01</totfact>
</mgrwt>
</event>
<event>
 6    2  0.2267664E-005  0.9799827E+03  0.7818608E-02  0.1026765E+00
         21   -1    0    0  501  502  0.00000000000E+00  0.00000000000E+00  0.66312590012E+03  0.66312590012E+03  0.00000000000E+00 0. -1.
         -4   -1    0    0    0  501 -0.00000000000E+00 -0.00000000000E+00 -0.56970243499E+03  0.56970243499E+03  0.00000000000E+00 0. -1.
   -9000010    2    1    2    0  502  0.29155203017E+02  0.34057667253E+02  0.29729527253E+03  0.10240852500E+04  0.97895667405E+03 0.  0.
         13    1    3    3    0    0  0.32124504177E+03 -0.27592856152E+03  0.40370388322E+03  0.58507417002E+03  0.10566000000E+00 0. -1.
         -4    1    3    3    0  502 -0.29208983876E+03  0.30998622877E+03 -0.10640861069E+03  0.43901108000E+03  0.00000000000E+00 0. -1.
        -13    1    1    2    0    0 -0.29155203017E+02 -0.34057667253E+02 -0.20387180740E+03  0.20874308510E+03  0.10566000000E+00 0.  1.
<mgrwt>
<rscale>  1 0.45322336E+03</rscale>
<asrwt>0</asrwt>
<pdfrwt beam="1">  1       21 0.10201937E+00 0.97998271E+03</pdfrwt>
<pdfrwt beam="2">  1       -4 0.87646528E-01 0.97998271E+03</pdfrwt>
<totfact> 0.33143760E+01</totfact>
</mgrwt>
</event>
<event>
 6    2  0.2267664E-005  0.1060137E+04  0.7818608E-02  0.9587916E-01
         21   -1    0    0  501  502  0.00000000000E+00  0.00000000000E+00  0.48372371856E+03  0.48372371856E+03  0.00000000000E+00 0. -1.
         -4   -1    0    0    0  501 -0.00000000000E+00 -0.00000000000E+00 -0.10740416893E+04  0.10740416893E+04  0.00000000000E+00 0. -1.
   -9000010    2    1    2    0  502 -0.30992905991E+03 -0.38239689180E+02 -0.64471275057E+03  0.12407841793E+04  0.10131004653E+04 0.  0.
         13    1    3    3    0    0  0.55260165164E+02 -0.43326088541E+03 -0.51224875091E+02  0.43976434561E+03  0.10566000000E+00 0. -1.
         -4    1    3    3    0  502 -0.36518922507E+03  0.39502119623E+03 -0.59348787548E+03  0.80101983366E+03  0.00000000000E+00 0. -1.
        -13    1    1    2    0    0  0.30992905991E+03  0.38239689180E+02  0.54394779874E+02  0.31698122854E+03  0.10566000000E+00 0.  1.
<mgrwt>
<rscale>  1 0.78101140E+03</rscale>
<asrwt>0</asrwt>
<pdfrwt beam="1">  1       21 0.74419033E-01 0.10601372E+04</pdfrwt>
<pdfrwt beam="2">  1       -4 0.16523718E+00 0.10601372E+04</pdfrwt>
<totfact> 0.14068824E+01</totfact>
</mgrwt>
</event>
<event>
 6    2  0.2267664E-005  0.1092357E+04  0.7818608E-02  0.9470704E-01
         -4   -1    0    0    0  501 -0.00000000000E+00  0.00000000000E+00  0.92100186997E+03  0.92100186997E+03  0.00000000000E+00 0. -1.
         21   -1    0    0  501  502  0.00000000000E+00 -0.00000000000E+00 -0.10944163852E+04  0.10944163852E+04  0.00000000000E+00 0. -1.
   -9000010    2    1    2    0  502 -0.29244207873E+03  0.31398782938E+03 -0.72911750815E+03  0.13133380931E+04  0.10045565587E+04 0.  0.
         13    1    3    3    0    0 -0.31393081391E+03  0.27255245999E+03 -0.97664485870E+03  0.10614483457E+04  0.10566000000E+00 0. -1.
         -4    1    3    3    0  502  0.21488735176E+02  0.41435369382E+02  0.24752735054E+03  0.25188974740E+03  0.00000000000E+00 0. -1.
        -13    1    1    2    0    0  0.29244207873E+03 -0.31398782938E+03  0.55570299296E+03  0.70208016206E+03  0.10566000000E+00 0.  1.
<mgrwt>
<rscale>  1 0.86478559E+03</rscale>
<asrwt>0</asrwt>
<pdfrwt beam="2">  1       21 0.16837175E+00 0.10923574E+04</pdfrwt>
<pdfrwt beam="1">  1       -4 0.14169260E+00 0.10923574E+04</pdfrwt>
<totfact> 0.25989692E+00</totfact>
</mgrwt>
</event>
<event>
 6    2  0.2267664E-005  0.1032813E+04  0.7818608E-02  0.9733735E-01
         -4   -1    0    0    0  501 -0.00000000000E+00  0.00000000000E+00  0.90214250727E+03  0.90214250727E+03  0.00000000000E+00 0. -1.
         21   -1    0    0  501  502  0.00000000000E+00 -0.00000000000E+00 -0.63070574740E+03  0.63070574740E+03  0.00000000000E+00 0. -1.
   -9000010    2    1    2    0  502  0.11619353575E+03  0.17042067141E+03 -0.16896047540E+03  0.10465418914E+04  0.10120069887E+04 0.  0.
         13    1    3    3    0    0  0.26352602312E+03  0.29023637466E+03  0.33014989407E+03  0.51252520109E+03  0.10566000000E+00 0. -1.
         -4    1    3    3    0  502 -0.14733248736E+03 -0.11981570325E+03 -0.49911036947E+03  0.53401669028E+03  0.00000000000E+00 0. -1.
        -13    1    1    2    0    0 -0.11619353575E+03 -0.17042067141E+03  0.44039723526E+03  0.48630636330E+03  0.10566000000E+00 0.  1.
<mgrwt>
<rscale>  1 0.69043245E+03</rscale>
<asrwt>0</asrwt>
<pdfrwt beam="2">  1       21 0.97031653E-01 0.10328128E+04</pdfrwt>
<pdfrwt beam="1">  1       -4 0.13879115E+00 0.10328128E+04</pdfrwt>
<totfact> 0.11997818E+01</totfact>
</mgrwt>
</event>
<event>
 6    2  0.2267664E-005  0.1034318E+04  0.7818608E-02  0.9669950E-01
         21   -1    0    0  501  502  0.00000000000E+00  0.00000000000E+00  0.46985120733E+03  0.46985120733E+03  0.00000000000E+00 0. -1.
         -4   -1    0    0    0  501 -0.00000000000E+00 -0.00000000000E+00 -0.11358558633E+04  0.11358558633E+04  0.00000000000E+00 0. -1.
   -9000010    2    1    2    0  502 -0.24903924837E+03  0.51573392519E+02 -0.16985412711E+03  0.10481716722E+04  0.10025632488E+04 0.  0.
         13    1    3    3    0    0 -0.79402516212E+01 -0.41529323851E+03  0.13980811176E+03  0.43826686029E+03  0.10566000000E+00 0. -1.
         -4    1    3    3    0  502 -0.24109899675E+03  0.46686663103E+03 -0.30966223887E+03  0.60990481191E+03  0.00000000000E+00 0. -1.
        -13    1    1    2    0    0  0.24903924837E+03 -0.51573392519E+02 -0.49615052883E+03  0.55753539840E+03  0.10566000000E+00 0.  1.
<mgrwt>
<rscale>  1 0.72834490E+03</rscale>
<asrwt>0</asrwt>
<pdfrwt beam="1">  1       21 0.72284801E-01 0.10343179E+04</pdfrwt>
<pdfrwt beam="2">  1       -4 0.17474706E+00 0.10343179E+04</pdfrwt>
<totfact> 0.12886373E+01</totfact>
</mgrwt>
</event>
<event>
 6    2  0.2267664E-005  0.9854369E+03  0.7818608E-02  0.1057468E+00
         21   -1    0    0  501  502  0.00000000000E+00  0.00000000000E+00  0.10237873065E+04  0.10237873065E+04  0.00000000000E+00 0. -1.
         -4   -1    0    0    0  501 -0.00000000000E+00 -0.00000000000E+00 -0.24766541136E+03  0.24766541136E+03  0.00000000000E+00 0. -1.
   -9000010    2    1    2    0  502  0.26250450764E+00  0.18108763102E+02  0.77430771782E+03  0.12532511077E+04  0.98527047093E+03 0.  0.
         13    1    3    3    0    0 -0.34444499580E+02  0.10687827017E+03 -0.22391190980E+03  0.25049140245E+03  0.10566000000E+00 0. -1.
         -4    1    3    3    0  502  0.34707004088E+02 -0.88769507067E+02  0.99821962762E+03  0.10027597053E+04  0.00000000000E+00 0. -1.
        -13    1    1    2    0    0 -0.26250450764E+00 -0.18108763102E+02  0.18141773508E+01  0.18201610181E+02  0.10566000000E+00 0.  1.
<mgrwt>
<rscale>  1 0.36283324E+03</rscale>
<asrwt>0</asrwt>
<pdfrwt beam="1">  1       21 0.15750574E+00 0.98543691E+03</pdfrwt>
<pdfrwt beam="2">  1       -4 0.38102372E-01 0.98543691E+03</pdfrwt>
<totfact> 0.63979819E+01</totfact>
</mgrwt>
</event>
<event>
 6    2  0.2267664E-005  0.1016502E+04  0.7818608E-02  0.9781677E-01
         21   -1    0    0  501  502  0.00000000000E+00  0.00000000000E+00  0.15800412169E+04  0.15800412169E+04  0.00000000000E+00 0. -1.
         -4   -1    0    0    0  501 -0.00000000000E+00 -0.00000000000E+00 -0.26014932439E+03  0.26014932439E+03  0.00000000000E+00 0. -1.
   -9000010    2    1    2    0  502  0.41480203709E+02  0.17985434994E+03  0.13061773071E+04  0.16551059782E+04  0.99960414514E+03 0.  0.
         13    1    3    3    0    0  0.39997726203E+03 -0.66073348138E+02  0.17184178584E+03  0.44031478286E+03  0.10566000000E+00 0. -1.
         -4    1    3    3    0  502 -0.35849705832E+03  0.24592769808E+03  0.11343355212E+04  0.12147911953E+04  0.00000000000E+00 0. -1.
        -13    1    1    2    0    0 -0.41480203709E+02 -0.17985434994E+03  0.13714585455E+02  0.18508456313E+03  0.10566000000E+00 0.  1.
<mgrwt>
<rscale>  1 0.66355188E+03</rscale>
<asrwt>0</asrwt>
<pdfrwt beam="1">  1       21 0.24308326E+00 0.10165022E+04</pdfrwt>
<pdfrwt beam="2">  1       -4 0.40022974E-01 0.10165022E+04</pdfrwt>
<totfact> 0.14654944E+01</totfact>
</mgrwt>
</event>
<event>
 6    2  0.2267664E-005  0.1104595E+04  0.7818608E-02  0.9429682E-01
         21   -1    0    0  501  502  0.00000000000E+00  0.00000000000E+00  0.78380145592E+03  0.78380145592E+03  0.00000000000E+00 0. -1.
         -4   -1    0    0    0  501 -0.00000000000E+00 -0.00000000000E+00 -0.93377376822E+03  0.93377376822E+03  0.00000000000E+00 0. -1.
   -9000010    2    1    2    0  502 -0.39983032224E+03  0.26516700282E+03  0.20152129026E+03  0.11228268826E+04  0.99496309071E+03 0.  0.
         13    1    3    3    0    0 -0.33941336154E+03 -0.84002250485E+02  0.53309488087E+03  0.63753272171E+03  0.10566000000E+00 0. -1.
         -4    1    3    3    0  502 -0.60416960698E+02  0.34916925330E+03 -0.33157359061E+03  0.48529416088E+03  0.00000000000E+00 0. -1.
        -13    1    1    2    0    0  0.39983032224E+03 -0.26516700282E+03 -0.35149360256E+03  0.59474834155E+03  0.10566000000E+00 0.  1.
<mgrwt>
<rscale>  1 0.89672679E+03</rscale>
<asrwt>0</asrwt>
<pdfrwt beam="1">  1       21 0.12058484E+00 0.11045947E+04</pdfrwt>
<pdfrwt beam="2">  1       -4 0.14365750E+00 0.11045947E+04</pdfrwt>
<totfact> 0.62716349E+00</totfact>
</mgrwt>
</event>
<event>
 6    2  0.2267664E-005  0.1004310E+04  0.7818608E-02  0.9792982E-01
         -4   -1    0    0    0  501 -0.00000000000E+00  0.00000000000E+00  0.29259112792E+03  0.29259112792E+03  0.00000000000E+00 0. -1.
         21   -1    0    0  501  502  0.00000000000E+00 -0.00000000000E+00 -0.12529128285E+04  0.12529128285E+04  0.00000000000E+00 0. -1.
   -9000010    2    1    2    0  502 -0.17564030116E+03  0.56114531989E+02 -0.90778945927E+03  0.13537801874E+04  0.98723894636E+03 0.  0.
         13    1    3    3    0    0  0.26528928821E+03  0.70396732327E+02  0.68112568796E+02  0.28279575590E+03  0.10566000000E+00 0. -1.
         -4    1    3    3    0  502 -0.44092958937E+03 -0.14282200337E+02 -0.97590202807E+03  0.10709844315E+04  0.00000000000E+00 0. -1.
        -13    1    1    2    0    0  0.17564030116E+03 -0.56114531989E+02 -0.52532241343E+02  0.19172376910E+03  0.10566000000E+00 0.  1.
<mgrwt>
<rscale>  1 0.65740527E+03</rscale>
<asrwt>0</asrwt>
<pdfrwt beam="2">  1       21 0.19275582E+00 0.10043103E+04</pdfrwt>
<pdfrwt beam="1">  1       -4 0.45014020E-01 0.10043103E+04</pdfrwt>
<totfact> 0.24928426E+01</totfact>
</mgrwt>
</event>
<event>
 6    2  0.2267664E-005  0.1196606E+04  0.7818608E-02  0.9272108E-01
         21   -1    0    0  501  502  0.00000000000E+00  0.00000000000E+00  0.56077461356E+03  0.56077461356E+03  0.00000000000E+00 0. -1.
         -4   -1    0    0    0  501 -0.00000000000E+00 -0.00000000000E+00 -0.15512270546E+04  0.15512270546E+04  0.00000000000E+00 0. -1.
   -9000010    2    1    2    0  502 -0.59954509134E+03  0.29216218392E+03 -0.68026632228E+03  0.13764552742E+04  0.99350580992E+03 0.  0.
         13    1    3    3    0    0 -0.79088903389E+03  0.16429727773E+03 -0.18260167489E+03  0.82815604944E+03  0.10566000000E+00 0. -1.
         -4    1    3    3    0  502  0.19134394255E+03  0.12786490619E+03 -0.49766464739E+03  0.54829922474E+03  0.00000000000E+00 0. -1.
        -13    1    1    2    0    0  0.59954509134E+03 -0.29216218392E+03 -0.31018611877E+03  0.73554639398E+03  0.10566000000E+00 0.  1.
<mgrwt>
<rscale>  1 0.10339171E+04</rscale>
<asrwt>0</asrwt>
<pdfrwt beam="1">  1       21 0.86273017E-01 0.11966064E+04</pdfrwt>
<pdfrwt beam="2">  1       -4 0.23865032E+00 0.11966064E+04</pdfrwt>
<totfact> 0.31635077E+00</totfact>
</mgrwt>
</event>
<event>
 6    2  0.2267664E-005  0.1021514E+04  0.7818608E-02  0.9852214E-01
         -4   -1    0    0    0  501 -0.00000000000E+00  0.00000000000E+00  0.19467741310E+03  0.19467741310E+03  0.00000000000E+00 0. -1.
         21   -1    0    0  501  502  0.00000000000E+00 -0.00000000000E+00 -0.27337326169E+04  0.27337326169E+04  0.00000000000E+00 0. -1.
   -9000010    2    1    2    0  502 -0.86311493542E+01  0.14412349004E+03 -0.25828619553E+04  0.27775288855E+04  0.10112589936E+04 0.  0.
         13    1    3    3    0    0 -0.35900024121E+03  0.30240000228E+03 -0.62148208535E+03  0.77882406752E+03  0.10566000000E+00 0. -1.
         -4    1    3    3    0  502  0.35036909185E+03 -0.15827651224E+03 -0.19613798700E+04  0.19987048179E+04  0.00000000000E+00 0. -1.
        -13    1    1    2    0    0  0.86311493542E+01 -0.14412349004E+03  0.43806751575E+02  0.15088114450E+03  0.10566000000E+00 0.  1.
<mgrwt>
<rscale>  1 0.62634168E+03</rscale>
<asrwt>0</asrwt>
<pdfrwt beam="2">  1       21 0.42057429E+00 0.10215140E+04</pdfrwt>
<pdfrwt beam="1">  1       -4 0.29950368E-01 0.10215140E+04</pdfrwt>
<totfact> 0.19452761E+00</totfact>
</mgrwt>
</event>
<event>
 6    2  0.2267664E-005  0.1523943E+04  0.7818608E-02  0.8994575E-01
         -4   -1    0    0    0  501 -0.00000000000E+00  0.00000000000E+00  0.20614785737E+04  0.20614785737E+04  0.00000000000E+00 0. -1.
         21   -1    0    0  501  502  0.00000000000E+00 -0.00000000000E+00 -0.75449023347E+03  0.75449023347E+03  0.00000000000E+00 0.  1.
   -9000010    2    1    2    0  502  0.84942877263E+03  0.36576072027E+03  0.10674994053E+04  0.18606337322E+04  0.12112360467E+04 0.  0.
         13    1    3    3    0    0  0.92973870583E+03  0.15405323515E+03  0.12530497657E+04  0.15678903619E+04  0.10566000000E+00 0. -1.
         -4    1    3    3    0  502 -0.80309933200E+02  0.21170748512E+03 -0.18555036040E+03  0.29274337033E+03  0.00000000000E+00 0. -1.
        -13    1    1    2    0    0 -0.84942877263E+03 -0.36576072027E+03  0.23948893486E+03  0.95533507491E+03  0.10566000000E+00 0.  1.
<mgrwt>
<rscale>  1 0.13450614E+04</rscale>
<asrwt>0</asrwt>
<pdfrwt beam="2">  1       21 0.11607542E+00 0.15239432E+04</pdfrwt>
<pdfrwt beam="1">  1       -4 0.31715055E+00 0.15239432E+04</pdfrwt>
<totfact> 0.46947272E-01</totfact>
</mgrwt>
</event>
<event>
 6    2  0.2267664E-005  0.1073484E+04  0.7818608E-02  0.9533479E-01
         21   -1    0    0  501  502  0.00000000000E+00  0.00000000000E+00  0.33344588647E+03  0.33344588647E+03  0.00000000000E+00 0.  1.
         -4   -1    0    0    0  501 -0.00000000000E+00 -0.00000000000E+00 -0.15629790275E+04  0.15629790275E+04  0.00000000000E+00 0. -1.
   -9000010    2    1    2    0  502 -0.14658084184E+03 -0.33208214529E+03 -0.83248247923E+03  0.13584530433E+04  0.10102490278E+04 0.  0.
         13    1    3    3    0    0 -0.53773184222E+02  0.34057066886E+03 -0.48670477453E+03  0.59645744571E+03  0.10566000000E+00 0. -1.
         -4    1    3    3    0  502 -0.92807657617E+02 -0.67265281415E+03 -0.34577770470E+03  0.76199559760E+03  0.00000000000E+00 0. -1.
        -13    1    1    2    0    0  0.14658084184E+03  0.33208214529E+03 -0.39705066178E+03  0.53797187063E+03  0.10566000000E+00 0.  1.
<mgrwt>
<rscale>  1 0.81859944E+03</rscale>
<asrwt>0</asrwt>
<pdfrwt beam="1">  1       21 0.51299367E-01 0.10734839E+04</pdfrwt>
<pdfrwt beam="2">  1       -4 0.24045831E+00 0.10734839E+04</pdfrwt>
<totfact> 0.10224229E+01</totfact>
</mgrwt>
</event>
<event>
 6    2  0.2267664E-005  0.1028744E+04  0.7818608E-02  0.9739782E-01
         -4   -1    0    0    0  501 -0.00000000000E+00  0.00000000000E+00  0.51332740384E+03  0.51332740384E+03  0.00000000000E+00 0. -1.
         21   -1    0    0  501  502  0.00000000000E+00 -0.00000000000E+00 -0.77075148753E+03  0.77075148753E+03  0.00000000000E+00 0. -1.
   -9000010    2    1    2    0  502  0.20430922512E+03  0.10158800683E+02 -0.30703922344E+03  0.10735862930E+04  0.10082008645E+04 0.  0.
         13    1    3    3    0    0 -0.16078934763E+03  0.19962693991E+03 -0.54222789070E+03  0.59976264144E+03  0.10566000000E+00 0. -1.
         -4    1    3    3    0  502  0.36509857275E+03 -0.18946813923E+03  0.23518866725E+03  0.47382365159E+03  0.00000000000E+00 0. -1.
        -13    1    1    2    0    0 -0.20430922512E+03 -0.10158800683E+02  0.49615139747E+02  0.21049259834E+03  0.10566000000E+00 0.  1.
<mgrwt>
<rscale>  1 0.68696811E+03</rscale>
<asrwt>0</asrwt>
<pdfrwt beam="2">  1       21 0.11857715E+00 0.10287441E+04</pdfrwt>
<pdfrwt beam="1">  1       -4 0.78973447E-01 0.10287441E+04</pdfrwt>
<totfact> 0.28686791E+01</totfact>
</mgrwt>
</event>
<event>
 6    2  0.2267664E-005  0.9403984E+03  0.7818608E-02  0.1016760E+00
         21   -1    0    0  501  502  0.00000000000E+00  0.00000000000E+00  0.58962050376E+03  0.58962050376E+03  0.00000000000E+00 0. -1.
         -4   -1    0    0    0  501 -0.00000000000E+00 -0.00000000000E+00 -0.54360412053E+03  0.54360412053E+03  0.00000000000E+00 0. -1.
   -9000010    2    1    2    0  502  0.39616150239E+02 -0.56015245226E+02  0.20286155802E+03  0.96203009437E+03  0.93789228789E+03 0.  0.
         13    1    3    3    0    0 -0.31738101013E+02 -0.32813323608E+03  0.46999601337E+03  0.57408622298E+03  0.10566000000E+00 0. -1.
         -4    1    3    3    0  502  0.71354251251E+02  0.27211799085E+03 -0.26713445534E+03  0.38794387139E+03  0.00000000000E+00 0. -1.
        -13    1    1    2    0    0 -0.39616150239E+02  0.56015245226E+02 -0.15684517479E+03  0.17119452992E+03  0.10566000000E+00 0.  1.
<mgrwt>
<rscale>  1 0.48874097E+03</rscale>
<asrwt>0</asrwt>
<pdfrwt beam="1">  1       21 0.90710846E-01 0.94039837E+03</pdfrwt>
<pdfrwt beam="2">  1       -4 0.83631404E-01 0.94039837E+03</pdfrwt>
<totfact> 0.49477681E+01</totfact>
</mgrwt>
</event>
<event>
 6    2  0.2267664E-005  0.1002351E+04  0.7818608E-02  0.9944359E-01
         -4   -1    0    0    0  501 -0.00000000000E+00  0.00000000000E+00  0.53713177224E+03  0.53713177224E+03  0.00000000000E+00 0. -1.
         21   -1    0    0  501  502  0.00000000000E+00 -0.00000000000E+00 -0.59266076613E+03  0.59266076613E+03  0.00000000000E+00 0. -1.
   -9000010    2    1    2    0  502 -0.34698775208E+02  0.10817762044E+03 -0.10099532297E+03  0.10074258729E+04  0.99589177707E+03 0.  0.
         13    1    3    3    0    0 -0.40100060168E+03  0.27117534683E+03 -0.28986807857E+03  0.56423493814E+03  0.10566000000E+00 0. -1.
         -4    1    3    3    0  502  0.36630182647E+03 -0.16299772639E+03  0.18887275559E+03  0.44319093480E+03  0.00000000000E+00 0. -1.
        -13    1    1    2    0    0  0.34698775208E+02 -0.10817762044E+03  0.45466329083E+02  0.12236666543E+03  0.10566000000E+00 0.  1.
<mgrwt>
<rscale>  1 0.58158803E+03</rscale>
<asrwt>0</asrwt>
<pdfrwt beam="2">  1       21 0.91178579E-01 0.10023507E+04</pdfrwt>
<pdfrwt beam="1">  1       -4 0.82635658E-01 0.10023507E+04</pdfrwt>
<totfact> 0.49976742E+01</totfact>
</mgrwt>
</event>
<event>
 6    2  0.2267664E-005  0.1014852E+04  0.7818608E-02  0.9763133E-01
         21   -1    0    0  501  502  0.00000000000E+00  0.00000000000E+00  0.86048853826E+03  0.86048853826E+03  0.00000000000E+00 0. -1.
         -4   -1    0    0    0  501 -0.00000000000E+00 -0.00000000000E+00 -0.44211097948E+03  0.44211097948E+03  0.00000000000E+00 0. -1.
   -9000010    2    1    2    0  502  0.19702584190E+03 -0.81311365205E+01  0.43615417513E+03  0.11046062931E+04  0.99550956824E+03 0.  0.
         13    1    3    3    0    0 -0.61010400851E+02  0.36822983677E+03 -0.11358784257E+03  0.39015085652E+03  0.10566000000E+00 0. -1.
         -4    1    3    3    0  502  0.25803624275E+03 -0.37636097330E+03  0.54974201770E+03  0.71445543655E+03  0.00000000000E+00 0. -1.
        -13    1    1    2    0    0 -0.19702584190E+03  0.81311365205E+01 -0.17776616355E+02  0.19799322466E+03  0.10566000000E+00 0.  1.
<mgrwt>
<rscale>  1 0.67379104E+03</rscale>
<asrwt>0</asrwt>
<pdfrwt beam="1">  1       21 0.13238285E+00 0.10148520E+04</pdfrwt>
<pdfrwt beam="2">  1       -4 0.68017074E-01 0.10148520E+04</pdfrwt>
<totfact> 0.30122945E+01</totfact>
</mgrwt>
</event>
<event>
 6    2  0.2267664E-005  0.1007686E+04  0.7818608E-02  0.9918645E-01
         -4   -1    0    0    0  501 -0.00000000000E+00  0.00000000000E+00  0.11031834841E+04  0.11031834841E+04  0.00000000000E+00 0. -1.
         21   -1    0    0  501  502  0.00000000000E+00 -0.00000000000E+00 -0.29115566821E+03  0.29115566821E+03  0.00000000000E+00 0. -1.
   -9000010    2    1    2    0  502 -0.90952569420E+02 -0.80391667882E+02  0.76055641352E+03  0.12624888335E+04  0.10003483425E+04 0.  0.
         13    1    3    3    0    0  0.12525505274E+03 -0.43277469651E+03  0.71696717920E+03  0.84677311802E+03  0.10566000000E+00 0. -1.
         -4    1    3    3    0  502 -0.21620762216E+03  0.35238302862E+03  0.43589234311E+02  0.41571571547E+03  0.00000000000E+00 0. -1.
        -13    1    1    2    0    0  0.90952569420E+02  0.80391667882E+02  0.51471402386E+02  0.13185031883E+03  0.10566000000E+00 0.  1.
<mgrwt>
<rscale>  1 0.59366115E+03</rscale>
<asrwt>0</asrwt>
<pdfrwt beam="2">  1       21 0.44793180E-01 0.10076865E+04</pdfrwt>
<pdfrwt beam="1">  1       -4 0.16972053E+00 0.10076865E+04</pdfrwt>
<totfact> 0.40445092E+01</totfact>
</mgrwt>
</event>
<event>
 6    2  0.2267664E-005  0.1054078E+04  0.7818608E-02  0.9558149E-01
         21   -1    0    0  501  502  0.00000000000E+00  0.00000000000E+00  0.96508020488E+03  0.96508020488E+03  0.00000000000E+00 0. -1.
         -4   -1    0    0    0  501 -0.00000000000E+00 -0.00000000000E+00 -0.57130338227E+03  0.57130338227E+03  0.00000000000E+00 0. -1.
   -9000010    2    1    2    0  502 -0.81861690104E+02  0.34235009079E+03  0.50284017199E+03  0.11678734159E+04  0.99356688554E+03 0.  0.
         13    1    3    3    0    0 -0.14245379426E+03 -0.70578253442E+02 -0.25628336761E+03  0.30158837683E+03  0.10566000000E+00 0. -1.
         -4    1    3    3    0  502  0.60592104159E+02  0.41292834423E+03  0.75912353960E+03  0.86628503908E+03  0.00000000000E+00 0. -1.
        -13    1    1    2    0    0  0.81861690104E+02 -0.34235009079E+03 -0.10906334938E+03  0.36851017124E+03  0.10566000000E+00 0.  1.
<mgrwt>
<rscale>  1 0.80129159E+03</rscale>
<asrwt>0</asrwt>
<pdfrwt beam="1">  1       21 0.14847388E+00 0.10540778E+04</pdfrwt>
<pdfrwt beam="2">  1       -4 0.87892828E-01 0.10540778E+04</pdfrwt>
<totfact> 0.12217188E+01</totfact>
</mgrwt>
</event>
<event>
 6    2  0.2267664E-005  0.9125454E+03  0.7818608E-02  0.9847950E-01
         21   -1    0    0  501  502  0.00000000000E+00  0.00000000000E+00  0.96912005676E+02  0.96912005676E+02  0.00000000000E+00 0. -1.
         -4   -1    0    0    0  501 -0.00000000000E+00 -0.00000000000E+00 -0.32743919455E+04  0.32743919455E+04  0.00000000000E+00 0. -1.
   -9000010    2    1    2    0  502 -0.18723594504E+03  0.84335959297E+02 -0.24151396512E+04  0.25817898094E+04  0.88913960225E+03 0.  0.
         13    1    3    3    0    0  0.49233848130E+01 -0.33911710846E+03 -0.45645125391E+03  0.56865843116E+03  0.10566000000E+00 0. -1.
         -4    1    3    3    0  502 -0.19215932985E+03  0.42345306775E+03 -0.19586883972E+04  0.20131313783E+04  0.00000000000E+00 0. -1.
        -13    1    1    2    0    0  0.18723594504E+03 -0.84335959297E+02 -0.76234028867E+03  0.78951414176E+03  0.10566000000E+00 0.  1.
<mgrwt>
<rscale>  1 0.62851570E+03</rscale>
<asrwt>0</asrwt>
<pdfrwt beam="1">  1       21 0.14909538E-01 0.91254539E+03</pdfrwt>
<pdfrwt beam="2">  1       -4 0.50375265E+00 0.91254539E+03</pdfrwt>
<totfact> 0.20150993E+00</totfact>
</mgrwt>
</event>
<event>
 6    2  0.2553544E-005  0.8511521E+03  0.7818608E-02  0.9997870E-01
         21   -1    0    0  501  502  0.00000000000E+00  0.00000000000E+00  0.70011555271E+03  0.70011555271E+03  0.00000000000E+00 0. -1.
         -4   -1    0    0    0  501 -0.00000000000E+00 -0.00000000000E+00 -0.36408726173E+03  0.36408726173E+03  0.00000000000E+00 0. -1.
   -9000010    2    1    2    0  502  0.13656070443E+03  0.76625702352E+02  0.30775116224E+03  0.90508043565E+03  0.83662386584E+03 0.  0.
         13    1    3    3    0    0 -0.10925519438E+03 -0.32411362635E+03 -0.20845376665E+01  0.34203902810E+03  0.10566000000E+00 0. -1.
         -4    1    3    3    0  502  0.24581589881E+03  0.40073932870E+03  0.30983569991E+03  0.56304140755E+03  0.00000000000E+00 0. -1.
        -13    1    1    2    0    0 -0.13656070443E+03 -0.76625702352E+02  0.28277128739E+02  0.15912237878E+03  0.10566000000E+00 0.  1.
<mgrwt>
<rscale>  1 0.55743748E+03</rscale>
<asrwt>0</asrwt>
<pdfrwt beam="1">  1       21 0.10771009E+00 0.85115205E+03</pdfrwt>
<pdfrwt beam="2">  1       -4 0.56013425E-01 0.85115205E+03</pdfrwt>
<totfact> 0.79750838E+01</totfact>
</mgrwt>
</event>
<event>
 6    2  0.2267664E-005  0.1197172E+04  0.7818608E-02  0.9282098E-01
         21   -1    0    0  501  502  0.00000000000E+00  0.00000000000E+00  0.87662666575E+03  0.87662666575E+03  0.00000000000E+00 0. -1.
         -4   -1    0    0    0  501 -0.00000000000E+00 -0.00000000000E+00 -0.98964046348E+03  0.98964046348E+03  0.00000000000E+00 0. -1.
   -9000010    2    1    2    0  502 -0.50727868286E+03  0.39350001799E+03  0.68386891342E+02  0.11991238557E+04  0.10104688655E+04 0.  0.
         13    1    3    3    0    0  0.22300679253E+03  0.10591337329E+03 -0.25071591500E+03  0.35186382786E+03  0.10566000000E+00 0. -1.
         -4    1    3    3    0  502 -0.73028547539E+03  0.28758664470E+03  0.31910280634E+03  0.84726002785E+03  0.00000000000E+00 0. -1.
        -13    1    1    2    0    0  0.50727868286E+03 -0.39350001799E+03 -0.18140068908E+03  0.66714327352E+03  0.10566000000E+00 0.  1.
<mgrwt>
<rscale>  1 0.10244778E+04</rscale>
<asrwt>0</asrwt>
<pdfrwt beam="1">  1       21 0.13486564E+00 0.11971722E+04</pdfrwt>
<pdfrwt beam="2">  1       -4 0.15225238E+00 0.11971722E+04</pdfrwt>
<totfact> 0.39464875E+00</totfact>
</mgrwt>
</event>
<event>
 6    2  0.2267664E-005  0.9999840E+03  0.7818608E-02  0.1011103E+00
         21   -1    0    0  501  502  0.00000000000E+00  0.00000000000E+00  0.62042975660E+03  0.62042975660E+03  0.00000000000E+00 0. -1.
         -4   -1    0    0    0  501 -0.00000000000E+00 -0.00000000000E+00 -0.70277694502E+03  0.70277694502E+03  0.00000000000E+00 0. -1.
   -9000010    2    1    2    0  502 -0.43705208790E+02  0.51912966142E+02  0.21109328978E+03  0.10220216643E+04  0.99767870774E+03 0.  0.
         13    1    3    3    0    0  0.44617403284E+03  0.12526316980E+03  0.24744638025E+03  0.52534926625E+03  0.10566000000E+00 0. -1.
         -4    1    3    3    0  502 -0.48987924163E+03 -0.73350203657E+02 -0.36353090468E+02  0.49667239800E+03  0.00000000000E+00 0. -1.
        -13    1    1    2    0    0  0.43705208790E+02 -0.51912966142E+02 -0.29344047820E+03  0.30118503738E+03  0.10566000000E+00 0.  1.
<mgrwt>
<rscale>  1 0.51038723E+03</rscale>
<asrwt>0</asrwt>
<pdfrwt beam="1">  1       21 0.95450732E-01 0.99998395E+03</pdfrwt>
<pdfrwt beam="2">  1       -4 0.10811953E+00 0.99998395E+03</pdfrwt>
<totfact> 0.23576993E+01</totfact>
</mgrwt>
</event>
<event>
 6    2  0.2267664E-005  0.1010506E+04  0.7818608E-02  0.9968594E-01
         21   -1    0    0  501  502  0.00000000000E+00  0.00000000000E+00  0.51115146012E+03  0.51115146012E+03  0.00000000000E+00 0.  1.
         -4   -1    0    0    0  501 -0.00000000000E+00 -0.00000000000E+00 -0.60634737282E+03  0.60634737282E+03  0.00000000000E+00 0. -1.
   -9000010    2    1    2    0  502  0.33711406017E+02 -0.96960666640E+02 -0.93607880059E+02  0.10148325640E+04  0.10052785027E+04 0.  0.
         13    1    3    3    0    0  0.22266804066E+03 -0.50745027537E+03 -0.41429061052E+01  0.55416966097E+03  0.10566000000E+00 0. -1.
         -4    1    3    3    0  502 -0.18895663464E+03  0.41048960873E+03 -0.89464973953E+02  0.46066290301E+03  0.00000000000E+00 0. -1.
        -13    1    1    2    0    0 -0.33711406017E+02  0.96960666640E+02 -0.15880326415E+01  0.10266626896E+03  0.10566000000E+00 0.  1.
<mgrwt>
<rscale>  1 0.57049026E+03</rscale>
<asrwt>0</asrwt>
<pdfrwt beam="1">  1       21 0.78638686E-01 0.10105062E+04</pdfrwt>
<pdfrwt beam="2">  1       -4 0.93284211E-01 0.10105062E+04</pdfrwt>
<totfact> 0.53498491E+01</totfact>
</mgrwt>
</event>
<event>
 6    2  0.2267664E-005  0.1024356E+04  0.7818608E-02  0.9702103E-01
         21   -1    0    0  501  502  0.00000000000E+00  0.00000000000E+00  0.61440363154E+03  0.61440363154E+03  0.00000000000E+00 0. -1.
         -4   -1    0    0    0  501 -0.00000000000E+00 -0.00000000000E+00 -0.10220513878E+04  0.10220513878E+04  0.00000000000E+00 0. -1.
   -9000010    2    1    2    0  502  0.18933548439E+03 -0.13916626478E+03  0.14628042133E+03  0.10347477716E+04  0.99704052788E+03 0.  0.
         13    1    3    3    0    0 -0.23548618513E+02 -0.10307253386E+03 -0.41768611608E+03  0.43085982337E+03  0.10566000000E+00 0. -1.
         -4    1    3    3    0  502  0.21288410290E+03 -0.36093730928E+02  0.56396653741E+03  0.60388794821E+03  0.00000000000E+00 0. -1.
        -13    1    1    2    0    0 -0.18933548439E+03  0.13916626478E+03 -0.55392817762E+03  0.60170724778E+03  0.10566000000E+00 0.  1.
<mgrwt>
<rscale>  1 0.70891713E+03</rscale>
<asrwt>0</asrwt>
<pdfrwt beam="1">  1       21 0.94523637E-01 0.10243559E+04</pdfrwt>
<pdfrwt beam="2">  1       -4 0.15723867E+00 0.10243559E+04</pdfrwt>
<totfact> 0.91689518E+00</totfact>
</mgrwt>
</event>
<event>
 6    2  0.2267664E-005  0.1013910E+04  0.7818608E-02  0.9680579E-01
         21   -1    0    0  501  502  0.00000000000E+00  0.00000000000E+00  0.41275874040E+03  0.41275874040E+03  0.00000000000E+00 0. -1.
         -4   -1    0    0    0  501 -0.00000000000E+00 -0.00000000000E+00 -0.11216358856E+04  0.11216358856E+04  0.00000000000E+00 0. -1.
   -9000010    2    1    2    0  502  0.24981145105E+03  0.73815852252E+02 -0.31414974778E+03  0.10614630553E+04  0.97987714162E+03 0.  0.
         13    1    3    3    0    0  0.37474405276E+03  0.40442193543E+03  0.50481729585E+02  0.55365930239E+03  0.10566000000E+00 0. -1.
         -4    1    3    3    0  502 -0.12493260171E+03 -0.33060608318E+03 -0.36463147737E+03  0.50780375293E+03  0.00000000000E+00 0. -1.
        -13    1    1    2    0    0 -0.24981145105E+03 -0.73815852252E+02 -0.39472739746E+03  0.47293157073E+03  0.10566000000E+00 0.  1.
<mgrwt>
<rscale>  1 0.72185002E+03</rscale>
<asrwt>0</asrwt>
<pdfrwt beam="1">  1       21 0.63501344E-01 0.10139101E+04</pdfrwt>
<pdfrwt beam="2">  1       -4 0.17255937E+00 0.10139101E+04</pdfrwt>
<totfact> 0.17982370E+01</totfact>
</mgrwt>
</event>
<event>
 6    2  0.2267664E-005  0.1086930E+04  0.7818608E-02  0.9518081E-01
         -4   -1    0    0    0  501 -0.00000000000E+00  0.00000000000E+00  0.90870832936E+03  0.90870832936E+03  0.00000000000E+00 0. -1.
         21   -1    0    0  501  502  0.00000000000E+00 -0.00000000000E+00 -0.61434897688E+03  0.61434897688E+03  0.00000000000E+00 0. -1.
   -9000010    2    1    2    0  502  0.14047915500E+03  0.34114422516E+03  0.65497408006E+02  0.10889011406E+04  0.10224001214E+04 0.  0.
         13    1    3    3    0    0  0.50062988813E+03  0.47304302277E+03 -0.43592138218E+02  0.69014510935E+03  0.10566000000E+00 0. -1.
         -4    1    3    3    0  502 -0.36015073313E+03 -0.13189879762E+03  0.10908954622E+03  0.39875603128E+03  0.00000000000E+00 0. -1.
        -13    1    1    2    0    0 -0.14047915500E+03 -0.34114422516E+03  0.22886194447E+03  0.43415616561E+03  0.10566000000E+00 0.  1.
<mgrwt>
<rscale>  1 0.82963832E+03</rscale>
<asrwt>0</asrwt>
<pdfrwt beam="2">  1       21 0.94515227E-01 0.10869295E+04</pdfrwt>
<pdfrwt beam="1">  1       -4 0.13980128E+00 0.10869295E+04</pdfrwt>
<totfact> 0.12484817E+01</totfact>
</mgrwt>
</event>
<event>
 6    2  0.2267664E-005  0.1032300E+04  0.7818608E-02  0.9650246E-01
         21   -1    0    0  501  502  0.00000000000E+00  0.00000000000E+00  0.11974830327E+04  0.11974830327E+04  0.00000000000E+00 0. -1.
         -4   -1    0    0    0  501 -0.00000000000E+00 -0.00000000000E+00 -0.43294797454E+03  0.43294797454E+03  0.00000000000E+00 0. -1.
   -9000010    2    1    2    0  502  0.16238089921E+03  0.22001017817E+03  0.85710479844E+03  0.13417422424E+04  0.99542532347E+03 0.  0.
         13    1    3    3    0    0  0.57800160399E+03  0.55096769788E+02  0.54601144202E+03  0.79702572997E+03  0.10566000000E+00 0. -1.
         -4    1    3    3    0  502 -0.41562070478E+03  0.16491340839E+03  0.31109335642E+03  0.54471651243E+03  0.00000000000E+00 0. -1.
        -13    1    1    2    0    0 -0.16238089921E+03 -0.22001017817E+03 -0.92569740319E+02  0.28868876479E+03  0.10566000000E+00 0.  1.
<mgrwt>
<rscale>  1 0.74057987E+03</rscale>
<asrwt>0</asrwt>
<pdfrwt beam="1">  1       21 0.18422816E+00 0.10323002E+04</pdfrwt>
<pdfrwt beam="2">  1       -4 0.66607381E-01 0.10323002E+04</pdfrwt>
<totfact> 0.12316878E+01</totfact>
</mgrwt>
</event>
<event>
 6    2  0.2267664E-005  0.1007148E+04  0.7818608E-02  0.9941293E-01
         -4   -1    0    0    0  501 -0.00000000000E+00  0.00000000000E+00  0.35907300985E+03  0.35907300985E+03  0.00000000000E+00 0. -1.
         21   -1    0    0  501  502  0.00000000000E+00 -0.00000000000E+00 -0.88351664841E+03  0.88351664841E+03  0.00000000000E+00 0. -1.
   -9000010    2    1    2    0  502  0.11245918833E+03 -0.11938083184E+02 -0.42940698555E+03  0.10948684227E+04  0.10007781556E+04 0.  0.
         13    1    3    3    0    0 -0.31816902540E+03 -0.30851676570E+03 -0.44130251778E+02  0.44537805708E+03  0.10566000000E+00 0. -1.
         -4    1    3    3    0  502  0.43062821373E+03  0.29657868252E+03 -0.38527673377E+03  0.64949036557E+03  0.00000000000E+00 0. -1.
        -13    1    1    2    0    0 -0.11245918833E+03  0.11938083184E+02 -0.95036653015E+02  0.14772123561E+03  0.10566000000E+00 0.  1.
<mgrwt>
<rscale>  1 0.58301139E+03</rscale>
<asrwt>0</asrwt>
<pdfrwt beam="2">  1       21 0.13592564E+00 0.10071477E+04</pdfrwt>
<pdfrwt beam="1">  1       -4 0.55242002E-01 0.10071477E+04</pdfrwt>
<totfact> 0.44267929E+01</totfact>
</mgrwt>
</event>
<event>
 6    2  0.2267664E-005  0.1047335E+04  0.7818608E-02  0.9591662E-01
         -4   -1    0    0    0  501 -0.00000000000E+00  0.00000000000E+00  0.19546309923E+04  0.19546309923E+04  0.00000000000E+00 0. -1.
         21   -1    0    0  501  502  0.00000000000E+00 -0.00000000000E+00 -0.43707188066E+03  0.43707188066E+03  0.00000000000E+00 0. -1.
   -9000010    2    1    2    0  502  0.31852835759E+03 -0.27749936100E+02  0.23965165130E+03  0.10744034150E+04  0.99733615730E+03 0.  0.
         13    1    3    3    0    0  0.52389242369E+03 -0.11852274768E+01  0.51182372319E+03  0.73241259625E+03  0.10566000000E+00 0. -1.
         -4    1    3    3    0  502 -0.20536406610E+03 -0.26564708623E+02 -0.27217207190E+03  0.34199081875E+03  0.00000000000E+00 0. -1.
        -13    1    1    2    0    0 -0.31852835759E+03  0.27749936100E+02  0.12779074603E+04  0.13172994579E+04  0.10566000000E+00 0.  1.
<mgrwt>
<rscale>  1 0.77850533E+03</rscale>
<asrwt>0</asrwt>
<pdfrwt beam="2">  1       21 0.67241829E-01 0.10473346E+04</pdfrwt>
<pdfrwt beam="1">  1       -4 0.30071245E+00 0.10473346E+04</pdfrwt>
<totfact> 0.23838038E+00</totfact>
</mgrwt>
</event>
<event>
 6    2  0.2267664E-005  0.1087554E+04  0.7818608E-02  0.9467614E-01
         -4   -1    0    0    0  501 -0.00000000000E+00  0.00000000000E+00  0.16978650151E+04  0.16978650151E+04  0.00000000000E+00 0. -1.
         21   -1    0    0  501  502  0.00000000000E+00 -0.00000000000E+00 -0.53225301205E+03  0.53225301205E+03  0.00000000000E+00 0. -1.
   -9000010    2    1    2    0  502 -0.23822066897E+03  0.36939814891E+03  0.11788455956E+03  0.10939239915E+04  0.99477075267E+03 0.  0.
         13    1    3    3    0    0 -0.32309063277E+03 -0.42685142368E+02  0.45159948148E+03  0.55691263336E+03  0.10566000000E+00 0. -1.
         -4    1    3    3    0  502  0.84869963802E+02  0.41208329127E+03 -0.33371492192E+03  0.53701135818E+03  0.00000000000E+00 0. -1.
        -13    1    1    2    0    0  0.23822066897E+03 -0.36939814891E+03  0.10477274435E+04  0.11361940356E+04  0.10566000000E+00 0.  1.
<mgrwt>
<rscale>  1 0.86714167E+03</rscale>
<asrwt>0</asrwt>
<pdfrwt beam="2">  1       21 0.81885079E-01 0.10875536E+04</pdfrwt>
<pdfrwt beam="1">  1       -4 0.26121000E+00 0.10875536E+04</pdfrwt>
<totfact> 0.26305832E+00</totfact>
</mgrwt>
</event>
<event>
 6    2  0.2267664E-005  0.1037375E+04  0.7818608E-02  0.9746615E-01
         21   -1    0    0  501  502  0.00000000000E+00  0.00000000000E+00  0.33931889757E+03  0.33931889757E+03  0.00000000000E+00 0. -1.
         -4   -1    0    0    0  501 -0.00000000000E+00 -0.00000000000E+00 -0.11458872153E+04  0.11458872153E+04  0.00000000000E+00 0. -1.
   -9000010    2    1    2    0  502 -0.18498588806E+03 -0.61745522083E+02 -0.58858917562E+03  0.11927215734E+04  0.10188794068E+04 0.  0.
         13    1    3    3    0    0 -0.63553365369E+02 -0.53716606661E+03 -0.24567826505E+03  0.59409109946E+03  0.10566000000E+00 0. -1.
         -4    1    3    3    0  502 -0.12143252269E+03  0.47542054453E+03 -0.34291091057E+03  0.59863047393E+03  0.00000000000E+00 0. -1.
        -13    1    1    2    0    0  0.18498588806E+03  0.61745522083E+02 -0.21797914212E+03  0.29248453949E+03  0.10566000000E+00 0.  1.
<mgrwt>
<rscale>  1 0.68307911E+03</rscale>
<asrwt>0</asrwt>
<pdfrwt beam="1">  1       21 0.52202908E-01 0.10373753E+04</pdfrwt>
<pdfrwt beam="2">  1       -4 0.17629034E+00 0.10373753E+04</pdfrwt>
<totfact> 0.26047084E+01</totfact>
</mgrwt>
</event>
<event>
 6    2  0.2267664E-005  0.1164522E+04  0.7818608E-02  0.9326615E-01
         -4   -1    0    0    0  501 -0.00000000000E+00  0.00000000000E+00  0.60446779467E+03  0.60446779467E+03  0.00000000000E+00 0. -1.
         21   -1    0    0  501  502  0.00000000000E+00 -0.00000000000E+00 -0.13177252953E+04  0.13177252953E+04  0.00000000000E+00 0.  1.
   -9000010    2    1    2    0  502 -0.58440608974E+03 -0.10008337551E+03 -0.62835303234E+03  0.13232307041E+04  0.10022798029E+04 0.  0.
         13    1    3    3    0    0 -0.39126303110E+03 -0.13674191257E+03  0.20824558783E+03  0.46384409684E+03  0.10566000000E+00 0. -1.
         -4    1    3    3    0  502 -0.19314305863E+03  0.36658537063E+02 -0.83659862017E+03  0.85938660724E+03  0.00000000000E+00 0. -1.
        -13    1    1    2    0    0  0.58440608974E+03  0.10008337551E+03 -0.84904468250E+02  0.59896238585E+03  0.10566000000E+00 0.  1.
<mgrwt>
<rscale>  1 0.98369119E+03</rscale>
<asrwt>0</asrwt>
<pdfrwt beam="2">  1       21 0.20272697E+00 0.11645222E+04</pdfrwt>
<pdfrwt beam="1">  1       -4 0.92995046E-01 0.11645222E+04</pdfrwt>
<totfact> 0.41781990E+00</totfact>
</mgrwt>
</event>
<event>
 6    2  0.2267664E-005  0.1014460E+04  0.7818608E-02  0.9764000E-01
         21   -1    0    0  501  502  0.00000000000E+00  0.00000000000E+00  0.10132947782E+04  0.10132947782E+04  0.00000000000E+00 0. -1.
         -4   -1    0    0    0  501 -0.00000000000E+00 -0.00000000000E+00 -0.38021182758E+03  0.38021182758E+03  0.00000000000E+00 0. -1.
   -9000010    2    1    2    0  502 -0.17632051759E+03  0.87542703375E+02  0.63468576041E+03  0.11966431252E+04  0.99517641887E+03 0.  0.
         13    1    3    3    0    0 -0.19632777641E+03  0.53207006860E+03  0.31509223942E+03  0.64878832003E+03  0.10566000000E+00 0. -1.
         -4    1    3    3    0  502  0.20007258825E+02 -0.44452736523E+03  0.31959352099E+03  0.54785480512E+03  0.00000000000E+00 0. -1.
        -13    1    1    2    0    0  0.17632051759E+03 -0.87542703375E+02 -0.16028098029E+01  0.19686348062E+03  0.10566000000E+00 0.  1.
<mgrwt>
<rscale>  1 0.67330809E+03</rscale>
<asrwt>0</asrwt>
<pdfrwt beam="1">  1       21 0.15589150E+00 0.10144598E+04</pdfrwt>
<pdfrwt beam="2">  1       -4 0.58494128E-01 0.10144598E+04</pdfrwt>
<totfact> 0.26781995E+01</totfact>
</mgrwt>
</event>
<event>
 6    2  0.2267664E-005  0.1062470E+04  0.7818608E-02  0.9545519E-01
         21   -1    0    0  501  502  0.00000000000E+00  0.00000000000E+00  0.14923512167E+04  0.14923512167E+04  0.00000000000E+00 0. -1.
         -4   -1    0    0    0  501 -0.00000000000E+00 -0.00000000000E+00 -0.34271955909E+03  0.34271955909E+03  0.00000000000E+00 0. -1.
   -9000010    2    1    2    0  502  0.70858062641E+02 -0.35202138220E+03  0.94411043164E+03  0.14213330520E+04  0.99995160840E+03 0.  0.
         13    1    3    3    0    0  0.23933293546E+03  0.23598772824E+03  0.52658311058E+02  0.34021077403E+03  0.10566000000E+00 0. -1.
         -4    1    3    3    0  502 -0.16847487282E+03 -0.58800911045E+03  0.89145212058E+03  0.10811222780E+04  0.00000000000E+00 0. -1.
        -13    1    1    2    0    0 -0.70858062641E+02  0.35202138220E+03  0.20552122602E+03  0.41373772378E+03  0.10566000000E+00 0.  1.
<mgrwt>
<rscale>  1 0.81009514E+03</rscale>
<asrwt>0</asrwt>
<pdfrwt beam="1">  1       21 0.22959249E+00 0.10624703E+04</pdfrwt>
<pdfrwt beam="2">  1       -4 0.52726087E-01 0.10624703E+04</pdfrwt>
<totfact> 0.10019554E+01</totfact>
</mgrwt>
</event>
<event>
 6    2  0.2267664E-005  0.1020641E+04  0.7818608E-02  0.9759515E-01
         -4   -1    0    0    0  501 -0.00000000000E+00  0.00000000000E+00  0.90070125979E+03  0.90070125979E+03  0.00000000000E+00 0. -1.
         21   -1    0    0  501  502  0.00000000000E+00 -0.00000000000E+00 -0.41416699819E+03  0.41416699819E+03  0.00000000000E+00 0. -1.
   -9000010    2    1    2    0  502 -0.16930840172E+03  0.99128151756E+02  0.44936643998E+03  0.11151855509E+04  0.10016071537E+04 0.  0.
         13    1    3    3    0    0  0.28354406468E+03  0.21021886782E+02 -0.17954901085E+03  0.33626925938E+03  0.10566000000E+00 0. -1.
         -4    1    3    3    0  502 -0.45285246641E+03  0.78106264974E+02  0.62891545083E+03  0.77891629156E+03  0.00000000000E+00 0. -1.
        -13    1    1    2    0    0  0.16930840172E+03 -0.99128151756E+02  0.37167821619E+02  0.19968270704E+03  0.10566000000E+00 0.  1.
<mgrwt>
<rscale>  1 0.67581191E+03</rscale>
<asrwt>0</asrwt>
<pdfrwt beam="2">  1       21 0.63718000E-01 0.10206413E+04</pdfrwt>
<pdfrwt beam="1">  1       -4 0.13856942E+00 0.10206413E+04</pdfrwt>
<totfact> 0.32398789E+01</totfact>
</mgrwt>
</event>
<event>
 6    2  0.2267664E-005  0.1048092E+04  0.7818608E-02  0.9565019E-01
         -4   -1    0    0    0  501 -0.00000000000E+00  0.00000000000E+00  0.18466766178E+04  0.18466766178E+04  0.00000000000E+00 0. -1.
         21   -1    0    0  501  502  0.00000000000E+00 -0.00000000000E+00 -0.28935915145E+03  0.28935915145E+03  0.00000000000E+00 0. -1.
   -9000010    2    1    2    0  502  0.30997260762E+03  0.16182627361E+03  0.85925817225E+03  0.13552941029E+04  0.98804187083E+03 0.  0.
         13    1    3    3    0    0  0.21965606020E+03  0.34442870852E+03 -0.60749529299E+02  0.41300173911E+03  0.10566000000E+00 0. -1.
         -4    1    3    3    0  502  0.90316547423E+02 -0.18260243491E+03  0.92000770155E+03  0.94229236380E+03  0.00000000000E+00 0. -1.
        -13    1    1    2    0    0 -0.30997260762E+03 -0.16182627361E+03  0.69805929409E+03  0.78074166633E+03  0.10566000000E+00 0.  1.
<mgrwt>
<rscale>  1 0.79655356E+03</rscale>
<asrwt>0</asrwt>
<pdfrwt beam="2">  1       21 0.44516794E-01 0.10480923E+04</pdfrwt>
<pdfrwt beam="1">  1       -4 0.28410409E+00 0.10480923E+04</pdfrwt>
<totfact> 0.74746862E+00</totfact>
</mgrwt>
</event>
<event>
 6    2  0.2267664E-005  0.1070576E+04  0.7818608E-02  0.9488464E-01
         -4   -1    0    0    0  501 -0.00000000000E+00  0.00000000000E+00  0.18862056187E+04  0.18862056187E+04  0.00000000000E+00 0. -1.
         21   -1    0    0  501  502  0.00000000000E+00 -0.00000000000E+00 -0.29924273870E+03  0.29924273870E+03  0.00000000000E+00 0. -1.
   -9000010    2    1    2    0  502 -0.52313509382E+02  0.42502140695E+03  0.12017813354E+04  0.16094754994E+04  0.98119982958E+03 0.  0.
         13    1    3    3    0    0  0.20725202558E+03 -0.21651645645E+03  0.11494966123E+03  0.32100812108E+03  0.10566000000E+00 0. -1.
         -4    1    3    3    0  502 -0.25956553497E+03  0.64153786340E+03  0.10868316742E+04  0.12884673784E+04  0.00000000000E+00 0. -1.
        -13    1    1    2    0    0  0.52313509382E+02 -0.42502140695E+03  0.38518154457E+03  0.57597285793E+03  0.10566000000E+00 0.  1.
<mgrwt>
<rscale>  1 0.85139708E+03</rscale>
<asrwt>0</asrwt>
<pdfrwt beam="2">  1       21 0.46037346E-01 0.10705760E+04</pdfrwt>
<pdfrwt beam="1">  1       -4 0.29018547E+00 0.10705760E+04</pdfrwt>
<totfact> 0.63635771E+00</totfact>
</mgrwt>
</event>
<event>
 6    2  0.2267664E-005  0.1007886E+04  0.7818608E-02  0.9957139E-01
         -4   -1    0    0    0  501 -0.00000000000E+00  0.00000000000E+00  0.45293929679E+03  0.45293929679E+03  0.00000000000E+00 0. -1.
         21   -1    0    0  501  502  0.00000000000E+00 -0.00000000000E+00 -0.79843470431E+03  0.79843470431E+03  0.00000000000E+00 0. -1.
   -9000010    2    1    2    0  502 -0.65145103445E+02 -0.85247533258E+02 -0.44801849296E+03  0.11029758184E+04  0.10021596976E+04 0.  0.
         13    1    3    3    0    0 -0.14930407812E+03 -0.41654837906E+03 -0.58604405396E+03  0.73433773170E+03  0.10566000000E+00 0. -1.
         -4    1    3    3    0  502  0.84158974680E+02  0.33130084580E+03  0.13802556100E+03  0.36863808666E+03  0.00000000000E+00 0. -1.
        -13    1    1    2    0    0  0.65145103445E+02  0.85247533258E+02  0.10252308544E+03  0.14839818274E+03  0.10566000000E+00 0.  1.
<mgrwt>
<rscale>  1 0.57570236E+03</rscale>
<asrwt>0</asrwt>
<pdfrwt beam="2">  1       21 0.12283611E+00 0.10078864E+04</pdfrwt>
<pdfrwt beam="1">  1       -4 0.69682970E-01 0.10078864E+04</pdfrwt>
<totfact> 0.34806138E+01</totfact>
</mgrwt>
</event>
<event>
 6    2  0.2267664E-005  0.1069620E+04  0.7818608E-02  0.9501859E-01
         -4   -1    0    0    0  501 -0.00000000000E+00  0.00000000000E+00  0.12288995209E+04  0.12288995209E+04  0.00000000000E+00 0. -1.
         21   -1    0    0  501  502  0.00000000000E+00 -0.00000000000E+00 -0.48483490227E+03  0.48483490227E+03  0.00000000000E+00 0. -1.
   -9000010    2    1    2    0  502  0.14050319392E+03 -0.38485227366E+03  0.30291845573E+03  0.11116859465E+04  0.98804535969E+03 0.  0.
         13    1    3    3    0    0 -0.37127867105E+02 -0.28464535835E+03  0.64918676363E+03  0.70982034613E+03  0.10566000000E+00 0. -1.
         -4    1    3    3    0  502  0.17763106102E+03 -0.10020691531E+03 -0.34626830789E+03  0.40186560038E+03  0.00000000000E+00 0. -1.
        -13    1    1    2    0    0 -0.14050319392E+03  0.38485227366E+03  0.44114616288E+03  0.60204847664E+03  0.10566000000E+00 0.  1.
<mgrwt>
<rscale>  1 0.84146870E+03</rscale>
<asrwt>0</asrwt>
<pdfrwt beam="2">  1       21 0.74589985E-01 0.10696196E+04</pdfrwt>
<pdfrwt beam="1">  1       -4 0.18906146E+00 0.10696196E+04</pdfrwt>
<totfact> 0.94945483E+00</totfact>
</mgrwt>
</event>
<event>
 6    2  0.2267664E-005  0.1006447E+04  0.7818608E-02  0.9949030E-01
         21   -1    0    0  501  502  0.00000000000E+00  0.00000000000E+00  0.29560687125E+03  0.29560687125E+03  0.00000000000E+00 0.  1.
         -4   -1    0    0    0  501 -0.00000000000E+00 -0.00000000000E+00 -0.12639465404E+04  0.12639465404E+04  0.00000000000E+00 0. -1.
   -9000010    2    1    2    0  502 -0.10636175734E+03 -0.30202420180E+02 -0.10239743477E+04  0.14357784617E+04  0.10003555951E+04 0.  0.
         13    1    3    3    0    0  0.18988282427E+02 -0.10543324721E+03 -0.12012390627E+04  0.12060066423E+04  0.10566000000E+00 0. -1.
         -4    1    3    3    0  502 -0.12535003976E+03  0.75230827026E+02  0.17726471497E+03  0.22977181937E+03  0.00000000000E+00 0. -1.
        -13    1    1    2    0    0  0.10636175734E+03  0.30202420180E+02  0.55634678562E+02  0.12377494993E+03  0.10566000000E+00 0.  1.
<mgrwt>
<rscale>  1 0.57942811E+03</rscale>
<asrwt>0</asrwt>
<pdfrwt beam="1">  1       21 0.45477980E-01 0.10064474E+04</pdfrwt>
<pdfrwt beam="2">  1       -4 0.19445332E+00 0.10064474E+04</pdfrwt>
<totfact> 0.26376877E+01</totfact>
</mgrwt>
</event>
<event>
 6    2  0.2267664E-005  0.1085702E+04  0.7818608E-02  0.9476523E-01
         -4   -1    0    0    0  501 -0.00000000000E+00  0.00000000000E+00  0.44680115439E+03  0.44680115439E+03  0.00000000000E+00 0. -1.
         21   -1    0    0  501  502  0.00000000000E+00 -0.00000000000E+00 -0.15898324587E+04  0.15898324587E+04  0.00000000000E+00 0.  1.
   -9000010    2    1    2    0  502 -0.38762688997E+03 -0.18185168791E+03 -0.35936874902E+03  0.11436321271E+04  0.99770932749E+03 0.  0.
         13    1    3    3    0    0 -0.62778461595E+03  0.17018985984E+03 -0.14420216667E+03  0.66623748653E+03  0.10566000000E+00 0. -1.
         -4    1    3    3    0  502  0.24015772598E+03 -0.35204154776E+03 -0.21516658235E+03  0.47739464058E+03  0.00000000000E+00 0. -1.
        -13    1    1    2    0    0  0.38762688997E+03  0.18185168791E+03 -0.78366255526E+03  0.89300148595E+03  0.10566000000E+00 0.  1.
<mgrwt>
<rscale>  1 0.86037068E+03</rscale>
<asrwt>0</asrwt>
<pdfrwt beam="2">  1       21 0.24458961E+00 0.10857019E+04</pdfrwt>
<pdfrwt beam="1">  1       -4 0.68738638E-01 0.10857019E+04</pdfrwt>
<totfact> 0.44790511E+00</totfact>
</mgrwt>
</event>
<event>
 6    2  0.2267664E-005  0.8917216E+03  0.7818608E-02  0.1001728E+00
         21   -1    0    0  501  502  0.00000000000E+00  0.00000000000E+00  0.50363233679E+03  0.50363233679E+03  0.00000000000E+00 0. -1.
         -4   -1    0    0    0  501 -0.00000000000E+00 -0.00000000000E+00 -0.53755207079E+03  0.53755207079E+03  0.00000000000E+00 0. -1.
   -9000010    2    1    2    0  502  0.82335772036E+02  0.98145088234E+02  0.41206489315E+02  0.89267313429E+03  0.88247136623E+03 0.  0.
         13    1    3    3    0    0  0.41494484616E+03  0.34337407856E+02  0.25868939175E+03  0.49018210443E+03  0.10566000000E+00 0. -1.
         -4    1    3    3    0  502 -0.33260907413E+03  0.63807680378E+02 -0.21748290243E+03  0.40249102986E+03  0.00000000000E+00 0. -1.
        -13    1    1    2    0    0 -0.82335772036E+02 -0.98145088234E+02 -0.75126223311E+02  0.14851127329E+03  0.10566000000E+00 0.  1.
<mgrwt>
<rscale>  1 0.54899195E+03</rscale>
<asrwt>0</asrwt>
<pdfrwt beam="1">  1       21 0.77481898E-01 0.89172157E+03</pdfrwt>
<pdfrwt beam="2">  1       -4 0.82700318E-01 0.89172157E+03</pdfrwt>
<totfact> 0.74104359E+01</totfact>
</mgrwt>
</event>
<event>
 6    2  0.2267664E-005  0.1135316E+04  0.7818608E-02  0.9382344E-01
         21   -1    0    0  501  502  0.00000000000E+00  0.00000000000E+00  0.14975444514E+04  0.14975444514E+04  0.00000000000E+00 0.  1.
         -4   -1    0    0    0  501 -0.00000000000E+00 -0.00000000000E+00 -0.49838625481E+03  0.49838625481E+03  0.00000000000E+00 0. -1.
   -9000010    2    1    2    0  502 -0.14300146311E+03 -0.50331308055E+03  0.93108922915E+03  0.14682879568E+04  0.10075559021E+04 0.  0.
         13    1    3    3    0    0 -0.68344737188E+02 -0.23556832810E+03 -0.19188722549E+03  0.31142279746E+03  0.10566000000E+00 0. -1.
         -4    1    3    3    0  502 -0.74656725925E+02 -0.26774475245E+03  0.11229764546E+04  0.11568651593E+04  0.00000000000E+00 0. -1.
        -13    1    1    2    0    0  0.14300146311E+03  0.50331308055E+03  0.68068967416E+02  0.52764274940E+03  0.10566000000E+00 0.  1.
<mgrwt>
<rscale>  1 0.93543041E+03</rscale>
<asrwt>0</asrwt>
<pdfrwt beam="1">  1       21 0.23039145E+00 0.11353160E+04</pdfrwt>
<pdfrwt beam="2">  1       -4 0.76674809E-01 0.11353160E+04</pdfrwt>
<totfact> 0.42931888E+00</totfact>
</mgrwt>
</event>
<event>
 6    2  0.2267664E-005  0.1029358E+04  0.7818608E-02  0.9680013E-01
         21   -1    0    0  501  502  0.00000000000E+00  0.00000000000E+00  0.11010487583E+04  0.11010487583E+04  0.00000000000E+00 0. -1.
         -4   -1    0    0    0  501 -0.00000000000E+00 -0.00000000000E+00 -0.37509745715E+03  0.37509745715E+03  0.00000000000E+00 0. -1.
   -9000010    2    1    2    0  502  0.22036503478E+03  0.11681121040E+03  0.64119366426E+03  0.12127273938E+04  0.99868554071E+03 0.  0.
         13    1    3    3    0    0 -0.57362499143E+02  0.36978266105E+03 -0.95129956207E+02  0.38610800620E+03  0.10566000000E+00 0. -1.
         -4    1    3    3    0  502  0.27772753392E+03 -0.25297145065E+03  0.73632362047E+03  0.82661938763E+03  0.00000000000E+00 0. -1.
        -13    1    1    2    0    0 -0.22036503478E+03 -0.11681121040E+03  0.84757636940E+02  0.26341882167E+03  0.10566000000E+00 0.  1.
<mgrwt>
<rscale>  1 0.72219357E+03</rscale>
<asrwt>0</asrwt>
<pdfrwt beam="1">  1       21 0.16939212E+00 0.10293583E+04</pdfrwt>
<pdfrwt beam="2">  1       -4 0.57707301E-01 0.10293583E+04</pdfrwt>
<totfact> 0.21676678E+01</totfact>
</mgrwt>
</event>
<event>
 6    2  0.2267664E-005  0.1081908E+04  0.7818608E-02  0.9490836E-01
         -4   -1    0    0    0  501 -0.00000000000E+00  0.00000000000E+00  0.94556789518E+03  0.94556789518E+03  0.00000000000E+00 0. -1.
         21   -1    0    0  501  502  0.00000000000E+00 -0.00000000000E+00 -0.78537164353E+03  0.78537164353E+03  0.00000000000E+00 0. -1.
   -9000010    2    1    2    0  502  0.35803822744E+03  0.20278187380E+03 -0.29093213441E+03  0.11203425419E+04  0.10006068377E+04 0.  0.
         13    1    3    3    0    0  0.13178888571E+03  0.71749638603E+02  0.37554659002E+03  0.40441510046E+03  0.10566000000E+00 0. -1.
         -4    1    3    3    0  502  0.22624934173E+03  0.13103223520E+03 -0.66647872443E+03  0.71592744144E+03  0.00000000000E+00 0. -1.
        -13    1    1    2    0    0 -0.35803822744E+03 -0.20278187380E+03  0.45112838605E+03  0.61059699681E+03  0.10566000000E+00 0.  1.
<mgrwt>
<rscale>  1 0.84962799E+03</rscale>
<asrwt>0</asrwt>
<pdfrwt beam="2">  1       21 0.12082641E+00 0.10819085E+04</pdfrwt>
<pdfrwt beam="1">  1       -4 0.14547198E+00 0.10819085E+04</pdfrwt>
<totfact> 0.60495550E+00</totfact>
</mgrwt>
</event>
<event>
 6    2  0.2267664E-005  0.9573513E+03  0.7818608E-02  0.9977470E-01
         -4   -1    0    0    0  501 -0.00000000000E+00  0.00000000000E+00  0.26223462781E+03  0.26223462781E+03  0.00000000000E+00 0. -1.
         21   -1    0    0  501  502  0.00000000000E+00 -0.00000000000E+00 -0.11253716153E+04  0.11253716153E+04  0.00000000000E+00 0. -1.
   -9000010    2    1    2    0  502 -0.19516620459E+01 -0.11735549193E+03 -0.82618109654E+03  0.12645539391E+04  0.95012911765E+03 0.  0.
         13    1    3    3    0    0  0.12229106601E+03  0.40310418683E+03 -0.33502642202E+03  0.53822932369E+03  0.10566000000E+00 0. -1.
         -4    1    3    3    0  502 -0.12424272805E+03 -0.52045967876E+03 -0.49115467452E+03  0.72632461544E+03  0.00000000000E+00 0. -1.
        -13    1    1    2    0    0  0.19516620459E+01  0.11735549193E+03 -0.36955890911E+02  0.12305230395E+03  0.10566000000E+00 0.  1.
<mgrwt>
<rscale>  1 0.56649281E+03</rscale>
<asrwt>0</asrwt>
<pdfrwt beam="2">  1       21 0.17313409E+00 0.95735127E+03</pdfrwt>
<pdfrwt beam="1">  1       -4 0.40343790E-01 0.95735127E+03</pdfrwt>
<totfact> 0.43451771E+01</totfact>
</mgrwt>
</event>
<event>
 6    2  0.2267664E-005  0.1219075E+04  0.7818608E-02  0.9272804E-01
         21   -1    0    0  501  502  0.00000000000E+00  0.00000000000E+00  0.14653265406E+04  0.14653265406E+04  0.00000000000E+00 0.  1.
         -4   -1    0    0    0  501 -0.00000000000E+00 -0.00000000000E+00 -0.61682711865E+03  0.61682711865E+03  0.00000000000E+00 0. -1.
   -9000010    2    1    2    0  502  0.61115954723E+03 -0.14929105268E+03  0.31967962962E+03  0.12602934555E+04  0.10441938124E+04 0.  0.
         13    1    3    3    0    0  0.62031850792E+03  0.25601594479E+03 -0.98029074612E+02  0.67819534493E+03  0.10566000000E+00 0. -1.
         -4    1    3    3    0  502 -0.91589606828E+01 -0.40530699747E+03  0.41770870424E+03  0.58209811059E+03  0.00000000000E+00 0. -1.
        -13    1    1    2    0    0 -0.61115954723E+03  0.14929105268E+03  0.52881979237E+03  0.82186020377E+03  0.10566000000E+00 0.  1.
<mgrwt>
<rscale>  1 0.10332560E+04</rscale>
<asrwt>0</asrwt>
<pdfrwt beam="1">  1       21 0.22543485E+00 0.12190753E+04</pdfrwt>
<pdfrwt beam="2">  1       -4 0.94896480E-01 0.12190753E+04</pdfrwt>
<totfact> 0.27813051E+00</totfact>
</mgrwt>
</event>
<event>
 6    2  0.2267664E-005  0.1003834E+04  0.7818608E-02  0.9781182E-01
         21   -1    0    0  501  502  0.00000000000E+00  0.00000000000E+00  0.11933523935E+04  0.11933523935E+04  0.00000000000E+00 0. -1.
         -4   -1    0    0    0  501 -0.00000000000E+00 -0.00000000000E+00 -0.41453160039E+03  0.41453160039E+03  0.00000000000E+00 0. -1.
   -9000010    2    1    2    0  502 -0.13818913017E+03 -0.13324603246E+03  0.92621928395E+03  0.13658569973E+04  0.98530829398E+03 0.  0.
         13    1    3    3    0    0  0.29261040527E+03  0.28003658254E+03  0.33426004107E+03  0.52513914637E+03  0.10566000000E+00 0. -1.
         -4    1    3    3    0  502 -0.43079953544E+03 -0.41328261500E+03  0.59195924288E+03  0.84071785090E+03  0.00000000000E+00 0. -1.
        -13    1    1    2    0    0  0.13818913017E+03  0.13324603246E+03 -0.14739849079E+03  0.24202699667E+03  0.10566000000E+00 0.  1.
<mgrwt>
<rscale>  1 0.66382300E+03</rscale>
<asrwt>0</asrwt>
<pdfrwt beam="1">  1       21 0.18359267E+00 0.10038342E+04</pdfrwt>
<pdfrwt beam="2">  1       -4 0.63774093E-01 0.10038342E+04</pdfrwt>
<totfact> 0.13751072E+01</totfact>
</mgrwt>
</event>
<event>
 6    2  0.2267664E-005  0.1026667E+04  0.7818608E-02  0.9872060E-01
         21   -1    0    0  501  502  0.00000000000E+00  0.00000000000E+00  0.93905005370E+03  0.93905005370E+03  0.00000000000E+00 0. -1.
         -4   -1    0    0    0  501 -0.00000000000E+00 -0.00000000000E+00 -0.38831164847E+03  0.38831164847E+03  0.00000000000E+00 0. -1.
   -9000010    2    1    2    0  502  0.13091701529E+03  0.25386392879E+02  0.59528271890E+03  0.11867631926E+04  0.10179693641E+04 0.  0.
         13    1    3    3    0    0 -0.35322764484E+03 -0.12382401388E+03 -0.37484414538E+02  0.37617449141E+03  0.10566000000E+00 0. -1.
         -4    1    3    3    0  502  0.48414466013E+03  0.14921040676E+03  0.63276713344E+03  0.81058870124E+03  0.00000000000E+00 0. -1.
        -13    1    1    2    0    0 -0.13091701529E+03 -0.25386392879E+02 -0.44544313665E+02  0.14059850952E+03  0.10566000000E+00 0.  1.
<mgrwt>
<rscale>  1 0.61634679E+03</rscale>
<asrwt>0</asrwt>
<pdfrwt beam="1">  1       21 0.14446924E+00 0.10266671E+04</pdfrwt>
<pdfrwt beam="2">  1       -4 0.59740254E-01 0.10266671E+04</pdfrwt>
<totfact> 0.31590549E+01</totfact>
</mgrwt>
</event>
<event>
 6    2  0.2267664E-005  0.1045281E+04  0.7818608E-02  0.9605061E-01
         21   -1    0    0  501  502  0.00000000000E+00  0.00000000000E+00  0.81395561190E+03  0.81395561190E+03  0.00000000000E+00 0. -1.
         -4   -1    0    0    0  501 -0.00000000000E+00 -0.00000000000E+00 -0.56703255535E+03  0.56703255535E+03  0.00000000000E+00 0. -1.
   -9000010    2    1    2    0  502  0.13729307532E+03  0.27480360741E+03  0.24581045293E+03  0.10737949703E+04  0.99912283949E+03 0.  0.
         13    1    3    3    0    0  0.16853336249E+03 -0.35666784323E+03  0.19352114587E+03  0.43939263732E+03  0.10566000000E+00 0. -1.
         -4    1    3    3    0  502 -0.31240287174E+02  0.63147145064E+03  0.52289307058E+02  0.63440233302E+03  0.00000000000E+00 0. -1.
        -13    1    1    2    0    0 -0.13729307532E+03 -0.27480360741E+03  0.11126036250E+01  0.30719319691E+03  0.10566000000E+00 0.  1.
<mgrwt>
<rscale>  1 0.76962125E+03</rscale>
<asrwt>0</asrwt>
<pdfrwt beam="1">  1       21 0.12522394E+00 0.10452812E+04</pdfrwt>
<pdfrwt beam="2">  1       -4 0.87235778E-01 0.10452812E+04</pdfrwt>
<totfact> 0.19721311E+01</totfact>
</mgrwt>
</event>
<event>
 6    2  0.2267664E-005  0.1016993E+04  0.7818608E-02  0.9783135E-01
         21   -1    0    0  501  502  0.00000000000E+00  0.00000000000E+00  0.77130587954E+03  0.77130587954E+03  0.00000000000E+00 0. -1.
         -4   -1    0    0    0  501 -0.00000000000E+00 -0.00000000000E+00 -0.48191067754E+03  0.48191067754E+03  0.00000000000E+00 0. -1.
   -9000010    2    1    2    0  502 -0.14661917733E+03 -0.11021593736E+03  0.32234532582E+03  0.10668554618E+04  0.10003146161E+04 0.  0.
         13    1    3    3    0    0  0.36138999720E+03 -0.19109726547E+03 -0.76547978281E+02  0.41590924381E+03  0.10566000000E+00 0. -1.
         -4    1    3    3    0  502 -0.50800917454E+03  0.80881328110E+02  0.39889330410E+03  0.65094621798E+03  0.00000000000E+00 0. -1.
        -13    1    1    2    0    0  0.14661917733E+03  0.11021593736E+03 -0.32950123828E+02  0.18636109528E+03  0.10566000000E+00 0.  1.
<mgrwt>
<rscale>  1 0.66275501E+03</rscale>
<asrwt>0</asrwt>
<pdfrwt beam="1">  1       21 0.11866244E+00 0.10169927E+04</pdfrwt>
<pdfrwt beam="2">  1       -4 0.74140104E-01 0.10169927E+04</pdfrwt>
<totfact> 0.33101163E+01</totfact>
</mgrwt>
</event>
<event>
 6    2  0.2267664E-005  0.1007365E+04  0.7818608E-02  0.9554954E-01
         21   -1    0    0  501  502  0.00000000000E+00  0.00000000000E+00  0.38712824152E+03  0.38712824152E+03  0.00000000000E+00 0.  1.
         -4   -1    0    0    0  501 -0.00000000000E+00 -0.00000000000E+00 -0.13658359477E+04  0.13658359477E+04  0.00000000000E+00 0. -1.
   -9000010    2    1    2    0  502  0.23699833273E+02 -0.40706495135E+03 -0.50155327372E+03  0.11253178554E+04  0.92115201389E+03 0.  0.
         13    1    3    3    0    0  0.39907058711E+03 -0.34175764415E+03 -0.52608504713E+03  0.74351940716E+03  0.10566000000E+00 0. -1.
         -4    1    3    3    0  502 -0.37537075384E+03 -0.65307307195E+02  0.24531773417E+02  0.38179844829E+03  0.00000000000E+00 0. -1.
        -13    1    1    2    0    0 -0.23699833273E+02  0.40706495135E+03 -0.47715443246E+03  0.62764633377E+03  0.10566000000E+00 0.  1.
<mgrwt>
<rscale>  1 0.80350732E+03</rscale>
<asrwt>0</asrwt>
<pdfrwt beam="1">  1       21 0.59558191E-01 0.10073652E+04</pdfrwt>
<pdfrwt beam="2">  1       -4 0.21012861E+00 0.10073652E+04</pdfrwt>
<totfact> 0.11557335E+01</totfact>
</mgrwt>
</event>
<event>
 6    2  0.2267664E-005  0.1077740E+04  0.7818608E-02  0.9509320E-01
         21   -1    0    0  501  502  0.00000000000E+00  0.00000000000E+00  0.64026084512E+03  0.64026084512E+03  0.00000000000E+00 0.  1.
         -4   -1    0    0    0  501 -0.00000000000E+00 -0.00000000000E+00 -0.87581899613E+03  0.87581899613E+03  0.00000000000E+00 0. -1.
   -9000010    2    1    2    0  502  0.28123256443E+03 -0.27048911842E+03 -0.37261365310E+02  0.10783838910E+04  0.10046229584E+04 0.  0.
         13    1    3    3    0    0 -0.34741668481E+03  0.80665304049E+02  0.95687790323E+01  0.35678679468E+03  0.10566000000E+00 0. -1.
         -4    1    3    3    0  502  0.62864924924E+03 -0.35115442247E+03 -0.46830144342E+02  0.72159709632E+03  0.00000000000E+00 0. -1.
        -13    1    1    2    0    0 -0.28123256443E+03  0.27048911842E+03 -0.19829678571E+03  0.43769595025E+03  0.10566000000E+00 0.  1.
<mgrwt>
<rscale>  1 0.83600204E+03</rscale>
<asrwt>0</asrwt>
<pdfrwt beam="1">  1       21 0.98501668E-01 0.10777400E+04</pdfrwt>
<pdfrwt beam="2">  1       -4 0.13474138E+00 0.10777400E+04</pdfrwt>
<totfact> 0.12432705E+01</totfact>
</mgrwt>
</event>
<event>
 6    2  0.2267664E-005  0.1011685E+04  0.7818608E-02  0.9972232E-01
         21   -1    0    0  501  502  0.00000000000E+00  0.00000000000E+00  0.16222731620E+04  0.16222731620E+04  0.00000000000E+00 0. -1.
         -4   -1    0    0    0  501 -0.00000000000E+00 -0.00000000000E+00 -0.42316094674E+03  0.42316094674E+03  0.00000000000E+00 0. -1.
   -9000010    2    1    2    0  502  0.10050422272E+03  0.11163760555E+02  0.14539350391E+04  0.17712801173E+04  0.10066183127E+04 0.  0.
         13    1    3    3    0    0 -0.10094365240E+03  0.46392175658E+03  0.46206962516E+03  0.66251140885E+03  0.10566000000E+00 0. -1.
         -4    1    3    3    0  502  0.20144787512E+03 -0.45275799603E+03  0.99186541395E+03  0.11087687084E+04  0.00000000000E+00 0. -1.
        -13    1    1    2    0    0 -0.10050422272E+03 -0.11163760555E+02 -0.25482282384E+03  0.27415399149E+03  0.10566000000E+00 0.  1.
<mgrwt>
<rscale>  1 0.56884738E+03</rscale>
<asrwt>0</asrwt>
<pdfrwt beam="1">  1       21 0.24958048E+00 0.10116848E+04</pdfrwt>
<pdfrwt beam="2">  1       -4 0.65101685E-01 0.10116848E+04</pdfrwt>
<totfact> 0.47507539E+00</totfact>
</mgrwt>
</event>
<event>
 6    2  0.2267664E-005  0.7444511E+03  0.7818608E-02  0.1009903E+00
         21   -1    0    0  501  502  0.00000000000E+00  0.00000000000E+00  0.34008331870E+03  0.34008331870E+03  0.00000000000E+00 0. -1.
         -4   -1    0    0    0  501 -0.00000000000E+00 -0.00000000000E+00 -0.65301538275E+03  0.65301538275E+03  0.00000000000E+00 0. -1.
   -9000010    2    1    2    0  502 -0.13930417869E+03 -0.98610418657E+02 -0.15468820537E+03  0.76035249022E+03  0.72462252217E+03 0.  0.
         13    1    3    3    0    0  0.46493719315E+02  0.10241688216E+03 -0.38594810907E+03  0.40200352952E+03  0.10566000000E+00 0. -1.
         -4    1    3    3    0  502 -0.18579789801E+03 -0.20102730082E+03  0.23125990370E+03  0.35834896070E+03  0.00000000000E+00 0. -1.
        -13    1    1    2    0    0  0.13930417869E+03  0.98610418657E+02 -0.15824385867E+03  0.23274621122E+03  0.10566000000E+00 0.  1.
<mgrwt>
<rscale>  1 0.51513268E+03</rscale>
<asrwt>0</asrwt>
<pdfrwt beam="1">  1       21 0.52320511E-01 0.74445112E+03</pdfrwt>
<pdfrwt beam="2">  1       -4 0.10046390E+00 0.74445112E+03</pdfrwt>
<totfact> 0.11459295E+02</totfact>
</mgrwt>
</event>
<event>
 6    2  0.2267664E-005  0.1026147E+04  0.7818608E-02  0.9650075E-01
         21   -1    0    0  501  502  0.00000000000E+00  0.00000000000E+00  0.48144167813E+03  0.48144167813E+03  0.00000000000E+00 0. -1.
         -4   -1    0    0    0  501 -0.00000000000E+00 -0.00000000000E+00 -0.94689473234E+03  0.94689473234E+03  0.00000000000E+00 0. -1.
   -9000010    2    1    2    0  502  0.27792703663E+03 -0.18685364560E+02 -0.20384976096E+03  0.10461991645E+04  0.98761601154E+03 0.  0.
         13    1    3    3    0    0  0.19691373543E+03 -0.49593837372E+03 -0.39824992883E+02  0.53508497545E+03  0.10566000000E+00 0. -1.
         -4    1    3    3    0  502  0.81013301204E+02  0.47725300916E+03 -0.16402476808E+03  0.51111418907E+03  0.00000000000E+00 0. -1.
        -13    1    1    2    0    0 -0.27792703663E+03  0.18685364560E+02 -0.26160329325E+03  0.38213724595E+03  0.10566000000E+00 0.  1.
<mgrwt>
<rscale>  1 0.74068707E+03</rscale>
<asrwt>0</asrwt>
<pdfrwt beam="1">  1       21 0.74067951E-01 0.10261471E+04</pdfrwt>
<pdfrwt beam="2">  1       -4 0.14567611E+00 0.10261471E+04</pdfrwt>
<totfact> 0.20114004E+01</totfact>
</mgrwt>
</event>
<event>
 6    2  0.2267664E-005  0.9879423E+03  0.7818608E-02  0.1003397E+00
         -4   -1    0    0    0  501 -0.00000000000E+00  0.00000000000E+00  0.11324204214E+04  0.11324204214E+04  0.00000000000E+00 0. -1.
         21   -1    0    0  501  502  0.00000000000E+00 -0.00000000000E+00 -0.26158664025E+03  0.26158664025E+03  0.00000000000E+00 0. -1.
   -9000010    2    1    2    0  502 -0.81687661637E+02 -0.36326911648E+02  0.73487482726E+03  0.12312883876E+04  0.98388899940E+03 0.  0.
         13    1    3    3    0    0 -0.39473021997E+03 -0.29431000853E+03  0.14112314375E+03  0.51219730626E+03  0.10566000000E+00 0. -1.
         -4    1    3    3    0  502  0.31304255833E+03  0.25798309688E+03  0.59375168351E+03  0.71909108135E+03  0.00000000000E+00 0. -1.
        -13    1    1    2    0    0  0.81687661637E+02  0.36326911648E+02  0.13595895389E+03  0.16271867403E+03  0.10566000000E+00 0.  1.
<mgrwt>
<rscale>  1 0.54185643E+03</rscale>
<asrwt>0</asrwt>
<pdfrwt beam="2">  1       21 0.40244099E-01 0.98794235E+03</pdfrwt>
<pdfrwt beam="1">  1       -4 0.17421852E+00 0.98794235E+03</pdfrwt>
<totfact> 0.47169712E+01</totfact>
</mgrwt>
</event>
<event>
 6    2  0.2267664E-005  0.1085167E+04  0.7818608E-02  0.9484702E-01
         21   -1    0    0  501  502  0.00000000000E+00  0.00000000000E+00  0.84605998873E+03  0.84605998873E+03  0.00000000000E+00 0.  1.
         -4   -1    0    0    0  501 -0.00000000000E+00 -0.00000000000E+00 -0.66817573873E+03  0.66817573873E+03  0.00000000000E+00 0. -1.
   -9000010    2    1    2    0  502 -0.14000830072E+03  0.39242280476E+03  0.16280812177E+03  0.10973121340E+04  0.10019927410E+04 0.  0.
         13    1    3    3    0    0 -0.16610279322E+03  0.59908131425E+03  0.43192536983E+03  0.75699940242E+03  0.10566000000E+00 0. -1.
         -4    1    3    3    0  502  0.26094492500E+02 -0.20665850949E+03 -0.26911724805E+03  0.34031273159E+03  0.00000000000E+00 0. -1.
        -13    1    1    2    0    0  0.14000830072E+03 -0.39242280476E+03  0.15076128228E+02  0.41692359345E+03  0.10566000000E+00 0.  1.
<mgrwt>
<rscale>  1 0.85421172E+03</rscale>
<asrwt>0</asrwt>
<pdfrwt beam="1">  1       21 0.13016308E+00 0.10851670E+04</pdfrwt>
<pdfrwt beam="2">  1       -4 0.10279627E+00 0.10851670E+04</pdfrwt>
<totfact> 0.11989637E+01</totfact>
</mgrwt>
</event>
<event>
 6    2  0.2267664E-005  0.9883880E+03  0.7818608E-02  0.9735135E-01
         -4   -1    0    0    0  501 -0.00000000000E+00  0.00000000000E+00  0.59648193837E+03  0.59648193837E+03  0.00000000000E+00 0. -1.
         21   -1    0    0  501  502  0.00000000000E+00 -0.00000000000E+00 -0.62848911585E+03  0.62848911585E+03  0.00000000000E+00 0. -1.
   -9000010    2    1    2    0  502 -0.15848995952E+03  0.17249228418E+03 -0.52825200273E+02  0.98979865660E+03  0.96022821426E+03 0.  0.
         13    1    3    3    0    0 -0.30722985809E+03 -0.32036134364E+02 -0.43379214574E+03  0.53253369516E+03  0.10566000000E+00 0. -1.
         -4    1    3    3    0  502  0.14873989858E+03  0.20452841854E+03  0.38096694547E+03  0.45726496144E+03  0.00000000000E+00 0. -1.
        -13    1    1    2    0    0  0.15848995952E+03 -0.17249228418E+03  0.20818022792E+02  0.23517239762E+03  0.10566000000E+00 0.  1.
<mgrwt>
<rscale>  1 0.68962836E+03</rscale>
<asrwt>0</asrwt>
<pdfrwt beam="2">  1       21 0.96690633E-01 0.98838802E+03</pdfrwt>
<pdfrwt beam="1">  1       -4 0.91766452E-01 0.98838802E+03</pdfrwt>
<totfact> 0.33947792E+01</totfact>
</mgrwt>
</event>
<event>
 6    2  0.2267664E-005  0.1036319E+04  0.7818608E-02  0.9798269E-01
         21   -1    0    0  501  502  0.00000000000E+00  0.00000000000E+00  0.60857111992E+03  0.60857111992E+03  0.00000000000E+00 0. -1.
         -4   -1    0    0    0  501 -0.00000000000E+00 -0.00000000000E+00 -0.72773494524E+03  0.72773494524E+03  0.00000000000E+00 0. -1.
   -9000010    2    1    2    0  502  0.99412977471E+02  0.13160373295E+03  0.12270209506E+03  0.10435576796E+04  0.10231101329E+04 0.  0.
         13    1    3    3    0    0  0.42065537496E+03 -0.26285584150E+03 -0.67179055792E+02  0.50055686449E+03  0.10566000000E+00 0. -1.
         -4    1    3    3    0  502 -0.32124239749E+03  0.39445957444E+03  0.18988115085E+03  0.54300081516E+03  0.00000000000E+00 0. -1.
        -13    1    1    2    0    0 -0.99412977471E+02 -0.13160373295E+03 -0.24186592038E+03  0.29274838551E+03  0.10566000000E+00 0.  1.
<mgrwt>
<rscale>  1 0.65455501E+03</rscale>
<asrwt>0</asrwt>
<pdfrwt beam="1">  1       21 0.93626326E-01 0.10363189E+04</pdfrwt>
<pdfrwt beam="2">  1       -4 0.11195922E+00 0.10363189E+04</pdfrwt>
<totfact> 0.22602138E+01</totfact>
</mgrwt>
</event>
<event>
 6    2  0.2267664E-005  0.1021946E+04  0.7818608E-02  0.9676837E-01
         -4   -1    0    0    0  501 -0.00000000000E+00  0.00000000000E+00  0.50892738510E+03  0.50892738510E+03  0.00000000000E+00 0. -1.
         21   -1    0    0  501  502  0.00000000000E+00 -0.00000000000E+00 -0.82536397192E+03  0.82536397192E+03  0.00000000000E+00 0. -1.
   -9000010    2    1    2    0  502  0.18990148707E+03  0.17408378069E+03 -0.16420021981E+03  0.10350528901E+04  0.98894137116E+03 0.  0.
         13    1    3    3    0    0  0.59568736074E+02 -0.35927675531E+03  0.15961385160E+03  0.39762396056E+03  0.10566000000E+00 0. -1.
         -4    1    3    3    0  502  0.13033275100E+03  0.53336053600E+03 -0.32381407142E+03  0.63742892952E+03  0.00000000000E+00 0. -1.
        -13    1    1    2    0    0 -0.18990148707E+03 -0.17408378069E+03 -0.15223636701E+03  0.29923846694E+03  0.10566000000E+00 0.  1.
<mgrwt>
<rscale>  1 0.72412830E+03</rscale>
<asrwt>0</asrwt>
<pdfrwt beam="2">  1       21 0.12697907E+00 0.10219456E+04</pdfrwt>
<pdfrwt beam="1">  1       -4 0.78296521E-01 0.10219456E+04</pdfrwt>
<totfact> 0.24469428E+01</totfact>
</mgrwt>
</event>
<event>
 6    2  0.2267664E-005  0.1021645E+04  0.7818608E-02  0.9811226E-01
         -4   -1    0    0    0  501 -0.00000000000E+00  0.00000000000E+00  0.17934249372E+04  0.17934249372E+04  0.00000000000E+00 0. -1.
         21   -1    0    0  501  502  0.00000000000E+00 -0.00000000000E+00 -0.19758881372E+03  0.19758881372E+03  0.00000000000E+00 0. -1.
   -9000010    2    1    2    0  502  0.23913686659E+02  0.16323449692E+03  0.14263701622E+04  0.17545056356E+04  0.10082364904E+04 0.  0.
         13    1    3    3    0    0  0.41995042998E+03  0.27375777061E+03  0.11624143049E+04  0.12659023296E+04  0.10566000000E+00 0. -1.
         -4    1    3    3    0  502 -0.39603674332E+03 -0.11052327369E+03  0.26395585723E+03  0.48860330602E+03  0.00000000000E+00 0. -1.
        -13    1    1    2    0    0 -0.23913686659E+02 -0.16323449692E+03  0.16946596134E+03  0.23650811532E+03  0.10566000000E+00 0.  1.
<mgrwt>
<rscale>  1 0.64763573E+03</rscale>
<asrwt>0</asrwt>
<pdfrwt beam="2">  1       21 0.30398280E-01 0.10216448E+04</pdfrwt>
<pdfrwt beam="1">  1       -4 0.27591152E+00 0.10216448E+04</pdfrwt>
<totfact> 0.18566524E+01</totfact>
</mgrwt>
</event>
<event>
 6    2  0.2267664E-005  0.1108043E+04  0.7818608E-02  0.9438342E-01
         21   -1    0    0  501  502  0.00000000000E+00  0.00000000000E+00  0.57169493660E+03  0.57169493660E+03  0.00000000000E+00 0. -1.
         -4   -1    0    0    0  501 -0.00000000000E+00 -0.00000000000E+00 -0.14762473539E+04  0.14762473539E+04  0.00000000000E+00 0. -1.
   -9000010    2    1    2    0  502 -0.22268215976E+03 -0.40355521652E+03 -0.10870262691E+04  0.15522197120E+04  0.10076287847E+04 0.  0.
         13    1    3    3    0    0  0.11497445050E+03 -0.19710832314E+03  0.13675691729E+03  0.26603248093E+03  0.10566000000E+00 0. -1.
         -4    1    3    3    0  502 -0.33765661026E+03 -0.20644689338E+03 -0.12237831864E+04  0.12861872311E+04  0.00000000000E+00 0. -1.
        -13    1    1    2    0    0  0.22268215976E+03  0.40355521652E+03  0.18247385177E+03  0.49572257847E+03  0.10566000000E+00 0.  1.
<mgrwt>
<rscale>  1 0.88986311E+03</rscale>
<asrwt>0</asrwt>
<pdfrwt beam="1">  1       21 0.87953069E-01 0.11080433E+04</pdfrwt>
<pdfrwt beam="2">  1       -4 0.22711497E+00 0.11080433E+04</pdfrwt>
<totfact> 0.36096354E+00</totfact>
</mgrwt>
</event>
<event>
 6    2  0.2267664E-005  0.1039643E+04  0.7818608E-02  0.9582788E-01
         -4   -1    0    0    0  501 -0.00000000000E+00  0.00000000000E+00  0.65684183979E+03  0.65684183979E+03  0.00000000000E+00 0. -1.
         21   -1    0    0  501  502  0.00000000000E+00 -0.00000000000E+00 -0.72354106825E+03  0.72354106825E+03  0.00000000000E+00 0. -1.
   -9000010    2    1    2    0  502  0.25076330744E+03 -0.22513595820E+03 -0.17339303272E+02  0.10397880616E+04  0.98350908771E+03 0.  0.
         13    1    3    3    0    0 -0.28992228862E+03 -0.35298060999E+03  0.10988406473E+03  0.46981354100E+03  0.10566000000E+00 0. -1.
         -4    1    3    3    0  502  0.54068559606E+03  0.12784465179E+03 -0.12722336800E+03  0.56997452061E+03  0.00000000000E+00 0. -1.
        -13    1    1    2    0    0 -0.25076330744E+03  0.22513595820E+03 -0.49359925186E+02  0.34059484642E+03  0.10566000000E+00 0.  1.
<mgrwt>
<rscale>  1 0.78445961E+03</rscale>
<asrwt>0</asrwt>
<pdfrwt beam="2">  1       21 0.11131401E+00 0.10396435E+04</pdfrwt>
<pdfrwt beam="1">  1       -4 0.10105259E+00 0.10396435E+04</pdfrwt>
<totfact> 0.18862580E+01</totfact>
</mgrwt>
</event>
<event>
 6    2  0.2267664E-005  0.1004360E+04  0.7818608E-02  0.9813804E-01
         -4   -1    0    0    0  501 -0.00000000000E+00  0.00000000000E+00  0.27216449843E+03  0.27216449843E+03  0.00000000000E+00 0. -1.
         21   -1    0    0  501  502  0.00000000000E+00 -0.00000000000E+00 -0.13770427725E+04  0.13770427725E+04  0.00000000000E+00 0. -1.
   -9000010    2    1    2    0  502  0.82790783157E+02  0.15097101160E+03 -0.74580309737E+03  0.12509842759E+04  0.98949120172E+03 0.  0.
         13    1    3    3    0    0  0.29596750137E+03 -0.26346350311E+03 -0.30716496226E+02  0.39743338264E+03  0.10566000000E+00 0. -1.
         -4    1    3    3    0  502 -0.21317671821E+03  0.41443451470E+03 -0.71508660114E+03  0.85355089321E+03  0.00000000000E+00 0. -1.
        -13    1    1    2    0    0 -0.82790783157E+02 -0.15097101160E+03 -0.35907517673E+03  0.39822299510E+03  0.10566000000E+00 0.  1.
<mgrwt>
<rscale>  1 0.64626998E+03</rscale>
<asrwt>0</asrwt>
<pdfrwt beam="2">  1       21 0.21185273E+00 0.10043602E+04</pdfrwt>
<pdfrwt beam="1">  1       -4 0.41871462E-01 0.10043602E+04</pdfrwt>
<totfact> 0.21419914E+01</totfact>
</mgrwt>
</event>
<event>
 6    2  0.2267664E-005  0.1115691E+04  0.7818608E-02  0.9429689E-01
         21   -1    0    0  501  502  0.00000000000E+00  0.00000000000E+00  0.16352071870E+03  0.16352071870E+03  0.00000000000E+00 0.  1.
         -4   -1    0    0    0  501 -0.00000000000E+00 -0.00000000000E+00 -0.44736153733E+04  0.44736153733E+04  0.00000000000E+00 0. -1.
   -9000010    2    1    2    0  502 -0.25947489274E+03  0.38657688159E+03 -0.37301358658E+04  0.38934149661E+04  0.10139021723E+04 0.  0.
         13    1    3    3    0    0 -0.45187829121E+03  0.62443047366E+03 -0.30786807103E+04  0.31737016768E+04  0.10566000000E+00 0. -1.
         -4    1    3    3    0  502  0.19240339848E+03 -0.23785359207E+03 -0.65145515557E+03  0.71971328925E+03  0.00000000000E+00 0. -1.
        -13    1    1    2    0    0  0.25947489274E+03 -0.38657688159E+03 -0.57995878878E+03  0.74372112596E+03  0.10566000000E+00 0.  1.
<mgrwt>
<rscale>  1 0.89672162E+03</rscale>
<asrwt>0</asrwt>
<pdfrwt beam="1">  1       21 0.25157035E-01 0.11156911E+04</pdfrwt>
<pdfrwt beam="2">  1       -4 0.68824849E+00 0.11156911E+04</pdfrwt>
<totfact> 0.15262655E-02</totfact>
</mgrwt>
</event>
<event>
 6    2  0.2267664E-005  0.1012600E+04  0.7818608E-02  0.9857346E-01
         21   -1    0    0  501  502  0.00000000000E+00  0.00000000000E+00  0.45940463468E+03  0.45940463468E+03  0.00000000000E+00 0. -1.
         -4   -1    0    0    0  501 -0.00000000000E+00 -0.00000000000E+00 -0.12494610322E+04  0.12494610322E+04  0.00000000000E+00 0. -1.
   -9000010    2    1    2    0  502 -0.52631357029E+02 -0.13594640044E+03 -0.11599672796E+03  0.10192223295E+04  0.10020516117E+04 0.  0.
         13    1    3    3    0    0 -0.46917521049E+03 -0.28399323577E+03  0.41338915356E+02  0.54998768458E+03  0.10566000000E+00 0. -1.
         -4    1    3    3    0  502  0.41654385346E+03  0.14804683534E+03 -0.15733564332E+03  0.46923464490E+03  0.00000000000E+00 0. -1.
        -13    1    1    2    0    0  0.52631357029E+02  0.13594640044E+03 -0.67405966957E+03  0.68964333741E+03  0.10566000000E+00 0.  1.
<mgrwt>
<rscale>  1 0.62373793E+03</rscale>
<asrwt>0</asrwt>
<pdfrwt beam="1">  1       21 0.70677636E-01 0.10126001E+04</pdfrwt>
<pdfrwt beam="2">  1       -4 0.19222477E+00 0.10126001E+04</pdfrwt>
<totfact> 0.10300112E+01</totfact>
</mgrwt>
</event>
<event>
 6    2  0.2267664E-005  0.1072469E+04  0.7818608E-02  0.9514188E-01
         -4   -1    0    0    0  501 -0.00000000000E+00  0.00000000000E+00  0.14366606293E+04  0.14366606293E+04  0.00000000000E+00 0. -1.
         21   -1    0    0  501  502  0.00000000000E+00 -0.00000000000E+00 -0.38036147608E+03  0.38036147608E+03  0.00000000000E+00 0. -1.
   -9000010    2    1    2    0  502  0.36967461261E+03  0.12207689331E+03  0.89008456332E+03  0.13937144299E+04  0.99931341182E+03 0.  0.
         13    1    3    3    0    0  0.57968081334E+03  0.41434016409E+03  0.58545962625E+03  0.92220963022E+03  0.10566000000E+00 0. -1.
         -4    1    3    3    0  502 -0.21000620073E+03 -0.29226327078E+03  0.30462493707E+03  0.47150479963E+03  0.00000000000E+00 0. -1.
        -13    1    1    2    0    0 -0.36967461261E+03 -0.12207689331E+03  0.16621458988E+03  0.42330767551E+03  0.10566000000E+00 0.  1.
<mgrwt>
<rscale>  1 0.83245811E+03</rscale>
<asrwt>0</asrwt>
<pdfrwt beam="2">  1       21 0.58517151E-01 0.10724688E+04</pdfrwt>
<pdfrwt beam="1">  1       -4 0.22102471E+00 0.10724688E+04</pdfrwt>
<totfact> 0.10153731E+01</totfact>
</mgrwt>
</event>
<event>
 6    2  0.2267664E-005  0.1036543E+04  0.7818608E-02  0.9594933E-01
         21   -1    0    0  501  502  0.00000000000E+00  0.00000000000E+00  0.47502597407E+03  0.47502597407E+03  0.00000000000E+00 0. -1.
         -4   -1    0    0    0  501 -0.00000000000E+00 -0.00000000000E+00 -0.13624169653E+04  0.13624169653E+04  0.00000000000E+00 0. -1.
   -9000010    2    1    2    0  502  0.59177108868E+02  0.32073261525E+03 -0.17133306398E+03  0.10506073104E+04  0.98389499497E+03 0.  0.
         13    1    3    3    0    0 -0.42805418576E+03  0.25490506325E+02 -0.21412036759E+03  0.47929917050E+03  0.10566000000E+00 0. -1.
         -4    1    3    3    0  502  0.48723129463E+03  0.29524210892E+03  0.42787303614E+02  0.57130813989E+03  0.00000000000E+00 0. -1.
        -13    1    1    2    0    0 -0.59177108868E+02 -0.32073261525E+03 -0.71605792727E+03  0.78683562900E+03  0.10566000000E+00 0.  1.
<mgrwt>
<rscale>  1 0.77632482E+03</rscale>
<asrwt>0</asrwt>
<pdfrwt beam="1">  1       21 0.73080919E-01 0.10365427E+04</pdfrwt>
<pdfrwt beam="2">  1       -4 0.20960261E+00 0.10365427E+04</pdfrwt>
<totfact> 0.72983240E+00</totfact>
</mgrwt>
</event>
<event>
 6    2  0.2267664E-005  0.1027128E+04  0.7818608E-02  0.9702054E-01
         -4   -1    0    0    0  501 -0.00000000000E+00  0.00000000000E+00  0.43799229809E+03  0.43799229809E+03  0.00000000000E+00 0. -1.
         21   -1    0    0  501  502  0.00000000000E+00 -0.00000000000E+00 -0.90941116491E+03  0.90941116491E+03  0.00000000000E+00 0. -1.
   -9000010    2    1    2    0  502  0.19541474421E+02 -0.23229913434E+03 -0.41318918310E+03  0.11071214115E+04  0.10003238284E+04 0.  0.
         13    1    3    3    0    0 -0.14313258856E+03  0.13034701126E+02 -0.68894045352E+03  0.70377254919E+03  0.10566000000E+00 0. -1.
         -4    1    3    3    0  502  0.16267406298E+03 -0.24533383547E+03  0.27575127042E+03  0.40334886231E+03  0.00000000000E+00 0. -1.
        -13    1    1    2    0    0 -0.19541474421E+02  0.23229913434E+03 -0.58229683729E+02  0.24028205149E+03  0.10566000000E+00 0.  1.
<mgrwt>
<rscale>  1 0.70894613E+03</rscale>
<asrwt>0</asrwt>
<pdfrwt beam="2">  1       21 0.13990941E+00 0.10271283E+04</pdfrwt>
<pdfrwt beam="1">  1       -4 0.67383430E-01 0.10271283E+04</pdfrwt>
<totfact> 0.26465389E+01</totfact>
</mgrwt>
</event>
<event>
 6    2  0.2267664E-005  0.1026476E+04  0.7818608E-02  0.9735003E-01
         21   -1    0    0  501  502  0.00000000000E+00  0.00000000000E+00  0.96887513883E+03  0.96887513883E+03  0.00000000000E+00 0. -1.
         -4   -1    0    0    0  501 -0.00000000000E+00 -0.00000000000E+00 -0.49898303229E+03  0.49898303229E+03  0.00000000000E+00 0. -1.
   -9000010    2    1    2    0  502 -0.95019711047E+02  0.18639905441E+03  0.63001344255E+03  0.12043962073E+04  0.10049278249E+04 0.  0.
         13    1    3    3    0    0  0.26567825730E+03 -0.11327087564E+02 -0.16239562059E+03  0.31158560311E+03  0.10566000000E+00 0. -1.
         -4    1    3    3    0  502 -0.36069796835E+03  0.19772614197E+03  0.79240906314E+03  0.89281060418E+03  0.00000000000E+00 0. -1.
        -13    1    1    2    0    0  0.95019711047E+02 -0.18639905441E+03 -0.16012133601E+03  0.26346196383E+03  0.10566000000E+00 0.  1.
<mgrwt>
<rscale>  1 0.68970423E+03</rscale>
<asrwt>0</asrwt>
<pdfrwt beam="1">  1       21 0.14905771E+00 0.10264761E+04</pdfrwt>
<pdfrwt beam="2">  1       -4 0.76766621E-01 0.10264761E+04</pdfrwt>
<totfact> 0.16573163E+01</totfact>
</mgrwt>
</event>
<event>
 6    2  0.2267664E-005  0.1186061E+04  0.7818608E-02  0.9349308E-01
         21   -1    0    0  501  502  0.00000000000E+00  0.00000000000E+00  0.14568703728E+04  0.14568703728E+04  0.00000000000E+00 0. -1.
         -4   -1    0    0    0  501 -0.00000000000E+00 -0.00000000000E+00 -0.57614536679E+03  0.57614536679E+03  0.00000000000E+00 0. -1.
   -9000010    2    1    2    0  502 -0.38789111706E+03 -0.34164135668E+03  0.93911203542E+03  0.15128355865E+04  0.10675025814E+04 0.  0.
         13    1    3    3    0    0 -0.31797358579E+03 -0.72719762878E+03  0.60711430249E+03  0.99925541280E+03  0.10566000000E+00 0. -1.
         -4    1    3    3    0  502 -0.69917531268E+02  0.38555627210E+03  0.33199773293E+03  0.51358017369E+03  0.00000000000E+00 0. -1.
        -13    1    1    2    0    0  0.38789111706E+03  0.34164135668E+03 -0.58387029433E+02  0.52018015308E+03  0.10566000000E+00 0.  1.
<mgrwt>
<rscale>  1 0.96367448E+03</rscale>
<asrwt>0</asrwt>
<pdfrwt beam="1">  1       21 0.22413390E+00 0.11860607E+04</pdfrwt>
<pdfrwt beam="2">  1       -4 0.88637749E-01 0.11860607E+04</pdfrwt>
<totfact> 0.33494327E+00</totfact>
</mgrwt>
</event>
<event>
 6    2  0.2267664E-005  0.9978551E+03  0.7818608E-02  0.9972281E-01
         21   -1    0    0  501  502  0.00000000000E+00  0.00000000000E+00  0.31771841010E+04  0.31771841010E+04  0.00000000000E+00 0. -1.
         -4   -1    0    0    0  501 -0.00000000000E+00 -0.00000000000E+00 -0.98617250140E+02  0.98617250140E+02  0.00000000000E+00 0. -1.
   -9000010    2    1    2    0  502 -0.76049430784E+02  0.72932315843E+02  0.29166098107E+04  0.30825845490E+04  0.99227620910E+03 0.  0.
         13    1    3    3    0    0 -0.47565684200E+03 -0.19075780310E+03  0.16841956040E+04  0.17604410852E+04  0.10566000000E+00 0. -1.
         -4    1    3    3    0  502  0.39960741122E+03  0.26369011895E+03  0.12324142067E+04  0.13221434638E+04  0.00000000000E+00 0. -1.
        -13    1    1    2    0    0  0.76049430784E+02 -0.72932315843E+02  0.16195704020E+03  0.19321680219E+03  0.10566000000E+00 0.  1.
<mgrwt>
<rscale>  1 0.56882533E+03</rscale>
<asrwt>0</asrwt>
<pdfrwt beam="1">  1       21 0.48879748E+00 0.99785506E+03</pdfrwt>
<pdfrwt beam="2">  1       -4 0.15171887E-01 0.99785506E+03</pdfrwt>
<totfact> 0.23740910E+00</totfact>
</mgrwt>
</event>
<event>
 6    2  0.2267664E-005  0.1016409E+04  0.7818608E-02  0.9933434E-01
         21   -1    0    0  501  502  0.00000000000E+00  0.00000000000E+00  0.20574377630E+03  0.20574377630E+03  0.00000000000E+00 0. -1.
         -4   -1    0    0    0  501 -0.00000000000E+00 -0.00000000000E+00 -0.15650789632E+04  0.15650789632E+04  0.00000000000E+00 0. -1.
   -9000010    2    1    2    0  502 -0.10255778051E+03  0.47020272240E+02 -0.12716174077E+04  0.16279121930E+04  0.10101278494E+04 0.  0.
         13    1    3    3    0    0  0.30656687900E+03 -0.33109455859E+03 -0.67202598681E+03  0.80946018811E+03  0.10566000000E+00 0. -1.
         -4    1    3    3    0  502 -0.40912465951E+03  0.37811483083E+03 -0.59959142091E+03  0.81845200491E+03  0.00000000000E+00 0. -1.
        -13    1    1    2    0    0  0.10255778051E+03 -0.47020272240E+02 -0.87717779163E+02  0.14291054646E+03  0.10566000000E+00 0.  1.
<mgrwt>
<rscale>  1 0.58667933E+03</rscale>
<asrwt>0</asrwt>
<pdfrwt beam="1">  1       21 0.31652888E-01 0.10164090E+04</pdfrwt>
<pdfrwt beam="2">  1       -4 0.24078138E+00 0.10164090E+04</pdfrwt>
<totfact> 0.28209794E+01</totfact>
</mgrwt>
</event>
<event>
 6    2  0.2267664E-005  0.1048895E+04  0.7818608E-02  0.9607543E-01
         21   -1    0    0  501  502  0.00000000000E+00  0.00000000000E+00  0.30742616595E+03  0.30742616595E+03  0.00000000000E+00 0. -1.
         -4   -1    0    0    0  501 -0.00000000000E+00 -0.00000000000E+00 -0.15355676864E+04  0.15355676864E+04  0.00000000000E+00 0. -1.
   -9000010    2    1    2    0  502  0.10341443336E+03  0.28316341023E+03 -0.79899921671E+03  0.13185520635E+04  0.10046410970E+04 0.  0.
         13    1    3    3    0    0  0.13940799593E+03  0.44694223667E+03 -0.97122300246E+03  0.10781772043E+04  0.10566000000E+00 0. -1.
         -4    1    3    3    0  502 -0.35993562575E+02 -0.16377882644E+03  0.17222378574E+03  0.24037485915E+03  0.00000000000E+00 0. -1.
        -13    1    1    2    0    0 -0.10341443336E+03 -0.28316341023E+03 -0.42914230376E+03  0.52444178892E+03  0.10566000000E+00 0.  1.
<mgrwt>
<rscale>  1 0.76798912E+03</rscale>
<asrwt>0</asrwt>
<pdfrwt beam="1">  1       21 0.47296333E-01 0.10488946E+04</pdfrwt>
<pdfrwt beam="2">  1       -4 0.23624119E+00 0.10488946E+04</pdfrwt>
<totfact> 0.12983610E+01</totfact>
</mgrwt>
</event>
<event>
 6    2  0.2267664E-005  0.1094168E+04  0.7818608E-02  0.9456605E-01
         21   -1    0    0  501  502  0.00000000000E+00  0.00000000000E+00  0.15933456746E+04  0.15933456746E+04  0.00000000000E+00 0.  1.
         -4   -1    0    0    0  501 -0.00000000000E+00 -0.00000000000E+00 -0.37768286486E+03  0.37768286486E+03  0.00000000000E+00 0. -1.
   -9000010    2    1    2    0  502 -0.28085132339E+03  0.34995841517E+03  0.95354008001E+03  0.14513587454E+04  0.99792543085E+03 0.  0.
         13    1    3    3    0    0  0.72307104871E+02 -0.29463077321E+03  0.88056235825E+02  0.31589479541E+03  0.10566000000E+00 0. -1.
         -4    1    3    3    0  502 -0.35315842826E+03  0.64458918839E+03  0.86548384419E+03  0.11354639500E+04  0.00000000000E+00 0. -1.
        -13    1    1    2    0    0  0.28085132339E+03 -0.34995841517E+03  0.26212272969E+03  0.51966979399E+03  0.10566000000E+00 0.  1.
<mgrwt>
<rscale>  1 0.87560153E+03</rscale>
<asrwt>0</asrwt>
<pdfrwt beam="1">  1       21 0.24513010E+00 0.10941680E+04</pdfrwt>
<pdfrwt beam="2">  1       -4 0.58105057E-01 0.10941680E+04</pdfrwt>
<totfact> 0.64247570E+00</totfact>
</mgrwt>
</event>
<event>
 6    2  0.2267664E-005  0.1132861E+04  0.7818608E-02  0.9369443E-01
         21   -1    0    0  501  502  0.00000000000E+00  0.00000000000E+00  0.20149321969E+04  0.20149321969E+04  0.00000000000E+00 0.  1.
         -4   -1    0    0    0  501 -0.00000000000E+00 -0.00000000000E+00 -0.39365371268E+03  0.39365371268E+03  0.00000000000E+00 0. -1.
   -9000010    2    1    2    0  502 -0.51065909697E+03  0.20863746660E+03  0.69077039121E+03  0.13268522880E+04  0.98948014379E+03 0.  0.
         13    1    3    3    0    0 -0.77274624282E+03  0.31766261331E+03  0.42233824854E+03  0.93617087064E+03  0.10566000000E+00 0. -1.
         -4    1    3    3    0  502  0.26208714585E+03 -0.10902514672E+03  0.26843214267E+03  0.39068141734E+03  0.00000000000E+00 0. -1.
        -13    1    1    2    0    0  0.51065909697E+03 -0.20863746660E+03  0.93050809301E+03  0.10817336216E+04  0.10566000000E+00 0.  1.
<mgrwt>
<rscale>  1 0.94633648E+03</rscale>
<asrwt>0</asrwt>
<pdfrwt beam="1">  1       21 0.30998956E+00 0.11328607E+04</pdfrwt>
<pdfrwt beam="2">  1       -4 0.60562111E-01 0.11328607E+04</pdfrwt>
<totfact> 0.22818602E+00</totfact>
</mgrwt>
</event>
<event>
 6    2  0.2267664E-005  0.1029527E+04  0.7818608E-02  0.9681152E-01
         21   -1    0    0  501  502  0.00000000000E+00  0.00000000000E+00  0.56252293650E+03  0.56252293650E+03  0.00000000000E+00 0. -1.
         -4   -1    0    0    0  501 -0.00000000000E+00 -0.00000000000E+00 -0.72578642406E+03  0.72578642406E+03  0.00000000000E+00 0. -1.
   -9000010    2    1    2    0  502 -0.10284200793E+03  0.22603859215E+03 -0.12652476228E+03  0.10372721744E+04  0.99912718138E+03 0.  0.
         13    1    3    3    0    0 -0.47321165166E+03 -0.99876345912E+02 -0.22625372302E+03  0.53394317121E+03  0.10566000000E+00 0. -1.
         -4    1    3    3    0  502  0.37036964372E+03  0.32591493806E+03  0.99728960740E+02  0.50332900319E+03  0.00000000000E+00 0. -1.
        -13    1    1    2    0    0  0.10284200793E+03 -0.22603859215E+03 -0.36738725279E+02  0.25103718616E+03  0.10566000000E+00 0.  1.
<mgrwt>
<rscale>  1 0.72150172E+03</rscale>
<asrwt>0</asrwt>
<pdfrwt beam="1">  1       21 0.86541990E-01 0.10295266E+04</pdfrwt>
<pdfrwt beam="2">  1       -4 0.11165945E+00 0.10295266E+04</pdfrwt>
<totfact> 0.27533518E+01</totfact>
</mgrwt>
</event>
<event>
 6    2  0.2267664E-005  0.1025513E+04  0.7818608E-02  0.9683346E-01
         21   -1    0    0  501  502  0.00000000000E+00  0.00000000000E+00  0.29704205203E+04  0.29704205203E+04  0.00000000000E+00 0. -1.
         -4   -1    0    0    0  501 -0.00000000000E+00 -0.00000000000E+00 -0.13739952127E+03  0.13739952127E+03  0.00000000000E+00 0. -1.
   -9000010    2    1    2    0  502  0.24920533845E+03 -0.10167132133E+02  0.21936274620E+04  0.24215032214E+04  0.99472093469E+03 0.  0.
         13    1    3    3    0    0  0.31581283737E+03  0.26742980930E+03  0.20690492615E+04  0.21100287460E+04  0.10566000000E+00 0. -1.
         -4    1    3    3    0  502 -0.66607498920E+02 -0.27759694143E+03  0.12457820051E+03  0.31147447543E+03  0.00000000000E+00 0. -1.
        -13    1    1    2    0    0 -0.24920533845E+03  0.10167132133E+02  0.63939353698E+03  0.68631682013E+03  0.10566000000E+00 0.  1.
<mgrwt>
<rscale>  1 0.72017076E+03</rscale>
<asrwt>0</asrwt>
<pdfrwt beam="1">  1       21 0.45698772E+00 0.10255128E+04</pdfrwt>
<pdfrwt beam="2">  1       -4 0.21138390E-01 0.10255128E+04</pdfrwt>
<totfact> 0.21418307E+00</totfact>
</mgrwt>
</event>
<event>
 6    2  0.2267664E-005  0.9978558E+03  0.7818608E-02  0.1003224E+00
         -4   -1    0    0    0  501 -0.00000000000E+00  0.00000000000E+00  0.40960942439E+03  0.40960942439E+03  0.00000000000E+00 0. -1.
         21   -1    0    0  501  502  0.00000000000E+00 -0.00000000000E+00 -0.79635993928E+03  0.79635993928E+03  0.00000000000E+00 0. -1.
   -9000010    2    1    2    0  502  0.29049302227E+02  0.82255272959E+02 -0.45355196584E+03  0.10960956320E+04  0.99403544050E+03 0.  0.
         13    1    3    3    0    0  0.44750630335E+02 -0.38317584671E+01 -0.76819691337E+03  0.76950881098E+03  0.10566000000E+00 0. -1.
         -4    1    3    3    0  502 -0.15701328108E+02  0.86087031426E+02  0.31464494753E+03  0.32658682106E+03  0.00000000000E+00 0. -1.
        -13    1    1    2    0    0 -0.29049302227E+02 -0.82255272959E+02  0.66801450957E+02  0.10987373163E+03  0.10566000000E+00 0.  1.
<mgrwt>
<rscale>  1 0.54259092E+03</rscale>
<asrwt>0</asrwt>
<pdfrwt beam="2">  1       21 0.12251691E+00 0.99785583E+03</pdfrwt>
<pdfrwt beam="1">  1       -4 0.63016836E-01 0.99785583E+03</pdfrwt>
<totfact> 0.43836786E+01</totfact>
</mgrwt>
</event>
<event>
 6    2  0.2267664E-005  0.1011597E+04  0.7818608E-02  0.9853644E-01
         21   -1    0    0  501  502  0.00000000000E+00  0.00000000000E+00  0.23805947726E+03  0.23805947726E+03  0.00000000000E+00 0. -1.
         -4   -1    0    0    0  501 -0.00000000000E+00 -0.00000000000E+00 -0.20021999067E+04  0.20021999067E+04  0.00000000000E+00 0. -1.
   -9000010    2    1    2    0  502  0.14057774993E+03 -0.46218679249E+02 -0.87088475392E+03  0.13348291088E+04  0.10007148570E+04 0.  0.
         13    1    3    3    0    0 -0.61988774859E+02 -0.46590431544E+03 -0.69014991577E+03  0.83499482439E+03  0.10566000000E+00 0. -1.
         -4    1    3    3    0  502  0.20256652479E+03  0.41968563620E+03 -0.18073483815E+03  0.49983428445E+03  0.00000000000E+00 0. -1.
        -13    1    1    2    0    0 -0.14057774993E+03  0.46218679249E+02 -0.89325567552E+03  0.90543027511E+03  0.10566000000E+00 0.  1.
<mgrwt>
<rscale>  1 0.62561464E+03</rscale>
<asrwt>0</asrwt>
<pdfrwt beam="1">  1       21 0.36624536E-01 0.10115970E+04</pdfrwt>
<pdfrwt beam="2">  1       -4 0.30803075E+00 0.10115970E+04</pdfrwt>
<totfact> 0.80411791E+00</totfact>
</mgrwt>
</event>
<event>
 6    2  0.2267664E-005  0.1002585E+04  0.7818608E-02  0.1031563E+00
         -4   -1    0    0    0  501 -0.00000000000E+00  0.00000000000E+00  0.57519768959E+03  0.57519768959E+03  0.00000000000E+00 0. -1.
         21   -1    0    0  501  502  0.00000000000E+00 -0.00000000000E+00 -0.47266986692E+03  0.47266986692E+03  0.00000000000E+00 0. -1.
   -9000010    2    1    2    0  502  0.22940842496E+02  0.28136205846E+02  0.81447735114E+02  0.10058876853E+04  0.10019273294E+04 0.  0.
         13    1    3    3    0    0  0.82551484180E+02  0.49583250366E+03 -0.76945779855E+02  0.50851281540E+03  0.10566000000E+00 0. -1.
         -4    1    3    3    0  502 -0.59610641684E+02 -0.46769629782E+03  0.15839351497E+03  0.49737486987E+03  0.00000000000E+00 0. -1.
        -13    1    1    2    0    0 -0.22940842496E+02 -0.28136205846E+02  0.21080087549E+02  0.41979871235E+02  0.10566000000E+00 0.  1.
<mgrwt>
<rscale>  1 0.43734863E+03</rscale>
<asrwt>0</asrwt>
<pdfrwt beam="2">  1       21 0.72718441E-01 0.10025848E+04</pdfrwt>
<pdfrwt beam="1">  1       -4 0.88491952E-01 0.10025848E+04</pdfrwt>
<totfact> 0.72723116E+01</totfact>
</mgrwt>
</event>
<event>
 6    2  0.2267664E-005  0.9979906E+03  0.7818608E-02  0.1025394E+00
         21   -1    0    0  501  502  0.00000000000E+00  0.00000000000E+00  0.78106574485E+03  0.78106574485E+03  0.00000000000E+00 0. -1.
         -4   -1    0    0    0  501 -0.00000000000E+00 -0.00000000000E+00 -0.58357515089E+03  0.58357515089E+03  0.00000000000E+00 0. -1.
   -9000010    2    1    2    0  502 -0.39620444444E+02  0.19651394211E+02  0.45966553897E+03  0.10987618445E+04  0.99701014357E+03 0.  0.
         13    1    3    3    0    0  0.40831875629E+03  0.16097757128E+03  0.45051369989E+03  0.62896787688E+03  0.10566000000E+00 0. -1.
         -4    1    3    3    0  502 -0.44793920074E+03 -0.14132617707E+03  0.91518390808E+01  0.46979396765E+03  0.00000000000E+00 0. -1.
        -13    1    1    2    0    0  0.39620444444E+02 -0.19651394211E+02 -0.26217494501E+03  0.26587905120E+03  0.10566000000E+00 0.  1.
<mgrwt>
<rscale>  1 0.45789410E+03</rscale>
<asrwt>0</asrwt>
<pdfrwt beam="1">  1       21 0.12016396E+00 0.99799057E+03</pdfrwt>
<pdfrwt beam="2">  1       -4 0.89780793E-01 0.99799057E+03</pdfrwt>
<totfact> 0.20637795E+01</totfact>
</mgrwt>
</event>
<event>
 6    2  0.2267664E-005  0.1052345E+04  0.7818608E-02  0.9572329E-01
         21   -1    0    0  501  502  0.00000000000E+00  0.00000000000E+00  0.70786482406E+03  0.70786482406E+03  0.00000000000E+00 0. -1.
         -4   -1    0    0    0  501 -0.00000000000E+00 -0.00000000000E+00 -0.68243625941E+03  0.68243625941E+03  0.00000000000E+00 0. -1.
   -9000010    2    1    2    0  502 -0.39705075828E+02  0.33450402666E+03  0.40357431806E+02  0.10531181670E+04  0.99697528281E+03 0.  0.
         13    1    3    3    0    0  0.17778505407E+03  0.54166862480E+03  0.31047557596E+03  0.64915908603E+03  0.10566000000E+00 0. -1.
         -4    1    3    3    0  502 -0.21749012990E+03 -0.20716459814E+03 -0.27011814416E+03  0.40395908101E+03  0.00000000000E+00 0. -1.
        -13    1    1    2    0    0  0.39705075828E+02 -0.33450402666E+03 -0.14928867151E+02  0.33718291644E+03  0.10566000000E+00 0.  1.
<mgrwt>
<rscale>  1 0.79154999E+03</rscale>
<asrwt>0</asrwt>
<pdfrwt beam="1">  1       21 0.10890228E+00 0.10523446E+04</pdfrwt>
<pdfrwt beam="2">  1       -4 0.10499019E+00 0.10523446E+04</pdfrwt>
<totfact> 0.18145506E+01</totfact>
</mgrwt>
</event>
<event>
 6    2  0.2267664E-005  0.1011445E+04  0.7818608E-02  0.9814898E-01
         -4   -1    0    0    0  501 -0.00000000000E+00  0.00000000000E+00  0.55093298423E+03  0.55093298423E+03  0.00000000000E+00 0. -1.
         21   -1    0    0  501  502  0.00000000000E+00 -0.00000000000E+00 -0.70550605005E+03  0.70550605005E+03  0.00000000000E+00 0. -1.
   -9000010    2    1    2    0  502 -0.14593038144E+03 -0.83208270617E+02 -0.27686501658E+03  0.10486539893E+04  0.99739744305E+03 0.  0.
         13    1    3    3    0    0  0.28518384301E+03 -0.74810020333E+02  0.23668654036E+03  0.37808318265E+03  0.10566000000E+00 0. -1.
         -4    1    3    3    0  502 -0.43111422444E+03 -0.83982502845E+01 -0.51355155694E+03  0.67057080667E+03  0.00000000000E+00 0. -1.
        -13    1    1    2    0    0  0.14593038144E+03  0.83208270617E+02  0.12229195075E+03  0.20778504496E+03  0.10566000000E+00 0.  1.
<mgrwt>
<rscale>  1 0.64569137E+03</rscale>
<asrwt>0</asrwt>
<pdfrwt beam="2">  1       21 0.10853939E+00 0.10114450E+04</pdfrwt>
<pdfrwt beam="1">  1       -4 0.84758921E-01 0.10114450E+04</pdfrwt>
<totfact> 0.30581080E+01</totfact>
</mgrwt>
</event>
<event>
 6    2  0.2267664E-005  0.1153776E+04  0.7818608E-02  0.9359245E-01
         -4   -1    0    0    0  501 -0.00000000000E+00  0.00000000000E+00  0.12942187029E+04  0.12942187029E+04  0.00000000000E+00 0. -1.
         21   -1    0    0  501  502  0.00000000000E+00 -0.00000000000E+00 -0.58482631698E+03  0.58482631698E+03  0.00000000000E+00 0. -1.
   -9000010    2    1    2    0  502 -0.54117034790E+03 -0.24391187011E+02  0.27865024532E+03  0.11869474268E+04  0.10186942423E+04 0.  0.
         13    1    3    3    0    0 -0.83751959098E+03 -0.17993565851E+02  0.29987937460E+03  0.88976990518E+03  0.10566000000E+00 0. -1.
         -4    1    3    3    0  502  0.29634924309E+03 -0.63976211591E+01 -0.21229129279E+02  0.29717752163E+03  0.00000000000E+00 0. -1.
        -13    1    1    2    0    0  0.54117034790E+03  0.24391187011E+02  0.43074214057E+03  0.69209759303E+03  0.10566000000E+00 0.  1.
<mgrwt>
<rscale>  1 0.95506888E+03</rscale>
<asrwt>0</asrwt>
<pdfrwt beam="2">  1       21 0.89973280E-01 0.11537756E+04</pdfrwt>
<pdfrwt beam="1">  1       -4 0.19911057E+00 0.11537756E+04</pdfrwt>
<totfact> 0.51610266E+00</totfact>
</mgrwt>
</event>
<event>
 6    2  0.2267664E-005  0.1224436E+04  0.7818608E-02  0.9237948E-01
         -4   -1    0    0    0  501 -0.00000000000E+00  0.00000000000E+00  0.15169933935E+04  0.15169933935E+04  0.00000000000E+00 0. -1.
         21   -1    0    0  501  502  0.00000000000E+00 -0.00000000000E+00 -0.61918918862E+03  0.61918918862E+03  0.00000000000E+00 0. -1.
   -9000010    2    1    2    0  502  0.14698697209E+03 -0.69065244623E+03  0.66068797866E+03  0.13913134075E+04  0.10003191597E+04 0.  0.
         13    1    3    3    0    0  0.43741759668E+03  0.12282700973E+01  0.41176163031E+03  0.60073564393E+03  0.10566000000E+00 0. -1.
         -4    1    3    3    0  502 -0.29043062459E+03 -0.69188071633E+03  0.24892634834E+03  0.79057776356E+03  0.00000000000E+00 0. -1.
        -13    1    1    2    0    0 -0.14698697209E+03  0.69065244623E+03  0.23711622625E+03  0.74486917466E+03  0.10566000000E+00 0.  1.
<mgrwt>
<rscale>  1 0.10670184E+04</rscale>
<asrwt>0</asrwt>
<pdfrwt beam="2">  1       21 0.95259875E-01 0.12244364E+04</pdfrwt>
<pdfrwt beam="1">  1       -4 0.23338360E+00 0.12244364E+04</pdfrwt>
<totfact> 0.26750611E+00</totfact>
</mgrwt>
</event>
<event>
 6    2  0.2267664E-005  0.1057042E+04  0.7818608E-02  0.9566730E-01
         -4   -1    0    0    0  501 -0.00000000000E+00  0.00000000000E+00  0.54895478401E+03  0.54895478401E+03  0.00000000000E+00 0. -1.
         21   -1    0    0  501  502  0.00000000000E+00 -0.00000000000E+00 -0.96959457884E+03  0.96959457884E+03  0.00000000000E+00 0. -1.
   -9000010    2    1    2    0  502 -0.13465171647E+03 -0.31095818728E+03 -0.50180441983E+03  0.11701045516E+04  0.10012546663E+04 0.  0.
         13    1    3    3    0    0 -0.33082736231E+03  0.15012421802E+03  0.10972408033E+03  0.37950416264E+03  0.10566000000E+00 0. -1.
         -4    1    3    3    0  502  0.19617564584E+03 -0.46108240530E+03 -0.61152850016E+03  0.79060038895E+03  0.00000000000E+00 0. -1.
        -13    1    1    2    0    0  0.13465171647E+03  0.31095818728E+03  0.81164625007E+02  0.34844481127E+03  0.10566000000E+00 0.  1.
<mgrwt>
<rscale>  1 0.79537903E+03</rscale>
<asrwt>0</asrwt>
<pdfrwt beam="2">  1       21 0.14916840E+00 0.10570416E+04</pdfrwt>
<pdfrwt beam="1">  1       -4 0.84454583E-01 0.10570416E+04</pdfrwt>
<totfact> 0.13232190E+01</totfact>
</mgrwt>
</event>
<event>
 6    2  0.2267664E-005  0.1028269E+04  0.7818608E-02  0.9543417E-01
         21   -1    0    0  501  502  0.00000000000E+00  0.00000000000E+00  0.30819790366E+04  0.30819790366E+04  0.00000000000E+00 0. -1.
         -4   -1    0    0    0  501 -0.00000000000E+00 -0.00000000000E+00 -0.20846066084E+03  0.20846066084E+03  0.00000000000E+00 0. -1.
   -9000010    2    1    2    0  502 -0.37618419735E+03 -0.13302789671E+03  0.26278407525E+04  0.28218583519E+04  0.94769539740E+03 0.  0.
         13    1    3    3    0    0  0.28301844513E+03 -0.40883036230E+02  0.13619092136E+04  0.13916061153E+04  0.10566000000E+00 0. -1.
         -4    1    3    3    0  502 -0.65920264248E+03 -0.92144860477E+02  0.12659315389E+04  0.14302522366E+04  0.00000000000E+00 0. -1.
        -13    1    1    2    0    0  0.37618419735E+03  0.13302789671E+03  0.24567762332E+03  0.46858134556E+03  0.10566000000E+00 0.  1.
<mgrwt>
<rscale>  1 0.81157142E+03</rscale>
<asrwt>0</asrwt>
<pdfrwt beam="1">  1       21 0.47415059E+00 0.10282692E+04</pdfrwt>
<pdfrwt beam="2">  1       -4 0.32070873E-01 0.10282692E+04</pdfrwt>
<totfact> 0.72876911E-01</totfact>
</mgrwt>
</event>
<event>
 6    2  0.2267664E-005  0.9905896E+03  0.7818608E-02  0.9827671E-01
         -4   -1    0    0    0  501 -0.00000000000E+00  0.00000000000E+00  0.41980385516E+03  0.41980385516E+03  0.00000000000E+00 0. -1.
         21   -1    0    0  501  502  0.00000000000E+00 -0.00000000000E+00 -0.80428933766E+03  0.80428933766E+03  0.00000000000E+00 0. -1.
   -9000010    2    1    2    0  502 -0.16808381339E+03  0.34092278921E+02 -0.32384950348E+03  0.10421833665E+04  0.97562965138E+03 0.  0.
         13    1    3    3    0    0 -0.53534100396E+03  0.21602691945E+03 -0.23204789180E+03  0.62217670778E+03  0.10566000000E+00 0. -1.
         -4    1    3    3    0  502  0.36725719057E+03 -0.18193464053E+03 -0.91801611678E+02  0.42000665870E+03  0.00000000000E+00 0. -1.
        -13    1    1    2    0    0  0.16808381339E+03 -0.34092278921E+02 -0.60635979010E+02  0.18190982634E+03  0.10566000000E+00 0.  1.
<mgrwt>
<rscale>  1 0.63898473E+03</rscale>
<asrwt>0</asrwt>
<pdfrwt beam="2">  1       21 0.12373682E+00 0.99058956E+03</pdfrwt>
<pdfrwt beam="1">  1       -4 0.64585209E-01 0.99058956E+03</pdfrwt>
<totfact> 0.40490016E+01</totfact>
</mgrwt>
</event>
<event>
 6    2  0.2267664E-005  0.9678194E+03  0.7818608E-02  0.1018944E+00
         -4   -1    0    0    0  501 -0.00000000000E+00  0.00000000000E+00  0.79347801930E+03  0.79347801930E+03  0.00000000000E+00 0. -1.
         21   -1    0    0  501  502  0.00000000000E+00 -0.00000000000E+00 -0.36789592795E+03  0.36789592795E+03  0.00000000000E+00 0. -1.
   -9000010    2    1    2    0  502  0.57905541714E+02 -0.10768932558E+02  0.48077490974E+03  0.10806566626E+04  0.96602551052E+03 0.  0.
         13    1    3    3    0    0 -0.59648351012E+02 -0.10982152146E+03  0.75554386011E+03  0.76581017757E+03  0.10566000000E+00 0. -1.
         -4    1    3    3    0  502  0.11755389273E+03  0.99052588906E+02 -0.27476895037E+03  0.31484648506E+03  0.00000000000E+00 0. -1.
        -13    1    1    2    0    0 -0.57905541714E+02  0.10768932558E+02 -0.55192818399E+02  0.80717284620E+02  0.10566000000E+00 0.  1.
<mgrwt>
<rscale>  1 0.48069747E+03</rscale>
<asrwt>0</asrwt>
<pdfrwt beam="2">  1       21 0.56599374E-01 0.96781936E+03</pdfrwt>
<pdfrwt beam="1">  1       -4 0.12207354E+00 0.96781936E+03</pdfrwt>
<totfact> 0.58693673E+01</totfact>
</mgrwt>
</event>
<event>
 6    2  0.2267664E-005  0.1006574E+04  0.7818608E-02  0.9927808E-01
         21   -1    0    0  501  502  0.00000000000E+00  0.00000000000E+00  0.20890987058E+04  0.20890987058E+04  0.00000000000E+00 0. -1.
         -4   -1    0    0    0  501 -0.00000000000E+00 -0.00000000000E+00 -0.20151906919E+03  0.20151906919E+03  0.00000000000E+00 0. -1.
   -9000010    2    1    2    0  502  0.70080145096E+02 -0.95271695286E+02  0.19201128578E+04  0.21679542339E+04  0.99960204619E+03 0.  0.
         13    1    3    3    0    0 -0.16272599224E+02 -0.39608717780E+03  0.17825380394E+04  0.18260864500E+04  0.10566000000E+00 0. -1.
         -4    1    3    3    0  502  0.86352744320E+02  0.30081548252E+03  0.13757481843E+03  0.34186778386E+03  0.00000000000E+00 0. -1.
        -13    1    1    2    0    0 -0.70080145096E+02  0.95271695286E+02 -0.32533221260E+02  0.12266354107E+03  0.10566000000E+00 0.  1.
<mgrwt>
<rscale>  1 0.58932333E+03</rscale>
<asrwt>0</asrwt>
<pdfrwt beam="1">  1       21 0.32139979E+00 0.10065745E+04</pdfrwt>
<pdfrwt beam="2">  1       -4 0.31002935E-01 0.10065745E+04</pdfrwt>
<totfact> 0.79105329E+00</totfact>
</mgrwt>
</event>
<event>
 6    2  0.2267664E-005  0.1033572E+04  0.7818608E-02  0.9555255E-01
         21   -1    0    0  501  502  0.00000000000E+00  0.00000000000E+00  0.22493341287E+03  0.22493341287E+03  0.00000000000E+00 0. -1.
         -4   -1    0    0    0  501 -0.00000000000E+00 -0.00000000000E+00 -0.25393274850E+04  0.25393274850E+04  0.00000000000E+00 0. -1.
   -9000010    2    1    2    0  502  0.16271985886E+03 -0.34021430538E+03 -0.11791377934E+04  0.15680040878E+04  0.96231354428E+03 0.  0.
         13    1    3    3    0    0  0.41913773872E+03  0.72104984123E+02 -0.18936267534E+03  0.46554678254E+03  0.10566000000E+00 0. -1.
         -4    1    3    3    0  502 -0.25641787987E+03 -0.41231928950E+03 -0.98977511805E+03  0.11024573053E+04  0.00000000000E+00 0. -1.
        -13    1    1    2    0    0 -0.16271985886E+03  0.34021430538E+03 -0.11352562787E+04  0.11962568100E+04  0.10566000000E+00 0.  1.
<mgrwt>
<rscale>  1 0.80329850E+03</rscale>
<asrwt>0</asrwt>
<pdfrwt beam="1">  1       21 0.34605138E-01 0.10335719E+04</pdfrwt>
<pdfrwt beam="2">  1       -4 0.39066579E+00 0.10335719E+04</pdfrwt>
<totfact> 0.26208924E+00</totfact>
</mgrwt>
</event>
<event>
 6    2  0.2267664E-005  0.1017845E+04  0.7818608E-02  0.9765405E-01
         -4   -1    0    0    0  501 -0.00000000000E+00  0.00000000000E+00  0.95004210132E+03  0.95004210132E+03  0.00000000000E+00 0. -1.
         21   -1    0    0  501  502  0.00000000000E+00 -0.00000000000E+00 -0.40534576611E+03  0.40534576611E+03  0.00000000000E+00 0. -1.
   -9000010    2    1    2    0  502  0.35272215931E+01 -0.19396354059E+03  0.33941802167E+03  0.10729458494E+04  0.99918662219E+03 0.  0.
         13    1    3    3    0    0 -0.24504309601E+03 -0.22046952368E+03  0.61691598796E+03  0.69945570063E+03  0.10566000000E+00 0. -1.
         -4    1    3    3    0  502  0.24857031761E+03  0.26505983096E+02 -0.27749796630E+03  0.37349014878E+03  0.00000000000E+00 0. -1.
        -13    1    1    2    0    0 -0.35272215931E+01  0.19396354059E+03  0.20527831354E+03  0.28244201802E+03  0.10566000000E+00 0.  1.
<mgrwt>
<rscale>  1 0.67252617E+03</rscale>
<asrwt>0</asrwt>
<pdfrwt beam="2">  1       21 0.62360887E-01 0.10178449E+04</pdfrwt>
<pdfrwt beam="1">  1       -4 0.14616032E+00 0.10178449E+04</pdfrwt>
<totfact> 0.29538105E+01</totfact>
</mgrwt>
</event>
<event>
 6    2  0.2267664E-005  0.1110644E+04  0.7818608E-02  0.9435289E-01
         21   -1    0    0  501  502  0.00000000000E+00  0.00000000000E+00  0.98249074798E+03  0.98249074798E+03  0.00000000000E+00 0.  1.
         -4   -1    0    0    0  501 -0.00000000000E+00 -0.00000000000E+00 -0.63026554461E+03  0.63026554461E+03  0.00000000000E+00 0. -1.
   -9000010    2    1    2    0  502 -0.46079801201E+03  0.41586334791E+02  0.22991792904E+03  0.11341924916E+04  0.10096861506E+04 0.  0.
         13    1    3    3    0    0  0.42677212026E+02  0.45556295669E+03  0.12157565198E+03  0.47343384147E+03  0.10566000000E+00 0. -1.
         -4    1    3    3    0  502 -0.50347522404E+03 -0.41397662190E+03  0.10834227706E+03  0.66075865011E+03  0.00000000000E+00 0. -1.
        -13    1    1    2    0    0  0.46079801201E+03 -0.41586334791E+02  0.12230727434E+03  0.47856380101E+03  0.10566000000E+00 0.  1.
<mgrwt>
<rscale>  1 0.89227610E+03</rscale>
<asrwt>0</asrwt>
<pdfrwt beam="1">  1       21 0.15115242E+00 0.11106441E+04</pdfrwt>
<pdfrwt beam="2">  1       -4 0.96963930E-01 0.11106441E+04</pdfrwt>
<totfact> 0.91531385E+00</totfact>
</mgrwt>
</event>
<event>
 6    2  0.2267664E-005  0.1013796E+04  0.7818608E-02  0.9875085E-01
         -4   -1    0    0    0  501 -0.00000000000E+00  0.00000000000E+00  0.27578896677E+03  0.27578896677E+03  0.00000000000E+00 0. -1.
         21   -1    0    0  501  502  0.00000000000E+00 -0.00000000000E+00 -0.14718837744E+04  0.14718837744E+04  0.00000000000E+00 0. -1.
   -9000010    2    1    2    0  502  0.13514002773E+03 -0.23402412639E+02 -0.12418287475E+04  0.16030971400E+04  0.10044756353E+04 0.  0.
         13    1    3    3    0    0 -0.24535428281E+03  0.21834843279E+02  0.53684403845E+02  0.25210614997E+03  0.10566000000E+00 0. -1.
         -4    1    3    3    0  502  0.38049431054E+03 -0.45237255918E+02 -0.12955131514E+04  0.13509909900E+04  0.00000000000E+00 0. -1.
        -13    1    1    2    0    0 -0.13514002773E+03  0.23402412639E+02  0.45733939961E+02  0.14457560113E+03  0.10566000000E+00 0.  1.
<mgrwt>
<rscale>  1 0.61484114E+03</rscale>
<asrwt>0</asrwt>
<pdfrwt beam="2">  1       21 0.22644366E+00 0.10137957E+04</pdfrwt>
<pdfrwt beam="1">  1       -4 0.42429072E-01 0.10137957E+04</pdfrwt>
<totfact> 0.16666911E+01</totfact>
</mgrwt>
</event>
<event>
 6    2  0.2267664E-005  0.9921979E+03  0.7818608E-02  0.1022813E+00
         -4   -1    0    0    0  501 -0.00000000000E+00  0.00000000000E+00  0.10308112776E+04  0.10308112776E+04  0.00000000000E+00 0. -1.
         21   -1    0    0  501  502  0.00000000000E+00 -0.00000000000E+00 -0.26602761887E+03  0.26602761887E+03  0.00000000000E+00 0. -1.
   -9000010    2    1    2    0  502  0.31446121687E+01 -0.48529375042E+02  0.69346065809E+03  0.12105141004E+04  0.99100540572E+03 0.  0.
         13    1    3    3    0    0  0.60408912858E+02 -0.22247160023E+03 -0.19588370196E+03  0.30251162874E+03  0.10566000000E+00 0. -1.
         -4    1    3    3    0  502 -0.57264300689E+02  0.17394222519E+03  0.88934436005E+03  0.90800247169E+03  0.00000000000E+00 0. -1.
        -13    1    1    2    0    0 -0.31446121687E+01  0.48529375042E+02  0.71323000623E+02  0.86324796030E+02  0.10566000000E+00 0.  1.
<mgrwt>
<rscale>  1 0.46685028E+03</rscale>
<asrwt>0</asrwt>
<pdfrwt beam="2">  1       21 0.40927326E-01 0.99219792E+03</pdfrwt>
<pdfrwt beam="1">  1       -4 0.15858635E+00 0.99219792E+03</pdfrwt>
<totfact> 0.59182002E+01</totfact>
</mgrwt>
</event>
<event>
 6    2  0.2267664E-005  0.1004253E+04  0.7818608E-02  0.9727736E-01
         -4   -1    0    0    0  501 -0.00000000000E+00  0.00000000000E+00  0.78379174917E+03  0.78379174917E+03  0.00000000000E+00 0. -1.
         21   -1    0    0  501  502  0.00000000000E+00 -0.00000000000E+00 -0.13320661132E+04  0.13320661132E+04  0.00000000000E+00 0. -1.
   -9000010    2    1    2    0  502  0.21077602567E+03 -0.89255577601E+02 -0.11174361028E+04  0.15023937744E+04  0.97781926678E+03 0.  0.
         13    1    3    3    0    0  0.33058121170E+03 -0.26256412705E+02 -0.12617096297E+04  0.13045629680E+04  0.10566000000E+00 0. -1.
         -4    1    3    3    0  502 -0.11980518603E+03 -0.62999164895E+02  0.14427352693E+03  0.19783080638E+03  0.00000000000E+00 0. -1.
        -13    1    1    2    0    0 -0.21077602567E+03  0.89255577601E+02  0.56916173877E+03  0.61346408793E+03  0.10566000000E+00 0.  1.
<mgrwt>
<rscale>  1 0.69389146E+03</rscale>
<asrwt>0</asrwt>
<pdfrwt beam="2">  1       21 0.20493324E+00 0.10042528E+04</pdfrwt>
<pdfrwt beam="1">  1       -4 0.12058335E+00 0.10042528E+04</pdfrwt>
<totfact> 0.21878214E+00</totfact>
</mgrwt>
</event>
<event>
 6    2  0.2267664E-005  0.8772229E+03  0.7818608E-02  0.9899443E-01
         21   -1    0    0  501  502  0.00000000000E+00  0.00000000000E+00  0.13309256632E+04  0.13309256632E+04  0.00000000000E+00 0. -1.
         -4   -1    0    0    0  501 -0.00000000000E+00 -0.00000000000E+00 -0.23593791154E+03  0.23593791154E+03  0.00000000000E+00 0. -1.
   -9000010    2    1    2    0  502  0.32184768512E+02  0.19304011016E+03  0.10459430714E+04  0.13651069509E+04  0.85511387271E+03 0.  0.
         13    1    3    3    0    0  0.51184689850E+02 -0.18111835093E+03  0.96322814285E+03  0.98144393414E+03  0.10566000000E+00 0. -1.
         -4    1    3    3    0  502 -0.18999921338E+02  0.37415846109E+03  0.82714928559E+02  0.38366301675E+03  0.00000000000E+00 0. -1.
        -13    1    1    2    0    0 -0.32184768512E+02 -0.19304011016E+03  0.49044680307E+02  0.20175662389E+03  0.10566000000E+00 0.  1.
<mgrwt>
<rscale>  1 0.60288272E+03</rscale>
<asrwt>0</asrwt>
<pdfrwt beam="1">  1       21 0.20475779E+00 0.87722294E+03</pdfrwt>
<pdfrwt beam="2">  1       -4 0.36298141E-01 0.87722294E+03</pdfrwt>
<totfact> 0.32482499E+01</totfact>
</mgrwt>
</event>
<event>
 6    2  0.2267664E-005  0.1141668E+04  0.7818608E-02  0.9346475E-01
         21   -1    0    0  501  502  0.00000000000E+00  0.00000000000E+00  0.18516718035E+04  0.18516718035E+04  0.00000000000E+00 0. -1.
         -4   -1    0    0    0  501 -0.00000000000E+00 -0.00000000000E+00 -0.40411972321E+03  0.40411972321E+03  0.00000000000E+00 0. -1.
   -9000010    2    1    2    0  502  0.15457732627E+03  0.56476038787E+03  0.10176766233E+04  0.15294022611E+04  0.98008016056E+03 0.  0.
         13    1    3    3    0    0  0.22782734936E+02 -0.27531996740E+03  0.36331496662E+03  0.45641857280E+03  0.10566000000E+00 0. -1.
         -4    1    3    3    0  502  0.13179459134E+03  0.84008035527E+03  0.65436165666E+03  0.10729836883E+04  0.00000000000E+00 0. -1.
        -13    1    1    2    0    0 -0.15457732627E+03 -0.56476038787E+03  0.42987545698E+03  0.72638926561E+03  0.10566000000E+00 0.  1.
<mgrwt>
<rscale>  1 0.96614568E+03</rscale>
<asrwt>0</asrwt>
<pdfrwt beam="1">  1       21 0.28487258E+00 0.11416679E+04</pdfrwt>
<pdfrwt beam="2">  1       -4 0.62172266E-01 0.11416679E+04</pdfrwt>
<totfact> 0.30878133E+00</totfact>
</mgrwt>
</event>
<event>
 6    2  0.2267664E-005  0.1066196E+04  0.7818608E-02  0.9526070E-01
         21   -1    0    0  501  502  0.00000000000E+00  0.00000000000E+00  0.17329031240E+04  0.17329031240E+04  0.00000000000E+00 0. -1.
         -4   -1    0    0    0  501 -0.00000000000E+00 -0.00000000000E+00 -0.39044584169E+03  0.39044584169E+03  0.00000000000E+00 0. -1.
   -9000010    2    1    2    0  502 -0.38007257171E+03 -0.79321908627E+01  0.13771185156E+04  0.17416167406E+04  0.99612016636E+03 0.  0.
         13    1    3    3    0    0 -0.44506156809E+03  0.20214048986E+02  0.92467496172E+02  0.45501500654E+03  0.10566000000E+00 0. -1.
         -4    1    3    3    0  502  0.64988996378E+02 -0.28146239848E+02  0.12846510194E+04  0.12866017341E+04  0.00000000000E+00 0. -1.
        -13    1    1    2    0    0  0.38007257171E+03  0.79321908627E+01 -0.34661233240E+02  0.38173222509E+03  0.10566000000E+00 0.  1.
<mgrwt>
<rscale>  1 0.82388766E+03</rscale>
<asrwt>0</asrwt>
<pdfrwt beam="1">  1       21 0.26660048E+00 0.10661958E+04</pdfrwt>
<pdfrwt beam="2">  1       -4 0.60068592E-01 0.10661958E+04</pdfrwt>
<totfact> 0.43860539E+00</totfact>
</mgrwt>
</event>
<event>
 6    2  0.2267664E-005  0.1015412E+04  0.7818608E-02  0.9513458E-01
         21   -1    0    0  501  502  0.00000000000E+00  0.00000000000E+00  0.73288513934E+03  0.73288513934E+03  0.00000000000E+00 0. -1.
         -4   -1    0    0    0  501 -0.00000000000E+00 -0.00000000000E+00 -0.74790359831E+03  0.74790359831E+03  0.00000000000E+00 0. -1.
   -9000010    2    1    2    0  502 -0.30376882687E+03 -0.34525227924E+03 -0.69075415645E+02  0.10177587146E+04  0.90531030683E+03 0.  0.
         13    1    3    3    0    0 -0.56997283855E+03 -0.21925052437E+03  0.17497950407E+03  0.63526188862E+03  0.10566000000E+00 0. -1.
         -4    1    3    3    0  502  0.26620401168E+03 -0.12600175487E+03 -0.24405491972E+03  0.38249682601E+03  0.00000000000E+00 0. -1.
        -13    1    1    2    0    0  0.30376882687E+03  0.34525227924E+03  0.54056956675E+02  0.46303002303E+03  0.10566000000E+00 0.  1.
<mgrwt>
<rscale>  1 0.83298856E+03</rscale>
<asrwt>0</asrwt>
<pdfrwt beam="1">  1       21 0.11275156E+00 0.10154119E+04</pdfrwt>
<pdfrwt beam="2">  1       -4 0.11506209E+00 0.10154119E+04</pdfrwt>
<totfact> 0.13309537E+01</totfact>
</mgrwt>
</event>
<event>
 6    2  0.2267664E-005  0.1007442E+04  0.7818608E-02  0.9929051E-01
         21   -1    0    0  501  502  0.00000000000E+00  0.00000000000E+00  0.32761925812E+03  0.32761925812E+03  0.00000000000E+00 0. -1.
         -4   -1    0    0    0  501 -0.00000000000E+00 -0.00000000000E+00 -0.12017599126E+04  0.12017599126E+04  0.00000000000E+00 0. -1.
   -9000010    2    1    2    0  502 -0.73930098049E+02  0.91323329826E+02 -0.47594375934E+03  0.11142088582E+04  0.10005664933E+04 0.  0.
         13    1    3    3    0    0  0.18373979437E+03  0.20835119466E+03 -0.70009279146E+03  0.75319350778E+03  0.10566000000E+00 0. -1.
         -4    1    3    3    0  502 -0.25766989242E+03 -0.11702786484E+03  0.22414903211E+03  0.36101535037E+03  0.00000000000E+00 0. -1.
        -13    1    1    2    0    0  0.73930098049E+02 -0.91323329826E+02 -0.39819689512E+03  0.41517031254E+03  0.10566000000E+00 0.  1.
<mgrwt>
<rscale>  1 0.58873785E+03</rscale>
<asrwt>0</asrwt>
<pdfrwt beam="1">  1       21 0.50402963E-01 0.10074418E+04</pdfrwt>
<pdfrwt beam="2">  1       -4 0.18488614E+00 0.10074418E+04</pdfrwt>
<totfact> 0.24556020E+01</totfact>
</mgrwt>
</event>
<event>
 6    2  0.2267664E-005  0.1074880E+04  0.7818608E-02  0.9540386E-01
         21   -1    0    0  501  502  0.00000000000E+00  0.00000000000E+00  0.14690534503E+04  0.14690534503E+04  0.00000000000E+00 0. -1.
         -4   -1    0    0    0  501 -0.00000000000E+00 -0.00000000000E+00 -0.78541180310E+03  0.78541180310E+03  0.00000000000E+00 0. -1.
   -9000010    2    1    2    0  502 -0.12029526589E+03  0.33188615433E+03  0.12114013297E+04  0.16195245757E+04  0.10152572577E+04 0.  0.
         13    1    3    3    0    0 -0.28604872937E+03 -0.44511551685E+01  0.12112351426E+04  0.12445618788E+04  0.10566000000E+00 0. -1.
         -4    1    3    3    0  502  0.16575346349E+03  0.33633730950E+03  0.16618707738E+00  0.37496269686E+03  0.00000000000E+00 0. -1.
        -13    1    1    2    0    0  0.12029526589E+03 -0.33188615433E+03 -0.52775968255E+03  0.63494067764E+03  0.10566000000E+00 0.  1.
<mgrwt>
<rscale>  1 0.81370716E+03</rscale>
<asrwt>0</asrwt>
<pdfrwt beam="1">  1       21 0.22600822E+00 0.10748798E+04</pdfrwt>
<pdfrwt beam="2">  1       -4 0.12083259E+00 0.10748798E+04</pdfrwt>
<totfact> 0.15564048E+00</totfact>
</mgrwt>
</event>
<event>
 6    2  0.2267664E-005  0.1044167E+04  0.7818608E-02  0.9635533E-01
         -4   -1    0    0    0  501 -0.00000000000E+00  0.00000000000E+00  0.32992000598E+03  0.32992000598E+03  0.00000000000E+00 0. -1.
         21   -1    0    0  501  502  0.00000000000E+00 -0.00000000000E+00 -0.16103950598E+04  0.16103950598E+04  0.00000000000E+00 0. -1.
   -9000010    2    1    2    0  502 -0.52634169550E+02  0.27272427269E+03 -0.59753282553E+03  0.12030505386E+04  0.10065466885E+04 0.  0.
         13    1    3    3    0    0  0.53183116817E+02  0.43339542396E+03  0.12593124288E+03  0.45444331498E+03  0.10566000000E+00 0. -1.
         -4    1    3    3    0  502 -0.10581728637E+03 -0.16067115128E+03 -0.72346406841E+03  0.74860722360E+03  0.00000000000E+00 0. -1.
        -13    1    1    2    0    0  0.52634169550E+02 -0.27272427269E+03 -0.68294222832E+03  0.73726452722E+03  0.10566000000E+00 0.  1.
<mgrwt>
<rscale>  1 0.74988351E+03</rscale>
<asrwt>0</asrwt>
<pdfrwt beam="2">  1       21 0.24775309E+00 0.10441672E+04</pdfrwt>
<pdfrwt beam="1">  1       -4 0.50756924E-01 0.10441672E+04</pdfrwt>
<totfact> 0.83176109E+00</totfact>
</mgrwt>
</event>
<event>
 6    2  0.2267664E-005  0.1056456E+04  0.7818608E-02  0.9617614E-01
         -4   -1    0    0    0  501 -0.00000000000E+00  0.00000000000E+00  0.97306998437E+03  0.97306998437E+03  0.00000000000E+00 0. -1.
         21   -1    0    0  501  502  0.00000000000E+00 -0.00000000000E+00 -0.48083121741E+03  0.48083121741E+03  0.00000000000E+00 0. -1.
   -9000010    2    1    2    0  502 -0.66554340468E+02  0.27717407873E+03  0.26454920629E+03  0.10890759047E+04  0.10172733623E+04 0.  0.
         13    1    3    3    0    0 -0.33555048566E+03  0.56292184114E+03  0.97488112279E+02  0.66255495686E+03  0.10566000000E+00 0. -1.
         -4    1    3    3    0  502  0.26899614520E+03 -0.28574776241E+03  0.16706109401E+03  0.42652094788E+03  0.00000000000E+00 0. -1.
        -13    1    1    2    0    0  0.66554340468E+02 -0.27717407873E+03  0.22768956067E+03  0.36482529704E+03  0.10566000000E+00 0.  1.
<mgrwt>
<rscale>  1 0.76141233E+03</rscale>
<asrwt>0</asrwt>
<pdfrwt beam="2">  1       21 0.73974034E-01 0.10564564E+04</pdfrwt>
<pdfrwt beam="1">  1       -4 0.14970307E+00 0.10564564E+04</pdfrwt>
<totfact> 0.18700431E+01</totfact>
</mgrwt>
</event>
<event>
 6    2  0.2267664E-005  0.1069621E+04  0.7818608E-02  0.9520784E-01
         21   -1    0    0  501  502  0.00000000000E+00  0.00000000000E+00  0.74426101371E+03  0.74426101371E+03  0.00000000000E+00 0. -1.
         -4   -1    0    0    0  501 -0.00000000000E+00 -0.00000000000E+00 -0.90107506545E+03  0.90107506545E+03  0.00000000000E+00 0. -1.
   -9000010    2    1    2    0  502  0.10582549726E+03 -0.36861869877E+03  0.23708066063E+03  0.10955799182E+04  0.99850354856E+03 0.  0.
         13    1    3    3    0    0  0.25162233030E+03  0.43962623482E+02 -0.30570470471E+03  0.39837405415E+03  0.10566000000E+00 0. -1.
         -4    1    3    3    0  502 -0.14579683304E+03 -0.41258132225E+03  0.54278536534E+03  0.69720586402E+03  0.00000000000E+00 0. -1.
        -13    1    1    2    0    0 -0.10582549726E+03  0.36861869877E+03 -0.39389471236E+03  0.54975616099E+03  0.10566000000E+00 0.  1.
<mgrwt>
<rscale>  1 0.82768686E+03</rscale>
<asrwt>0</asrwt>
<pdfrwt beam="1">  1       21 0.11450170E+00 0.10696205E+04</pdfrwt>
<pdfrwt beam="2">  1       -4 0.13862693E+00 0.10696205E+04</pdfrwt>
<totfact> 0.79069411E+00</totfact>
</mgrwt>
</event>
<event>
 6    2  0.2267664E-005  0.1019181E+04  0.7818608E-02  0.9858054E-01
         21   -1    0    0  501  502  0.00000000000E+00  0.00000000000E+00  0.72937010616E+03  0.72937010616E+03  0.00000000000E+00 0. -1.
         -4   -1    0    0    0  501 -0.00000000000E+00 -0.00000000000E+00 -0.55274710924E+03  0.55274710924E+03  0.00000000000E+00 0. -1.
   -9000010    2    1    2    0  502  0.14225065243E+03  0.10598019226E+02  0.33132935339E+03  0.10716851978E+04  0.10091493728E+04 0.  0.
         13    1    3    3    0    0 -0.16962313080E+03  0.51280242362E+02  0.61996924397E+03  0.64479728938E+03  0.10566000000E+00 0. -1.
         -4    1    3    3    0  502  0.31187378323E+03 -0.40682223136E+02 -0.28863989058E+03  0.42688790845E+03  0.00000000000E+00 0. -1.
        -13    1    1    2    0    0 -0.14225065243E+03 -0.10598019226E+02 -0.15470635647E+03  0.21043201758E+03  0.10566000000E+00 0.  1.
<mgrwt>
<rscale>  1 0.62337961E+03</rscale>
<asrwt>0</asrwt>
<pdfrwt beam="1">  1       21 0.11221078E+00 0.10191811E+04</pdfrwt>
<pdfrwt beam="2">  1       -4 0.85038017E-01 0.10191811E+04</pdfrwt>
<totfact> 0.27872866E+01</totfact>
</mgrwt>
</event>
<event>
 6    2  0.2267664E-005  0.9968905E+03  0.7818608E-02  0.9998835E-01
         -4   -1    0    0    0  501 -0.00000000000E+00  0.00000000000E+00  0.75640277583E+03  0.75640277583E+03  0.00000000000E+00 0. -1.
         21   -1    0    0  501  502  0.00000000000E+00 -0.00000000000E+00 -0.52640391330E+03  0.52640391330E+03  0.00000000000E+00 0. -1.
   -9000010    2    1    2    0  502 -0.74442515815E+02  0.62448505284E+02 -0.38124883728E+02  0.99761927980E+03  0.99214374800E+03 0.  0.
         13    1    3    3    0    0 -0.43285022259E+03  0.72126681809E+02  0.27812695156E+03  0.51953458573E+03  0.10566000000E+00 0. -1.
         -4    1    3    3    0  502  0.35840770677E+03 -0.96781765256E+01 -0.31625183529E+03  0.47808469407E+03  0.00000000000E+00 0. -1.
        -13    1    1    2    0    0  0.74442515815E+02 -0.62448505284E+02  0.26812374625E+03  0.28518740933E+03  0.10566000000E+00 0.  1.
<mgrwt>
<rscale>  1 0.55701362E+03</rscale>
<asrwt>0</asrwt>
<pdfrwt beam="2">  1       21 0.80985217E-01 0.99689053E+03</pdfrwt>
<pdfrwt beam="1">  1       -4 0.11636966E+00 0.99689053E+03</pdfrwt>
<totfact> 0.29188332E+01</totfact>
</mgrwt>
</event>
<event>
 6    2  0.2267664E-005  0.1104464E+04  0.7818608E-02  0.9422322E-01
         -4   -1    0    0    0  501 -0.00000000000E+00  0.00000000000E+00  0.36481853408E+03  0.36481853408E+03  0.00000000000E+00 0. -1.
         21   -1    0    0  501  502  0.00000000000E+00 -0.00000000000E+00 -0.20562452801E+04  0.20562452801E+04  0.00000000000E+00 0. -1.
   -9000010    2    1    2    0  502 -0.45981814728E+03  0.17687634879E+03 -0.15595939055E+04  0.19110658923E+04  0.98849467535E+03 0.  0.
         13    1    3    3    0    0  0.15375612413E+03 -0.27783345306E+03 -0.64972707295E+03  0.72317193933E+03  0.10566000000E+00 0. -1.
         -4    1    3    3    0  502 -0.61357427141E+03  0.45470980186E+03 -0.90986683254E+03  0.11878939529E+04  0.00000000000E+00 0. -1.
        -13    1    1    2    0    0  0.45981814728E+03 -0.17687634879E+03 -0.13183284050E+03  0.50999792189E+03  0.10566000000E+00 0.  1.
<mgrwt>
<rscale>  1 0.90261237E+03</rscale>
<asrwt>0</asrwt>
<pdfrwt beam="2">  1       21 0.31634543E+00 0.11044635E+04</pdfrwt>
<pdfrwt beam="1">  1       -4 0.56125928E-01 0.11044635E+04</pdfrwt>
<totfact> 0.24682742E+00</totfact>
</mgrwt>
</event>
<event>
 6    2  0.2267664E-005  0.1016328E+04  0.7818608E-02  0.9959372E-01
         21   -1    0    0  501  502  0.00000000000E+00  0.00000000000E+00  0.18470476707E+03  0.18470476707E+03  0.00000000000E+00 0. -1.
         -4   -1    0    0    0  501 -0.00000000000E+00 -0.00000000000E+00 -0.17121523933E+04  0.17121523933E+04  0.00000000000E+00 0. -1.
   -9000010    2    1    2    0  502 -0.10386956613E+03 -0.24332144045E+01 -0.13313711286E+04  0.16749544533E+04  0.10110037247E+04 0.  0.
         13    1    3    3    0    0  0.53405194123E+02 -0.49561738183E+03 -0.63704389419E+03  0.80889655594E+03  0.10566000000E+00 0. -1.
         -4    1    3    3    0  502 -0.15727476025E+03  0.49318416742E+03 -0.69432723441E+03  0.86605789741E+03  0.00000000000E+00 0. -1.
        -13    1    1    2    0    0  0.10386956613E+03  0.24332144045E+01 -0.19607649768E+03  0.22190270707E+03  0.10566000000E+00 0.  1.
<mgrwt>
<rscale>  1 0.57468181E+03</rscale>
<asrwt>0</asrwt>
<pdfrwt beam="1">  1       21 0.28416118E-01 0.10163284E+04</pdfrwt>
<pdfrwt beam="2">  1       -4 0.26340806E+00 0.10163284E+04</pdfrwt>
<totfact> 0.25406814E+01</totfact>
</mgrwt>
</event>
<event>
 6    2  0.2267664E-005  0.1009221E+04  0.7818608E-02  0.9736177E-01
         -4   -1    0    0    0  501 -0.00000000000E+00  0.00000000000E+00  0.15418656977E+04  0.15418656977E+04  0.00000000000E+00 0. -1.
         21   -1    0    0  501  502  0.00000000000E+00 -0.00000000000E+00 -0.25480583585E+03  0.25480583585E+03  0.00000000000E+00 0. -1.
   -9000010    2    1    2    0  502 -0.14265416288E+03  0.16653177859E+03  0.90204660624E+03  0.13535933670E+04  0.98511110034E+03 0.  0.
         13    1    3    3    0    0 -0.48382849221E+02 -0.28820075207E+03  0.83464490032E+03  0.88432612445E+03  0.10566000000E+00 0. -1.
         -4    1    3    3    0  502 -0.94271313662E+02  0.45473253065E+03  0.67401705917E+02  0.46926724260E+03  0.00000000000E+00 0. -1.
        -13    1    1    2    0    0  0.14265416288E+03 -0.16653177859E+03  0.38501325561E+03  0.44307816650E+03  0.10566000000E+00 0.  1.
<mgrwt>
<rscale>  1 0.68903090E+03</rscale>
<asrwt>0</asrwt>
<pdfrwt beam="2">  1       21 0.39200899E-01 0.10092209E+04</pdfrwt>
<pdfrwt beam="1">  1       -4 0.23721010E+00 0.10092209E+04</pdfrwt>
<totfact> 0.19134595E+01</totfact>
</mgrwt>
</event>
<event>
 6    2  0.2267664E-005  0.1003749E+04  0.7818608E-02  0.9834062E-01
         21   -1    0    0  501  502  0.00000000000E+00  0.00000000000E+00  0.60291184860E+03  0.60291184860E+03  0.00000000000E+00 0. -1.
         -4   -1    0    0    0  501 -0.00000000000E+00 -0.00000000000E+00 -0.56321961331E+03  0.56321961331E+03  0.00000000000E+00 0. -1.
   -9000010    2    1    2    0  502  0.13625513522E+03  0.86600242240E+02  0.42701459789E+02  0.10046566019E+04  0.99067977125E+03 0.  0.
         13    1    3    3    0    0 -0.39841974243E+03  0.15946397755E+03  0.14975012192E+03  0.45452410439E+03  0.10566000000E+00 0. -1.
         -4    1    3    3    0  502  0.53467487765E+03 -0.72863735306E+02 -0.10704866213E+03  0.55013249747E+03  0.00000000000E+00 0. -1.
        -13    1    1    2    0    0 -0.13625513522E+03 -0.86600242240E+02 -0.30092245006E+01  0.16147486004E+03  0.10566000000E+00 0.  1.
<mgrwt>
<rscale>  1 0.63566181E+03</rscale>
<asrwt>0</asrwt>
<pdfrwt beam="1">  1       21 0.92755669E-01 0.10037487E+04</pdfrwt>
<pdfrwt beam="2">  1       -4 0.86649171E-01 0.10037487E+04</pdfrwt>
<totfact> 0.42934016E+01</totfact>
</mgrwt>
</event>
<event>
 6    2  0.2267664E-005  0.9973113E+03  0.7818608E-02  0.1000283E+00
         -4   -1    0    0    0  501 -0.00000000000E+00  0.00000000000E+00  0.10468732635E+04  0.10468732635E+04  0.00000000000E+00 0. -1.
         21   -1    0    0  501  502  0.00000000000E+00 -0.00000000000E+00 -0.29798044976E+03  0.29798044976E+03  0.00000000000E+00 0. -1.
   -9000010    2    1    2    0  502  0.31663057270E+02  0.90449128362E+02  0.75187228041E+03  0.12489762790E+04  0.99269644175E+03 0.  0.
         13    1    3    3    0    0 -0.20650890304E+03  0.96070826278E+02  0.92618400248E+03  0.95377793448E+03  0.10566000000E+00 0. -1.
         -4    1    3    3    0  502  0.23817196031E+03 -0.56216979163E+01 -0.17431172207E+03  0.29519834453E+03  0.00000000000E+00 0. -1.
        -13    1    1    2    0    0 -0.31663057270E+02 -0.90449128362E+02 -0.29794666509E+01  0.95877434272E+02  0.10566000000E+00 0.  1.
<mgrwt>
<rscale>  1 0.55526431E+03</rscale>
<asrwt>0</asrwt>
<pdfrwt beam="2">  1       21 0.45843147E-01 0.99731130E+03</pdfrwt>
<pdfrwt beam="1">  1       -4 0.16105742E+00 0.99731130E+03</pdfrwt>
<totfact> 0.44587566E+01</totfact>
</mgrwt>
</event>
<event>
 6    2  0.2267664E-005  0.1061844E+04  0.7818608E-02  0.9530515E-01
         21   -1    0    0  501  502  0.00000000000E+00  0.00000000000E+00  0.32218749115E+03  0.32218749115E+03  0.00000000000E+00 0. -1.
         -4   -1    0    0    0  501 -0.00000000000E+00 -0.00000000000E+00 -0.16922385076E+04  0.16922385076E+04  0.00000000000E+00 0. -1.
   -9000010    2    1    2    0  502  0.28464542857E+03  0.25015169254E+03 -0.79812368768E+03  0.13283503689E+04  0.99192459013E+03 0.  0.
         13    1    3    3    0    0  0.11256786125E+03 -0.34221453980E+03 -0.56261023813E+03  0.66806631845E+03  0.10566000000E+00 0. -1.
         -4    1    3    3    0  502  0.17207756732E+03  0.59236623234E+03 -0.23551344956E+03  0.66028405048E+03  0.00000000000E+00 0. -1.
        -13    1    1    2    0    0 -0.28464542857E+03 -0.25015169254E+03 -0.57192732880E+03  0.68607562985E+03  0.10566000000E+00 0.  1.
<mgrwt>
<rscale>  1 0.82070960E+03</rscale>
<asrwt>0</asrwt>
<pdfrwt beam="1">  1       21 0.49567307E-01 0.10618443E+04</pdfrwt>
<pdfrwt beam="2">  1       -4 0.26034438E+00 0.10618443E+04</pdfrwt>
<totfact> 0.83022106E+00</totfact>
</mgrwt>
</event>
<event>
 6    2  0.2267664E-005  0.9992828E+03  0.7818608E-02  0.9827442E-01
         -4   -1    0    0    0  501 -0.00000000000E+00  0.00000000000E+00  0.84663083631E+03  0.84663083631E+03  0.00000000000E+00 0. -1.
         21   -1    0    0  501  502  0.00000000000E+00 -0.00000000000E+00 -0.40627266610E+03  0.40627266610E+03  0.00000000000E+00 0. -1.
   -9000010    2    1    2    0  502 -0.68063773165E+02 -0.15271286730E+03  0.32912384623E+03  0.10520877086E+04  0.98519649986E+03 0.  0.
         13    1    3    3    0    0  0.39495616182E+02  0.40173835658E+03  0.26679052593E+03  0.48387065083E+03  0.10566000000E+00 0. -1.
         -4    1    3    3    0  502 -0.10755938935E+03 -0.55445122388E+03  0.62333320306E+02  0.56821705775E+03  0.00000000000E+00 0. -1.
        -13    1    1    2    0    0  0.68063773165E+02  0.15271286730E+03  0.11123432397E+03  0.20081579383E+03  0.10566000000E+00 0.  1.
<mgrwt>
<rscale>  1 0.63910412E+03</rscale>
<asrwt>0</asrwt>
<pdfrwt beam="2">  1       21 0.62503488E-01 0.99928276E+03</pdfrwt>
<pdfrwt beam="1">  1       -4 0.13025090E+00 0.99928276E+03</pdfrwt>
<totfact> 0.39791597E+01</totfact>
</mgrwt>
</event>
<event>
 6    2  0.2267664E-005  0.1042826E+04  0.7818608E-02  0.9615874E-01
         21   -1    0    0  501  502  0.00000000000E+00  0.00000000000E+00  0.76783507046E+03  0.76783507046E+03  0.00000000000E+00 0. -1.
         -4   -1    0    0    0  501 -0.00000000000E+00 -0.00000000000E+00 -0.97039010291E+03  0.97039010291E+03  0.00000000000E+00 0. -1.
   -9000010    2    1    2    0  502 -0.11581949444E+03  0.27472597325E+03  0.35862085062E+03  0.11027671507E+04  0.99929873337E+03 0.  0.
         13    1    3    3    0    0 -0.45823121971E+03  0.11063672557E+03 -0.12520260935E+03  0.48774177626E+03  0.10566000000E+00 0. -1.
         -4    1    3    3    0  502  0.34241172526E+03  0.16408924768E+03  0.48382345997E+03  0.61502537445E+03  0.00000000000E+00 0. -1.
        -13    1    1    2    0    0  0.11581949444E+03 -0.27472597325E+03 -0.56117588307E+03  0.63545802267E+03  0.10566000000E+00 0.  1.
<mgrwt>
<rscale>  1 0.76254357E+03</rscale>
<asrwt>0</asrwt>
<pdfrwt beam="1">  1       21 0.11812847E+00 0.10428262E+04</pdfrwt>
<pdfrwt beam="2">  1       -4 0.14929078E+00 0.10428262E+04</pdfrwt>
<totfact> 0.60139189E+00</totfact>
</mgrwt>
</event>
<event>
 6    2  0.2267664E-005  0.1048881E+04  0.7818608E-02  0.9783354E-01
         -4   -1    0    0    0  501 -0.00000000000E+00  0.00000000000E+00  0.15669751246E+04  0.15669751246E+04  0.00000000000E+00 0. -1.
         21   -1    0    0  501  502  0.00000000000E+00 -0.00000000000E+00 -0.27874797427E+03  0.27874797427E+03  0.00000000000E+00 0. -1.
   -9000010    2    1    2    0  502 -0.15099146851E+03  0.71531735782E+02  0.76984759250E+03  0.13010832271E+04  0.10354887906E+04 0.  0.
         13    1    3    3    0    0  0.30551044158E+02 -0.27016700681E+03 -0.14473937441E+03  0.30801473266E+03  0.10566000000E+00 0. -1.
         -4    1    3    3    0  502 -0.18154251267E+03  0.34169874260E+03  0.91458696691E+03  0.99306849443E+03  0.00000000000E+00 0. -1.
        -13    1    1    2    0    0  0.15099146851E+03 -0.71531735782E+02  0.51837955786E+03  0.54463987180E+03  0.10566000000E+00 0.  1.
<mgrwt>
<rscale>  1 0.66263586E+03</rscale>
<asrwt>0</asrwt>
<pdfrwt beam="2">  1       21 0.42884305E-01 0.10488814E+04</pdfrwt>
<pdfrwt beam="1">  1       -4 0.24107309E+00 0.10488814E+04</pdfrwt>
<totfact> 0.14922599E+01</totfact>
</mgrwt>
</event>
<event>
 6    2  0.2267664E-005  0.1084306E+04  0.7818608E-02  0.9474910E-01
         21   -1    0    0  501  502  0.00000000000E+00  0.00000000000E+00  0.15820500873E+04  0.15820500873E+04  0.00000000000E+00 0.  1.
         -4   -1    0    0    0  501 -0.00000000000E+00 -0.00000000000E+00 -0.38704246696E+03  0.38704246696E+03  0.00000000000E+00 0. -1.
   -9000010    2    1    2    0  502  0.12251728959E+03  0.41453993185E+03  0.10597093620E+04  0.15161472251E+04  0.99441673105E+03 0.  0.
         13    1    3    3    0    0 -0.77361541598E+02 -0.20447311860E+03  0.77649430244E+03  0.80668300914E+03  0.10566000000E+00 0. -1.
         -4    1    3    3    0  502  0.19987883119E+03  0.61901305045E+03  0.28321505952E+03  0.70946421596E+03  0.00000000000E+00 0. -1.
        -13    1    1    2    0    0 -0.12251728959E+03 -0.41453993185E+03  0.13529825843E+03  0.45294532920E+03  0.10566000000E+00 0.  1.
<mgrwt>
<rscale>  1 0.86159171E+03</rscale>
<asrwt>0</asrwt>
<pdfrwt beam="1">  1       21 0.24339232E+00 0.10843055E+04</pdfrwt>
<pdfrwt beam="2">  1       -4 0.59544996E-01 0.10843055E+04</pdfrwt>
<totfact> 0.62588125E+00</totfact>
</mgrwt>
</event>
<event>
 6    2  0.2267664E-005  0.1027168E+04  0.7818608E-02  0.9479522E-01
         -4   -1    0    0    0  501 -0.00000000000E+00  0.00000000000E+00  0.64498358210E+03  0.64498358210E+03  0.00000000000E+00 0. -1.
         21   -1    0    0  501  502  0.00000000000E+00 -0.00000000000E+00 -0.94949305106E+03  0.94949305106E+03  0.00000000000E+00 0. -1.
   -9000010    2    1    2    0  502  0.49598492480E+03  0.65636605809E+02 -0.38600362296E+02  0.10278931231E+04  0.89708699410E+03 0.  0.
         13    1    3    3    0    0  0.20323514915E+03  0.32373217057E+03  0.31952875037E+03  0.49820244639E+03  0.10566000000E+00 0. -1.
         -4    1    3    3    0  502  0.29274977565E+03 -0.25809556476E+03 -0.35812911267E+03  0.52969067675E+03  0.00000000000E+00 0. -1.
        -13    1    1    2    0    0 -0.49598492480E+03 -0.65636605809E+02 -0.26590910667E+03  0.56658351002E+03  0.10566000000E+00 0.  1.
<mgrwt>
<rscale>  1 0.85810573E+03</rscale>
<asrwt>0</asrwt>
<pdfrwt beam="2">  1       21 0.14607585E+00 0.10271681E+04</pdfrwt>
<pdfrwt beam="1">  1       -4 0.99228244E-01 0.10271681E+04</pdfrwt>
<totfact> 0.96138757E+00</totfact>
</mgrwt>
</event>
<event>
 6    2  0.2267664E-005  0.1117596E+04  0.7818608E-02  0.9379945E-01
         -4   -1    0    0    0  501 -0.00000000000E+00  0.00000000000E+00  0.10991349594E+04  0.10991349594E+04  0.00000000000E+00 0. -1.
         21   -1    0    0  501  502  0.00000000000E+00 -0.00000000000E+00 -0.75742276396E+03  0.75742276396E+03  0.00000000000E+00 0. -1.
   -9000010    2    1    2    0  502 -0.24265071154E+03  0.49721368535E+03 -0.13567981796E+03  0.11258019760E+04  0.97104081245E+03 0.  0.
         13    1    3    3    0    0 -0.17635460008E+03  0.71024035598E+03  0.16618359474E+03  0.75043940898E+03  0.10566000000E+00 0. -1.
         -4    1    3    3    0  502 -0.66296111461E+02 -0.21302667063E+03 -0.30186341269E+03  0.37536256702E+03  0.00000000000E+00 0. -1.
        -13    1    1    2    0    0  0.24265071154E+03 -0.49721368535E+03  0.47739201343E+03  0.73075574740E+03  0.10566000000E+00 0.  1.
<mgrwt>
<rscale>  1 0.93744700E+03</rscale>
<asrwt>0</asrwt>
<pdfrwt beam="2">  1       21 0.11652658E+00 0.11175961E+04</pdfrwt>
<pdfrwt beam="1">  1       -4 0.16909769E+00 0.11175961E+04</pdfrwt>
<totfact> 0.43827789E+00</totfact>
</mgrwt>
</event>
<event>
 6    2  0.2267664E-005  0.1055179E+04  0.7818608E-02  0.9546282E-01
         -4   -1    0    0    0  501 -0.00000000000E+00  0.00000000000E+00  0.87761122044E+03  0.87761122044E+03  0.00000000000E+00 0. -1.
         21   -1    0    0  501  502  0.00000000000E+00 -0.00000000000E+00 -0.83853720336E+03  0.83853720336E+03  0.00000000000E+00 0.  1.
   -9000010    2    1    2    0  502 -0.34921462182E+03 -0.10825760958E+03  0.46648810559E+03  0.11536954246E+04  0.98981382990E+03 0.  0.
         13    1    3    3    0    0  0.28762311502E+02 -0.40792634392E+03  0.52755137449E+03  0.66748905348E+03  0.10566000000E+00 0. -1.
         -4    1    3    3    0  502 -0.37797693333E+03  0.29966873434E+03 -0.61063268900E+02  0.48620637107E+03  0.00000000000E+00 0. -1.
        -13    1    1    2    0    0  0.34921462182E+03  0.10825760958E+03 -0.42741408851E+03  0.56245299924E+03  0.10566000000E+00 0.  1.
<mgrwt>
<rscale>  1 0.80955997E+03</rscale>
<asrwt>0</asrwt>
<pdfrwt beam="2">  1       21 0.12900572E+00 0.10551786E+04</pdfrwt>
<pdfrwt beam="1">  1       -4 0.13501711E+00 0.10551786E+04</pdfrwt>
<totfact> 0.62154099E+00</totfact>
</mgrwt>
</event>
<event>
 6    2  0.2267664E-005  0.1204945E+04  0.7818608E-02  0.9282455E-01
         21   -1    0    0  501  502  0.00000000000E+00  0.00000000000E+00  0.84205957515E+03  0.84205957515E+03  0.00000000000E+00 0.  1.
         -4   -1    0    0    0  501 -0.00000000000E+00 -0.00000000000E+00 -0.12342388468E+04  0.12342388468E+04  0.00000000000E+00 0. -1.
   -9000010    2    1    2    0  502  0.42597085783E+03 -0.46258923308E+03  0.18941345411E+03  0.12197413135E+04  0.10278382387E+04 0.  0.
         13    1    3    3    0    0  0.43844309958E+03 -0.17259466364E+03  0.57099433922E+03  0.74030791977E+03  0.10566000000E+00 0. -1.
         -4    1    3    3    0  502 -0.12472241752E+02 -0.28999456944E+03 -0.38158088511E+03  0.47943339370E+03  0.00000000000E+00 0. -1.
        -13    1    1    2    0    0 -0.42597085783E+03  0.46258923308E+03 -0.58159272581E+03  0.85655710852E+03  0.10566000000E+00 0.  1.
<mgrwt>
<rscale>  1 0.10241425E+04</rscale>
<asrwt>0</asrwt>
<pdfrwt beam="1">  1       21 0.12954763E+00 0.12049446E+04</pdfrwt>
<pdfrwt beam="2">  1       -4 0.18988290E+00 0.12049446E+04</pdfrwt>
<totfact> 0.23471661E+00</totfact>
</mgrwt>
</event>
<event>
 6    2  0.2267664E-005  0.1073043E+04  0.7818608E-02  0.9513156E-01
         -4   -1    0    0    0  501 -0.00000000000E+00  0.00000000000E+00  0.53715827793E+03  0.53715827793E+03  0.00000000000E+00 0. -1.
         21   -1    0    0  501  502  0.00000000000E+00 -0.00000000000E+00 -0.11512714742E+04  0.11512714742E+04  0.00000000000E+00 0. -1.
   -9000010    2    1    2    0  502  0.14654440152E+03 -0.36151542181E+03 -0.71007456256E+03  0.12867118701E+04  0.99962637536E+03 0.  0.
         13    1    3    3    0    0  0.44300807071E+03  0.81803850861E+02 -0.73820213127E+02  0.45650570178E+03  0.10566000000E+00 0. -1.
         -4    1    3    3    0  502 -0.29646366918E+03 -0.44331927267E+03 -0.63625434943E+03  0.83020616827E+03  0.00000000000E+00 0. -1.
        -13    1    1    2    0    0 -0.14654440152E+03  0.36151542181E+03  0.95961366267E+02  0.40171788211E+03  0.10566000000E+00 0.  1.
<mgrwt>
<rscale>  1 0.83320821E+03</rscale>
<asrwt>0</asrwt>
<pdfrwt beam="2">  1       21 0.17711869E+00 0.10730431E+04</pdfrwt>
<pdfrwt beam="1">  1       -4 0.82639736E-01 0.10730431E+04</pdfrwt>
<totfact> 0.84650223E+00</totfact>
</mgrwt>
</event>
<event>
 6    2  0.2267664E-005  0.1056573E+04  0.7818608E-02  0.9558074E-01
         21   -1    0    0  501  502  0.00000000000E+00  0.00000000000E+00  0.18262145795E+03  0.18262145795E+03  0.00000000000E+00 0. -1.
         -4   -1    0    0    0  501 -0.00000000000E+00 -0.00000000000E+00 -0.27552445469E+04  0.27552445469E+04  0.00000000000E+00 0. -1.
   -9000010    2    1    2    0  502  0.34895169105E+03  0.21357033867E+02 -0.17529245545E+04  0.20467267879E+04  0.99705699169E+03 0.  0.
         13    1    3    3    0    0 -0.65100086851E+02  0.45295596681E+03 -0.71890618416E+03  0.85219319521E+03  0.10566000000E+00 0. -1.
         -4    1    3    3    0  502  0.41405177790E+03 -0.43159893294E+03 -0.10340183704E+04  0.11945335926E+04  0.00000000000E+00 0. -1.
        -13    1    1    2    0    0 -0.34895169105E+03 -0.21357033867E+02 -0.81969853443E+03  0.89113921701E+03  0.10566000000E+00 0.  1.
<mgrwt>
<rscale>  1 0.80134377E+03</rscale>
<asrwt>0</asrwt>
<pdfrwt beam="1">  1       21 0.28095611E-01 0.10565728E+04</pdfrwt>
<pdfrwt beam="2">  1       -4 0.42388374E+00 0.10565728E+04</pdfrwt>
<totfact> 0.23332780E+00</totfact>
</mgrwt>
</event>
<event>
 6    2  0.2267664E-005  0.1011247E+04  0.7818608E-02  0.9749837E-01
         21   -1    0    0  501  502  0.00000000000E+00  0.00000000000E+00  0.11121457253E+04  0.11121457253E+04  0.00000000000E+00 0. -1.
         -4   -1    0    0    0  501 -0.00000000000E+00 -0.00000000000E+00 -0.33432626817E+03  0.33432626817E+03  0.00000000000E+00 0. -1.
   -9000010    2    1    2    0  502 -0.15812228662E+03 -0.13557854428E+03  0.64349923917E+03  0.11986290365E+04  0.98956358923E+03 0.  0.
         13    1    3    3    0    0 -0.24422615532E+03 -0.42339643094E+03  0.73668216426E+03  0.88408799051E+03  0.10566000000E+00 0. -1.
         -4    1    3    3    0  502  0.86103868700E+02  0.28781788665E+03 -0.93182925083E+02  0.31454104599E+03  0.00000000000E+00 0. -1.
        -13    1    1    2    0    0  0.15812228662E+03  0.13557854428E+03  0.13432021792E+03  0.24784295694E+03  0.10566000000E+00 0.  1.
<mgrwt>
<rscale>  1 0.68125456E+03</rscale>
<asrwt>0</asrwt>
<pdfrwt beam="1">  1       21 0.17109934E+00 0.10112469E+04</pdfrwt>
<pdfrwt beam="2">  1       -4 0.51434811E-01 0.10112469E+04</pdfrwt>
<totfact> 0.26987168E+01</totfact>
</mgrwt>
</event>
<event>
 6    2  0.2267664E-005  0.1024644E+04  0.7818608E-02  0.9832190E-01
         -4   -1    0    0    0  501 -0.00000000000E+00  0.00000000000E+00  0.12949326337E+04  0.12949326337E+04  0.00000000000E+00 0. -1.
         21   -1    0    0  501  502  0.00000000000E+00 -0.00000000000E+00 -0.27548590305E+03  0.27548590305E+03  0.00000000000E+00 0. -1.
   -9000010    2    1    2    0  502  0.28579054348E+02  0.15000149621E+03  0.78567185971E+03  0.12911911873E+04  0.10132014607E+04 0.  0.
         13    1    3    3    0    0 -0.35939826243E+03  0.39586990112E+03  0.57714258293E+03  0.78674879208E+03  0.10566000000E+00 0. -1.
         -4    1    3    3    0  502  0.38797731678E+03 -0.24586840490E+03  0.20852927679E+03  0.50444239527E+03  0.00000000000E+00 0. -1.
        -13    1    1    2    0    0 -0.28579054348E+02 -0.15000149621E+03  0.23377487098E+03  0.27922734945E+03  0.10566000000E+00 0.  1.
<mgrwt>
<rscale>  1 0.63663309E+03</rscale>
<asrwt>0</asrwt>
<pdfrwt beam="2">  1       21 0.42382447E-01 0.10246436E+04</pdfrwt>
<pdfrwt beam="1">  1       -4 0.19922040E+00 0.10246436E+04</pdfrwt>
<totfact> 0.28420225E+01</totfact>
</mgrwt>
</event>
<event>
 6    2  0.2267664E-005  0.1018176E+04  0.7818608E-02  0.9774645E-01
         -4   -1    0    0    0  501 -0.00000000000E+00  0.00000000000E+00  0.11307708324E+04  0.11307708324E+04  0.00000000000E+00 0. -1.
         21   -1    0    0  501  502  0.00000000000E+00 -0.00000000000E+00 -0.33969319244E+03  0.33969319244E+03  0.00000000000E+00 0. -1.
   -9000010    2    1    2    0  502 -0.45842976426E+02  0.18230213448E+03  0.52745853367E+03  0.11466883446E+04  0.10006727778E+04 0.  0.
         13    1    3    3    0    0 -0.16559918096E+03  0.24800220784E+03 -0.23025784725E+03  0.37675837245E+03  0.10566000000E+00 0. -1.
         -4    1    3    3    0  502  0.11975620453E+03 -0.65700073356E+02  0.75771638092E+03  0.76992997219E+03  0.00000000000E+00 0. -1.
        -13    1    1    2    0    0  0.45842976426E+02 -0.18230213448E+03  0.26361910627E+03  0.32377568018E+03  0.10566000000E+00 0.  1.
<mgrwt>
<rscale>  1 0.66741149E+03</rscale>
<asrwt>0</asrwt>
<pdfrwt beam="2">  1       21 0.52260492E-01 0.10181757E+04</pdfrwt>
<pdfrwt beam="1">  1       -4 0.17396474E+00 0.10181757E+04</pdfrwt>
<totfact> 0.27038545E+01</totfact>
</mgrwt>
</event>
<event>
 6    2  0.2267664E-005  0.9971418E+03  0.7818608E-02  0.9952204E-01
         -4   -1    0    0    0  501 -0.00000000000E+00  0.00000000000E+00  0.22131550744E+03  0.22131550744E+03  0.00000000000E+00 0. -1.
         21   -1    0    0  501  502  0.00000000000E+00 -0.00000000000E+00 -0.16475597299E+04  0.16475597299E+04  0.00000000000E+00 0. -1.
   -9000010    2    1    2    0  502 -0.98088343736E+02  0.55188652201E+02 -0.14441073534E+04  0.17549181703E+04  0.99076971379E+03 0.  0.
         13    1    3    3    0    0 -0.87211572351E+02 -0.14392817044E+03 -0.15289661771E+04  0.15381998435E+04  0.10566000000E+00 0. -1.
         -4    1    3    3    0  502 -0.10876771385E+02  0.19911682264E+03  0.84858823703E+02  0.21671832681E+03  0.00000000000E+00 0. -1.
        -13    1    1    2    0    0  0.98088343736E+02 -0.55188652201E+02  0.17863130986E+02  0.11395706701E+03  0.10566000000E+00 0.  1.
<mgrwt>
<rscale>  1 0.57796618E+03</rscale>
<asrwt>0</asrwt>
<pdfrwt beam="2">  1       21 0.25347073E+00 0.99714178E+03</pdfrwt>
<pdfrwt beam="1">  1       -4 0.34048540E-01 0.99714178E+03</pdfrwt>
<totfact> 0.17479052E+01</totfact>
</mgrwt>
</event>
<event>
 6    2  0.2267664E-005  0.1000206E+04  0.7818608E-02  0.9869348E-01
         21   -1    0    0  501  502  0.00000000000E+00  0.00000000000E+00  0.10344222061E+04  0.10344222061E+04  0.00000000000E+00 0. -1.
         -4   -1    0    0    0  501 -0.00000000000E+00 -0.00000000000E+00 -0.31780143666E+03  0.31780143666E+03  0.00000000000E+00 0. -1.
   -9000010    2    1    2    0  502 -0.11798093436E+03  0.85140507196E+02  0.64413372319E+03  0.11896727588E+04  0.98956789198E+03 0.  0.
         13    1    3    3    0    0 -0.11394678217E+03  0.30252225553E+03  0.83811400633E+03  0.89829765837E+03  0.10566000000E+00 0. -1.
         -4    1    3    3    0  502 -0.40341521856E+01 -0.21738174834E+03 -0.19398028315E+03  0.29137510042E+03  0.00000000000E+00 0. -1.
        -13    1    1    2    0    0  0.11798093436E+03 -0.85140507196E+02  0.72487046256E+02  0.16255088396E+03  0.10566000000E+00 0.  1.
<mgrwt>
<rscale>  1 0.61770100E+03</rscale>
<asrwt>0</asrwt>
<pdfrwt beam="1">  1       21 0.15914188E+00 0.10002065E+04</pdfrwt>
<pdfrwt beam="2">  1       -4 0.48892529E-01 0.10002065E+04</pdfrwt>
<totfact> 0.37089588E+01</totfact>
</mgrwt>
</event>
<event>
 6    2  0.2267664E-005  0.1150445E+04  0.7818608E-02  0.9341644E-01
         21   -1    0    0  501  502  0.00000000000E+00  0.00000000000E+00  0.16090303234E+04  0.16090303234E+04  0.00000000000E+00 0. -1.
         -4   -1    0    0    0  501 -0.00000000000E+00 -0.00000000000E+00 -0.49492624464E+03  0.49492624464E+03  0.00000000000E+00 0. -1.
   -9000010    2    1    2    0  502  0.57373487859E+03  0.99653032017E+02  0.96817616075E+03  0.15036254876E+04  0.99218047303E+03 0.  0.
         13    1    3    3    0    0  0.14748056644E+02  0.44675164803E+03  0.60453308499E+03  0.75184094209E+03  0.10566000000E+00 0. -1.
         -4    1    3    3    0  502  0.55898682195E+03 -0.34709861601E+03  0.36364307576E+03  0.75178454553E+03  0.00000000000E+00 0. -1.
        -13    1    1    2    0    0 -0.57373487859E+03 -0.99653032017E+02  0.14592791802E+03  0.60033108042E+03  0.10566000000E+00 0.  1.
<mgrwt>
<rscale>  1 0.97037783E+03</rscale>
<asrwt>0</asrwt>
<pdfrwt beam="1">  1       21 0.24754312E+00 0.11504454E+04</pdfrwt>
<pdfrwt beam="2">  1       -4 0.76142500E-01 0.11504454E+04</pdfrwt>
<totfact> 0.33720750E+00</totfact>
</mgrwt>
</event>
<event>
 6    2  0.2267664E-005  0.1055116E+04  0.7818608E-02  0.9580127E-01
         21   -1    0    0  501  502  0.00000000000E+00  0.00000000000E+00  0.12199575204E+04  0.12199575204E+04  0.00000000000E+00 0. -1.
         -4   -1    0    0    0  501 -0.00000000000E+00 -0.00000000000E+00 -0.66869048507E+03  0.66869048507E+03  0.00000000000E+00 0. -1.
   -9000010    2    1    2    0  502 -0.28643159977E+03 -0.15431023096E+03  0.91787645962E+03  0.13984876339E+04  0.10037010303E+04 0.  0.
         13    1    3    3    0    0 -0.11698948695E+02  0.38529570307E+03  0.13426986559E+03  0.40818874577E+03  0.10566000000E+00 0. -1.
         -4    1    3    3    0  502 -0.27473265107E+03 -0.53960593403E+03  0.78360659403E+03  0.99029888812E+03  0.00000000000E+00 0. -1.
        -13    1    1    2    0    0  0.28643159977E+03  0.15431023096E+03 -0.36660942429E+03  0.49016037158E+03  0.10566000000E+00 0.  1.
<mgrwt>
<rscale>  1 0.78625612E+03</rscale>
<asrwt>0</asrwt>
<pdfrwt beam="1">  1       21 0.18768577E+00 0.10551163E+04</pdfrwt>
<pdfrwt beam="2">  1       -4 0.10287546E+00 0.10551163E+04</pdfrwt>
<totfact> 0.42358766E+00</totfact>
</mgrwt>
</event>
<event>
 6    2  0.2267664E-005  0.1057600E+04  0.7818608E-02  0.9687134E-01
         21   -1    0    0  501  502  0.00000000000E+00  0.00000000000E+00  0.11933410172E+04  0.11933410172E+04  0.00000000000E+00 0. -1.
         -4   -1    0    0    0  501 -0.00000000000E+00 -0.00000000000E+00 -0.47514187549E+03  0.47514187549E+03  0.00000000000E+00 0. -1.
   -9000010    2    1    2    0  502 -0.10530181074E+02  0.22426739345E+03  0.89280964534E+03  0.13840613963E+04  0.10334941400E+04 0.  0.
         13    1    3    3    0    0  0.41168820023E+03  0.40840184371E+03  0.37285565227E+03  0.68942047311E+03  0.10566000000E+00 0. -1.
         -4    1    3    3    0  502 -0.42221838130E+03 -0.18413445027E+03  0.51995399307E+03  0.69464092321E+03  0.00000000000E+00 0. -1.
        -13    1    1    2    0    0  0.10530181074E+02 -0.22426739345E+03 -0.17461050360E+03  0.28442149639E+03  0.10566000000E+00 0.  1.
<mgrwt>
<rscale>  1 0.71788033E+03</rscale>
<asrwt>0</asrwt>
<pdfrwt beam="1">  1       21 0.18359092E+00 0.10575996E+04</pdfrwt>
<pdfrwt beam="2">  1       -4 0.73098750E-01 0.10575996E+04</pdfrwt>
<totfact> 0.10075506E+01</totfact>
</mgrwt>
</event>
<event>
 6    2  0.2267664E-005  0.1033677E+04  0.7818608E-02  0.9672386E-01
         -4   -1    0    0    0  501 -0.00000000000E+00  0.00000000000E+00  0.91516883065E+03  0.91516883065E+03  0.00000000000E+00 0. -1.
         21   -1    0    0  501  502  0.00000000000E+00 -0.00000000000E+00 -0.58341484902E+03  0.58341484902E+03  0.00000000000E+00 0. -1.
   -9000010    2    1    2    0  502 -0.20697248329E+03  0.14500037907E+03 -0.56623325120E+02  0.10352267305E+04  0.10023100637E+04 0.  0.
         13    1    3    3    0    0  0.13850313174E+03 -0.30930758419E+03 -0.26230340552E+03  0.42855266519E+03  0.10566000000E+00 0. -1.
         -4    1    3    3    0  502 -0.34547561503E+03  0.45430796326E+03  0.20568008040E+03  0.60667406532E+03  0.00000000000E+00 0. -1.
        -13    1    1    2    0    0  0.20697248329E+03 -0.14500037907E+03  0.38837730675E+03  0.46335694916E+03  0.10566000000E+00 0.  1.
<mgrwt>
<rscale>  1 0.72684964E+03</rscale>
<asrwt>0</asrwt>
<pdfrwt beam="2">  1       21 0.89756131E-01 0.10336770E+04</pdfrwt>
<pdfrwt beam="1">  1       -4 0.14079520E+00 0.10336770E+04</pdfrwt>
<totfact> 0.13967788E+01</totfact>
</mgrwt>
</event>
<event>
 6    2  0.2267664E-005  0.1056265E+04  0.7818608E-02  0.9833437E-01
         -4   -1    0    0    0  501 -0.00000000000E+00  0.00000000000E+00  0.67508231521E+03  0.67508231521E+03  0.00000000000E+00 0. -1.
         21   -1    0    0  501  502  0.00000000000E+00 -0.00000000000E+00 -0.61484417886E+03  0.61484417886E+03  0.00000000000E+00 0. -1.
   -9000010    2    1    2    0  502 -0.51605854426E+01 -0.13873023651E+03 -0.11929483434E+03  0.10629797847E+04  0.10471017405E+04 0.  0.
         13    1    3    3    0    0 -0.17181557603E+03  0.24200383909E+03 -0.44503826335E+03  0.53492571195E+03  0.10566000000E+00 0. -1.
         -4    1    3    3    0  502  0.16665499059E+03 -0.38073407560E+03  0.32574342901E+03  0.52805407275E+03  0.00000000000E+00 0. -1.
        -13    1    1    2    0    0  0.51605854426E+01  0.13873023651E+03  0.17953297069E+03  0.22694670937E+03  0.10566000000E+00 0.  1.
<mgrwt>
<rscale>  1 0.63598578E+03</rscale>
<asrwt>0</asrwt>
<pdfrwt beam="2">  1       21 0.94591412E-01 0.10562645E+04</pdfrwt>
<pdfrwt beam="1">  1       -4 0.10385882E+00 0.10562645E+04</pdfrwt>
<totfact> 0.26457943E+01</totfact>
</mgrwt>
</event>
<event>
 6    2  0.2267664E-005  0.9993718E+03  0.7818608E-02  0.9927402E-01
         21   -1    0    0  501  502  0.00000000000E+00  0.00000000000E+00  0.64455459775E+03  0.64455459775E+03  0.00000000000E+00 0. -1.
         -4   -1    0    0    0  501 -0.00000000000E+00 -0.00000000000E+00 -0.53883008532E+03  0.53883008532E+03  0.00000000000E+00 0. -1.
   -9000010    2    1    2    0  502 -0.12095811114E+03 -0.33021785028E+01  0.21283610610E+03  0.10217843313E+04  0.99201927530E+03 0.  0.
         13    1    3    3    0    0 -0.37701037434E+03  0.37068743419E+03  0.20897931388E+03  0.56852296437E+03  0.10566000000E+00 0. -1.
         -4    1    3    3    0  502  0.25605226320E+03 -0.37398961269E+03  0.38567922253E+01  0.45326136691E+03  0.00000000000E+00 0. -1.
        -13    1    1    2    0    0  0.12095811114E+03  0.33021785028E+01 -0.10711159367E+03  0.16160035178E+03  0.10566000000E+00 0.  1.
<mgrwt>
<rscale>  1 0.58951459E+03</rscale>
<asrwt>0</asrwt>
<pdfrwt beam="1">  1       21 0.99162246E-01 0.99937181E+03</pdfrwt>
<pdfrwt beam="2">  1       -4 0.82896936E-01 0.99937181E+03</pdfrwt>
<totfact> 0.40418576E+01</totfact>
</mgrwt>
</event>
<event>
 6    2  0.2267664E-005  0.1017088E+04  0.7818608E-02  0.9714003E-01
         21   -1    0    0  501  502  0.00000000000E+00  0.00000000000E+00  0.36809893688E+03  0.36809893688E+03  0.00000000000E+00 0. -1.
         -4   -1    0    0    0  501 -0.00000000000E+00 -0.00000000000E+00 -0.15825129071E+04  0.15825129071E+04  0.00000000000E+00 0. -1.
   -9000010    2    1    2    0  502  0.19909160684E+03  0.11650904970E+03 -0.38139909859E+03  0.10862475608E+04  0.99058400163E+03 0.  0.
         13    1    3    3    0    0 -0.37210861633E+03  0.10316271190E+03 -0.33811632697E+03  0.51325435137E+03  0.10566000000E+00 0. -1.
         -4    1    3    3    0  502  0.57120022318E+03  0.13346337801E+02 -0.43282771618E+02  0.57299320939E+03  0.00000000000E+00 0. -1.
        -13    1    1    2    0    0 -0.19909160684E+03 -0.11650904970E+03 -0.83301487158E+03  0.86436428317E+03  0.10566000000E+00 0.  1.
<mgrwt>
<rscale>  1 0.70189154E+03</rscale>
<asrwt>0</asrwt>
<pdfrwt beam="1">  1       21 0.56630608E-01 0.10170882E+04</pdfrwt>
<pdfrwt beam="2">  1       -4 0.24346352E+00 0.10170882E+04</pdfrwt>
<totfact> 0.79391780E+00</totfact>
</mgrwt>
</event>
<event>
 6    2  0.2267664E-005  0.1025159E+04  0.7818608E-02  0.1004469E+00
         21   -1    0    0  501  502  0.00000000000E+00  0.00000000000E+00  0.20828946815E+03  0.20828946815E+03  0.00000000000E+00 0. -1.
         -4   -1    0    0    0  501 -0.00000000000E+00 -0.00000000000E+00 -0.15612364023E+04  0.15612364023E+04  0.00000000000E+00 0. -1.
   -9000010    2    1    2    0  502  0.76238076513E+02 -0.13215827158E+02 -0.10939833125E+04  0.14992499542E+04  0.10222348237E+04 0.  0.
         13    1    3    3    0    0  0.41355061591E+03 -0.34440067477E+03 -0.45708257955E+03  0.70608811943E+03  0.10566000000E+00 0. -1.
         -4    1    3    3    0  502 -0.33731253940E+03  0.33118484762E+03 -0.63690073297E+03  0.79316183480E+03  0.00000000000E+00 0. -1.
        -13    1    1    2    0    0 -0.76238076513E+02  0.13215827158E+02 -0.25896362159E+03  0.27027591618E+03  0.10566000000E+00 0.  1.
<mgrwt>
<rscale>  1 0.53733334E+03</rscale>
<asrwt>0</asrwt>
<pdfrwt beam="1">  1       21 0.32044534E-01 0.10251590E+04</pdfrwt>
<pdfrwt beam="2">  1       -4 0.24019021E+00 0.10251590E+04</pdfrwt>
<totfact> 0.27723404E+01</totfact>
</mgrwt>
</event>
<event>
 6    2  0.2267664E-005  0.1121453E+04  0.7818608E-02  0.9457663E-01
         -4   -1    0    0    0  501 -0.00000000000E+00  0.00000000000E+00  0.14544214578E+04  0.14544214578E+04  0.00000000000E+00 0. -1.
         21   -1    0    0  501  502  0.00000000000E+00 -0.00000000000E+00 -0.43515939056E+03  0.43515939056E+03  0.00000000000E+00 0. -1.
   -9000010    2    1    2    0  502 -0.23712877914E+03 -0.34082840424E+03  0.50851606556E+03  0.12313593443E+04  0.10417596589E+04 0.  0.
         13    1    3    3    0    0  0.22832826818E+03 -0.31788378104E+03 -0.15464312293E+03  0.42083061074E+03  0.10566000000E+00 0. -1.
         -4    1    3    3    0  502 -0.46545704732E+03 -0.22944623201E+02  0.66315918850E+03  0.81052873356E+03  0.00000000000E+00 0. -1.
        -13    1    1    2    0    0  0.23712877914E+03  0.34082840424E+03  0.51074600171E+03  0.65822150410E+03  0.10566000000E+00 0.  1.
<mgrwt>
<rscale>  1 0.87478465E+03</rscale>
<asrwt>0</asrwt>
<pdfrwt beam="2">  1       21 0.66947599E-01 0.11214532E+04</pdfrwt>
<pdfrwt beam="1">  1       -4 0.22375714E+00 0.11214532E+04</pdfrwt>
<totfact> 0.71672935E+00</totfact>
</mgrwt>
</event>
<event>
 6    2  0.2267664E-005  0.1061951E+04  0.7818608E-02  0.9527623E-01
         21   -1    0    0  501  502  0.00000000000E+00  0.00000000000E+00  0.61862019602E+03  0.61862019602E+03  0.00000000000E+00 0. -1.
         -4   -1    0    0    0  501 -0.00000000000E+00 -0.00000000000E+00 -0.10630698479E+04  0.10630698479E+04  0.00000000000E+00 0. -1.
   -9000010    2    1    2    0  502 -0.23899966800E+03 -0.29884323650E+03  0.41986669175E+02  0.10627809820E+04  0.99061214106E+03 0.  0.
         13    1    3    3    0    0  0.27902484638E+02 -0.59052898402E+03  0.21786809069E+03  0.63005519260E+03  0.10566000000E+00 0. -1.
         -4    1    3    3    0  502 -0.26690215264E+03  0.29168574751E+03 -0.17588142151E+03  0.43272578941E+03  0.00000000000E+00 0. -1.
        -13    1    1    2    0    0  0.23899966800E+03  0.29884323650E+03 -0.48643632106E+03  0.61890906191E+03  0.10566000000E+00 0.  1.
<mgrwt>
<rscale>  1 0.82277580E+03</rscale>
<asrwt>0</asrwt>
<pdfrwt beam="1">  1       21 0.95172340E-01 0.10619513E+04</pdfrwt>
<pdfrwt beam="2">  1       -4 0.16354920E+00 0.10619513E+04</pdfrwt>
<totfact> 0.80548908E+00</totfact>
</mgrwt>
</event>
<event>
 6    2  0.2267664E-005  0.1020580E+04  0.7818608E-02  0.9777298E-01
         21   -1    0    0  501  502  0.00000000000E+00  0.00000000000E+00  0.32334655725E+03  0.32334655725E+03  0.00000000000E+00 0. -1.
         -4   -1    0    0    0  501 -0.00000000000E+00 -0.00000000000E+00 -0.12885140626E+04  0.12885140626E+04  0.00000000000E+00 0. -1.
   -9000010    2    1    2    0  502 -0.14332724499E+03  0.11701173551E+03 -0.55461797532E+03  0.11615436502E+04  0.10036673290E+04 0.  0.
         13    1    3    3    0    0  0.21925157139E+03  0.11103553630E+03  0.20485020610E+03  0.31994336996E+03  0.10566000000E+00 0. -1.
         -4    1    3    3    0  502 -0.36257881638E+03  0.59761992103E+01 -0.75946818142E+03  0.84160028020E+03  0.00000000000E+00 0. -1.
        -13    1    1    2    0    0  0.14332724499E+03 -0.11701173551E+03 -0.41054953000E+03  0.45031696964E+03  0.10566000000E+00 0.  1.
<mgrwt>
<rscale>  1 0.66595221E+03</rscale>
<asrwt>0</asrwt>
<pdfrwt beam="1">  1       21 0.49745623E-01 0.10205795E+04</pdfrwt>
<pdfrwt beam="2">  1       -4 0.19823294E+00 0.10205795E+04</pdfrwt>
<totfact> 0.20499006E+01</totfact>
</mgrwt>
</event>
<event>
 6    2  0.2267664E-005  0.9986488E+03  0.7818608E-02  0.9838611E-01
         21   -1    0    0  501  502  0.00000000000E+00  0.00000000000E+00  0.57821442397E+03  0.57821442397E+03  0.00000000000E+00 0. -1.
         -4   -1    0    0    0  501 -0.00000000000E+00 -0.00000000000E+00 -0.91573078031E+03  0.91573078031E+03  0.00000000000E+00 0. -1.
   -9000010    2    1    2    0  502 -0.97845872999E+02  0.12851071861E+03  0.12274618969E+03  0.10061640627E+04  0.98550021526E+03 0.  0.
         13    1    3    3    0    0  0.22823525004E+03 -0.21834756264E+02  0.45972958340E+03  0.51373085070E+03  0.10566000000E+00 0. -1.
         -4    1    3    3    0  502 -0.32608112304E+03  0.15034547488E+03 -0.33698339371E+03  0.49243321198E+03  0.00000000000E+00 0. -1.
        -13    1    1    2    0    0  0.97845872999E+02 -0.12851071861E+03 -0.46026254604E+03  0.48778114161E+03  0.10566000000E+00 0.  1.
<mgrwt>
<rscale>  1 0.63331012E+03</rscale>
<asrwt>0</asrwt>
<pdfrwt beam="1">  1       21 0.88956065E-01 0.99864883E+03</pdfrwt>
<pdfrwt beam="2">  1       -4 0.14088166E+00 0.99864883E+03</pdfrwt>
<totfact> 0.14301776E+01</totfact>
</mgrwt>
</event>
<event>
 6    2  0.2267664E-005  0.1003582E+04  0.7818608E-02  0.1014979E+00
         -4   -1    0    0    0  501 -0.00000000000E+00  0.00000000000E+00  0.59914476424E+03  0.59914476424E+03  0.00000000000E+00 0. -1.
         21   -1    0    0  501  502  0.00000000000E+00 -0.00000000000E+00 -0.47877508224E+03  0.47877508224E+03  0.00000000000E+00 0. -1.
   -9000010    2    1    2    0  502  0.56829631372E+02 -0.17970932745E+02  0.14388819610E+03  0.10138441639E+04  0.10018101688E+04 0.  0.
         13    1    3    3    0    0  0.13472665039E+03 -0.49168293825E+03  0.15748568457E+03  0.53357767391E+03  0.10566000000E+00 0. -1.
         -4    1    3    3    0  502 -0.77897019019E+02  0.47371200550E+03 -0.13597488466E+02  0.48026649001E+03  0.00000000000E+00 0. -1.
        -13    1    1    2    0    0 -0.56829631372E+02  0.17970932745E+02 -0.23518514104E+02  0.64075682558E+02  0.10566000000E+00 0.  1.
<mgrwt>
<rscale>  1 0.49543019E+03</rscale>
<asrwt>0</asrwt>
<pdfrwt beam="2">  1       21 0.73657705E-01 0.10035817E+04</pdfrwt>
<pdfrwt beam="1">  1       -4 0.92176118E-01 0.10035817E+04</pdfrwt>
<totfact> 0.64128445E+01</totfact>
</mgrwt>
</event>
<event>
 6    2  0.2267664E-005  0.1016911E+04  0.7818608E-02  0.9830267E-01
         -4   -1    0    0    0  501 -0.00000000000E+00  0.00000000000E+00  0.42864317251E+03  0.42864317251E+03  0.00000000000E+00 0. -1.
         21   -1    0    0  501  502  0.00000000000E+00 -0.00000000000E+00 -0.84162070693E+03  0.84162070693E+03  0.00000000000E+00 0. -1.
   -9000010    2    1    2    0  502  0.42741422562E+01  0.15713433616E+03 -0.25714426709E+03  0.10489191568E+04  0.10046883872E+04 0.  0.
         13    1    3    3    0    0  0.16888959008E+03  0.48377766510E+03  0.11708835493E+03  0.52561793816E+03  0.10566000000E+00 0. -1.
         -4    1    3    3    0  502 -0.16461544783E+03 -0.32664332894E+03 -0.37423262202E+03  0.52330121860E+03  0.00000000000E+00 0. -1.
        -13    1    1    2    0    0 -0.42741422562E+01 -0.15713433616E+03 -0.15583326732E+03  0.22134472269E+03  0.10566000000E+00 0.  1.
<mgrwt>
<rscale>  1 0.63763221E+03</rscale>
<asrwt>0</asrwt>
<pdfrwt beam="2">  1       21 0.12948011E+00 0.10169111E+04</pdfrwt>
<pdfrwt beam="1">  1       -4 0.65945104E-01 0.10169111E+04</pdfrwt>
<totfact> 0.34219890E+01</totfact>
</mgrwt>
</event>
<event>
 6    2  0.2267664E-005  0.1031276E+04  0.7818608E-02  0.9666314E-01
         -4   -1    0    0    0  501 -0.00000000000E+00  0.00000000000E+00  0.97781965720E+03  0.97781965720E+03  0.00000000000E+00 0. -1.
         21   -1    0    0  501  502  0.00000000000E+00 -0.00000000000E+00 -0.11258434091E+04  0.11258434091E+04  0.00000000000E+00 0. -1.
   -9000010    2    1    2    0  502  0.93046658839E+02 -0.24251200142E+03 -0.86188404728E+03  0.13440142763E+04  0.99802831240E+03 0.  0.
         13    1    3    3    0    0  0.47533264660E+03  0.13470954304E+03 -0.40119066538E+03  0.63642890181E+03  0.10566000000E+00 0. -1.
         -4    1    3    3    0  502 -0.38228598776E+03 -0.37722154446E+03 -0.46069338190E+03  0.70758537448E+03  0.00000000000E+00 0. -1.
        -13    1    1    2    0    0 -0.93046658839E+02  0.24251200142E+03  0.71386029542E+03  0.75964878996E+03  0.10566000000E+00 0.  1.
<mgrwt>
<rscale>  1 0.73058347E+03</rscale>
<asrwt>0</asrwt>
<pdfrwt beam="2">  1       21 0.17320668E+00 0.10312760E+04</pdfrwt>
<pdfrwt beam="1">  1       -4 0.15043379E+00 0.10312760E+04</pdfrwt>
<totfact> 0.20566764E+00</totfact>
</mgrwt>
</event>
<event>
 6    2  0.2267664E-005  0.1083800E+04  0.7818608E-02  0.9505607E-01
         21   -1    0    0  501  502  0.00000000000E+00  0.00000000000E+00  0.27454416371E+03  0.27454416371E+03  0.00000000000E+00 0. -1.
         -4   -1    0    0    0  501 -0.00000000000E+00 -0.00000000000E+00 -0.20096166884E+04  0.20096166884E+04  0.00000000000E+00 0. -1.
   -9000010    2    1    2    0  502  0.34321301445E+03  0.18246320623E+03 -0.11362982288E+04  0.15702850482E+04  0.10116983111E+04 0.  0.
         13    1    3    3    0    0  0.33552036273E+03 -0.23244932628E+03 -0.54718035852E+02  0.41182602845E+03  0.10566000000E+00 0. -1.
         -4    1    3    3    0  502  0.76926517136E+01  0.41491253251E+03 -0.10815801930E+04  0.11584590197E+04  0.00000000000E+00 0. -1.
        -13    1    1    2    0    0 -0.34321301445E+03 -0.18246320623E+03 -0.59877429589E+03  0.71387580397E+03  0.10566000000E+00 0.  1.
<mgrwt>
<rscale>  1 0.83871705E+03</rscale>
<asrwt>0</asrwt>
<pdfrwt beam="1">  1       21 0.42237563E-01 0.10837996E+04</pdfrwt>
<pdfrwt beam="2">  1       -4 0.30917180E+00 0.10837996E+04</pdfrwt>
<totfact> 0.58165145E+00</totfact>
</mgrwt>
</event>
<event>
 6    2  0.2267664E-005  0.1039519E+04  0.7818608E-02  0.9662920E-01
         -4   -1    0    0    0  501 -0.00000000000E+00  0.00000000000E+00  0.13170871026E+04  0.13170871026E+04  0.00000000000E+00 0. -1.
         21   -1    0    0  501  502  0.00000000000E+00 -0.00000000000E+00 -0.36438201658E+03  0.36438201658E+03  0.00000000000E+00 0. -1.
   -9000010    2    1    2    0  502  0.15720555588E+03  0.20273536945E+03  0.48295541054E+03  0.11462308679E+04  0.10073649077E+04 0.  0.
         13    1    3    3    0    0  0.13419254241E+03  0.47626380572E+02  0.78932401552E+03  0.80206503677E+03  0.10566000000E+00 0. -1.
         -4    1    3    3    0  502  0.23013013467E+02  0.15510898888E+03 -0.30636860498E+03  0.34416583116E+03  0.00000000000E+00 0. -1.
        -13    1    1    2    0    0 -0.15720555588E+03 -0.20273536945E+03  0.46974967551E+03  0.53523825128E+03  0.10566000000E+00 0.  1.
<mgrwt>
<rscale>  1 0.73268120E+03</rscale>
<asrwt>0</asrwt>
<pdfrwt beam="2">  1       21 0.56058772E-01 0.10395188E+04</pdfrwt>
<pdfrwt beam="1">  1       -4 0.20262878E+00 0.10395188E+04</pdfrwt>
<totfact> 0.14742464E+01</totfact>
</mgrwt>
</event>
<event>
 6    2  0.2267664E-005  0.1021257E+04  0.7818608E-02  0.9935287E-01
         21   -1    0    0  501  502  0.00000000000E+00  0.00000000000E+00  0.24742806061E+03  0.24742806061E+03  0.00000000000E+00 0. -1.
         -4   -1    0    0    0  501 -0.00000000000E+00 -0.00000000000E+00 -0.13103451025E+04  0.13103451025E+04  0.00000000000E+00 0. -1.
   -9000010    2    1    2    0  502 -0.92219158641E+02  0.60998726928E+02 -0.90217814427E+03  0.13626777447E+04  0.10152536698E+04 0.  0.
         13    1    3    3    0    0 -0.31649729678E+03 -0.33085505948E+03 -0.14350604114E+03  0.47982247161E+03  0.10566000000E+00 0. -1.
         -4    1    3    3    0  502  0.22427813814E+03  0.39185378641E+03 -0.75867210313E+03  0.88285527310E+03  0.00000000000E+00 0. -1.
        -13    1    1    2    0    0  0.92219158641E+02 -0.60998726928E+02 -0.16073889757E+03  0.19509541836E+03  0.10566000000E+00 0.  1.
<mgrwt>
<rscale>  1 0.58581207E+03</rscale>
<asrwt>0</asrwt>
<pdfrwt beam="1">  1       21 0.38065855E-01 0.10212567E+04</pdfrwt>
<pdfrwt beam="2">  1       -4 0.20159155E+00 0.10212567E+04</pdfrwt>
<totfact> 0.34342498E+01</totfact>
</mgrwt>
</event>
<event>
 6    2  0.2267664E-005  0.1035682E+04  0.7818608E-02  0.9678629E-01
         21   -1    0    0  501  502  0.00000000000E+00  0.00000000000E+00  0.74766585486E+03  0.74766585486E+03  0.00000000000E+00 0. -1.
         -4   -1    0    0    0  501 -0.00000000000E+00 -0.00000000000E+00 -0.11162143400E+04  0.11162143400E+04  0.00000000000E+00 0. -1.
   -9000010    2    1    2    0  502  0.22554608424E+03 -0.98244819537E+02  0.35878464594E+03  0.10960673431E+04  0.10060388251E+04 0.  0.
         13    1    3    3    0    0  0.61227844740E+03 -0.18192415947E+03  0.24777254587E+03  0.68510768687E+03  0.10566000000E+00 0. -1.
         -4    1    3    3    0  502 -0.38673236316E+03  0.83679339929E+02  0.11101210007E+03  0.41095965618E+03  0.00000000000E+00 0. -1.
        -13    1    1    2    0    0 -0.22554608424E+03  0.98244819537E+02 -0.72733313111E+03  0.76781285184E+03  0.10566000000E+00 0.  1.
<mgrwt>
<rscale>  1 0.72303606E+03</rscale>
<asrwt>0</asrwt>
<pdfrwt beam="1">  1       21 0.11502552E+00 0.10356820E+04</pdfrwt>
<pdfrwt beam="2">  1       -4 0.17172528E+00 0.10356820E+04</pdfrwt>
<totfact> 0.43817456E+00</totfact>
</mgrwt>
</event>
<event>
 6    2  0.2267664E-005  0.1119186E+04  0.7818608E-02  0.9394067E-01
         21   -1    0    0  501  502  0.00000000000E+00  0.00000000000E+00  0.12807696262E+04  0.12807696262E+04  0.00000000000E+00 0. -1.
         -4   -1    0    0    0  501 -0.00000000000E+00 -0.00000000000E+00 -0.52787803135E+03  0.52787803135E+03  0.00000000000E+00 0. -1.
   -9000010    2    1    2    0  502  0.52277204888E+03  0.31326362873E+02  0.47547308235E+03  0.12159985216E+04  0.98909342145E+03 0.  0.
         13    1    3    3    0    0 -0.24535381356E+03  0.21769711756E+03  0.11912491575E+03  0.34897175465E+03  0.10566000000E+00 0. -1.
         -4    1    3    3    0  502  0.76812586244E+03 -0.18637075469E+03  0.35634816660E+03  0.86702676694E+03  0.00000000000E+00 0. -1.
        -13    1    1    2    0    0 -0.52277204888E+03 -0.31326362873E+02  0.27741851245E+03  0.59264913592E+03  0.10566000000E+00 0.  1.
<mgrwt>
<rscale>  1 0.92565573E+03</rscale>
<asrwt>0</asrwt>
<pdfrwt beam="1">  1       21 0.19704148E+00 0.11191862E+04</pdfrwt>
<pdfrwt beam="2">  1       -4 0.81212005E-01 0.11191862E+04</pdfrwt>
<totfact> 0.63174185E+00</totfact>
</mgrwt>
</event>
<event>
 6    2  0.2267664E-005  0.1026091E+04  0.7818608E-02  0.9673584E-01
         -4   -1    0    0    0  501 -0.00000000000E+00  0.00000000000E+00  0.11069240095E+04  0.11069240095E+04  0.00000000000E+00 0. -1.
         21   -1    0    0  501  502  0.00000000000E+00 -0.00000000000E+00 -0.38270069555E+03  0.38270069555E+03  0.00000000000E+00 0. -1.
   -9000010    2    1    2    0  502  0.23209387029E+02  0.25626680476E+03  0.47248734570E+03  0.11296492062E+04  0.99330342113E+03 0.  0.
         13    1    3    3    0    0 -0.14155773275E+03  0.61433516302E+02  0.74237072408E+03  0.75823938948E+03  0.10566000000E+00 0. -1.
         -4    1    3    3    0  502  0.16476711978E+03  0.19483328846E+03 -0.26988337838E+03  0.37140981675E+03  0.00000000000E+00 0. -1.
        -13    1    1    2    0    0 -0.23209387029E+02 -0.25626680476E+03  0.25173596826E+03  0.35997549882E+03  0.10566000000E+00 0.  1.
<mgrwt>
<rscale>  1 0.72611602E+03</rscale>
<asrwt>0</asrwt>
<pdfrwt beam="2">  1       21 0.58877031E-01 0.10260911E+04</pdfrwt>
<pdfrwt beam="1">  1       -4 0.17029600E+00 0.10260911E+04</pdfrwt>
<totfact> 0.22080178E+01</totfact>
</mgrwt>
</event>
<event>
 6    2  0.2267664E-005  0.1009558E+04  0.7818608E-02  0.9948506E-01
         -4   -1    0    0    0  501 -0.00000000000E+00  0.00000000000E+00  0.11400322311E+04  0.11400322311E+04  0.00000000000E+00 0. -1.
         21   -1    0    0  501  502  0.00000000000E+00 -0.00000000000E+00 -0.27537600381E+03  0.27537600381E+03  0.00000000000E+00 0. -1.
   -9000010    2    1    2    0  502 -0.10579919999E+03  0.29109747996E+02  0.79949247241E+03  0.12877870209E+04  0.10035767782E+04 0.  0.
         13    1    3    3    0    0  0.10502643250E+02  0.10204450232E+03 -0.22860401239E+03  0.25056574309E+03  0.10566000000E+00 0. -1.
         -4    1    3    3    0  502 -0.11630184324E+03 -0.72934754319E+02  0.10280964848E+04  0.10372212778E+04  0.00000000000E+00 0. -1.
        -13    1    1    2    0    0  0.10579919999E+03 -0.29109747996E+02  0.65163754887E+02  0.12762121399E+03  0.10566000000E+00 0.  1.
<mgrwt>
<rscale>  1 0.57966979E+03</rscale>
<asrwt>0</asrwt>
<pdfrwt beam="2">  1       21 0.42365540E-01 0.10095579E+04</pdfrwt>
<pdfrwt beam="1">  1       -4 0.17538957E+00 0.10095579E+04</pdfrwt>
<totfact> 0.41459954E+01</totfact>
</mgrwt>
</event>
<event>
 6    2  0.2267664E-005  0.1003950E+04  0.7818608E-02  0.9852945E-01
         21   -1    0    0  501  502  0.00000000000E+00  0.00000000000E+00  0.48719050464E+03  0.48719050464E+03  0.00000000000E+00 0. -1.
         -4   -1    0    0    0  501 -0.00000000000E+00 -0.00000000000E+00 -0.10466896336E+04  0.10466896336E+04  0.00000000000E+00 0. -1.
   -9000010    2    1    2    0  502 -0.73906357489E+02 -0.13251590723E+03 -0.53227907587E+02  0.10053603410E+04  0.99241805188E+03 0.  0.
         13    1    3    3    0    0  0.37875458793E+03 -0.24677290579E+03  0.17619426002E+03  0.48517660015E+03  0.10566000000E+00 0. -1.
         -4    1    3    3    0  502 -0.45266094542E+03  0.11425699856E+03 -0.22942216761E+03  0.52018374082E+03  0.00000000000E+00 0. -1.
        -13    1    1    2    0    0  0.73906357489E+02  0.13251590723E+03 -0.50627122134E+03  0.52851979724E+03  0.10566000000E+00 0.  1.
<mgrwt>
<rscale>  1 0.62597000E+03</rscale>
<asrwt>0</asrwt>
<pdfrwt beam="1">  1       21 0.74952386E-01 0.10039503E+04</pdfrwt>
<pdfrwt beam="2">  1       -4 0.16102917E+00 0.10039503E+04</pdfrwt>
<totfact> 0.14950477E+01</totfact>
</mgrwt>
</event>
<event>
 6    2  0.2267664E-005  0.9872414E+03  0.7818608E-02  0.9874979E-01
         -4   -1    0    0    0  501 -0.00000000000E+00  0.00000000000E+00  0.10761544210E+04  0.10761544210E+04  0.00000000000E+00 0. -1.
         21   -1    0    0  501  502  0.00000000000E+00 -0.00000000000E+00 -0.39770241017E+03  0.39770241017E+03  0.00000000000E+00 0. -1.
   -9000010    2    1    2    0  502  0.30207765274E+02 -0.14546653083E+03  0.24718481250E+03  0.10177160325E+04  0.97599824314E+03 0.  0.
         13    1    3    3    0    0  0.33903621591E+03  0.29206266232E+03  0.15936807158E+03  0.47502036570E+03  0.10566000000E+00 0. -1.
         -4    1    3    3    0  502 -0.30882845064E+03 -0.43752919315E+03  0.87816740914E+02  0.54269566681E+03  0.00000000000E+00 0. -1.
        -13    1    1    2    0    0 -0.30207765274E+02  0.14546653083E+03  0.43126719831E+03  0.45614079863E+03  0.10566000000E+00 0.  1.
<mgrwt>
<rscale>  1 0.61489402E+03</rscale>
<asrwt>0</asrwt>
<pdfrwt beam="2">  1       21 0.61184986E-01 0.98724140E+03</pdfrwt>
<pdfrwt beam="1">  1       -4 0.16556222E+00 0.98724140E+03</pdfrwt>
<totfact> 0.22015028E+01</totfact>
</mgrwt>
</event>
<event>
 6    2  0.2267664E-005  0.1006746E+04  0.7818608E-02  0.9942885E-01
         -4   -1    0    0    0  501 -0.00000000000E+00  0.00000000000E+00  0.29066101923E+03  0.29066101923E+03  0.00000000000E+00 0. -1.
         21   -1    0    0  501  502  0.00000000000E+00 -0.00000000000E+00 -0.16695653230E+04  0.16695653230E+04  0.00000000000E+00 0. -1.
   -9000010    2    1    2    0  502  0.58861251686E+02  0.96052331803E+02 -0.14924606187E+04  0.18002708945E+04  0.10004228596E+04 0.  0.
         13    1    3    3    0    0  0.94444493189E-01  0.27537626999E+03 -0.15716706956E+04  0.15956130124E+04  0.10566000000E+00 0. -1.
         -4    1    3    3    0  502  0.58766807193E+02 -0.17932393818E+03  0.79210076849E+02  0.20465788210E+03  0.00000000000E+00 0. -1.
        -13    1    1    2    0    0 -0.58861251686E+02 -0.96052331803E+02  0.11355631499E+03  0.15995544765E+03  0.10566000000E+00 0.  1.
<mgrwt>
<rscale>  1 0.58227148E+03</rscale>
<asrwt>0</asrwt>
<pdfrwt beam="2">  1       21 0.25685620E+00 0.10067455E+04</pdfrwt>
<pdfrwt beam="1">  1       -4 0.44717081E-01 0.10067455E+04</pdfrwt>
<totfact> 0.95494991E+00</totfact>
</mgrwt>
</event>
<event>
 6    2  0.2267664E-005  0.1061502E+04  0.7818608E-02  0.9560664E-01
         -4   -1    0    0    0  501 -0.00000000000E+00  0.00000000000E+00  0.11440109483E+04  0.11440109483E+04  0.00000000000E+00 0. -1.
         21   -1    0    0  501  502  0.00000000000E+00 -0.00000000000E+00 -0.43029335805E+03  0.43029335805E+03  0.00000000000E+00 0. -1.
   -9000010    2    1    2    0  502  0.19249822453E+03  0.28230082229E+03  0.53499552015E+03  0.11886997029E+04  0.10050061972E+04 0.  0.
         13    1    3    3    0    0  0.39589220359E+03  0.67758382724E+02  0.73094338385E+03  0.83402642455E+03  0.10566000000E+00 0. -1.
         -4    1    3    3    0  502 -0.20339397906E+03  0.21454243956E+03 -0.19594786370E+03  0.35467327836E+03  0.00000000000E+00 0. -1.
        -13    1    1    2    0    0 -0.19249822453E+03 -0.28230082229E+03  0.17872207014E+03  0.38560460349E+03  0.10566000000E+00 0.  1.
<mgrwt>
<rscale>  1 0.79955336E+03</rscale>
<asrwt>0</asrwt>
<pdfrwt beam="2">  1       21 0.66198979E-01 0.10615021E+04</pdfrwt>
<pdfrwt beam="1">  1       -4 0.17600168E+00 0.10615021E+04</pdfrwt>
<totfact> 0.15397448E+01</totfact>
</mgrwt>
</event>
<event>
 6    2  0.2267664E-005  0.1023781E+04  0.7818608E-02  0.9777521E-01
         21   -1    0    0  501  502  0.00000000000E+00  0.00000000000E+00  0.12006472264E+04  0.12006472264E+04  0.00000000000E+00 0. -1.
         -4   -1    0    0    0  501 -0.00000000000E+00 -0.00000000000E+00 -0.40554749568E+03  0.40554749568E+03  0.00000000000E+00 0. -1.
   -9000010    2    1    2    0  502  0.15546237942E+03  0.96845904228E+02  0.92650363272E+03  0.13807736112E+04  0.10072631749E+04 0.  0.
         13    1    3    3    0    0  0.14455371142E+03 -0.44572534546E+03  0.53748995609E+03  0.71306544099E+03  0.10566000000E+00 0. -1.
         -4    1    3    3    0  502  0.10908668000E+02  0.54257124969E+03  0.38901367663E+03  0.66770817026E+03  0.00000000000E+00 0. -1.
        -13    1    1    2    0    0 -0.15546237942E+03 -0.96845904228E+02 -0.13140390201E+03  0.22542111083E+03  0.10566000000E+00 0.  1.
<mgrwt>
<rscale>  1 0.66582947E+03</rscale>
<asrwt>0</asrwt>
<pdfrwt beam="1">  1       21 0.18471496E+00 0.10237806E+04</pdfrwt>
<pdfrwt beam="2">  1       -4 0.62391923E-01 0.10237806E+04</pdfrwt>
<totfact> 0.14129669E+01</totfact>
</mgrwt>
</event>
<event>
 6    2  0.2267664E-005  0.1112416E+04  0.7818608E-02  0.9420158E-01
         21   -1    0    0  501  502  0.00000000000E+00  0.00000000000E+00  0.17903414203E+04  0.17903414203E+04  0.00000000000E+00 0. -1.
         -4   -1    0    0    0  501 -0.00000000000E+00 -0.00000000000E+00 -0.52163609814E+03  0.52163609814E+03  0.00000000000E+00 0. -1.
   -9000010    2    1    2    0  502  0.36696150997E+03 -0.31849329674E+03  0.14192799120E+04  0.18032816878E+04  0.10006850888E+04 0.  0.
         13    1    3    3    0    0  0.70876621715E+03 -0.22112619204E+03  0.81703505792E+03  0.11039894204E+04  0.10566000000E+00 0. -1.
         -4    1    3    3    0  502 -0.34180470718E+03 -0.97367104697E+02  0.60224485408E+03  0.69929226736E+03  0.00000000000E+00 0. -1.
        -13    1    1    2    0    0 -0.36696150997E+03  0.31849329674E+03 -0.15057458983E+03  0.50869583066E+03  0.10566000000E+00 0.  1.
<mgrwt>
<rscale>  1 0.90435123E+03</rscale>
<asrwt>0</asrwt>
<pdfrwt beam="1">  1       21 0.27543714E+00 0.11124160E+04</pdfrwt>
<pdfrwt beam="2">  1       -4 0.80251708E-01 0.11124160E+04</pdfrwt>
<totfact> 0.20024088E+00</totfact>
</mgrwt>
</event>
<event>
 6    2  0.2267664E-005  0.1021781E+04  0.7818608E-02  0.9613238E-01
         -4   -1    0    0    0  501 -0.00000000000E+00  0.00000000000E+00  0.12660811963E+04  0.12660811963E+04  0.00000000000E+00 0. -1.
         21   -1    0    0  501  502  0.00000000000E+00 -0.00000000000E+00 -0.46544446035E+03  0.46544446035E+03  0.00000000000E+00 0. -1.
   -9000010    2    1    2    0  502 -0.42304493916E+02 -0.31700236046E+03  0.18587123793E+03  0.10385488926E+04  0.97044088875E+03 0.  0.
         13    1    3    3    0    0  0.21368074047E+02  0.16767358811E+03 -0.30315442356E+03  0.34709313221E+03  0.10566000000E+00 0. -1.
         -4    1    3    3    0  502 -0.63672567963E+02 -0.48467594856E+03  0.48902566149E+03  0.69145576042E+03  0.00000000000E+00 0. -1.
        -13    1    1    2    0    0  0.42304493916E+02  0.31700236046E+03  0.61476549799E+03  0.69297676398E+03  0.10566000000E+00 0.  1.
<mgrwt>
<rscale>  1 0.76426186E+03</rscale>
<asrwt>0</asrwt>
<pdfrwt beam="2">  1       21 0.71606841E-01 0.10217806E+04</pdfrwt>
<pdfrwt beam="1">  1       -4 0.19478172E+00 0.10217806E+04</pdfrwt>
<totfact> 0.95969327E+00</totfact>
</mgrwt>
</event>
<event>
 6    2  0.2267664E-005  0.1016099E+04  0.7818608E-02  0.9707778E-01
         -4   -1    0    0    0  501 -0.00000000000E+00  0.00000000000E+00  0.59231380685E+03  0.59231380685E+03  0.00000000000E+00 0. -1.
         21   -1    0    0  501  502  0.00000000000E+00 -0.00000000000E+00 -0.67712989659E+03  0.67712989659E+03  0.00000000000E+00 0. -1.
   -9000010    2    1    2    0  502 -0.37575214398E+02 -0.23321282717E+03  0.66837904751E+01  0.10161210658E+04  0.98825969656E+03 0.  0.
         13    1    3    3    0    0 -0.34581278462E+03 -0.27885371437E+03  0.34031635904E+03  0.55960799800E+03  0.10566000000E+00 0. -1.
         -4    1    3    3    0  502  0.30823757022E+03  0.45640887206E+02 -0.33363256857E+03  0.45651306782E+03  0.00000000000E+00 0. -1.
        -13    1    1    2    0    0  0.37575214398E+02  0.23321282717E+03 -0.91499880208E+02  0.25332263763E+03  0.10566000000E+00 0.  1.
<mgrwt>
<rscale>  1 0.70555602E+03</rscale>
<asrwt>0</asrwt>
<pdfrwt beam="2">  1       21 0.10417383E+00 0.10160991E+04</pdfrwt>
<pdfrwt beam="1">  1       -4 0.91125201E-01 0.10160991E+04</pdfrwt>
<totfact> 0.28610505E+01</totfact>
</mgrwt>
</event>
<event>
 6    2  0.2267664E-005  0.1030158E+04  0.7818608E-02  0.9706470E-01
         -4   -1    0    0    0  501 -0.00000000000E+00  0.00000000000E+00  0.41279094298E+03  0.41279094298E+03  0.00000000000E+00 0. -1.
         21   -1    0    0  501  502  0.00000000000E+00 -0.00000000000E+00 -0.11044352758E+04  0.11044352758E+04  0.00000000000E+00 0. -1.
   -9000010    2    1    2    0  502  0.22657922402E+03 -0.22309731361E+02 -0.75925530949E+03  0.12797243784E+04  0.10046840254E+04 0.  0.
         13    1    3    3    0    0 -0.26608887180E+03  0.25310577701E+03 -0.58189375516E+03  0.68808878461E+03  0.10566000000E+00 0. -1.
         -4    1    3    3    0  502  0.49266809581E+03 -0.27541550837E+03 -0.17736155434E+03  0.59163559379E+03  0.00000000000E+00 0. -1.
        -13    1    1    2    0    0 -0.22657922402E+03  0.22309731361E+02  0.67610976650E+02  0.23750184041E+03  0.10566000000E+00 0.  1.
<mgrwt>
<rscale>  1 0.70632852E+03</rscale>
<asrwt>0</asrwt>
<pdfrwt beam="2">  1       21 0.16991312E+00 0.10301582E+04</pdfrwt>
<pdfrwt beam="1">  1       -4 0.63506298E-01 0.10301582E+04</pdfrwt>
<totfact> 0.17429963E+01</totfact>
</mgrwt>
</event>
<event>
 6    2  0.2267664E-005  0.1091806E+04  0.7818608E-02  0.9549153E-01
         -4   -1    0    0    0  501 -0.00000000000E+00  0.00000000000E+00  0.16615573815E+04  0.16615573815E+04  0.00000000000E+00 0. -1.
         21   -1    0    0  501  502  0.00000000000E+00 -0.00000000000E+00 -0.31551490776E+03  0.31551490776E+03  0.00000000000E+00 0. -1.
   -9000010    2    1    2    0  502  0.96458149503E+02 -0.31220754951E+03  0.85271849908E+03  0.13853406915E+04  0.10417592161E+04 0.  0.
         13    1    3    3    0    0  0.52945503497E+03 -0.15052140298E+03  0.71642938991E+03  0.90346577616E+03  0.10566000000E+00 0. -1.
         -4    1    3    3    0  502 -0.43299688546E+03 -0.16168614653E+03  0.13628910917E+03  0.48187491539E+03  0.00000000000E+00 0. -1.
        -13    1    1    2    0    0 -0.96458149503E+02  0.31220754951E+03  0.49332397463E+03  0.59173159767E+03  0.10566000000E+00 0.  1.
<mgrwt>
<rscale>  1 0.80754950E+03</rscale>
<asrwt>0</asrwt>
<pdfrwt beam="2">  1       21 0.48540756E-01 0.10918058E+04</pdfrwt>
<pdfrwt beam="1">  1       -4 0.25562421E+00 0.10918058E+04</pdfrwt>
<totfact> 0.92572252E+00</totfact>
</mgrwt>
</event>
<event>
 6    2  0.2267664E-005  0.1000334E+04  0.7818608E-02  0.9873854E-01
         -4   -1    0    0    0  501 -0.00000000000E+00  0.00000000000E+00  0.15346710355E+04  0.15346710355E+04  0.00000000000E+00 0. -1.
         21   -1    0    0  501  502  0.00000000000E+00 -0.00000000000E+00 -0.22765674997E+03  0.22765674997E+03  0.00000000000E+00 0. -1.
   -9000010    2    1    2    0  502 -0.12682585420E+03  0.66778755442E+02  0.95820108082E+03  0.13852139268E+04  0.99001217780E+03 0.  0.
         13    1    3    3    0    0 -0.52248787047E+03 -0.58069882956E+02  0.76331175923E+03  0.92682821442E+03  0.10566000000E+00 0. -1.
         -4    1    3    3    0  502  0.39566201627E+03  0.12484863840E+03  0.19488932158E+03  0.45838571236E+03  0.00000000000E+00 0. -1.
        -13    1    1    2    0    0  0.12682585420E+03 -0.66778755442E+02  0.34881320472E+03  0.37711385870E+03  0.10566000000E+00 0.  1.
<mgrwt>
<rscale>  1 0.61545313E+03</rscale>
<asrwt>0</asrwt>
<pdfrwt beam="2">  1       21 0.35024116E-01 0.10003341E+04</pdfrwt>
<pdfrwt beam="1">  1       -4 0.23610323E+00 0.10003341E+04</pdfrwt>
<totfact> 0.24574494E+01</totfact>
</mgrwt>
</event>
<event>
 6    2  0.2267664E-005  0.1030684E+04  0.7818608E-02  0.9686121E-01
         21   -1    0    0  501  502  0.00000000000E+00  0.00000000000E+00  0.62575940341E+03  0.62575940341E+03  0.00000000000E+00 0. -1.
         -4   -1    0    0    0  501 -0.00000000000E+00 -0.00000000000E+00 -0.11774158155E+04  0.11774158155E+04  0.00000000000E+00 0. -1.
   -9000010    2    1    2    0  502 -0.20089154744E+03  0.13741667027E+03  0.16726685228E+03  0.10441683505E+04  0.10015331194E+04 0.  0.
         13    1    3    3    0    0  0.21936960697E+03  0.29239034376E+02  0.46698143431E+03  0.51676843629E+03  0.10566000000E+00 0. -1.
         -4    1    3    3    0  502 -0.42026115442E+03  0.10817763590E+03 -0.29971458203E+03  0.52739991420E+03  0.00000000000E+00 0. -1.
        -13    1    1    2    0    0  0.20089154744E+03 -0.13741667027E+03 -0.71892326437E+03  0.75900686843E+03  0.10566000000E+00 0.  1.
<mgrwt>
<rscale>  1 0.71849162E+03</rscale>
<asrwt>0</asrwt>
<pdfrwt beam="1">  1       21 0.96270679E-01 0.10306839E+04</pdfrwt>
<pdfrwt beam="2">  1       -4 0.18114089E+00 0.10306839E+04</pdfrwt>
<totfact> 0.58820248E+00</totfact>
</mgrwt>
</event>
<event>
 6    2  0.2267664E-005  0.9993331E+03  0.7818608E-02  0.9907712E-01
         -4   -1    0    0    0  501 -0.00000000000E+00  0.00000000000E+00  0.27046919439E+03  0.27046919439E+03  0.00000000000E+00 0. -1.
         21   -1    0    0  501  502  0.00000000000E+00 -0.00000000000E+00 -0.12369827598E+04  0.12369827598E+04  0.00000000000E+00 0. -1.
   -9000010    2    1    2    0  502  0.40437385803E+02  0.12239403844E+03 -0.94759104895E+03  0.13771693551E+04  0.99098494129E+03 0.  0.
         13    1    3    3    0    0 -0.27180704103E+03 -0.14359271378E+03  0.37892309667E+02  0.30973177638E+03  0.10566000000E+00 0. -1.
         -4    1    3    3    0  502  0.31224442683E+03  0.26598675222E+03 -0.98548335862E+03  0.10674375788E+04  0.00000000000E+00 0. -1.
        -13    1    1    2    0    0 -0.40437385803E+02 -0.12239403844E+03 -0.18922516434E+02  0.13028259902E+03  0.10566000000E+00 0.  1.
<mgrwt>
<rscale>  1 0.59888972E+03</rscale>
<asrwt>0</asrwt>
<pdfrwt beam="2">  1       21 0.19030504E+00 0.99933310E+03</pdfrwt>
<pdfrwt beam="1">  1       -4 0.41610645E-01 0.99933310E+03</pdfrwt>
<totfact> 0.30521435E+01</totfact>
</mgrwt>
</event>
<event>
 6    2  0.2267664E-005  0.1405075E+04  0.7818608E-02  0.9044500E-01
         -4   -1    0    0    0  501 -0.00000000000E+00  0.00000000000E+00  0.82285439356E+03  0.82285439356E+03  0.00000000000E+00 0. -1.
         21   -1    0    0  501  502  0.00000000000E+00 -0.00000000000E+00 -0.18374091677E+04  0.18374091677E+04  0.00000000000E+00 0. -1.
   -9000010    2    1    2    0  502  0.90065977885E+03 -0.36481740167E+03 -0.92973699591E+03  0.16848283556E+04  0.10148674458E+04 0.  0.
         13    1    3    3    0    0  0.81391540967E+03 -0.62455527558E+03 -0.42476305433E+03  0.11103833797E+04  0.10566000000E+00 0. -1.
         -4    1    3    3    0  502  0.86744369174E+02  0.25973787391E+03 -0.50497394159E+03  0.57444497596E+03  0.00000000000E+00 0. -1.
        -13    1    1    2    0    0 -0.90065977885E+03  0.36481740167E+03 -0.84817778274E+02  0.97543520568E+03  0.10566000000E+00 0.  1.
<mgrwt>
<rscale>  1 0.12813336E+04</rscale>
<asrwt>0</asrwt>
<pdfrwt beam="2">  1       21 0.28267833E+00 0.14050750E+04</pdfrwt>
<pdfrwt beam="1">  1       -4 0.12659298E+00 0.14050750E+04</pdfrwt>
<totfact> 0.57010595E-01</totfact>
</mgrwt>
</event>
<event>
 6    2  0.2267664E-005  0.9988308E+03  0.7818608E-02  0.9814281E-01
         21   -1    0    0  501  502  0.00000000000E+00  0.00000000000E+00  0.72830212914E+03  0.72830212914E+03  0.00000000000E+00 0. -1.
         -4   -1    0    0    0  501 -0.00000000000E+00 -0.00000000000E+00 -0.48591432102E+03  0.48591432102E+03  0.00000000000E+00 0. -1.
   -9000010    2    1    2    0  502 -0.11319826329E+03  0.13317505494E+03  0.27592934597E+03  0.10362431713E+04  0.98341927172E+03 0.  0.
         13    1    3    3    0    0 -0.42381516540E+03  0.38776635398E+03  0.52952897776E+02  0.57687612210E+03  0.10566000000E+00 0. -1.
         -4    1    3    3    0  502  0.31061690211E+03 -0.25459129904E+03  0.22297644819E+03  0.45936704918E+03  0.00000000000E+00 0. -1.
        -13    1    1    2    0    0  0.11319826329E+03 -0.13317505494E+03 -0.33541537849E+02  0.17797327888E+03  0.10566000000E+00 0.  1.
<mgrwt>
<rscale>  1 0.64601762E+03</rscale>
<asrwt>0</asrwt>
<pdfrwt beam="1">  1       21 0.11204648E+00 0.99883077E+03</pdfrwt>
<pdfrwt beam="2">  1       -4 0.74756049E-01 0.99883077E+03</pdfrwt>
<totfact> 0.37682581E+01</totfact>
</mgrwt>
</event>
<event>
 6    2  0.2267664E-005  0.1000845E+04  0.7818608E-02  0.9958817E-01
         21   -1    0    0  501  502  0.00000000000E+00  0.00000000000E+00  0.33111322449E+03  0.33111322449E+03  0.00000000000E+00 0. -1.
         -4   -1    0    0    0  501 -0.00000000000E+00 -0.00000000000E+00 -0.93050653975E+03  0.93050653975E+03  0.00000000000E+00 0. -1.
   -9000010    2    1    2    0  502  0.10586461963E+03 -0.25900473259E+02 -0.53154692412E+03  0.11332402637E+04  0.99489356745E+03 0.  0.
         13    1    3    3    0    0  0.13206404227E+03 -0.12110125034E+03 -0.81427991202E+03  0.83376148291E+03  0.10566000000E+00 0. -1.
         -4    1    3    3    0  502 -0.26199422644E+02  0.95200777083E+02  0.28273298790E+03  0.29947878080E+03  0.00000000000E+00 0. -1.
        -13    1    1    2    0    0 -0.10586461963E+03  0.25900473259E+02 -0.67846391136E+02  0.12837950054E+03  0.10566000000E+00 0.  1.
<mgrwt>
<rscale>  1 0.57493518E+03</rscale>
<asrwt>0</asrwt>
<pdfrwt beam="1">  1       21 0.50940496E-01 0.10008453E+04</pdfrwt>
<pdfrwt beam="2">  1       -4 0.14315485E+00 0.10008453E+04</pdfrwt>
<totfact> 0.48835010E+01</totfact>
</mgrwt>
</event>
<event>
 6    2  0.2267664E-005  0.1023761E+04  0.7818608E-02  0.9794920E-01
         21   -1    0    0  501  502  0.00000000000E+00  0.00000000000E+00  0.60715493384E+03  0.60715493384E+03  0.00000000000E+00 0. -1.
         -4   -1    0    0    0  501 -0.00000000000E+00 -0.00000000000E+00 -0.59408525208E+03  0.59408525208E+03  0.00000000000E+00 0. -1.
   -9000010    2    1    2    0  502 -0.16599787813E+03 -0.48610398104E+02 -0.25269806974E+02  0.10240730504E+04  0.10090434991E+04 0.  0.
         13    1    3    3    0    0 -0.30316953895E+03 -0.69341152839E+02 -0.46699555671E+03  0.56107470623E+03  0.10566000000E+00 0. -1.
         -4    1    3    3    0  502  0.13717166081E+03  0.20730754735E+02  0.44172574973E+03  0.46299834416E+03  0.00000000000E+00 0. -1.
        -13    1    1    2    0    0  0.16599787813E+03  0.48610398104E+02  0.38339488731E+02  0.17716713552E+03  0.10566000000E+00 0.  1.
<mgrwt>
<rscale>  1 0.65635853E+03</rscale>
<asrwt>0</asrwt>
<pdfrwt beam="1">  1       21 0.93408452E-01 0.10237612E+04</pdfrwt>
<pdfrwt beam="2">  1       -4 0.91397731E-01 0.10237612E+04</pdfrwt>
<totfact> 0.37175071E+01</totfact>
</mgrwt>
</event>
<event>
 6    2  0.2267664E-005  0.9796600E+03  0.7818608E-02  0.9774938E-01
         -4   -1    0    0    0  501 -0.00000000000E+00  0.00000000000E+00  0.12763577236E+04  0.12763577236E+04  0.00000000000E+00 0. -1.
         21   -1    0    0  501  502  0.00000000000E+00 -0.00000000000E+00 -0.29159141912E+03  0.29159141912E+03  0.00000000000E+00 0. -1.
   -9000010    2    1    2    0  502  0.45530409162E+02  0.20585352144E+03  0.66175996740E+03  0.11822267096E+04  0.95670530886E+03 0.  0.
         13    1    3    3    0    0  0.21778094930E+03  0.36136030174E+03 -0.58093113559E+02  0.42589274537E+03  0.10566000000E+00 0. -1.
         -4    1    3    3    0  502 -0.17225054014E+03 -0.15550678030E+03  0.71985308096E+03  0.75633396424E+03  0.00000000000E+00 0. -1.
        -13    1    1    2    0    0 -0.45530409162E+02 -0.20585352144E+03  0.32300633705E+03  0.38572243309E+03  0.10566000000E+00 0.  1.
<mgrwt>
<rscale>  1 0.66725052E+03</rscale>
<asrwt>0</asrwt>
<pdfrwt beam="2">  1       21 0.44860219E-01 0.97966001E+03</pdfrwt>
<pdfrwt beam="1">  1       -4 0.19636272E+00 0.97966001E+03</pdfrwt>
<totfact> 0.26437691E+01</totfact>
</mgrwt>
</event>
<event>
 6    2  0.2267664E-005  0.1003727E+04  0.7818608E-02  0.9878618E-01
         21   -1    0    0  501  502  0.00000000000E+00  0.00000000000E+00  0.92534583620E+03  0.92534583620E+03  0.00000000000E+00 0. -1.
         -4   -1    0    0    0  501 -0.00000000000E+00 -0.00000000000E+00 -0.10192534090E+04  0.10192534090E+04  0.00000000000E+00 0. -1.
   -9000010    2    1    2    0  502  0.10125547778E+03 -0.96269313810E+02  0.64466924677E+03  0.11929236622E+04  0.99395572007E+03 0.  0.
         13    1    3    3    0    0  0.30460841427E+03 -0.38910405348E+03  0.67339166327E+03  0.83525121599E+03  0.10566000000E+00 0. -1.
         -4    1    3    3    0  502 -0.20335293649E+03  0.29283473967E+03 -0.28722416509E+02  0.35767244617E+03  0.00000000000E+00 0. -1.
        -13    1    1    2    0    0 -0.10125547778E+03  0.96269313810E+02 -0.73857681954E+03  0.75167558301E+03  0.10566000000E+00 0.  1.
<mgrwt>
<rscale>  1 0.61308834E+03</rscale>
<asrwt>0</asrwt>
<pdfrwt beam="1">  1       21 0.14236090E+00 0.10037273E+04</pdfrwt>
<pdfrwt beam="2">  1       -4 0.15680822E+00 0.10037273E+04</pdfrwt>
<totfact> 0.32217845E+00</totfact>
</mgrwt>
</event>
<event>
 6    2  0.2267664E-005  0.1116866E+04  0.7818608E-02  0.9418995E-01
         21   -1    0    0  501  502  0.00000000000E+00  0.00000000000E+00  0.21422829802E+04  0.21422829802E+04  0.00000000000E+00 0. -1.
         -4   -1    0    0    0  501 -0.00000000000E+00 -0.00000000000E+00 -0.29838932475E+03  0.29838932475E+03  0.00000000000E+00 0. -1.
   -9000010    2    1    2    0  502 -0.46216491889E+03 -0.13722614708E+03  0.12774923605E+04  0.16968726910E+04  0.10074536071E+04 0.  0.
         13    1    3    3    0    0 -0.25746566723E+03  0.42069665450E+03  0.77489637130E+03  0.91855247119E+03  0.10566000000E+00 0. -1.
         -4    1    3    3    0  502 -0.20469925166E+03 -0.55792280158E+03  0.50259598920E+03  0.77832021978E+03  0.00000000000E+00 0. -1.
        -13    1    1    2    0    0  0.46216491889E+03  0.13722614708E+03  0.56640129499E+03  0.74379961403E+03  0.10566000000E+00 0.  1.
<mgrwt>
<rscale>  1 0.90528818E+03</rscale>
<asrwt>0</asrwt>
<pdfrwt beam="1">  1       21 0.32958199E+00 0.11168662E+04</pdfrwt>
<pdfrwt beam="2">  1       -4 0.45906051E-01 0.11168662E+04</pdfrwt>
<totfact> 0.31163339E+00</totfact>
</mgrwt>
</event>
<event>
 6    2  0.2267664E-005  0.9373228E+03  0.7818608E-02  0.1053751E+00
         21   -1    0    0  501  502  0.00000000000E+00  0.00000000000E+00  0.25285940200E+03  0.25285940200E+03  0.00000000000E+00 0. -1.
         -4   -1    0    0    0  501 -0.00000000000E+00 -0.00000000000E+00 -0.91328501795E+03  0.91328501795E+03  0.00000000000E+00 0. -1.
   -9000010    2    1    2    0  502  0.60199034449E+01 -0.22584105060E+02 -0.63879642123E+03  0.11342992591E+04  0.93703130175E+03 0.  0.
         13    1    3    3    0    0 -0.38520273956E+03 -0.27286297487E+03 -0.29800458441E+03  0.55824913535E+03  0.10566000000E+00 0. -1.
         -4    1    3    3    0  502  0.39122264300E+03  0.25027886981E+03 -0.34079183682E+03  0.57605012379E+03  0.00000000000E+00 0. -1.
        -13    1    1    2    0    0 -0.60199034449E+01  0.22584105060E+02 -0.21629194724E+02  0.31845160814E+02  0.10566000000E+00 0.  1.
<mgrwt>
<rscale>  1 0.37247317E+03</rscale>
<asrwt>0</asrwt>
<pdfrwt beam="1">  1       21 0.38901447E-01 0.93732275E+03</pdfrwt>
<pdfrwt beam="2">  1       -4 0.14050539E+00 0.93732275E+03</pdfrwt>
<totfact> 0.91429278E+01</totfact>
</mgrwt>
</event>
<event>
 6    2  0.2267664E-005  0.1002168E+04  0.7818608E-02  0.9725786E-01
         -4   -1    0    0    0  501 -0.00000000000E+00  0.00000000000E+00  0.73476786073E+03  0.73476786073E+03  0.00000000000E+00 0. -1.
         21   -1    0    0  501  502  0.00000000000E+00 -0.00000000000E+00 -0.72220785827E+03  0.72220785827E+03  0.00000000000E+00 0. -1.
   -9000010    2    1    2    0  502  0.10542008257E+03  0.20647451246E+03 -0.31961599762E+03  0.10519003874E+04  0.97498457469E+03 0.  0.
         13    1    3    3    0    0 -0.32671461990E+03  0.31466373210E+03 -0.39331042521E+03  0.60037389092E+03  0.10566000000E+00 0. -1.
         -4    1    3    3    0  502  0.43213470247E+03 -0.10818921964E+03  0.73694427595E+02  0.45152649644E+03  0.00000000000E+00 0. -1.
        -13    1    1    2    0    0 -0.10542008257E+03 -0.20647451246E+03  0.33217600008E+03  0.40507533163E+03  0.10566000000E+00 0.  1.
<mgrwt>
<rscale>  1 0.69502061E+03</rscale>
<asrwt>0</asrwt>
<pdfrwt beam="2">  1       21 0.11110890E+00 0.10021677E+04</pdfrwt>
<pdfrwt beam="1">  1       -4 0.11304121E+00 0.10021677E+04</pdfrwt>
<totfact> 0.14455635E+01</totfact>
</mgrwt>
</event>
<event>
 6    2  0.2267664E-005  0.1017458E+04  0.7818608E-02  0.9735436E-01
         21   -1    0    0  501  502  0.00000000000E+00  0.00000000000E+00  0.28794473673E+03  0.28794473673E+03  0.00000000000E+00 0. -1.
         -4   -1    0    0    0  501 -0.00000000000E+00 -0.00000000000E+00 -0.13954637611E+04  0.13954637611E+04  0.00000000000E+00 0. -1.
   -9000010    2    1    2    0  502 -0.87264243036E+02  0.19597342691E+03 -0.74087875425E+03  0.12586194549E+04  0.99458582914E+03 0.  0.
         13    1    3    3    0    0  0.15387468526E+03 -0.19767453341E+03  0.12304567657E+03  0.27909297664E+03  0.10566000000E+00 0. -1.
         -4    1    3    3    0  502 -0.24113892829E+03  0.39364796032E+03 -0.86392443083E+03  0.97952647824E+03  0.00000000000E+00 0. -1.
        -13    1    1    2    0    0  0.87264243036E+02 -0.19597342691E+03 -0.36664027009E+03  0.42478904292E+03  0.10566000000E+00 0.  1.
<mgrwt>
<rscale>  1 0.68945604E+03</rscale>
<asrwt>0</asrwt>
<pdfrwt beam="1">  1       21 0.44299190E-01 0.10174584E+04</pdfrwt>
<pdfrwt beam="2">  1       -4 0.21468673E+00 0.10174584E+04</pdfrwt>
<totfact> 0.20523368E+01</totfact>
</mgrwt>
</event>
<event>
 6    2  0.2267664E-005  0.1028258E+04  0.7818608E-02  0.9716232E-01
         -4   -1    0    0    0  501 -0.00000000000E+00  0.00000000000E+00  0.69550197201E+03  0.69550197201E+03  0.00000000000E+00 0. -1.
         21   -1    0    0  501  502  0.00000000000E+00 -0.00000000000E+00 -0.67577080333E+03  0.67577080333E+03  0.00000000000E+00 0. -1.
   -9000010    2    1    2    0  502  0.22158312866E+03  0.49256709507E+00 -0.21282670976E+03  0.10500524405E+04  0.10040993944E+04 0.  0.
         13    1    3    3    0    0  0.67390811918E+02  0.24975641013E+03  0.33827766776E+03  0.42585393928E+03  0.10566000000E+00 0. -1.
         -4    1    3    3    0  502  0.15419231675E+03 -0.24926384304E+03 -0.55110437752E+03  0.62419850121E+03  0.00000000000E+00 0. -1.
        -13    1    1    2    0    0 -0.22158312866E+03 -0.49256709507E+00  0.23255787844E+03  0.32122033485E+03  0.10566000000E+00 0.  1.
<mgrwt>
<rscale>  1 0.70058541E+03</rscale>
<asrwt>0</asrwt>
<pdfrwt beam="2">  1       21 0.10396474E+00 0.10282582E+04</pdfrwt>
<pdfrwt beam="1">  1       -4 0.10700030E+00 0.10282582E+04</pdfrwt>
<totfact> 0.19517830E+01</totfact>
</mgrwt>
</event>
<event>
 6    2  0.2267664E-005  0.1011356E+04  0.7818608E-02  0.1013440E+00
         -4   -1    0    0    0  501 -0.00000000000E+00  0.00000000000E+00  0.86482886643E+03  0.86482886643E+03  0.00000000000E+00 0. -1.
         21   -1    0    0  501  502  0.00000000000E+00 -0.00000000000E+00 -0.39591761756E+03  0.39591761756E+03  0.00000000000E+00 0. -1.
   -9000010    2    1    2    0  502 -0.24974768291E+02  0.55706349495E+02  0.26161137287E+03  0.10446442254E+04  0.10095118180E+04 0.  0.
         13    1    3    3    0    0  0.10555530481E+03  0.46349085505E+03 -0.98166623634E+02  0.48538890825E+03  0.10566000000E+00 0. -1.
         -4    1    3    3    0  502 -0.13053007310E+03 -0.40778450556E+03  0.35977799651E+03  0.55925531712E+03  0.00000000000E+00 0. -1.
        -13    1    1    2    0    0  0.24974768291E+02 -0.55706349495E+02  0.20729987600E+03  0.21610225861E+03  0.10566000000E+00 0.  1.
<mgrwt>
<rscale>  1 0.50129944E+03</rscale>
<asrwt>0</asrwt>
<pdfrwt beam="2">  1       21 0.60910403E-01 0.10113560E+04</pdfrwt>
<pdfrwt beam="1">  1       -4 0.13305059E+00 0.10113560E+04</pdfrwt>
<totfact> 0.39874198E+01</totfact>
</mgrwt>
</event>
<event>
 6    2  0.2267664E-005  0.8514696E+03  0.7818608E-02  0.1033949E+00
         -4   -1    0    0    0  501 -0.00000000000E+00  0.00000000000E+00  0.21573830551E+03  0.21573830551E+03  0.00000000000E+00 0. -1.
         21   -1    0    0  501  502  0.00000000000E+00 -0.00000000000E+00 -0.10961344280E+04  0.10961344280E+04  0.00000000000E+00 0. -1.
   -9000010    2    1    2    0  502  0.55207856746E+02  0.17802583353E+01 -0.91243753873E+03  0.12480155469E+04  0.84967609500E+03 0.  0.
         13    1    3    3    0    0 -0.21148081102E+03  0.14563522470E+03  0.29569858707E+02  0.25847270613E+03  0.10566000000E+00 0. -1.
         -4    1    3    3    0  502  0.26668866777E+03 -0.14385496637E+03 -0.94200739744E+03  0.98954284075E+03  0.00000000000E+00 0. -1.
        -13    1    1    2    0    0 -0.55207856746E+02 -0.17802583353E+01  0.32041416230E+02  0.63857186630E+02  0.10566000000E+00 0.  1.
<mgrwt>
<rscale>  1 0.42971817E+03</rscale>
<asrwt>0</asrwt>
<pdfrwt beam="2">  1       21 0.16863607E+00 0.85146964E+03</pdfrwt>
<pdfrwt beam="1">  1       -4 0.33190508E-01 0.85146964E+03</pdfrwt>
<totfact> 0.70266431E+01</totfact>
</mgrwt>
</event>
<event>
 6    2  0.2267664E-005  0.1036406E+04  0.7818608E-02  0.1034425E+00
         -4   -1    0    0    0  501 -0.00000000000E+00  0.00000000000E+00  0.43163755589E+03  0.43163755589E+03  0.00000000000E+00 0. -1.
         21   -1    0    0  501  502  0.00000000000E+00 -0.00000000000E+00 -0.68614378530E+03  0.68614378530E+03  0.00000000000E+00 0. -1.
   -9000010    2    1    2    0  502 -0.11047522991E+02  0.28110393072E+02 -0.28498347814E+03  0.10748731157E+04  0.10359654386E+04 0.  0.
         13    1    3    3    0    0  0.42038485227E+03  0.29489207446E+03 -0.50297155184E+02  0.51595985753E+03  0.10566000000E+00 0. -1.
         -4    1    3    3    0  502 -0.43143237526E+03 -0.26678168139E+03 -0.23468632295E+03  0.55891325814E+03  0.00000000000E+00 0. -1.
        -13    1    1    2    0    0  0.11047522991E+02 -0.28110393072E+02  0.30477248723E+02  0.42908225513E+02  0.10566000000E+00 0.  1.
<mgrwt>
<rscale>  1 0.42821487E+03</rscale>
<asrwt>0</asrwt>
<pdfrwt beam="2">  1       21 0.10556058E+00 0.10364056E+04</pdfrwt>
<pdfrwt beam="1">  1       -4 0.66405778E-01 0.10364056E+04</pdfrwt>
<totfact> 0.56967728E+01</totfact>
</mgrwt>
</event>
<event>
 6    2  0.2267664E-005  0.1071790E+04  0.7818608E-02  0.9516385E-01
         -4   -1    0    0    0  501 -0.00000000000E+00  0.00000000000E+00  0.24355790012E+04  0.24355790012E+04  0.00000000000E+00 0. -1.
         21   -1    0    0  501  502  0.00000000000E+00 -0.00000000000E+00 -0.34677516130E+03  0.34677516130E+03  0.00000000000E+00 0. -1.
   -9000010    2    1    2    0  502  0.10340543754E+03  0.37300547940E+03  0.56786126864E+03  0.12129300361E+04  0.99945339060E+03 0.  0.
         13    1    3    3    0    0  0.18698017408E+03  0.10181508909E+03 -0.26100852785E+03  0.33682838456E+03  0.10566000000E+00 0. -1.
         -4    1    3    3    0  502 -0.83574736545E+02  0.27119039031E+03  0.82886979649E+03  0.87610165159E+03  0.00000000000E+00 0. -1.
        -13    1    1    2    0    0 -0.10340543754E+03 -0.37300547940E+03  0.15209425713E+04  0.15694241264E+04  0.10566000000E+00 0.  1.
<mgrwt>
<rscale>  1 0.83086499E+03</rscale>
<asrwt>0</asrwt>
<pdfrwt beam="2">  1       21 0.53350027E-01 0.10717896E+04</pdfrwt>
<pdfrwt beam="1">  1       -4 0.37470445E+00 0.10717896E+04</pdfrwt>
<totfact> 0.13351574E+00</totfact>
</mgrwt>
</event>
<event>
 6    2  0.2267664E-005  0.1068746E+04  0.7818608E-02  0.9518836E-01
         -4   -1    0    0    0  501 -0.00000000000E+00  0.00000000000E+00  0.81813628236E+03  0.81813628236E+03  0.00000000000E+00 0. -1.
         21   -1    0    0  501  502  0.00000000000E+00 -0.00000000000E+00 -0.93230249080E+03  0.93230249080E+03  0.00000000000E+00 0. -1.
   -9000010    2    1    2    0  502 -0.31973207917E+03 -0.21815971949E+03 -0.52092828223E+03  0.11889428591E+04  0.99619103657E+03 0.  0.
         13    1    3    3    0    0 -0.39395810622E+03  0.22816111043E+03  0.52760481432E+02  0.45830575093E+03  0.10566000000E+00 0. -1.
         -4    1    3    3    0  502  0.74226027053E+02 -0.44632082991E+03 -0.57368876366E+03  0.73063710819E+03  0.00000000000E+00 0. -1.
        -13    1    1    2    0    0  0.31973207917E+03  0.21815971949E+03  0.40676207379E+03  0.56149591405E+03  0.10566000000E+00 0.  1.
<mgrwt>
<rscale>  1 0.82909261E+03</rscale>
<asrwt>0</asrwt>
<pdfrwt beam="2">  1       21 0.14343115E+00 0.10687464E+04</pdfrwt>
<pdfrwt beam="1">  1       -4 0.12586712E+00 0.10687464E+04</pdfrwt>
<totfact> 0.55829483E+00</totfact>
</mgrwt>
</event>
<event>
 6    2  0.2267664E-005  0.1028562E+04  0.7818608E-02  0.9782786E-01
         -4   -1    0    0    0  501 -0.00000000000E+00  0.00000000000E+00  0.90159304449E+03  0.90159304449E+03  0.00000000000E+00 0. -1.
         21   -1    0    0  501  502  0.00000000000E+00 -0.00000000000E+00 -0.47468848744E+03  0.47468848744E+03  0.00000000000E+00 0.  1.
   -9000010    2    1    2    0  502  0.17849987594E+02  0.17660941693E+03  0.54406678435E+03  0.11635927761E+04  0.10131288045E+04 0.  0.
         13    1    3    3    0    0 -0.27524200220E+02  0.55592702140E+03  0.54863291770E+03  0.78154368033E+03  0.10566000000E+00 0. -1.
         -4    1    3    3    0  502  0.45374187815E+02 -0.37931760447E+03 -0.45661333515E+01  0.38204909574E+03  0.00000000000E+00 0. -1.
        -13    1    1    2    0    0 -0.17849987594E+02 -0.17660941693E+03 -0.11716222730E+03  0.21268875587E+03  0.10566000000E+00 0.  1.
<mgrwt>
<rscale>  1 0.66294590E+03</rscale>
<asrwt>0</asrwt>
<pdfrwt beam="2">  1       21 0.73028998E-01 0.10285619E+04</pdfrwt>
<pdfrwt beam="1">  1       -4 0.13870662E+00 0.10285619E+04</pdfrwt>
<totfact> 0.23655050E+01</totfact>
</mgrwt>
</event>
<event>
 6    2  0.2267664E-005  0.1027819E+04  0.7818608E-02  0.9672683E-01
         -4   -1    0    0    0  501 -0.00000000000E+00  0.00000000000E+00  0.94132728798E+03  0.94132728798E+03  0.00000000000E+00 0. -1.
         21   -1    0    0  501  502  0.00000000000E+00 -0.00000000000E+00 -0.70931614769E+03  0.70931614769E+03  0.00000000000E+00 0. -1.
   -9000010    2    1    2    0  502  0.25678154427E+03  0.29960969860E+01 -0.29080264028E+03  0.10681659697E+04  0.99522189742E+03 0.  0.
         13    1    3    3    0    0  0.56660334560E+03 -0.16613823405E+03 -0.38242861405E+03  0.70348626146E+03  0.10566000000E+00 0. -1.
         -4    1    3    3    0  502 -0.30982180133E+03  0.16913433104E+03  0.91625973768E+02  0.36467970821E+03  0.00000000000E+00 0. -1.
        -13    1    1    2    0    0 -0.25678154427E+03 -0.29960969860E+01  0.52281378057E+03  0.58247746600E+03  0.10566000000E+00 0.  1.
<mgrwt>
<rscale>  1 0.72666778E+03</rscale>
<asrwt>0</asrwt>
<pdfrwt beam="2">  1       21 0.10912556E+00 0.10278192E+04</pdfrwt>
<pdfrwt beam="1">  1       -4 0.14481958E+00 0.10278192E+04</pdfrwt>
<totfact> 0.79985769E+00</totfact>
</mgrwt>
</event>
<event>
 6    2  0.2267664E-005  0.1069143E+04  0.7818608E-02  0.9434441E-01
         -4   -1    0    0    0  501 -0.00000000000E+00  0.00000000000E+00  0.41041220890E+03  0.41041220890E+03  0.00000000000E+00 0. -1.
         21   -1    0    0  501  502  0.00000000000E+00 -0.00000000000E+00 -0.15729909493E+04  0.15729909493E+04  0.00000000000E+00 0. -1.
   -9000010    2    1    2    0  502  0.51573249275E+03  0.68262905634E+02 -0.91516520575E+03  0.14073360643E+04  0.93403833744E+03 0.  0.
         13    1    3    3    0    0  0.12515548844E+03  0.48248156918E+03 -0.46283984076E+03  0.68020077202E+03  0.10566000000E+00 0. -1.
         -4    1    3    3    0  502  0.39057700431E+03 -0.41421866355E+03 -0.45232536499E+03  0.72713529232E+03  0.00000000000E+00 0. -1.
        -13    1    1    2    0    0 -0.51573249275E+03 -0.68262905634E+02 -0.24741353468E+03  0.57606709390E+03  0.10566000000E+00 0.  1.
<mgrwt>
<rscale>  1 0.89294747E+03</rscale>
<asrwt>0</asrwt>
<pdfrwt beam="2">  1       21 0.24199861E+00 0.10691433E+04</pdfrwt>
<pdfrwt beam="1">  1       -4 0.63140340E-01 0.10691433E+04</pdfrwt>
<totfact> 0.56317981E+00</totfact>
</mgrwt>
</event>
<event>
 6    2  0.2267664E-005  0.1024832E+04  0.7818608E-02  0.9709045E-01
         21   -1    0    0  501  502  0.00000000000E+00  0.00000000000E+00  0.10180944476E+04  0.10180944476E+04  0.00000000000E+00 0. -1.
         -4   -1    0    0    0  501 -0.00000000000E+00 -0.00000000000E+00 -0.38774466427E+03  0.38774466427E+03  0.00000000000E+00 0. -1.
   -9000010    2    1    2    0  502  0.15756268992E+03 -0.16653322107E+03  0.54868948843E+03  0.11624716327E+04  0.99885976351E+03 0.  0.
         13    1    3    3    0    0  0.52588348079E+03  0.11822373449E+03  0.40833059940E+03  0.67621311458E+03  0.10566000000E+00 0. -1.
         -4    1    3    3    0  502 -0.36832079087E+03 -0.28475695556E+03  0.14035888903E+03  0.48625851813E+03  0.00000000000E+00 0. -1.
        -13    1    1    2    0    0 -0.15756268992E+03  0.16653322107E+03  0.81660294879E+02  0.24336747913E+03  0.10566000000E+00 0.  1.
<mgrwt>
<rscale>  1 0.70480773E+03</rscale>
<asrwt>0</asrwt>
<pdfrwt beam="1">  1       21 0.15662991E+00 0.10248318E+04</pdfrwt>
<pdfrwt beam="2">  1       -4 0.59653026E-01 0.10248318E+04</pdfrwt>
<totfact> 0.25294725E+01</totfact>
</mgrwt>
</event>
<event>
 6    2  0.2267664E-005  0.9223226E+03  0.7818608E-02  0.1006038E+00
         21   -1    0    0  501  502  0.00000000000E+00  0.00000000000E+00  0.11039333079E+04  0.11039333079E+04  0.00000000000E+00 0. -1.
         -4   -1    0    0    0  501 -0.00000000000E+00 -0.00000000000E+00 -0.26284893344E+03  0.26284893344E+03  0.00000000000E+00 0. -1.
   -9000010    2    1    2    0  502 -0.67563291598E+02  0.75309856722E+02  0.86316790446E+03  0.12632251733E+04  0.91675658398E+03 0.  0.
         13    1    3    3    0    0 -0.11805174576E+03 -0.10186782170E+03  0.10135108712E+04  0.10254353052E+04  0.10566000000E+00 0. -1.
         -4    1    3    3    0  502  0.50488454159E+02  0.17717767842E+03 -0.15034296678E+03  0.23778986815E+03  0.00000000000E+00 0. -1.
        -13    1    1    2    0    0  0.67563291598E+02 -0.75309856722E+02 -0.22083529955E+02  0.10355706809E+03  0.10566000000E+00 0.  1.
<mgrwt>
<rscale>  1 0.53079945E+03</rscale>
<asrwt>0</asrwt>
<pdfrwt beam="1">  1       21 0.16983589E+00 0.92232262E+03</pdfrwt>
<pdfrwt beam="2">  1       -4 0.40438298E-01 0.92232262E+03</pdfrwt>
<totfact> 0.45927337E+01</totfact>
</mgrwt>
</event>
<event>
 6    2  0.2267664E-005  0.1052239E+04  0.7818608E-02  0.9535012E-01
         21   -1    0    0  501  502  0.00000000000E+00  0.00000000000E+00  0.14190349292E+04  0.14190349292E+04  0.00000000000E+00 0. -1.
         -4   -1    0    0    0  501 -0.00000000000E+00 -0.00000000000E+00 -0.36911083964E+03  0.36911083964E+03  0.00000000000E+00 0. -1.
   -9000010    2    1    2    0  502 -0.28959632784E+03  0.25122543745E+03  0.86674759925E+03  0.13632529691E+04  0.97991173243E+03 0.  0.
         13    1    3    3    0    0  0.31428776370E+03  0.42653444314E+02  0.41912862682E+02  0.31992626329E+03  0.10566000000E+00 0. -1.
         -4    1    3    3    0  502 -0.60388409154E+03  0.20857199314E+03  0.82483473657E+03  0.10433267058E+04  0.00000000000E+00 0. -1.
        -13    1    1    2    0    0  0.28959632784E+03 -0.25122543745E+03  0.18317649029E+03  0.42489279975E+03  0.10566000000E+00 0.  1.
<mgrwt>
<rscale>  1 0.81751028E+03</rscale>
<asrwt>0</asrwt>
<pdfrwt beam="1">  1       21 0.21831306E+00 0.10522392E+04</pdfrwt>
<pdfrwt beam="2">  1       -4 0.56786284E-01 0.10522392E+04</pdfrwt>
<totfact> 0.10151157E+01</totfact>
</mgrwt>
</event>
<event>
 6    2  0.2267664E-005  0.1013918E+04  0.7818608E-02  0.9891728E-01
         -4   -1    0    0    0  501 -0.00000000000E+00  0.00000000000E+00  0.89568471084E+03  0.89568471084E+03  0.00000000000E+00 0. -1.
         21   -1    0    0  501  502  0.00000000000E+00 -0.00000000000E+00 -0.47239149208E+03  0.47239149208E+03  0.00000000000E+00 0. -1.
   -9000010    2    1    2    0  502  0.10685208808E+03  0.73922932293E+02  0.99020811437E+02  0.10187417300E+04  0.10055583637E+04 0.  0.
         13    1    3    3    0    0  0.23304904096E+03 -0.24464073418E+03 -0.32823336407E+03  0.47106060838E+03  0.10566000000E+00 0. -1.
         -4    1    3    3    0  502 -0.12619695288E+03  0.31856366647E+03  0.42725417551E+03  0.54768112164E+03  0.00000000000E+00 0. -1.
        -13    1    1    2    0    0 -0.10685208808E+03 -0.73922932293E+02  0.32427240732E+03  0.34933447291E+03  0.10566000000E+00 0.  1.
<mgrwt>
<rscale>  1 0.60663858E+03</rscale>
<asrwt>0</asrwt>
<pdfrwt beam="2">  1       21 0.72675614E-01 0.10139179E+04</pdfrwt>
<pdfrwt beam="1">  1       -4 0.13779765E+00 0.10139179E+04</pdfrwt>
<totfact> 0.24371013E+01</totfact>
</mgrwt>
</event>
<event>
 6    2  0.2267664E-005  0.9979121E+03  0.7818608E-02  0.9686786E-01
         21   -1    0    0  501  502  0.00000000000E+00  0.00000000000E+00  0.14489545526E+04  0.14489545526E+04  0.00000000000E+00 0. -1.
         -4   -1    0    0    0  501 -0.00000000000E+00 -0.00000000000E+00 -0.30635291529E+03  0.30635291529E+03  0.00000000000E+00 0. -1.
   -9000010    2    1    2    0  502 -0.26637181706E+03 -0.25301435192E+02  0.10985588550E+04  0.14841361468E+04  0.96137112335E+03 0.  0.
         13    1    3    3    0    0 -0.55299137555E+03 -0.28445188135E+02  0.10586734140E+04  0.11947376276E+04  0.10566000000E+00 0. -1.
         -4    1    3    3    0  502  0.28661955849E+03  0.31437529433E+01  0.39885440976E+02  0.28939851917E+03  0.00000000000E+00 0. -1.
        -13    1    1    2    0    0  0.26637181706E+03  0.25301435192E+02  0.44042782307E+02  0.27117132110E+03  0.10566000000E+00 0.  1.
<mgrwt>
<rscale>  1 0.71809001E+03</rscale>
<asrwt>0</asrwt>
<pdfrwt beam="1">  1       21 0.22291608E+00 0.99791209E+03</pdfrwt>
<pdfrwt beam="2">  1       -4 0.47131219E-01 0.99791209E+03</pdfrwt>
<totfact> 0.14165920E+01</totfact>
</mgrwt>
</event>
<event>
 6    2  0.2267664E-005  0.1239199E+04  0.7818608E-02  0.9219048E-01
         -4   -1    0    0    0  501 -0.00000000000E+00  0.00000000000E+00  0.15212740291E+04  0.15212740291E+04  0.00000000000E+00 0. -1.
         21   -1    0    0  501  502  0.00000000000E+00 -0.00000000000E+00 -0.82166137081E+03  0.82166137081E+03  0.00000000000E+00 0. -1.
   -9000010    2    1    2    0  502  0.64805713989E+03 -0.33752519302E+03 -0.11989466608E+03  0.12449856842E+04  0.10008562886E+04 0.  0.
         13    1    3    3    0    0  0.70326964196E+03 -0.14961589545E+03 -0.45925565339E+03  0.85316403570E+03  0.10566000000E+00 0. -1.
         -4    1    3    3    0  502 -0.55212502077E+02 -0.18790929757E+03  0.33936098731E+03  0.39182164847E+03  0.00000000000E+00 0. -1.
        -13    1    1    2    0    0 -0.64805713989E+03  0.33752519302E+03  0.81950732439E+03  0.10979497158E+04  0.10566000000E+00 0.  1.
<mgrwt>
<rscale>  1 0.10858966E+04</rscale>
<asrwt>0</asrwt>
<pdfrwt beam="2">  1       21 0.12640944E+00 0.12391992E+04</pdfrwt>
<pdfrwt beam="1">  1       -4 0.23404216E+00 0.12391992E+04</pdfrwt>
<totfact> 0.12854531E+00</totfact>
</mgrwt>
</event>
<event>
 6    2  0.2267664E-005  0.9298323E+03  0.7818608E-02  0.1013154E+00
         21   -1    0    0  501  502  0.00000000000E+00  0.00000000000E+00  0.39673718991E+03  0.39673718991E+03  0.00000000000E+00 0. -1.
         -4   -1    0    0    0  501 -0.00000000000E+00 -0.00000000000E+00 -0.64165601824E+03  0.64165601824E+03  0.00000000000E+00 0. -1.
   -9000010    2    1    2    0  502 -0.77755822816E+02 -0.15308821831E+02 -0.22414047124E+03  0.95646592762E+03  0.92644902280E+03 0.  0.
         13    1    3    3    0    0 -0.72882260644E+01 -0.15339286187E+03  0.33911532746E+03  0.37226563741E+03  0.10566000000E+00 0. -1.
         -4    1    3    3    0  502 -0.70467596752E+02  0.13808404004E+03 -0.56325579871E+03  0.58420029021E+03  0.00000000000E+00 0. -1.
        -13    1    1    2    0    0  0.77755822816E+02  0.15308821831E+02 -0.20778357082E+02  0.81927280528E+02  0.10566000000E+00 0.  1.
<mgrwt>
<rscale>  1 0.50240200E+03</rscale>
<asrwt>0</asrwt>
<pdfrwt beam="1">  1       21 0.61036491E-01 0.92983231E+03</pdfrwt>
<pdfrwt beam="2">  1       -4 0.98716310E-01 0.92983231E+03</pdfrwt>
<totfact> 0.83956768E+01</totfact>
</mgrwt>
</event>
<event>
 6    2  0.2267664E-005  0.1059476E+04  0.7818608E-02  0.9551415E-01
         -4   -1    0    0    0  501 -0.00000000000E+00  0.00000000000E+00  0.41576932783E+03  0.41576932783E+03  0.00000000000E+00 0. -1.
         21   -1    0    0  501  502  0.00000000000E+00 -0.00000000000E+00 -0.13391983612E+04  0.13391983612E+04  0.00000000000E+00 0. -1.
   -9000010    2    1    2    0  502 -0.34444781155E+03 -0.85151065993E+02 -0.91524273120E+03  0.14000563964E+04  0.99829537577E+03 0.  0.
         13    1    3    3    0    0 -0.20517607523E+02  0.21707860143E+03 -0.93155012236E+03  0.95672866219E+03  0.10566000000E+00 0. -1.
         -4    1    3    3    0  502 -0.32393020402E+03 -0.30222966743E+03  0.16307391157E+02  0.44332773425E+03  0.00000000000E+00 0. -1.
        -13    1    1    2    0    0  0.34444781155E+03  0.85151065993E+02 -0.81863021841E+01  0.35491129262E+03  0.10566000000E+00 0.  1.
<mgrwt>
<rscale>  1 0.80597079E+03</rscale>
<asrwt>0</asrwt>
<pdfrwt beam="2">  1       21 0.20603052E+00 0.10594757E+04</pdfrwt>
<pdfrwt beam="1">  1       -4 0.63964512E-01 0.10594757E+04</pdfrwt>
<totfact> 0.94591272E+00</totfact>
</mgrwt>
</event>
<event>
 6    2  0.2267664E-005  0.1369056E+04  0.7818608E-02  0.9019646E-01
         21   -1    0    0  501  502  0.00000000000E+00  0.00000000000E+00  0.11903734201E+04  0.11903734201E+04  0.00000000000E+00 0.  1.
         -4   -1    0    0    0  501 -0.00000000000E+00 -0.00000000000E+00 -0.14379606154E+04  0.14379606154E+04  0.00000000000E+00 0. -1.
   -9000010    2    1    2    0  502  0.54260331685E+03 -0.10216025417E+04  0.20862978798E+03  0.13848614546E+04  0.73227368329E+03 0.  0.
         13    1    3    3    0    0  0.41312400317E+02 -0.27341218133E+03 -0.25127208800E+03  0.37362897196E+03  0.10566000000E+00 0. -1.
         -4    1    3    3    0  502  0.50129091653E+03 -0.74819036040E+03  0.45990187597E+03  0.10112324826E+04  0.00000000000E+00 0. -1.
        -13    1    1    2    0    0 -0.54260331685E+03  0.10216025417E+04 -0.45621698327E+03  0.12434725810E+04  0.10566000000E+00 0.  1.
<mgrwt>
<rscale>  1 0.13125826E+04</rscale>
<asrwt>0</asrwt>
<pdfrwt beam="1">  1       21 0.18313437E+00 0.13690562E+04</pdfrwt>
<pdfrwt beam="2">  1       -4 0.22122471E+00 0.13690562E+04</pdfrwt>
<totfact> 0.53288689E-01</totfact>
</mgrwt>
</event>
<event>
 6    2  0.2267664E-005  0.1021215E+04  0.7818608E-02  0.9841650E-01
         21   -1    0    0  501  502  0.00000000000E+00  0.00000000000E+00  0.20099952261E+04  0.20099952261E+04  0.00000000000E+00 0. -1.
         -4   -1    0    0    0  501 -0.00000000000E+00 -0.00000000000E+00 -0.18256283668E+03  0.18256283668E+03  0.00000000000E+00 0. -1.
   -9000010    2    1    2    0  502  0.46588906309E+02  0.14211831257E+03  0.17448122147E+04  0.20216948268E+04  0.10102040227E+04 0.  0.
         13    1    3    3    0    0 -0.74702556357E+02  0.24520651580E+03  0.18253765722E+04  0.18432868330E+04  0.10566000000E+00 0. -1.
         -4    1    3    3    0  502  0.12129146267E+03 -0.10308820322E+03 -0.80564357530E+02  0.17840799383E+03  0.00000000000E+00 0. -1.
        -13    1    1    2    0    0 -0.46588906309E+02 -0.14211831257E+03  0.82620174810E+02  0.17086323598E+03  0.10566000000E+00 0.  1.
<mgrwt>
<rscale>  1 0.63174482E+03</rscale>
<asrwt>0</asrwt>
<pdfrwt beam="1">  1       21 0.30923002E+00 0.10212151E+04</pdfrwt>
<pdfrwt beam="2">  1       -4 0.28086592E-01 0.10212151E+04</pdfrwt>
<totfact> 0.11395000E+01</totfact>
</mgrwt>
</event>
<event>
 6    2  0.2267664E-005  0.1022017E+04  0.7818608E-02  0.9837122E-01
         -4   -1    0    0    0  501 -0.00000000000E+00  0.00000000000E+00  0.31173018051E+03  0.31173018051E+03  0.00000000000E+00 0. -1.
         21   -1    0    0  501  502  0.00000000000E+00 -0.00000000000E+00 -0.13524193625E+04  0.13524193625E+04  0.00000000000E+00 0. -1.
   -9000010    2    1    2    0  502  0.16003158349E+02 -0.15057700129E+03 -0.11000160460E+04  0.15015173741E+04  0.10107371513E+04 0.  0.
         13    1    3    3    0    0  0.47338911007E+03 -0.22351124136E+03 -0.38595020689E+03  0.65039380218E+03  0.10566000000E+00 0. -1.
         -4    1    3    3    0  502 -0.45738595172E+03  0.72934240072E+02 -0.71406583908E+03  0.85112357196E+03  0.00000000000E+00 0. -1.
        -13    1    1    2    0    0 -0.16003158349E+02  0.15057700129E+03  0.59326863989E+02  0.16263216886E+03  0.10566000000E+00 0.  1.
<mgrwt>
<rscale>  1 0.63407858E+03</rscale>
<asrwt>0</asrwt>
<pdfrwt beam="2">  1       21 0.20806452E+00 0.10220172E+04</pdfrwt>
<pdfrwt beam="1">  1       -4 0.47958489E-01 0.10220172E+04</pdfrwt>
<totfact> 0.17101075E+01</totfact>
</mgrwt>
</event>
<event>
 6    2  0.2267664E-005  0.1017246E+04  0.7818608E-02  0.9880806E-01
         -4   -1    0    0    0  501 -0.00000000000E+00  0.00000000000E+00  0.80333403672E+03  0.80333403672E+03  0.00000000000E+00 0. -1.
         21   -1    0    0  501  502  0.00000000000E+00 -0.00000000000E+00 -0.52054457074E+03  0.52054457074E+03  0.00000000000E+00 0. -1.
   -9000010    2    1    2    0  502  0.59681449419E+02 -0.11916396862E+03  0.66582215284E+01  0.10172674496E+04  0.10084774689E+04 0.  0.
         13    1    3    3    0    0  0.29526497556E+03  0.29380261125E+03  0.24728186455E+03  0.48440655639E+03  0.10566000000E+00 0. -1.
         -4    1    3    3    0  502 -0.23558352614E+03 -0.41296657987E+03 -0.24062364303E+03  0.53286089316E+03  0.00000000000E+00 0. -1.
        -13    1    1    2    0    0 -0.59681449419E+02  0.11916396862E+03  0.27613124446E+03  0.30661115791E+03  0.10566000000E+00 0.  1.
<mgrwt>
<rscale>  1 0.61200600E+03</rscale>
<asrwt>0</asrwt>
<pdfrwt beam="2">  1       21 0.80083781E-01 0.10172457E+04</pdfrwt>
<pdfrwt beam="1">  1       -4 0.12358985E+00 0.10172457E+04</pdfrwt>
<totfact> 0.25706964E+01</totfact>
</mgrwt>
</event>
<event>
 6    2  0.2267664E-005  0.8915593E+03  0.7818608E-02  0.1035722E+00
         -4   -1    0    0    0  501 -0.00000000000E+00  0.00000000000E+00  0.64607254786E+03  0.64607254786E+03  0.00000000000E+00 0. -1.
         21   -1    0    0  501  502  0.00000000000E+00 -0.00000000000E+00 -0.35371878983E+03  0.35371878983E+03  0.00000000000E+00 0. -1.
   -9000010    2    1    2    0  502 -0.30420141222E+02  0.34067292205E+02  0.22690205134E+03  0.91997966897E+03  0.89038872692E+03 0.  0.
         13    1    3    3    0    0  0.42381264612E+03  0.64713553425E+02  0.16988737032E+03  0.46115803448E+03  0.10566000000E+00 0. -1.
         -4    1    3    3    0  502 -0.45423278734E+03 -0.30646261220E+02  0.57014681023E+02  0.45882163449E+03  0.00000000000E+00 0. -1.
        -13    1    1    2    0    0  0.30420141222E+02 -0.34067292205E+02  0.65451706691E+02  0.79811668714E+02  0.10566000000E+00 0.  1.
<mgrwt>
<rscale>  1 0.42415673E+03</rscale>
<asrwt>0</asrwt>
<pdfrwt beam="2">  1       21 0.54418275E-01 0.89155934E+03</pdfrwt>
<pdfrwt beam="1">  1       -4 0.99395777E-01 0.89155934E+03</pdfrwt>
<totfact> 0.10671897E+02</totfact>
</mgrwt>
</event>
<event>
 6    2  0.2267664E-005  0.1000936E+04  0.7818608E-02  0.1000479E+00
         -4   -1    0    0    0  501 -0.00000000000E+00  0.00000000000E+00  0.33219132911E+03  0.33219132911E+03  0.00000000000E+00 0. -1.
         21   -1    0    0  501  502  0.00000000000E+00 -0.00000000000E+00 -0.10418770168E+04  0.10418770168E+04  0.00000000000E+00 0. -1.
   -9000010    2    1    2    0  502 -0.42624200504E+02  0.84014269884E+02 -0.76944472069E+03  0.12625050312E+04  0.99649312873E+03 0.  0.
         13    1    3    3    0    0  0.12743001442E+03 -0.36889432322E+03 -0.65959015957E+03  0.76640760699E+03  0.10566000000E+00 0. -1.
         -4    1    3    3    0  502 -0.17005421493E+03  0.45290859310E+03 -0.10985456112E+03  0.49609742422E+03  0.00000000000E+00 0. -1.
        -13    1    1    2    0    0  0.42624200504E+02 -0.84014269884E+02  0.59759032964E+02  0.11156331475E+03  0.10566000000E+00 0.  1.
<mgrwt>
<rscale>  1 0.55440525E+03</rscale>
<asrwt>0</asrwt>
<pdfrwt beam="2">  1       21 0.16028877E+00 0.10009364E+04</pdfrwt>
<pdfrwt beam="1">  1       -4 0.51106359E-01 0.10009364E+04</pdfrwt>
<totfact> 0.33090138E+01</totfact>
</mgrwt>
</event>
<event>
 6    2  0.2267664E-005  0.9934425E+03  0.7818608E-02  0.9694877E-01
         21   -1    0    0  501  502  0.00000000000E+00  0.00000000000E+00  0.18811774252E+04  0.18811774252E+04  0.00000000000E+00 0. -1.
         -4   -1    0    0    0  501 -0.00000000000E+00 -0.00000000000E+00 -0.23880103768E+03  0.23880103768E+03  0.00000000000E+00 0. -1.
   -9000010    2    1    2    0  502  0.24898700708E+03 -0.87532423649E+02  0.15486531677E+04  0.18399061365E+04  0.95774292095E+03 0.  0.
         13    1    3    3    0    0  0.51196077183E+03 -0.27701280908E+03  0.59374802840E+03  0.83149062573E+03  0.10566000000E+00 0. -1.
         -4    1    3    3    0  502 -0.26297376475E+03  0.18948038543E+03  0.95490513925E+03  0.10084155108E+04  0.00000000000E+00 0. -1.
        -13    1    1    2    0    0 -0.24898700708E+03  0.87532423649E+02  0.93723219847E+02  0.28007232635E+03  0.10566000000E+00 0.  1.
<mgrwt>
<rscale>  1 0.71322609E+03</rscale>
<asrwt>0</asrwt>
<pdfrwt beam="1">  1       21 0.28941190E+00 0.99344248E+03</pdfrwt>
<pdfrwt beam="2">  1       -4 0.36738622E-01 0.99344248E+03</pdfrwt>
<totfact> 0.89441028E+00</totfact>
</mgrwt>
</event>
<event>
 6    2  0.2267664E-005  0.9695193E+03  0.7818608E-02  0.1023263E+00
         -4   -1    0    0    0  501 -0.00000000000E+00  0.00000000000E+00  0.13714668808E+03  0.13714668808E+03  0.00000000000E+00 0. -1.
         21   -1    0    0  501  502  0.00000000000E+00 -0.00000000000E+00 -0.19274424038E+04  0.19274424038E+04  0.00000000000E+00 0. -1.
   -9000010    2    1    2    0  502 -0.47525758092E+02  0.19638299037E+02 -0.17441245704E+04  0.19954794233E+04  0.96815455955E+03 0.  0.
         13    1    3    3    0    0  0.41907757862E+03  0.13950099904E+03 -0.53405439487E+03  0.69303726702E+03  0.10566000000E+00 0. -1.
         -4    1    3    3    0  502 -0.46660333671E+03 -0.11986270001E+03 -0.12100701755E+04  0.13024421563E+04  0.00000000000E+00 0. -1.
        -13    1    1    2    0    0  0.47525758092E+02 -0.19638299037E+02 -0.46171145310E+02  0.69109668604E+02  0.10566000000E+00 0.  1.
<mgrwt>
<rscale>  1 0.46527278E+03</rscale>
<asrwt>0</asrwt>
<pdfrwt beam="2">  1       21 0.29652959E+00 0.96951927E+03</pdfrwt>
<pdfrwt beam="1">  1       -4 0.21099491E-01 0.96951927E+03</pdfrwt>
<totfact> 0.23777783E+01</totfact>
</mgrwt>
</event>
<event>
 6    2  0.2267664E-005  0.9544765E+03  0.7818608E-02  0.1004346E+00
         -4   -1    0    0    0  501 -0.00000000000E+00  0.00000000000E+00  0.19815958931E+03  0.19815958931E+03  0.00000000000E+00 0. -1.
         21   -1    0    0  501  502  0.00000000000E+00 -0.00000000000E+00 -0.14366536090E+04  0.14366536090E+04  0.00000000000E+00 0. -1.
   -9000010    2    1    2    0  502 -0.34065440716E+01  0.96177923598E+02 -0.11944759160E+04  0.15289859705E+04  0.94961233479E+03 0.  0.
         13    1    3    3    0    0  0.23924057323E+03 -0.36300642891E+03 -0.56554157148E+03  0.71333512429E+03  0.10566000000E+00 0. -1.
         -4    1    3    3    0  502 -0.24264711730E+03  0.45918435251E+03 -0.62893434457E+03  0.81565084619E+03  0.00000000000E+00 0. -1.
        -13    1    1    2    0    0  0.34065440716E+01 -0.96177923598E+02 -0.44018103602E+02  0.10582722778E+03  0.10566000000E+00 0.  1.
<mgrwt>
<rscale>  1 0.53784967E+03</rscale>
<asrwt>0</asrwt>
<pdfrwt beam="2">  1       21 0.22102362E+00 0.95447650E+03</pdfrwt>
<pdfrwt beam="1">  1       -4 0.30486092E-01 0.95447650E+03</pdfrwt>
<totfact> 0.35397160E+01</totfact>
</mgrwt>
</event>
<event>
 6    2  0.2267664E-005  0.9536566E+03  0.7818608E-02  0.9935679E-01
         21   -1    0    0  501  502  0.00000000000E+00  0.00000000000E+00  0.47699866672E+03  0.47699866672E+03  0.00000000000E+00 0. -1.
         -4   -1    0    0    0  501 -0.00000000000E+00 -0.00000000000E+00 -0.83072246066E+03  0.83072246066E+03  0.00000000000E+00 0. -1.
   -9000010    2    1    2    0  502 -0.57333909883E+02  0.12290106379E+03 -0.27077476952E+02  0.95404093813E+03  0.94396455080E+03 0.  0.
         13    1    3    3    0    0 -0.80203359452E+02 -0.37132436486E+03 -0.20077701782E+03  0.42968102687E+03  0.10566000000E+00 0. -1.
         -4    1    3    3    0  502  0.22869449569E+02  0.49422542864E+03  0.17369954086E+03  0.52435991126E+03  0.00000000000E+00 0. -1.
        -13    1    1    2    0    0  0.57333909883E+02 -0.12290106379E+03 -0.32664631698E+03  0.35368018925E+03  0.10566000000E+00 0.  1.
<mgrwt>
<rscale>  1 0.58562852E+03</rscale>
<asrwt>0</asrwt>
<pdfrwt beam="1">  1       21 0.73384411E-01 0.95365661E+03</pdfrwt>
<pdfrwt beam="2">  1       -4 0.12780345E+00 0.95365661E+03</pdfrwt>
<totfact> 0.29105577E+01</totfact>
</mgrwt>
</event>
<event>
 6    2  0.2267664E-005  0.9830631E+03  0.7818608E-02  0.9768749E-01
         21   -1    0    0  501  502  0.00000000000E+00  0.00000000000E+00  0.11819800513E+04  0.11819800513E+04  0.00000000000E+00 0. -1.
         -4   -1    0    0    0  501 -0.00000000000E+00 -0.00000000000E+00 -0.30620572584E+03  0.30620572584E+03  0.00000000000E+00 0. -1.
   -9000010    2    1    2    0  502  0.17458173048E+03 -0.12194859029E+03  0.77889380527E+03  0.12542283330E+04  0.95972022601E+03 0.  0.
         13    1    3    3    0    0 -0.34276043164E+03 -0.31653873623E+02  0.38315417847E+02  0.34634486227E+03  0.10566000000E+00 0. -1.
         -4    1    3    3    0  502  0.51734216212E+03 -0.90294716663E+02  0.74057838743E+03  0.90788347076E+03  0.00000000000E+00 0. -1.
        -13    1    1    2    0    0 -0.17458173048E+03  0.12194859029E+03  0.96880520166E+02  0.23395744408E+03  0.10566000000E+00 0.  1.
<mgrwt>
<rscale>  1 0.67066945E+03</rscale>
<asrwt>0</asrwt>
<pdfrwt beam="1">  1       21 0.18184308E+00 0.98306315E+03</pdfrwt>
<pdfrwt beam="2">  1       -4 0.47108574E-01 0.98306315E+03</pdfrwt>
<totfact> 0.27169904E+01</totfact>
</mgrwt>
</event>
<event>
 6    2  0.2267664E-005  0.1124356E+04  0.7818608E-02  0.9493009E-01
         -4   -1    0    0    0  501 -0.00000000000E+00  0.00000000000E+00  0.13431558596E+04  0.13431558596E+04  0.00000000000E+00 0. -1.
         21   -1    0    0  501  502  0.00000000000E+00 -0.00000000000E+00 -0.44595939221E+03  0.44595939221E+03  0.00000000000E+00 0. -1.
   -9000010    2    1    2    0  502 -0.35509792513E+03 -0.79220576760E+02  0.44619402742E+03  0.12096554618E+04  0.10638640843E+04 0.  0.
         13    1    3    3    0    0 -0.36627762452E+03 -0.43810949974E+03  0.59161924817E+03  0.82226065086E+03  0.10566000000E+00 0. -1.
         -4    1    3    3    0  502  0.11179699391E+02  0.35888892298E+03 -0.14542522075E+03  0.38739481094E+03  0.00000000000E+00 0. -1.
        -13    1    1    2    0    0  0.35509792513E+03  0.79220576760E+02  0.45100243992E+03  0.57945978997E+03  0.10566000000E+00 0.  1.
<mgrwt>
<rscale>  1 0.84801174E+03</rscale>
<asrwt>0</asrwt>
<pdfrwt beam="2">  1       21 0.68609138E-01 0.11243564E+04</pdfrwt>
<pdfrwt beam="1">  1       -4 0.20663936E+00 0.11243564E+04</pdfrwt>
<totfact> 0.87364820E+00</totfact>
</mgrwt>
</event>
<event>
 6    2  0.2267664E-005  0.1078643E+04  0.7818608E-02  0.9542105E-01
         21   -1    0    0  501  502  0.00000000000E+00  0.00000000000E+00  0.57105629667E+03  0.57105629667E+03  0.00000000000E+00 0. -1.
         -4   -1    0    0    0  501 -0.00000000000E+00 -0.00000000000E+00 -0.94164598296E+03  0.94164598296E+03  0.00000000000E+00 0. -1.
   -9000010    2    1    2    0  502 -0.34642400238E+03 -0.24016115063E+02 -0.42852248070E+03  0.11606474784E+04  0.10212172587E+04 0.  0.
         13    1    3    3    0    0  0.13010451690E+03 -0.12697961675E+03 -0.61299716944E+03  0.63938763618E+03  0.10566000000E+00 0. -1.
         -4    1    3    3    0  502 -0.47652851928E+03  0.10296350168E+03  0.18447468875E+03  0.52125984226E+03  0.00000000000E+00 0. -1.
        -13    1    1    2    0    0  0.34642400238E+03  0.24016115063E+02  0.57932794408E+02  0.35205480119E+03  0.10566000000E+00 0.  1.
<mgrwt>
<rscale>  1 0.81249496E+03</rscale>
<asrwt>0</asrwt>
<pdfrwt beam="1">  1       21 0.87854815E-01 0.10786432E+04</pdfrwt>
<pdfrwt beam="2">  1       -4 0.14486861E+00 0.10786432E+04</pdfrwt>
<totfact> 0.13575193E+01</totfact>
</mgrwt>
</event>
<event>
 6    2  0.2267664E-005  0.1040022E+04  0.7818608E-02  0.9558216E-01
         21   -1    0    0  501  502  0.00000000000E+00  0.00000000000E+00  0.63590009280E+03  0.63590009280E+03  0.00000000000E+00 0. -1.
         -4   -1    0    0    0  501 -0.00000000000E+00 -0.00000000000E+00 -0.77762736603E+03  0.77762736603E+03  0.00000000000E+00 0. -1.
   -9000010    2    1    2    0  502 -0.22393904903E+03 -0.28997750341E+03 -0.10453944537E+03  0.10452631572E+04  0.97335035930E+03 0.  0.
         13    1    3    3    0    0  0.34497271456E+03 -0.15711085210E+03 -0.23587655879E+03  0.44646137099E+03  0.10566000000E+00 0. -1.
         -4    1    3    3    0  502 -0.56891176359E+03 -0.13286665131E+03  0.13133711342E+03  0.59880178619E+03  0.00000000000E+00 0. -1.
        -13    1    1    2    0    0  0.22393904903E+03  0.28997750341E+03 -0.37187827861E+02  0.36826430166E+03  0.10566000000E+00 0.  1.
<mgrwt>
<rscale>  1 0.80124532E+03</rscale>
<asrwt>0</asrwt>
<pdfrwt beam="1">  1       21 0.97830783E-01 0.10400224E+04</pdfrwt>
<pdfrwt beam="2">  1       -4 0.11963498E+00 0.10400224E+04</pdfrwt>
<totfact> 0.17202769E+01</totfact>
</mgrwt>
</event>
<event>
 6    2  0.2267664E-005  0.1105872E+04  0.7818608E-02  0.9412388E-01
         -4   -1    0    0    0  501 -0.00000000000E+00  0.00000000000E+00  0.10965618329E+04  0.10965618329E+04  0.00000000000E+00 0. -1.
         21   -1    0    0  501  502  0.00000000000E+00 -0.00000000000E+00 -0.59965804700E+03  0.59965804700E+03  0.00000000000E+00 0. -1.
   -9000010    2    1    2    0  502  0.46548652542E+03  0.20458104430E+03  0.26395008720E+03  0.11369359217E+04  0.98205016798E+03 0.  0.
         13    1    3    3    0    0  0.64733572135E+03 -0.45733128114E+02 -0.10287600400E+03  0.65705291910E+03  0.10566000000E+00 0. -1.
         -4    1    3    3    0  502 -0.18184919593E+03  0.25031417241E+03  0.36682609120E+03  0.47988300257E+03  0.00000000000E+00 0. -1.
        -13    1    1    2    0    0 -0.46548652542E+03 -0.20458104430E+03  0.23295369873E+03  0.55928395824E+03  0.10566000000E+00 0.  1.
<mgrwt>
<rscale>  1 0.91063188E+03</rscale>
<asrwt>0</asrwt>
<pdfrwt beam="2">  1       21 0.92255085E-01 0.11058723E+04</pdfrwt>
<pdfrwt beam="1">  1       -4 0.16870182E+00 0.11058723E+04</pdfrwt>
<totfact> 0.79306762E+00</totfact>
</mgrwt>
</event>
<event>
 6    2  0.2267664E-005  0.1064683E+04  0.7818608E-02  0.9528332E-01
         -4   -1    0    0    0  501 -0.00000000000E+00  0.00000000000E+00  0.11196984610E+04  0.11196984610E+04  0.00000000000E+00 0. -1.
         21   -1    0    0  501  502  0.00000000000E+00 -0.00000000000E+00 -0.79913299492E+03  0.79913299492E+03  0.00000000000E+00 0. -1.
   -9000010    2    1    2    0  502  0.37187269858E+03 -0.72041294770E+02 -0.37336392900E+03  0.11282511193E+04  0.99502297091E+03 0.  0.
         13    1    3    3    0    0  0.62613390813E+03 -0.16706533156E+03  0.22308716718E+02  0.64842284501E+03  0.10566000000E+00 0. -1.
         -4    1    3    3    0  502 -0.25426120955E+03  0.95024036787E+02 -0.39567264572E+03  0.47982827430E+03  0.00000000000E+00 0. -1.
        -13    1    1    2    0    0 -0.37187269858E+03  0.72041294770E+02  0.69392939505E+03  0.79058033657E+03  0.10566000000E+00 0.  1.
<mgrwt>
<rscale>  1 0.82226895E+03</rscale>
<asrwt>0</asrwt>
<pdfrwt beam="2">  1       21 0.12294354E+00 0.10646830E+04</pdfrwt>
<pdfrwt beam="1">  1       -4 0.17226130E+00 0.10646830E+04</pdfrwt>
<totfact> 0.36415084E+00</totfact>
</mgrwt>
</event>
<event>
 6    2  0.2267664E-005  0.1039223E+04  0.7818608E-02  0.9676817E-01
         21   -1    0    0  501  502  0.00000000000E+00  0.00000000000E+00  0.21356849328E+04  0.21356849328E+04  0.00000000000E+00 0. -1.
         -4   -1    0    0    0  501 -0.00000000000E+00 -0.00000000000E+00 -0.22867996066E+03  0.22867996066E+03  0.00000000000E+00 0. -1.
   -9000010    2    1    2    0  502 -0.22248250203E+02 -0.24398686769E+03  0.18352769808E+04  0.21090817327E+04  0.10099304841E+04 0.  0.
         13    1    3    3    0    0  0.27170412873E+02 -0.19819691861E+03 -0.62902596262E+02  0.20970693279E+03  0.10566000000E+00 0. -1.
         -4    1    3    3    0  502 -0.49418663077E+02 -0.45789949078E+02  0.18981795771E+04  0.18993747999E+04  0.00000000000E+00 0. -1.
        -13    1    1    2    0    0  0.22248250203E+02  0.24398686769E+03  0.71727991262E+02  0.25528316070E+03  0.10566000000E+00 0.  1.
<mgrwt>
<rscale>  1 0.72414022E+03</rscale>
<asrwt>0</asrwt>
<pdfrwt beam="1">  1       21 0.32856690E+00 0.10392229E+04</pdfrwt>
<pdfrwt beam="2">  1       -4 0.35181534E-01 0.10392229E+04</pdfrwt>
<totfact> 0.55194678E+00</totfact>
</mgrwt>
</event>
<event>
 6    2  0.2267664E-005  0.1005298E+04  0.7818608E-02  0.1016465E+00
         21   -1    0    0  501  502  0.00000000000E+00  0.00000000000E+00  0.51042091557E+03  0.51042091557E+03  0.00000000000E+00 0. -1.
         -4   -1    0    0    0  501 -0.00000000000E+00 -0.00000000000E+00 -0.61747299512E+03  0.61747299512E+03  0.00000000000E+00 0. -1.
   -9000010    2    1    2    0  502 -0.33008431886E+02  0.46062829999E+02  0.16593727863E+01  0.10052989193E+04  0.10036990698E+04 0.  0.
         13    1    3    3    0    0  0.41748686923E+02  0.46817881943E+03 -0.22418454097E+03  0.52076201800E+03  0.10566000000E+00 0. -1.
         -4    1    3    3    0  502 -0.74757118809E+02 -0.42211598943E+03  0.22584391375E+03  0.48453690130E+03  0.00000000000E+00 0. -1.
        -13    1    1    2    0    0  0.33008431886E+02 -0.46062829999E+02 -0.10871145233E+03  0.12259499140E+03  0.10566000000E+00 0.  1.
<mgrwt>
<rscale>  1 0.48984306E+03</rscale>
<asrwt>0</asrwt>
<pdfrwt beam="1">  1       21 0.78526295E-01 0.10052975E+04</pdfrwt>
<pdfrwt beam="2">  1       -4 0.94995845E-01 0.10052975E+04</pdfrwt>
<totfact> 0.51430113E+01</totfact>
</mgrwt>
</event>
<event>
 6    2  0.2267664E-005  0.1057968E+04  0.7818608E-02  0.9530428E-01
         21   -1    0    0  501  502  0.00000000000E+00  0.00000000000E+00  0.14525134490E+04  0.14525134490E+04  0.00000000000E+00 0. -1.
         -4   -1    0    0    0  501 -0.00000000000E+00 -0.00000000000E+00 -0.35770291529E+03  0.35770291529E+03  0.00000000000E+00 0. -1.
   -9000010    2    1    2    0  502 -0.23603400887E+03 -0.30192979271E+03  0.82267561630E+03  0.13401833043E+04  0.98611483423E+03 0.  0.
         13    1    3    3    0    0 -0.40661138910E+03 -0.49988664318E+03  0.21598405329E+03  0.67960915254E+03  0.10566000000E+00 0. -1.
         -4    1    3    3    0  502  0.17057738023E+03  0.19795685046E+03  0.60669156302E+03  0.66057415173E+03  0.00000000000E+00 0. -1.
        -13    1    1    2    0    0  0.23603400887E+03  0.30192979271E+03  0.27213491737E+03  0.47003305999E+03  0.10566000000E+00 0.  1.
<mgrwt>
<rscale>  1 0.82077168E+03</rscale>
<asrwt>0</asrwt>
<pdfrwt beam="1">  1       21 0.22346360E+00 0.10579679E+04</pdfrwt>
<pdfrwt beam="2">  1       -4 0.55031219E-01 0.10579679E+04</pdfrwt>
<totfact> 0.10034423E+01</totfact>
</mgrwt>
</event>
<event>
 6    2  0.2267664E-005  0.1010520E+04  0.7818608E-02  0.1008521E+00
         -4   -1    0    0    0  501 -0.00000000000E+00  0.00000000000E+00  0.25764319839E+03  0.25764319839E+03  0.00000000000E+00 0. -1.
         21   -1    0    0  501  502  0.00000000000E+00 -0.00000000000E+00 -0.13103795012E+04  0.13103795012E+04  0.00000000000E+00 0. -1.
   -9000010    2    1    2    0  502 -0.65753357944E+02 -0.27366771045E+02 -0.10910705060E+04  0.14871402755E+04  0.10080073937E+04 0.  0.
         13    1    3    3    0    0  0.63646706426E+02 -0.50555415619E+03 -0.47504619914E+03  0.69663822072E+03  0.10566000000E+00 0. -1.
         -4    1    3    3    0  502 -0.12940006437E+03  0.47818738514E+03 -0.61602430682E+03  0.79050205475E+03  0.00000000000E+00 0. -1.
        -13    1    1    2    0    0  0.65753357944E+02  0.27366771045E+02  0.38334203142E+02  0.80882424128E+02  0.10566000000E+00 0.  1.
<mgrwt>
<rscale>  1 0.52066822E+03</rscale>
<asrwt>0</asrwt>
<pdfrwt beam="2">  1       21 0.20159685E+00 0.10105203E+04</pdfrwt>
<pdfrwt beam="1">  1       -4 0.39637415E-01 0.10105203E+04</pdfrwt>
<totfact> 0.28097805E+01</totfact>
</mgrwt>
</event>
<event>
 6    2  0.2267664E-005  0.1034994E+04  0.7818608E-02  0.9629003E-01
         21   -1    0    0  501  502  0.00000000000E+00  0.00000000000E+00  0.50758827029E+03  0.50758827029E+03  0.00000000000E+00 0. -1.
         -4   -1    0    0    0  501 -0.00000000000E+00 -0.00000000000E+00 -0.10882772501E+04  0.10882772501E+04  0.00000000000E+00 0. -1.
   -9000010    2    1    2    0  502 -0.16985594742E+03  0.23704047952E+03 -0.10820419161E+03  0.10406348314E+04  0.99306267342E+03 0.  0.
         13    1    3    3    0    0  0.37923644639E+03  0.17676191312E+03 -0.22640994876E+03  0.47573788188E+03  0.10566000000E+00 0. -1.
         -4    1    3    3    0  502 -0.54909239380E+03  0.60278566404E+02  0.11820575715E+03  0.56489694947E+03  0.00000000000E+00 0. -1.
        -13    1    1    2    0    0  0.16985594742E+03 -0.23704047952E+03 -0.47248478821E+03  0.55523068905E+03  0.10566000000E+00 0.  1.
<mgrwt>
<rscale>  1 0.75405985E+03</rscale>
<asrwt>0</asrwt>
<pdfrwt beam="1">  1       21 0.78090504E-01 0.10349941E+04</pdfrwt>
<pdfrwt beam="2">  1       -4 0.16742727E+00 0.10349941E+04</pdfrwt>
<totfact> 0.12151444E+01</totfact>
</mgrwt>
</event>
<event>
 6    2  0.2267664E-005  0.1037988E+04  0.7818608E-02  0.9601687E-01
         21   -1    0    0  501  502  0.00000000000E+00  0.00000000000E+00  0.61342243439E+03  0.61342243439E+03  0.00000000000E+00 0. -1.
         -4   -1    0    0    0  501 -0.00000000000E+00 -0.00000000000E+00 -0.81071987160E+03  0.81071987160E+03  0.00000000000E+00 0. -1.
   -9000010    2    1    2    0  502 -0.30192523713E+03 -0.97754371457E+02  0.22283691684E+02  0.10382269665E+04  0.98828331213E+03 0.  0.
         13    1    3    3    0    0 -0.27630493899E+03 -0.49200503824E+03 -0.18271593294E+03  0.59312604080E+03  0.10566000000E+00 0. -1.
         -4    1    3    3    0  502 -0.25620298137E+02  0.39425066678E+03  0.20499962462E+03  0.44510092567E+03  0.00000000000E+00 0. -1.
        -13    1    1    2    0    0  0.30192523713E+03  0.97754371457E+02 -0.21958112890E+03  0.38591533953E+03  0.10566000000E+00 0.  1.
<mgrwt>
<rscale>  1 0.77184632E+03</rscale>
<asrwt>0</asrwt>
<pdfrwt beam="1">  1       21 0.94372683E-01 0.10379878E+04</pdfrwt>
<pdfrwt beam="2">  1       -4 0.12472613E+00 0.10379878E+04</pdfrwt>
<totfact> 0.16909592E+01</totfact>
</mgrwt>
</event>
<event>
 6    2  0.2267664E-005  0.9428167E+03  0.7818608E-02  0.1035148E+00
         21   -1    0    0  501  502  0.00000000000E+00  0.00000000000E+00  0.12637278079E+04  0.12637278079E+04  0.00000000000E+00 0. -1.
         -4   -1    0    0    0  501 -0.00000000000E+00 -0.00000000000E+00 -0.24650995109E+03  0.24650995109E+03  0.00000000000E+00 0. -1.
   -9000010    2    1    2    0  502 -0.68482280977E+01 -0.38675234710E+02  0.10815887931E+04  0.14348301957E+04  0.94199824910E+03 0.  0.
         13    1    3    3    0    0  0.43173534772E+03  0.15413022461E+03  0.60495974167E+03  0.75903085367E+03  0.10566000000E+00 0. -1.
         -4    1    3    3    0  502 -0.43858357581E+03 -0.19280545932E+03  0.47662905139E+03  0.67579934208E+03  0.00000000000E+00 0. -1.
        -13    1    1    2    0    0  0.68482280977E+01  0.38675234710E+02 -0.64370936215E+02  0.75407563289E+02  0.10566000000E+00 0.  1.
<mgrwt>
<rscale>  1 0.42594650E+03</rscale>
<asrwt>0</asrwt>
<pdfrwt beam="1">  1       21 0.19441966E+00 0.94281672E+03</pdfrwt>
<pdfrwt beam="2">  1       -4 0.37924609E-01 0.94281672E+03</pdfrwt>
<totfact> 0.34729059E+01</totfact>
</mgrwt>
</event>
<event>
 6    2  0.2267664E-005  0.1019689E+04  0.7818608E-02  0.9838393E-01
         21   -1    0    0  501  502  0.00000000000E+00  0.00000000000E+00  0.15416291663E+03  0.15416291663E+03  0.00000000000E+00 0. -1.
         -4   -1    0    0    0  501 -0.00000000000E+00 -0.00000000000E+00 -0.23059142005E+04  0.23059142005E+04  0.00000000000E+00 0. -1.
   -9000010    2    1    2    0  502  0.15028207369E+03 -0.21655727082E+02 -0.16877857516E+04  0.19718991798E+04  0.10083213574E+04 0.  0.
         13    1    3    3    0    0 -0.23324632345E+03 -0.28856886937E+02  0.61182357680E+01  0.23510425623E+03  0.10566000000E+00 0. -1.
         -4    1    3    3    0  502  0.38352839714E+03  0.72011598547E+01 -0.16939039874E+04  0.17367949236E+04  0.00000000000E+00 0. -1.
        -13    1    1    2    0    0 -0.15028207369E+03  0.21655727082E+02 -0.46396553225E+03  0.48817793730E+03  0.10566000000E+00 0.  1.
<mgrwt>
<rscale>  1 0.63342228E+03</rscale>
<asrwt>0</asrwt>
<pdfrwt beam="1">  1       21 0.23717373E-01 0.10196890E+04</pdfrwt>
<pdfrwt beam="2">  1       -4 0.35475601E+00 0.10196890E+04</pdfrwt>
<totfact> 0.97350385E+00</totfact>
</mgrwt>
</event>
<event>
 6    2  0.2267664E-005  0.1003161E+04  0.7818608E-02  0.9974827E-01
         -4   -1    0    0    0  501 -0.00000000000E+00  0.00000000000E+00  0.43179513171E+03  0.43179513171E+03  0.00000000000E+00 0. -1.
         21   -1    0    0  501  502  0.00000000000E+00 -0.00000000000E+00 -0.94603268931E+03  0.94603268931E+03  0.00000000000E+00 0. -1.
   -9000010    2    1    2    0  502  0.83044574566E+02  0.60716067138E+02 -0.65898552717E+03  0.12002473378E+04  0.99787218852E+03 0.  0.
         13    1    3    3    0    0 -0.24835795957E+03 -0.33609860813E+03 -0.82639885390E+02  0.42599684540E+03  0.10566000000E+00 0. -1.
         -4    1    3    3    0  502  0.33140253414E+03  0.39681467527E+03 -0.57634564178E+03  0.77425049237E+03  0.00000000000E+00 0. -1.
        -13    1    1    2    0    0 -0.83044574566E+02 -0.60716067138E+02  0.14474796957E+03  0.17758048325E+03  0.10566000000E+00 0.  1.
<mgrwt>
<rscale>  1 0.56767960E+03</rscale>
<asrwt>0</asrwt>
<pdfrwt beam="2">  1       21 0.14554349E+00 0.10031609E+04</pdfrwt>
<pdfrwt beam="1">  1       -4 0.66430021E-01 0.10031609E+04</pdfrwt>
<totfact> 0.24571642E+01</totfact>
</mgrwt>
</event>
<event>
 6    2  0.2267664E-005  0.1063151E+04  0.7818608E-02  0.9528410E-01
         21   -1    0    0  501  502  0.00000000000E+00  0.00000000000E+00  0.65924512226E+03  0.65924512226E+03  0.00000000000E+00 0. -1.
         -4   -1    0    0    0  501 -0.00000000000E+00 -0.00000000000E+00 -0.80798407711E+03  0.80798407711E+03  0.00000000000E+00 0. -1.
   -9000010    2    1    2    0  502 -0.44401427763E+02 -0.37772100595E+03 -0.12447467068E+02  0.10632242168E+04  0.99279713469E+03 0.  0.
         13    1    3    3    0    0  0.38524613575E+03  0.93602879259E+02  0.11511317995E+03  0.41282822030E+03  0.10566000000E+00 0. -1.
         -4    1    3    3    0  502 -0.42964756351E+03 -0.47132388521E+03 -0.12756064701E+03  0.65039599650E+03  0.00000000000E+00 0. -1.
        -13    1    1    2    0    0  0.44401427763E+02  0.37772100595E+03 -0.13629148779E+03  0.40400498256E+03  0.10566000000E+00 0.  1.
<mgrwt>
<rscale>  1 0.82221259E+03</rscale>
<asrwt>0</asrwt>
<pdfrwt beam="1">  1       21 0.10142233E+00 0.10631514E+04</pdfrwt>
<pdfrwt beam="2">  1       -4 0.12430524E+00 0.10631514E+04</pdfrwt>
<totfact> 0.14243592E+01</totfact>
</mgrwt>
</event>
<event>
 6    2  0.2267664E-005  0.1164923E+04  0.7818608E-02  0.9325302E-01
         -4   -1    0    0    0  501 -0.00000000000E+00  0.00000000000E+00  0.24133767496E+04  0.24133767496E+04  0.00000000000E+00 0. -1.
         21   -1    0    0  501  502  0.00000000000E+00 -0.00000000000E+00 -0.67014141752E+03  0.67014141752E+03  0.00000000000E+00 0. -1.
   -9000010    2    1    2    0  502 -0.39372658570E+03 -0.44627950275E+03 -0.77979456287E+02  0.11675303448E+04  0.10014291245E+04 0.  0.
         13    1    3    3    0    0 -0.61246400353E+03 -0.37667359280E+03  0.25516800470E+03  0.76295863120E+03  0.10566000000E+00 0. -1.
         -4    1    3    3    0  502  0.21873741782E+03 -0.69605909946E+02 -0.33314746099E+03  0.40457171357E+03  0.00000000000E+00 0. -1.
        -13    1    1    2    0    0  0.39372658570E+03  0.44627950275E+03  0.18212147883E+04  0.19159878223E+04  0.10566000000E+00 0.  1.
<mgrwt>
<rscale>  1 0.98486551E+03</rscale>
<asrwt>0</asrwt>
<pdfrwt beam="2">  1       21 0.10309868E+00 0.11649233E+04</pdfrwt>
<pdfrwt beam="1">  1       -4 0.37128872E+00 0.11649233E+04</pdfrwt>
<totfact> 0.29837118E-01</totfact>
</mgrwt>
</event>
<event>
 6    2  0.2267664E-005  0.1050294E+04  0.7818608E-02  0.9596403E-01
         -4   -1    0    0    0  501 -0.00000000000E+00  0.00000000000E+00  0.90999219504E+03  0.90999219504E+03  0.00000000000E+00 0. -1.
         21   -1    0    0  501  502  0.00000000000E+00 -0.00000000000E+00 -0.26051501047E+04  0.26051501047E+04  0.00000000000E+00 0. -1.
   -9000010    2    1    2    0  502 -0.30509483950E+03 -0.64921732166E+02 -0.24677490494E+04  0.26819587828E+04  0.10029057032E+04 0.  0.
         13    1    3    3    0    0 -0.23829089733E+03  0.61280608958E+02 -0.25184436891E+04  0.25304340519E+04  0.10566000000E+00 0. -1.
         -4    1    3    3    0  502 -0.66803942173E+02 -0.12620234112E+03  0.50694639658E+02  0.15152473094E+03  0.00000000000E+00 0. -1.
        -13    1    1    2    0    0  0.30509483950E+03  0.64921732166E+02  0.77259113977E+03  0.83318351689E+03  0.10566000000E+00 0.  1.
<mgrwt>
<rscale>  1 0.77534679E+03</rscale>
<asrwt>0</asrwt>
<pdfrwt beam="2">  1       21 0.40079232E+00 0.10502940E+04</pdfrwt>
<pdfrwt beam="1">  1       -4 0.13999880E+00 0.10502940E+04</pdfrwt>
<totfact> 0.83276249E-02</totfact>
</mgrwt>
</event>
<event>
 6    2  0.2267664E-005  0.1089191E+04  0.7818608E-02  0.9461812E-01
         -4   -1    0    0    0  501 -0.00000000000E+00  0.00000000000E+00  0.13867259269E+04  0.13867259269E+04  0.00000000000E+00 0. -1.
         21   -1    0    0  501  502  0.00000000000E+00 -0.00000000000E+00 -0.47356927857E+03  0.47356927857E+03  0.00000000000E+00 0. -1.
   -9000010    2    1    2    0  502 -0.14667196586E+03  0.42184280455E+03  0.90093577910E+03  0.14135140755E+04  0.99341468997E+03 0.  0.
         13    1    3    3    0    0 -0.21221225252E+03 -0.92989121214E+01 -0.16033625209E+03  0.26613574503E+03  0.10566000000E+00 0. -1.
         -4    1    3    3    0  502  0.65540286659E+02  0.43114171667E+03  0.10612720312E+04  0.11473783305E+04  0.00000000000E+00 0. -1.
        -13    1    1    2    0    0  0.14667196586E+03 -0.42184280455E+03  0.12220869261E+02  0.44678113000E+03  0.10566000000E+00 0.  1.
<mgrwt>
<rscale>  1 0.87158776E+03</rscale>
<asrwt>0</asrwt>
<pdfrwt beam="2">  1       21 0.72856813E-01 0.10891909E+04</pdfrwt>
<pdfrwt beam="1">  1       -4 0.21334245E+00 0.10891909E+04</pdfrwt>
<totfact> 0.69087703E+00</totfact>
</mgrwt>
</event>
<event>
 6    2  0.2267664E-005  0.1018964E+04  0.7818608E-02  0.9775679E-01
         21   -1    0    0  501  502  0.00000000000E+00  0.00000000000E+00  0.55158044842E+03  0.55158044842E+03  0.00000000000E+00 0. -1.
         -4   -1    0    0    0  501 -0.00000000000E+00 -0.00000000000E+00 -0.80828457938E+03  0.80828457938E+03  0.00000000000E+00 0. -1.
   -9000010    2    1    2    0  502  0.16812150190E+03 -0.81657441636E+02  0.27935614384E+02  0.10193469329E+04  0.10016760923E+04 0.  0.
         13    1    3    3    0    0  0.14824153027E+03 -0.34763842765E+03 -0.37742016203E+03  0.53411049189E+03  0.10566000000E+00 0. -1.
         -4    1    3    3    0  502  0.19879971636E+02  0.26598098602E+03  0.40535577641E+03  0.48523644099E+03  0.00000000000E+00 0. -1.
        -13    1    1    2    0    0 -0.16812150190E+03  0.81657441636E+02 -0.28463974535E+03  0.34051809492E+03  0.10566000000E+00 0.  1.
<mgrwt>
<rscale>  1 0.66684256E+03</rscale>
<asrwt>0</asrwt>
<pdfrwt beam="1">  1       21 0.84858530E-01 0.10189641E+04</pdfrwt>
<pdfrwt beam="2">  1       -4 0.12435147E+00 0.10189641E+04</pdfrwt>
<totfact> 0.22060791E+01</totfact>
</mgrwt>
</event>
<event>
 6    2  0.2267664E-005  0.1005231E+04  0.7818608E-02  0.1000835E+00
         -4   -1    0    0    0  501 -0.00000000000E+00  0.00000000000E+00  0.11285801441E+04  0.11285801441E+04  0.00000000000E+00 0. -1.
         21   -1    0    0  501  502  0.00000000000E+00 -0.00000000000E+00 -0.26760537620E+03  0.26760537620E+03  0.00000000000E+00 0. -1.
   -9000010    2    1    2    0  502 -0.87059235918E+02 -0.29651617422E+02  0.81047461475E+03  0.12912626648E+04  0.10010153043E+04 0.  0.
         13    1    3    3    0    0  0.32818288136E+02 -0.49117111015E+03  0.23971401966E+03  0.54752983651E+03  0.10566000000E+00 0. -1.
         -4    1    3    3    0  502 -0.11987752405E+03  0.46151949273E+03  0.57076059509E+03  0.74373282828E+03  0.00000000000E+00 0. -1.
        -13    1    1    2    0    0  0.87059235918E+02  0.29651617422E+02  0.50500153118E+02  0.10492285549E+03  0.10566000000E+00 0.  1.
<mgrwt>
<rscale>  1 0.55285535E+03</rscale>
<asrwt>0</asrwt>
<pdfrwt beam="2">  1       21 0.41170058E-01 0.10052314E+04</pdfrwt>
<pdfrwt beam="1">  1       -4 0.17362771E+00 0.10052314E+04</pdfrwt>
<totfact> 0.45341966E+01</totfact>
</mgrwt>
</event>
<event>
 6    2  0.2267664E-005  0.1025510E+04  0.7818608E-02  0.9734977E-01
         21   -1    0    0  501  502  0.00000000000E+00  0.00000000000E+00  0.11966939689E+04  0.11966939689E+04  0.00000000000E+00 0. -1.
         -4   -1    0    0    0  501 -0.00000000000E+00 -0.00000000000E+00 -0.37359928069E+03  0.37359928069E+03  0.00000000000E+00 0. -1.
   -9000010    2    1    2    0  502 -0.16373322490E+03  0.13122620926E+03  0.88170272174E+03  0.13524313675E+04  0.10038137413E+04 0.  0.
         13    1    3    3    0    0 -0.49857080606E+03  0.31842679217E+03  0.32100436600E+03  0.67306187292E+03  0.10566000000E+00 0. -1.
         -4    1    3    3    0  502  0.33483758116E+03 -0.18720058290E+03  0.56069835574E+03  0.67936949455E+03  0.00000000000E+00 0. -1.
        -13    1    1    2    0    0  0.16373322490E+03 -0.13122620926E+03 -0.58608033510E+02  0.21786188214E+03  0.10566000000E+00 0.  1.
<mgrwt>
<rscale>  1 0.68971898E+03</rscale>
<asrwt>0</asrwt>
<pdfrwt beam="1">  1       21 0.18410676E+00 0.10255101E+04</pdfrwt>
<pdfrwt beam="2">  1       -4 0.57476813E-01 0.10255101E+04</pdfrwt>
<totfact> 0.17061240E+01</totfact>
</mgrwt>
</event>
<event>
 6    2  0.2267664E-005  0.1051516E+04  0.7818608E-02  0.9603110E-01
         21   -1    0    0  501  502  0.00000000000E+00  0.00000000000E+00  0.13479923188E+04  0.13479923188E+04  0.00000000000E+00 0. -1.
         -4   -1    0    0    0  501 -0.00000000000E+00 -0.00000000000E+00 -0.34076345247E+03  0.34076345247E+03  0.00000000000E+00 0. -1.
   -9000010    2    1    2    0  502  0.15297216013E+03  0.26245468522E+03  0.79364075151E+03  0.13174030582E+04  0.10066788126E+04 0.  0.
         13    1    3    3    0    0  0.32463460623E+03 -0.28704409226E+03  0.16162275731E+03  0.46249742195E+03  0.10566000000E+00 0. -1.
         -4    1    3    3    0  502 -0.17166244611E+03  0.54949877749E+03  0.63201799419E+03  0.85490563623E+03  0.00000000000E+00 0. -1.
        -13    1    1    2    0    0 -0.15297216013E+03 -0.26245468522E+03  0.21358811484E+03  0.37135271311E+03  0.10566000000E+00 0.  1.
<mgrwt>
<rscale>  1 0.77090701E+03</rscale>
<asrwt>0</asrwt>
<pdfrwt beam="1">  1       21 0.20738343E+00 0.10515157E+04</pdfrwt>
<pdfrwt beam="2">  1       -4 0.52425147E-01 0.10515157E+04</pdfrwt>
<totfact> 0.14265000E+01</totfact>
</mgrwt>
</event>
<event>
 6    2  0.2267664E-005  0.1055415E+04  0.7818608E-02  0.9678982E-01
         -4   -1    0    0    0  501 -0.00000000000E+00  0.00000000000E+00  0.11549645502E+04  0.11549645502E+04  0.00000000000E+00 0. -1.
         21   -1    0    0  501  502  0.00000000000E+00 -0.00000000000E+00 -0.37588681212E+03  0.37588681212E+03  0.00000000000E+00 0. -1.
   -9000010    2    1    2    0  502  0.48147693211E+02  0.22714815638E+03  0.50015102007E+03  0.11679262867E+04  0.10295563525E+04 0.  0.
         13    1    3    3    0    0  0.32185022063E+03  0.13227483916E+03  0.72304400969E+03  0.80241937209E+03  0.10566000000E+00 0. -1.
         -4    1    3    3    0  502 -0.27370252741E+03  0.94873317214E+02 -0.22289298961E+03  0.36550691464E+03  0.00000000000E+00 0. -1.
        -13    1    1    2    0    0 -0.48147693211E+02 -0.22714815638E+03  0.27892671797E+03  0.36292507555E+03  0.10566000000E+00 0.  1.
<mgrwt>
<rscale>  1 0.72282079E+03</rscale>
<asrwt>0</asrwt>
<pdfrwt beam="2">  1       21 0.57828741E-01 0.10554150E+04</pdfrwt>
<pdfrwt beam="1">  1       -4 0.17768685E+00 0.10554150E+04</pdfrwt>
<totfact> 0.20302017E+01</totfact>
</mgrwt>
</event>
<event>
 6    2  0.2267664E-005  0.1038749E+04  0.7818608E-02  0.9712979E-01
         21   -1    0    0  501  502  0.00000000000E+00  0.00000000000E+00  0.75176670732E+03  0.75176670732E+03  0.00000000000E+00 0. -1.
         -4   -1    0    0    0  501 -0.00000000000E+00 -0.00000000000E+00 -0.69092681184E+03  0.69092681184E+03  0.00000000000E+00 0. -1.
   -9000010    2    1    2    0  502 -0.17947716216E+03 -0.12248181223E+03  0.33631530093E+03  0.10918366306E+04  0.10157683792E+04 0.  0.
         13    1    3    3    0    0 -0.49592067214E+03 -0.30187189928E+03  0.42247495026E+03  0.71801744504E+03  0.10566000000E+00 0. -1.
         -4    1    3    3    0  502  0.31644350998E+03  0.17939008704E+03 -0.86159649330E+02  0.37381918558E+03  0.00000000000E+00 0. -1.
        -13    1    1    2    0    0  0.17947716216E+03  0.12248181223E+03 -0.27547540544E+03  0.35085688854E+03  0.10566000000E+00 0.  1.
<mgrwt>
<rscale>  1 0.70249237E+03</rscale>
<asrwt>0</asrwt>
<pdfrwt beam="1">  1       21 0.11565642E+00 0.10387489E+04</pdfrwt>
<pdfrwt beam="2">  1       -4 0.10629643E+00 0.10387489E+04</pdfrwt>
<totfact> 0.15125268E+01</totfact>
</mgrwt>
</event>
<event>
 6    2  0.2267664E-005  0.1120605E+04  0.7818608E-02  0.9424361E-01
         21   -1    0    0  501  502  0.00000000000E+00  0.00000000000E+00  0.12318134945E+04  0.12318134945E+04  0.00000000000E+00 0. -1.
         -4   -1    0    0    0  501 -0.00000000000E+00 -0.00000000000E+00 -0.63734734220E+03  0.63734734220E+03  0.00000000000E+00 0. -1.
   -9000010    2    1    2    0  502 -0.15428444306E+02  0.46801589002E+03  0.78014217463E+03  0.13654223067E+04  0.10180763001E+04 0.  0.
         13    1    3    3    0    0  0.70055889311E+02  0.20693716146E+03 -0.23080848916E+03  0.31781029916E+03  0.10566000000E+00 0. -1.
         -4    1    3    3    0  502 -0.85484333617E+02  0.26107872856E+03  0.10109506638E+04  0.10476120076E+04  0.00000000000E+00 0. -1.
        -13    1    1    2    0    0  0.15428444306E+02 -0.46801589002E+03 -0.18567602229E+03  0.50373853002E+03  0.10566000000E+00 0.  1.
<mgrwt>
<rscale>  1 0.90097683E+03</rscale>
<asrwt>0</asrwt>
<pdfrwt beam="1">  1       21 0.18950977E+00 0.11206053E+04</pdfrwt>
<pdfrwt beam="2">  1       -4 0.98053437E-01 0.11206053E+04</pdfrwt>
<totfact> 0.45784334E+00</totfact>
</mgrwt>
</event>
<event>
 6    2  0.2267664E-005  0.1057801E+04  0.7818608E-02  0.9548530E-01
         21   -1    0    0  501  502  0.00000000000E+00  0.00000000000E+00  0.10104542019E+04  0.10104542019E+04  0.00000000000E+00 0. -1.
         -4   -1    0    0    0  501 -0.00000000000E+00 -0.00000000000E+00 -0.49924481300E+03  0.49924481300E+03  0.00000000000E+00 0. -1.
   -9000010    2    1    2    0  502  0.31008757754E+03 -0.18304455131E+03  0.34093507609E+03  0.11113863660E+04  0.99462722408E+03 0.  0.
         13    1    3    3    0    0 -0.34068844395E+01 -0.13249596942E+03 -0.33734903242E+03  0.36245161003E+03  0.10566000000E+00 0. -1.
         -4    1    3    3    0  502  0.31349446198E+03 -0.50548581886E+02  0.67828410851E+03  0.74893475596E+03  0.00000000000E+00 0. -1.
        -13    1    1    2    0    0 -0.31008757754E+03  0.18304455131E+03  0.17027431279E+03  0.39831264889E+03  0.10566000000E+00 0.  1.
<mgrwt>
<rscale>  1 0.80798561E+03</rscale>
<asrwt>0</asrwt>
<pdfrwt beam="1">  1       21 0.15545449E+00 0.10578010E+04</pdfrwt>
<pdfrwt beam="2">  1       -4 0.76806895E-01 0.10578010E+04</pdfrwt>
<totfact> 0.14664222E+01</totfact>
</mgrwt>
</event>
<event>
 6    2  0.2267664E-005  0.1016501E+04  0.7818608E-02  0.9716526E-01
         21   -1    0    0  501  502  0.00000000000E+00  0.00000000000E+00  0.12339725355E+04  0.12339725355E+04  0.00000000000E+00 0. -1.
         -4   -1    0    0    0  501 -0.00000000000E+00 -0.00000000000E+00 -0.32064494182E+03  0.32064494182E+03  0.00000000000E+00 0. -1.
   -9000010    2    1    2    0  502  0.12813137179E+03 -0.18996298553E+03  0.82457885967E+03  0.13088941913E+04  0.99033838863E+03 0.  0.
         13    1    3    3    0    0  0.33547225890E+03  0.29492860840E+03  0.19435580344E+03  0.48713315433E+03  0.10566000000E+00 0. -1.
         -4    1    3    3    0  502 -0.20734088712E+03 -0.48489159394E+03  0.63022305623E+03  0.82176103701E+03  0.00000000000E+00 0. -1.
        -13    1    1    2    0    0 -0.12813137179E+03  0.18996298553E+03  0.88748733974E+02  0.24572328594E+03  0.10566000000E+00 0.  1.
<mgrwt>
<rscale>  1 0.70041332E+03</rscale>
<asrwt>0</asrwt>
<pdfrwt beam="1">  1       21 0.18984193E+00 0.10165007E+04</pdfrwt>
<pdfrwt beam="2">  1       -4 0.49329992E-01 0.10165007E+04</pdfrwt>
<totfact> 0.21546261E+01</totfact>
</mgrwt>
</event>
<event>
 6    2  0.2267664E-005  0.1011228E+04  0.7818608E-02  0.9788922E-01
         21   -1    0    0  501  502  0.00000000000E+00  0.00000000000E+00  0.33469657086E+03  0.33469657086E+03  0.00000000000E+00 0. -1.
         -4   -1    0    0    0  501 -0.00000000000E+00 -0.00000000000E+00 -0.10842913268E+04  0.10842913268E+04  0.00000000000E+00 0. -1.
   -9000010    2    1    2    0  502 -0.11086500050E+03  0.14566724430E+03 -0.56211462762E+03  0.11569596471E+04  0.99452138040E+03 0.  0.
         13    1    3    3    0    0 -0.25484688064E+03 -0.33166809046E+03 -0.50407781736E+03  0.65501535243E+03  0.10566000000E+00 0. -1.
         -4    1    3    3    0  502  0.14398188014E+03  0.47733533476E+03 -0.58036810255E+02  0.50194429468E+03  0.00000000000E+00 0. -1.
        -13    1    1    2    0    0  0.11086500050E+03 -0.14566724430E+03 -0.18748012829E+03  0.26202825051E+03  0.10566000000E+00 0.  1.
<mgrwt>
<rscale>  1 0.65960470E+03</rscale>
<asrwt>0</asrwt>
<pdfrwt beam="1">  1       21 0.51491780E-01 0.10112283E+04</pdfrwt>
<pdfrwt beam="2">  1       -4 0.16681405E+00 0.10112283E+04</pdfrwt>
<totfact> 0.31451959E+01</totfact>
</mgrwt>
</event>
<event>
 6    2  0.2267664E-005  0.1022043E+04  0.7818608E-02  0.9747330E-01
         -4   -1    0    0    0  501 -0.00000000000E+00  0.00000000000E+00  0.12465293392E+04  0.12465293392E+04  0.00000000000E+00 0. -1.
         21   -1    0    0  501  502  0.00000000000E+00 -0.00000000000E+00 -0.39336405239E+03  0.39336405239E+03  0.00000000000E+00 0. -1.
   -9000010    2    1    2    0  502  0.18600858294E+03  0.82402455784E+02  0.32273858573E+03  0.10717896563E+04  0.10015904927E+04 0.  0.
         13    1    3    3    0    0  0.32175898209E+03  0.42191074683E+03  0.43840905710E+03  0.68828775476E+03  0.10566000000E+00 0. -1.
         -4    1    3    3    0  502 -0.13575039915E+03 -0.33950829104E+03 -0.11567047136E+03  0.38350190156E+03  0.00000000000E+00 0. -1.
        -13    1    1    2    0    0 -0.18600858294E+03 -0.82402455784E+02  0.53042670107E+03  0.56810373527E+03  0.10566000000E+00 0.  1.
<mgrwt>
<rscale>  1 0.68267363E+03</rscale>
<asrwt>0</asrwt>
<pdfrwt beam="2">  1       21 0.60517547E-01 0.10220435E+04</pdfrwt>
<pdfrwt beam="1">  1       -4 0.19177374E+00 0.10220435E+04</pdfrwt>
<totfact> 0.14724931E+01</totfact>
</mgrwt>
</event>
<event>
 6    2  0.2267664E-005  0.1008600E+04  0.7818608E-02  0.9926666E-01
         21   -1    0    0  501  502  0.00000000000E+00  0.00000000000E+00  0.21195304869E+03  0.21195304869E+03  0.00000000000E+00 0. -1.
         -4   -1    0    0    0  501 -0.00000000000E+00 -0.00000000000E+00 -0.15777452041E+04  0.15777452041E+04  0.00000000000E+00 0. -1.
   -9000010    2    1    2    0  502  0.42022800055E+01  0.11791464525E+03 -0.10660106845E+04  0.14675329782E+04  0.10016749671E+04 0.  0.
         13    1    3    3    0    0  0.71137291352E+02 -0.30491562775E+03  0.60461903332E+01  0.31316229315E+03  0.10566000000E+00 0. -1.
         -4    1    3    3    0  502 -0.66935011347E+02  0.42283027300E+03 -0.10720568748E+04  0.11543706850E+04  0.00000000000E+00 0. -1.
        -13    1    1    2    0    0 -0.42022800055E+01 -0.11791464525E+03 -0.29978147086E+03  0.32216527460E+03  0.10566000000E+00 0.  1.
<mgrwt>
<rscale>  1 0.58986164E+03</rscale>
<asrwt>0</asrwt>
<pdfrwt beam="1">  1       21 0.32608162E-01 0.10086001E+04</pdfrwt>
<pdfrwt beam="2">  1       -4 0.24273003E+00 0.10086001E+04</pdfrwt>
<totfact> 0.25842451E+01</totfact>
</mgrwt>
</event>
<event>
 6    2  0.2267664E-005  0.1055028E+04  0.7818608E-02  0.9585709E-01
         21   -1    0    0  501  502  0.00000000000E+00  0.00000000000E+00  0.26147034117E+03  0.26147034117E+03  0.00000000000E+00 0. -1.
         -4   -1    0    0    0  501 -0.00000000000E+00 -0.00000000000E+00 -0.18083451228E+04  0.18083451228E+04  0.00000000000E+00 0. -1.
   -9000010    2    1    2    0  502  0.31432682741E+03  0.55850288849E+02 -0.11540625151E+04  0.15636316070E+04  0.10055659622E+04 0.  0.
         13    1    3    3    0    0  0.10434811786E+03  0.48131903976E+03 -0.27341637069E+03  0.56330548609E+03  0.10566000000E+00 0. -1.
         -4    1    3    3    0  502  0.20997870955E+03 -0.42546875091E+03 -0.88064614445E+03  0.10003261209E+04  0.00000000000E+00 0. -1.
        -13    1    1    2    0    0 -0.31432682741E+03 -0.55850288849E+02 -0.39281226654E+03  0.50618385701E+03  0.10566000000E+00 0.  1.
<mgrwt>
<rscale>  1 0.78249336E+03</rscale>
<asrwt>0</asrwt>
<pdfrwt beam="1">  1       21 0.40226205E-01 0.10550277E+04</pdfrwt>
<pdfrwt beam="2">  1       -4 0.27820695E+00 0.10550277E+04</pdfrwt>
<totfact> 0.10058902E+01</totfact>
</mgrwt>
</event>
<event>
 6    2  0.2267664E-005  0.1010549E+04  0.7818608E-02  0.1008227E+00
         -4   -1    0    0    0  501 -0.00000000000E+00  0.00000000000E+00  0.15006745196E+04  0.15006745196E+04  0.00000000000E+00 0. -1.
         21   -1    0    0  501  502  0.00000000000E+00 -0.00000000000E+00 -0.20734428490E+03  0.20734428490E+03  0.00000000000E+00 0. -1.
   -9000010    2    1    2    0  502 -0.71084124195E+02 -0.10571401059E+02  0.10627920319E+04  0.14665388232E+04  0.10079903322E+04 0.  0.
         13    1    3    3    0    0 -0.18060628924E+03 -0.31803146757E+03  0.10794537551E+04  0.11397293831E+04  0.10566000000E+00 0. -1.
         -4    1    3    3    0  502  0.10952216504E+03  0.30746006651E+03 -0.16661723248E+02  0.32680944013E+03  0.00000000000E+00 0. -1.
        -13    1    1    2    0    0  0.71084124195E+02  0.10571401059E+02  0.23053820282E+03  0.24147998127E+03  0.10566000000E+00 0.  1.
<mgrwt>
<rscale>  1 0.52185380E+03</rscale>
<asrwt>0</asrwt>
<pdfrwt beam="2">  1       21 0.31899122E-01 0.10105490E+04</pdfrwt>
<pdfrwt beam="1">  1       -4 0.23087300E+00 0.10105490E+04</pdfrwt>
<totfact> 0.32052090E+01</totfact>
</mgrwt>
</event>
<event>
 6    2  0.2267664E-005  0.1162893E+04  0.7818608E-02  0.9353254E-01
         -4   -1    0    0    0  501 -0.00000000000E+00  0.00000000000E+00  0.58489672683E+03  0.58489672683E+03  0.00000000000E+00 0. -1.
         21   -1    0    0  501  502  0.00000000000E+00 -0.00000000000E+00 -0.12429890640E+04  0.12429890640E+04  0.00000000000E+00 0.  1.
   -9000010    2    1    2    0  502  0.44211273655E+03 -0.31117693557E+03 -0.48778391243E+03  0.12610527221E+04  0.10295756727E+04 0.  0.
         13    1    3    3    0    0  0.21269326911E+03 -0.68662565491E+03 -0.35342732564E+03  0.80100193657E+03  0.10566000000E+00 0. -1.
         -4    1    3    3    0  502  0.22941946744E+03  0.37544871935E+03 -0.13435658679E+03  0.46005078558E+03  0.00000000000E+00 0. -1.
        -13    1    1    2    0    0 -0.44211273655E+03  0.31117693557E+03 -0.17030842474E+03  0.56683306868E+03  0.10566000000E+00 0.  1.
<mgrwt>
<rscale>  1 0.96024605E+03</rscale>
<asrwt>0</asrwt>
<pdfrwt beam="2">  1       21 0.19122909E+00 0.11628933E+04</pdfrwt>
<pdfrwt beam="1">  1       -4 0.89984111E-01 0.11628933E+04</pdfrwt>
<totfact> 0.54330111E+00</totfact>
</mgrwt>
</event>
<event>
 6    2  0.2267664E-005  0.9793724E+03  0.7818608E-02  0.9670400E-01
         21   -1    0    0  501  502  0.00000000000E+00  0.00000000000E+00  0.14450171877E+04  0.14450171877E+04  0.00000000000E+00 0. -1.
         -4   -1    0    0    0  501 -0.00000000000E+00 -0.00000000000E+00 -0.40039528306E+03  0.40039528306E+03  0.00000000000E+00 0. -1.
   -9000010    2    1    2    0  502  0.21644539642E+03  0.20645619383E+03  0.11658838122E+04  0.15226474928E+04  0.93257576326E+03 0.  0.
         13    1    3    3    0    0  0.33255572578E+03  0.50842470113E+03  0.51760372238E+03  0.79812443395E+03  0.10566000000E+00 0. -1.
         -4    1    3    3    0  502 -0.11611032936E+03 -0.30196850730E+03  0.64828008977E+03  0.72452305883E+03  0.00000000000E+00 0. -1.
        -13    1    1    2    0    0 -0.21644539642E+03 -0.20645619383E+03 -0.12126190754E+03  0.32276497795E+03  0.10566000000E+00 0.  1.
<mgrwt>
<rscale>  1 0.72806854E+03</rscale>
<asrwt>0</asrwt>
<pdfrwt beam="1">  1       21 0.22231033E+00 0.97937241E+03</pdfrwt>
<pdfrwt beam="2">  1       -4 0.61599275E-01 0.97937241E+03</pdfrwt>
<totfact> 0.80878076E+00</totfact>
</mgrwt>
</event>
<event>
 6    2  0.2267664E-005  0.1009613E+04  0.7818608E-02  0.9927485E-01
         21   -1    0    0  501  502  0.00000000000E+00  0.00000000000E+00  0.23756334464E+03  0.23756334464E+03  0.00000000000E+00 0. -1.
         -4   -1    0    0    0  501 -0.00000000000E+00 -0.00000000000E+00 -0.13820408414E+04  0.13820408414E+04  0.00000000000E+00 0. -1.
   -9000010    2    1    2    0  502  0.85712442508E+02  0.80118214964E+02 -0.91812465379E+03  0.13646509122E+04  0.10027729958E+04 0.  0.
         13    1    3    3    0    0  0.18796223926E+03  0.26296684345E+03  0.89564747711E+02  0.33541499570E+03  0.10566000000E+00 0. -1.
         -4    1    3    3    0  502 -0.10224979675E+03 -0.18284862848E+03 -0.10076894015E+04  0.10292359165E+04  0.00000000000E+00 0. -1.
        -13    1    1    2    0    0 -0.85712442508E+02 -0.80118214964E+02 -0.22635284298E+03  0.25495327387E+03  0.10566000000E+00 0.  1.
<mgrwt>
<rscale>  1 0.58947525E+03</rscale>
<asrwt>0</asrwt>
<pdfrwt beam="1">  1       21 0.36548206E-01 0.10096134E+04</pdfrwt>
<pdfrwt beam="2">  1       -4 0.21262167E+00 0.10096134E+04</pdfrwt>
<totfact> 0.31693717E+01</totfact>
</mgrwt>
</event>
<event>
 6    2  0.2267664E-005  0.1040704E+04  0.7818608E-02  0.9522355E-01
         -4   -1    0    0    0  501 -0.00000000000E+00  0.00000000000E+00  0.15331421715E+04  0.15331421715E+04  0.00000000000E+00 0. -1.
         21   -1    0    0  501  502  0.00000000000E+00 -0.00000000000E+00 -0.38275404319E+03  0.38275404319E+03  0.00000000000E+00 0. -1.
   -9000010    2    1    2    0  502  0.22099575335E+03  0.35020040728E+03  0.52445820483E+03  0.11653845702E+04  0.95476978355E+03 0.  0.
         13    1    3    3    0    0  0.24487896310E+03 -0.23672731841E+03  0.46297528615E+03  0.57476226094E+03  0.10566000000E+00 0. -1.
         -4    1    3    3    0  502 -0.23883209753E+02  0.58692772570E+03  0.61482918684E+02  0.59062230926E+03  0.00000000000E+00 0. -1.
        -13    1    1    2    0    0 -0.22099575335E+03 -0.35020040728E+03  0.62592992350E+03  0.75051164452E+03  0.10566000000E+00 0.  1.
<mgrwt>
<rscale>  1 0.82655532E+03</rscale>
<asrwt>0</asrwt>
<pdfrwt beam="2">  1       21 0.58885238E-01 0.10407040E+04</pdfrwt>
<pdfrwt beam="1">  1       -4 0.23586802E+00 0.10407040E+04</pdfrwt>
<totfact> 0.80976051E+00</totfact>
</mgrwt>
</event>
<event>
 6    2  0.2267664E-005  0.9935830E+03  0.7818608E-02  0.9854163E-01
         -4   -1    0    0    0  501 -0.00000000000E+00  0.00000000000E+00  0.74964574730E+03  0.74964574730E+03  0.00000000000E+00 0. -1.
         21   -1    0    0  501  502  0.00000000000E+00 -0.00000000000E+00 -0.59986487219E+03  0.59986487219E+03  0.00000000000E+00 0. -1.
   -9000010    2    1    2    0  502 -0.15534312314E+03  0.13320690120E+02 -0.15649663530E+03  0.10058322070E+04  0.98127381755E+03 0.  0.
         13    1    3    3    0    0  0.30211893593E+03 -0.28158224385E+03  0.65246959932E+02  0.41811671629E+03  0.10566000000E+00 0. -1.
         -4    1    3    3    0  502 -0.45746205906E+03  0.29490293397E+03 -0.22174359523E+03  0.58771549067E+03  0.00000000000E+00 0. -1.
        -13    1    1    2    0    0  0.15534312314E+03 -0.13320690120E+02  0.30627751041E+03  0.34367841253E+03  0.10566000000E+00 0.  1.
<mgrwt>
<rscale>  1 0.62535103E+03</rscale>
<asrwt>0</asrwt>
<pdfrwt beam="2">  1       21 0.92286903E-01 0.99358303E+03</pdfrwt>
<pdfrwt beam="1">  1       -4 0.11533012E+00 0.99358303E+03</pdfrwt>
<totfact> 0.21840761E+01</totfact>
</mgrwt>
</event>
<event>
 6    2  0.2267664E-005  0.1014194E+04  0.7818608E-02  0.9740568E-01
         -4   -1    0    0    0  501 -0.00000000000E+00  0.00000000000E+00  0.98937677958E+03  0.98937677958E+03  0.00000000000E+00 0. -1.
         21   -1    0    0  501  502  0.00000000000E+00 -0.00000000000E+00 -0.39332194474E+03  0.39332194474E+03  0.00000000000E+00 0. -1.
   -9000010    2    1    2    0  502  0.15043817983E+03 -0.15069756188E+03  0.39061743565E+03  0.10868170972E+04  0.99158863480E+03 0.  0.
         13    1    3    3    0    0 -0.35939242281E+03 -0.14137747984E+03  0.42683070344E+03  0.57561703062E+03  0.10566000000E+00 0. -1.
         -4    1    3    3    0  502  0.50983060264E+03 -0.93200820430E+01 -0.36213267792E+02  0.51120006659E+03  0.00000000000E+00 0. -1.
        -13    1    1    2    0    0 -0.15043817983E+03  0.15069756188E+03  0.20543739919E+03  0.29588162710E+03  0.10566000000E+00 0.  1.
<mgrwt>
<rscale>  1 0.68651914E+03</rscale>
<asrwt>0</asrwt>
<pdfrwt beam="2">  1       21 0.60511069E-01 0.10141940E+04</pdfrwt>
<pdfrwt beam="1">  1       -4 0.15221181E+00 0.10141940E+04</pdfrwt>
<totfact> 0.28351567E+01</totfact>
</mgrwt>
</event>
<event>
 6    2  0.2267664E-005  0.1006862E+04  0.7818608E-02  0.1012119E+00
         -4   -1    0    0    0  501 -0.00000000000E+00  0.00000000000E+00  0.37079921776E+03  0.37079921776E+03  0.00000000000E+00 0. -1.
         21   -1    0    0  501  502  0.00000000000E+00 -0.00000000000E+00 -0.99224119359E+03  0.99224119359E+03  0.00000000000E+00 0. -1.
   -9000010    2    1    2    0  502  0.21140767986E+02 -0.60865466515E+02 -0.72524436154E+03  0.12408664226E+04  0.10047977696E+04 0.  0.
         13    1    3    3    0    0  0.24520541065E+03  0.35606978127E+03 -0.62021048136E+03  0.75602409677E+03  0.10566000000E+00 0. -1.
         -4    1    3    3    0  502 -0.22406464267E+03 -0.41693524778E+03 -0.10503388018E+03  0.48484232583E+03  0.00000000000E+00 0. -1.
        -13    1    1    2    0    0 -0.21140767986E+02  0.60865466515E+02  0.10380238570E+03  0.12217398875E+03  0.10566000000E+00 0.  1.
<mgrwt>
<rscale>  1 0.50641151E+03</rscale>
<asrwt>0</asrwt>
<pdfrwt beam="2">  1       21 0.15265249E+00 0.10068615E+04</pdfrwt>
<pdfrwt beam="1">  1       -4 0.57046033E-01 0.10068615E+04</pdfrwt>
<totfact> 0.30019801E+01</totfact>
</mgrwt>
</event>
<event>
 6    2  0.2267664E-005  0.1000769E+04  0.7818608E-02  0.9858488E-01
         21   -1    0    0  501  502  0.00000000000E+00  0.00000000000E+00  0.11742744919E+04  0.11742744919E+04  0.00000000000E+00 0. -1.
         -4   -1    0    0    0  501 -0.00000000000E+00 -0.00000000000E+00 -0.34630576102E+03  0.34630576102E+03  0.00000000000E+00 0. -1.
   -9000010    2    1    2    0  502 -0.10875887002E+03 -0.10395759430E+03  0.90700810361E+03  0.13506305343E+04  0.98939550588E+03 0.  0.
         13    1    3    3    0    0 -0.54118515555E+03  0.45363253452E+02  0.47867421396E+03  0.72392555669E+03  0.10566000000E+00 0. -1.
         -4    1    3    3    0  502  0.43242628553E+03 -0.14932084775E+03  0.42833388965E+03  0.62670497765E+03  0.00000000000E+00 0. -1.
        -13    1    1    2    0    0  0.10875887002E+03  0.10395759430E+03 -0.79039372780E+02  0.16994971854E+03  0.10566000000E+00 0.  1.
<mgrwt>
<rscale>  1 0.62316015E+03</rscale>
<asrwt>0</asrwt>
<pdfrwt beam="1">  1       21 0.18065761E+00 0.10007693E+04</pdfrwt>
<pdfrwt beam="2">  1       -4 0.53277810E-01 0.10007693E+04</pdfrwt>
<totfact> 0.21325334E+01</totfact>
</mgrwt>
</event>
<event>
 6    2  0.2267664E-005  0.9988493E+03  0.7818608E-02  0.9785920E-01
         21   -1    0    0  501  502  0.00000000000E+00  0.00000000000E+00  0.76134755612E+03  0.76134755612E+03  0.00000000000E+00 0. -1.
         -4   -1    0    0    0  501 -0.00000000000E+00 -0.00000000000E+00 -0.62608830684E+03  0.62608830684E+03  0.00000000000E+00 0. -1.
   -9000010    2    1    2    0  502  0.97866369493E+02  0.16499353852E+03  0.38676927695E+03  0.10711164054E+04  0.98025465383E+03 0.  0.
         13    1    3    3    0    0  0.60231631314E+02 -0.22657290185E+03 -0.23719529412E+03  0.33350374508E+03  0.10566000000E+00 0. -1.
         -4    1    3    3    0  502  0.37634738179E+02  0.39156644038E+03  0.62396457108E+03  0.73761266035E+03  0.00000000000E+00 0. -1.
        -13    1    1    2    0    0 -0.97866369493E+02 -0.16499353852E+03 -0.25151002766E+03  0.31631945753E+03  0.10566000000E+00 0.  1.
<mgrwt>
<rscale>  1 0.66123676E+03</rscale>
<asrwt>0</asrwt>
<pdfrwt beam="1">  1       21 0.11713039E+00 0.99884928E+03</pdfrwt>
<pdfrwt beam="2">  1       -4 0.96321278E-01 0.99884928E+03</pdfrwt>
<totfact> 0.18663602E+01</totfact>
</mgrwt>
</event>
<event>
 6    2  0.2267664E-005  0.1000075E+04  0.7818608E-02  0.9997321E-01
         -4   -1    0    0    0  501 -0.00000000000E+00  0.00000000000E+00  0.42276964571E+03  0.42276964571E+03  0.00000000000E+00 0. -1.
         21   -1    0    0  501  502  0.00000000000E+00 -0.00000000000E+00 -0.14876084013E+04  0.14876084013E+04  0.00000000000E+00 0. -1.
   -9000010    2    1    2    0  502  0.90076770827E+02  0.35179612384E+02 -0.13092632253E+04  0.16475192212E+04  0.99538834699E+03 0.  0.
         13    1    3    3    0    0 -0.37757682147E+03  0.27283567377E+03 -0.73058594425E+03  0.86646372925E+03  0.10566000000E+00 0. -1.
         -4    1    3    3    0  502  0.46765359230E+03 -0.23765606139E+03 -0.57867728106E+03  0.78105549196E+03  0.00000000000E+00 0. -1.
        -13    1    1    2    0    0 -0.90076770827E+02 -0.35179612384E+02  0.24442446969E+03  0.26285882583E+03  0.10566000000E+00 0.  1.
<mgrwt>
<rscale>  1 0.55767881E+03</rscale>
<asrwt>0</asrwt>
<pdfrwt beam="2">  1       21 0.22886283E+00 0.10000747E+04</pdfrwt>
<pdfrwt beam="1">  1       -4 0.65041484E-01 0.10000747E+04</pdfrwt>
<totfact> 0.64819650E+00</totfact>
</mgrwt>
</event>
<event>
 6    2  0.2267664E-005  0.1015022E+04  0.7818608E-02  0.9890239E-01
         -4   -1    0    0    0  501 -0.00000000000E+00  0.00000000000E+00  0.51800791653E+03  0.51800791653E+03  0.00000000000E+00 0. -1.
         21   -1    0    0  501  502  0.00000000000E+00 -0.00000000000E+00 -0.72811146602E+03  0.72811146602E+03  0.00000000000E+00 0. -1.
   -9000010    2    1    2    0  502  0.12633935700E+03  0.31180398776E+02 -0.33187520776E+03  0.10678998597E+04  0.10066454721E+04 0.  0.
         13    1    3    3    0    0  0.51259773900E+03  0.10192568829E+03  0.43786867398E+02  0.52446409685E+03  0.10566000000E+00 0. -1.
         -4    1    3    3    0  502 -0.38625838201E+03 -0.70745289511E+02 -0.37566207516E+03  0.54343576288E+03  0.00000000000E+00 0. -1.
        -13    1    1    2    0    0 -0.12633935700E+03 -0.31180398776E+02  0.12177165827E+03  0.17821952283E+03  0.10566000000E+00 0.  1.
<mgrwt>
<rscale>  1 0.60736671E+03</rscale>
<asrwt>0</asrwt>
<pdfrwt beam="2">  1       21 0.11201715E+00 0.10150217E+04</pdfrwt>
<pdfrwt beam="1">  1       -4 0.79693526E-01 0.10150217E+04</pdfrwt>
<totfact> 0.32539161E+01</totfact>
</mgrwt>
</event>
<event>
 6    2  0.2267664E-005  0.9947536E+03  0.7818608E-02  0.1030419E+00
         21   -1    0    0  501  502  0.00000000000E+00  0.00000000000E+00  0.88718153180E+03  0.88718153180E+03  0.00000000000E+00 0. -1.
         -4   -1    0    0    0  501 -0.00000000000E+00 -0.00000000000E+00 -0.32955831524E+03  0.32955831524E+03  0.00000000000E+00 0. -1.
   -9000010    2    1    2    0  502 -0.38397722997E+02  0.19711661588E+01  0.59825976612E+03  0.11607969212E+04  0.99401029868E+03 0.  0.
         13    1    3    3    0    0  0.42265419068E+03 -0.22463134111E+03  0.32874519211E+03  0.58066273930E+03  0.10566000000E+00 0. -1.
         -4    1    3    3    0  502 -0.46105191368E+03  0.22660250727E+03  0.26951457401E+03  0.58013418190E+03  0.00000000000E+00 0. -1.
        -13    1    1    2    0    0  0.38397722997E+02 -0.19711661588E+01 -0.40636549561E+02  0.55942925841E+02  0.10566000000E+00 0.  1.
<mgrwt>
<rscale>  1 0.44106876E+03</rscale>
<asrwt>0</asrwt>
<pdfrwt beam="1">  1       21 0.13648947E+00 0.99475361E+03</pdfrwt>
<pdfrwt beam="2">  1       -4 0.50701280E-01 0.99475361E+03</pdfrwt>
<totfact> 0.52618746E+01</totfact>
</mgrwt>
</event>
<event>
 6    2  0.2267664E-005  0.1095624E+04  0.7818608E-02  0.9450022E-01
         -4   -1    0    0    0  501 -0.00000000000E+00  0.00000000000E+00  0.73244657566E+03  0.73244657566E+03  0.00000000000E+00 0. -1.
         21   -1    0    0  501  502  0.00000000000E+00 -0.00000000000E+00 -0.98747165028E+03  0.98747165028E+03  0.00000000000E+00 0. -1.
   -9000010    2    1    2    0  502  0.65885177462E+02  0.45268303841E+03 -0.49623897934E+03  0.12027654933E+04  0.99555457780E+03 0.  0.
         13    1    3    3    0    0  0.99029632482E+02  0.51033967822E+03  0.15941108348E+03  0.54375119308E+03  0.10566000000E+00 0. -1.
         -4    1    3    3    0  502 -0.33144455019E+02 -0.57656639804E+02 -0.65565006283E+03  0.65901430022E+03  0.00000000000E+00 0. -1.
        -13    1    1    2    0    0 -0.65885177462E+02 -0.45268303841E+03  0.24121390473E+03  0.51715273264E+03  0.10566000000E+00 0.  1.
<mgrwt>
<rscale>  1 0.88070938E+03</rscale>
<asrwt>0</asrwt>
<pdfrwt beam="2">  1       21 0.15191872E+00 0.10956239E+04</pdfrwt>
<pdfrwt beam="1">  1       -4 0.11268409E+00 0.10956239E+04</pdfrwt>
<totfact> 0.62647812E+00</totfact>
</mgrwt>
</event>
<event>
 6    2  0.2267664E-005  0.1028935E+04  0.7818608E-02  0.9739318E-01
         21   -1    0    0  501  502  0.00000000000E+00  0.00000000000E+00  0.10469661674E+04  0.10469661674E+04  0.00000000000E+00 0. -1.
         -4   -1    0    0    0  501 -0.00000000000E+00 -0.00000000000E+00 -0.45857732010E+03  0.45857732010E+03  0.00000000000E+00 0. -1.
   -9000010    2    1    2    0  502 -0.56492374668E+02  0.19681663095E+03  0.72560878339E+03  0.12590531294E+04  0.10083543531E+04 0.  0.
         13    1    3    3    0    0  0.40162670797E+02  0.60658906151E+03  0.42840250435E+03  0.74370158435E+03  0.10566000000E+00 0. -1.
         -4    1    3    3    0  502 -0.96655045464E+02 -0.40977243056E+03  0.29720627904E+03  0.51535154503E+03  0.00000000000E+00 0. -1.
        -13    1    1    2    0    0  0.56492374668E+02 -0.19681663095E+03 -0.13721993610E+03  0.24649035811E+03  0.10566000000E+00 0.  1.
<mgrwt>
<rscale>  1 0.68723319E+03</rscale>
<asrwt>0</asrwt>
<pdfrwt beam="1">  1       21 0.16107172E+00 0.10289347E+04</pdfrwt>
<pdfrwt beam="2">  1       -4 0.70550357E-01 0.10289347E+04</pdfrwt>
<totfact> 0.16111514E+01</totfact>
</mgrwt>
</event>
<event>
 6    2  0.2267664E-005  0.9999677E+03  0.7818608E-02  0.9984324E-01
         -4   -1    0    0    0  501 -0.00000000000E+00  0.00000000000E+00  0.86833619227E+03  0.86833619227E+03  0.00000000000E+00 0. -1.
         21   -1    0    0  501  502  0.00000000000E+00 -0.00000000000E+00 -0.37203317008E+03  0.37203317008E+03  0.00000000000E+00 0. -1.
   -9000010    2    1    2    0  502  0.45319870111E+02 -0.90022044665E+02  0.34349955972E+03  0.10573208211E+04  0.99487562641E+03 0.  0.
         13    1    3    3    0    0  0.19788269367E+03 -0.18595970429E+02  0.66515983077E+03  0.69421969305E+03  0.10566000000E+00 0. -1.
         -4    1    3    3    0  502 -0.15256282356E+03 -0.71426074236E+02 -0.32166027105E+03  0.36310112805E+03  0.00000000000E+00 0. -1.
        -13    1    1    2    0    0 -0.45319870111E+02  0.90022044665E+02  0.15280346246E+03  0.18304854126E+03  0.10566000000E+00 0.  1.
<mgrwt>
<rscale>  1 0.56342979E+03</rscale>
<asrwt>0</asrwt>
<pdfrwt beam="2">  1       21 0.57235873E-01 0.99996769E+03</pdfrwt>
<pdfrwt beam="1">  1       -4 0.13359018E+00 0.99996769E+03</pdfrwt>
<totfact> 0.45357028E+01</totfact>
</mgrwt>
</event>
<event>
 6    2  0.2267664E-005  0.1013646E+04  0.7818608E-02  0.9839103E-01
         21   -1    0    0  501  502  0.00000000000E+00  0.00000000000E+00  0.58758425320E+03  0.58758425320E+03  0.00000000000E+00 0. -1.
         -4   -1    0    0    0  501 -0.00000000000E+00 -0.00000000000E+00 -0.64336968902E+03  0.64336968902E+03  0.00000000000E+00 0. -1.
   -9000010    2    1    2    0  502  0.13906993175E+03  0.66632893879E+02  0.91425130154E+02  0.10177607192E+04  0.10018472631E+04 0.  0.
         13    1    3    3    0    0  0.16877460315E+03  0.52589384400E+03  0.26120594984E+02  0.55292992185E+03  0.10566000000E+00 0. -1.
         -4    1    3    3    0  502 -0.29704671394E+02 -0.45926095012E+03  0.65304535169E+02  0.46483079731E+03  0.00000000000E+00 0. -1.
        -13    1    1    2    0    0 -0.13906993175E+03 -0.66632893879E+02 -0.14721056598E+03  0.21319322307E+03  0.10566000000E+00 0.  1.
<mgrwt>
<rscale>  1 0.63305602E+03</rscale>
<asrwt>0</asrwt>
<pdfrwt beam="1">  1       21 0.90397578E-01 0.10136461E+04</pdfrwt>
<pdfrwt beam="2">  1       -4 0.98979952E-01 0.10136461E+04</pdfrwt>
<totfact> 0.33322235E+01</totfact>
</mgrwt>
</event>
<event>
 6    2  0.2267664E-005  0.1039962E+04  0.7818608E-02  0.9917562E-01
         21   -1    0    0  501  502  0.00000000000E+00  0.00000000000E+00  0.35899159625E+03  0.35899159625E+03  0.00000000000E+00 0. -1.
         -4   -1    0    0    0  501 -0.00000000000E+00 -0.00000000000E+00 -0.10783493594E+04  0.10783493594E+04  0.00000000000E+00 0. -1.
   -9000010    2    1    2    0  502  0.10184920741E+03 -0.43673139673E+02 -0.42614660361E+03  0.11238869727E+04  0.10340408094E+04 0.  0.
         13    1    3    3    0    0  0.56637441674E+03  0.16133593577E+02 -0.28788877952E+03  0.63554719205E+03  0.10566000000E+00 0. -1.
         -4    1    3    3    0  502 -0.46452520933E+03 -0.59806733250E+02 -0.13825782408E+03  0.48833978065E+03  0.00000000000E+00 0. -1.
        -13    1    1    2    0    0 -0.10184920741E+03  0.43673139673E+02 -0.29321115959E+03  0.31345398299E+03  0.10566000000E+00 0.  1.
<mgrwt>
<rscale>  1 0.59417671E+03</rscale>
<asrwt>0</asrwt>
<pdfrwt beam="1">  1       21 0.55229477E-01 0.10399620E+04</pdfrwt>
<pdfrwt beam="2">  1       -4 0.16589990E+00 0.10399620E+04</pdfrwt>
<totfact> 0.27333869E+01</totfact>
</mgrwt>
</event>
<event>
 6    2  0.2267664E-005  0.1098353E+04  0.7818608E-02  0.9451826E-01
         21   -1    0    0  501  502  0.00000000000E+00  0.00000000000E+00  0.63257220337E+03  0.63257220337E+03  0.00000000000E+00 0.  1.
         -4   -1    0    0    0  501 -0.00000000000E+00 -0.00000000000E+00 -0.94979272127E+03  0.94979272127E+03  0.00000000000E+00 0. -1.
   -9000010    2    1    2    0  502 -0.43102726532E+03 -0.13328385437E+03 -0.20281572875E+03  0.11169215272E+04  0.10014141944E+04 0.  0.
         13    1    3    3    0    0 -0.20754818453E+03 -0.48050474184E+03 -0.40055463406E+03  0.65909413733E+03  0.10566000000E+00 0. -1.
         -4    1    3    3    0  502 -0.22347908079E+03  0.34722088747E+03  0.19773890531E+03  0.45782738987E+03  0.00000000000E+00 0. -1.
        -13    1    1    2    0    0  0.43102726532E+03  0.13328385437E+03 -0.11440478915E+03  0.46544339745E+03  0.10566000000E+00 0.  1.
<mgrwt>
<rscale>  1 0.87930618E+03</rscale>
<asrwt>0</asrwt>
<pdfrwt beam="1">  1       21 0.97318801E-01 0.10983531E+04</pdfrwt>
<pdfrwt beam="2">  1       -4 0.14612196E+00 0.10983531E+04</pdfrwt>
<totfact> 0.10322191E+01</totfact>
</mgrwt>
</event>
<event>
 6    2  0.2267664E-005  0.1012616E+04  0.7818608E-02  0.9866957E-01
         -4   -1    0    0    0  501 -0.00000000000E+00  0.00000000000E+00  0.26083908282E+03  0.26083908282E+03  0.00000000000E+00 0. -1.
         21   -1    0    0  501  502  0.00000000000E+00 -0.00000000000E+00 -0.14064954117E+04  0.14064954117E+04  0.00000000000E+00 0. -1.
   -9000010    2    1    2    0  502  0.13540570890E+03 -0.40383602507E+02 -0.11415830856E+04  0.15259762835E+04  0.10027093971E+04 0.  0.
         13    1    3    3    0    0  0.17263409045E+03 -0.21212297071E+03 -0.12758441752E+04  0.13048283621E+04  0.10566000000E+00 0. -1.
         -4    1    3    3    0  502 -0.37228381559E+02  0.17173936820E+03  0.13426108956E+03  0.22114792143E+03  0.00000000000E+00 0. -1.
        -13    1    1    2    0    0 -0.13540570890E+03  0.40383602507E+02 -0.40732432587E+01  0.14135821104E+03  0.10566000000E+00 0.  1.
<mgrwt>
<rscale>  1 0.61889765E+03</rscale>
<asrwt>0</asrwt>
<pdfrwt beam="2">  1       21 0.21638391E+00 0.10126163E+04</pdfrwt>
<pdfrwt beam="1">  1       -4 0.40129089E-01 0.10126163E+04</pdfrwt>
<totfact> 0.21769486E+01</totfact>
</mgrwt>
</event>
<event>
 6    2  0.2267664E-005  0.1035175E+04  0.7818608E-02  0.9626286E-01
         21   -1    0    0  501  502  0.00000000000E+00  0.00000000000E+00  0.15336916008E+04  0.15336916008E+04  0.00000000000E+00 0. -1.
         -4   -1    0    0    0  501 -0.00000000000E+00 -0.00000000000E+00 -0.30514104664E+03  0.30514104664E+03  0.00000000000E+00 0. -1.
   -9000010    2    1    2    0  502 -0.42887404789E+02  0.29102782488E+03  0.11203969949E+04  0.15254100447E+04  0.99249677782E+03 0.  0.
         13    1    3    3    0    0 -0.45451560965E+03  0.13881658113E+03  0.93528079925E+03  0.10490970724E+04  0.10566000000E+00 0. -1.
         -4    1    3    3    0  502  0.41162820486E+03  0.15221124375E+03  0.18511619569E+03  0.47631297239E+03  0.00000000000E+00 0. -1.
        -13    1    1    2    0    0  0.42887404789E+02 -0.29102782488E+03  0.10815355921E+03  0.31342260269E+03  0.10566000000E+00 0.  1.
<mgrwt>
<rscale>  1 0.75580565E+03</rscale>
<asrwt>0</asrwt>
<pdfrwt beam="1">  1       21 0.23595255E+00 0.10351746E+04</pdfrwt>
<pdfrwt beam="2">  1       -4 0.46944777E-01 0.10351746E+04</pdfrwt>
<totfact> 0.11685195E+01</totfact>
</mgrwt>
</event>
<event>
 6    2  0.2267664E-005  0.1021642E+04  0.7818608E-02  0.9765148E-01
         -4   -1    0    0    0  501 -0.00000000000E+00  0.00000000000E+00  0.44031330770E+03  0.44031330770E+03  0.00000000000E+00 0. -1.
         21   -1    0    0  501  502  0.00000000000E+00 -0.00000000000E+00 -0.87098723502E+03  0.87098723502E+03  0.00000000000E+00 0. -1.
   -9000010    2    1    2    0  502 -0.19122380197E+03 -0.17289033489E+02 -0.25952556415E+03  0.10540900715E+04  0.10034375453E+04 0.  0.
         13    1    3    3    0    0 -0.59015670800E+03 -0.11043360119E+03 -0.75980010363E+02  0.60518880807E+03  0.10566000000E+00 0. -1.
         -4    1    3    3    0  502  0.39893290604E+03  0.93144567702E+02 -0.18354555379E+03  0.44890126345E+03  0.00000000000E+00 0. -1.
        -13    1    1    2    0    0  0.19122380197E+03  0.17289033489E+02 -0.17114836317E+03  0.25721047120E+03  0.10566000000E+00 0.  1.
<mgrwt>
<rscale>  1 0.67266924E+03</rscale>
<asrwt>0</asrwt>
<pdfrwt beam="2">  1       21 0.13399804E+00 0.10216420E+04</pdfrwt>
<pdfrwt beam="1">  1       -4 0.67740509E-01 0.10216420E+04</pdfrwt>
<totfact> 0.29408925E+01</totfact>
</mgrwt>
</event>
<event>
 6    2  0.2267664E-005  0.1015294E+04  0.7818608E-02  0.9884071E-01
         -4   -1    0    0    0  501 -0.00000000000E+00  0.00000000000E+00  0.66981233207E+03  0.66981233207E+03  0.00000000000E+00 0. -1.
         21   -1    0    0  501  502  0.00000000000E+00 -0.00000000000E+00 -0.61024687083E+03  0.61024687083E+03  0.00000000000E+00 0. -1.
   -9000010    2    1    2    0  502  0.13259348873E+03  0.34395305172E+01 -0.15574785835E+03  0.10271704914E+04  0.10065927476E+04 0.  0.
         13    1    3    3    0    0  0.54648245210E+02  0.19674544975E+02 -0.58637519373E+03  0.58924476868E+03  0.10566000000E+00 0. -1.
         -4    1    3    3    0  502  0.77945243520E+02 -0.16235014458E+02  0.43062733538E+03  0.43792572277E+03  0.00000000000E+00 0. -1.
        -13    1    1    2    0    0 -0.13259348873E+03 -0.34395305172E+01  0.21531331959E+03  0.25288871145E+03  0.10566000000E+00 0.  1.
<mgrwt>
<rscale>  1 0.61039498E+03</rscale>
<asrwt>0</asrwt>
<pdfrwt beam="2">  1       21 0.93884135E-01 0.10152940E+04</pdfrwt>
<pdfrwt beam="1">  1       -4 0.10304805E+00 0.10152940E+04</pdfrwt>
<totfact> 0.27568643E+01</totfact>
</mgrwt>
</event>
<event>
 6    2  0.2267664E-005  0.1102537E+04  0.7818608E-02  0.9456882E-01
         21   -1    0    0  501  502  0.00000000000E+00  0.00000000000E+00  0.37647116129E+03  0.37647116129E+03  0.00000000000E+00 0. -1.
         -4   -1    0    0    0  501 -0.00000000000E+00 -0.00000000000E+00 -0.15980523296E+04  0.15980523296E+04  0.00000000000E+00 0. -1.
   -9000010    2    1    2    0  502  0.43084314716E+03  0.79677237156E+02 -0.76648969956E+03  0.13427936945E+04  0.10117381909E+04 0.  0.
         13    1    3    3    0    0  0.59698511391E+03 -0.21171963859E+03 -0.16573931751E+03  0.65474114284E+03  0.10566000000E+00 0. -1.
         -4    1    3    3    0  502 -0.16614196674E+03  0.29139687575E+03 -0.60075038206E+03  0.68805255166E+03  0.00000000000E+00 0. -1.
        -13    1    1    2    0    0 -0.43084314716E+03 -0.79677237156E+02 -0.45509146878E+03  0.63172979643E+03  0.10566000000E+00 0.  1.
<mgrwt>
<rscale>  1 0.87538751E+03</rscale>
<asrwt>0</asrwt>
<pdfrwt beam="1">  1       21 0.57918640E-01 0.11025373E+04</pdfrwt>
<pdfrwt beam="2">  1       -4 0.24585420E+00 0.11025373E+04</pdfrwt>
<totfact> 0.72254719E+00</totfact>
</mgrwt>
</event>
<event>
 6    2  0.2267664E-005  0.1003979E+04  0.7818608E-02  0.1011299E+00
         21   -1    0    0  501  502  0.00000000000E+00  0.00000000000E+00  0.49970467611E+03  0.49970467611E+03  0.00000000000E+00 0. -1.
         -4   -1    0    0    0  501 -0.00000000000E+00 -0.00000000000E+00 -0.84922048498E+03  0.84922048498E+03  0.00000000000E+00 0. -1.
   -9000010    2    1    2    0  502 -0.51238832944E+02  0.42624067186E+02 -0.11133345390E+02  0.10040412214E+04  0.10017647397E+04 0.  0.
         13    1    3    3    0    0  0.42167643129E+03 -0.12351482308E+03  0.16990650674E+03  0.47109994314E+03  0.10566000000E+00 0. -1.
         -4    1    3    3    0  502 -0.47291526424E+03  0.16613889027E+03 -0.18103985213E+03  0.53294127825E+03  0.00000000000E+00 0. -1.
        -13    1    1    2    0    0  0.51238832944E+02 -0.42624067186E+02 -0.33838246348E+03  0.34488393970E+03  0.10566000000E+00 0.  1.
<mgrwt>
<rscale>  1 0.50961698E+03</rscale>
<asrwt>0</asrwt>
<pdfrwt beam="1">  1       21 0.76877643E-01 0.10039795E+04</pdfrwt>
<pdfrwt beam="2">  1       -4 0.13064930E+00 0.10039795E+04</pdfrwt>
<totfact> 0.24576307E+01</totfact>
</mgrwt>
</event>
<event>
 6    2  0.2267664E-005  0.1050404E+04  0.7818608E-02  0.9597760E-01
         -4   -1    0    0    0  501 -0.00000000000E+00  0.00000000000E+00  0.33431163537E+03  0.33431163537E+03  0.00000000000E+00 0. -1.
         21   -1    0    0  501  502  0.00000000000E+00 -0.00000000000E+00 -0.19373990491E+04  0.19373990491E+04  0.00000000000E+00 0. -1.
   -9000010    2    1    2    0  502 -0.27034628859E+03  0.15247703314E+03 -0.16518338567E+04  0.19575250892E+04  0.10035003852E+04 0.  0.
         13    1    3    3    0    0 -0.62962219945E+03 -0.54593934775E+01 -0.78755113227E+03  0.10083108232E+04  0.10566000000E+00 0. -1.
         -4    1    3    3    0  502  0.35927591086E+03  0.15793642662E+03 -0.86428272446E+03  0.94921426600E+03  0.00000000000E+00 0. -1.
        -13    1    1    2    0    0  0.27034628859E+03 -0.15247703314E+03  0.48746443037E+02  0.31418559526E+03  0.10566000000E+00 0.  1.
<mgrwt>
<rscale>  1 0.77444607E+03</rscale>
<asrwt>0</asrwt>
<pdfrwt beam="2">  1       21 0.29806140E+00 0.10504044E+04</pdfrwt>
<pdfrwt beam="1">  1       -4 0.51432559E-01 0.10504044E+04</pdfrwt>
<totfact> 0.39041708E+00</totfact>
</mgrwt>
</event>
<event>
 6    2  0.2267664E-005  0.1185570E+04  0.7818608E-02  0.9294925E-01
         -4   -1    0    0    0  501 -0.00000000000E+00  0.00000000000E+00  0.42253668916E+03  0.42253668916E+03  0.00000000000E+00 0. -1.
         21   -1    0    0  501  502  0.00000000000E+00 -0.00000000000E+00 -0.19526256733E+04  0.19526256733E+04  0.00000000000E+00 0.  1.
   -9000010    2    1    2    0  502  0.27794933745E+03  0.56615066930E+03 -0.10218482052E+04  0.15651678470E+04  0.10038895459E+04 0.  0.
         13    1    3    3    0    0  0.48701682091E+03  0.99841789427E+02 -0.94083583798E+02  0.50596985945E+03  0.10566000000E+00 0. -1.
         -4    1    3    3    0  502 -0.20906748346E+03  0.46630887988E+03 -0.92776462144E+03  0.10591979876E+04  0.00000000000E+00 0. -1.
        -13    1    1    2    0    0 -0.27794933745E+03 -0.56615066930E+03 -0.50824077890E+03  0.80999451544E+03  0.10566000000E+00 0.  1.
<mgrwt>
<rscale>  1 0.10125143E+04</rscale>
<asrwt>0</asrwt>
<pdfrwt beam="2">  1       21 0.30040395E+00 0.11855702E+04</pdfrwt>
<pdfrwt beam="1">  1       -4 0.65005644E-01 0.11855702E+04</pdfrwt>
<totfact> 0.22222397E+00</totfact>
</mgrwt>
</event>
<event>
 6    2  0.2267664E-005  0.9800030E+03  0.7818608E-02  0.1002120E+00
         -4   -1    0    0    0  501 -0.00000000000E+00  0.00000000000E+00  0.69114773564E+03  0.69114773564E+03  0.00000000000E+00 0. -1.
         21   -1    0    0  501  502  0.00000000000E+00 -0.00000000000E+00 -0.43317038490E+03  0.43317038490E+03  0.00000000000E+00 0. -1.
   -9000010    2    1    2    0  502  0.95325348284E+02 -0.87629319114E+00  0.17008313036E+03  0.99465280113E+03  0.97535543965E+03 0.  0.
         13    1    3    3    0    0  0.23188160534E+03 -0.14582893207E+03  0.52244903470E+03  0.58990521387E+03  0.10566000000E+00 0. -1.
         -4    1    3    3    0  502 -0.13655625706E+03  0.14495263888E+03 -0.35236590433E+03  0.40474758727E+03  0.00000000000E+00 0. -1.
        -13    1    1    2    0    0 -0.95325348284E+02  0.87629319114E+00  0.87894220382E+02  0.12966531940E+03  0.10566000000E+00 0.  1.
<mgrwt>
<rscale>  1 0.54730235E+03</rscale>
<asrwt>0</asrwt>
<pdfrwt beam="2">  1       21 0.66641598E-01 0.98000302E+03</pdfrwt>
<pdfrwt beam="1">  1       -4 0.10633042E+00 0.98000302E+03</pdfrwt>
<totfact> 0.57307390E+01</totfact>
</mgrwt>
</event>
<event>
 6    2  0.2267664E-005  0.9566282E+03  0.7818608E-02  0.9826972E-01
         -4   -1    0    0    0  501 -0.00000000000E+00  0.00000000000E+00  0.14660729650E+04  0.14660729650E+04  0.00000000000E+00 0. -1.
         21   -1    0    0  501  502  0.00000000000E+00 -0.00000000000E+00 -0.22879764302E+03  0.22879764302E+03  0.00000000000E+00 0. -1.
   -9000010    2    1    2    0  502  0.63527106943E+02 -0.17998117395E+03  0.93699633564E+03  0.13390667335E+04  0.93739461679E+03 0.  0.
         13    1    3    3    0    0 -0.21483450955E+03  0.25371964252E+03  0.69354324094E+03  0.76910972020E+03  0.10566000000E+00 0. -1.
         -4    1    3    3    0  502  0.27836161649E+03 -0.43370081647E+03  0.24345309470E+03  0.56995701334E+03  0.00000000000E+00 0. -1.
        -13    1    1    2    0    0 -0.63527106943E+02  0.17998117395E+03  0.30027898638E+03  0.35580387451E+03  0.10566000000E+00 0.  1.
<mgrwt>
<rscale>  1 0.63934930E+03</rscale>
<asrwt>0</asrwt>
<pdfrwt beam="2">  1       21 0.35199638E-01 0.95662824E+03</pdfrwt>
<pdfrwt beam="1">  1       -4 0.22554968E+00 0.95662824E+03</pdfrwt>
<totfact> 0.28467077E+01</totfact>
</mgrwt>
</event>
<event>
 6    2  0.2267664E-005  0.8464735E+03  0.7818608E-02  0.1022472E+00
         21   -1    0    0  501  502  0.00000000000E+00  0.00000000000E+00  0.15792458542E+03  0.15792458542E+03  0.00000000000E+00 0. -1.
         -4   -1    0    0    0  501 -0.00000000000E+00 -0.00000000000E+00 -0.15942197083E+04  0.15942197083E+04  0.00000000000E+00 0. -1.
   -9000010    2    1    2    0  502 -0.26667742763E+02  0.74497934301E+02 -0.10065055188E+04  0.13151314499E+04  0.84276702617E+03 0.  0.
         13    1    3    3    0    0  0.62483277530E+02 -0.89901822563E+02 -0.11004239514E+04  0.11058568540E+04  0.10566000000E+00 0. -1.
         -4    1    3    3    0  502 -0.89151020293E+02  0.16439975686E+03  0.93918432616E+02  0.20927459583E+03  0.00000000000E+00 0. -1.
        -13    1    1    2    0    0  0.26667742763E+02 -0.74497934301E+02 -0.42978960416E+03  0.43701284389E+03  0.10566000000E+00 0.  1.
<mgrwt>
<rscale>  1 0.46804924E+03</rscale>
<asrwt>0</asrwt>
<pdfrwt beam="1">  1       21 0.24296090E-01 0.84647349E+03</pdfrwt>
<pdfrwt beam="2">  1       -4 0.24526457E+00 0.84647349E+03</pdfrwt>
<totfact> 0.45683315E+01</totfact>
</mgrwt>
</event>
<event>
 6    2  0.2267664E-005  0.1036522E+04  0.7818608E-02  0.9639694E-01
         21   -1    0    0  501  502  0.00000000000E+00  0.00000000000E+00  0.85350768463E+03  0.85350768463E+03  0.00000000000E+00 0. -1.
         -4   -1    0    0    0  501 -0.00000000000E+00 -0.00000000000E+00 -0.69814411010E+03  0.69814411010E+03  0.00000000000E+00 0. -1.
   -9000010    2    1    2    0  502  0.26966868121E+03 -0.75216561171E+02  0.46340657100E+03  0.11353955905E+04  0.99799737887E+03 0.  0.
         13    1    3    3    0    0  0.21084871727E+03  0.45407956805E+03  0.17919742665E+03  0.53174915569E+03  0.10566000000E+00 0. -1.
         -4    1    3    3    0  502  0.58819963938E+02 -0.52929612922E+03  0.28420914435E+03  0.60364643484E+03  0.00000000000E+00 0. -1.
        -13    1    1    2    0    0 -0.26966868121E+03  0.75216561171E+02 -0.30804299647E+03  0.41625620420E+03  0.10566000000E+00 0.  1.
<mgrwt>
<rscale>  1 0.74723744E+03</rscale>
<asrwt>0</asrwt>
<pdfrwt beam="1">  1       21 0.13130887E+00 0.10365218E+04</pdfrwt>
<pdfrwt beam="2">  1       -4 0.10740679E+00 0.10365218E+04</pdfrwt>
<totfact> 0.10577100E+01</totfact>
</mgrwt>
</event>
<event>
 6    2  0.2267664E-005  0.1081533E+04  0.7818608E-02  0.9486738E-01
         21   -1    0    0  501  502  0.00000000000E+00  0.00000000000E+00  0.42380029632E+03  0.42380029632E+03  0.00000000000E+00 0. -1.
         -4   -1    0    0    0  501 -0.00000000000E+00 -0.00000000000E+00 -0.17728717656E+04  0.17728717656E+04  0.00000000000E+00 0. -1.
   -9000010    2    1    2    0  502 -0.27853983286E+03  0.31149428010E+03 -0.38858173102E+03  0.11492210256E+04  0.99754703097E+03 0.  0.
         13    1    3    3    0    0  0.70239179139E+02 -0.28855431553E+03  0.85104020116E+02  0.30893339202E+03  0.10566000000E+00 0. -1.
         -4    1    3    3    0  502 -0.34877901200E+03  0.60004859563E+03 -0.47368575114E+03  0.84028763359E+03  0.00000000000E+00 0. -1.
        -13    1    1    2    0    0  0.27853983286E+03 -0.31149428010E+03 -0.96048973829E+03  0.10474510363E+04  0.10566000000E+00 0.  1.
<mgrwt>
<rscale>  1 0.85268650E+03</rscale>
<asrwt>0</asrwt>
<pdfrwt beam="1">  1       21 0.65200046E-01 0.10815328E+04</pdfrwt>
<pdfrwt beam="2">  1       -4 0.27274950E+00 0.10815328E+04</pdfrwt>
<totfact> 0.37870604E+00</totfact>
</mgrwt>
</event>
<event>
 6    2  0.2267664E-005  0.8152280E+03  0.7818608E-02  0.9769634E-01
         21   -1    0    0  501  502  0.00000000000E+00  0.00000000000E+00  0.79887758603E+03  0.79887758603E+03  0.00000000000E+00 0. -1.
         -4   -1    0    0    0  501 -0.00000000000E+00 -0.00000000000E+00 -0.44519264425E+03  0.44519264425E+03  0.00000000000E+00 0. -1.
   -9000010    2    1    2    0  502  0.31513399459E+03 -0.19829178966E+03  0.29598351851E+03  0.86729638060E+03  0.72523630644E+03 0.  0.
         13    1    3    3    0    0  0.18919363391E+03 -0.15513084253E+03 -0.22328452329E+03  0.33123375269E+03  0.10566000000E+00 0. -1.
         -4    1    3    3    0  502  0.12594036068E+03 -0.43160947130E+02  0.51926804180E+03  0.53606262791E+03  0.00000000000E+00 0. -1.
        -13    1    1    2    0    0 -0.31513399459E+03  0.19829178966E+03  0.57701423271E+02  0.37677384968E+03  0.10566000000E+00 0.  1.
<mgrwt>
<rscale>  1 0.67017948E+03</rscale>
<asrwt>0</asrwt>
<pdfrwt beam="1">  1       21 0.12290424E+00 0.81522805E+03</pdfrwt>
<pdfrwt beam="2">  1       -4 0.68491176E-01 0.81522805E+03</pdfrwt>
<totfact> 0.36841640E+01</totfact>
</mgrwt>
</event>
<event>
 6    2  0.2267664E-005  0.1116692E+04  0.7818608E-02  0.9806755E-01
         21   -1    0    0  501  502  0.00000000000E+00  0.00000000000E+00  0.14948727158E+04  0.14948727158E+04  0.00000000000E+00 0. -1.
         -4   -1    0    0    0  501 -0.00000000000E+00 -0.00000000000E+00 -0.27240468194E+03  0.27240468194E+03  0.00000000000E+00 0. -1.
   -9000010    2    1    2    0  502  0.11230105036E+03 -0.61835898758E+02  0.11961738420E+04  0.16364087614E+04  0.11093090507E+04 0.  0.
         13    1    3    3    0    0 -0.22374384246E+03 -0.32899173290E+03  0.36160077672E+02  0.39950523118E+03  0.10566000000E+00 0. -1.
         -4    1    3    3    0  502  0.33604489282E+03  0.26715583415E+03  0.11600137643E+04  0.12369035303E+04  0.00000000000E+00 0. -1.
        -13    1    1    2    0    0 -0.11230105036E+03  0.61835898758E+02  0.26294191888E+02  0.13086863634E+03  0.10566000000E+00 0.  1.
<mgrwt>
<rscale>  1 0.65001305E+03</rscale>
<asrwt>0</asrwt>
<pdfrwt beam="1">  1       21 0.22998041E+00 0.11166923E+04</pdfrwt>
<pdfrwt beam="2">  1       -4 0.41908413E-01 0.11166923E+04</pdfrwt>
<totfact> 0.15998335E+01</totfact>
</mgrwt>
</event>
<event>
 6    2  0.2267664E-005  0.1190866E+04  0.7818608E-02  0.9290043E-01
         -4   -1    0    0    0  501 -0.00000000000E+00  0.00000000000E+00  0.18294814597E+04  0.18294814597E+04  0.00000000000E+00 0. -1.
         21   -1    0    0  501  502  0.00000000000E+00 -0.00000000000E+00 -0.51875057329E+03  0.51875057329E+03  0.00000000000E+00 0.  1.
   -9000010    2    1    2    0  502  0.61320705258E+02 -0.63056731138E+03  0.12258049348E+04  0.17090233100E+04  0.10083588513E+04 0.  0.
         13    1    3    3    0    0  0.72308589011E+02 -0.74391850464E+03  0.34906489006E+03  0.82491792454E+03  0.10566000000E+00 0. -1.
         -4    1    3    3    0  502 -0.10987883752E+02  0.11335119327E+03  0.87674004474E+03  0.88410538549E+03  0.00000000000E+00 0. -1.
        -13    1    1    2    0    0 -0.61320705258E+02  0.63056731138E+03  0.84925951596E+02  0.63920872295E+03  0.10566000000E+00 0.  1.
<mgrwt>
<rscale>  1 0.10170474E+04</rscale>
<asrwt>0</asrwt>
<pdfrwt beam="2">  1       21 0.79807782E-01 0.11908665E+04</pdfrwt>
<pdfrwt beam="1">  1       -4 0.28145868E+00 0.11908665E+04</pdfrwt>
<totfact> 0.20671215E+00</totfact>
</mgrwt>
</event>
<event>
 6    2  0.2267664E-005  0.1030311E+04  0.7818608E-02  0.9821467E-01
         21   -1    0    0  501  502  0.00000000000E+00  0.00000000000E+00  0.12350850072E+04  0.12350850072E+04  0.00000000000E+00 0. -1.
         -4   -1    0    0    0  501 -0.00000000000E+00 -0.00000000000E+00 -0.55076322986E+03  0.55076322986E+03  0.00000000000E+00 0. -1.
   -9000010    2    1    2    0  502  0.17721679391E+02 -0.15453406307E+03  0.99882097512E+03  0.14349855986E+04  0.10185015922E+04 0.  0.
         13    1    3    3    0    0  0.35704567561E+03  0.52689643965E+02  0.97159053620E+03  0.10364583900E+04  0.10566000000E+00 0. -1.
         -4    1    3    3    0  502 -0.33932399621E+03 -0.20722370704E+03  0.27230438919E+02  0.39852720857E+03  0.00000000000E+00 0. -1.
        -13    1    1    2    0    0 -0.17721679391E+02  0.15453406307E+03 -0.31449919774E+03  0.35086263852E+03  0.10566000000E+00 0.  1.
<mgrwt>
<rscale>  1 0.64223141E+03</rscale>
<asrwt>0</asrwt>
<pdfrwt beam="1">  1       21 0.19001308E+00 0.10303108E+04</pdfrwt>
<pdfrwt beam="2">  1       -4 0.84732805E-01 0.10303108E+04</pdfrwt>
<totfact> 0.64874659E+00</totfact>
</mgrwt>
</event>
<event>
 6    2  0.2267664E-005  0.1112622E+04  0.7818608E-02  0.9422906E-01
         21   -1    0    0  501  502  0.00000000000E+00  0.00000000000E+00  0.50346807275E+03  0.50346807275E+03  0.00000000000E+00 0.  1.
         -4   -1    0    0    0  501 -0.00000000000E+00 -0.00000000000E+00 -0.13320442747E+04  0.13320442747E+04  0.00000000000E+00 0. -1.
   -9000010    2    1    2    0  502 -0.41254312795E+03 -0.24713782573E+03 -0.76541714683E+03  0.13504783128E+04  0.10033241387E+04 0.  0.
         13    1    3    3    0    0  0.50103058191E+02 -0.35432945480E+03  0.92743536099E+02  0.36967695848E+03  0.10566000000E+00 0. -1.
         -4    1    3    3    0  502 -0.46264618614E+03  0.10719162907E+03 -0.85816068293E+03  0.98080135432E+03  0.00000000000E+00 0. -1.
        -13    1    1    2    0    0  0.41254312795E+03  0.24713782573E+03 -0.63159055063E+02  0.48503403461E+03  0.10566000000E+00 0.  1.
<mgrwt>
<rscale>  1 0.90214329E+03</rscale>
<asrwt>0</asrwt>
<pdfrwt beam="1">  1       21 0.77456627E-01 0.11126222E+04</pdfrwt>
<pdfrwt beam="2">  1       -4 0.20492989E+00 0.11126222E+04</pdfrwt>
<totfact> 0.67789150E+00</totfact>
</mgrwt>
</event>
<event>
 6    2  0.2267664E-005  0.1010155E+04  0.7818608E-02  0.1057423E+00
         -4   -1    0    0    0  501 -0.00000000000E+00  0.00000000000E+00  0.19371608420E+03  0.19371608420E+03  0.00000000000E+00 0. -1.
         21   -1    0    0  501  502  0.00000000000E+00 -0.00000000000E+00 -0.15609655353E+04  0.15609655353E+04  0.00000000000E+00 0. -1.
   -9000010    2    1    2    0  502  0.24670631303E+01 -0.16652665651E+02 -0.13949330823E+04  0.17222811215E+04  0.10100151284E+04 0.  0.
         13    1    3    3    0    0 -0.33359300920E+03  0.36247575324E+03 -0.81408287531E+03  0.95152714439E+03  0.10566000000E+00 0. -1.
         -4    1    3    3    0  502  0.33606007233E+03 -0.37912841889E+03 -0.58085020699E+03  0.77075397708E+03  0.00000000000E+00 0. -1.
        -13    1    1    2    0    0 -0.24670631303E+01  0.16652665651E+02  0.27683631184E+02  0.32400498042E+02  0.10566000000E+00 0.  1.
<mgrwt>
<rscale>  1 0.36294667E+03</rscale>
<asrwt>0</asrwt>
<pdfrwt beam="2">  1       21 0.24014853E+00 0.10101554E+04</pdfrwt>
<pdfrwt beam="1">  1       -4 0.29802476E-01 0.10101554E+04</pdfrwt>
<totfact> 0.27594704E+01</totfact>
</mgrwt>
</event>
<event>
 6    2  0.2267664E-005  0.1015379E+04  0.7818608E-02  0.9780124E-01
         -4   -1    0    0    0  501 -0.00000000000E+00  0.00000000000E+00  0.52805572969E+03  0.52805572969E+03  0.00000000000E+00 0. -1.
         21   -1    0    0  501  502  0.00000000000E+00 -0.00000000000E+00 -0.98932812018E+03  0.98932812018E+03  0.00000000000E+00 0. -1.
   -9000010    2    1    2    0  502 -0.12123899335E+03 -0.14124093269E+03 -0.68613833665E+03  0.12254718777E+04  0.99817213521E+03 0.  0.
         13    1    3    3    0    0 -0.45721255037E+03  0.11068477170E+03 -0.65222346060E+03  0.80417031071E+03  0.10566000000E+00 0. -1.
         -4    1    3    3    0  502  0.33597355703E+03 -0.25192570439E+03 -0.33914876042E+02  0.42130156702E+03  0.00000000000E+00 0. -1.
        -13    1    1    2    0    0  0.12123899335E+03  0.14124093269E+03  0.22486594616E+03  0.29191197214E+03  0.10566000000E+00 0.  1.
<mgrwt>
<rscale>  1 0.66440197E+03</rscale>
<asrwt>0</asrwt>
<pdfrwt beam="2">  1       21 0.15220432E+00 0.10153795E+04</pdfrwt>
<pdfrwt beam="1">  1       -4 0.81239344E-01 0.10153795E+04</pdfrwt>
<totfact> 0.13748432E+01</totfact>
</mgrwt>
</event>
<event>
 6    2  0.2267664E-005  0.1027122E+04  0.7818608E-02  0.9737685E-01
         21   -1    0    0  501  502  0.00000000000E+00  0.00000000000E+00  0.23823574495E+03  0.23823574495E+03  0.00000000000E+00 0.  1.
         -4   -1    0    0    0  501 -0.00000000000E+00 -0.00000000000E+00 -0.16079980113E+04  0.16079980113E+04  0.00000000000E+00 0. -1.
   -9000010    2    1    2    0  502  0.17688881584E+03  0.10745872957E+03 -0.11912576433E+04  0.15729190232E+04  0.10060529056E+04 0.  0.
         13    1    3    3    0    0  0.51225799004E+03  0.27276144087E+03 -0.99187726102E+03  0.11491856091E+04  0.10566000000E+00 0. -1.
         -4    1    3    3    0  502 -0.33536917420E+03 -0.16530271130E+03 -0.19938038231E+03  0.42373341409E+03  0.00000000000E+00 0. -1.
        -13    1    1    2    0    0 -0.17688881584E+03 -0.10745872957E+03 -0.17850462301E+03  0.27331473310E+03  0.10566000000E+00 0.  1.
<mgrwt>
<rscale>  1 0.68816724E+03</rscale>
<asrwt>0</asrwt>
<pdfrwt beam="1">  1       21 0.36651653E-01 0.10271219E+04</pdfrwt>
<pdfrwt beam="2">  1       -4 0.24738431E+00 0.10271219E+04</pdfrwt>
<totfact> 0.18981637E+01</totfact>
</mgrwt>
</event>
<event>
 6    2  0.2267664E-005  0.1181796E+04  0.7818608E-02  0.9294647E-01
         21   -1    0    0  501  502  0.00000000000E+00  0.00000000000E+00  0.96737787335E+03  0.96737787335E+03  0.00000000000E+00 0.  1.
         -4   -1    0    0    0  501 -0.00000000000E+00 -0.00000000000E+00 -0.85539082447E+03  0.85539082447E+03  0.00000000000E+00 0. -1.
   -9000010    2    1    2    0  502  0.26218018693E+03  0.58099126871E+03  0.62712919606E+02  0.11834587138E+04  0.99516446487E+03 0.  0.
         13    1    3    3    0    0 -0.45478455083E+02 -0.23908809095E+03  0.17589772382E+03  0.30028557328E+03  0.10566000000E+00 0. -1.
         -4    1    3    3    0  502  0.30765864201E+03  0.82007935966E+03 -0.11318480422E+03  0.88317314047E+03  0.00000000000E+00 0. -1.
        -13    1    1    2    0    0 -0.26218018693E+03 -0.58099126871E+03  0.49274129273E+02  0.63930998406E+03  0.10566000000E+00 0.  1.
<mgrwt>
<rscale>  1 0.10127712E+04</rscale>
<asrwt>0</asrwt>
<pdfrwt beam="1">  1       21 0.14882736E+00 0.11817959E+04</pdfrwt>
<pdfrwt beam="2">  1       -4 0.13159859E+00 0.11817959E+04</pdfrwt>
<totfact> 0.44356653E+00</totfact>
</mgrwt>
</event>
<event>
 6    2  0.2267664E-005  0.1189737E+04  0.7818608E-02  0.9516254E-01
         21   -1    0    0  501  502  0.00000000000E+00  0.00000000000E+00  0.76285296872E+03  0.76285296872E+03  0.00000000000E+00 0. -1.
         -4   -1    0    0    0  501 -0.00000000000E+00 -0.00000000000E+00 -0.87209712759E+03  0.87209712759E+03  0.00000000000E+00 0. -1.
   -9000010    2    1    2    0  502 -0.11074182448E+03  0.26056124575E+03  0.21013212404E+03  0.12081513900E+04  0.11555597592E+04 0.  0.
         13    1    3    3    0    0  0.18192885829E+03  0.65962253650E+03  0.20109345657E+03  0.71318902794E+03  0.10566000000E+00 0. -1.
         -4    1    3    3    0  502 -0.29267068276E+03 -0.39906129075E+03  0.90386674643E+01  0.49496236204E+03  0.00000000000E+00 0. -1.
        -13    1    1    2    0    0  0.11074182448E+03 -0.26056124575E+03 -0.31937628291E+03  0.42679870633E+03  0.10566000000E+00 0.  1.
<mgrwt>
<rscale>  1 0.83096015E+03</rscale>
<asrwt>0</asrwt>
<pdfrwt beam="1">  1       21 0.11736200E+00 0.11897371E+04</pdfrwt>
<pdfrwt beam="2">  1       -4 0.13416879E+00 0.11897371E+04</pdfrwt>
<totfact> 0.79812638E+00</totfact>
</mgrwt>
</event>
<event>
 6    2  0.2267664E-005  0.1035988E+04  0.7818608E-02  0.9860904E-01
         21   -1    0    0  501  502  0.00000000000E+00  0.00000000000E+00  0.31987872622E+03  0.31987872622E+03  0.00000000000E+00 0. -1.
         -4   -1    0    0    0  501 -0.00000000000E+00 -0.00000000000E+00 -0.10931050210E+04  0.10931050210E+04  0.00000000000E+00 0. -1.
   -9000010    2    1    2    0  502  0.10810242997E+03 -0.80134149059E+02 -0.61305477306E+03  0.12037887551E+04  0.10272115628E+04 0.  0.
         13    1    3    3    0    0  0.38982746301E+02  0.47493511495E+03 -0.29033838979E+03  0.55801380778E+03  0.10566000000E+00 0. -1.
         -4    1    3    3    0  502  0.69119683671E+02 -0.55506926400E+03 -0.32271638327E+03  0.64577494729E+03  0.00000000000E+00 0. -1.
        -13    1    1    2    0    0 -0.10810242997E+03  0.80134149059E+02 -0.16017152176E+03  0.20919499219E+03  0.10566000000E+00 0.  1.
<mgrwt>
<rscale>  1 0.62194038E+03</rscale>
<asrwt>0</asrwt>
<pdfrwt beam="1">  1       21 0.49212111E-01 0.10359880E+04</pdfrwt>
<pdfrwt beam="2">  1       -4 0.16817001E+00 0.10359880E+04</pdfrwt>
<totfact> 0.33840965E+01</totfact>
</mgrwt>
</event>
<event>
 6    2  0.2267664E-005  0.1167069E+04  0.7818608E-02  0.9303741E-01
         21   -1    0    0  501  502  0.00000000000E+00  0.00000000000E+00  0.16135169122E+04  0.16135169122E+04  0.00000000000E+00 0. -1.
         -4   -1    0    0    0  501 -0.00000000000E+00 -0.00000000000E+00 -0.50787947268E+03  0.50787947268E+03  0.00000000000E+00 0. -1.
   -9000010    2    1    2    0  502 -0.43686576114E+03  0.46799377427E+03  0.77384765638E+03  0.14003177918E+04  0.97579703663E+03 0.  0.
         13    1    3    3    0    0 -0.72970984622E+03  0.38955769124E+03  0.39949131769E+03  0.91859946579E+03  0.10566000000E+00 0. -1.
         -4    1    3    3    0  502  0.29284408508E+03  0.78436083035E+02  0.37435633869E+03  0.48171832600E+03  0.00000000000E+00 0. -1.
        -13    1    1    2    0    0  0.43686576114E+03 -0.46799377427E+03  0.33178978309E+03  0.72107859304E+03  0.10566000000E+00 0.  1.
<mgrwt>
<rscale>  1 0.10043917E+04</rscale>
<asrwt>0</asrwt>
<pdfrwt beam="1">  1       21 0.24823337E+00 0.11670689E+04</pdfrwt>
<pdfrwt beam="2">  1       -4 0.78135304E-01 0.11670689E+04</pdfrwt>
<totfact> 0.31389065E+00</totfact>
</mgrwt>
</event>
<event>
 6    2  0.2267664E-005  0.9981691E+03  0.7818608E-02  0.9810449E-01
         -4   -1    0    0    0  501 -0.00000000000E+00  0.00000000000E+00  0.13241643389E+04  0.13241643389E+04  0.00000000000E+00 0. -1.
         21   -1    0    0  501  502  0.00000000000E+00 -0.00000000000E+00 -0.26106415053E+03  0.26106415053E+03  0.00000000000E+00 0. -1.
   -9000010    2    1    2    0  502  0.13246634379E+03  0.11791337108E+03  0.91723267317E+03  0.13556021876E+04  0.98228846021E+03 0.  0.
         13    1    3    3    0    0 -0.31510238764E+03 -0.55535542504E+02 -0.45679993522E+00  0.31995926460E+03  0.10566000000E+00 0. -1.
         -4    1    3    3    0  502  0.44756873143E+03  0.17344891359E+03  0.91768947310E+03  0.10356429230E+04  0.00000000000E+00 0. -1.
        -13    1    1    2    0    0 -0.13246634379E+03 -0.11791337108E+03  0.14586751519E+03  0.22962630178E+03  0.10566000000E+00 0.  1.
<mgrwt>
<rscale>  1 0.64804816E+03</rscale>
<asrwt>0</asrwt>
<pdfrwt beam="2">  1       21 0.40163716E-01 0.99816908E+03</pdfrwt>
<pdfrwt beam="1">  1       -4 0.20371759E+00 0.99816908E+03</pdfrwt>
<totfact> 0.29795845E+01</totfact>
</mgrwt>
</event>
<event>
 6    2  0.2267664E-005  0.1017116E+04  0.7818608E-02  0.9828130E-01
         -4   -1    0    0    0  501 -0.00000000000E+00  0.00000000000E+00  0.40850225618E+03  0.40850225618E+03  0.00000000000E+00 0. -1.
         21   -1    0    0  501  502  0.00000000000E+00 -0.00000000000E+00 -0.86738055250E+03  0.86738055250E+03  0.00000000000E+00 0. -1.
   -9000010    2    1    2    0  502 -0.15576607419E+03  0.27628703819E+02 -0.46320997541E+03  0.11176260876E+04  0.10047378640E+04 0.  0.
         13    1    3    3    0    0 -0.34135180789E+03 -0.34675867126E+03 -0.50057708255E+03  0.69809745708E+03  0.10566000000E+00 0. -1.
         -4    1    3    3    0  502  0.18558573369E+03  0.37438737508E+03  0.37367107140E+02  0.41952863057E+03  0.00000000000E+00 0. -1.
        -13    1    1    2    0    0  0.15576607419E+03 -0.27628703819E+02  0.43316790866E+01  0.15825672103E+03  0.10566000000E+00 0.  1.
<mgrwt>
<rscale>  1 0.63874522E+03</rscale>
<asrwt>0</asrwt>
<pdfrwt beam="2">  1       21 0.13344316E+00 0.10171158E+04</pdfrwt>
<pdfrwt beam="1">  1       -4 0.62846501E-01 0.10171158E+04</pdfrwt>
<totfact> 0.35116258E+01</totfact>
</mgrwt>
</event>
<event>
 6    2  0.2267664E-005  0.1057005E+04  0.7818608E-02  0.9525125E-01
         -4   -1    0    0    0  501 -0.00000000000E+00  0.00000000000E+00  0.10929550085E+04  0.10929550085E+04  0.00000000000E+00 0. -1.
         21   -1    0    0  501  502  0.00000000000E+00 -0.00000000000E+00 -0.49823834085E+03  0.49823834085E+03  0.00000000000E+00 0. -1.
   -9000010    2    1    2    0  502  0.35416114520E+03 -0.16672799775E+03  0.29270303189E+03  0.10967840156E+04  0.98185119539E+03 0.  0.
         13    1    3    3    0    0  0.38473247121E+03 -0.54917616659E+03  0.22439070179E+03  0.70708184432E+03  0.10566000000E+00 0. -1.
         -4    1    3    3    0  502 -0.30571326007E+02  0.38244816884E+03  0.68312330105E+02  0.38970217124E+03  0.00000000000E+00 0. -1.
        -13    1    1    2    0    0 -0.35416114520E+03  0.16672799775E+03  0.30201363579E+03  0.49440933382E+03  0.10566000000E+00 0.  1.
<mgrwt>
<rscale>  1 0.82456567E+03</rscale>
<asrwt>0</asrwt>
<pdfrwt beam="2">  1       21 0.76652052E-01 0.10570053E+04</pdfrwt>
<pdfrwt beam="1">  1       -4 0.16814692E+00 0.10570053E+04</pdfrwt>
<totfact> 0.12510877E+01</totfact>
</mgrwt>
</event>
<event>
 6    2  0.2267664E-005  0.1065358E+04  0.7818608E-02  0.9877478E-01
         -4   -1    0    0    0  501 -0.00000000000E+00  0.00000000000E+00  0.30698264187E+03  0.30698264187E+03  0.00000000000E+00 0. -1.
         21   -1    0    0  501  502  0.00000000000E+00 -0.00000000000E+00 -0.11449669481E+04  0.11449669481E+04  0.00000000000E+00 0. -1.
   -9000010    2    1    2    0  502 -0.81105516321E+02 -0.84706956893E+02 -0.78459498836E+03  0.13230938421E+04  0.10588836792E+04 0.  0.
         13    1    3    3    0    0  0.10116359707E+03  0.44879483879E+03 -0.53761982456E+03  0.70759166729E+03  0.10566000000E+00 0. -1.
         -4    1    3    3    0  502 -0.18226911339E+03 -0.53350179569E+03 -0.24697516380E+03  0.61550217484E+03  0.00000000000E+00 0. -1.
        -13    1    1    2    0    0  0.81105516321E+02  0.84706956893E+02 -0.53389317853E+02  0.12885574783E+03  0.10566000000E+00 0.  1.
<mgrwt>
<rscale>  1 0.61365309E+03</rscale>
<asrwt>0</asrwt>
<pdfrwt beam="2">  1       21 0.17614876E+00 0.10653582E+04</pdfrwt>
<pdfrwt beam="1">  1       -4 0.47228098E-01 0.10653582E+04</pdfrwt>
<totfact> 0.29467648E+01</totfact>
</mgrwt>
</event>
<event>
 6    2  0.2267664E-005  0.1017291E+04  0.7818608E-02  0.9796568E-01
         -4   -1    0    0    0  501 -0.00000000000E+00  0.00000000000E+00  0.20842677026E+04  0.20842677026E+04  0.00000000000E+00 0. -1.
         21   -1    0    0  501  502  0.00000000000E+00 -0.00000000000E+00 -0.18754403320E+03  0.18754403320E+03  0.00000000000E+00 0.  1.
   -9000010    2    1    2    0  502  0.67616968804E+02 -0.16177621168E+03  0.13050297545E+04  0.16546850898E+04  0.10020661101E+04 0.  0.
         13    1    3    3    0    0  0.21643266925E+03  0.38794343311E+03  0.50390361710E+03  0.67176042910E+03  0.10566000000E+00 0. -1.
         -4    1    3    3    0  502 -0.14881570044E+03 -0.54971964479E+03  0.80112613740E+03  0.98292466069E+03  0.00000000000E+00 0. -1.
        -13    1    1    2    0    0 -0.67616968804E+02  0.16177621168E+03  0.59169391492E+03  0.61712664604E+03  0.10566000000E+00 0.  1.
<mgrwt>
<rscale>  1 0.65547045E+03</rscale>
<asrwt>0</asrwt>
<pdfrwt beam="2">  1       21 0.28852929E-01 0.10172906E+04</pdfrwt>
<pdfrwt beam="1">  1       -4 0.32065656E+00 0.10172906E+04</pdfrwt>
<totfact> 0.10894609E+01</totfact>
</mgrwt>
</event>
<event>
 6    2  0.2267664E-005  0.1051633E+04  0.7818608E-02  0.9627207E-01
         -4   -1    0    0    0  501 -0.00000000000E+00  0.00000000000E+00  0.24447920185E+03  0.24447920185E+03  0.00000000000E+00 0. -1.
         21   -1    0    0  501  502  0.00000000000E+00 -0.00000000000E+00 -0.22203690434E+04  0.22203690434E+04  0.00000000000E+00 0. -1.
   -9000010    2    1    2    0  502 -0.27073527304E+03  0.70227194254E+02 -0.19054970182E+04  0.21764308262E+04  0.10137567794E+04 0.  0.
         13    1    3    3    0    0 -0.21588673025E+03 -0.38442498931E+03 -0.15043624982E+04  0.15676403254E+04  0.10566000000E+00 0. -1.
         -4    1    3    3    0  502 -0.54848542790E+02  0.45465218356E+03 -0.40113452003E+03  0.60879050077E+03  0.00000000000E+00 0. -1.
        -13    1    1    2    0    0  0.27073527304E+03 -0.70227194254E+02 -0.70392823308E+02  0.28841741906E+03  0.10566000000E+00 0.  1.
<mgrwt>
<rscale>  1 0.75521305E+03</rscale>
<asrwt>0</asrwt>
<pdfrwt beam="2">  1       21 0.34159525E+00 0.10516331E+04</pdfrwt>
<pdfrwt beam="1">  1       -4 0.37612184E-01 0.10516331E+04</pdfrwt>
<totfact> 0.39881113E+00</totfact>
</mgrwt>
</event>
<event>
 6    2  0.2267664E-005  0.1081317E+04  0.7818608E-02  0.9499528E-01
         -4   -1    0    0    0  501 -0.00000000000E+00  0.00000000000E+00  0.76665589421E+03  0.76665589421E+03  0.00000000000E+00 0. -1.
         21   -1    0    0  501  502  0.00000000000E+00 -0.00000000000E+00 -0.98289691281E+03  0.98289691281E+03  0.00000000000E+00 0. -1.
   -9000010    2    1    2    0  502  0.35673502899E+03  0.18048531531E+03 -0.56409640939E+03  0.12196110989E+04  0.10046948012E+04 0.  0.
         13    1    3    3    0    0  0.56883035561E+03 -0.23234701536E+03 -0.36408563130E+03  0.71422088117E+03  0.10566000000E+00 0. -1.
         -4    1    3    3    0  502 -0.21209532663E+03  0.41283233067E+03 -0.20001077809E+03  0.50539021773E+03  0.00000000000E+00 0. -1.
        -13    1    1    2    0    0 -0.35673502899E+03 -0.18048531531E+03  0.34785539079E+03  0.52994170813E+03  0.10566000000E+00 0.  1.
<mgrwt>
<rscale>  1 0.84318662E+03</rscale>
<asrwt>0</asrwt>
<pdfrwt beam="2">  1       21 0.15121491E+00 0.10813170E+04</pdfrwt>
<pdfrwt beam="1">  1       -4 0.11794706E+00 0.10813170E+04</pdfrwt>
<totfact> 0.56759851E+00</totfact>
</mgrwt>
</event>
<event>
 6    2  0.2267664E-005  0.1019745E+04  0.7818608E-02  0.1000941E+00
         -4   -1    0    0    0  501 -0.00000000000E+00  0.00000000000E+00  0.35853610244E+03  0.35853610244E+03  0.00000000000E+00 0. -1.
         21   -1    0    0  501  502  0.00000000000E+00 -0.00000000000E+00 -0.92444075463E+03  0.92444075463E+03  0.00000000000E+00 0. -1.
   -9000010    2    1    2    0  502  0.33887089667E+02  0.81002603344E+02 -0.60624900142E+03  0.11863464567E+04  0.10159578274E+04 0.  0.
         13    1    3    3    0    0 -0.28231382856E+03 -0.22672817850E+03  0.79690145805E+02  0.37075233678E+03  0.10566000000E+00 0. -1.
         -4    1    3    3    0  502  0.31620091823E+03  0.30773078185E+03 -0.68593914722E+03  0.81559411994E+03  0.00000000000E+00 0. -1.
        -13    1    1    2    0    0 -0.33887089667E+02 -0.81002603344E+02  0.40344349228E+02  0.96630400358E+02  0.10566000000E+00 0.  1.
<mgrwt>
<rscale>  1 0.55239391E+03</rscale>
<asrwt>0</asrwt>
<pdfrwt beam="2">  1       21 0.14222165E+00 0.10197451E+04</pdfrwt>
<pdfrwt beam="1">  1       -4 0.55159401E-01 0.10197451E+04</pdfrwt>
<totfact> 0.39216255E+01</totfact>
</mgrwt>
</event>
<event>
 6    2  0.2267664E-005  0.8776844E+03  0.7818608E-02  0.9833306E-01
         21   -1    0    0  501  502  0.00000000000E+00  0.00000000000E+00  0.12214508179E+04  0.12214508179E+04  0.00000000000E+00 0. -1.
         -4   -1    0    0    0  501 -0.00000000000E+00 -0.00000000000E+00 -0.54797189172E+03  0.54797189172E+03  0.00000000000E+00 0. -1.
   -9000010    2    1    2    0  502 -0.48211709027E+02  0.23723097386E+03  0.10206867496E+04  0.13461542514E+04  0.84363909577E+03 0.  0.
         13    1    3    3    0    0 -0.10568975135E+03  0.32837267030E+03  0.26318343594E+02  0.34596473883E+03  0.10566000000E+00 0. -1.
         -4    1    3    3    0  502  0.57478042328E+02 -0.91141696436E+02  0.99436840604E+03  0.10001895126E+04  0.00000000000E+00 0. -1.
        -13    1    1    2    0    0  0.48211709027E+02 -0.23723097386E+03 -0.34720782347E+03  0.42326845818E+03  0.10566000000E+00 0.  1.
<mgrwt>
<rscale>  1 0.63605353E+03</rscale>
<asrwt>0</asrwt>
<pdfrwt beam="1">  1       21 0.18791551E+00 0.87768436E+03</pdfrwt>
<pdfrwt beam="2">  1       -4 0.84303368E-01 0.87768436E+03</pdfrwt>
<totfact> 0.69435778E+00</totfact>
</mgrwt>
</event>
<event>
 6    2  0.2267664E-005  0.1000716E+04  0.7818608E-02  0.1008665E+00
         21   -1    0    0  501  502  0.00000000000E+00  0.00000000000E+00  0.68598540411E+03  0.68598540411E+03  0.00000000000E+00 0. -1.
         -4   -1    0    0    0  501 -0.00000000000E+00 -0.00000000000E+00 -0.50903814536E+03  0.50903814536E+03  0.00000000000E+00 0. -1.
   -9000010    2    1    2    0  502  0.10601272930E+02  0.72233725228E+02  0.30625450874E+03  0.10465295290E+04  0.99804916359E+03 0.  0.
         13    1    3    3    0    0 -0.31904743107E+03  0.41048602713E+03  0.92346377840E+02  0.52803210737E+03  0.10566000000E+00 0. -1.
         -4    1    3    3    0  502  0.32964870400E+03 -0.33825230190E+03  0.21390813090E+03  0.51849742165E+03  0.00000000000E+00 0. -1.
        -13    1    1    2    0    0 -0.10601272930E+02 -0.72233725228E+02 -0.12930724998E+03  0.14849402045E+03  0.10566000000E+00 0.  1.
<mgrwt>
<rscale>  1 0.52008592E+03</rscale>
<asrwt>0</asrwt>
<pdfrwt beam="1">  1       21 0.10553622E+00 0.10007159E+04</pdfrwt>
<pdfrwt beam="2">  1       -4 0.78313561E-01 0.10007159E+04</pdfrwt>
<totfact> 0.39428290E+01</totfact>
</mgrwt>
</event>
<event>
 6    2  0.2267664E-005  0.1014065E+04  0.7818608E-02  0.9753587E-01
         21   -1    0    0  501  502  0.00000000000E+00  0.00000000000E+00  0.71094525881E+03  0.71094525881E+03  0.00000000000E+00 0. -1.
         -4   -1    0    0    0  501 -0.00000000000E+00 -0.00000000000E+00 -0.57012302613E+03  0.57012302613E+03  0.00000000000E+00 0. -1.
   -9000010    2    1    2    0  502 -0.18784021571E+03  0.79584686822E+02  0.25724043084E+03  0.10461834684E+04  0.99333254315E+03 0.  0.
         13    1    3    3    0    0 -0.42138170460E+03 -0.13949892680E+03 -0.20090600167E+03  0.48722245866E+03  0.10566000000E+00 0. -1.
         -4    1    3    3    0  502  0.23354148888E+03  0.21908361362E+03  0.45814643252E+03  0.55896100974E+03  0.00000000000E+00 0. -1.
        -13    1    1    2    0    0  0.18784021571E+03 -0.79584686822E+02 -0.11641819816E+03  0.23488481654E+03  0.10566000000E+00 0.  1.
<mgrwt>
<rscale>  1 0.67913949E+03</rscale>
<asrwt>0</asrwt>
<pdfrwt beam="1">  1       21 0.10937619E+00 0.10140647E+04</pdfrwt>
<pdfrwt beam="2">  1       -4 0.87711235E-01 0.10140647E+04</pdfrwt>
<totfact> 0.27683948E+01</totfact>
</mgrwt>
</event>
<event>
 6    2  0.2267664E-005  0.1014328E+04  0.7818608E-02  0.9761601E-01
         -4   -1    0    0    0  501 -0.00000000000E+00  0.00000000000E+00  0.83804571903E+03  0.83804571903E+03  0.00000000000E+00 0. -1.
         21   -1    0    0  501  502  0.00000000000E+00 -0.00000000000E+00 -0.45182503738E+03  0.45182503738E+03  0.00000000000E+00 0. -1.
   -9000010    2    1    2    0  502  0.19264011914E+03  0.47890655106E+02  0.23730247998E+03  0.10417168278E+04  0.99471490986E+03 0.  0.
         13    1    3    3    0    0  0.16748519779E+03 -0.44444364723E+03 -0.39064496864E+02  0.47655796407E+03  0.10566000000E+00 0. -1.
         -4    1    3    3    0  502  0.25154921348E+02  0.49233430233E+03  0.27636697684E+03  0.56515886369E+03  0.00000000000E+00 0. -1.
        -13    1    1    2    0    0 -0.19264011914E+03 -0.47890655106E+02  0.14891820168E+03  0.24815392865E+03  0.10566000000E+00 0.  1.
<mgrwt>
<rscale>  1 0.67464611E+03</rscale>
<asrwt>0</asrwt>
<pdfrwt beam="2">  1       21 0.69511544E-01 0.10143281E+04</pdfrwt>
<pdfrwt beam="1">  1       -4 0.12893011E+00 0.10143281E+04</pdfrwt>
<totfact> 0.32060494E+01</totfact>
</mgrwt>
</event>
<event>
 6    2  0.2267664E-005  0.9942258E+03  0.7818608E-02  0.1018075E+00
         -4   -1    0    0    0  501 -0.00000000000E+00  0.00000000000E+00  0.52096395391E+03  0.52096395391E+03  0.00000000000E+00 0. -1.
         21   -1    0    0  501  502  0.00000000000E+00 -0.00000000000E+00 -0.61774378847E+03  0.61774378847E+03  0.00000000000E+00 0. -1.
   -9000010    2    1    2    0  502 -0.55776350384E+02 -0.73653132204E+00 -0.20666232783E+03  0.10154774002E+04  0.99265980519E+03 0.  0.
         13    1    3    3    0    0 -0.48368470810E+03  0.18792225182E+03 -0.45769136570E+02  0.52092273381E+03  0.10566000000E+00 0. -1.
         -4    1    3    3    0  502  0.42790835771E+03 -0.18865878314E+03 -0.16089319126E+03  0.49455466639E+03  0.00000000000E+00 0. -1.
        -13    1    1    2    0    0  0.55776350384E+02  0.73653132204E+00  0.10988249327E+03  0.12323034217E+03  0.10566000000E+00 0.  1.
<mgrwt>
<rscale>  1 0.48387810E+03</rscale>
<asrwt>0</asrwt>
<pdfrwt beam="2">  1       21 0.95037506E-01 0.99422585E+03</pdfrwt>
<pdfrwt beam="1">  1       -4 0.80148301E-01 0.99422585E+03</pdfrwt>
<totfact> 0.48513778E+01</totfact>
</mgrwt>
</event>
<event>
 6    2  0.2267664E-005  0.1020932E+04  0.7818608E-02  0.1005449E+00
         -4   -1    0    0    0  501 -0.00000000000E+00  0.00000000000E+00  0.36987399543E+03  0.36987399543E+03  0.00000000000E+00 0. -1.
         21   -1    0    0  501  502  0.00000000000E+00 -0.00000000000E+00 -0.81580081538E+03  0.81580081538E+03  0.00000000000E+00 0. -1.
   -9000010    2    1    2    0  502 -0.60921888330E+02 -0.45404578335E+02 -0.39756843978E+03  0.10956104099E+04  0.10181004144E+04 0.  0.
         13    1    3    3    0    0  0.62959713746E+02 -0.34445950023E+03 -0.61357143275E+03  0.70646032239E+03  0.10566000000E+00 0. -1.
         -4    1    3    3    0  502 -0.12388160208E+03  0.29905492190E+03  0.21600299297E+03  0.38915008752E+03  0.00000000000E+00 0. -1.
        -13    1    1    2    0    0  0.60921888330E+02  0.45404578335E+02 -0.48358380173E+02  0.90064400894E+02  0.10566000000E+00 0.  1.
<mgrwt>
<rscale>  1 0.53324078E+03</rscale>
<asrwt>0</asrwt>
<pdfrwt beam="2">  1       21 0.12550782E+00 0.10209317E+04</pdfrwt>
<pdfrwt beam="1">  1       -4 0.56903692E-01 0.10209317E+04</pdfrwt>
<totfact> 0.51278351E+01</totfact>
</mgrwt>
</event>
<event>
 6    2  0.2267664E-005  0.1116621E+04  0.7818608E-02  0.9382957E-01
         -4   -1    0    0    0  501 -0.00000000000E+00  0.00000000000E+00  0.13039961020E+04  0.13039961020E+04  0.00000000000E+00 0. -1.
         21   -1    0    0  501  502  0.00000000000E+00 -0.00000000000E+00 -0.69989929952E+03  0.69989929952E+03  0.00000000000E+00 0. -1.
   -9000010    2    1    2    0  502  0.50906280256E+03 -0.20488966817E+03 -0.88656472713E+02  0.11201353523E+04  0.97248060358E+03 0.  0.
         13    1    3    3    0    0  0.15014625588E+03 -0.45222556335E+03  0.27702188785E+03  0.55117419734E+03  0.10566000000E+00 0. -1.
         -4    1    3    3    0  502  0.35891654667E+03  0.24733589518E+03 -0.36567836056E+03  0.56896115500E+03  0.00000000000E+00 0. -1.
        -13    1    1    2    0    0 -0.50906280256E+03  0.20488966817E+03  0.69275327516E+03  0.88376004915E+03  0.10566000000E+00 0.  1.
<mgrwt>
<rscale>  1 0.93491633E+03</rscale>
<asrwt>0</asrwt>
<pdfrwt beam="2">  1       21 0.10767682E+00 0.11166213E+04</pdfrwt>
<pdfrwt beam="1">  1       -4 0.20061479E+00 0.11166213E+04</pdfrwt>
<totfact> 0.32468846E+00</totfact>
</mgrwt>
</event>
<event>
 6    2  0.2267664E-005  0.1013993E+04  0.7818608E-02  0.9849404E-01
         21   -1    0    0  501  502  0.00000000000E+00  0.00000000000E+00  0.32366768602E+03  0.32366768602E+03  0.00000000000E+00 0. -1.
         -4   -1    0    0    0  501 -0.00000000000E+00 -0.00000000000E+00 -0.12696615284E+04  0.12696615284E+04  0.00000000000E+00 0. -1.
   -9000010    2    1    2    0  502  0.65685636105E+02 -0.13370920345E+03 -0.10100062224E+04  0.14311862225E+04  0.10029898705E+04 0.  0.
         13    1    3    3    0    0  0.51365370576E+03 -0.29457855390E+02 -0.72875054301E+03  0.89206796814E+03  0.10566000000E+00 0. -1.
         -4    1    3    3    0  502 -0.44796806965E+03 -0.10425134806E+03 -0.28125567938E+03  0.53911825436E+03  0.00000000000E+00 0. -1.
        -13    1    1    2    0    0 -0.65685636105E+02  0.13370920345E+03  0.64012380004E+02  0.16214299194E+03  0.10566000000E+00 0.  1.
<mgrwt>
<rscale>  1 0.62777301E+03</rscale>
<asrwt>0</asrwt>
<pdfrwt beam="1">  1       21 0.49795029E-01 0.10139928E+04</pdfrwt>
<pdfrwt beam="2">  1       -4 0.19533254E+00 0.10139928E+04</pdfrwt>
<totfact> 0.21401768E+01</totfact>
</mgrwt>
</event>
<event>
 6    2  0.2267664E-005  0.1045972E+04  0.7818608E-02  0.9687067E-01
         21   -1    0    0  501  502  0.00000000000E+00  0.00000000000E+00  0.33999044963E+03  0.33999044963E+03  0.00000000000E+00 0.  1.
         -4   -1    0    0    0  501 -0.00000000000E+00 -0.00000000000E+00 -0.14820270761E+04  0.14820270761E+04  0.00000000000E+00 0. -1.
   -9000010    2    1    2    0  502  0.18402973175E+03 -0.14149510314E+03 -0.11906587651E+04  0.15848426326E+04  0.10198872824E+04 0.  0.
         13    1    3    3    0    0 -0.25559937148E+03 -0.18158889523E+03  0.15352967423E+01  0.31354096044E+03  0.10566000000E+00 0. -1.
         -4    1    3    3    0  502  0.43962910322E+03  0.40093792093E+02 -0.11921940619E+04  0.12713016722E+04  0.00000000000E+00 0. -1.
        -13    1    1    2    0    0 -0.18402973175E+03  0.14149510314E+03  0.48622138672E+02  0.23717489309E+03  0.10566000000E+00 0.  1.
<mgrwt>
<rscale>  1 0.71792072E+03</rscale>
<asrwt>0</asrwt>
<pdfrwt beam="1">  1       21 0.52306222E-01 0.10459722E+04</pdfrwt>
<pdfrwt beam="2">  1       -4 0.22800417E+00 0.10459722E+04</pdfrwt>
<totfact> 0.11770763E+01</totfact>
</mgrwt>
</event>
<event>
 6    2  0.2267664E-005  0.1034803E+04  0.7818608E-02  0.9614855E-01
         21   -1    0    0  501  502  0.00000000000E+00  0.00000000000E+00  0.13546572796E+04  0.13546572796E+04  0.00000000000E+00 0. -1.
         -4   -1    0    0    0  501 -0.00000000000E+00 -0.00000000000E+00 -0.96186087718E+03  0.96186087718E+03  0.00000000000E+00 0. -1.
   -9000010    2    1    2    0  502  0.18173929184E+03 -0.24642632042E+03  0.11215782214E+04  0.15260258720E+04  0.98846454345E+03 0.  0.
         13    1    3    3    0    0 -0.12853250348E+03 -0.15078243585E+02  0.11314942879E+04  0.11388710605E+04  0.10566000000E+00 0. -1.
         -4    1    3    3    0  502  0.31027179533E+03 -0.23134807684E+03 -0.99160665133E+01  0.38715481142E+03  0.00000000000E+00 0. -1.
        -13    1    1    2    0    0 -0.18173929184E+03  0.24642632042E+03 -0.72878181894E+03  0.79049228483E+03  0.10566000000E+00 0.  1.
<mgrwt>
<rscale>  1 0.76320750E+03</rscale>
<asrwt>0</asrwt>
<pdfrwt beam="1">  1       21 0.20840881E+00 0.10348030E+04</pdfrwt>
<pdfrwt beam="2">  1       -4 0.14797860E+00 0.10348030E+04</pdfrwt>
<totfact> 0.12121950E+00</totfact>
</mgrwt>
</event>
<event>
 6    2  0.2267664E-005  0.1011075E+04  0.7818608E-02  0.9786620E-01
         -4   -1    0    0    0  501 -0.00000000000E+00  0.00000000000E+00  0.21698912687E+04  0.21698912687E+04  0.00000000000E+00 0. -1.
         21   -1    0    0  501  502  0.00000000000E+00 -0.00000000000E+00 -0.19992370819E+03  0.19992370819E+03  0.00000000000E+00 0. -1.
   -9000010    2    1    2    0  502  0.13868920144E+03  0.12172898780E+03  0.11586320443E+04  0.15377585052E+04  0.99409273470E+03 0.  0.
         13    1    3    3    0    0  0.28455201225E+02  0.36510673018E+03  0.18436452161E+02  0.36667770157E+03  0.10566000000E+00 0. -1.
         -4    1    3    3    0  502  0.11023400022E+03 -0.24337774238E+03  0.11401955922E+04  0.11710808037E+04  0.00000000000E+00 0. -1.
        -13    1    1    2    0    0 -0.13868920144E+03 -0.12172898780E+03  0.81133551616E+03  0.83205647165E+03  0.10566000000E+00 0.  1.
<mgrwt>
<rscale>  1 0.66085541E+03</rscale>
<asrwt>0</asrwt>
<pdfrwt beam="2">  1       21 0.30757495E-01 0.10110752E+04</pdfrwt>
<pdfrwt beam="1">  1       -4 0.33382941E+00 0.10110752E+04</pdfrwt>
<totfact> 0.79124003E+00</totfact>
</mgrwt>
</event>
<event>
 6    2  0.2267664E-005  0.1033518E+04  0.7818608E-02  0.9703246E-01
         -4   -1    0    0    0  501 -0.00000000000E+00  0.00000000000E+00  0.47093947804E+03  0.47093947804E+03  0.00000000000E+00 0. -1.
         21   -1    0    0  501  502  0.00000000000E+00 -0.00000000000E+00 -0.88392101276E+03  0.88392101276E+03  0.00000000000E+00 0. -1.
   -9000010    2    1    2    0  502 -0.22289331773E+03  0.47557653381E+02 -0.22103488400E+03  0.10568895369E+04  0.10080753503E+04 0.  0.
         13    1    3    3    0    0 -0.40955927397E+03  0.16307035301E+03  0.27144610666E+03  0.51770043356E+03  0.10566000000E+00 0. -1.
         -4    1    3    3    0  502  0.18666595624E+03 -0.11551269963E+03 -0.49248099066E+03  0.53918910334E+03  0.00000000000E+00 0. -1.
        -13    1    1    2    0    0  0.22289331773E+03 -0.47557653381E+02 -0.19194665072E+03  0.29797095390E+03  0.10566000000E+00 0.  1.
<mgrwt>
<rscale>  1 0.70823859E+03</rscale>
<asrwt>0</asrwt>
<pdfrwt beam="2">  1       21 0.13598785E+00 0.10335178E+04</pdfrwt>
<pdfrwt beam="1">  1       -4 0.72452228E-01 0.10335178E+04</pdfrwt>
<totfact> 0.24286291E+01</totfact>
</mgrwt>
</event>
<event>
 6    2  0.2267664E-005  0.1017369E+04  0.7818608E-02  0.9721248E-01
         -4   -1    0    0    0  501 -0.00000000000E+00  0.00000000000E+00  0.70246036076E+03  0.70246036076E+03  0.00000000000E+00 0. -1.
         21   -1    0    0  501  502  0.00000000000E+00 -0.00000000000E+00 -0.75027427886E+03  0.75027427886E+03  0.00000000000E+00 0. -1.
   -9000010    2    1    2    0  502  0.10426567957E+03  0.19935362952E+03 -0.35009644798E+03  0.10759217675E+04  0.99218290926E+03 0.  0.
         13    1    3    3    0    0  0.39369903856E+03 -0.17426182831E+03  0.78821168558E+02  0.43769727615E+03  0.10566000000E+00 0. -1.
         -4    1    3    3    0  502 -0.28943335899E+03  0.37361545783E+03 -0.42891761654E+03  0.63822449139E+03  0.00000000000E+00 0. -1.
        -13    1    1    2    0    0 -0.10426567957E+03 -0.19935362952E+03  0.30228252988E+03  0.37681287209E+03  0.10566000000E+00 0.  1.
<mgrwt>
<rscale>  1 0.69765696E+03</rscale>
<asrwt>0</asrwt>
<pdfrwt beam="2">  1       21 0.11542681E+00 0.10173692E+04</pdfrwt>
<pdfrwt beam="1">  1       -4 0.10807082E+00 0.10173692E+04</pdfrwt>
<totfact> 0.14630446E+01</totfact>
</mgrwt>
</event>
<event>
 6    2  0.2267664E-005  0.1067769E+04  0.7818608E-02  0.9515088E-01
         -4   -1    0    0    0  501 -0.00000000000E+00  0.00000000000E+00  0.13906737618E+04  0.13906737618E+04  0.00000000000E+00 0. -1.
         21   -1    0    0  501  502  0.00000000000E+00 -0.00000000000E+00 -0.60217661200E+03  0.60217661200E+03  0.00000000000E+00 0. -1.
   -9000010    2    1    2    0  502  0.37454384765E+03 -0.11980096613E+03 -0.47668786186E+02  0.10688325986E+04  0.99272123241E+03 0.  0.
         13    1    3    3    0    0  0.49854517076E+03 -0.39415970047E+03 -0.27408251444E+03  0.69212021546E+03  0.10566000000E+00 0. -1.
         -4    1    3    3    0  502 -0.12400132311E+03  0.27435873434E+03  0.22641372826E+03  0.37671238310E+03  0.00000000000E+00 0. -1.
        -13    1    1    2    0    0 -0.37454384765E+03  0.11980096613E+03  0.83616593596E+03  0.92401777522E+03  0.10566000000E+00 0.  1.
<mgrwt>
<rscale>  1 0.83180517E+03</rscale>
<asrwt>0</asrwt>
<pdfrwt beam="2">  1       21 0.92642556E-01 0.10677691E+04</pdfrwt>
<pdfrwt beam="1">  1       -4 0.21394981E+00 0.10677691E+04</pdfrwt>
<totfact> 0.38832463E+00</totfact>
</mgrwt>
</event>
<event>
 6    2  0.2267664E-005  0.1016810E+04  0.7818608E-02  0.9902326E-01
         21   -1    0    0  501  502  0.00000000000E+00  0.00000000000E+00  0.99942897844E+03  0.99942897844E+03  0.00000000000E+00 0. -1.
         -4   -1    0    0    0  501 -0.00000000000E+00 -0.00000000000E+00 -0.40951113659E+03  0.40951113659E+03  0.00000000000E+00 0. -1.
   -9000010    2    1    2    0  502  0.89385146658E+02  0.86669612099E+02  0.70666903515E+03  0.12382586034E+04  0.10091590150E+04 0.  0.
         13    1    3    3    0    0  0.34986514847E+03  0.33350758269E+03  0.73345628175E+03  0.87840256046E+03  0.10566000000E+00 0. -1.
         -4    1    3    3    0  502 -0.26048000181E+03 -0.24683797059E+03 -0.26787246599E+02  0.35985604295E+03  0.00000000000E+00 0. -1.
        -13    1    1    2    0    0 -0.89385146658E+02 -0.86669612099E+02 -0.11675119330E+03  0.17068151161E+03  0.10566000000E+00 0.  1.
<mgrwt>
<rscale>  1 0.60148681E+03</rscale>
<asrwt>0</asrwt>
<pdfrwt beam="1">  1       21 0.15375830E+00 0.10168103E+04</pdfrwt>
<pdfrwt beam="2">  1       -4 0.63001714E-01 0.10168103E+04</pdfrwt>
<totfact> 0.23671948E+01</totfact>
</mgrwt>
</event>
<event>
 6    2  0.2267664E-005  0.1048213E+04  0.7818608E-02  0.9603778E-01
         -4   -1    0    0    0  501 -0.00000000000E+00  0.00000000000E+00  0.10927714238E+04  0.10927714238E+04  0.00000000000E+00 0. -1.
         21   -1    0    0  501  502  0.00000000000E+00 -0.00000000000E+00 -0.50132581705E+03  0.50132581705E+03  0.00000000000E+00 0. -1.
   -9000010    2    1    2    0  502 -0.29850314112E+03 -0.67142691712E+02  0.15280648144E+03  0.10592920803E+04  0.10025655212E+04 0.  0.
         13    1    3    3    0    0 -0.18966505189E+03  0.34249305179E+03  0.40726786449E+03  0.56492605450E+03  0.10566000000E+00 0. -1.
         -4    1    3    3    0  502 -0.10883808923E+03 -0.40963574351E+03 -0.25446138306E+03  0.49436602583E+03  0.00000000000E+00 0. -1.
        -13    1    1    2    0    0  0.29850314112E+03  0.67142691712E+02  0.43863912533E+03  0.53480516054E+03  0.10566000000E+00 0.  1.
<mgrwt>
<rscale>  1 0.77046634E+03</rscale>
<asrwt>0</asrwt>
<pdfrwt beam="2">  1       21 0.77127049E-01 0.10482127E+04</pdfrwt>
<pdfrwt beam="1">  1       -4 0.16811868E+00 0.10482127E+04</pdfrwt>
<totfact> 0.12348627E+01</totfact>
</mgrwt>
</event>
<event>
 6    2  0.2267664E-005  0.1070522E+04  0.7818608E-02  0.9549939E-01
         21   -1    0    0  501  502  0.00000000000E+00  0.00000000000E+00  0.11241050674E+04  0.11241050674E+04  0.00000000000E+00 0. -1.
         -4   -1    0    0    0  501 -0.00000000000E+00 -0.00000000000E+00 -0.51647466368E+03  0.51647466368E+03  0.00000000000E+00 0. -1.
   -9000010    2    1    2    0  502 -0.32943474985E+03  0.10481489086E+03  0.70452483774E+03  0.12815505425E+04  0.10131649078E+04 0.  0.
         13    1    3    3    0    0 -0.62219005311E+03 -0.19217600053E+03  0.38814674210E+03  0.75809628803E+03  0.10566000000E+00 0. -1.
         -4    1    3    3    0  502  0.29275530325E+03  0.29699089138E+03  0.31637809565E+03  0.52345425450E+03  0.00000000000E+00 0. -1.
        -13    1    1    2    0    0  0.32943474985E+03 -0.10481489086E+03 -0.96894433979E+02  0.35902918859E+03  0.10566000000E+00 0.  1.
<mgrwt>
<rscale>  1 0.80700025E+03</rscale>
<asrwt>0</asrwt>
<pdfrwt beam="1">  1       21 0.17293924E+00 0.10705216E+04</pdfrwt>
<pdfrwt beam="2">  1       -4 0.79457641E-01 0.10705216E+04</pdfrwt>
<totfact> 0.99532051E+00</totfact>
</mgrwt>
</event>
<event>
 6    2  0.2267664E-005  0.1008401E+04  0.7818608E-02  0.9724081E-01
         21   -1    0    0  501  502  0.00000000000E+00  0.00000000000E+00  0.46834715431E+03  0.46834715431E+03  0.00000000000E+00 0. -1.
         -4   -1    0    0    0  501 -0.00000000000E+00 -0.00000000000E+00 -0.11146497934E+04  0.11146497934E+04  0.00000000000E+00 0. -1.
   -9000010    2    1    2    0  502 -0.22013091564E+03  0.62586638887E+02 -0.12809535217E+03  0.10165046611E+04  0.98208889590E+03 0.  0.
         13    1    3    3    0    0  0.37678121179E+03  0.14571409089E+03 -0.80815220303E+02  0.41198032579E+03  0.10566000000E+00 0. -1.
         -4    1    3    3    0  502 -0.59691212743E+03 -0.83127452001E+02 -0.47280131868E+02  0.60452433534E+03  0.00000000000E+00 0. -1.
        -13    1    1    2    0    0  0.22013091564E+03 -0.62586638887E+02 -0.51820728689E+03  0.56649228657E+03  0.10566000000E+00 0.  1.
<mgrwt>
<rscale>  1 0.69600968E+03</rscale>
<asrwt>0</asrwt>
<pdfrwt beam="1">  1       21 0.72053409E-01 0.10084014E+04</pdfrwt>
<pdfrwt beam="2">  1       -4 0.17148458E+00 0.10084014E+04</pdfrwt>
<totfact> 0.13733628E+01</totfact>
</mgrwt>
</event>
<event>
 6    2  0.2267664E-005  0.1077787E+04  0.7818608E-02  0.9613692E-01
         -4   -1    0    0    0  501 -0.00000000000E+00  0.00000000000E+00  0.28169309815E+03  0.28169309815E+03  0.00000000000E+00 0. -1.
         21   -1    0    0  501  502  0.00000000000E+00 -0.00000000000E+00 -0.16278754538E+04  0.16278754538E+04  0.00000000000E+00 0. -1.
   -9000010    2    1    2    0  502  0.25462118177E+03 -0.95890596494E+02 -0.10098447553E+04  0.14769602473E+04  0.10428797579E+04 0.  0.
         13    1    3    3    0    0  0.20832202620E+03 -0.41080178082E+03 -0.47150604141E+02  0.46301118816E+03  0.10566000000E+00 0. -1.
         -4    1    3    3    0  502  0.46299155563E+02  0.31491118433E+03 -0.96269415113E+03  0.10139490591E+04  0.00000000000E+00 0. -1.
        -13    1    1    2    0    0 -0.25462118177E+03  0.95890596494E+02 -0.33633760037E+03  0.43260830469E+03  0.10566000000E+00 0.  1.
<mgrwt>
<rscale>  1 0.76396515E+03</rscale>
<asrwt>0</asrwt>
<pdfrwt beam="2">  1       21 0.25044237E+00 0.10777872E+04</pdfrwt>
<pdfrwt beam="1">  1       -4 0.43337401E-01 0.10777872E+04</pdfrwt>
<totfact> 0.11074925E+01</totfact>
</mgrwt>
</event>
<event>
 6    2  0.2267664E-005  0.1071794E+04  0.7818608E-02  0.9521419E-01
         21   -1    0    0  501  502  0.00000000000E+00  0.00000000000E+00  0.10034409010E+04  0.10034409010E+04  0.00000000000E+00 0. -1.
         -4   -1    0    0    0  501 -0.00000000000E+00 -0.00000000000E+00 -0.73557945318E+03  0.73557945318E+03  0.00000000000E+00 0. -1.
   -9000010    2    1    2    0  502  0.33022071015E+03  0.18870884711E+03 -0.24605113009E+03  0.10996746767E+04  0.10020411616E+04 0.  0.
         13    1    3    3    0    0  0.10893123328E+03  0.57499459837E+03 -0.28850921790E+03  0.65247404677E+03  0.10566000000E+00 0. -1.
         -4    1    3    3    0  502  0.22128947687E+03 -0.38628575125E+03  0.42458087811E+02  0.44720062994E+03  0.00000000000E+00 0. -1.
        -13    1    1    2    0    0 -0.33022071015E+03 -0.18870884711E+03  0.51391257791E+03  0.63934567747E+03  0.10566000000E+00 0.  1.
<mgrwt>
<rscale>  1 0.82722949E+03</rscale>
<asrwt>0</asrwt>
<pdfrwt beam="1">  1       21 0.15437552E+00 0.10717944E+04</pdfrwt>
<pdfrwt beam="2">  1       -4 0.11316607E+00 0.10717944E+04</pdfrwt>
<totfact> 0.59425697E+00</totfact>
</mgrwt>
</event>
<event>
 6    2  0.2267664E-005  0.9802915E+03  0.7818608E-02  0.9769688E-01
         21   -1    0    0  501  502  0.00000000000E+00  0.00000000000E+00  0.11108655621E+04  0.11108655621E+04  0.00000000000E+00 0. -1.
         -4   -1    0    0    0  501 -0.00000000000E+00 -0.00000000000E+00 -0.70625129921E+03  0.70625129921E+03  0.00000000000E+00 0. -1.
   -9000010    2    1    2    0  502 -0.17090014445E+03  0.12896773551E+03  0.86628737873E+03  0.13082145002E+04  0.95662522430E+03 0.  0.
         13    1    3    3    0    0 -0.42429304738E+03 -0.18992565956E+03  0.75387576042E+03  0.88567771764E+03  0.10566000000E+00 0. -1.
         -4    1    3    3    0  502  0.25339290292E+03  0.31889339507E+03  0.11241161831E+03  0.42253678254E+03  0.00000000000E+00 0. -1.
        -13    1    1    2    0    0  0.17090014445E+03 -0.12896773551E+03 -0.46167311581E+03  0.50890236117E+03  0.10566000000E+00 0.  1.
<mgrwt>
<rscale>  1 0.67014913E+03</rscale>
<asrwt>0</asrwt>
<pdfrwt beam="1">  1       21 0.17090239E+00 0.98029146E+03</pdfrwt>
<pdfrwt beam="2">  1       -4 0.10865405E+00 0.98029146E+03</pdfrwt>
<totfact> 0.49613020E+00</totfact>
</mgrwt>
</event>
<event>
 6    2  0.2267664E-005  0.1102506E+04  0.7818608E-02  0.9431047E-01
         -4   -1    0    0    0  501 -0.00000000000E+00  0.00000000000E+00  0.12690953733E+04  0.12690953733E+04  0.00000000000E+00 0. -1.
         21   -1    0    0  501  502  0.00000000000E+00 -0.00000000000E+00 -0.49516132960E+03  0.49516132960E+03  0.00000000000E+00 0.  1.
   -9000010    2    1    2    0  502 -0.47761602598E+03  0.49429873473E+02  0.49066675714E+03  0.12067616379E+04  0.99245120965E+03 0.  0.
         13    1    3    3    0    0  0.24744491900E+03  0.13888357858E+03  0.37003885268E+03  0.46631148387E+03  0.10566000000E+00 0. -1.
         -4    1    3    3    0  502 -0.72506094498E+03 -0.89453705108E+02  0.12062790446E+03  0.74045015405E+03  0.00000000000E+00 0. -1.
        -13    1    1    2    0    0  0.47761602598E+03 -0.49429873473E+02  0.28326728654E+03  0.55749506496E+03  0.10566000000E+00 0.  1.
<mgrwt>
<rscale>  1 0.89564076E+03</rscale>
<asrwt>0</asrwt>
<pdfrwt beam="2">  1       21 0.76178666E-01 0.11025061E+04</pdfrwt>
<pdfrwt beam="1">  1       -4 0.19524544E+00 0.11025061E+04</pdfrwt>
<totfact> 0.81813773E+00</totfact>
</mgrwt>
</event>
<event>
 6    2  0.2267664E-005  0.1001450E+04  0.7818608E-02  0.9661623E-01
         21   -1    0    0  501  502  0.00000000000E+00  0.00000000000E+00  0.15500481303E+04  0.15500481303E+04  0.00000000000E+00 0. -1.
         -4   -1    0    0    0  501 -0.00000000000E+00 -0.00000000000E+00 -0.26909986279E+03  0.26909986279E+03  0.00000000000E+00 0. -1.
   -9000010    2    1    2    0  502  0.25404957483E+03  0.13605405457E+03  0.95081023567E+03  0.13809208562E+04  0.95908832476E+03 0.  0.
         13    1    3    3    0    0 -0.34475443986E+03  0.19780577335E+03  0.33581924090E+03  0.52034346493E+03  0.10566000000E+00 0. -1.
         -4    1    3    3    0  502  0.59880401469E+03 -0.61751718775E+02  0.61499099477E+03  0.86057739131E+03  0.00000000000E+00 0. -1.
        -13    1    1    2    0    0 -0.25404957483E+03 -0.13605405457E+03  0.33013803184E+03  0.43822713685E+03  0.10566000000E+00 0.  1.
<mgrwt>
<rscale>  1 0.73348416E+03</rscale>
<asrwt>0</asrwt>
<pdfrwt beam="1">  1       21 0.23846894E+00 0.10014501E+04</pdfrwt>
<pdfrwt beam="2">  1       -4 0.41399980E-01 0.10014501E+04</pdfrwt>
<totfact> 0.14672007E+01</totfact>
</mgrwt>
</event>
<event>
 6    2  0.2267664E-005  0.1245073E+04  0.7818608E-02  0.9212766E-01
         21   -1    0    0  501  502  0.00000000000E+00  0.00000000000E+00  0.96698829828E+03  0.96698829828E+03  0.00000000000E+00 0. -1.
         -4   -1    0    0    0  501 -0.00000000000E+00 -0.00000000000E+00 -0.11050204018E+04  0.11050204018E+04  0.00000000000E+00 0. -1.
   -9000010    2    1    2    0  502 -0.67350477018E+03 -0.30033528440E+03  0.19957568696E+03  0.12609667838E+04  0.10031933097E+04 0.  0.
         13    1    3    3    0    0 -0.69903379870E+03  0.13268464379E+03 -0.12081663184E+03  0.72169947770E+03  0.10566000000E+00 0. -1.
         -4    1    3    3    0  502  0.25529028516E+02 -0.43301992819E+03  0.32039231881E+03  0.53926730613E+03  0.00000000000E+00 0. -1.
        -13    1    1    2    0    0  0.67350477018E+03  0.30033528440E+03 -0.33760779045E+03  0.81104191621E+03  0.10566000000E+00 0.  1.
<mgrwt>
<rscale>  1 0.10922625E+04</rscale>
<asrwt>0</asrwt>
<pdfrwt beam="1">  1       21 0.14876743E+00 0.12450730E+04</pdfrwt>
<pdfrwt beam="2">  1       -4 0.17000314E+00 0.12450730E+04</pdfrwt>
<totfact> 0.22072812E+00</totfact>
</mgrwt>
</event>
<event>
 6    2  0.2267664E-005  0.1146372E+04  0.7818608E-02  0.9317399E-01
         21   -1    0    0  501  502  0.00000000000E+00  0.00000000000E+00  0.17763471268E+04  0.17763471268E+04  0.00000000000E+00 0. -1.
         -4   -1    0    0    0  501 -0.00000000000E+00 -0.00000000000E+00 -0.60792397583E+03  0.60792397583E+03  0.00000000000E+00 0. -1.
   -9000010    2    1    2    0  502 -0.44884609817E+03 -0.46000920527E+03  0.12946946558E+04  0.17292781310E+04  0.94926145698E+03 0.  0.
         13    1    3    3    0    0 -0.65295338025E+03 -0.15248943958E+03  0.45017162695E+03  0.80762345857E+03  0.10566000000E+00 0. -1.
         -4    1    3    3    0  502  0.20410728208E+03 -0.30751976569E+03  0.84452302885E+03  0.92165467239E+03  0.00000000000E+00 0. -1.
        -13    1    1    2    0    0  0.44884609817E+03  0.46000920527E+03 -0.12627150486E+03  0.65499297163E+03  0.10566000000E+00 0.  1.
<mgrwt>
<rscale>  1 0.99196714E+03</rscale>
<asrwt>0</asrwt>
<pdfrwt beam="1">  1       21 0.27328417E+00 0.11463719E+04</pdfrwt>
<pdfrwt beam="2">  1       -4 0.93526766E-01 0.11463719E+04</pdfrwt>
<totfact> 0.14359341E+00</totfact>
</mgrwt>
</event>
<event>
 6    2  0.2267664E-005  0.1070070E+04  0.7818608E-02  0.9535284E-01
         -4   -1    0    0    0  501 -0.00000000000E+00  0.00000000000E+00  0.83902310790E+03  0.83902310790E+03  0.00000000000E+00 0. -1.
         21   -1    0    0  501  502  0.00000000000E+00 -0.00000000000E+00 -0.77514617733E+03  0.77514617733E+03  0.00000000000E+00 0. -1.
   -9000010    2    1    2    0  502  0.18279142892E+03  0.31499181874E+03 -0.28759254302E+03  0.11080434566E+04  0.10061899814E+04 0.  0.
         13    1    3    3    0    0  0.31419192544E+03  0.32087230105E+03  0.27746114196E+03  0.52788284311E+03  0.10566000000E+00 0. -1.
         -4    1    3    3    0  502 -0.13140049652E+03 -0.58804823085E+01 -0.56505368497E+03  0.58016061350E+03  0.00000000000E+00 0. -1.
        -13    1    1    2    0    0 -0.18279142892E+03 -0.31499181874E+03  0.35146947359E+03  0.50612582861E+03  0.10566000000E+00 0.  1.
<mgrwt>
<rscale>  1 0.81731705E+03</rscale>
<asrwt>0</asrwt>
<pdfrwt beam="2">  1       21 0.11925326E+00 0.10700705E+04</pdfrwt>
<pdfrwt beam="1">  1       -4 0.12908048E+00 0.10700705E+04</pdfrwt>
<totfact> 0.85680204E+00</totfact>
</mgrwt>
</event>
<event>
 6    2  0.2267664E-005  0.1255391E+04  0.7818608E-02  0.9197153E-01
         21   -1    0    0  501  502  0.00000000000E+00  0.00000000000E+00  0.20282275247E+04  0.20282275247E+04  0.00000000000E+00 0. -1.
         -4   -1    0    0    0  501 -0.00000000000E+00 -0.00000000000E+00 -0.61287034833E+03  0.61287034833E+03  0.00000000000E+00 0. -1.
   -9000010    2    1    2    0  502 -0.56629456830E+03 -0.51068449882E+03  0.13971787318E+04  0.18783274865E+04  0.99725500377E+03 0.  0.
         13    1    3    3    0    0  0.23155201823E+03 -0.38106669841E+03  0.53612613091E+03  0.69732302787E+03  0.10566000000E+00 0. -1.
         -4    1    3    3    0  502 -0.79784658653E+03 -0.12961780041E+03  0.86105260093E+03  0.11810044587E+04  0.00000000000E+00 0. -1.
        -13    1    1    2    0    0  0.56629456830E+03  0.51068449882E+03  0.18178444477E+02  0.76277038644E+03  0.10566000000E+00 0.  1.
<mgrwt>
<rscale>  1 0.11082858E+04</rscale>
<asrwt>0</asrwt>
<pdfrwt beam="1">  1       21 0.31203500E+00 0.12553907E+04</pdfrwt>
<pdfrwt beam="2">  1       -4 0.94287747E-01 0.12553907E+04</pdfrwt>
<totfact> 0.79068332E-01</totfact>
</mgrwt>
</event>
<event>
 6    2  0.2267664E-005  0.1001730E+04  0.7818608E-02  0.9911537E-01
         -4   -1    0    0    0  501 -0.00000000000E+00  0.00000000000E+00  0.51380574866E+03  0.51380574866E+03  0.00000000000E+00 0. -1.
         21   -1    0    0  501  502  0.00000000000E+00 -0.00000000000E+00 -0.80491130324E+03  0.80491130324E+03  0.00000000000E+00 0. -1.
   -9000010    2    1    2    0  502  0.32805475274E+02 -0.12208529021E+03 -0.46445766066E+03  0.11041664025E+04  0.99372104168E+03 0.  0.
         13    1    3    3    0    0 -0.18491861869E+03  0.33337841573E+03 -0.46245658931E+03  0.59933477437E+03  0.10566000000E+00 0. -1.
         -4    1    3    3    0  502  0.21772409396E+03 -0.45546370594E+03 -0.20010713435E+01  0.50483162817E+03  0.00000000000E+00 0. -1.
        -13    1    1    2    0    0 -0.32805475274E+02  0.12208529021E+03  0.17335210607E+03  0.21455064936E+03  0.10566000000E+00 0.  1.
<mgrwt>
<rscale>  1 0.59705388E+03</rscale>
<asrwt>0</asrwt>
<pdfrwt beam="2">  1       21 0.12383251E+00 0.10017298E+04</pdfrwt>
<pdfrwt beam="1">  1       -4 0.79047039E-01 0.10017298E+04</pdfrwt>
<totfact> 0.25627219E+01</totfact>
</mgrwt>
</event>
<event>
 6    2  0.2267664E-005  0.9994743E+03  0.7818608E-02  0.9967330E-01
         -4   -1    0    0    0  501 -0.00000000000E+00  0.00000000000E+00  0.65325465707E+03  0.65325465707E+03  0.00000000000E+00 0. -1.
         21   -1    0    0  501  502  0.00000000000E+00 -0.00000000000E+00 -0.88452407619E+03  0.88452407619E+03  0.00000000000E+00 0. -1.
   -9000010    2    1    2    0  502 -0.10587637496E+03  0.11665604548E+02 -0.59200555275E+03  0.11616451634E+04  0.99378217839E+03 0.  0.
         13    1    3    3    0    0 -0.43172047436E+03 -0.24501267806E+03 -0.55590050032E+03  0.74527790643E+03  0.10566000000E+00 0. -1.
         -4    1    3    3    0  502  0.32584409940E+03  0.25667828261E+03 -0.36105052429E+02  0.41636725698E+03  0.00000000000E+00 0. -1.
        -13    1    1    2    0    0  0.10587637496E+03 -0.11665604548E+02  0.36073613362E+03  0.37613356985E+03  0.10566000000E+00 0.  1.
<mgrwt>
<rscale>  1 0.57106247E+03</rscale>
<asrwt>0</asrwt>
<pdfrwt beam="2">  1       21 0.13608063E+00 0.99947432E+03</pdfrwt>
<pdfrwt beam="1">  1       -4 0.10050072E+00 0.99947432E+03</pdfrwt>
<totfact> 0.11352840E+01</totfact>
</mgrwt>
</event>
<event>
 6    2  0.3721147E-005  0.7943963E+03  0.7818608E-02  0.9934447E-01
         -4   -1    0    0    0  501 -0.00000000000E+00  0.00000000000E+00  0.27455558223E+03  0.27455558223E+03  0.00000000000E+00 0. -1.
         21   -1    0    0  501  502  0.00000000000E+00 -0.00000000000E+00 -0.97652524377E+03  0.97652524377E+03  0.00000000000E+00 0. -1.
   -9000010    2    1    2    0  502 -0.23229475599E+03 -0.39034057685E+02 -0.59424697570E+03  0.99206596247E+03  0.75867047816E+03 0.  0.
         13    1    3    3    0    0 -0.29072034384E+03  0.19919581401E+03 -0.35168127867E+01  0.35243392257E+03  0.10566000000E+00 0. -1.
         -4    1    3    3    0  502  0.58425587848E+02 -0.23822987170E+03 -0.59073016291E+03  0.63963203989E+03  0.00000000000E+00 0. -1.
        -13    1    1    2    0    0  0.23229475599E+03  0.39034057685E+02 -0.10772268585E+03  0.25901486353E+03  0.10566000000E+00 0.  1.
<mgrwt>
<rscale>  1 0.58620480E+03</rscale>
<asrwt>0</asrwt>
<pdfrwt beam="2">  1       21 0.15023465E+00 0.79439625E+03</pdfrwt>
<pdfrwt beam="1">  1       -4 0.42239321E-01 0.79439625E+03</pdfrwt>
<totfact> 0.60408063E+01</totfact>
</mgrwt>
</event>
<event>
 6    2  0.2267664E-005  0.9964429E+03  0.7818608E-02  0.9751305E-01
         21   -1    0    0  501  502  0.00000000000E+00  0.00000000000E+00  0.79917462469E+03  0.79917462469E+03  0.00000000000E+00 0. -1.
         -4   -1    0    0    0  501 -0.00000000000E+00 -0.00000000000E+00 -0.59049294150E+03  0.59049294150E+03  0.00000000000E+00 0. -1.
   -9000010    2    1    2    0  502 -0.21626063127E+03 -0.13038566375E+02  0.42519775508E+03  0.10833705120E+04  0.97260468358E+03 0.  0.
         13    1    3    3    0    0  0.24691878956E+03  0.20906991569E+03 -0.10982371813E+03  0.34167291158E+03  0.10566000000E+00 0. -1.
         -4    1    3    3    0  502 -0.46317942083E+03 -0.22210848206E+03  0.53502147321E+03  0.74169760043E+03  0.00000000000E+00 0. -1.
        -13    1    1    2    0    0  0.21626063127E+03  0.13038566375E+02 -0.21651607188E+03  0.30629705418E+03  0.10566000000E+00 0.  1.
<mgrwt>
<rscale>  1 0.68042566E+03</rscale>
<asrwt>0</asrwt>
<pdfrwt beam="1">  1       21 0.12294994E+00 0.99644294E+03</pdfrwt>
<pdfrwt beam="2">  1       -4 0.90845067E-01 0.99644294E+03</pdfrwt>
<totfact> 0.18909459E+01</totfact>
</mgrwt>
</event>
<event>
 6    2  0.2267664E-005  0.1010254E+04  0.7818608E-02  0.9766815E-01
         21   -1    0    0  501  502  0.00000000000E+00  0.00000000000E+00  0.61046588818E+03  0.61046588818E+03  0.00000000000E+00 0. -1.
         -4   -1    0    0    0  501 -0.00000000000E+00 -0.00000000000E+00 -0.71502672062E+03  0.71502672062E+03  0.00000000000E+00 0. -1.
   -9000010    2    1    2    0  502 -0.10295480173E+03 -0.16851759472E+03  0.13032188413E+03  0.10186249294E+04  0.99076489768E+03 0.  0.
         13    1    3    3    0    0  0.16936441479E+02 -0.51814966350E+02  0.55733962286E+03  0.55999919657E+03  0.10566000000E+00 0. -1.
         -4    1    3    3    0  502 -0.11989124321E+03 -0.11670262837E+03 -0.42701773873E+03  0.45862573287E+03  0.00000000000E+00 0. -1.
        -13    1    1    2    0    0  0.10295480173E+03  0.16851759472E+03 -0.23488271658E+03  0.30686767936E+03  0.10566000000E+00 0.  1.
<mgrwt>
<rscale>  1 0.67174282E+03</rscale>
<asrwt>0</asrwt>
<pdfrwt beam="1">  1       21 0.93917829E-01 0.10102539E+04</pdfrwt>
<pdfrwt beam="2">  1       -4 0.11000411E+00 0.10102539E+04</pdfrwt>
<totfact> 0.23485010E+01</totfact>
</mgrwt>
</event>
<event>
 6    2  0.2267664E-005  0.1068454E+04  0.7818608E-02  0.9657832E-01
         21   -1    0    0  501  502  0.00000000000E+00  0.00000000000E+00  0.58308516162E+03  0.58308516162E+03  0.00000000000E+00 0. -1.
         -4   -1    0    0    0  501 -0.00000000000E+00 -0.00000000000E+00 -0.16483467991E+04  0.16483467991E+04  0.00000000000E+00 0. -1.
   -9000010    2    1    2    0  502  0.23811185114E+03  0.32803429732E+02  0.70248458345E+02  0.10707612462E+04  0.10410674723E+04 0.  0.
         13    1    3    3    0    0  0.22459556464E+03  0.33299405358E+03  0.43903792834E+03  0.59504833506E+03  0.10566000000E+00 0. -1.
         -4    1    3    3    0  502  0.13516286500E+02 -0.30019062385E+03 -0.36878946999E+03  0.47571291114E+03  0.00000000000E+00 0. -1.
        -13    1    1    2    0    0 -0.23811185114E+03 -0.32803429732E+02 -0.11355100959E+04  0.11606707146E+04  0.10566000000E+00 0.  1.
<mgrwt>
<rscale>  1 0.73583920E+03</rscale>
<asrwt>0</asrwt>
<pdfrwt beam="1">  1       21 0.89705411E-01 0.10684544E+04</pdfrwt>
<pdfrwt beam="2">  1       -4 0.25359181E+00 0.10684544E+04</pdfrwt>
<totfact> 0.23633620E+00</totfact>
</mgrwt>
</event>
<event>
 6    2  0.2267664E-005  0.1028692E+04  0.7818608E-02  0.9685966E-01
         21   -1    0    0  501  502  0.00000000000E+00  0.00000000000E+00  0.15174954335E+03  0.15174954335E+03  0.00000000000E+00 0. -1.
         -4   -1    0    0    0  501 -0.00000000000E+00 -0.00000000000E+00 -0.27553078742E+04  0.27553078742E+04  0.00000000000E+00 0. -1.
   -9000010    2    1    2    0  502 -0.10469891377E+03 -0.22143431245E+03 -0.18781746219E+04  0.21414357397E+04  0.99910564981E+03 0.  0.
         13    1    3    3    0    0  0.43653965830E+03  0.17746248175E+02 -0.80917392297E+03  0.91958917532E+03  0.10566000000E+00 0. -1.
         -4    1    3    3    0  502 -0.54123857207E+03 -0.23918056062E+03 -0.10690006989E+04  0.12218465643E+04  0.00000000000E+00 0. -1.
        -13    1    1    2    0    0  0.10469891377E+03  0.22143431245E+03 -0.72538370892E+03  0.76562167786E+03  0.10566000000E+00 0.  1.
<mgrwt>
<rscale>  1 0.71858544E+03</rscale>
<asrwt>0</asrwt>
<pdfrwt beam="1">  1       21 0.23346083E-01 0.10286919E+04</pdfrwt>
<pdfrwt beam="2">  1       -4 0.42389352E+00 0.10286919E+04</pdfrwt>
<totfact> 0.33829432E+00</totfact>
</mgrwt>
</event>
<event>
 6    2  0.2267664E-005  0.1192016E+04  0.7818608E-02  0.9264143E-01
         -4   -1    0    0    0  501 -0.00000000000E+00  0.00000000000E+00  0.17297380505E+04  0.17297380505E+04  0.00000000000E+00 0. -1.
         21   -1    0    0  501  502  0.00000000000E+00 -0.00000000000E+00 -0.52460167248E+03  0.52460167248E+03  0.00000000000E+00 0. -1.
   -9000010    2    1    2    0  502 -0.13081145805E+03 -0.68231687827E+03  0.90925230413E+03  0.14992136697E+04  0.96862475449E+03 0.  0.
         13    1    3    3    0    0 -0.10027156431E+03 -0.73774158160E+03  0.10830388313E+04  0.13142641094E+04  0.10566000000E+00 0. -1.
         -4    1    3    3    0  502 -0.30539893739E+02  0.55424703332E+02 -0.17378652719E+03  0.18494956037E+03  0.00000000000E+00 0. -1.
        -13    1    1    2    0    0  0.13081145805E+03  0.68231687827E+03  0.29588407385E+03  0.75512605322E+03  0.10566000000E+00 0.  1.
<mgrwt>
<rscale>  1 0.10415201E+04</rscale>
<asrwt>0</asrwt>
<pdfrwt beam="2">  1       21 0.80707951E-01 0.11920159E+04</pdfrwt>
<pdfrwt beam="1">  1       -4 0.26611354E+00 0.11920159E+04</pdfrwt>
<totfact> 0.25041756E+00</totfact>
</mgrwt>
</event>
<event>
 6    2  0.2267664E-005  0.1006118E+04  0.7818608E-02  0.1015798E+00
         21   -1    0    0  501  502  0.00000000000E+00  0.00000000000E+00  0.32534127144E+03  0.32534127144E+03  0.00000000000E+00 0. -1.
         -4   -1    0    0    0  501 -0.00000000000E+00 -0.00000000000E+00 -0.88703634802E+03  0.88703634802E+03  0.00000000000E+00 0. -1.
   -9000010    2    1    2    0  502  0.37450835869E+02 -0.43882261312E+02 -0.48640335919E+03  0.11175247237E+04  0.10044625738E+04 0.  0.
         13    1    3    3    0    0  0.10344248024E+03  0.47141422651E+03 -0.28395982072E+03  0.55996866932E+03  0.10566000000E+00 0. -1.
         -4    1    3    3    0  502 -0.65991644370E+02 -0.51529648783E+03 -0.20244353848E+03  0.55755605437E+03  0.00000000000E+00 0. -1.
        -13    1    1    2    0    0 -0.37450835869E+02  0.43882261312E+02 -0.75291717384E+02  0.94852895769E+02  0.10566000000E+00 0.  1.
<mgrwt>
<rscale>  1 0.49233795E+03</rscale>
<asrwt>0</asrwt>
<pdfrwt beam="1">  1       21 0.50052504E-01 0.10061179E+04</pdfrwt>
<pdfrwt beam="2">  1       -4 0.13646713E+00 0.10061179E+04</pdfrwt>
<totfact> 0.57512118E+01</totfact>
</mgrwt>
</event>
<event>
 6    2  0.2267664E-005  0.1025375E+04  0.7818608E-02  0.9723556E-01
         21   -1    0    0  501  502  0.00000000000E+00  0.00000000000E+00  0.34968463938E+03  0.34968463938E+03  0.00000000000E+00 0. -1.
         -4   -1    0    0    0  501 -0.00000000000E+00 -0.00000000000E+00 -0.12409547725E+04  0.12409547725E+04  0.00000000000E+00 0. -1.
   -9000010    2    1    2    0  502 -0.51760554702E+02 -0.21182620628E+03 -0.91110595256E+03  0.13716805856E+04  0.10019201941E+04 0.  0.
         13    1    3    3    0    0  0.13311115420E+03 -0.67038152462E+02 -0.10750241086E+04  0.10853061957E+04  0.10566000000E+00 0. -1.
         -4    1    3    3    0  502 -0.18487170890E+03 -0.14478805382E+03  0.16391815605E+03  0.28637438986E+03  0.00000000000E+00 0. -1.
        -13    1    1    2    0    0  0.51760554702E+02  0.21182620628E+03  0.19835819476E+02  0.21895882624E+03  0.10566000000E+00 0.  1.
<mgrwt>
<rscale>  1 0.69631428E+03</rscale>
<asrwt>0</asrwt>
<pdfrwt beam="1">  1       21 0.53797636E-01 0.10253748E+04</pdfrwt>
<pdfrwt beam="2">  1       -4 0.19091612E+00 0.10253748E+04</pdfrwt>
<totfact> 0.19350023E+01</totfact>
</mgrwt>
</event>
<event>
 6    2  0.2267664E-005  0.1049798E+04  0.7818608E-02  0.9593995E-01
         -4   -1    0    0    0  501 -0.00000000000E+00  0.00000000000E+00  0.63811752677E+03  0.63811752677E+03  0.00000000000E+00 0. -1.
         21   -1    0    0  501  502  0.00000000000E+00 -0.00000000000E+00 -0.73043753290E+03  0.73043753290E+03  0.00000000000E+00 0. -1.
   -9000010    2    1    2    0  502  0.24187560112E+03 -0.20172922897E+03 -0.89208763015E+02  0.10535817604E+04  0.10014378834E+04 0.  0.
         13    1    3    3    0    0 -0.17969195305E+03  0.28630463003E+03 -0.20932841312E+03  0.39759015942E+03  0.10566000000E+00 0. -1.
         -4    1    3    3    0  502  0.42156755416E+03 -0.48803385900E+03  0.12011965011E+03  0.65599160101E+03  0.00000000000E+00 0. -1.
        -13    1    1    2    0    0 -0.24187560112E+03  0.20172922897E+03 -0.31112431227E+01  0.31497329924E+03  0.10566000000E+00 0.  1.
<mgrwt>
<rscale>  1 0.77694900E+03</rscale>
<asrwt>0</asrwt>
<pdfrwt beam="2">  1       21 0.11237501E+00 0.10497982E+04</pdfrwt>
<pdfrwt beam="1">  1       -4 0.98171927E-01 0.10497982E+04</pdfrwt>
<totfact> 0.19722946E+01</totfact>
</mgrwt>
</event>
<event>
 6    2  0.2267664E-005  0.9294387E+03  0.7818608E-02  0.9742907E-01
         21   -1    0    0  501  502  0.00000000000E+00  0.00000000000E+00  0.11411448507E+04  0.11411448507E+04  0.00000000000E+00 0. -1.
         -4   -1    0    0    0  501 -0.00000000000E+00 -0.00000000000E+00 -0.31883515900E+03  0.31883515900E+03  0.00000000000E+00 0. -1.
   -9000010    2    1    2    0  502  0.26970529347E+03  0.51180582758E+02  0.59509590355E+03  0.11036283378E+04  0.88797295912E+03 0.  0.
         13    1    3    3    0    0  0.64369479937E+02  0.38091367775E+03 -0.78456904476E+01  0.38639387400E+03  0.10566000000E+00 0. -1.
         -4    1    3    3    0  502  0.20533581354E+03 -0.32973309499E+03  0.60294159400E+03  0.71723446378E+03  0.00000000000E+00 0. -1.
        -13    1    1    2    0    0 -0.26970529347E+03 -0.51180582758E+02  0.22721378810E+03  0.35635167187E+03  0.10566000000E+00 0.  1.
<mgrwt>
<rscale>  1 0.68518609E+03</rscale>
<asrwt>0</asrwt>
<pdfrwt beam="1">  1       21 0.17556074E+00 0.92943874E+03</pdfrwt>
<pdfrwt beam="2">  1       -4 0.49051563E-01 0.92943874E+03</pdfrwt>
<totfact> 0.27909225E+01</totfact>
</mgrwt>
</event>
<event>
 6    2  0.2267664E-005  0.1005420E+04  0.7818608E-02  0.9989525E-01
         21   -1    0    0  501  502  0.00000000000E+00  0.00000000000E+00  0.49299209156E+03  0.49299209156E+03  0.00000000000E+00 0. -1.
         -4   -1    0    0    0  501 -0.00000000000E+00 -0.00000000000E+00 -0.66395789890E+03  0.66395789890E+03  0.00000000000E+00 0. -1.
   -9000010    2    1    2    0  502  0.11957519469E+02  0.96803134094E+02 -0.57130083777E+02  0.10070419781E+04  0.10006777054E+04 0.  0.
         13    1    3    3    0    0  0.47160113692E+02 -0.10882460284E+03  0.44646266036E+03  0.46194782039E+03  0.10566000000E+00 0. -1.
         -4    1    3    3    0  502 -0.35202594223E+02  0.20562773693E+03 -0.50359274413E+03  0.54509415772E+03  0.00000000000E+00 0. -1.
        -13    1    1    2    0    0 -0.11957519469E+02 -0.96803134094E+02 -0.11383572357E+03  0.14990801235E+03  0.10566000000E+00 0.  1.
<mgrwt>
<rscale>  1 0.56111926E+03</rscale>
<asrwt>0</asrwt>
<pdfrwt beam="1">  1       21 0.75844937E-01 0.10054202E+04</pdfrwt>
<pdfrwt beam="2">  1       -4 0.10214737E+00 0.10054202E+04</pdfrwt>
<totfact> 0.46850524E+01</totfact>
</mgrwt>
</event>
<event>
 6    2  0.2267664E-005  0.1115424E+04  0.7818608E-02  0.9423719E-01
         21   -1    0    0  501  502  0.00000000000E+00  0.00000000000E+00  0.66658144248E+03  0.66658144248E+03  0.00000000000E+00 0.  1.
         -4   -1    0    0    0  501 -0.00000000000E+00 -0.00000000000E+00 -0.11304117269E+04  0.11304117269E+04  0.00000000000E+00 0. -1.
   -9000010    2    1    2    0  502  0.47024569384E+03  0.73210312475E+02 -0.64415720533E+03  0.12880643217E+04  0.10088014815E+04 0.  0.
         13    1    3    3    0    0 -0.51281220091E+02  0.35011701355E+03 -0.59918990767E+03  0.69587372657E+03  0.10566000000E+00 0. -1.
         -4    1    3    3    0  502  0.52152691393E+03 -0.27690670108E+03 -0.44967297664E+02  0.59219059509E+03  0.00000000000E+00 0. -1.
        -13    1    1    2    0    0 -0.47024569384E+03 -0.73210312475E+02  0.18032692094E+03  0.50892884769E+03  0.10566000000E+00 0.  1.
<mgrwt>
<rscale>  1 0.90149105E+03</rscale>
<asrwt>0</asrwt>
<pdfrwt beam="1">  1       21 0.10255099E+00 0.11154242E+04</pdfrwt>
<pdfrwt beam="2">  1       -4 0.17390950E+00 0.11154242E+04</pdfrwt>
<totfact> 0.55991496E+00</totfact>
</mgrwt>
</event>
<event>
 6    2  0.2267664E-005  0.1013425E+04  0.7818608E-02  0.9777379E-01
         21   -1    0    0  501  502  0.00000000000E+00  0.00000000000E+00  0.70816717508E+03  0.70816717508E+03  0.00000000000E+00 0. -1.
         -4   -1    0    0    0  501 -0.00000000000E+00 -0.00000000000E+00 -0.59710497685E+03  0.59710497685E+03  0.00000000000E+00 0. -1.
   -9000010    2    1    2    0  502  0.41896994172E+02 -0.18421719858E+03  0.28047004046E+03  0.10515195903E+04  0.99565991723E+03 0.  0.
         13    1    3    3    0    0 -0.17466522994E+03 -0.46928007976E+03 -0.11944202651E+03  0.51477970500E+03  0.10566000000E+00 0. -1.
         -4    1    3    3    0  502  0.21656222412E+03  0.28506288119E+03  0.39991206697E+03  0.53673988528E+03  0.00000000000E+00 0. -1.
        -13    1    1    2    0    0 -0.41896994172E+02  0.18421719858E+03 -0.16940784223E+03  0.25375256165E+03  0.10566000000E+00 0.  1.
<mgrwt>
<rscale>  1 0.66590770E+03</rscale>
<asrwt>0</asrwt>
<pdfrwt beam="1">  1       21 0.10894880E+00 0.10134249E+04</pdfrwt>
<pdfrwt beam="2">  1       -4 0.91862304E-01 0.10134249E+04</pdfrwt>
<totfact> 0.25080015E+01</totfact>
</mgrwt>
</event>
<event>
 6    2  0.2267664E-005  0.1081362E+04  0.7818608E-02  0.9573286E-01
         -4   -1    0    0    0  501 -0.00000000000E+00  0.00000000000E+00  0.70799596896E+03  0.70799596896E+03  0.00000000000E+00 0. -1.
         21   -1    0    0  501  502  0.00000000000E+00 -0.00000000000E+00 -0.79519911444E+03  0.79519911444E+03  0.00000000000E+00 0.  1.
   -9000010    2    1    2    0  502 -0.21063277512E+02  0.30871612984E+03  0.17769107736E+03  0.10958644180E+04  0.10361444848E+04 0.  0.
         13    1    3    3    0    0  0.16864767744E+03  0.51584946809E+01 -0.38988903874E+03  0.42483187600E+03  0.10566000000E+00 0. -1.
         -4    1    3    3    0  502 -0.18971095495E+03  0.30355763516E+03  0.56758011610E+03  0.67103254204E+03  0.00000000000E+00 0. -1.
        -13    1    1    2    0    0  0.21063277512E+02 -0.30871612984E+03 -0.26489422283E+03  0.40733066535E+03  0.10566000000E+00 0.  1.
<mgrwt>
<rscale>  1 0.79089800E+03</rscale>
<asrwt>0</asrwt>
<pdfrwt beam="2">  1       21 0.12233833E+00 0.10813624E+04</pdfrwt>
<pdfrwt beam="1">  1       -4 0.10892246E+00 0.10813624E+04</pdfrwt>
<totfact> 0.12261849E+01</totfact>
</mgrwt>
</event>
<event>
 6    2  0.2267664E-005  0.1013243E+04  0.7818608E-02  0.9739185E-01
         -4   -1    0    0    0  501 -0.00000000000E+00  0.00000000000E+00  0.11905101648E+04  0.11905101648E+04  0.00000000000E+00 0. -1.
         21   -1    0    0  501  502  0.00000000000E+00 -0.00000000000E+00 -0.32825977325E+03  0.32825977325E+03  0.00000000000E+00 0. -1.
   -9000010    2    1    2    0  502 -0.11088646508E+03 -0.18363770175E+03  0.59121870334E+03  0.11731157744E+04  0.99027392747E+03 0.  0.
         13    1    3    3    0    0 -0.42934303488E+03 -0.66888276583E+02  0.69390751104E+03  0.81872897114E+03  0.10566000000E+00 0. -1.
         -4    1    3    3    0  502  0.31845656980E+03 -0.11674942517E+03 -0.10268880770E+03  0.35438680330E+03  0.00000000000E+00 0. -1.
        -13    1    1    2    0    0  0.11088646508E+03  0.18363770175E+03  0.27103168824E+03  0.34565416363E+03  0.10566000000E+00 0.  1.
<mgrwt>
<rscale>  1 0.68730874E+03</rscale>
<asrwt>0</asrwt>
<pdfrwt beam="2">  1       21 0.50501504E-01 0.10132428E+04</pdfrwt>
<pdfrwt beam="1">  1       -4 0.18315541E+00 0.10132428E+04</pdfrwt>
<totfact> 0.25119475E+01</totfact>
</mgrwt>
</event>
<event>
 6    2  0.2267664E-005  0.1008314E+04  0.7818608E-02  0.1014325E+00
         -4   -1    0    0    0  501 -0.00000000000E+00  0.00000000000E+00  0.21874668986E+04  0.21874668986E+04  0.00000000000E+00 0. -1.
         21   -1    0    0  501  502  0.00000000000E+00 -0.00000000000E+00 -0.13430932537E+03  0.13430932537E+03  0.00000000000E+00 0. -1.
   -9000010    2    1    2    0  502  0.50632645576E+02  0.32107528126E+02  0.20072135465E+04  0.22462419740E+04  0.10065297941E+04 0.  0.
         13    1    3    3    0    0 -0.38292679389E+03  0.21302790897E+03  0.48712978866E+03  0.65521695769E+03  0.10566000000E+00 0. -1.
         -4    1    3    3    0  502  0.43355943946E+03 -0.18092038085E+03  0.15200837578E+04  0.15910250163E+04  0.00000000000E+00 0. -1.
        -13    1    1    2    0    0 -0.50632645576E+02 -0.32107528126E+02  0.45944026734E+02  0.75534249960E+02  0.10566000000E+00 0.  1.
<mgrwt>
<rscale>  1 0.49791213E+03</rscale>
<asrwt>0</asrwt>
<pdfrwt beam="2">  1       21 0.20662975E-01 0.10083138E+04</pdfrwt>
<pdfrwt beam="1">  1       -4 0.33653334E+00 0.10083138E+04</pdfrwt>
<totfact> 0.16721688E+01</totfact>
</mgrwt>
</event>
<event>
 6    2  0.2267664E-005  0.1318642E+04  0.7818608E-02  0.9128924E-01
         21   -1    0    0  501  502  0.00000000000E+00  0.00000000000E+00  0.35444609873E+04  0.35444609873E+04  0.00000000000E+00 0.  1.
         -4   -1    0    0    0  501 -0.00000000000E+00 -0.00000000000E+00 -0.53458606434E+03  0.53458606434E+03  0.00000000000E+00 0. -1.
   -9000010    2    1    2    0  502 -0.59282561727E+03  0.61023482287E+03  0.29438723607E+04  0.32257094274E+04  0.10074661694E+04 0.  0.
         13    1    3    3    0    0 -0.22117044374E+03 -0.26980888492E+03  0.10139803836E+04  0.10723196487E+04  0.10566000000E+00 0. -1.
         -4    1    3    3    0  502 -0.37165517353E+03  0.88004370779E+03  0.19298919772E+04  0.21533897787E+04  0.00000000000E+00 0. -1.
        -13    1    1    2    0    0  0.59282561727E+03 -0.61023482287E+03  0.66002562244E+02  0.85333762422E+03  0.10566000000E+00 0.  1.
<mgrwt>
<rscale>  1 0.11818155E+04</rscale>
<asrwt>0</asrwt>
<pdfrwt beam="1">  1       21 0.54530168E+00 0.13186420E+04</pdfrwt>
<pdfrwt beam="2">  1       -4 0.82244012E-01 0.13186420E+04</pdfrwt>
<totfact> 0.27955833E-02</totfact>
</mgrwt>
</event>
<event>
 6    2  0.2267664E-005  0.1011824E+04  0.7818608E-02  0.9956217E-01
         -4   -1    0    0    0  501 -0.00000000000E+00  0.00000000000E+00  0.14571128680E+04  0.14571128680E+04  0.00000000000E+00 0. -1.
         21   -1    0    0  501  502  0.00000000000E+00 -0.00000000000E+00 -0.21766760284E+03  0.21766760284E+03  0.00000000000E+00 0. -1.
   -9000010    2    1    2    0  502 -0.28432012156E+01 -0.10631503318E+03  0.11741922352E+04  0.15500049157E+04  0.10062190932E+04 0.  0.
         13    1    3    3    0    0 -0.36948916561E+03  0.25721030150E+03  0.32161798402E+03  0.55327888222E+03  0.10566000000E+00 0. -1.
         -4    1    3    3    0  502  0.36664596439E+03 -0.36352533468E+03  0.85257425115E+03  0.99672603351E+03  0.00000000000E+00 0. -1.
        -13    1    1    2    0    0  0.28432012156E+01  0.10631503318E+03  0.65253030032E+02  0.12477555516E+03  0.10566000000E+00 0.  1.
<mgrwt>
<rscale>  1 0.57612448E+03</rscale>
<asrwt>0</asrwt>
<pdfrwt beam="2">  1       21 0.33487324E-01 0.10118240E+04</pdfrwt>
<pdfrwt beam="1">  1       -4 0.22417120E+00 0.10118240E+04</pdfrwt>
<totfact> 0.31995559E+01</totfact>
</mgrwt>
</event>
<event>
 6    2  0.2267664E-005  0.1035686E+04  0.7818608E-02  0.9605056E-01
         -4   -1    0    0    0  501 -0.00000000000E+00  0.00000000000E+00  0.15495041898E+04  0.15495041898E+04  0.00000000000E+00 0. -1.
         21   -1    0    0  501  502  0.00000000000E+00 -0.00000000000E+00 -0.32689156567E+03  0.32689156567E+03  0.00000000000E+00 0. -1.
   -9000010    2    1    2    0  502  0.67025700958E+02 -0.30861949797E+03  0.65085762549E+03  0.12232171974E+04  0.98636008850E+03 0.  0.
         13    1    3    3    0    0  0.33589223896E+03 -0.47067988450E+03  0.96636990465E+02  0.58626092225E+03  0.10566000000E+00 0. -1.
         -4    1    3    3    0  502 -0.26886653800E+03  0.16206038653E+03  0.55422063503E+03  0.63695627513E+03  0.00000000000E+00 0. -1.
        -13    1    1    2    0    0 -0.67025700958E+02  0.30861949797E+03  0.57175499867E+03  0.65317855812E+03  0.10566000000E+00 0.  1.
<mgrwt>
<rscale>  1 0.76962432E+03</rscale>
<asrwt>0</asrwt>
<pdfrwt beam="2">  1       21 0.50291011E-01 0.10356856E+04</pdfrwt>
<pdfrwt beam="1">  1       -4 0.23838526E+00 0.10356856E+04</pdfrwt>
<totfact> 0.11044359E+01</totfact>
</mgrwt>
</event>
<event>
 6    2  0.2267664E-005  0.7263574E+03  0.7818608E-02  0.1023057E+00
         21   -1    0    0  501  502  0.00000000000E+00  0.00000000000E+00  0.21945968224E+03  0.21945968224E+03  0.00000000000E+00 0. -1.
         -4   -1    0    0    0  501 -0.00000000000E+00 -0.00000000000E+00 -0.83344076958E+03  0.83344076958E+03  0.00000000000E+00 0. -1.
   -9000010    2    1    2    0  502 -0.22843491646E+02 -0.12090651874E+03 -0.47808019151E+03  0.86957212330E+03  0.71585948113E+03 0.  0.
         13    1    3    3    0    0 -0.57328383620E+02 -0.48246541920E+02  0.18605948784E+03  0.20058019981E+03  0.10566000000E+00 0. -1.
         -4    1    3    3    0  502  0.34484891974E+02 -0.72659976823E+02 -0.66413967935E+03  0.66899192349E+03  0.00000000000E+00 0. -1.
        -13    1    1    2    0    0  0.22843491646E+02  0.12090651874E+03 -0.13590089583E+03  0.18332832852E+03  0.10566000000E+00 0.  1.
<mgrwt>
<rscale>  1 0.46599289E+03</rscale>
<asrwt>0</asrwt>
<pdfrwt beam="1">  1       21 0.33763028E-01 0.72635736E+03</pdfrwt>
<pdfrwt beam="2">  1       -4 0.12822166E+00 0.72635736E+03</pdfrwt>
<totfact> 0.15743115E+02</totfact>
</mgrwt>
</event>
<event>
 6    2  0.2267664E-005  0.1004784E+04  0.7818608E-02  0.9974245E-01
         -4   -1    0    0    0  501 -0.00000000000E+00  0.00000000000E+00  0.16658499021E+04  0.16658499021E+04  0.00000000000E+00 0. -1.
         21   -1    0    0  501  502  0.00000000000E+00 -0.00000000000E+00 -0.18408924406E+03  0.18408924406E+03  0.00000000000E+00 0. -1.
   -9000010    2    1    2    0  502 -0.78378459439E+02  0.66153131210E+02  0.13544735674E+04  0.16864722251E+04  0.99953514273E+03 0.  0.
         13    1    3    3    0    0 -0.34235711995E+03  0.28435715809E+03  0.21047670598E+03  0.49230868961E+03  0.10566000000E+00 0. -1.
         -4    1    3    3    0  502  0.26397866051E+03 -0.21820402688E+03  0.11439968614E+04  0.11941635355E+04  0.00000000000E+00 0. -1.
        -13    1    1    2    0    0  0.78378459439E+02 -0.66153131210E+02  0.12728709066E+03  0.16346692107E+03  0.10566000000E+00 0.  1.
<mgrwt>
<rscale>  1 0.56794131E+03</rscale>
<asrwt>0</asrwt>
<pdfrwt beam="2">  1       21 0.28321423E-01 0.10047835E+04</pdfrwt>
<pdfrwt beam="1">  1       -4 0.25628459E+00 0.10047835E+04</pdfrwt>
<totfact> 0.28332993E+01</totfact>
</mgrwt>
</event>
<event>
 6    2  0.2267664E-005  0.1012811E+04  0.7818608E-02  0.9918651E-01
         21   -1    0    0  501  502  0.00000000000E+00  0.00000000000E+00  0.72811227866E+03  0.72811227866E+03  0.00000000000E+00 0. -1.
         -4   -1    0    0    0  501 -0.00000000000E+00 -0.00000000000E+00 -0.51877579402E+03  0.51877579402E+03  0.00000000000E+00 0. -1.
   -9000010    2    1    2    0  502  0.47936908018E+00 -0.11955189030E+03  0.34134831705E+03  0.10687869235E+04  0.10057305455E+04 0.  0.
         13    1    3    3    0    0  0.34001068716E+03 -0.34699653573E+03 -0.67776190522E+02  0.49051756988E+03  0.10566000000E+00 0. -1.
         -4    1    3    3    0  502 -0.33953131808E+03  0.22744464543E+03  0.40912450757E+03  0.57826935366E+03  0.00000000000E+00 0. -1.
        -13    1    1    2    0    0 -0.47936908018E+00  0.11955189030E+03 -0.13201183240E+03  0.17810114914E+03  0.10566000000E+00 0.  1.
<mgrwt>
<rscale>  1 0.59365816E+03</rscale>
<asrwt>0</asrwt>
<pdfrwt beam="1">  1       21 0.11201727E+00 0.10128113E+04</pdfrwt>
<pdfrwt beam="2">  1       -4 0.79811661E-01 0.10128113E+04</pdfrwt>
<totfact> 0.32435160E+01</totfact>
</mgrwt>
</event>
<event>
 6    2  0.2267664E-005  0.1171985E+04  0.7818608E-02  0.9310107E-01
         -4   -1    0    0    0  501 -0.00000000000E+00  0.00000000000E+00  0.12294408767E+04  0.12294408767E+04  0.00000000000E+00 0. -1.
         21   -1    0    0  501  502  0.00000000000E+00 -0.00000000000E+00 -0.83615340029E+03  0.83615340029E+03  0.00000000000E+00 0. -1.
   -9000010    2    1    2    0  502  0.50112877713E+03 -0.36109863235E+03 -0.22304327871E+03  0.11930199911E+04  0.99600508102E+03 0.  0.
         13    1    3    3    0    0 -0.63256472133E+02 -0.49322654876E+03  0.13044680803E+03  0.51409161689E+03  0.10566000000E+00 0. -1.
         -4    1    3    3    0  502  0.56438524927E+03  0.13212791640E+03 -0.35349008674E+03  0.67892837421E+03  0.00000000000E+00 0. -1.
        -13    1    1    2    0    0 -0.50112877713E+03  0.36109863235E+03  0.61633075513E+03  0.87257428592E+03  0.10566000000E+00 0.  1.
<mgrwt>
<rscale>  1 0.99857681E+03</rscale>
<asrwt>0</asrwt>
<pdfrwt beam="2">  1       21 0.12863898E+00 0.11719848E+04</pdfrwt>
<pdfrwt beam="1">  1       -4 0.18914475E+00 0.11719848E+04</pdfrwt>
<totfact> 0.24293684E+00</totfact>
</mgrwt>
</event>
<event>
 6    2  0.2267664E-005  0.1030627E+04  0.7818608E-02  0.9631275E-01
         21   -1    0    0  501  502  0.00000000000E+00  0.00000000000E+00  0.22310927220E+03  0.22310927220E+03  0.00000000000E+00 0. -1.
         -4   -1    0    0    0  501 -0.00000000000E+00 -0.00000000000E+00 -0.19905080709E+04  0.19905080709E+04  0.00000000000E+00 0. -1.
   -9000010    2    1    2    0  502  0.19233193132E+03 -0.22111870609E+03 -0.14770926354E+04  0.18011094843E+04  0.98808282386E+03 0.  0.
         13    1    3    3    0    0  0.33933267438E+03 -0.89251611790E+02 -0.15510453268E+04  0.15902371305E+04  0.10566000000E+00 0. -1.
         -4    1    3    3    0  502 -0.14700074306E+03 -0.13186709430E+03  0.73952691442E+02  0.21087235378E+03  0.00000000000E+00 0. -1.
        -13    1    1    2    0    0 -0.19233193132E+03  0.22111870609E+03 -0.29030616335E+03  0.41250785887E+03  0.10566000000E+00 0.  1.
<mgrwt>
<rscale>  1 0.75260311E+03</rscale>
<asrwt>0</asrwt>
<pdfrwt beam="1">  1       21 0.34324504E-01 0.10306273E+04</pdfrwt>
<pdfrwt beam="2">  1       -4 0.30623201E+00 0.10306273E+04</pdfrwt>
<totfact> 0.94072733E+00</totfact>
</mgrwt>
</event>
<event>
 6    2  0.2267664E-005  0.1008421E+04  0.7818608E-02  0.9847509E-01
         -4   -1    0    0    0  501 -0.00000000000E+00  0.00000000000E+00  0.92270116376E+03  0.92270116376E+03  0.00000000000E+00 0. -1.
         21   -1    0    0  501  502  0.00000000000E+00 -0.00000000000E+00 -0.67369326072E+03  0.67369326072E+03  0.00000000000E+00 0. -1.
   -9000010    2    1    2    0  502  0.14203070770E+03 -0.55231237589E+02 -0.27943181950E+03  0.10464200950E+04  0.99683983769E+03 0.  0.
         13    1    3    3    0    0 -0.22673024188E+02 -0.24631801145E+03  0.31509240008E+03  0.40058689512E+03  0.10566000000E+00 0. -1.
         -4    1    3    3    0  502  0.16470373189E+03  0.19108677386E+03 -0.59452421958E+03  0.64583319991E+03  0.00000000000E+00 0. -1.
        -13    1    1    2    0    0 -0.14203070770E+03  0.55231237589E+02  0.52843972254E+03  0.54997432945E+03  0.10566000000E+00 0.  1.
<mgrwt>
<rscale>  1 0.62874090E+03</rscale>
<asrwt>0</asrwt>
<pdfrwt beam="2">  1       21 0.10364512E+00 0.10084210E+04</pdfrwt>
<pdfrwt beam="1">  1       -4 0.14195402E+00 0.10084210E+04</pdfrwt>
<totfact> 0.96242968E+00</totfact>
</mgrwt>
</event>
<event>
 6    2  0.2267664E-005  0.1006495E+04  0.7818608E-02  0.9872514E-01
         -4   -1    0    0    0  501 -0.00000000000E+00  0.00000000000E+00  0.39886060892E+03  0.39886060892E+03  0.00000000000E+00 0. -1.
         21   -1    0    0  501  502  0.00000000000E+00 -0.00000000000E+00 -0.11021837173E+04  0.11021837173E+04  0.00000000000E+00 0. -1.
   -9000010    2    1    2    0  502 -0.12216885861E+03 -0.71051251645E+02 -0.83508500584E+03  0.13078223835E+04  0.99652341133E+03 0.  0.
         13    1    3    3    0    0 -0.56979302654E+02  0.42645516525E+03 -0.14381123251E+03  0.45364339592E+03  0.10566000000E+00 0. -1.
         -4    1    3    3    0  502 -0.65189555961E+02 -0.49750641690E+03 -0.69127377334E+03  0.85417898754E+03  0.00000000000E+00 0. -1.
        -13    1    1    2    0    0  0.12216885861E+03  0.71051251645E+02  0.13176189746E+03  0.19322194275E+03  0.10566000000E+00 0.  1.
<mgrwt>
<rscale>  1 0.61612039E+03</rscale>
<asrwt>0</asrwt>
<pdfrwt beam="2">  1       21 0.16956673E+00 0.10064951E+04</pdfrwt>
<pdfrwt beam="1">  1       -4 0.61363170E-01 0.10064951E+04</pdfrwt>
<totfact> 0.18957470E+01</totfact>
</mgrwt>
</event>
<event>
 6    2  0.2267664E-005  0.1007587E+04  0.7818608E-02  0.9756894E-01
         21   -1    0    0  501  502  0.00000000000E+00  0.00000000000E+00  0.19348824268E+03  0.19348824268E+03  0.00000000000E+00 0. -1.
         -4   -1    0    0    0  501 -0.00000000000E+00 -0.00000000000E+00 -0.20890624743E+04  0.20890624743E+04  0.00000000000E+00 0. -1.
   -9000010    2    1    2    0  502 -0.17806932826E+03  0.10296822510E+03 -0.12530697556E+04  0.16079225573E+04  0.98636706992E+03 0.  0.
         13    1    3    3    0    0 -0.38256036612E+03  0.41639440300E+02 -0.13272509851E+04  0.13819122495E+04  0.10566000000E+00 0. -1.
         -4    1    3    3    0  502  0.20449103786E+03  0.61328784801E+02  0.74181229470E+02  0.22601030776E+03  0.00000000000E+00 0. -1.
        -13    1    1    2    0    0  0.17806932826E+03 -0.10296822510E+03 -0.64250447598E+03  0.67462815970E+03  0.10566000000E+00 0.  1.
<mgrwt>
<rscale>  1 0.67728071E+03</rscale>
<asrwt>0</asrwt>
<pdfrwt beam="1">  1       21 0.29767422E-01 0.10075868E+04</pdfrwt>
<pdfrwt beam="2">  1       -4 0.32139423E+00 0.10075868E+04</pdfrwt>
<totfact> 0.10135305E+01</totfact>
</mgrwt>
</event>
<event>
 6    2  0.2267664E-005  0.1025246E+04  0.7818608E-02  0.9679769E-01
         21   -1    0    0  501  502  0.00000000000E+00  0.00000000000E+00  0.14630492615E+04  0.14630492615E+04  0.00000000000E+00 0. -1.
         -4   -1    0    0    0  501 -0.00000000000E+00 -0.00000000000E+00 -0.28961710081E+03  0.28961710081E+03  0.00000000000E+00 0. -1.
   -9000010    2    1    2    0  502 -0.16112213051E+03 -0.19458331585E+03  0.10633075603E+04  0.14770752766E+04  0.99363242564E+03 0.  0.
         13    1    3    3    0    0 -0.20931565413E+03 -0.43085095685E+02  0.12290042672E+04  0.12474457377E+04  0.10566000000E+00 0. -1.
         -4    1    3    3    0  502  0.48193523624E+02 -0.15149822017E+03 -0.16569670696E+03  0.22962953889E+03  0.00000000000E+00 0. -1.
        -13    1    1    2    0    0  0.16112213051E+03  0.19458331585E+03  0.11012460045E+03  0.27559108574E+03  0.10566000000E+00 0.  1.
<mgrwt>
<rscale>  1 0.72234236E+03</rscale>
<asrwt>0</asrwt>
<pdfrwt beam="1">  1       21 0.22508450E+00 0.10252455E+04</pdfrwt>
<pdfrwt beam="2">  1       -4 0.44556478E-01 0.10252455E+04</pdfrwt>
<totfact> 0.15352965E+01</totfact>
</mgrwt>
</event>
<event>
 6    2  0.2267664E-005  0.9879569E+03  0.7818608E-02  0.9683165E-01
         21   -1    0    0  501  502  0.00000000000E+00  0.00000000000E+00  0.69533805868E+03  0.69533805868E+03  0.00000000000E+00 0. -1.
         -4   -1    0    0    0  501 -0.00000000000E+00 -0.00000000000E+00 -0.59243549046E+03  0.59243549046E+03  0.00000000000E+00 0. -1.
   -9000010    2    1    2    0  502  0.52535862858E+02 -0.27413215019E+03  0.16549090024E+03  0.10017215204E+04  0.94770792641E+03 0.  0.
         13    1    3    3    0    0 -0.31477144283E+02  0.30822827135E+03  0.26164325456E+03  0.40552765836E+03  0.10566000000E+00 0. -1.
         -4    1    3    3    0  502  0.84013007142E+02 -0.58236042154E+03 -0.96152354318E+02  0.59619386208E+03  0.00000000000E+00 0. -1.
        -13    1    1    2    0    0 -0.52535862858E+02  0.27413215019E+03 -0.62588332025E+02  0.28605202870E+03  0.10566000000E+00 0.  1.
<mgrwt>
<rscale>  1 0.72028035E+03</rscale>
<asrwt>0</asrwt>
<pdfrwt beam="1">  1       21 0.10697509E+00 0.98795686E+03</pdfrwt>
<pdfrwt beam="2">  1       -4 0.91143922E-01 0.98795686E+03</pdfrwt>
<totfact> 0.26822020E+01</totfact>
</mgrwt>
</event>
<event>
 6    2  0.2267664E-005  0.1026305E+04  0.7818608E-02  0.9719157E-01
         -4   -1    0    0    0  501 -0.00000000000E+00  0.00000000000E+00  0.32688190183E+03  0.32688190183E+03  0.00000000000E+00 0. -1.
         21   -1    0    0  501  502  0.00000000000E+00 -0.00000000000E+00 -0.14762281903E+04  0.14762281903E+04  0.00000000000E+00 0. -1.
   -9000010    2    1    2    0  502  0.51343895093E+01  0.22062323602E+03 -0.11976172052E+04  0.15772095237E+04  0.10022983274E+04 0.  0.
         13    1    3    3    0    0 -0.42178079670E+03  0.30698270358E+03 -0.36224681106E+03  0.63510643521E+03  0.10566000000E+00 0. -1.
         -4    1    3    3    0  502  0.42691518621E+03 -0.86359467555E+02 -0.83537039419E+03  0.94210308849E+03  0.00000000000E+00 0. -1.
        -13    1    1    2    0    0 -0.51343895093E+01 -0.22062323602E+03  0.48270916808E+02  0.22590056840E+03  0.10566000000E+00 0.  1.
<mgrwt>
<rscale>  1 0.69887531E+03</rscale>
<asrwt>0</asrwt>
<pdfrwt beam="2">  1       21 0.22711202E+00 0.10263055E+04</pdfrwt>
<pdfrwt beam="1">  1       -4 0.50289525E-01 0.10263055E+04</pdfrwt>
<totfact> 0.11556215E+01</totfact>
</mgrwt>
</event>
<event>
 6    2  0.2267664E-005  0.9965860E+03  0.7818608E-02  0.9878055E-01
         21   -1    0    0  501  502  0.00000000000E+00  0.00000000000E+00  0.45604116495E+03  0.45604116495E+03  0.00000000000E+00 0. -1.
         -4   -1    0    0    0  501 -0.00000000000E+00 -0.00000000000E+00 -0.74154730496E+03  0.74154730496E+03  0.00000000000E+00 0. -1.
   -9000010    2    1    2    0  502 -0.86676113601E+02 -0.11373824866E+03 -0.16410804428E+03  0.10100074296E+04  0.98627299453E+03 0.  0.
         13    1    3    3    0    0  0.38555211776E+03  0.20679934724E+02 -0.31289480671E+03  0.49697209825E+03  0.10566000000E+00 0. -1.
         -4    1    3    3    0  502 -0.47222823136E+03 -0.13441818339E+03  0.14878676244E+03  0.51303533133E+03  0.00000000000E+00 0. -1.
        -13    1    1    2    0    0  0.86676113601E+02  0.11373824866E+03 -0.12139809574E+03  0.18758104033E+03  0.10566000000E+00 0.  1.
<mgrwt>
<rscale>  1 0.61336710E+03</rscale>
<asrwt>0</asrwt>
<pdfrwt beam="1">  1       21 0.70160179E-01 0.99658595E+03</pdfrwt>
<pdfrwt beam="2">  1       -4 0.11408420E+00 0.99658595E+03</pdfrwt>
<totfact> 0.42798987E+01</totfact>
</mgrwt>
</event>
<event>
 6    2  0.2267664E-005  0.9852862E+03  0.7818608E-02  0.9971439E-01
         -4   -1    0    0    0  501 -0.00000000000E+00  0.00000000000E+00  0.57190278406E+03  0.57190278406E+03  0.00000000000E+00 0. -1.
         21   -1    0    0  501  502  0.00000000000E+00 -0.00000000000E+00 -0.52700079908E+03  0.52700079908E+03  0.00000000000E+00 0. -1.
   -9000010    2    1    2    0  502 -0.10469097244E+03  0.32923801076E+02  0.16001781552E+02  0.98541609788E+03  0.97915507074E+03 0.  0.
         13    1    3    3    0    0 -0.54341577216E+03  0.29250478588E+02 -0.24912277147E+02  0.54477236039E+03  0.10566000000E+00 0. -1.
         -4    1    3    3    0  502  0.43872479972E+03  0.36733224882E+01  0.40914058699E+02  0.44064373749E+03  0.00000000000E+00 0. -1.
        -13    1    1    2    0    0  0.10469097244E+03 -0.32923801076E+02  0.28900203430E+02  0.11348748526E+03  0.10566000000E+00 0.  1.
<mgrwt>
<rscale>  1 0.56920536E+03</rscale>
<asrwt>0</asrwt>
<pdfrwt beam="2">  1       21 0.81077046E-01 0.98528617E+03</pdfrwt>
<pdfrwt beam="1">  1       -4 0.87985044E-01 0.98528617E+03</pdfrwt>
<totfact> 0.57261259E+01</totfact>
</mgrwt>
</event>
<event>
 6    2  0.2267664E-005  0.1000165E+04  0.7818608E-02  0.1026316E+00
         21   -1    0    0  501  502  0.00000000000E+00  0.00000000000E+00  0.50340087657E+03  0.50340087657E+03  0.00000000000E+00 0. -1.
         -4   -1    0    0    0  501 -0.00000000000E+00 -0.00000000000E+00 -0.54264288146E+03  0.54264288146E+03  0.00000000000E+00 0. -1.
   -9000010    2    1    2    0  502 -0.42385542049E+02 -0.55178013728E+01 -0.23337002420E+02  0.10004371733E+04  0.99925119047E+03 0.  0.
         13    1    3    3    0    0  0.12674883947E+03  0.21500672425E+03 -0.43631315244E+03  0.50265528739E+03  0.10566000000E+00 0. -1.
         -4    1    3    3    0  502 -0.16913438152E+03 -0.22052452562E+03  0.41297615002E+03  0.49778188587E+03  0.00000000000E+00 0. -1.
        -13    1    1    2    0    0  0.42385542049E+02  0.55178013728E+01 -0.15905002465E+02  0.45606584768E+02  0.10566000000E+00 0.  1.
<mgrwt>
<rscale>  1 0.45474799E+03</rscale>
<asrwt>0</asrwt>
<pdfrwt beam="1">  1       21 0.77446289E-01 0.10001649E+04</pdfrwt>
<pdfrwt beam="2">  1       -4 0.83483520E-01 0.10001649E+04</pdfrwt>
<totfact> 0.71975032E+01</totfact>
</mgrwt>
</event>
<event>
 6    2  0.2267664E-005  0.1078459E+04  0.7818608E-02  0.9504653E-01
         -4   -1    0    0    0  501 -0.00000000000E+00  0.00000000000E+00  0.18617561299E+04  0.18617561299E+04  0.00000000000E+00 0. -1.
         21   -1    0    0  501  502  0.00000000000E+00 -0.00000000000E+00 -0.34924674352E+03  0.34924674352E+03  0.00000000000E+00 0.  1.
   -9000010    2    1    2    0  502  0.21781298572E+03  0.33050289935E+03  0.14548804249E+04  0.18110081589E+04  0.10031943171E+04 0.  0.
         13    1    3    3    0    0  0.28031744555E+03 -0.31737470582E+03  0.65199821032E+03  0.77743568969E+03  0.10566000000E+00 0. -1.
         -4    1    3    3    0  502 -0.62504459827E+02  0.64787760517E+03  0.80288221454E+03  0.10335724693E+04  0.00000000000E+00 0. -1.
        -13    1    1    2    0    0 -0.21781298572E+03 -0.33050289935E+03  0.57628961497E+02  0.39999471446E+03  0.10566000000E+00 0.  1.
<mgrwt>
<rscale>  1 0.83941667E+03</rscale>
<asrwt>0</asrwt>
<pdfrwt beam="2">  1       21 0.53730269E-01 0.10784589E+04</pdfrwt>
<pdfrwt beam="1">  1       -4 0.28642401E+00 0.10784589E+04</pdfrwt>
<totfact> 0.48005557E+00</totfact>
</mgrwt>
</event>
<event>
 6    2  0.2267664E-005  0.1056696E+04  0.7818608E-02  0.9659242E-01
         -4   -1    0    0    0  501 -0.00000000000E+00  0.00000000000E+00  0.49871859265E+03  0.49871859265E+03  0.00000000000E+00 0. -1.
         21   -1    0    0  501  502  0.00000000000E+00 -0.00000000000E+00 -0.99311549421E+03  0.99311549421E+03  0.00000000000E+00 0. -1.
   -9000010    2    1    2    0  502  0.19667979361E+03 -0.14990124189E+03 -0.60862066788E+03  0.12194365768E+04  0.10273524828E+04 0.  0.
         13    1    3    3    0    0  0.24505678357E+03  0.41902104475E+03 -0.29420069288E+03  0.56761388459E+03  0.10566000000E+00 0. -1.
         -4    1    3    3    0  502 -0.48376989952E+02 -0.56892228664E+03 -0.31441997499E+03  0.65182269220E+03  0.00000000000E+00 0. -1.
        -13    1    1    2    0    0 -0.19667979361E+03  0.14990124189E+03  0.11422376632E+03  0.27239751007E+03  0.10566000000E+00 0.  1.
<mgrwt>
<rscale>  1 0.73496231E+03</rscale>
<asrwt>0</asrwt>
<pdfrwt beam="2">  1       21 0.15278700E+00 0.10566960E+04</pdfrwt>
<pdfrwt beam="1">  1       -4 0.76725937E-01 0.10566960E+04</pdfrwt>
<totfact> 0.15435507E+01</totfact>
</mgrwt>
</event>
<event>
 6    2  0.2267664E-005  0.9881241E+03  0.7818608E-02  0.9854180E-01
         21   -1    0    0  501  502  0.00000000000E+00  0.00000000000E+00  0.34284305686E+03  0.34284305686E+03  0.00000000000E+00 0. -1.
         -4   -1    0    0    0  501 -0.00000000000E+00 -0.00000000000E+00 -0.96704629520E+03  0.96704629520E+03  0.00000000000E+00 0. -1.
   -9000010    2    1    2    0  502 -0.12541343724E+03 -0.96925771418E+02 -0.57813610298E+03  0.11448277650E+04  0.97532872534E+03 0.  0.
         13    1    3    3    0    0 -0.38062792195E+03 -0.32484085173E+03 -0.33362724066E+02  0.50150999636E+03  0.10566000000E+00 0. -1.
         -4    1    3    3    0  502  0.25521448471E+03  0.22791508032E+03 -0.54477337892E+03  0.64331776861E+03  0.00000000000E+00 0. -1.
        -13    1    1    2    0    0  0.12541343724E+03  0.96925771418E+02 -0.46067135359E+02  0.16506158708E+03  0.10566000000E+00 0.  1.
<mgrwt>
<rscale>  1 0.62534248E+03</rscale>
<asrwt>0</asrwt>
<pdfrwt beam="1">  1       21 0.52745086E-01 0.98812411E+03</pdfrwt>
<pdfrwt beam="2">  1       -4 0.14877635E+00 0.98812411E+03</pdfrwt>
<totfact> 0.40904872E+01</totfact>
</mgrwt>
</event>
<event>
 6    2  0.2267664E-005  0.1027945E+04  0.7818608E-02  0.9696454E-01
         21   -1    0    0  501  502  0.00000000000E+00  0.00000000000E+00  0.58100312886E+03  0.58100312886E+03  0.00000000000E+00 0. -1.
         -4   -1    0    0    0  501 -0.00000000000E+00 -0.00000000000E+00 -0.91533543531E+03  0.91533543531E+03  0.00000000000E+00 0. -1.
   -9000010    2    1    2    0  502  0.20369289101E+03 -0.12110390972E+03  0.67150140801E+02  0.10301356927E+04  0.10002566936E+04 0.  0.
         13    1    3    3    0    0 -0.18593171050E+03  0.81968338911E+02 -0.36252596530E+03  0.41558933604E+03  0.10566000000E+00 0. -1.
         -4    1    3    3    0  502  0.38962460151E+03 -0.20307224863E+03  0.42967610610E+03  0.61454635661E+03  0.00000000000E+00 0. -1.
        -13    1    1    2    0    0 -0.20369289101E+03  0.12110390972E+03 -0.40148244725E+03  0.46620287151E+03  0.10566000000E+00 0.  1.
<mgrwt>
<rscale>  1 0.71228333E+03</rscale>
<asrwt>0</asrwt>
<pdfrwt beam="1">  1       21 0.89385098E-01 0.10279447E+04</pdfrwt>
<pdfrwt beam="2">  1       -4 0.14082084E+00 0.10279447E+04</pdfrwt>
<totfact> 0.14109695E+01</totfact>
</mgrwt>
</event>
<event>
 6    2  0.2267664E-005  0.9380860E+03  0.7818608E-02  0.9864019E-01
         -4   -1    0    0    0  501 -0.00000000000E+00  0.00000000000E+00  0.29083545669E+04  0.29083545669E+04  0.00000000000E+00 0. -1.
         21   -1    0    0  501  502  0.00000000000E+00 -0.00000000000E+00 -0.11513278170E+03  0.11513278170E+03  0.00000000000E+00 0. -1.
   -9000010    2    1    2    0  502  0.17731271053E+03  0.27444799843E+02  0.19837975707E+04  0.21944152259E+04  0.92076727140E+03 0.  0.
         13    1    3    3    0    0 -0.35237531233E+03 -0.14201777401E+03  0.73507105867E+03  0.82744599905E+03  0.10566000000E+00 0. -1.
         -4    1    3    3    0  502  0.52968802286E+03  0.16946257386E+03  0.12487265120E+04  0.13669692269E+04  0.00000000000E+00 0. -1.
        -13    1    1    2    0    0 -0.17731271053E+03 -0.27444799843E+02  0.80942421454E+03  0.82907212267E+03  0.10566000000E+00 0.  1.
<mgrwt>
<rscale>  1 0.62037205E+03</rscale>
<asrwt>0</asrwt>
<pdfrwt beam="2">  1       21 0.17712738E-01 0.93808602E+03</pdfrwt>
<pdfrwt beam="1">  1       -4 0.44743911E+00 0.93808602E+03</pdfrwt>
<totfact> 0.39447829E+00</totfact>
</mgrwt>
</event>
<event>
 6    2  0.2267664E-005  0.1045510E+04  0.7818608E-02  0.9575623E-01
         21   -1    0    0  501  502  0.00000000000E+00  0.00000000000E+00  0.15355447498E+04  0.15355447498E+04  0.00000000000E+00 0. -1.
         -4   -1    0    0    0  501 -0.00000000000E+00 -0.00000000000E+00 -0.61640216321E+03  0.61640216321E+03  0.00000000000E+00 0. -1.
   -9000010    2    1    2    0  502  0.52799840731E+02  0.33549778282E+03  0.12824465351E+04  0.16546176904E+04  0.98880938526E+03 0.  0.
         13    1    3    3    0    0  0.42609032725E+03 -0.54056801795E+02  0.88752928368E+03  0.98599358281E+03  0.10566000000E+00 0. -1.
         -4    1    3    3    0  502 -0.37329048652E+03  0.38955458461E+03  0.39491725142E+03  0.66862410754E+03  0.00000000000E+00 0. -1.
        -13    1    1    2    0    0 -0.52799840731E+02 -0.33549778282E+03 -0.36330394855E+03  0.49732922261E+03  0.10566000000E+00 0.  1.
<mgrwt>
<rscale>  1 0.78930827E+03</rscale>
<asrwt>0</asrwt>
<pdfrwt beam="1">  1       21 0.23623765E+00 0.10455097E+04</pdfrwt>
<pdfrwt beam="2">  1       -4 0.94831103E-01 0.10455097E+04</pdfrwt>
<totfact> 0.24289911E+00</totfact>
</mgrwt>
</event>
<event>
 6    2  0.2267664E-005  0.9813359E+03  0.7818608E-02  0.9805075E-01
         21   -1    0    0  501  502  0.00000000000E+00  0.00000000000E+00  0.55808986858E+03  0.55808986858E+03  0.00000000000E+00 0. -1.
         -4   -1    0    0    0  501 -0.00000000000E+00 -0.00000000000E+00 -0.10497812291E+04  0.10497812291E+04  0.00000000000E+00 0. -1.
   -9000010    2    1    2    0  502 -0.22188230020E+02  0.18864493893E+03  0.10002005880E+03  0.98641985627E+03  0.96277769508E+03 0.  0.
         13    1    3    3    0    0  0.45060823893E+03  0.16861627290E+03  0.16528000518E+03  0.50872067361E+03  0.10566000000E+00 0. -1.
         -4    1    3    3    0  502 -0.47279646895E+03  0.20028666032E+02 -0.65259946377E+02  0.47769918266E+03  0.00000000000E+00 0. -1.
        -13    1    1    2    0    0  0.22188230020E+02 -0.18864493893E+03 -0.59171141936E+03  0.62145124145E+03  0.10566000000E+00 0.  1.
<mgrwt>
<rscale>  1 0.65090924E+03</rscale>
<asrwt>0</asrwt>
<pdfrwt beam="1">  1       21 0.85859981E-01 0.98133589E+03</pdfrwt>
<pdfrwt beam="2">  1       -4 0.16150480E+00 0.98133589E+03</pdfrwt>
<totfact> 0.10796683E+01</totfact>
</mgrwt>
</event>
<event>
 6    2  0.2267664E-005  0.1100573E+04  0.7818608E-02  0.9458576E-01
         21   -1    0    0  501  502  0.00000000000E+00  0.00000000000E+00  0.10474256950E+04  0.10474256950E+04  0.00000000000E+00 0. -1.
         -4   -1    0    0    0  501 -0.00000000000E+00 -0.00000000000E+00 -0.72018534408E+03  0.72018534408E+03  0.00000000000E+00 0. -1.
   -9000010    2    1    2    0  502  0.17151977029E+03 -0.40288177747E+03  0.59824332023E+03  0.12526592173E+04  0.10097164385E+04 0.  0.
         13    1    3    3    0    0  0.31703566064E+03  0.14499844603E+03 -0.90944413202E+02  0.36028746429E+03  0.10566000000E+00 0. -1.
         -4    1    3    3    0  502 -0.14551589035E+03 -0.54788022349E+03  0.68918773343E+03  0.89237175300E+03  0.00000000000E+00 0. -1.
        -13    1    1    2    0    0 -0.17151977029E+03  0.40288177747E+03 -0.27100296932E+03  0.51495182178E+03  0.10566000000E+00 0.  1.
<mgrwt>
<rscale>  1 0.87407976E+03</rscale>
<asrwt>0</asrwt>
<pdfrwt beam="1">  1       21 0.16114242E+00 0.11005726E+04</pdfrwt>
<pdfrwt beam="2">  1       -4 0.11079774E+00 0.11005726E+04</pdfrwt>
<totfact> 0.55210036E+00</totfact>
</mgrwt>
</event>
<event>
 6    2  0.2267664E-005  0.1009731E+04  0.7818608E-02  0.9857797E-01
         -4   -1    0    0    0  501 -0.00000000000E+00  0.00000000000E+00  0.40366137158E+03  0.40366137158E+03  0.00000000000E+00 0. -1.
         21   -1    0    0  501  502  0.00000000000E+00 -0.00000000000E+00 -0.87354728349E+03  0.87354728349E+03  0.00000000000E+00 0. -1.
   -9000010    2    1    2    0  502  0.12865589396E+03  0.70716364583E+02 -0.50092015316E+03  0.11271544030E+04  0.99900095351E+03 0.  0.
         13    1    3    3    0    0 -0.92128396952E+02 -0.44031366378E+03 -0.26860955744E+03  0.52394166617E+03  0.10566000000E+00 0. -1.
         -4    1    3    3    0  502  0.22078429091E+03  0.51103002836E+03 -0.23231059572E+03  0.60321273684E+03  0.00000000000E+00 0. -1.
        -13    1    1    2    0    0 -0.12865589396E+03 -0.70716364583E+02  0.31034241246E+02  0.15005425207E+03  0.10566000000E+00 0.  1.
<mgrwt>
<rscale>  1 0.62350942E+03</rscale>
<asrwt>0</asrwt>
<pdfrwt beam="2">  1       21 0.13439189E+00 0.10097307E+04</pdfrwt>
<pdfrwt beam="1">  1       -4 0.62101750E-01 0.10097307E+04</pdfrwt>
<totfact> 0.35395068E+01</totfact>
</mgrwt>
</event>
<event>
 6    2  0.2267664E-005  0.1013160E+04  0.7818608E-02  0.9812957E-01
         21   -1    0    0  501  502  0.00000000000E+00  0.00000000000E+00  0.20765604644E+03  0.20765604644E+03  0.00000000000E+00 0. -1.
         -4   -1    0    0    0  501 -0.00000000000E+00 -0.00000000000E+00 -0.17416610920E+04  0.17416610920E+04  0.00000000000E+00 0. -1.
   -9000010    2    1    2    0  502  0.86006740006E+02 -0.14454759946E+03 -0.11659288797E+04  0.15446305401E+04  0.99910068814E+03 0.  0.
         13    1    3    3    0    0 -0.39918429726E+03 -0.21805875411E+03 -0.84085331681E+03  0.95599792624E+03  0.10566000000E+00 0. -1.
         -4    1    3    3    0  502  0.48519103727E+03  0.73511154652E+02 -0.32507556290E+03  0.58863261386E+03  0.00000000000E+00 0. -1.
        -13    1    1    2    0    0 -0.86006740006E+02  0.14454759946E+03 -0.36807616588E+03  0.40468659835E+03  0.10566000000E+00 0.  1.
<mgrwt>
<rscale>  1 0.64671798E+03</rscale>
<asrwt>0</asrwt>
<pdfrwt beam="1">  1       21 0.31947084E-01 0.10131601E+04</pdfrwt>
<pdfrwt beam="2">  1       -4 0.26794786E+00 0.10131601E+04</pdfrwt>
<totfact> 0.18810110E+01</totfact>
</mgrwt>
</event>
<event>
 6    2  0.2267664E-005  0.1137934E+04  0.7818608E-02  0.9372921E-01
         -4   -1    0    0    0  501 -0.00000000000E+00  0.00000000000E+00  0.13437989832E+04  0.13437989832E+04  0.00000000000E+00 0. -1.
         21   -1    0    0  501  502  0.00000000000E+00 -0.00000000000E+00 -0.57104993928E+03  0.57104993928E+03  0.00000000000E+00 0.  1.
   -9000010    2    1    2    0  502  0.53503925827E+03  0.51602375346E+02  0.77595663821E+03  0.13773174231E+04  0.10029779491E+04 0.  0.
         13    1    3    3    0    0 -0.25412250123E+03 -0.15613210503E+03  0.90769099493E+02  0.31176035739E+03  0.10566000000E+00 0. -1.
         -4    1    3    3    0  502  0.78916175950E+03  0.20773448037E+03  0.68518753872E+03  0.10655570657E+04  0.00000000000E+00 0. -1.
        -13    1    1    2    0    0 -0.53503925827E+03 -0.51602375346E+02 -0.32075943023E+01  0.53753149941E+03  0.10566000000E+00 0.  1.
<mgrwt>
<rscale>  1 0.94338074E+03</rscale>
<asrwt>0</asrwt>
<pdfrwt beam="2">  1       21 0.87853837E-01 0.11379343E+04</pdfrwt>
<pdfrwt beam="1">  1       -4 0.20673830E+00 0.11379343E+04</pdfrwt>
<totfact> 0.48772200E+00</totfact>
</mgrwt>
</event>
<event>
 6    2  0.2267664E-005  0.1005106E+04  0.7818608E-02  0.1001222E+00
         -4   -1    0    0    0  501 -0.00000000000E+00  0.00000000000E+00  0.37960159028E+03  0.37960159028E+03  0.00000000000E+00 0. -1.
         21   -1    0    0  501  502  0.00000000000E+00 -0.00000000000E+00 -0.79631205578E+03  0.79631205578E+03  0.00000000000E+00 0. -1.
   -9000010    2    1    2    0  502  0.88386781175E+02 -0.21195269235E+02 -0.35458522927E+03  0.10658181481E+04  0.10009876011E+04 0.  0.
         13    1    3    3    0    0  0.15277759587E+03  0.23716050935E+03 -0.62537040996E+03  0.68605703976E+03  0.10566000000E+00 0. -1.
         -4    1    3    3    0  502 -0.64390814697E+02 -0.25835577858E+03  0.27078518069E+03  0.37976110836E+03  0.00000000000E+00 0. -1.
        -13    1    1    2    0    0 -0.88386781175E+02  0.21195269235E+02 -0.62125236229E+02  0.11009549793E+03  0.10566000000E+00 0.  1.
<mgrwt>
<rscale>  1 0.55117698E+03</rscale>
<asrwt>0</asrwt>
<pdfrwt beam="2">  1       21 0.12250955E+00 0.10051058E+04</pdfrwt>
<pdfrwt beam="1">  1       -4 0.58400245E-01 0.10051058E+04</pdfrwt>
<totfact> 0.51728302E+01</totfact>
</mgrwt>
</event>
<event>
 6    2  0.2267664E-005  0.9152589E+03  0.7818608E-02  0.9844081E-01
         21   -1    0    0  501  502  0.00000000000E+00  0.00000000000E+00  0.67376392537E+03  0.67376392537E+03  0.00000000000E+00 0. -1.
         -4   -1    0    0    0  501 -0.00000000000E+00 -0.00000000000E+00 -0.47530967729E+03  0.47530967729E+03  0.00000000000E+00 0. -1.
   -9000010    2    1    2    0  502  0.19594591196E+03 -0.63924552449E+02  0.22149908293E+03  0.94167971559E+03  0.89174979349E+03 0.  0.
         13    1    3    3    0    0  0.18037632516E+03 -0.38521062982E+03 -0.14931098533E+03  0.45079555179E+03  0.10566000000E+00 0. -1.
         -4    1    3    3    0  502  0.15569586793E+02  0.32128607737E+03  0.37081006826E+03  0.49088416380E+03  0.00000000000E+00 0. -1.
        -13    1    1    2    0    0 -0.19594591196E+03  0.63924552449E+02 -0.23044834848E+02  0.20739388707E+03  0.10566000000E+00 0.  1.
<mgrwt>
<rscale>  1 0.63049626E+03</rscale>
<asrwt>0</asrwt>
<pdfrwt beam="1">  1       21 0.10365599E+00 0.91525889E+03</pdfrwt>
<pdfrwt beam="2">  1       -4 0.73124565E-01 0.91525889E+03</pdfrwt>
<totfact> 0.48569168E+01</totfact>
</mgrwt>
</event>
<event>
 6    2  0.2267664E-005  0.1079170E+04  0.7818608E-02  0.9646227E-01
         21   -1    0    0  501  502  0.00000000000E+00  0.00000000000E+00  0.76175779778E+03  0.76175779778E+03  0.00000000000E+00 0. -1.
         -4   -1    0    0    0  501 -0.00000000000E+00 -0.00000000000E+00 -0.13007891958E+04  0.13007891958E+04  0.00000000000E+00 0. -1.
   -9000010    2    1    2    0  502 -0.40010119135E+02  0.23930315258E+03  0.35509261399E+03  0.11360889166E+04  0.10515419408E+04 0.  0.
         13    1    3    3    0    0  0.82720103466E+02  0.17816197952E+03 -0.35885261360E+03  0.40909597396E+03  0.10566000000E+00 0. -1.
         -4    1    3    3    0  502 -0.12273022260E+03  0.61141173062E+02  0.71394522758E+03  0.72699294259E+03  0.00000000000E+00 0. -1.
        -13    1    1    2    0    0  0.40010119135E+02 -0.23930315258E+03 -0.89412401204E+03  0.92645807706E+03  0.10566000000E+00 0.  1.
<mgrwt>
<rscale>  1 0.74310662E+03</rscale>
<asrwt>0</asrwt>
<pdfrwt beam="1">  1       21 0.11719351E+00 0.10791697E+04</pdfrwt>
<pdfrwt beam="2">  1       -4 0.20012141E+00 0.10791697E+04</pdfrwt>
<totfact> 0.26490298E+00</totfact>
</mgrwt>
</event>
<event>
 6    2  0.2267664E-005  0.1174599E+04  0.7818608E-02  0.9307628E-01
         -4   -1    0    0    0  501 -0.00000000000E+00  0.00000000000E+00  0.38474075604E+03  0.38474075604E+03  0.00000000000E+00 0. -1.
         21   -1    0    0  501  502  0.00000000000E+00 -0.00000000000E+00 -0.21526638582E+04  0.21526638582E+04  0.00000000000E+00 0.  1.
   -9000010    2    1    2    0  502  0.27737757028E+03  0.55352130800E+03 -0.13548403365E+04  0.17931186897E+04  0.99817741073E+03 0.  0.
         13    1    3    3    0    0  0.41377944905E+03  0.48982856133E+03 -0.26644506712E+03  0.69436189189E+03  0.10566000000E+00 0. -1.
         -4    1    3    3    0  502 -0.13640187876E+03  0.63692746670E+02 -0.10883952693E+04  0.10987567979E+04  0.00000000000E+00 0. -1.
        -13    1    1    2    0    0 -0.27737757028E+03 -0.55352130800E+03 -0.41308276568E+03  0.74428592448E+03  0.10566000000E+00 0.  1.
<mgrwt>
<rscale>  1 0.10008360E+04</rscale>
<asrwt>0</asrwt>
<pdfrwt beam="2">  1       21 0.33117905E+00 0.11745988E+04</pdfrwt>
<pdfrwt beam="1">  1       -4 0.59190886E-01 0.11745988E+04</pdfrwt>
<totfact> 0.17543462E+00</totfact>
</mgrwt>
</event>
<event>
 6    2  0.2267664E-005  0.1020951E+04  0.7818608E-02  0.9803615E-01
         21   -1    0    0  501  502  0.00000000000E+00  0.00000000000E+00  0.19722718598E+04  0.19722718598E+04  0.00000000000E+00 0. -1.
         -4   -1    0    0    0  501 -0.00000000000E+00 -0.00000000000E+00 -0.28230057172E+03  0.28230057172E+03  0.00000000000E+00 0. -1.
   -9000010    2    1    2    0  502  0.15762344483E+03  0.62305942608E+02  0.17878700237E+04  0.20588395666E+04  0.10067839681E+04 0.  0.
         13    1    3    3    0    0 -0.19017805759E+03  0.18994752553E+03  0.16368263622E+04  0.16587490188E+04  0.10566000000E+00 0. -1.
         -4    1    3    3    0  502  0.34780150242E+03 -0.12764158292E+03  0.15104366146E+03  0.40009054781E+03  0.00000000000E+00 0. -1.
        -13    1    1    2    0    0 -0.15762344483E+03 -0.62305942608E+02 -0.97898735567E+02  0.19573286498E+03  0.10566000000E+00 0.  1.
<mgrwt>
<rscale>  1 0.65168894E+03</rscale>
<asrwt>0</asrwt>
<pdfrwt beam="1">  1       21 0.30342643E+00 0.10209511E+04</pdfrwt>
<pdfrwt beam="2">  1       -4 0.43430858E-01 0.10209511E+04</pdfrwt>
<totfact> 0.51778917E+00</totfact>
</mgrwt>
</event>
<event>
 6    2  0.2267664E-005  0.1101432E+04  0.7818608E-02  0.9440680E-01
         -4   -1    0    0    0  501 -0.00000000000E+00  0.00000000000E+00  0.79269569468E+03  0.79269569468E+03  0.00000000000E+00 0. -1.
         21   -1    0    0  501  502  0.00000000000E+00 -0.00000000000E+00 -0.87585482542E+03  0.87585482542E+03  0.00000000000E+00 0.  1.
   -9000010    2    1    2    0  502 -0.29490595941E+03 -0.36003242735E+03 -0.31915476550E+03  0.11467394198E+04  0.99827784652E+03 0.  0.
         13    1    3    3    0    0 -0.87583033500E+02  0.14688901132E+03  0.28432289809E+03  0.33179314482E+03  0.10566000000E+00 0. -1.
         -4    1    3    3    0  502 -0.20732292591E+03 -0.50692143867E+03 -0.60347766360E+03  0.81494627495E+03  0.00000000000E+00 0. -1.
        -13    1    1    2    0    0  0.29490595941E+03  0.36003242735E+03  0.23599563476E+03  0.52181110034E+03  0.10566000000E+00 0.  1.
<mgrwt>
<rscale>  1 0.88802188E+03</rscale>
<asrwt>0</asrwt>
<pdfrwt beam="2">  1       21 0.13474690E+00 0.11014316E+04</pdfrwt>
<pdfrwt beam="1">  1       -4 0.12195318E+00 0.11014316E+04</pdfrwt>
<totfact> 0.71453591E+00</totfact>
</mgrwt>
</event>
<event>
 6    2  0.2267664E-005  0.1046768E+04  0.7818608E-02  0.9534623E-01
         21   -1    0    0  501  502  0.00000000000E+00  0.00000000000E+00  0.61754160826E+03  0.61754160826E+03  0.00000000000E+00 0.  1.
         -4   -1    0    0    0  501 -0.00000000000E+00 -0.00000000000E+00 -0.90627818506E+03  0.90627818506E+03  0.00000000000E+00 0. -1.
   -9000010    2    1    2    0  502  0.19964012552E+03  0.33496966305E+03 -0.39635138588E+03  0.11192931401E+04  0.97142259469E+03 0.  0.
         13    1    3    3    0    0  0.17368658374E+03  0.27653049598E+03  0.28591811189E+03  0.43403378031E+03  0.10566000000E+00 0. -1.
         -4    1    3    3    0  502  0.25953541781E+02  0.58439167077E+02 -0.68226949777E+03  0.68525935978E+03  0.00000000000E+00 0. -1.
        -13    1    1    2    0    0 -0.19964012552E+03 -0.33496966305E+03  0.10761480907E+03  0.40452665324E+03  0.10566000000E+00 0.  1.
<mgrwt>
<rscale>  1 0.81778659E+03</rscale>
<asrwt>0</asrwt>
<pdfrwt beam="1">  1       21 0.95006401E-01 0.10467677E+04</pdfrwt>
<pdfrwt beam="2">  1       -4 0.13942741E+00 0.10467677E+04</pdfrwt>
<totfact> 0.12465343E+01</totfact>
</mgrwt>
</event>
<event>
 6    2  0.2267664E-005  0.1043275E+04  0.7818608E-02  0.9589971E-01
         -4   -1    0    0    0  501 -0.00000000000E+00  0.00000000000E+00  0.28793015627E+03  0.28793015627E+03  0.00000000000E+00 0. -1.
         21   -1    0    0  501  502  0.00000000000E+00 -0.00000000000E+00 -0.23582048155E+04  0.23582048155E+04  0.00000000000E+00 0.  1.
   -9000010    2    1    2    0  502 -0.31586110287E+03 -0.78064507118E+02 -0.20730405443E+04  0.23207583210E+04  0.99124153585E+03 0.  0.
         13    1    3    3    0    0 -0.48444352132E+03 -0.96213991342E+02 -0.39032204101E+03  0.62951883557E+03  0.10566000000E+00 0. -1.
         -4    1    3    3    0  502  0.16858241845E+03  0.18149484224E+02 -0.16827185033E+04  0.16912394854E+04  0.00000000000E+00 0. -1.
        -13    1    1    2    0    0  0.31586110287E+03  0.78064507118E+02  0.27658851258E+01  0.32537665076E+03  0.10566000000E+00 0.  1.
<mgrwt>
<rscale>  1 0.77963563E+03</rscale>
<asrwt>0</asrwt>
<pdfrwt beam="2">  1       21 0.36280074E+00 0.10432747E+04</pdfrwt>
<pdfrwt beam="1">  1       -4 0.44296948E-01 0.10432747E+04</pdfrwt>
<totfact> 0.20975488E+00</totfact>
</mgrwt>
</event>
<event>
 6    2  0.2267664E-005  0.1012856E+04  0.7818608E-02  0.9722635E-01
         -4   -1    0    0    0  501 -0.00000000000E+00  0.00000000000E+00  0.27177404950E+03  0.27177404950E+03  0.00000000000E+00 0. -1.
         21   -1    0    0  501  502  0.00000000000E+00 -0.00000000000E+00 -0.22213653271E+04  0.22213653271E+04  0.00000000000E+00 0. -1.
   -9000010    2    1    2    0  502  0.13401796226E+03 -0.18314310235E+03 -0.20164671758E+04  0.22565498437E+04  0.98710440971E+03 0.  0.
         13    1    3    3    0    0 -0.10591953001E+03  0.35753431435E+03 -0.46439637540E+03  0.59557848973E+03  0.10566000000E+00 0. -1.
         -4    1    3    3    0  502  0.23993749227E+03 -0.54067741670E+03 -0.15520708004E+04  0.16609713540E+04  0.00000000000E+00 0. -1.
        -13    1    1    2    0    0 -0.13401796226E+03  0.18314310235E+03  0.66875898252E+02  0.23658953290E+03  0.10566000000E+00 0.  1.
<mgrwt>
<rscale>  1 0.69684956E+03</rscale>
<asrwt>0</asrwt>
<pdfrwt beam="2">  1       21 0.34174851E+00 0.10128560E+04</pdfrwt>
<pdfrwt beam="1">  1       -4 0.41811392E-01 0.10128560E+04</pdfrwt>
<totfact> 0.32317315E+00</totfact>
</mgrwt>
</event>
<event>
 6    2  0.2267664E-005  0.1011503E+04  0.7818608E-02  0.9635933E-01
         -4   -1    0    0    0  501 -0.00000000000E+00  0.00000000000E+00  0.71221413332E+03  0.71221413332E+03  0.00000000000E+00 0. -1.
         21   -1    0    0  501  502  0.00000000000E+00 -0.00000000000E+00 -0.63265313820E+03  0.63265313820E+03  0.00000000000E+00 0. -1.
   -9000010    2    1    2    0  502  0.41411999067E+02 -0.30230503859E+03 -0.51430613118E+02  0.10128098930E+04  0.96438347217E+03 0.  0.
         13    1    3    3    0    0  0.35838870774E+03  0.19761579593E+03  0.49782292046E+02  0.41227752353E+03  0.10566000000E+00 0. -1.
         -4    1    3    3    0  502 -0.31697670868E+03 -0.49992083452E+03 -0.10121290516E+03  0.60053236949E+03  0.00000000000E+00 0. -1.
        -13    1    1    2    0    0 -0.41411999067E+02  0.30230503859E+03  0.13099160824E+03  0.33205737850E+03  0.10566000000E+00 0.  1.
<mgrwt>
<rscale>  1 0.74962850E+03</rscale>
<asrwt>0</asrwt>
<pdfrwt beam="2">  1       21 0.97331251E-01 0.10115032E+04</pdfrwt>
<pdfrwt beam="1">  1       -4 0.10957141E+00 0.10115032E+04</pdfrwt>
<totfact> 0.21726463E+01</totfact>
</mgrwt>
</event>
<event>
 6    2  0.2267664E-005  0.1186649E+04  0.7818608E-02  0.9299729E-01
         -4   -1    0    0    0  501 -0.00000000000E+00  0.00000000000E+00  0.83552325755E+03  0.83552325755E+03  0.00000000000E+00 0. -1.
         21   -1    0    0  501  502  0.00000000000E+00 -0.00000000000E+00 -0.15302023231E+04  0.15302023231E+04  0.00000000000E+00 0. -1.
   -9000010    2    1    2    0  502  0.54088469998E+03  0.29900760355E+03 -0.11069561982E+04  0.16228028047E+04  0.10130030170E+04 0.  0.
         13    1    3    3    0    0 -0.28165738389E+03  0.92251554944E+02 -0.49500583427E+03  0.57695062043E+03  0.10566000000E+00 0. -1.
         -4    1    3    3    0  502  0.82254208387E+03  0.20675604860E+03 -0.61195036398E+03  0.10458521843E+04  0.00000000000E+00 0. -1.
        -13    1    1    2    0    0 -0.54088469998E+03 -0.29900760355E+03  0.41227713273E+03  0.74292277592E+03  0.10566000000E+00 0.  1.
<mgrwt>
<rscale>  1 0.10080784E+04</rscale>
<asrwt>0</asrwt>
<pdfrwt beam="2">  1       21 0.23541574E+00 0.11866495E+04</pdfrwt>
<pdfrwt beam="1">  1       -4 0.12854204E+00 0.11866495E+04</pdfrwt>
<totfact> 0.11338833E+00</totfact>
</mgrwt>
</event>
<event>
 6    2  0.2267664E-005  0.1138114E+04  0.7818608E-02  0.9452448E-01
         -4   -1    0    0    0  501 -0.00000000000E+00  0.00000000000E+00  0.80917006787E+03  0.80917006787E+03  0.00000000000E+00 0. -1.
         21   -1    0    0  501  502  0.00000000000E+00 -0.00000000000E+00 -0.76075223322E+03  0.76075223322E+03  0.00000000000E+00 0. -1.
   -9000010    2    1    2    0  502 -0.16318679664E+03  0.37025334458E+03 -0.91516780209E+02  0.11417877692E+04  0.10637605554E+04 0.  0.
         13    1    3    3    0    0  0.32331340211E+03  0.27646515308E+03  0.29137591429E+03  0.51562047229E+03  0.10566000000E+00 0. -1.
         -4    1    3    3    0  502 -0.48650019876E+03  0.93788191499E+02 -0.38289269450E+03  0.62616729694E+03  0.00000000000E+00 0. -1.
        -13    1    1    2    0    0  0.16318679664E+03 -0.37025334458E+03  0.13993461486E+03  0.42813453186E+03  0.10566000000E+00 0.  1.
<mgrwt>
<rscale>  1 0.87882271E+03</rscale>
<asrwt>0</asrwt>
<pdfrwt beam="2">  1       21 0.11703880E+00 0.11381142E+04</pdfrwt>
<pdfrwt beam="1">  1       -4 0.12448770E+00 0.11381142E+04</pdfrwt>
<totfact> 0.97966206E+00</totfact>
</mgrwt>
</event>
<event>
 6    2  0.2267664E-005  0.1035295E+04  0.7818608E-02  0.9653040E-01
         21   -1    0    0  501  502  0.00000000000E+00  0.00000000000E+00  0.53721913206E+03  0.53721913206E+03  0.00000000000E+00 0. -1.
         -4   -1    0    0    0  501 -0.00000000000E+00 -0.00000000000E+00 -0.13557328649E+04  0.13557328649E+04  0.00000000000E+00 0. -1.
   -9000010    2    1    2    0  502  0.24725765554E+03 -0.10473537434E+03 -0.39848802307E+01  0.10353022376E+04  0.99986448932E+03 0.  0.
         13    1    3    3    0    0  0.19196059521E+03  0.33979233080E+03 -0.30525098281E+03  0.49546530843E+03  0.10566000000E+00 0. -1.
         -4    1    3    3    0  502  0.55297060337E+02 -0.44452770514E+03  0.30126610258E+03  0.53983692916E+03  0.00000000000E+00 0. -1.
        -13    1    1    2    0    0 -0.24725765554E+03  0.10473537434E+03 -0.81452885257E+03  0.85764975934E+03  0.10566000000E+00 0.  1.
<mgrwt>
<rscale>  1 0.73882957E+03</rscale>
<asrwt>0</asrwt>
<pdfrwt beam="1">  1       21 0.82649097E-01 0.10352946E+04</pdfrwt>
<pdfrwt beam="2">  1       -4 0.20857429E+00 0.10352946E+04</pdfrwt>
<totfact> 0.55578223E+00</totfact>
</mgrwt>
</event>
<event>
 6    2  0.2267664E-005  0.9965145E+03  0.7818608E-02  0.1017458E+00
         21   -1    0    0  501  502  0.00000000000E+00  0.00000000000E+00  0.56142523482E+03  0.56142523482E+03  0.00000000000E+00 0. -1.
         -4   -1    0    0    0  501 -0.00000000000E+00 -0.00000000000E+00 -0.50231782055E+03  0.50231782055E+03  0.00000000000E+00 0. -1.
   -9000010    2    1    2    0  502 -0.55729632394E+02  0.89670197914E+01  0.23085298115E+02  0.99678184729E+03  0.99491452935E+03 0.  0.
         13    1    3    3    0    0  0.97933721755E+02 -0.40109177526E+03 -0.24812230055E+03  0.48169524934E+03  0.10566000000E+00 0. -1.
         -4    1    3    3    0  502 -0.15366335415E+03  0.41005879506E+03  0.27120759867E+03  0.51508659795E+03  0.00000000000E+00 0. -1.
        -13    1    1    2    0    0  0.55729632394E+02 -0.89670197914E+01  0.36022116160E+02  0.66961208079E+02  0.10566000000E+00 0.  1.
<mgrwt>
<rscale>  1 0.48615200E+03</rscale>
<asrwt>0</asrwt>
<pdfrwt beam="1">  1       21 0.86373113E-01 0.99651449E+03</pdfrwt>
<pdfrwt beam="2">  1       -4 0.77279664E-01 0.99651449E+03</pdfrwt>
<totfact> 0.66437297E+01</totfact>
</mgrwt>
</event>
<event>
 6    2  0.2267664E-005  0.9819193E+03  0.7818608E-02  0.9993669E-01
         21   -1    0    0  501  502  0.00000000000E+00  0.00000000000E+00  0.67115166785E+03  0.67115166785E+03  0.00000000000E+00 0. -1.
         -4   -1    0    0    0  501 -0.00000000000E+00 -0.00000000000E+00 -0.51947019970E+03  0.51947019970E+03  0.00000000000E+00 0. -1.
   -9000010    2    1    2    0  502  0.10186464071E+03  0.17460646574E+02  0.28452447029E+03  0.10223109838E+04  0.97646520378E+03 0.  0.
         13    1    3    3    0    0 -0.15531703326E+03  0.14974583591E+03 -0.30036853166E+03  0.36982220345E+03  0.10566000000E+00 0. -1.
         -4    1    3    3    0  502  0.25718167397E+03 -0.13228518934E+03  0.58489300195E+03  0.65248878035E+03  0.00000000000E+00 0. -1.
        -13    1    1    2    0    0 -0.10186464071E+03 -0.17460646574E+02 -0.13284300215E+03  0.16831088375E+03  0.10566000000E+00 0.  1.
<mgrwt>
<rscale>  1 0.55928713E+03</rscale>
<asrwt>0</asrwt>
<pdfrwt beam="1">  1       21 0.10325410E+00 0.98191933E+03</pdfrwt>
<pdfrwt beam="2">  1       -4 0.79918492E-01 0.98191933E+03</pdfrwt>
<totfact> 0.39825286E+01</totfact>
</mgrwt>
</event>
<event>
 6    2  0.2267664E-005  0.1047194E+04  0.7818608E-02  0.9610787E-01
         -4   -1    0    0    0  501 -0.00000000000E+00  0.00000000000E+00  0.12440311742E+04  0.12440311742E+04  0.00000000000E+00 0. -1.
         21   -1    0    0  501  502  0.00000000000E+00 -0.00000000000E+00 -0.47365611518E+03  0.47365611518E+03  0.00000000000E+00 0. -1.
   -9000010    2    1    2    0  502  0.18254528547E+03 -0.23754959290E+03  0.18963416720E+03  0.10642252898E+04  0.10034250145E+04 0.  0.
         13    1    3    3    0    0  0.18045333806E+03 -0.20288721288E+03 -0.39458104492E+03  0.47897895626E+03  0.10566000000E+00 0. -1.
         -4    1    3    3    0  502  0.20919474065E+01 -0.34662380026E+02  0.58421521212E+03  0.58524633353E+03  0.00000000000E+00 0. -1.
        -13    1    1    2    0    0 -0.18254528547E+03  0.23754959290E+03  0.58074089183E+03  0.65346199962E+03  0.10566000000E+00 0.  1.
<mgrwt>
<rscale>  1 0.76586302E+03</rscale>
<asrwt>0</asrwt>
<pdfrwt beam="2">  1       21 0.72870172E-01 0.10471936E+04</pdfrwt>
<pdfrwt beam="1">  1       -4 0.19138941E+00 0.10471936E+04</pdfrwt>
<totfact> 0.96878748E+00</totfact>
</mgrwt>
</event>
<event>
 6    2  0.2267664E-005  0.1025192E+04  0.7818608E-02  0.9648626E-01
         -4   -1    0    0    0  501 -0.00000000000E+00  0.00000000000E+00  0.89612992504E+03  0.89612992504E+03  0.00000000000E+00 0. -1.
         21   -1    0    0  501  502  0.00000000000E+00 -0.00000000000E+00 -0.47657475264E+03  0.47657475264E+03  0.00000000000E+00 0. -1.
   -9000010    2    1    2    0  502  0.27161065449E+03  0.70887659384E+02  0.30586757433E+03  0.10698477989E+04  0.98601315000E+03 0.  0.
         13    1    3    3    0    0 -0.25195758956E+03  0.60424357773E+02  0.45653088511E+03  0.52493255774E+03  0.10566000000E+00 0. -1.
         -4    1    3    3    0  502  0.52356824405E+03  0.10463301611E+02 -0.15066331079E+03  0.54491524119E+03  0.00000000000E+00 0. -1.
        -13    1    1    2    0    0 -0.27161065449E+03 -0.70887659384E+02  0.11368759808E+03  0.30285687875E+03  0.10566000000E+00 0.  1.
<mgrwt>
<rscale>  1 0.74159709E+03</rscale>
<asrwt>0</asrwt>
<pdfrwt beam="2">  1       21 0.73319193E-01 0.10251923E+04</pdfrwt>
<pdfrwt beam="1">  1       -4 0.13786614E+00 0.10251923E+04</pdfrwt>
<totfact> 0.23823529E+01</totfact>
</mgrwt>
</event>
<event>
 6    2  0.2267664E-005  0.1004362E+04  0.7818608E-02  0.1012459E+00
         -4   -1    0    0    0  501 -0.00000000000E+00  0.00000000000E+00  0.73386624859E+03  0.73386624859E+03  0.00000000000E+00 0. -1.
         21   -1    0    0  501  502  0.00000000000E+00 -0.00000000000E+00 -0.51812241370E+03  0.51812241370E+03  0.00000000000E+00 0. -1.
   -9000010    2    1    2    0  502  0.31587293549E+02 -0.55938036830E+02 -0.23129268662E+02  0.10046282131E+04  0.10023053738E+04 0.  0.
         13    1    3    3    0    0 -0.30120870618E+03 -0.40669157372E+03 -0.97613400021E+02  0.51541547109E+03  0.10566000000E+00 0. -1.
         -4    1    3    3    0  502  0.33279599973E+03  0.35075353689E+03  0.74484131360E+02  0.48921274197E+03  0.00000000000E+00 0. -1.
        -13    1    1    2    0    0 -0.31587293549E+02  0.55938036830E+02  0.23887310355E+03  0.24736044923E+03  0.10566000000E+00 0.  1.
<mgrwt>
<rscale>  1 0.50509118E+03</rscale>
<asrwt>0</asrwt>
<pdfrwt beam="2">  1       21 0.79711141E-01 0.10043619E+04</pdfrwt>
<pdfrwt beam="1">  1       -4 0.11290250E+00 0.10043619E+04</pdfrwt>
<totfact> 0.32634912E+01</totfact>
</mgrwt>
</event>
<event>
 6    2  0.2267664E-005  0.9905123E+03  0.7818608E-02  0.9885416E-01
         21   -1    0    0  501  502  0.00000000000E+00  0.00000000000E+00  0.10556830443E+04  0.10556830443E+04  0.00000000000E+00 0. -1.
         -4   -1    0    0    0  501 -0.00000000000E+00 -0.00000000000E+00 -0.33777114799E+03  0.33777114799E+03  0.00000000000E+00 0. -1.
   -9000010    2    1    2    0  502 -0.12994517120E+03  0.57815038822E+02  0.75618718949E+03  0.12461676163E+04  0.98024809923E+03 0.  0.
         13    1    3    3    0    0 -0.17882978835E+03  0.60341782911E+02 -0.20792728226E+03  0.28081130646E+03  0.10566000000E+00 0. -1.
         -4    1    3    3    0  502  0.48884617152E+02 -0.25267440889E+01  0.96411447175E+03  0.96535630980E+03  0.00000000000E+00 0. -1.
        -13    1    1    2    0    0  0.12994517120E+03 -0.57815038822E+02 -0.38275293218E+02  0.14728657599E+03  0.10566000000E+00 0.  1.
<mgrwt>
<rscale>  1 0.60973333E+03</rscale>
<asrwt>0</asrwt>
<pdfrwt beam="1">  1       21 0.16241277E+00 0.99051232E+03</pdfrwt>
<pdfrwt beam="2">  1       -4 0.51964793E-01 0.99051232E+03</pdfrwt>
<totfact> 0.30790926E+01</totfact>
</mgrwt>
</event>
<event>
 6    2  0.2267664E-005  0.1018441E+04  0.7818608E-02  0.9683435E-01
         21   -1    0    0  501  502  0.00000000000E+00  0.00000000000E+00  0.70601515393E+03  0.70601515393E+03  0.00000000000E+00 0. -1.
         -4   -1    0    0    0  501 -0.00000000000E+00 -0.00000000000E+00 -0.57384077185E+03  0.57384077185E+03  0.00000000000E+00 0. -1.
   -9000010    2    1    2    0  502 -0.18983454845E+03 -0.16961096091E+03  0.10683224137E+03  0.10240292870E+04  0.98611247787E+03 0.  0.
         13    1    3    3    0    0  0.17321086776E+03  0.14455263827E+03 -0.31328563785E+03  0.38606394805E+03  0.10566000000E+00 0. -1.
         -4    1    3    3    0  502 -0.36304541620E+03 -0.31416359918E+03  0.42011787922E+03  0.63796533896E+03  0.00000000000E+00 0. -1.
        -13    1    1    2    0    0  0.18983454845E+03  0.16961096091E+03  0.25342140710E+02  0.25582663877E+03  0.10566000000E+00 0.  1.
<mgrwt>
<rscale>  1 0.72011711E+03</rscale>
<asrwt>0</asrwt>
<pdfrwt beam="1">  1       21 0.10861772E+00 0.10184414E+04</pdfrwt>
<pdfrwt beam="2">  1       -4 0.88283195E-01 0.10184414E+04</pdfrwt>
<totfact> 0.27738649E+01</totfact>
</mgrwt>
</event>
<event>
 6    2  0.2267664E-005  0.1036887E+04  0.7818608E-02  0.9687196E-01
         -4   -1    0    0    0  501 -0.00000000000E+00  0.00000000000E+00  0.11120062128E+04  0.11120062128E+04  0.00000000000E+00 0. -1.
         21   -1    0    0  501  502  0.00000000000E+00 -0.00000000000E+00 -0.10349790764E+04  0.10349790764E+04  0.00000000000E+00 0. -1.
   -9000010    2    1    2    0  502 -0.21454017872E+03 -0.10347350302E+03 -0.75428872548E+03  0.12822192356E+04  0.10091582793E+04 0.  0.
         13    1    3    3    0    0 -0.26709370565E+03  0.18865561690E+03 -0.89563552493E+03  0.95346368261E+03  0.10566000000E+00 0. -1.
         -4    1    3    3    0  502  0.52553526934E+02 -0.29212911992E+03  0.14134679945E+03  0.32875555298E+03  0.00000000000E+00 0. -1.
        -13    1    1    2    0    0  0.21454017872E+03  0.10347350302E+03  0.83131586191E+03  0.86476605364E+03  0.10566000000E+00 0.  1.
<mgrwt>
<rscale>  1 0.71784265E+03</rscale>
<asrwt>0</asrwt>
<pdfrwt beam="2">  1       21 0.15922755E+00 0.10368870E+04</pdfrwt>
<pdfrwt beam="1">  1       -4 0.17107788E+00 0.10368870E+04</pdfrwt>
<totfact> 0.18405766E+00</totfact>
</mgrwt>
</event>
<event>
 6    2  0.2267664E-005  0.1023866E+04  0.7818608E-02  0.9730599E-01
         -4   -1    0    0    0  501 -0.00000000000E+00  0.00000000000E+00  0.70007824456E+03  0.70007824456E+03  0.00000000000E+00 0. -1.
         21   -1    0    0  501  502  0.00000000000E+00 -0.00000000000E+00 -0.54815169882E+03  0.54815169882E+03  0.00000000000E+00 0. -1.
   -9000010    2    1    2    0  502 -0.33595883841E+02  0.21128532078E+03  0.14586594969E+03  0.10342044492E+04  0.10012650984E+04 0.  0.
         13    1    3    3    0    0  0.27376699299E+03  0.51536462081E+03  0.14718650293E+03  0.60184128858E+03  0.10566000000E+00 0. -1.
         -4    1    3    3    0  502 -0.30736287683E+03 -0.30407930003E+03 -0.13205532413E+01  0.43236316058E+03  0.00000000000E+00 0. -1.
        -13    1    1    2    0    0  0.33595883841E+02 -0.21128532078E+03  0.60605960472E+01  0.21402549422E+03  0.10566000000E+00 0.  1.
<mgrwt>
<rscale>  1 0.69223776E+03</rscale>
<asrwt>0</asrwt>
<pdfrwt beam="2">  1       21 0.84331031E-01 0.10238662E+04</pdfrwt>
<pdfrwt beam="1">  1       -4 0.10770435E+00 0.10238662E+04</pdfrwt>
<totfact> 0.32023315E+01</totfact>
</mgrwt>
</event>
<event>
 6    2  0.2267664E-005  0.1008228E+04  0.7818608E-02  0.9858237E-01
         -4   -1    0    0    0  501 -0.00000000000E+00  0.00000000000E+00  0.66370079741E+03  0.66370079741E+03  0.00000000000E+00 0. -1.
         21   -1    0    0  501  502  0.00000000000E+00 -0.00000000000E+00 -0.54984105081E+03  0.54984105081E+03  0.00000000000E+00 0. -1.
   -9000010    2    1    2    0  502 -0.12217005837E+03 -0.82214144326E+02 -0.28626908972E+02  0.10086341937E+04  0.99741603564E+03 0.  0.
         13    1    3    3    0    0  0.29151218975E+03 -0.17852261112E+03 -0.33988628480E+03  0.48205018122E+03  0.10566000000E+00 0. -1.
         -4    1    3    3    0  502 -0.41368224812E+03  0.96308466798E+02  0.31125937583E+03  0.52658401251E+03  0.00000000000E+00 0. -1.
        -13    1    1    2    0    0  0.12217005837E+03  0.82214144326E+02  0.14248665557E+03  0.20490765449E+03  0.10566000000E+00 0.  1.
<mgrwt>
<rscale>  1 0.62328719E+03</rscale>
<asrwt>0</asrwt>
<pdfrwt beam="2">  1       21 0.84590931E-01 0.10082279E+04</pdfrwt>
<pdfrwt beam="1">  1       -4 0.10210781E+00 0.10082279E+04</pdfrwt>
<totfact> 0.36262499E+01</totfact>
</mgrwt>
</event>
<event>
 6    2  0.2267664E-005  0.1032284E+04  0.7818608E-02  0.9633844E-01
         21   -1    0    0  501  502  0.00000000000E+00  0.00000000000E+00  0.63959980338E+03  0.63959980338E+03  0.00000000000E+00 0.  1.
         -4   -1    0    0    0  501 -0.00000000000E+00 -0.00000000000E+00 -0.72870473540E+03  0.72870473540E+03  0.00000000000E+00 0. -1.
   -9000010    2    1    2    0  502  0.28855731077E+03  0.17961321853E+02 -0.21254761417E+03  0.10539384502E+04  0.99097014986E+03 0.  0.
         13    1    3    3    0    0 -0.34278197252E+03 -0.10655340692E+03 -0.19870534575E+03  0.41028884314E+03  0.10566000000E+00 0. -1.
         -4    1    3    3    0  502  0.63133928330E+03  0.12451472877E+03 -0.13842268413E+02  0.64364960709E+03  0.00000000000E+00 0. -1.
        -13    1    1    2    0    0 -0.28855731077E+03 -0.17961321853E+02  0.12344268216E+03  0.31436608854E+03  0.10566000000E+00 0.  1.
<mgrwt>
<rscale>  1 0.75096091E+03</rscale>
<asrwt>0</asrwt>
<pdfrwt beam="1">  1       21 0.98399971E-01 0.10322838E+04</pdfrwt>
<pdfrwt beam="2">  1       -4 0.11210842E+00 0.10322838E+04</pdfrwt>
<totfact> 0.19949457E+01</totfact>
</mgrwt>
</event>
<event>
 6    2  0.2267664E-005  0.1104819E+04  0.7818608E-02  0.9451901E-01
         -4   -1    0    0    0  501 -0.00000000000E+00  0.00000000000E+00  0.48813663962E+03  0.48813663962E+03  0.00000000000E+00 0. -1.
         21   -1    0    0  501  502  0.00000000000E+00 -0.00000000000E+00 -0.13248531216E+04  0.13248531216E+04  0.00000000000E+00 0. -1.
   -9000010    2    1    2    0  502  0.42488688916E+03 -0.12598265167E+03 -0.35974820055E+03  0.11619143049E+04  0.10120403090E+04 0.  0.
         13    1    3    3    0    0 -0.51206643704E+02 -0.48265121923E+03 -0.28371281392E+03  0.56219862302E+03  0.10566000000E+00 0. -1.
         -4    1    3    3    0  502  0.47609353286E+03  0.35666856756E+03 -0.76035386630E+02  0.59971568192E+03  0.00000000000E+00 0. -1.
        -13    1    1    2    0    0 -0.42488688916E+03  0.12598265167E+03 -0.47696828139E+03  0.65107545624E+03  0.10566000000E+00 0.  1.
<mgrwt>
<rscale>  1 0.87924797E+03</rscale>
<asrwt>0</asrwt>
<pdfrwt beam="2">  1       21 0.20382356E+00 0.11048195E+04</pdfrwt>
<pdfrwt beam="1">  1       -4 0.75097945E-01 0.11048195E+04</pdfrwt>
<totfact> 0.67983501E+00</totfact>
</mgrwt>
</event>
<event>
 6    2  0.2267664E-005  0.9985911E+03  0.7818608E-02  0.1001956E+00
         -4   -1    0    0    0  501 -0.00000000000E+00  0.00000000000E+00  0.13760332295E+03  0.13760332295E+03  0.00000000000E+00 0. -1.
         21   -1    0    0  501  502  0.00000000000E+00 -0.00000000000E+00 -0.22792935796E+04  0.22792935796E+04  0.00000000000E+00 0. -1.
   -9000010    2    1    2    0  502  0.73161647270E+02 -0.53389386115E+02 -0.17499450357E+04  0.20148180763E+04  0.99447533886E+03 0.  0.
         13    1    3    3    0    0  0.42852676352E+03 -0.31197688377E+03 -0.71183726030E+03  0.88751172351E+03  0.10566000000E+00 0. -1.
         -4    1    3    3    0  502 -0.35536511625E+03  0.25858749765E+03 -0.10381077754E+04  0.11273063528E+04  0.00000000000E+00 0. -1.
        -13    1    1    2    0    0 -0.73161647270E+02  0.53389386115E+02 -0.39174522092E+03  0.40207882618E+03  0.10566000000E+00 0.  1.
<mgrwt>
<rscale>  1 0.54800920E+03</rscale>
<asrwt>0</asrwt>
<pdfrwt beam="2">  1       21 0.35066054E+00 0.99859113E+03</pdfrwt>
<pdfrwt beam="1">  1       -4 0.21169743E-01 0.99859113E+03</pdfrwt>
<totfact> 0.10794950E+01</totfact>
</mgrwt>
</event>
<event>
 6    2  0.2267664E-005  0.1083965E+04  0.7818608E-02  0.9461043E-01
         21   -1    0    0  501  502  0.00000000000E+00  0.00000000000E+00  0.93691742100E+03  0.93691742100E+03  0.00000000000E+00 0.  1.
         -4   -1    0    0    0  501 -0.00000000000E+00 -0.00000000000E+00 -0.63585514305E+03  0.63585514305E+03  0.00000000000E+00 0. -1.
   -9000010    2    1    2    0  502 -0.10191898443E+02 -0.45422210310E+03  0.27164795168E+03  0.11174849544E+04  0.98415365667E+03 0.  0.
         13    1    3    3    0    0 -0.47523625975E+03 -0.32991942724E+03  0.26433851916E+03  0.63605911276E+03  0.10566000000E+00 0. -1.
         -4    1    3    3    0  502  0.46504436130E+03 -0.12430267586E+03  0.73094325194E+01  0.48142584165E+03  0.00000000000E+00 0. -1.
        -13    1    1    2    0    0  0.10191898443E+02  0.45422210310E+03  0.29414326273E+02  0.45528760964E+03  0.10566000000E+00 0.  1.
<mgrwt>
<rscale>  1 0.87217940E+03</rscale>
<asrwt>0</asrwt>
<pdfrwt beam="1">  1       21 0.14414114E+00 0.10839650E+04</pdfrwt>
<pdfrwt beam="2">  1       -4 0.97823868E-01 0.10839650E+04</pdfrwt>
<totfact> 0.10255644E+01</totfact>
</mgrwt>
</event>
<event>
 6    2  0.2267664E-005  0.9966809E+03  0.7818608E-02  0.9971272E-01
         -4   -1    0    0    0  501 -0.00000000000E+00  0.00000000000E+00  0.19407557861E+04  0.19407557861E+04  0.00000000000E+00 0. -1.
         21   -1    0    0  501  502  0.00000000000E+00 -0.00000000000E+00 -0.17562786546E+03  0.17562786546E+03  0.00000000000E+00 0. -1.
   -9000010    2    1    2    0  502 -0.91469443656E+02  0.53725987721E+02  0.12933581218E+04  0.16328343830E+04  0.99101955085E+03 0.  0.
         13    1    3    3    0    0 -0.40940527828E+03  0.29876605816E+03  0.37466713111E+03  0.63027716894E+03  0.10566000000E+00 0. -1.
         -4    1    3    3    0  502  0.31793583463E+03 -0.24504007043E+03  0.91869099070E+03  0.10025572141E+04  0.00000000000E+00 0. -1.
        -13    1    1    2    0    0  0.91469443656E+02 -0.53725987721E+02  0.47176979884E+03  0.48354926858E+03  0.10566000000E+00 0.  1.
<mgrwt>
<rscale>  1 0.56928060E+03</rscale>
<asrwt>0</asrwt>
<pdfrwt beam="2">  1       21 0.27019673E-01 0.99668094E+03</pdfrwt>
<pdfrwt beam="1">  1       -4 0.29857780E+00 0.99668094E+03</pdfrwt>
<totfact> 0.17099450E+01</totfact>
</mgrwt>
</event>
<event>
 6    2  0.2267664E-005  0.1023986E+04  0.7818608E-02  0.9706830E-01
         -4   -1    0    0    0  501 -0.00000000000E+00  0.00000000000E+00  0.11243617208E+04  0.11243617208E+04  0.00000000000E+00 0. -1.
         21   -1    0    0  501  502  0.00000000000E+00 -0.00000000000E+00 -0.47241355064E+03  0.47241355064E+03  0.00000000000E+00 0. -1.
   -9000010    2    1    2    0  502  0.18083157906E+03 -0.14460153958E+03  0.13820969551E+03  0.10332711483E+04  0.99746562890E+03 0.  0.
         13    1    3    3    0    0  0.32205057334E+03 -0.42358244882E+03  0.36650275361E+03  0.64611372243E+03  0.10566000000E+00 0. -1.
         -4    1    3    3    0  502 -0.14121899428E+03  0.27898090924E+03 -0.22829305810E+03  0.38715742592E+03  0.00000000000E+00 0. -1.
        -13    1    1    2    0    0 -0.18083157906E+03  0.14460153958E+03  0.51373847466E+03  0.56350412309E+03  0.10566000000E+00 0.  1.
<mgrwt>
<rscale>  1 0.70611578E+03</rscale>
<asrwt>0</asrwt>
<pdfrwt beam="2">  1       21 0.72679008E-01 0.10239860E+04</pdfrwt>
<pdfrwt beam="1">  1       -4 0.17297873E+00 0.10239860E+04</pdfrwt>
<totfact> 0.13114171E+01</totfact>
</mgrwt>
</event>
<event>
 6    2  0.2267664E-005  0.9986924E+03  0.7818608E-02  0.9826190E-01
         -4   -1    0    0    0  501 -0.00000000000E+00  0.00000000000E+00  0.14407968307E+04  0.14407968307E+04  0.00000000000E+00 0. -1.
         21   -1    0    0  501  502  0.00000000000E+00 -0.00000000000E+00 -0.24738184320E+03  0.24738184320E+03  0.00000000000E+00 0. -1.
   -9000010    2    1    2    0  502 -0.11789207169E+03 -0.11993773953E+03  0.11309244830E+04  0.15087666446E+04  0.98443029202E+03 0.  0.
         13    1    3    3    0    0 -0.38844386137E+02 -0.11814190712E+03 -0.16712020783E+03  0.20831603775E+03  0.10566000000E+00 0. -1.
         -4    1    3    3    0  502 -0.79047685556E+02 -0.17958324036E+01  0.12980446908E+04  0.13004506069E+04  0.00000000000E+00 0. -1.
        -13    1    1    2    0    0  0.11789207169E+03  0.11993773953E+03  0.62490504532E+02  0.17941202928E+03  0.10566000000E+00 0.  1.
<mgrwt>
<rscale>  1 0.63975802E+03</rscale>
<asrwt>0</asrwt>
<pdfrwt beam="2">  1       21 0.38058746E-01 0.99869245E+03</pdfrwt>
<pdfrwt beam="1">  1       -4 0.22166105E+00 0.99869245E+03</pdfrwt>
<totfact> 0.25528864E+01</totfact>
</mgrwt>
</event>
<event>
 6    2  0.2267664E-005  0.1013043E+04  0.7818608E-02  0.9846983E-01
         -4   -1    0    0    0  501 -0.00000000000E+00  0.00000000000E+00  0.16579800293E+04  0.16579800293E+04  0.00000000000E+00 0. -1.
         21   -1    0    0  501  502  0.00000000000E+00 -0.00000000000E+00 -0.21321797792E+03  0.21321797792E+03  0.00000000000E+00 0. -1.
   -9000010    2    1    2    0  502 -0.46149635967E+02 -0.14332561939E+03  0.13678007736E+04  0.17020972340E+04  0.10017904050E+04 0.  0.
         13    1    3    3    0    0 -0.22311279745E+03  0.35655667077E+03  0.32262106115E+03  0.53009087911E+03  0.10566000000E+00 0. -1.
         -4    1    3    3    0  502  0.17696316148E+03 -0.49988229015E+03  0.10451797124E+04  0.11720063548E+04  0.00000000000E+00 0. -1.
        -13    1    1    2    0    0  0.46149635967E+02  0.14332561939E+03  0.76961277818E+02  0.16910077327E+03  0.10566000000E+00 0.  1.
<mgrwt>
<rscale>  1 0.62900958E+03</rscale>
<asrwt>0</asrwt>
<pdfrwt beam="2">  1       21 0.32802767E-01 0.10130430E+04</pdfrwt>
<pdfrwt beam="1">  1       -4 0.25507384E+00 0.10130430E+04</pdfrwt>
<totfact> 0.21397289E+01</totfact>
</mgrwt>
</event>
<event>
 6    2  0.2267664E-005  0.1054273E+04  0.7818608E-02  0.9543560E-01
         -4   -1    0    0    0  501 -0.00000000000E+00  0.00000000000E+00  0.51380301101E+03  0.51380301101E+03  0.00000000000E+00 0. -1.
         21   -1    0    0  501  502  0.00000000000E+00 -0.00000000000E+00 -0.12057277994E+04  0.12057277994E+04  0.00000000000E+00 0. -1.
   -9000010    2    1    2    0  502 -0.28789606489E+03 -0.23245524395E+03 -0.81176232295E+03  0.13305827028E+04  0.98720447495E+03 0.  0.
         13    1    3    3    0    0  0.74139894387E+02 -0.19377809305E+03 -0.92602121390E+03  0.94897943763E+03  0.10566000000E+00 0. -1.
         -4    1    3    3    0  502 -0.36203595928E+03 -0.38677150904E+02  0.11425889095E+03  0.38160326515E+03  0.00000000000E+00 0. -1.
        -13    1    1    2    0    0  0.28789606489E+03  0.23245524395E+03  0.11983753451E+03  0.38894810768E+03  0.10566000000E+00 0.  1.
<mgrwt>
<rscale>  1 0.81147121E+03</rscale>
<asrwt>0</asrwt>
<pdfrwt beam="2">  1       21 0.18549658E+00 0.10542733E+04</pdfrwt>
<pdfrwt beam="1">  1       -4 0.79046618E-01 0.10542733E+04</pdfrwt>
<totfact> 0.81739446E+00</totfact>
</mgrwt>
</event>
<event>
 6    2  0.2267664E-005  0.1007145E+04  0.7818608E-02  0.9953301E-01
         21   -1    0    0  501  502  0.00000000000E+00  0.00000000000E+00  0.27641906209E+03  0.27641906209E+03  0.00000000000E+00 0. -1.
         -4   -1    0    0    0  501 -0.00000000000E+00 -0.00000000000E+00 -0.12153970728E+04  0.12153970728E+04  0.00000000000E+00 0. -1.
   -9000010    2    1    2    0  502 -0.91338599630E+02 -0.59202594176E+02 -0.69214702124E+03  0.12220509862E+04  0.10012459372E+04 0.  0.
         13    1    3    3    0    0  0.17148431747E+03 -0.36337694831E+03 -0.71418266529E+03  0.81945504347E+03  0.10566000000E+00 0. -1.
         -4    1    3    3    0  502 -0.26282291710E+03  0.30417435413E+03  0.22035644042E+02  0.40259594269E+03  0.00000000000E+00 0. -1.
        -13    1    1    2    0    0  0.91338599630E+02  0.59202594176E+02 -0.24683098943E+03  0.26976514869E+03  0.10566000000E+00 0.  1.
<mgrwt>
<rscale>  1 0.57746180E+03</rscale>
<asrwt>0</asrwt>
<pdfrwt beam="1">  1       21 0.42526009E-01 0.10071450E+04</pdfrwt>
<pdfrwt beam="2">  1       -4 0.18698417E+00 0.10071450E+04</pdfrwt>
<totfact> 0.34166982E+01</totfact>
</mgrwt>
</event>
<event>
 6    2  0.2267664E-005  0.1002319E+04  0.7818608E-02  0.1009485E+00
         21   -1    0    0  501  502  0.00000000000E+00  0.00000000000E+00  0.12373629436E+04  0.12373629436E+04  0.00000000000E+00 0. -1.
         -4   -1    0    0    0  501 -0.00000000000E+00 -0.00000000000E+00 -0.23791088711E+03  0.23791088711E+03  0.00000000000E+00 0. -1.
   -9000010    2    1    2    0  502  0.18102064623E+02 -0.68485741357E+02  0.98003227549E+03  0.14018223463E+04  0.99981230636E+03 0.  0.
         13    1    3    3    0    0 -0.45157649840E+03  0.54242527729E+02  0.23330542847E+03  0.51117024546E+03  0.10566000000E+00 0. -1.
         -4    1    3    3    0  502  0.46967856303E+03 -0.12272826909E+03  0.74672684702E+03  0.89065210080E+03  0.00000000000E+00 0. -1.
        -13    1    1    2    0    0 -0.18102064623E+02  0.68485741357E+02  0.19419781022E+02  0.73451484476E+02  0.10566000000E+00 0.  1.
<mgrwt>
<rscale>  1 0.51679774E+03</rscale>
<asrwt>0</asrwt>
<pdfrwt beam="1">  1       21 0.19036353E+00 0.10023186E+04</pdfrwt>
<pdfrwt beam="2">  1       -4 0.36601676E-01 0.10023186E+04</pdfrwt>
<totfact> 0.39553689E+01</totfact>
</mgrwt>
</event>
<event>
 6    2  0.2267664E-005  0.1120809E+04  0.7818608E-02  0.9398431E-01
         -4   -1    0    0    0  501 -0.00000000000E+00  0.00000000000E+00  0.78605614623E+03  0.78605614623E+03  0.00000000000E+00 0. -1.
         21   -1    0    0  501  502  0.00000000000E+00 -0.00000000000E+00 -0.10061739023E+04  0.10061739023E+04  0.00000000000E+00 0. -1.
   -9000010    2    1    2    0  502 -0.48580062319E+03 -0.16593498164E+03  0.18793081519E+03  0.11364554597E+04  0.99633144940E+03 0.  0.
         13    1    3    3    0    0  0.15498256164E+03 -0.39185014034E+03  0.17666424970E+03  0.45692055675E+03  0.10566000000E+00 0. -1.
         -4    1    3    3    0  502 -0.64078318484E+03  0.22591515869E+03  0.11266565495E+02  0.67953490300E+03  0.00000000000E+00 0. -1.
        -13    1    1    2    0    0  0.48580062319E+03  0.16593498164E+03 -0.40804857129E+03  0.65577458881E+03  0.10566000000E+00 0.  1.
<mgrwt>
<rscale>  1 0.92204883E+03</rscale>
<asrwt>0</asrwt>
<pdfrwt beam="2">  1       21 0.15479599E+00 0.11208091E+04</pdfrwt>
<pdfrwt beam="1">  1       -4 0.12093171E+00 0.11208091E+04</pdfrwt>
<totfact> 0.49664541E+00</totfact>
</mgrwt>
</event>
<event>
 6    2  0.2267664E-005  0.1027584E+04  0.7818608E-02  0.9601622E-01
         21   -1    0    0  501  502  0.00000000000E+00  0.00000000000E+00  0.98844597373E+03  0.98844597373E+03  0.00000000000E+00 0. -1.
         -4   -1    0    0    0  501 -0.00000000000E+00 -0.00000000000E+00 -0.46844825185E+03  0.46844825185E+03  0.00000000000E+00 0. -1.
   -9000010    2    1    2    0  502 -0.16134175944E+03  0.28461627527E+03  0.45267750687E+03  0.11228738520E+04  0.97411045302E+03 0.  0.
         13    1    3    3    0    0 -0.34608491860E+03  0.14523045717E+03  0.69370513843E+03  0.78872903257E+03  0.10566000000E+00 0. -1.
         -4    1    3    3    0  502  0.18474315916E+03  0.13938581810E+03 -0.24102763156E+03  0.33414481938E+03  0.00000000000E+00 0. -1.
        -13    1    1    2    0    0  0.16134175944E+03 -0.28461627527E+03  0.67320215009E+02  0.33402037363E+03  0.10566000000E+00 0.  1.
<mgrwt>
<rscale>  1 0.77188931E+03</rscale>
<asrwt>0</asrwt>
<pdfrwt beam="1">  1       21 0.15206861E+00 0.10275839E+04</pdfrwt>
<pdfrwt beam="2">  1       -4 0.72068962E-01 0.10275839E+04</pdfrwt>
<totfact> 0.18083022E+01</totfact>
</mgrwt>
</event>
<event>
 6    2  0.2267664E-005  0.1100454E+04  0.7818608E-02  0.9525808E-01
         -4   -1    0    0    0  501 -0.00000000000E+00  0.00000000000E+00  0.81181602625E+03  0.81181602625E+03  0.00000000000E+00 0. -1.
         21   -1    0    0  501  502  0.00000000000E+00 -0.00000000000E+00 -0.10429221144E+04  0.10429221144E+04  0.00000000000E+00 0. -1.
   -9000010    2    1    2    0  502 -0.31879611967E+03  0.13463750273E+03 -0.67569400596E+03  0.12913407224E+04  0.10446244534E+04 0.  0.
         13    1    3    3    0    0  0.10513990175E+03 -0.17481792750E+03  0.19012147723E+03  0.27885819691E+03  0.10566000000E+00 0. -1.
         -4    1    3    3    0  502 -0.42393602142E+03  0.30945543023E+03 -0.86581548319E+03  0.10124825255E+04  0.00000000000E+00 0. -1.
        -13    1    1    2    0    0  0.31879611967E+03 -0.13463750273E+03  0.44458791779E+03  0.56339741823E+03  0.10566000000E+00 0.  1.
<mgrwt>
<rscale>  1 0.82407554E+03</rscale>
<asrwt>0</asrwt>
<pdfrwt beam="2">  1       21 0.16044956E+00 0.11004538E+04</pdfrwt>
<pdfrwt beam="1">  1       -4 0.12489477E+00 0.11004538E+04</pdfrwt>
<totfact> 0.41405279E+00</totfact>
</mgrwt>
</event>
<event>
 6    2  0.2267664E-005  0.1018645E+04  0.7818608E-02  0.9611508E-01
         -4   -1    0    0    0  501 -0.00000000000E+00  0.00000000000E+00  0.17503457029E+04  0.17503457029E+04  0.00000000000E+00 0. -1.
         21   -1    0    0  501  502  0.00000000000E+00 -0.00000000000E+00 -0.26652841400E+03  0.26652841400E+03  0.00000000000E+00 0. -1.
   -9000010    2    1    2    0  502 -0.39588358250E+02 -0.32226557130E+03  0.95481532588E+03  0.13961765862E+04  0.96551251511E+03 0.  0.
         13    1    3    3    0    0 -0.45626404691E+03  0.34295916137E+02  0.32597855978E+03  0.56179633584E+03  0.10566000000E+00 0. -1.
         -4    1    3    3    0  502  0.41667568866E+03 -0.35656148743E+03  0.62883676610E+03  0.83438025039E+03  0.00000000000E+00 0. -1.
        -13    1    1    2    0    0  0.39588358250E+02  0.32226557130E+03  0.52900196306E+03  0.62069753072E+03  0.10566000000E+00 0.  1.
<mgrwt>
<rscale>  1 0.76539142E+03</rscale>
<asrwt>0</asrwt>
<pdfrwt beam="2">  1       21 0.41004373E-01 0.10186446E+04</pdfrwt>
<pdfrwt beam="1">  1       -4 0.26928395E+00 0.10186446E+04</pdfrwt>
<totfact> 0.11013431E+01</totfact>
</mgrwt>
</event>
<event>
 6    2  0.2267664E-005  0.1028044E+04  0.7818608E-02  0.9520470E-01
         -4   -1    0    0    0  501 -0.00000000000E+00  0.00000000000E+00  0.16863491559E+04  0.16863491559E+04  0.00000000000E+00 0. -1.
         21   -1    0    0  501  502  0.00000000000E+00 -0.00000000000E+00 -0.33350885178E+03  0.33350885178E+03  0.00000000000E+00 0. -1.
   -9000010    2    1    2    0  502 -0.29077649991E+02 -0.43143877750E+03  0.11490844945E+04  0.15418398390E+04  0.93267892930E+03 0.  0.
         13    1    3    3    0    0 -0.37620942660E+03  0.99405693833E+02  0.50932360564E+03  0.64095676224E+03  0.10566000000E+00 0. -1.
         -4    1    3    3    0  502  0.34713177661E+03 -0.53084447133E+03  0.63976088890E+03  0.90088307679E+03  0.00000000000E+00 0. -1.
        -13    1    1    2    0    0  0.29077649991E+02  0.43143877750E+03  0.20375580958E+03  0.47801816865E+03  0.10566000000E+00 0.  1.
<mgrwt>
<rscale>  1 0.82791305E+03</rscale>
<asrwt>0</asrwt>
<pdfrwt beam="2">  1       21 0.51309055E-01 0.10280442E+04</pdfrwt>
<pdfrwt beam="1">  1       -4 0.25943833E+00 0.10280442E+04</pdfrwt>
<totfact> 0.78356436E+00</totfact>
</mgrwt>
</event>
<event>
 6    2  0.2267664E-005  0.1021861E+04  0.7818608E-02  0.9653536E-01
         21   -1    0    0  501  502  0.00000000000E+00  0.00000000000E+00  0.26426835518E+04  0.26426835518E+04  0.00000000000E+00 0. -1.
         -4   -1    0    0    0  501 -0.00000000000E+00 -0.00000000000E+00 -0.22054312914E+03  0.22054312914E+03  0.00000000000E+00 0. -1.
   -9000010    2    1    2    0  502  0.79844301409E+02  0.26710801863E+03  0.23682164461E+04  0.25792731416E+04  0.98309663690E+03 0.  0.
         13    1    3    3    0    0 -0.31999887766E+03 -0.22225707800E+03  0.93403287202E+03  0.10120350328E+04  0.10566000000E+00 0. -1.
         -4    1    3    3    0  502  0.39984317907E+03  0.48936509662E+03  0.14341835741E+04  0.15672381088E+04  0.00000000000E+00 0. -1.
        -13    1    1    2    0    0 -0.79844301409E+02 -0.26710801863E+03  0.53923976571E+02  0.28395353932E+03  0.10566000000E+00 0.  1.
<mgrwt>
<rscale>  1 0.73851935E+03</rscale>
<asrwt>0</asrwt>
<pdfrwt beam="1">  1       21 0.40656668E+00 0.10218614E+04</pdfrwt>
<pdfrwt beam="2">  1       -4 0.33929714E-01 0.10218614E+04</pdfrwt>
<totfact> 0.18838074E+00</totfact>
</mgrwt>
</event>
<event>
 6    2  0.2267664E-005  0.9951489E+03  0.7818608E-02  0.1039327E+00
         21   -1    0    0  501  502  0.00000000000E+00  0.00000000000E+00  0.37255835485E+03  0.37255835485E+03  0.00000000000E+00 0. -1.
         -4   -1    0    0    0  501 -0.00000000000E+00 -0.00000000000E+00 -0.73342134257E+03  0.73342134257E+03  0.00000000000E+00 0. -1.
   -9000010    2    1    2    0  502 -0.22125171620E+01  0.29474475011E+02 -0.30175437987E+03  0.10398927956E+04  0.99470984745E+03 0.  0.
         13    1    3    3    0    0 -0.18579023584E+02 -0.40442061855E+03  0.13232510594E+03  0.42592389185E+03  0.10566000000E+00 0. -1.
         -4    1    3    3    0  502  0.16366506422E+02  0.43389509356E+03 -0.43407948581E+03  0.61396890373E+03  0.00000000000E+00 0. -1.
        -13    1    1    2    0    0  0.22125171620E+01 -0.29474475011E+02 -0.59108607843E+02  0.66086901838E+02  0.10566000000E+00 0.  1.
<mgrwt>
<rscale>  1 0.41312673E+03</rscale>
<asrwt>0</asrwt>
<pdfrwt beam="1">  1       21 0.57316670E-01 0.99514889E+03</pdfrwt>
<pdfrwt beam="2">  1       -4 0.11283405E+00 0.99514889E+03</pdfrwt>
<totfact> 0.69340243E+01</totfact>
</mgrwt>
</event>
<event>
 6    2  0.2267664E-005  0.1117175E+04  0.7818608E-02  0.9403182E-01
         -4   -1    0    0    0  501 -0.00000000000E+00  0.00000000000E+00  0.85073911544E+03  0.85073911544E+03  0.00000000000E+00 0. -1.
         21   -1    0    0  501  502  0.00000000000E+00 -0.00000000000E+00 -0.86152323741E+03  0.86152323741E+03  0.00000000000E+00 0.  1.
   -9000010    2    1    2    0  502  0.27112710031E+03 -0.43155550069E+03 -0.25683864087E+03  0.11463181046E+04  0.99414740095E+03 0.  0.
         13    1    3    3    0    0  0.42338556197E+03  0.18662337431E+03 -0.79956674212E+01  0.46276080191E+03  0.10566000000E+00 0. -1.
         -4    1    3    3    0  502 -0.15225846166E+03 -0.61817887500E+03 -0.24884297345E+03  0.68355730270E+03  0.00000000000E+00 0. -1.
        -13    1    1    2    0    0 -0.27112710031E+03  0.43155550069E+03  0.24605451889E+03  0.56594424825E+03  0.10566000000E+00 0.  1.
<mgrwt>
<rscale>  1 0.91814284E+03</rscale>
<asrwt>0</asrwt>
<pdfrwt beam="2">  1       21 0.13254204E+00 0.11171746E+04</pdfrwt>
<pdfrwt beam="1">  1       -4 0.13088294E+00 0.11171746E+04</pdfrwt>
<totfact> 0.62226923E+00</totfact>
</mgrwt>
</event>
<event>
 6    2  0.2267664E-005  0.8261602E+03  0.7818608E-02  0.1021955E+00
         21   -1    0    0  501  502  0.00000000000E+00  0.00000000000E+00  0.35937327281E+03  0.35937327281E+03  0.00000000000E+00 0. -1.
         -4   -1    0    0    0  501 -0.00000000000E+00 -0.00000000000E+00 -0.77573565001E+03  0.77573565001E+03  0.00000000000E+00 0. -1.
   -9000010    2    1    2    0  502 -0.77247619960E+02  0.38799659393E+02 -0.13042697604E+03  0.83639221228E+03  0.82162529679E+03 0.  0.
         13    1    3    3    0    0 -0.16363784092E+03 -0.31219193388E+03 -0.27502184896E+03  0.44707737041E+03  0.10566000000E+00 0. -1.
         -4    1    3    3    0  502  0.86390220958E+02  0.35099159328E+03  0.14459487292E+03  0.38931484187E+03  0.00000000000E+00 0. -1.
        -13    1    1    2    0    0  0.77247619960E+02 -0.38799659393E+02 -0.28593540116E+03  0.29871671054E+03  0.10566000000E+00 0.  1.
<mgrwt>
<rscale>  1 0.46987499E+03</rscale>
<asrwt>0</asrwt>
<pdfrwt beam="1">  1       21 0.55288196E-01 0.82616024E+03</pdfrwt>
<pdfrwt beam="2">  1       -4 0.11934394E+00 0.82616024E+03</pdfrwt>
<totfact> 0.66194980E+01</totfact>
</mgrwt>
</event>
<event>
 6    2  0.2267664E-005  0.1091818E+04  0.7818608E-02  0.9452961E-01
         21   -1    0    0  501  502  0.00000000000E+00  0.00000000000E+00  0.29545736950E+03  0.29545736950E+03  0.00000000000E+00 0. -1.
         -4   -1    0    0    0  501 -0.00000000000E+00 -0.00000000000E+00 -0.25677299463E+04  0.25677299463E+04  0.00000000000E+00 0. -1.
   -9000010    2    1    2    0  502 -0.12476058859E+03 -0.44013448636E+03 -0.89450650148E+03  0.14114563008E+04  0.99135434492E+03 0.  0.
         13    1    3    3    0    0  0.17100685795E+03 -0.33530017169E+03 -0.10093961317E+04  0.10772883144E+04  0.10566000000E+00 0. -1.
         -4    1    3    3    0  502 -0.29576744654E+03 -0.10483431468E+03  0.11488963019E+03  0.33416798633E+03  0.00000000000E+00 0. -1.
        -13    1    1    2    0    0  0.12476058859E+03  0.44013448636E+03 -0.13777660753E+04  0.14517310150E+04  0.10566000000E+00 0.  1.
<mgrwt>
<rscale>  1 0.87842492E+03</rscale>
<asrwt>0</asrwt>
<pdfrwt beam="1">  1       21 0.45454979E-01 0.10918182E+04</pdfrwt>
<pdfrwt beam="2">  1       -4 0.39503538E+00 0.10918182E+04</pdfrwt>
<totfact> 0.13693319E+00</totfact>
</mgrwt>
</event>
<event>
 6    2  0.2267664E-005  0.9932852E+03  0.7818608E-02  0.1016489E+00
         21   -1    0    0  501  502  0.00000000000E+00  0.00000000000E+00  0.81248142743E+03  0.81248142743E+03  0.00000000000E+00 0. -1.
         -4   -1    0    0    0  501 -0.00000000000E+00 -0.00000000000E+00 -0.46621549259E+03  0.46621549259E+03  0.00000000000E+00 0. -1.
   -9000010    2    1    2    0  502  0.56122628181E+02 -0.17222355493E+02  0.50151857107E+03  0.11127157429E+04  0.99154883317E+03 0.  0.
         13    1    3    3    0    0 -0.95381972983E+02 -0.23363318372E+02 -0.29032587132E+03  0.30648440113E+03  0.10566000000E+00 0. -1.
         -4    1    3    3    0  502  0.15150460116E+03  0.61409628793E+01  0.79184444238E+03  0.80623134182E+03  0.00000000000E+00 0. -1.
        -13    1    1    2    0    0 -0.56122628181E+02  0.17222355493E+02 -0.15525263622E+03  0.16598117707E+03  0.10566000000E+00 0.  1.
<mgrwt>
<rscale>  1 0.48975142E+03</rscale>
<asrwt>0</asrwt>
<pdfrwt beam="1">  1       21 0.12499714E+00 0.99328518E+03</pdfrwt>
<pdfrwt beam="2">  1       -4 0.71725460E-01 0.99328518E+03</pdfrwt>
<totfact> 0.31205294E+01</totfact>
</mgrwt>
</event>
<event>
 6    2  0.2267664E-005  0.1129867E+04  0.7818608E-02  0.9385144E-01
         21   -1    0    0  501  502  0.00000000000E+00  0.00000000000E+00  0.62352165701E+03  0.62352165701E+03  0.00000000000E+00 0.  1.
         -4   -1    0    0    0  501 -0.00000000000E+00 -0.00000000000E+00 -0.16693995882E+04  0.16693995882E+04  0.00000000000E+00 0. -1.
   -9000010    2    1    2    0  502  0.49155149105E+01 -0.52551079002E+03 -0.12888126196E+04  0.17139540383E+04  0.10002073407E+04 0.  0.
         13    1    3    3    0    0  0.47102263941E+03 -0.27700777030E+03 -0.91888091272E+03  0.10690826790E+04  0.10566000000E+00 0. -1.
         -4    1    3    3    0  502 -0.46610712450E+03 -0.24850301972E+03 -0.36993170688E+03  0.64487135932E+03  0.00000000000E+00 0. -1.
        -13    1    1    2    0    0 -0.49155149105E+01  0.52551079002E+03  0.24293468836E+03  0.57896720692E+03  0.10566000000E+00 0.  1.
<mgrwt>
<rscale>  1 0.93308421E+03</rscale>
<asrwt>0</asrwt>
<pdfrwt beam="1">  1       21 0.95926409E-01 0.11298675E+04</pdfrwt>
<pdfrwt beam="2">  1       -4 0.25683070E+00 0.11298675E+04</pdfrwt>
<totfact> 0.19002916E+00</totfact>
</mgrwt>
</event>
<event>
 6    2  0.2267664E-005  0.1009208E+04  0.7818608E-02  0.9855400E-01
         21   -1    0    0  501  502  0.00000000000E+00  0.00000000000E+00  0.69713431105E+03  0.69713431105E+03  0.00000000000E+00 0. -1.
         -4   -1    0    0    0  501 -0.00000000000E+00 -0.00000000000E+00 -0.48222391683E+03  0.48222391683E+03  0.00000000000E+00 0. -1.
   -9000010    2    1    2    0  502  0.14151607031E+03  0.43958968507E+02  0.21150214993E+03  0.10311326688E+04  0.99826961898E+03 0.  0.
         13    1    3    3    0    0  0.26343654437E+03 -0.64584620275E+02  0.57329357384E+03  0.63422040259E+03  0.10566000000E+00 0. -1.
         -4    1    3    3    0  502 -0.12192047407E+03  0.10854358878E+03 -0.36179142391E+03  0.39691226622E+03  0.00000000000E+00 0. -1.
        -13    1    1    2    0    0 -0.14151607031E+03 -0.43958968507E+02  0.34082442894E+01  0.14822555907E+03  0.10566000000E+00 0.  1.
<mgrwt>
<rscale>  1 0.62472327E+03</rscale>
<asrwt>0</asrwt>
<pdfrwt beam="1">  1       21 0.10725143E+00 0.10092083E+04</pdfrwt>
<pdfrwt beam="2">  1       -4 0.74188295E-01 0.10092083E+04</pdfrwt>
<totfact> 0.42790054E+01</totfact>
</mgrwt>
</event>
<event>
 6    2  0.2267664E-005  0.9992411E+03  0.7818608E-02  0.1002439E+00
         21   -1    0    0  501  502  0.00000000000E+00  0.00000000000E+00  0.78004655889E+03  0.78004655889E+03  0.00000000000E+00 0. -1.
         -4   -1    0    0    0  501 -0.00000000000E+00 -0.00000000000E+00 -0.48287052274E+03  0.48287052274E+03  0.00000000000E+00 0. -1.
   -9000010    2    1    2    0  502  0.87725859559E+02 -0.15205775779E+02  0.44222368218E+03  0.10927234483E+04  0.99526665134E+03 0.  0.
         13    1    3    3    0    0 -0.41613351766E+03  0.16550567942E+03  0.29943181122E+03  0.53871945869E+03  0.10566000000E+00 0. -1.
         -4    1    3    3    0  502  0.50385937722E+03 -0.18071145520E+03  0.14279187096E+03  0.55400398958E+03  0.00000000000E+00 0. -1.
        -13    1    1    2    0    0 -0.87725859559E+02  0.15205775779E+02 -0.14504764603E+03  0.17019363336E+03  0.10566000000E+00 0.  1.
<mgrwt>
<rscale>  1 0.54593594E+03</rscale>
<asrwt>0</asrwt>
<pdfrwt beam="1">  1       21 0.12000716E+00 0.99924109E+03</pdfrwt>
<pdfrwt beam="2">  1       -4 0.74287773E-01 0.99924109E+03</pdfrwt>
<totfact> 0.32053900E+01</totfact>
</mgrwt>
</event>
<event>
 6    2  0.2267664E-005  0.1011694E+04  0.7818608E-02  0.9650152E-01
         21   -1    0    0  501  502  0.00000000000E+00  0.00000000000E+00  0.76408022013E+03  0.76408022013E+03  0.00000000000E+00 0. -1.
         -4   -1    0    0    0  501 -0.00000000000E+00 -0.00000000000E+00 -0.71490574794E+03  0.71490574794E+03  0.00000000000E+00 0. -1.
   -9000010    2    1    2    0  502 -0.27028808842E+03 -0.10670503691E+03  0.34055124810E+03  0.10674740577E+04  0.96906351478E+03 0.  0.
         13    1    3    3    0    0 -0.56809687101E+03  0.15481159982E+03  0.82572832852E+02  0.59457461280E+03  0.10566000000E+00 0. -1.
         -4    1    3    3    0  502  0.29780878259E+03 -0.26151663673E+03  0.25797841525E+03  0.47289944493E+03  0.00000000000E+00 0. -1.
        -13    1    1    2    0    0  0.27028808842E+03  0.10670503691E+03 -0.29137677592E+03  0.41151191034E+03  0.10566000000E+00 0.  1.
<mgrwt>
<rscale>  1 0.74063905E+03</rscale>
<asrwt>0</asrwt>
<pdfrwt beam="1">  1       21 0.11755080E+00 0.10116945E+04</pdfrwt>
<pdfrwt beam="2">  1       -4 0.10998550E+00 0.10116945E+04</pdfrwt>
<totfact> 0.13381070E+01</totfact>
</mgrwt>
</event>
<event>
 6    2  0.2267664E-005  0.1028877E+04  0.7818608E-02  0.9683683E-01
         -4   -1    0    0    0  501 -0.00000000000E+00  0.00000000000E+00  0.66199096216E+03  0.66199096216E+03  0.00000000000E+00 0. -1.
         21   -1    0    0  501  502  0.00000000000E+00 -0.00000000000E+00 -0.14073011136E+04  0.14073011136E+04  0.00000000000E+00 0. -1.
   -9000010    2    1    2    0  502  0.11661713122E+03  0.21739058087E+03 -0.11824105897E+04  0.15673807049E+04  0.99886398053E+03 0.  0.
         13    1    3    3    0    0 -0.35477805472E+03 -0.16279264829E+03 -0.27914009418E+03  0.47988344188E+03  0.10566000000E+00 0. -1.
         -4    1    3    3    0  502  0.47139518594E+03  0.38018322916E+03 -0.90327049547E+03  0.10874972630E+04  0.00000000000E+00 0. -1.
        -13    1    1    2    0    0 -0.11661713122E+03 -0.21739058087E+03  0.43710043822E+03  0.50191137087E+03  0.10566000000E+00 0.  1.
<mgrwt>
<rscale>  1 0.71996676E+03</rscale>
<asrwt>0</asrwt>
<pdfrwt beam="2">  1       21 0.21650786E+00 0.10288768E+04</pdfrwt>
<pdfrwt beam="1">  1       -4 0.10184476E+00 0.10288768E+04</pdfrwt>
<totfact> 0.27632808E+00</totfact>
</mgrwt>
</event>
<event>
 6    2  0.2267664E-005  0.1005311E+04  0.7818608E-02  0.9953004E-01
         -4   -1    0    0    0  501 -0.00000000000E+00  0.00000000000E+00  0.14552316284E+04  0.14552316284E+04  0.00000000000E+00 0. -1.
         21   -1    0    0  501  502  0.00000000000E+00 -0.00000000000E+00 -0.26562226846E+03  0.26562226846E+03  0.00000000000E+00 0. -1.
   -9000010    2    1    2    0  502 -0.43432133818E+02 -0.10056982157E+03  0.71468991288E+03  0.12334637743E+04  0.99932505801E+03 0.  0.
         13    1    3    3    0    0 -0.39644798047E+03 -0.27240779836E+03  0.80686802769E+02  0.48773699996E+03  0.10566000000E+00 0. -1.
         -4    1    3    3    0  502  0.35301584666E+03  0.17183797679E+03  0.63400311012E+03  0.74572677429E+03  0.00000000000E+00 0. -1.
        -13    1    1    2    0    0  0.43432133818E+02  0.10056982157E+03  0.47491944704E+03  0.48739012259E+03  0.10566000000E+00 0.  1.
<mgrwt>
<rscale>  1 0.57759854E+03</rscale>
<asrwt>0</asrwt>
<pdfrwt beam="2">  1       21 0.40864965E-01 0.10053115E+04</pdfrwt>
<pdfrwt beam="1">  1       -4 0.22388178E+00 0.10053115E+04</pdfrwt>
<totfact> 0.21285562E+01</totfact>
</mgrwt>
</event>
<event>
 6    2  0.2267664E-005  0.1035978E+04  0.7818608E-02  0.9475854E-01
         -4   -1    0    0    0  501 -0.00000000000E+00  0.00000000000E+00  0.10480636567E+04  0.10480636567E+04  0.00000000000E+00 0. -1.
         21   -1    0    0  501  502  0.00000000000E+00 -0.00000000000E+00 -0.73376428882E+03  0.73376428882E+03  0.00000000000E+00 0. -1.
   -9000010    2    1    2    0  502  0.45078446534E+03  0.20202071915E+03 -0.21475864017E+03  0.10580038010E+04  0.91062163617E+03 0.  0.
         13    1    3    3    0    0  0.63274557721E+03  0.37153907082E+03 -0.67548755893E+01  0.73379417150E+03  0.10566000000E+00 0. -1.
         -4    1    3    3    0  502 -0.18196111187E+03 -0.16951835167E+03 -0.20800376458E+03  0.32420962951E+03  0.00000000000E+00 0. -1.
        -13    1    1    2    0    0 -0.45078446534E+03 -0.20202071915E+03  0.52905800809E+03  0.72382414456E+03  0.10566000000E+00 0.  1.
<mgrwt>
<rscale>  1 0.86087662E+03</rscale>
<asrwt>0</asrwt>
<pdfrwt beam="2">  1       21 0.11288681E+00 0.10359782E+04</pdfrwt>
<pdfrwt beam="1">  1       -4 0.16124056E+00 0.10359782E+04</pdfrwt>
<totfact> 0.54818115E+00</totfact>
</mgrwt>
</event>
<event>
 6    2  0.2267664E-005  0.1026054E+04  0.7818608E-02  0.9990491E-01
         21   -1    0    0  501  502  0.00000000000E+00  0.00000000000E+00  0.23883778333E+03  0.23883778333E+03  0.00000000000E+00 0. -1.
         -4   -1    0    0    0  501 -0.00000000000E+00 -0.00000000000E+00 -0.15175310301E+04  0.15175310301E+04  0.00000000000E+00 0. -1.
   -9000010    2    1    2    0  502 -0.48435644425E+02  0.77619892539E+02 -0.89382610094E+03  0.13607761056E+04  0.10219665609E+04 0.  0.
         13    1    3    3    0    0  0.16793331586E+03 -0.42232465363E+03 -0.56253738546E+03  0.72319294303E+03  0.10566000000E+00 0. -1.
         -4    1    3    3    0  502 -0.21636896029E+03  0.49994454617E+03 -0.33128871548E+03  0.63758316260E+03  0.00000000000E+00 0. -1.
        -13    1    1    2    0    0  0.48435644425E+02 -0.77619892539E+02 -0.38486714585E+03  0.39559270783E+03  0.10566000000E+00 0.  1.
<mgrwt>
<rscale>  1 0.56069146E+03</rscale>
<asrwt>0</asrwt>
<pdfrwt beam="1">  1       21 0.36744273E-01 0.10260539E+04</pdfrwt>
<pdfrwt beam="2">  1       -4 0.23346632E+00 0.10260539E+04</pdfrwt>
<totfact> 0.23062969E+01</totfact>
</mgrwt>
</event>
<event>
 6    2  0.2267664E-005  0.9968675E+03  0.7818608E-02  0.9719452E-01
         -4   -1    0    0    0  501 -0.00000000000E+00  0.00000000000E+00  0.37135971681E+03  0.37135971681E+03  0.00000000000E+00 0. -1.
         21   -1    0    0  501  502  0.00000000000E+00 -0.00000000000E+00 -0.11402663596E+04  0.11402663596E+04  0.00000000000E+00 0. -1.
   -9000010    2    1    2    0  502 -0.15511716477E+03  0.18389530331E+03 -0.78740585787E+03  0.12703356922E+04  0.96740165833E+03 0.  0.
         13    1    3    3    0    0  0.29284213749E+03 -0.12873603006E+03 -0.98097891964E+01  0.32004019444E+03  0.10566000000E+00 0. -1.
         -4    1    3    3    0  502 -0.44795930227E+03  0.31263133337E+03 -0.77759606867E+03  0.95029549778E+03  0.00000000000E+00 0. -1.
        -13    1    1    2    0    0  0.15511716477E+03 -0.18389530331E+03  0.18499215062E+02  0.24129038420E+03  0.10566000000E+00 0.  1.
<mgrwt>
<rscale>  1 0.69870370E+03</rscale>
<asrwt>0</asrwt>
<pdfrwt beam="2">  1       21 0.17542559E+00 0.99686749E+03</pdfrwt>
<pdfrwt beam="1">  1       -4 0.57132266E-01 0.99686749E+03</pdfrwt>
<totfact> 0.20054316E+01</totfact>
</mgrwt>
</event>
<event>
 6    2  0.2267664E-005  0.1053291E+04  0.7818608E-02  0.9528763E-01
         -4   -1    0    0    0  501 -0.00000000000E+00  0.00000000000E+00  0.26305796663E+03  0.26305796663E+03  0.00000000000E+00 0. -1.
         21   -1    0    0  501  502  0.00000000000E+00 -0.00000000000E+00 -0.20006742242E+04  0.20006742242E+04  0.00000000000E+00 0. -1.
   -9000010    2    1    2    0  502 -0.13569620276E+03  0.36629677889E+03 -0.11648548850E+04  0.15704484172E+04  0.97817919546E+03 0.  0.
         13    1    3    3    0    0 -0.21678948597E+03  0.54228991908E+03 -0.24996560700E+03  0.63526282231E+03  0.10566000000E+00 0. -1.
         -4    1    3    3    0  502  0.81093283212E+02 -0.17599314019E+03 -0.91488927797E+03  0.93518559491E+03  0.00000000000E+00 0. -1.
        -13    1    1    2    0    0  0.13569620276E+03 -0.36629677889E+03 -0.57276137260E+03  0.69328377363E+03  0.10566000000E+00 0.  1.
<mgrwt>
<rscale>  1 0.82196035E+03</rscale>
<asrwt>0</asrwt>
<pdfrwt beam="2">  1       21 0.30779604E+00 0.10532907E+04</pdfrwt>
<pdfrwt beam="1">  1       -4 0.40470455E-01 0.10532907E+04</pdfrwt>
<totfact> 0.55906961E+00</totfact>
</mgrwt>
</event>
<event>
 6    2  0.2267664E-005  0.1133917E+04  0.7818608E-02  0.9398503E-01
         21   -1    0    0  501  502  0.00000000000E+00  0.00000000000E+00  0.74738856558E+03  0.74738856558E+03  0.00000000000E+00 0. -1.
         -4   -1    0    0    0  501 -0.00000000000E+00 -0.00000000000E+00 -0.14666933575E+04  0.14666933575E+04  0.00000000000E+00 0. -1.
   -9000010    2    1    2    0  502 -0.48001645372E+03 -0.12343738954E+03  0.21717946249E+03  0.11545276041E+04  0.10198600319E+04 0.  0.
         13    1    3    3    0    0 -0.75833372446E+03  0.90688498235E+02  0.24551756194E+03  0.80223021992E+03  0.10566000000E+00 0. -1.
         -4    1    3    3    0  502  0.27831727075E+03 -0.21412588778E+03 -0.28338099451E+02  0.35229738417E+03  0.00000000000E+00 0. -1.
        -13    1    1    2    0    0  0.48001645372E+03  0.12343738954E+03 -0.93648425441E+03  0.10595543190E+04  0.10566000000E+00 0.  1.
<mgrwt>
<rscale>  1 0.92198962E+03</rscale>
<asrwt>0</asrwt>
<pdfrwt beam="1">  1       21 0.11498286E+00 0.11339167E+04</pdfrwt>
<pdfrwt beam="2">  1       -4 0.22564513E+00 0.11339167E+04</pdfrwt>
<totfact> 0.18870498E+00</totfact>
</mgrwt>
</event>
<event>
 6    2  0.2267664E-005  0.1010820E+04  0.7818608E-02  0.1025888E+00
         21   -1    0    0  501  502  0.00000000000E+00  0.00000000000E+00  0.29095127942E+03  0.29095127942E+03  0.00000000000E+00 0. -1.
         -4   -1    0    0    0  501 -0.00000000000E+00 -0.00000000000E+00 -0.95353092456E+03  0.95353092456E+03  0.00000000000E+00 0. -1.
   -9000010    2    1    2    0  502 -0.11722765097E+02  0.40267099954E+02 -0.62704703574E+03  0.11895145767E+04  0.10099495435E+04 0.  0.
         13    1    3    3    0    0  0.34949346575E+03  0.26495051833E+02  0.11103867949E+03  0.36766461603E+03  0.10566000000E+00 0. -1.
         -4    1    3    3    0  502 -0.36121623084E+03  0.13772048121E+02 -0.73808571524E+03  0.82184996062E+03  0.00000000000E+00 0. -1.
        -13    1    1    2    0    0  0.11722765097E+02 -0.40267099954E+02 -0.35532609396E+02  0.54967627334E+02  0.10566000000E+00 0.  1.
<mgrwt>
<rscale>  1 0.45620462E+03</rscale>
<asrwt>0</asrwt>
<pdfrwt beam="1">  1       21 0.44761735E-01 0.10108199E+04</pdfrwt>
<pdfrwt beam="2">  1       -4 0.14669707E+00 0.10108199E+04</pdfrwt>
<totfact> 0.60366282E+01</totfact>
</mgrwt>
</event>
<event>
 6    2  0.2267664E-005  0.1037813E+04  0.7818608E-02  0.9837361E-01
         21   -1    0    0  501  502  0.00000000000E+00  0.00000000000E+00  0.56756304271E+03  0.56756304271E+03  0.00000000000E+00 0. -1.
         -4   -1    0    0    0  501 -0.00000000000E+00 -0.00000000000E+00 -0.62827317776E+03  0.62827317776E+03  0.00000000000E+00 0. -1.
   -9000010    2    1    2    0  502 -0.32209526181E+02  0.14086735870E+03  0.32330593371E+01  0.10378178367E+04  0.10277034316E+04 0.  0.
         13    1    3    3    0    0  0.24813197289E+03 -0.26169933211E+03 -0.29308315185E+03  0.46470825414E+03  0.10566000000E+00 0. -1.
         -4    1    3    3    0  502 -0.28034149908E+03  0.40256669081E+03  0.29631621119E+03  0.57310958260E+03  0.00000000000E+00 0. -1.
        -13    1    1    2    0    0  0.32209526181E+02 -0.14086735870E+03 -0.63943194386E+02  0.15801838373E+03  0.10566000000E+00 0.  1.
<mgrwt>
<rscale>  1 0.63395493E+03</rscale>
<asrwt>0</asrwt>
<pdfrwt beam="1">  1       21 0.87317391E-01 0.10378128E+04</pdfrwt>
<pdfrwt beam="2">  1       -4 0.96657412E-01 0.10378128E+04</pdfrwt>
<totfact> 0.38266012E+01</totfact>
</mgrwt>
</event>
<event>
 6    2  0.2267664E-005  0.9737447E+03  0.7818608E-02  0.9967232E-01
         21   -1    0    0  501  502  0.00000000000E+00  0.00000000000E+00  0.46224744824E+03  0.46224744824E+03  0.00000000000E+00 0. -1.
         -4   -1    0    0    0  501 -0.00000000000E+00 -0.00000000000E+00 -0.85327455505E+03  0.85327455505E+03  0.00000000000E+00 0. -1.
   -9000010    2    1    2    0  502  0.11102841060E+03  0.30801257507E+02 -0.72089499247E+02  0.97640958224E+03  0.96690369271E+03 0.  0.
         13    1    3    3    0    0  0.51992354453E+03 -0.12454447874E+03 -0.10926642554E+02  0.53474407152E+03  0.10566000000E+00 0. -1.
         -4    1    3    3    0  502 -0.40889513393E+03  0.15534573625E+03 -0.61162856693E+02  0.44166551072E+03  0.00000000000E+00 0. -1.
        -13    1    1    2    0    0 -0.11102841060E+03 -0.30801257507E+02 -0.31893760756E+03  0.33911242104E+03  0.10566000000E+00 0.  1.
<mgrwt>
<rscale>  1 0.57110688E+03</rscale>
<asrwt>0</asrwt>
<pdfrwt beam="1">  1       21 0.71114993E-01 0.97374472E+03</pdfrwt>
<pdfrwt beam="2">  1       -4 0.13127301E+00 0.97374472E+03</pdfrwt>
<totfact> 0.29158338E+01</totfact>
</mgrwt>
</event>
<event>
 6    2  0.2267664E-005  0.1010462E+04  0.7818608E-02  0.9878393E-01
         21   -1    0    0  501  502  0.00000000000E+00  0.00000000000E+00  0.41587276692E+03  0.41587276692E+03  0.00000000000E+00 0. -1.
         -4   -1    0    0    0  501 -0.00000000000E+00 -0.00000000000E+00 -0.81734589359E+03  0.81734589359E+03  0.00000000000E+00 0. -1.
   -9000010    2    1    2    0  502 -0.46531209037E+02 -0.12889837329E+03 -0.27615637655E+03  0.10475193254E+04  0.10011265897E+04 0.  0.
         13    1    3    3    0    0 -0.39761715014E+03  0.22969965000E+03  0.29108066845E+02  0.46011804791E+03  0.10566000000E+00 0. -1.
         -4    1    3    3    0  502  0.35108594110E+03 -0.35859802329E+03 -0.30526444339E+03  0.58740127744E+03  0.00000000000E+00 0. -1.
        -13    1    1    2    0    0  0.46531209037E+02  0.12889837329E+03 -0.12531675012E+03  0.18569933515E+03  0.10566000000E+00 0.  1.
<mgrwt>
<rscale>  1 0.61319973E+03</rscale>
<asrwt>0</asrwt>
<pdfrwt beam="1">  1       21 0.63980426E-01 0.10104625E+04</pdfrwt>
<pdfrwt beam="2">  1       -4 0.12574552E+00 0.10104625E+04</pdfrwt>
<totfact> 0.41275493E+01</totfact>
</mgrwt>
</event>
<event>
 6    2  0.2267664E-005  0.1372697E+04  0.7818608E-02  0.9073234E-01
         21   -1    0    0  501  502  0.00000000000E+00  0.00000000000E+00  0.94856054203E+03  0.94856054203E+03  0.00000000000E+00 0.  1.
         -4   -1    0    0    0  501 -0.00000000000E+00 -0.00000000000E+00 -0.14009832332E+04  0.14009832332E+04  0.00000000000E+00 0. -1.
   -9000010    2    1    2    0  502  0.24501380583E+03 -0.90012520443E+03 -0.27015735484E+03  0.13990292763E+04  0.10069959140E+04 0.  0.
         13    1    3    3    0    0 -0.25180695723E+03 -0.70504542810E+03 -0.40126159530E+03  0.84941549222E+03  0.10566000000E+00 0. -1.
         -4    1    3    3    0  502  0.49682076307E+03 -0.19507977632E+03  0.13110424047E+03  0.54961378405E+03  0.00000000000E+00 0. -1.
        -13    1    1    2    0    0 -0.24501380583E+03  0.90012520443E+03 -0.18226533630E+03  0.95051449893E+03  0.10566000000E+00 0.  1.
<mgrwt>
<rscale>  1 0.12463416E+04</rscale>
<asrwt>0</asrwt>
<pdfrwt beam="1">  1       21 0.14593239E+00 0.13726973E+04</pdfrwt>
<pdfrwt beam="2">  1       -4 0.21553588E+00 0.13726973E+04</pdfrwt>
<totfact> 0.11235701E+00</totfact>
</mgrwt>
</event>
<event>
 6    2  0.2267664E-005  0.8575099E+03  0.7818608E-02  0.9860053E-01
         21   -1    0    0  501  502  0.00000000000E+00  0.00000000000E+00  0.50403510675E+03  0.50403510675E+03  0.00000000000E+00 0. -1.
         -4   -1    0    0    0  501 -0.00000000000E+00 -0.00000000000E+00 -0.93422850911E+03  0.93422850911E+03  0.00000000000E+00 0. -1.
   -9000010    2    1    2    0  502  0.12975532582E+03  0.19945235419E+03  0.93947598515E+02  0.86264092161E+03  0.82383585877E+03 0.  0.
         13    1    3    3    0    0  0.22436557051E+03 -0.12310800724E+03  0.35457829629E+03  0.43728854323E+03  0.10566000000E+00 0. -1.
         -4    1    3    3    0  502 -0.94610244681E+02  0.32256036143E+03 -0.26063069778E+03  0.42535237837E+03  0.00000000000E+00 0. -1.
        -13    1    1    2    0    0 -0.12975532582E+03 -0.19945235419E+03 -0.52414100087E+03  0.57562269425E+03  0.10566000000E+00 0.  1.
<mgrwt>
<rscale>  1 0.62236961E+03</rscale>
<asrwt>0</asrwt>
<pdfrwt beam="1">  1       21 0.77543863E-01 0.85750989E+03</pdfrwt>
<pdfrwt beam="2">  1       -4 0.14372746E+00 0.85750989E+03</pdfrwt>
<totfact> 0.19073356E+01</totfact>
</mgrwt>
</event>
<event>
 6    2  0.2267664E-005  0.1209117E+04  0.7818608E-02  0.9246606E-01
         -4   -1    0    0    0  501 -0.00000000000E+00  0.00000000000E+00  0.71989738730E+03  0.71989738730E+03  0.00000000000E+00 0. -1.
         21   -1    0    0  501  502  0.00000000000E+00 -0.00000000000E+00 -0.12792607325E+04  0.12792607325E+04  0.00000000000E+00 0.  1.
   -9000010    2    1    2    0  502  0.65355891795E+03  0.27788207005E+03 -0.35560463582E+03  0.12603243585E+04  0.97857300571E+03 0.  0.
         13    1    3    3    0    0  0.89815581180E+03  0.98388020685E+02 -0.23292632258E+03  0.93306952999E+03  0.10566000000E+00 0. -1.
         -4    1    3    3    0  502 -0.24459689385E+03  0.17949404936E+03 -0.12267831324E+03  0.32725482850E+03  0.00000000000E+00 0. -1.
        -13    1    1    2    0    0 -0.65355891795E+03 -0.27788207005E+03 -0.20375870942E+03  0.73883376136E+03  0.10566000000E+00 0.  1.
<mgrwt>
<rscale>  1 0.10585063E+04</rscale>
<asrwt>0</asrwt>
<pdfrwt beam="2">  1       21 0.19680934E+00 0.12091166E+04</pdfrwt>
<pdfrwt beam="1">  1       -4 0.11075344E+00 0.12091166E+04</pdfrwt>
<totfact> 0.29873739E+00</totfact>
</mgrwt>
</event>
<event>
 6    2  0.2267664E-005  0.1092811E+04  0.7818608E-02  0.9489380E-01
         -4   -1    0    0    0  501 -0.00000000000E+00  0.00000000000E+00  0.91879235659E+03  0.91879235659E+03  0.00000000000E+00 0. -1.
         21   -1    0    0  501  502  0.00000000000E+00 -0.00000000000E+00 -0.60861618609E+03  0.60861618609E+03  0.00000000000E+00 0.  1.
   -9000010    2    1    2    0  502 -0.30913175543E+03 -0.25593187498E+03  0.25648330121E+03  0.11225054651E+04  0.10164503277E+04 0.  0.
         13    1    3    3    0    0 -0.57606225634E+03 -0.11511333762E+03  0.47040400941E+03  0.75258138889E+03  0.10566000000E+00 0. -1.
         -4    1    3    3    0  502  0.26693050091E+03 -0.14081853736E+03 -0.21392070820E+03  0.36992407623E+03  0.00000000000E+00 0. -1.
        -13    1    1    2    0    0  0.30913175543E+03  0.25593187498E+03  0.53692869287E+02  0.40490307756E+03  0.10566000000E+00 0.  1.
<mgrwt>
<rscale>  1 0.85071359E+03</rscale>
<asrwt>0</asrwt>
<pdfrwt beam="2">  1       21 0.93633259E-01 0.10928105E+04</pdfrwt>
<pdfrwt beam="1">  1       -4 0.14135267E+00 0.10928105E+04</pdfrwt>
<totfact> 0.12399985E+01</totfact>
</mgrwt>
</event>
<event>
 6    2  0.2267664E-005  0.1009986E+04  0.7818608E-02  0.9816312E-01
         21   -1    0    0  501  502  0.00000000000E+00  0.00000000000E+00  0.75944705487E+03  0.75944705487E+03  0.00000000000E+00 0. -1.
         -4   -1    0    0    0  501 -0.00000000000E+00 -0.00000000000E+00 -0.57249596673E+03  0.57249596673E+03  0.00000000000E+00 0. -1.
   -9000010    2    1    2    0  502 -0.27719920189E+02  0.16563246237E+03  0.37724830692E+03  0.10781408364E+04  0.99592613757E+03 0.  0.
         13    1    3    3    0    0  0.13154552900E+03 -0.38471154200E+03  0.28813468041E+03  0.49832599969E+03  0.10566000000E+00 0. -1.
         -4    1    3    3    0  502 -0.15926544918E+03  0.55034400437E+03  0.89113626506E+02  0.57981483672E+03  0.00000000000E+00 0. -1.
        -13    1    1    2    0    0  0.27719920189E+02 -0.16563246237E+03 -0.19029721878E+03  0.25380218518E+03  0.10566000000E+00 0.  1.
<mgrwt>
<rscale>  1 0.64494465E+03</rscale>
<asrwt>0</asrwt>
<pdfrwt beam="1">  1       21 0.11683801E+00 0.10099858E+04</pdfrwt>
<pdfrwt beam="2">  1       -4 0.88076302E-01 0.10099858E+04</pdfrwt>
<totfact> 0.23183478E+01</totfact>
</mgrwt>
</event>
<event>
 6    2  0.2267664E-005  0.1120510E+04  0.7818608E-02  0.9396859E-01
         -4   -1    0    0    0  501 -0.00000000000E+00  0.00000000000E+00  0.19750309009E+04  0.19750309009E+04  0.00000000000E+00 0. -1.
         21   -1    0    0  501  502  0.00000000000E+00 -0.00000000000E+00 -0.37129155027E+03  0.37129155027E+03  0.00000000000E+00 0.  1.
   -9000010    2    1    2    0  502  0.90256582002E+01  0.51658861911E+03  0.74977184635E+03  0.13482213674E+04  0.99428254034E+03 0.  0.
         13    1    3    3    0    0 -0.40001421948E+03  0.21742040491E+03  0.70532885668E+03  0.83950688829E+03  0.10566000000E+00 0. -1.
         -4    1    3    3    0  502  0.40903987768E+03  0.29916821420E+03  0.44442989679E+02  0.50871447911E+03  0.00000000000E+00 0. -1.
        -13    1    1    2    0    0 -0.90256582002E+01 -0.51658861911E+03  0.85396750432E+03  0.99810108381E+03  0.10566000000E+00 0.  1.
<mgrwt>
<rscale>  1 0.92334634E+03</rscale>
<asrwt>0</asrwt>
<pdfrwt beam="2">  1       21 0.57121778E-01 0.11205102E+04</pdfrwt>
<pdfrwt beam="1">  1       -4 0.30385090E+00 0.11205102E+04</pdfrwt>
<totfact> 0.32537038E+00</totfact>
</mgrwt>
</event>
<event>
 6    2  0.2267664E-005  0.1153160E+04  0.7818608E-02  0.9378165E-01
         -4   -1    0    0    0  501 -0.00000000000E+00  0.00000000000E+00  0.53137920569E+03  0.53137920569E+03  0.00000000000E+00 0. -1.
         21   -1    0    0  501  502  0.00000000000E+00 -0.00000000000E+00 -0.14255907453E+04  0.14255907453E+04  0.00000000000E+00 0. -1.
   -9000010    2    1    2    0  502  0.21270678289E+03  0.46007719253E+03 -0.87882945822E+03  0.14498685625E+04  0.10357907286E+04 0.  0.
         13    1    3    3    0    0  0.23559556889E+03  0.59947936381E+03 -0.92227422502E+02  0.65068171047E+03  0.10566000000E+00 0. -1.
         -4    1    3    3    0  502 -0.22888786004E+02 -0.13940217128E+03 -0.78660203572E+03  0.79918685205E+03  0.00000000000E+00 0. -1.
        -13    1    1    2    0    0 -0.21270678289E+03 -0.46007719253E+03 -0.15382081364E+02  0.50710138845E+03  0.10566000000E+00 0.  1.
<mgrwt>
<rscale>  1 0.93894653E+03</rscale>
<asrwt>0</asrwt>
<pdfrwt beam="2">  1       21 0.21932165E+00 0.11531598E+04</pdfrwt>
<pdfrwt beam="1">  1       -4 0.81750649E-01 0.11531598E+04</pdfrwt>
<totfact> 0.43719429E+00</totfact>
</mgrwt>
</event>
<event>
 6    2  0.2267664E-005  0.1030121E+04  0.7818608E-02  0.9667142E-01
         -4   -1    0    0    0  501 -0.00000000000E+00  0.00000000000E+00  0.61343460695E+03  0.61343460695E+03  0.00000000000E+00 0. -1.
         21   -1    0    0  501  502  0.00000000000E+00 -0.00000000000E+00 -0.89071603572E+03  0.89071603572E+03  0.00000000000E+00 0. -1.
   -9000010    2    1    2    0  502  0.13403683192E+03 -0.22266666210E+03 -0.51522347390E+03  0.11517833021E+04  0.99679648480E+03 0.  0.
         13    1    3    3    0    0 -0.10066976107E+03  0.27640928444E+03 -0.52318428336E+03  0.60021521044E+03  0.10566000000E+00 0. -1.
         -4    1    3    3    0  502  0.23470659299E+03 -0.49907594654E+03  0.79608094571E+01  0.55156809162E+03  0.00000000000E+00 0. -1.
        -13    1    1    2    0    0 -0.13403683192E+03  0.22266666210E+03  0.23794204513E+03  0.35236734061E+03  0.10566000000E+00 0.  1.
<mgrwt>
<rscale>  1 0.73007325E+03</rscale>
<asrwt>0</asrwt>
<pdfrwt beam="2">  1       21 0.13703324E+00 0.10301211E+04</pdfrwt>
<pdfrwt beam="1">  1       -4 0.94374555E-01 0.10301211E+04</pdfrwt>
<totfact> 0.12907271E+01</totfact>
</mgrwt>
</event>
<event>
 6    2  0.2267664E-005  0.1063651E+04  0.7818608E-02  0.9563278E-01
         -4   -1    0    0    0  501 -0.00000000000E+00  0.00000000000E+00  0.15535810934E+04  0.15535810934E+04  0.00000000000E+00 0. -1.
         21   -1    0    0  501  502  0.00000000000E+00 -0.00000000000E+00 -0.96790572958E+03  0.96790572958E+03  0.00000000000E+00 0. -1.
   -9000010    2    1    2    0  502 -0.75743894528E+02 -0.32793388226E+03 -0.64613394186E+03  0.12445248246E+04  0.10089971256E+04 0.  0.
         13    1    3    3    0    0  0.21635920720E+03 -0.13168115585E+03  0.20349395539E+03  0.32490157646E+03  0.10566000000E+00 0. -1.
         -4    1    3    3    0  502 -0.29210310172E+03 -0.19625272641E+03 -0.84962789724E+03  0.91962324809E+03  0.00000000000E+00 0. -1.
        -13    1    1    2    0    0  0.75743894528E+02  0.32793388226E+03  0.12318093057E+04  0.12769619984E+04  0.10566000000E+00 0.  1.
<mgrwt>
<rscale>  1 0.79775105E+03</rscale>
<asrwt>0</asrwt>
<pdfrwt beam="2">  1       21 0.14890857E+00 0.10636508E+04</pdfrwt>
<pdfrwt beam="1">  1       -4 0.23901248E+00 0.10636508E+04</pdfrwt>
<totfact> 0.78713986E-01</totfact>
</mgrwt>
</event>
<event>
 6    2  0.2267664E-005  0.9149869E+03  0.7818608E-02  0.9703328E-01
         -4   -1    0    0    0  501 -0.00000000000E+00  0.00000000000E+00  0.38843877794E+03  0.38843877794E+03  0.00000000000E+00 0. -1.
         21   -1    0    0  501  502  0.00000000000E+00 -0.00000000000E+00 -0.14814971582E+04  0.14814971582E+04  0.00000000000E+00 0. -1.
   -9000010    2    1    2    0  502 -0.32435378842E+03  0.51158857352E+02 -0.12138353939E+04  0.15200649500E+04  0.85403657989E+03 0.  0.
         13    1    3    3    0    0  0.45238718207E+02  0.21308388254E+03  0.23027399273E+02  0.21904692398E+03  0.10566000000E+00 0. -1.
         -4    1    3    3    0  502 -0.36959250663E+03 -0.16192502518E+03 -0.12368627932E+04  0.13010180260E+04  0.00000000000E+00 0. -1.
        -13    1    1    2    0    0  0.32435378842E+03 -0.51158857352E+02  0.12077701369E+03  0.34987098615E+03  0.10566000000E+00 0.  1.
<mgrwt>
<rscale>  1 0.70819019E+03</rscale>
<asrwt>0</asrwt>
<pdfrwt beam="2">  1       21 0.22792264E+00 0.91498693E+03</pdfrwt>
<pdfrwt beam="1">  1       -4 0.59759812E-01 0.91498693E+03</pdfrwt>
<totfact> 0.80202634E+00</totfact>
</mgrwt>
</event>
<event>
 6    2  0.2267664E-005  0.1017935E+04  0.7818608E-02  0.9755129E-01
         21   -1    0    0  501  502  0.00000000000E+00  0.00000000000E+00  0.11263893401E+04  0.11263893401E+04  0.00000000000E+00 0. -1.
         -4   -1    0    0    0  501 -0.00000000000E+00 -0.00000000000E+00 -0.43857265429E+03  0.43857265429E+03  0.00000000000E+00 0. -1.
   -9000010    2    1    2    0  502 -0.98069093520E+02  0.17505956769E+03  0.83460772643E+03  0.13163437728E+04  0.99796165844E+03 0.  0.
         13    1    3    3    0    0  0.61082618600E+02 -0.87752854206E+02 -0.20558389403E+03  0.23172483329E+03  0.10566000000E+00 0. -1.
         -4    1    3    3    0  502 -0.15915171212E+03  0.26281242190E+03  0.10401916205E+04  0.10846189395E+04  0.00000000000E+00 0. -1.
        -13    1    1    2    0    0  0.98069093520E+02 -0.17505956769E+03 -0.14679104063E+03  0.24861822161E+03  0.10566000000E+00 0.  1.
<mgrwt>
<rscale>  1 0.67827175E+03</rscale>
<asrwt>0</asrwt>
<pdfrwt beam="1">  1       21 0.17329067E+00 0.10179346E+04</pdfrwt>
<pdfrwt beam="2">  1       -4 0.67472717E-01 0.10179346E+04</pdfrwt>
<totfact> 0.14406910E+01</totfact>
</mgrwt>
</event>
<event>
 6    2  0.2267664E-005  0.9984122E+03  0.7818608E-02  0.9819711E-01
         -4   -1    0    0    0  501 -0.00000000000E+00  0.00000000000E+00  0.67961119918E+03  0.67961119918E+03  0.00000000000E+00 0. -1.
         21   -1    0    0  501  502  0.00000000000E+00 -0.00000000000E+00 -0.76941865969E+03  0.76941865969E+03  0.00000000000E+00 0. -1.
   -9000010    2    1    2    0  502 -0.16361463821E+03 -0.52793037709E+02 -0.41496982685E+03  0.10812154623E+04  0.98349888869E+03 0.  0.
         13    1    3    3    0    0  0.12227657676E+03 -0.42250414152E+03  0.23372204281E+02  0.44046291776E+03  0.10566000000E+00 0. -1.
         -4    1    3    3    0  502 -0.28589121498E+03  0.36971110381E+03 -0.43834203113E+03  0.64075254454E+03  0.00000000000E+00 0. -1.
        -13    1    1    2    0    0  0.16361463821E+03  0.52793037709E+02  0.32516236634E+03  0.36781439656E+03  0.10566000000E+00 0.  1.
<mgrwt>
<rscale>  1 0.64315360E+03</rscale>
<asrwt>0</asrwt>
<pdfrwt beam="2">  1       21 0.11837210E+00 0.99841220E+03</pdfrwt>
<pdfrwt beam="1">  1       -4 0.10455557E+00 0.99841220E+03</pdfrwt>
<totfact> 0.14901864E+01</totfact>
</mgrwt>
</event>
<event>
 6    2  0.2267664E-005  0.1299337E+04  0.7818608E-02  0.9147758E-01
         21   -1    0    0  501  502  0.00000000000E+00  0.00000000000E+00  0.98052384319E+03  0.98052384319E+03  0.00000000000E+00 0.  1.
         -4   -1    0    0    0  501 -0.00000000000E+00 -0.00000000000E+00 -0.11568439131E+04  0.11568439131E+04  0.00000000000E+00 0. -1.
   -9000010    2    1    2    0  502  0.10682937417E+03  0.82113796003E+03 -0.15998290447E+03  0.13091485952E+04  0.10012968841E+04 0.  0.
         13    1    3    3    0    0 -0.28098999519E+03  0.13601302625E+02  0.19844703024E+03  0.34426967308E+03  0.10566000000E+00 0. -1.
         -4    1    3    3    0  502  0.38781936936E+03  0.80753665740E+03 -0.35842993471E+03  0.96487892214E+03  0.00000000000E+00 0. -1.
        -13    1    1    2    0    0 -0.10682937417E+03 -0.82113796003E+03 -0.16337165416E+02  0.82821916104E+03  0.10566000000E+00 0.  1.
<mgrwt>
<rscale>  1 0.11609312E+04</rscale>
<asrwt>0</asrwt>
<pdfrwt beam="1">  1       21 0.15084982E+00 0.12993366E+04</pdfrwt>
<pdfrwt beam="2">  1       -4 0.17797599E+00 0.12993366E+04</pdfrwt>
<totfact> 0.18498119E+00</totfact>
</mgrwt>
</event>
<event>
 6    2  0.2267664E-005  0.1165903E+04  0.7818608E-02  0.9332403E-01
         -4   -1    0    0    0  501 -0.00000000000E+00  0.00000000000E+00  0.48840235017E+03  0.48840235017E+03  0.00000000000E+00 0. -1.
         21   -1    0    0  501  502  0.00000000000E+00 -0.00000000000E+00 -0.16276804677E+04  0.16276804677E+04  0.00000000000E+00 0. -1.
   -9000010    2    1    2    0  502  0.35635225351E+03  0.45574591439E+03 -0.96041737893E+03  0.15105397211E+04  0.10122437652E+04 0.  0.
         13    1    3    3    0    0 -0.47028468808E+02  0.69846096475E+02  0.20319313397E+03  0.21994911896E+03  0.10566000000E+00 0. -1.
         -4    1    3    3    0  502  0.40338072232E+03  0.38589981792E+03 -0.11636105129E+04  0.12905906021E+04  0.00000000000E+00 0. -1.
        -13    1    1    2    0    0 -0.35635225351E+03 -0.45574591439E+03 -0.17886073861E+03  0.60554309677E+03  0.10566000000E+00 0.  1.
<mgrwt>
<rscale>  1 0.97853696E+03</rscale>
<asrwt>0</asrwt>
<pdfrwt beam="2">  1       21 0.25041238E+00 0.11659025E+04</pdfrwt>
<pdfrwt beam="1">  1       -4 0.75138824E-01 0.11659025E+04</pdfrwt>
<totfact> 0.33242511E+00</totfact>
</mgrwt>
</event>
<event>
 6    2  0.2267664E-005  0.1010476E+04  0.7818608E-02  0.9990185E-01
         -4   -1    0    0    0  501 -0.00000000000E+00  0.00000000000E+00  0.30022004373E+03  0.30022004373E+03  0.00000000000E+00 0. -1.
         21   -1    0    0  501  502  0.00000000000E+00 -0.00000000000E+00 -0.10525082026E+04  0.10525082026E+04  0.00000000000E+00 0. -1.
   -9000010    2    1    2    0  502  0.76726387569E+02  0.57501822130E+02 -0.74716592421E+03  0.12567092558E+04  0.10059164166E+04 0.  0.
         13    1    3    3    0    0  0.49887143060E+03  0.45371497932E+02 -0.65475083866E+03  0.82439671820E+03  0.10566000000E+00 0. -1.
         -4    1    3    3    0  502 -0.42214504303E+03  0.12130324199E+02 -0.92415085559E+02  0.43231253759E+03  0.00000000000E+00 0. -1.
        -13    1    1    2    0    0 -0.76726387569E+02 -0.57501822130E+02 -0.51222346793E+01  0.96018990569E+02  0.10566000000E+00 0.  1.
<mgrwt>
<rscale>  1 0.56082710E+03</rscale>
<asrwt>0</asrwt>
<pdfrwt beam="2">  1       21 0.16192434E+00 0.10104757E+04</pdfrwt>
<pdfrwt beam="1">  1       -4 0.46187698E-01 0.10104757E+04</pdfrwt>
<totfact> 0.39717336E+01</totfact>
</mgrwt>
</event>
<event>
 6    2  0.2267664E-005  0.1024398E+04  0.7818608E-02  0.9757146E-01
         21   -1    0    0  501  502  0.00000000000E+00  0.00000000000E+00  0.77180641652E+03  0.77180641652E+03  0.00000000000E+00 0. -1.
         -4   -1    0    0    0  501 -0.00000000000E+00 -0.00000000000E+00 -0.80347830531E+03  0.80347830531E+03  0.00000000000E+00 0. -1.
   -9000010    2    1    2    0  502  0.17448619673E+03  0.88332435158E+02  0.40129629303E+03  0.11001957727E+04  0.10055565481E+04 0.  0.
         13    1    3    3    0    0  0.53593348972E+03 -0.14946958359E+03  0.81825882899E+02  0.56237118357E+03  0.10566000000E+00 0. -1.
         -4    1    3    3    0  502 -0.36144729299E+03  0.23780201875E+03  0.31947041013E+03  0.53782458914E+03  0.00000000000E+00 0. -1.
        -13    1    1    2    0    0 -0.17448619673E+03 -0.88332435158E+02 -0.43296818182E+03  0.47508894913E+03  0.10566000000E+00 0.  1.
<mgrwt>
<rscale>  1 0.67713902E+03</rscale>
<asrwt>0</asrwt>
<pdfrwt beam="1">  1       21 0.11873945E+00 0.10243984E+04</pdfrwt>
<pdfrwt beam="2">  1       -4 0.12361205E+00 0.10243984E+04</pdfrwt>
<totfact> 0.97273441E+00</totfact>
</mgrwt>
</event>
<event>
 6    2  0.2267664E-005  0.1018465E+04  0.7818608E-02  0.9669992E-01
         21   -1    0    0  501  502  0.00000000000E+00  0.00000000000E+00  0.29102508490E+03  0.29102508490E+03  0.00000000000E+00 0. -1.
         -4   -1    0    0    0  501 -0.00000000000E+00 -0.00000000000E+00 -0.18825542917E+04  0.18825542917E+04  0.00000000000E+00 0. -1.
   -9000010    2    1    2    0  502 -0.23769085733E+03  0.12018337700E+03 -0.68167529744E+03  0.12255418587E+04  0.98302118420E+03 0.  0.
         13    1    3    3    0    0 -0.16279670331E+03  0.24965070970E+03  0.18186364415E+03  0.34914558524E+03  0.10566000000E+00 0. -1.
         -4    1    3    3    0  502 -0.74894154014E+02 -0.12946733270E+03 -0.86353894159E+03  0.87639627349E+03  0.00000000000E+00 0. -1.
        -13    1    1    2    0    0  0.23769085733E+03 -0.12018337700E+03 -0.90985390941E+03  0.94803751792E+03  0.10566000000E+00 0.  1.
<mgrwt>
<rscale>  1 0.72831935E+03</rscale>
<asrwt>0</asrwt>
<pdfrwt beam="1">  1       21 0.44773091E-01 0.10184653E+04</pdfrwt>
<pdfrwt beam="2">  1       -4 0.28962373E+00 0.10184653E+04</pdfrwt>
<totfact> 0.68534130E+00</totfact>
</mgrwt>
</event>
<event>
 6    2  0.2267664E-005  0.1002558E+04  0.7818608E-02  0.1034661E+00
         21   -1    0    0  501  502  0.00000000000E+00  0.00000000000E+00  0.32087124340E+03  0.32087124340E+03  0.00000000000E+00 0. -1.
         -4   -1    0    0    0  501 -0.00000000000E+00 -0.00000000000E+00 -0.89747976509E+03  0.89747976509E+03  0.00000000000E+00 0. -1.
   -9000010    2    1    2    0  502 -0.29457074881E+02  0.15175682377E+02 -0.47103310455E+03  0.11076974931E+04  0.10020097455E+04 0.  0.
         13    1    3    3    0    0 -0.14443245052E+03 -0.11882519974E+03  0.27970561037E+03  0.33647496265E+03  0.10566000000E+00 0. -1.
         -4    1    3    3    0  502  0.11497537564E+03  0.13400088211E+03 -0.75073871492E+03  0.77122253046E+03  0.00000000000E+00 0. -1.
        -13    1    1    2    0    0  0.29457074881E+02 -0.15175682377E+02 -0.10557541714E+03  0.11065351538E+03  0.10566000000E+00 0.  1.
<mgrwt>
<rscale>  1 0.42747314E+03</rscale>
<asrwt>0</asrwt>
<pdfrwt beam="1">  1       21 0.49364807E-01 0.10025575E+04</pdfrwt>
<pdfrwt beam="2">  1       -4 0.13807381E+00 0.10025575E+04</pdfrwt>
<totfact> 0.57486289E+01</totfact>
</mgrwt>
</event>
<event>
 6    2  0.2267664E-005  0.1009821E+04  0.7818608E-02  0.9957843E-01
         21   -1    0    0  501  502  0.00000000000E+00  0.00000000000E+00  0.29689883988E+03  0.29689883988E+03  0.00000000000E+00 0. -1.
         -4   -1    0    0    0  501 -0.00000000000E+00 -0.00000000000E+00 -0.10644508142E+04  0.10644508142E+04  0.00000000000E+00 0. -1.
   -9000010    2    1    2    0  502 -0.95909828396E+02 -0.46149489221E+02 -0.64141767749E+03  0.11963092271E+04  0.10041965242E+04 0.  0.
         13    1    3    3    0    0  0.32575060258E+03  0.14915414014E+03 -0.63787131044E+03  0.73160114301E+03  0.10566000000E+00 0. -1.
         -4    1    3    3    0  502 -0.42166043098E+03 -0.19530362936E+03 -0.35463670523E+01  0.46470808408E+03  0.00000000000E+00 0. -1.
        -13    1    1    2    0    0  0.95909828396E+02  0.46149489221E+02 -0.12613429679E+03  0.16504042696E+03  0.10566000000E+00 0.  1.
<mgrwt>
<rscale>  1 0.57538014E+03</rscale>
<asrwt>0</asrwt>
<pdfrwt beam="1">  1       21 0.45676745E-01 0.10098213E+04</pdfrwt>
<pdfrwt beam="2">  1       -4 0.16376166E+00 0.10098213E+04</pdfrwt>
<totfact> 0.42865131E+01</totfact>
</mgrwt>
</event>
<event>
 6    2  0.2267664E-005  0.9991897E+03  0.7818608E-02  0.9813830E-01
         -4   -1    0    0    0  501 -0.00000000000E+00  0.00000000000E+00  0.47149195936E+03  0.47149195936E+03  0.00000000000E+00 0. -1.
         21   -1    0    0  501  502  0.00000000000E+00 -0.00000000000E+00 -0.21763049876E+04  0.21763049876E+04  0.00000000000E+00 0. -1.
   -9000010    2    1    2    0  502  0.17431349802E+03  0.13730441809E+02 -0.20389828414E+04  0.22706455241E+04  0.98377149179E+03 0.  0.
         13    1    3    3    0    0  0.12382067870E+03  0.46216393976E+03 -0.14610612964E+04  0.15374092463E+04  0.10566000000E+00 0. -1.
         -4    1    3    3    0  502  0.50492819316E+02 -0.44843349795E+03 -0.57792154494E+03  0.73323627774E+03  0.00000000000E+00 0. -1.
        -13    1    1    2    0    0 -0.17431349802E+03 -0.13730441809E+02  0.33416981311E+03  0.37715142288E+03  0.10566000000E+00 0.  1.
<mgrwt>
<rscale>  1 0.64625590E+03</rscale>
<asrwt>0</asrwt>
<pdfrwt beam="2">  1       21 0.33481616E+00 0.99918971E+03</pdfrwt>
<pdfrwt beam="1">  1       -4 0.72537223E-01 0.99918971E+03</pdfrwt>
<totfact> 0.10968603E+00</totfact>
</mgrwt>
</event>
<event>
 6    2  0.2267664E-005  0.1211524E+04  0.7818608E-02  0.9257315E-01
         -4   -1    0    0    0  501 -0.00000000000E+00  0.00000000000E+00  0.66588342049E+03  0.66588342049E+03  0.00000000000E+00 0. -1.
         21   -1    0    0  501  502  0.00000000000E+00 -0.00000000000E+00 -0.21019558252E+04  0.21019558252E+04  0.00000000000E+00 0. -1.
   -9000010    2    1    2    0  502 -0.50577000391E+03  0.45240722733E+03 -0.16583695870E+04  0.20537722708E+04  0.10036509639E+04 0.  0.
         13    1    3    3    0    0 -0.43415103707E+03  0.75379800284E+03 -0.14098817306E+04  0.16566427067E+04  0.10566000000E+00 0. -1.
         -4    1    3    3    0  502 -0.71618966844E+02 -0.30139077551E+03 -0.24848785635E+03  0.39712956416E+03  0.00000000000E+00 0. -1.
        -13    1    1    2    0    0  0.50577000391E+03 -0.45240722733E+03  0.22229718225E+03  0.71406697487E+03  0.10566000000E+00 0.  1.
<mgrwt>
<rscale>  1 0.10480932E+04</rscale>
<asrwt>0</asrwt>
<pdfrwt beam="2">  1       21 0.32337781E+00 0.12115242E+04</pdfrwt>
<pdfrwt beam="1">  1       -4 0.10244361E+00 0.12115242E+04</pdfrwt>
<totfact> 0.55378218E-01</totfact>
</mgrwt>
</event>
<event>
 6    2  0.2267664E-005  0.1018452E+04  0.7818608E-02  0.9771165E-01
         21   -1    0    0  501  502  0.00000000000E+00  0.00000000000E+00  0.36103668406E+04  0.36103668406E+04  0.00000000000E+00 0. -1.
         -4   -1    0    0    0  501 -0.00000000000E+00 -0.00000000000E+00 -0.10430194492E+03  0.10430194492E+03  0.00000000000E+00 0. -1.
   -9000010    2    1    2    0  502 -0.18940097927E+03  0.15023900228E+02  0.31574666424E+04  0.33176559370E+04  0.10005732707E+04 0.  0.
         13    1    3    3    0    0 -0.22404032733E+03  0.31870231875E+03  0.45943510700E+03  0.60236688567E+03  0.10566000000E+00 0. -1.
         -4    1    3    3    0  502  0.34639348057E+02 -0.30367841853E+03  0.26980315354E+04  0.27152890514E+04  0.00000000000E+00 0. -1.
        -13    1    1    2    0    0  0.18940097927E+03 -0.15023900228E+02  0.34859825329E+03  0.39701284851E+03  0.10566000000E+00 0.  1.
<mgrwt>
<rscale>  1 0.66933208E+03</rscale>
<asrwt>0</asrwt>
<pdfrwt beam="1">  1       21 0.55544096E+00 0.10184524E+04</pdfrwt>
<pdfrwt beam="2">  1       -4 0.16046456E-01 0.10184524E+04</pdfrwt>
<totfact> 0.69235883E-01</totfact>
</mgrwt>
</event>
<event>
 6    2  0.2267664E-005  0.1006843E+04  0.7818608E-02  0.9893936E-01
         21   -1    0    0  501  502  0.00000000000E+00  0.00000000000E+00  0.19148799140E+04  0.19148799140E+04  0.00000000000E+00 0. -1.
         -4   -1    0    0    0  501 -0.00000000000E+00 -0.00000000000E+00 -0.24498396387E+03  0.24498396387E+03  0.00000000000E+00 0. -1.
   -9000010    2    1    2    0  502 -0.54827744770E+02  0.11979805346E+03  0.17402382448E+04  0.20105129328E+04  0.99818607927E+03 0.  0.
         13    1    3    3    0    0 -0.40924707203E+02  0.51501170897E+03  0.54235027972E+03  0.74903653390E+03  0.10566000000E+00 0. -1.
         -4    1    3    3    0  502 -0.13903037568E+02 -0.39521365551E+03  0.11978879651E+04  0.12614763989E+04  0.00000000000E+00 0. -1.
        -13    1    1    2    0    0  0.54827744770E+02 -0.11979805346E+03 -0.70342294718E+02  0.14935094509E+03  0.10566000000E+00 0.  1.
<mgrwt>
<rscale>  1 0.60556083E+03</rscale>
<asrwt>0</asrwt>
<pdfrwt beam="1">  1       21 0.29459690E+00 0.10068431E+04</pdfrwt>
<pdfrwt beam="2">  1       -4 0.37689842E-01 0.10068431E+04</pdfrwt>
<totfact> 0.78687405E+00</totfact>
</mgrwt>
</event>
<event>
 6    2  0.2267664E-005  0.1027496E+04  0.7818608E-02  0.9734203E-01
         -4   -1    0    0    0  501 -0.00000000000E+00  0.00000000000E+00  0.90610911438E+03  0.90610911438E+03  0.00000000000E+00 0. -1.
         21   -1    0    0  501  502  0.00000000000E+00 -0.00000000000E+00 -0.42233293937E+03  0.42233293937E+03  0.00000000000E+00 0. -1.
   -9000010    2    1    2    0  502 -0.19964740038E+03  0.62344622428E+02  0.38667190755E+03  0.10978445985E+04  0.10059829333E+04 0.  0.
         13    1    3    3    0    0 -0.33050728495E+03  0.30387878077E+03  0.60045932460E+03  0.74975248614E+03  0.10566000000E+00 0. -1.
         -4    1    3    3    0  502  0.13085988456E+03 -0.24153415834E+03 -0.21378741706E+03  0.34809211241E+03  0.00000000000E+00 0. -1.
        -13    1    1    2    0    0  0.19964740038E+03 -0.62344622428E+02  0.97104267465E+02  0.23059745521E+03  0.10566000000E+00 0.  1.
<mgrwt>
<rscale>  1 0.69016394E+03</rscale>
<asrwt>0</asrwt>
<pdfrwt beam="2">  1       21 0.64974299E-01 0.10274958E+04</pdfrwt>
<pdfrwt beam="1">  1       -4 0.13940140E+00 0.10274958E+04</pdfrwt>
<totfact> 0.30499438E+01</totfact>
</mgrwt>
</event>
<event>
 6    2  0.2267664E-005  0.1051040E+04  0.7818608E-02  0.9578408E-01
         -4   -1    0    0    0  501 -0.00000000000E+00  0.00000000000E+00  0.84944923454E+03  0.84944923454E+03  0.00000000000E+00 0. -1.
         21   -1    0    0  501  502  0.00000000000E+00 -0.00000000000E+00 -0.62611600665E+03  0.62611600665E+03  0.00000000000E+00 0. -1.
   -9000010    2    1    2    0  502  0.27873337857E+03 -0.17871392172E+03 -0.41071866396E+02  0.10518424224E+04  0.99752424588E+03 0.  0.
         13    1    3    3    0    0  0.57991527462E+03  0.13298791036E+03  0.83641963836E+02  0.60081902376E+03  0.10566000000E+00 0. -1.
         -4    1    3    3    0  502 -0.30118189604E+03 -0.31170183208E+03 -0.12471383023E+03  0.45102339859E+03  0.00000000000E+00 0. -1.
        -13    1    1    2    0    0 -0.27873337857E+03  0.17871392172E+03  0.26440509429E+03  0.42372281883E+03  0.10566000000E+00 0.  1.
<mgrwt>
<rscale>  1 0.78741950E+03</rscale>
<asrwt>0</asrwt>
<pdfrwt beam="2">  1       21 0.96325540E-01 0.10510402E+04</pdfrwt>
<pdfrwt beam="1">  1       -4 0.13068450E+00 0.10510402E+04</pdfrwt>
<totfact> 0.14252909E+01</totfact>
</mgrwt>
</event>
<event>
 6    2  0.2267664E-005  0.1134758E+04  0.7818608E-02  0.9393002E-01
         21   -1    0    0  501  502  0.00000000000E+00  0.00000000000E+00  0.40453429279E+03  0.40453429279E+03  0.00000000000E+00 0. -1.
         -4   -1    0    0    0  501 -0.00000000000E+00 -0.00000000000E+00 -0.21987341111E+04  0.21987341111E+04  0.00000000000E+00 0. -1.
   -9000010    2    1    2    0  502 -0.23703304300E+03 -0.44519309341E+03 -0.55059979142E+03  0.12612838317E+04  0.10165112985E+04 0.  0.
         13    1    3    3    0    0  0.16357535552E+03 -0.65943760537E+03 -0.35628256005E+03  0.76717151021E+03  0.10566000000E+00 0. -1.
         -4    1    3    3    0  502 -0.40060839852E+03  0.21424451196E+03 -0.19431723136E+03  0.49411232152E+03  0.00000000000E+00 0. -1.
        -13    1    1    2    0    0  0.23703304300E+03  0.44519309341E+03 -0.12436000269E+04  0.13419845722E+04  0.10566000000E+00 0.  1.
<mgrwt>
<rscale>  1 0.92653809E+03</rscale>
<asrwt>0</asrwt>
<pdfrwt beam="1">  1       21 0.62236044E-01 0.11347585E+04</pdfrwt>
<pdfrwt beam="2">  1       -4 0.33826679E+00 0.11347585E+04</pdfrwt>
<totfact> 0.16267529E+00</totfact>
</mgrwt>
</event>
<event>
 6    2  0.2267664E-005  0.1050671E+04  0.7818608E-02  0.9606527E-01
         -4   -1    0    0    0  501 -0.00000000000E+00  0.00000000000E+00  0.95327153478E+03  0.95327153478E+03  0.00000000000E+00 0. -1.
         21   -1    0    0  501  502  0.00000000000E+00 -0.00000000000E+00 -0.71449176627E+03  0.71449176627E+03  0.00000000000E+00 0. -1.
   -9000010    2    1    2    0  502 -0.16320212692E+03  0.25288531560E+03 -0.26259378746E+03  0.10829886685E+04  0.10066394796E+04 0.  0.
         13    1    3    3    0    0 -0.20885729739E+03  0.25004711136E+03  0.34450965330E+03  0.47416436069E+03  0.10566000000E+00 0. -1.
         -4    1    3    3    0  502  0.45655170477E+02  0.28382042453E+01 -0.60710344076E+03  0.60882430781E+03  0.00000000000E+00 0. -1.
        -13    1    1    2    0    0  0.16320212692E+03 -0.25288531560E+03  0.50137355598E+03  0.58477463255E+03  0.10566000000E+00 0.  1.
<mgrwt>
<rscale>  1 0.76865696E+03</rscale>
<asrwt>0</asrwt>
<pdfrwt beam="2">  1       21 0.10992181E+00 0.10506707E+04</pdfrwt>
<pdfrwt beam="1">  1       -4 0.14665716E+00 0.10506707E+04</pdfrwt>
<totfact> 0.75730991E+00</totfact>
</mgrwt>
</event>
<event>
 6    2  0.2267664E-005  0.1044937E+04  0.7818608E-02  0.9700000E-01
         -4   -1    0    0    0  501 -0.00000000000E+00  0.00000000000E+00  0.49280439932E+03  0.49280439932E+03  0.00000000000E+00 0. -1.
         21   -1    0    0  501  502  0.00000000000E+00 -0.00000000000E+00 -0.17078055440E+04  0.17078055440E+04  0.00000000000E+00 0. -1.
   -9000010    2    1    2    0  502  0.14463220400E+02 -0.22246284151E+03 -0.15066320208E+04  0.18335302794E+04  0.10208791989E+04 0.  0.
         13    1    3    3    0    0 -0.45389114807E+03 -0.25943384552E+03 -0.10756990907E+04  0.11960148993E+04  0.10566000000E+00 0. -1.
         -4    1    3    3    0  502  0.46835436847E+03  0.36971004004E+02 -0.43093293011E+03  0.63751538009E+03  0.00000000000E+00 0. -1.
        -13    1    1    2    0    0 -0.14463220400E+02  0.22246284151E+03  0.29163087611E+03  0.36707966392E+03  0.10566000000E+00 0.  1.
<mgrwt>
<rscale>  1 0.71016772E+03</rscale>
<asrwt>0</asrwt>
<pdfrwt beam="2">  1       21 0.26273930E+00 0.10449370E+04</pdfrwt>
<pdfrwt beam="1">  1       -4 0.75816064E-01 0.10449370E+04</pdfrwt>
<totfact> 0.27714208E+00</totfact>
</mgrwt>
</event>
<event>
 6    2  0.2267664E-005  0.1158824E+04  0.7818608E-02  0.9331112E-01
         21   -1    0    0  501  502  0.00000000000E+00  0.00000000000E+00  0.44624969195E+03  0.44624969195E+03  0.00000000000E+00 0.  1.
         -4   -1    0    0    0  501 -0.00000000000E+00 -0.00000000000E+00 -0.22783943994E+04  0.22783943994E+04  0.00000000000E+00 0. -1.
   -9000010    2    1    2    0  502  0.15340624117E+03  0.57173587810E+03 -0.49077836534E+03  0.12584657038E+04  0.99622142855E+03 0.  0.
         13    1    3    3    0    0  0.91347797949E+02  0.42458973369E+03 -0.80008756447E+03  0.91036310565E+03  0.10566000000E+00 0. -1.
         -4    1    3    3    0  502  0.62058443223E+02  0.14714614441E+03  0.30930919914E+03  0.34810259818E+03  0.00000000000E+00 0. -1.
        -13    1    1    2    0    0 -0.15340624117E+03 -0.57173587810E+03 -0.13413663421E+04  0.14661783875E+04  0.10566000000E+00 0.  1.
<mgrwt>
<rscale>  1 0.97968384E+03</rscale>
<asrwt>0</asrwt>
<pdfrwt beam="1">  1       21 0.68653798E-01 0.11588238E+04</pdfrwt>
<pdfrwt beam="2">  1       -4 0.35052222E+00 0.11588238E+04</pdfrwt>
<totfact> 0.10813202E+00</totfact>
</mgrwt>
</event>
<event>
 6    2  0.2267664E-005  0.1018649E+04  0.7818608E-02  0.9783377E-01
         21   -1    0    0  501  502  0.00000000000E+00  0.00000000000E+00  0.47970739537E+03  0.47970739537E+03  0.00000000000E+00 0. -1.
         -4   -1    0    0    0  501 -0.00000000000E+00 -0.00000000000E+00 -0.76124424089E+03  0.76124424089E+03  0.00000000000E+00 0. -1.
   -9000010    2    1    2    0  502 -0.15240957160E+03 -0.10018069544E+03 -0.18754252581E+03  0.10357692965E+04  0.10021880998E+04 0.  0.
         13    1    3    3    0    0 -0.19041782523E+02 -0.25886109244E+02 -0.59747165648E+03  0.59833525017E+03  0.10566000000E+00 0. -1.
         -4    1    3    3    0  502 -0.13336778908E+03 -0.74294586196E+02  0.40992913067E+03  0.43743404632E+03  0.00000000000E+00 0. -1.
        -13    1    1    2    0    0  0.15240957160E+03  0.10018069544E+03 -0.93994319711E+02  0.20518233978E+03  0.10566000000E+00 0.  1.
<mgrwt>
<rscale>  1 0.66262321E+03</rscale>
<asrwt>0</asrwt>
<pdfrwt beam="1">  1       21 0.73801138E-01 0.10186490E+04</pdfrwt>
<pdfrwt beam="2">  1       -4 0.11711450E+00 0.10186490E+04</pdfrwt>
<totfact> 0.35624762E+01</totfact>
</mgrwt>
</event>
<event>
 6    2  0.2267664E-005  0.1063356E+04  0.7818608E-02  0.9546091E-01
         21   -1    0    0  501  502  0.00000000000E+00  0.00000000000E+00  0.14417683284E+04  0.14417683284E+04  0.00000000000E+00 0. -1.
         -4   -1    0    0    0  501 -0.00000000000E+00 -0.00000000000E+00 -0.42264042065E+03  0.42264042065E+03  0.00000000000E+00 0. -1.
   -9000010    2    1    2    0  502 -0.34159404091E+03 -0.10537102331E+03  0.10638305779E+04  0.15041478975E+04  0.10014668530E+04 0.  0.
         13    1    3    3    0    0 -0.45141866368E+03 -0.48814821405E+03  0.64938241379E+03  0.92938959500E+03  0.10566000000E+00 0. -1.
         -4    1    3    3    0  502  0.10982462277E+03  0.38277719075E+03  0.41444816411E+03  0.57475830246E+03  0.00000000000E+00 0. -1.
        -13    1    1    2    0    0  0.34159404091E+03  0.10537102331E+03 -0.44702670100E+02  0.36026085163E+03  0.10566000000E+00 0.  1.
<mgrwt>
<rscale>  1 0.80969387E+03</rscale>
<asrwt>0</asrwt>
<pdfrwt beam="1">  1       21 0.22181051E+00 0.10633557E+04</pdfrwt>
<pdfrwt beam="2">  1       -4 0.65021604E-01 0.10633557E+04</pdfrwt>
<totfact> 0.71486767E+00</totfact>
</mgrwt>
</event>
<event>
 6    2  0.2267664E-005  0.1044400E+04  0.7818608E-02  0.9700941E-01
         -4   -1    0    0    0  501 -0.00000000000E+00  0.00000000000E+00  0.33886004958E+03  0.33886004958E+03  0.00000000000E+00 0. -1.
         21   -1    0    0  501  502  0.00000000000E+00 -0.00000000000E+00 -0.11951238040E+04  0.11951238040E+04  0.00000000000E+00 0. -1.
   -9000010    2    1    2    0  502  0.49500248421E+02  0.21699916253E+03 -0.64753592125E+03  0.12288507177E+04  0.10204079605E+04 0.  0.
         13    1    3    3    0    0 -0.23285317855E+03  0.45668069418E+03 -0.68613334082E+03  0.85647932359E+03  0.10566000000E+00 0. -1.
         -4    1    3    3    0  502  0.28235342697E+03 -0.23968153165E+03  0.38597419573E+02  0.37237139409E+03  0.00000000000E+00 0. -1.
        -13    1    1    2    0    0 -0.49500248421E+02 -0.21699916253E+03 -0.20872783320E+03  0.30513313594E+03  0.10566000000E+00 0.  1.
<mgrwt>
<rscale>  1 0.70960802E+03</rscale>
<asrwt>0</asrwt>
<pdfrwt beam="2">  1       21 0.18386520E+00 0.10444000E+04</pdfrwt>
<pdfrwt beam="1">  1       -4 0.52132315E-01 0.10444000E+04</pdfrwt>
<totfact> 0.21070301E+01</totfact>
</mgrwt>
</event>
<event>
 6    2  0.2267664E-005  0.1007475E+04  0.7818608E-02  0.1005753E+00
         -4   -1    0    0    0  501 -0.00000000000E+00  0.00000000000E+00  0.43691912071E+03  0.43691912071E+03  0.00000000000E+00 0. -1.
         21   -1    0    0  501  502  0.00000000000E+00 -0.00000000000E+00 -0.82396948035E+03  0.82396948035E+03  0.00000000000E+00 0. -1.
   -9000010    2    1    2    0  502 -0.64723837090E+02 -0.44101578267E+02 -0.49898532066E+03  0.11242739205E+04  0.10044258926E+04 0.  0.
         13    1    3    3    0    0  0.25599125627E+03  0.33508253212E+03 -0.46315146970E+03  0.62635542759E+03  0.10566000000E+00 0. -1.
         -4    1    3    3    0  502 -0.32071509336E+03 -0.37918411039E+03 -0.35833850955E+02  0.49791849288E+03  0.00000000000E+00 0. -1.
        -13    1    1    2    0    0  0.64723837090E+02  0.44101578267E+02  0.11193496101E+03  0.13661468059E+03  0.10566000000E+00 0.  1.
<mgrwt>
<rscale>  1 0.53197940E+03</rscale>
<asrwt>0</asrwt>
<pdfrwt beam="2">  1       21 0.12676453E+00 0.10074748E+04</pdfrwt>
<pdfrwt beam="1">  1       -4 0.67218327E-01 0.10074748E+04</pdfrwt>
<totfact> 0.34721459E+01</totfact>
</mgrwt>
</event>
<event>
 6    2  0.2267664E-005  0.9977522E+03  0.7818608E-02  0.1057497E+00
         -4   -1    0    0    0  501 -0.00000000000E+00  0.00000000000E+00  0.16601381903E+03  0.16601381903E+03  0.00000000000E+00 0. -1.
         21   -1    0    0  501  502  0.00000000000E+00 -0.00000000000E+00 -0.16763681034E+04  0.16763681034E+04  0.00000000000E+00 0. -1.
   -9000010    2    1    2    0  502  0.26251810927E+01  0.17235174644E+02 -0.15230839476E+04  0.18207949284E+04  0.99759987815E+03 0.  0.
         13    1    3    3    0    0  0.10804857188E+03  0.31808095998E+03 -0.83249607991E+02  0.34609319465E+03  0.10566000000E+00 0. -1.
         -4    1    3    3    0  502 -0.10542339079E+03 -0.30084578534E+03 -0.14398343396E+04  0.14747017337E+04  0.00000000000E+00 0. -1.
        -13    1    1    2    0    0 -0.26251810927E+01 -0.17235174644E+02  0.12729663259E+02  0.21586994036E+02  0.10566000000E+00 0.  1.
<mgrwt>
<rscale>  1 0.36275884E+03</rscale>
<asrwt>0</asrwt>
<pdfrwt beam="2">  1       21 0.25790280E+00 0.99775220E+03</pdfrwt>
<pdfrwt beam="1">  1       -4 0.25540586E-01 0.99775220E+03</pdfrwt>
<totfact> 0.28732317E+01</totfact>
</mgrwt>
</event>
<event>
 6    2  0.2267664E-005  0.9894404E+03  0.7818608E-02  0.9813582E-01
         -4   -1    0    0    0  501 -0.00000000000E+00  0.00000000000E+00  0.39054172219E+03  0.39054172219E+03  0.00000000000E+00 0. -1.
         21   -1    0    0  501  502  0.00000000000E+00 -0.00000000000E+00 -0.10192796503E+04  0.10192796503E+04  0.00000000000E+00 0. -1.
   -9000010    2    1    2    0  502  0.67056402144E+02  0.16727975812E+03 -0.70418989437E+03  0.12144445855E+04  0.97288908172E+03 0.  0.
         13    1    3    3    0    0  0.29091738864E+03  0.15372312357E+03 -0.87351557068E+03  0.93343087003E+03  0.10566000000E+00 0. -1.
         -4    1    3    3    0  502 -0.22386098649E+03  0.13556634544E+02  0.16932567631E+03  0.28101371545E+03  0.00000000000E+00 0. -1.
        -13    1    1    2    0    0 -0.67056402144E+02 -0.16727975812E+03  0.75451966218E+02  0.19537678704E+03  0.10566000000E+00 0.  1.
<mgrwt>
<rscale>  1 0.64638713E+03</rscale>
<asrwt>0</asrwt>
<pdfrwt beam="2">  1       21 0.15681225E+00 0.98944037E+03</pdfrwt>
<pdfrwt beam="1">  1       -4 0.60083342E-01 0.98944037E+03</pdfrwt>
<totfact> 0.24914369E+01</totfact>
</mgrwt>
</event>
<event>
 6    2  0.2267664E-005  0.1111673E+04  0.7818608E-02  0.9408946E-01
         -4   -1    0    0    0  501 -0.00000000000E+00  0.00000000000E+00  0.28080739837E+03  0.28080739837E+03  0.00000000000E+00 0. -1.
         21   -1    0    0  501  502  0.00000000000E+00 -0.00000000000E+00 -0.23455002440E+04  0.23455002440E+04  0.00000000000E+00 0. -1.
   -9000010    2    1    2    0  502 -0.36526636594E+03  0.35121184758E+03 -0.15089293197E+04  0.18742156347E+04  0.98946817724E+03 0.  0.
         13    1    3    3    0    0 -0.12513653495E+03  0.65461558054E+03 -0.12240335952E+04  0.13937140898E+04  0.10566000000E+00 0. -1.
         -4    1    3    3    0  502 -0.24012983099E+03 -0.30340373296E+03 -0.28489572447E+03  0.48050154498E+03  0.00000000000E+00 0. -1.
        -13    1    1    2    0    0  0.36526636594E+03 -0.35121184758E+03 -0.55576352593E+03  0.75209200760E+03  0.10566000000E+00 0.  1.
<mgrwt>
<rscale>  1 0.91343077E+03</rscale>
<asrwt>0</asrwt>
<pdfrwt beam="2">  1       21 0.36084620E+00 0.11116729E+04</pdfrwt>
<pdfrwt beam="1">  1       -4 0.43201138E-01 0.11116729E+04</pdfrwt>
<totfact> 0.22443079E+00</totfact>
</mgrwt>
</event>
<event>
 6    2  0.2267664E-005  0.1109996E+04  0.7818608E-02  0.9421664E-01
         21   -1    0    0  501  502  0.00000000000E+00  0.00000000000E+00  0.76473356581E+03  0.76473356581E+03  0.00000000000E+00 0.  1.
         -4   -1    0    0    0  501 -0.00000000000E+00 -0.00000000000E+00 -0.89732514447E+03  0.89732514447E+03  0.00000000000E+00 0. -1.
   -9000010    2    1    2    0  502 -0.22929939744E+03 -0.42904201165E+03 -0.29615645757E+03  0.11488250966E+04  0.99771498626E+03 0.  0.
         13    1    3    3    0    0  0.22779509707E+03  0.76633403512E+02 -0.39266552379E+03  0.46037974491E+03  0.10566000000E+00 0. -1.
         -4    1    3    3    0  502 -0.45709449452E+03 -0.50567541516E+03  0.96509066220E+02  0.68844535170E+03  0.00000000000E+00 0. -1.
        -13    1    1    2    0    0  0.22929939744E+03  0.42904201165E+03  0.16356487890E+03  0.51323361367E+03  0.10566000000E+00 0.  1.
<mgrwt>
<rscale>  1 0.90314098E+03</rscale>
<asrwt>0</asrwt>
<pdfrwt beam="1">  1       21 0.11765132E+00 0.11099957E+04</pdfrwt>
<pdfrwt beam="2">  1       -4 0.13805002E+00 0.11099957E+04</pdfrwt>
<totfact> 0.74238422E+00</totfact>
</mgrwt>
</event>
<event>
 6    2  0.2267664E-005  0.1010949E+04  0.7818608E-02  0.9931580E-01
         21   -1    0    0  501  502  0.00000000000E+00  0.00000000000E+00  0.46702809583E+03  0.46702809583E+03  0.00000000000E+00 0. -1.
         -4   -1    0    0    0  501 -0.00000000000E+00 -0.00000000000E+00 -0.94203714357E+03  0.94203714357E+03  0.00000000000E+00 0. -1.
   -9000010    2    1    2    0  502  0.95613193595E+02 -0.64513161597E+02 -0.99025670244E+02  0.10157875485E+04  0.10043477633E+04 0.  0.
         13    1    3    3    0    0  0.31689443757E+03 -0.36708267520E+03  0.21146458618E+03  0.52904542089E+03  0.10566000000E+00 0. -1.
         -4    1    3    3    0  502 -0.22128124397E+03  0.30256951360E+03 -0.31049025643E+03  0.48674212765E+03  0.00000000000E+00 0. -1.
        -13    1    1    2    0    0 -0.95613193595E+02  0.64513161597E+02 -0.37598337750E+03  0.39327769086E+03  0.10566000000E+00 0.  1.
<mgrwt>
<rscale>  1 0.58754905E+03</rscale>
<asrwt>0</asrwt>
<pdfrwt beam="1">  1       21 0.71850477E-01 0.10109492E+04</pdfrwt>
<pdfrwt beam="2">  1       -4 0.14492879E+00 0.10109492E+04</pdfrwt>
<totfact> 0.21906524E+01</totfact>
</mgrwt>
</event>
<event>
 6    2  0.2267664E-005  0.1299791E+04  0.7818608E-02  0.9149842E-01
         -4   -1    0    0    0  501 -0.00000000000E+00  0.00000000000E+00  0.11924126934E+04  0.11924126934E+04  0.00000000000E+00 0. -1.
         21   -1    0    0  501  502  0.00000000000E+00 -0.00000000000E+00 -0.94675580936E+03  0.94675580936E+03  0.00000000000E+00 0.  1.
   -9000010    2    1    2    0  502  0.81261455255E+03  0.11493111855E+03  0.21842033296E+03  0.13180147937E+04  0.10079206227E+04 0.  0.
         13    1    3    3    0    0 -0.16477338578E+03  0.66943090512E+02 -0.18764939400E+03  0.25854197389E+03  0.10566000000E+00 0. -1.
         -4    1    3    3    0  502  0.97738793833E+03  0.47988028043E+02  0.40606972695E+03  0.10594728198E+04  0.00000000000E+00 0. -1.
        -13    1    1    2    0    0 -0.81261455255E+03 -0.11493111855E+03  0.27236551123E+02  0.82115370906E+03  0.10566000000E+00 0.  1.
<mgrwt>
<rscale>  1 0.11586478E+04</rscale>
<asrwt>0</asrwt>
<pdfrwt beam="2">  1       21 0.14565474E+00 0.12997906E+04</pdfrwt>
<pdfrwt beam="1">  1       -4 0.18344811E+00 0.12997906E+04</pdfrwt>
<totfact> 0.18676961E+00</totfact>
</mgrwt>
</event>
<event>
 6    2  0.2267664E-005  0.1251205E+04  0.7818608E-02  0.9199670E-01
         21   -1    0    0  501  502  0.00000000000E+00  0.00000000000E+00  0.13713354041E+04  0.13713354041E+04  0.00000000000E+00 0.  1.
         -4   -1    0    0    0  501 -0.00000000000E+00 -0.00000000000E+00 -0.81905316467E+03  0.81905316467E+03  0.00000000000E+00 0. -1.
   -9000010    2    1    2    0  502  0.30252193798E+03 -0.70048892981E+03  0.66845554150E+03  0.14185721974E+04  0.99161988914E+03 0.  0.
         13    1    3    3    0    0 -0.11051836375E+02 -0.53338904491E+03  0.86216573840E+03  0.10138815453E+04  0.10566000000E+00 0. -1.
         -4    1    3    3    0  502  0.31357377436E+03 -0.16709988490E+03 -0.19371019690E+03  0.40469065208E+03  0.00000000000E+00 0. -1.
        -13    1    1    2    0    0 -0.30252193798E+03  0.70048892981E+03 -0.11617330212E+03  0.77181637132E+03  0.10566000000E+00 0.  1.
<mgrwt>
<rscale>  1 0.11056835E+04</rscale>
<asrwt>0</asrwt>
<pdfrwt beam="1">  1       21 0.21097468E+00 0.12512051E+04</pdfrwt>
<pdfrwt beam="2">  1       -4 0.12600818E+00 0.12512051E+04</pdfrwt>
<totfact> 0.17166348E+00</totfact>
</mgrwt>
</event>
<event>
 6    2  0.2267664E-005  0.1183566E+04  0.7818608E-02  0.9293954E-01
         21   -1    0    0  501  502  0.00000000000E+00  0.00000000000E+00  0.65674761321E+03  0.65674761321E+03  0.00000000000E+00 0. -1.
         -4   -1    0    0    0  501 -0.00000000000E+00 -0.00000000000E+00 -0.13537141563E+04  0.13537141563E+04  0.00000000000E+00 0. -1.
   -9000010    2    1    2    0  502 -0.14068728835E+03  0.62041388986E+03 -0.69846757352E+03  0.13742946750E+04  0.99805941436E+03 0.  0.
         13    1    3    3    0    0  0.39672248484E+02  0.20804877394E+03  0.24807720361E+03  0.32619087933E+03  0.10566000000E+00 0. -1.
         -4    1    3    3    0  502 -0.18035953684E+03  0.41236511592E+03 -0.94654477714E+03  0.10481037957E+04  0.00000000000E+00 0. -1.
        -13    1    1    2    0    0  0.14068728835E+03 -0.62041388986E+03  0.15010304770E+01  0.63616709447E+03  0.10566000000E+00 0.  1.
<mgrwt>
<rscale>  1 0.10134141E+04</rscale>
<asrwt>0</asrwt>
<pdfrwt beam="1">  1       21 0.10103809E+00 0.11835662E+04</pdfrwt>
<pdfrwt beam="2">  1       -4 0.20826372E+00 0.11835662E+04</pdfrwt>
<totfact> 0.33664188E+00</totfact>
</mgrwt>
</event>
<event>
 6    2  0.2267664E-005  0.1024822E+04  0.7818608E-02  0.9781195E-01
         -4   -1    0    0    0  501 -0.00000000000E+00  0.00000000000E+00  0.36891550904E+03  0.36891550904E+03  0.00000000000E+00 0. -1.
         21   -1    0    0  501  502  0.00000000000E+00 -0.00000000000E+00 -0.98435227576E+03  0.98435227576E+03  0.00000000000E+00 0. -1.
   -9000010    2    1    2    0  502  0.16501968884E+03  0.72896775233E+02 -0.52262770463E+03  0.11503910471E+04  0.10088183216E+04 0.  0.
         13    1    3    3    0    0  0.13020302859E+03 -0.40099680321E+03  0.28664581679E+02  0.42257890890E+03  0.10566000000E+00 0. -1.
         -4    1    3    3    0  502  0.34816660252E+02  0.47389357845E+03 -0.55129228631E+03  0.72781213817E+03  0.00000000000E+00 0. -1.
        -13    1    1    2    0    0 -0.16501968884E+03 -0.72896775233E+02 -0.92809062091E+02  0.20287673773E+03  0.10566000000E+00 0.  1.
<mgrwt>
<rscale>  1 0.66381586E+03</rscale>
<asrwt>0</asrwt>
<pdfrwt beam="2">  1       21 0.15143881E+00 0.10248219E+04</pdfrwt>
<pdfrwt beam="1">  1       -4 0.56756234E-01 0.10248219E+04</pdfrwt>
<totfact> 0.30979995E+01</totfact>
</mgrwt>
</event>
<event>
 6    2  0.2267664E-005  0.1100015E+04  0.7818608E-02  0.9434348E-01
         -4   -1    0    0    0  501 -0.00000000000E+00  0.00000000000E+00  0.20049429106E+03  0.20049429106E+03  0.00000000000E+00 0. -1.
         21   -1    0    0  501  502  0.00000000000E+00 -0.00000000000E+00 -0.31965966971E+04  0.31965966971E+04  0.00000000000E+00 0. -1.
   -9000010    2    1    2    0  502  0.16902247762E+03  0.44690983066E+03 -0.23377838534E+04  0.25836536381E+04  0.99082580778E+03 0.  0.
         13    1    3    3    0    0  0.22875396185E+03  0.21458880315E+03 -0.94494858500E+02  0.32757597431E+03  0.10566000000E+00 0. -1.
         -4    1    3    3    0  502 -0.59731484228E+02  0.23232102751E+03 -0.22432889949E+04  0.22560776638E+04  0.00000000000E+00 0. -1.
        -13    1    1    2    0    0 -0.16902247762E+03 -0.44690983066E+03 -0.65831855257E+03  0.81343735008E+03  0.10566000000E+00 0.  1.
<mgrwt>
<rscale>  1 0.89302055E+03</rscale>
<asrwt>0</asrwt>
<pdfrwt beam="2">  1       21 0.49178410E+00 0.11000149E+04</pdfrwt>
<pdfrwt beam="1">  1       -4 0.30845276E-01 0.11000149E+04</pdfrwt>
<totfact> 0.58101288E-01</totfact>
</mgrwt>
</event>
<event>
 6    2  0.2267664E-005  0.1008993E+04  0.7818608E-02  0.9660997E-01
         21   -1    0    0  501  502  0.00000000000E+00  0.00000000000E+00  0.64598150872E+03  0.64598150872E+03  0.00000000000E+00 0.  1.
         -4   -1    0    0    0  501 -0.00000000000E+00 -0.00000000000E+00 -0.64667858226E+03  0.64667858226E+03  0.00000000000E+00 0. -1.
   -9000010    2    1    2    0  502 -0.27258401006E+03  0.73692612959E+02 -0.24486280666E+02  0.10092900480E+04  0.96867650906E+03 0.  0.
         13    1    3    3    0    0  0.17362887653E+03 -0.32816471890E+03 -0.14183210089E+03  0.39743606467E+03  0.10566000000E+00 0. -1.
         -4    1    3    3    0  502 -0.44621288659E+03  0.40185733186E+03  0.11734582023E+03  0.61185398328E+03  0.00000000000E+00 0. -1.
        -13    1    1    2    0    0  0.27258401006E+03 -0.73692612959E+02  0.23789207135E+02  0.28337004303E+03  0.10566000000E+00 0.  1.
<mgrwt>
<rscale>  1 0.73387263E+03</rscale>
<asrwt>0</asrwt>
<pdfrwt beam="1">  1       21 0.99381770E-01 0.10089930E+04</pdfrwt>
<pdfrwt beam="2">  1       -4 0.99489013E-01 0.10089930E+04</pdfrwt>
<totfact> 0.26121860E+01</totfact>
</mgrwt>
</event>
<event>
 6    2  0.2267664E-005  0.1002318E+04  0.7818608E-02  0.1001910E+00
         21   -1    0    0  501  502  0.00000000000E+00  0.00000000000E+00  0.20978169317E+04  0.20978169317E+04  0.00000000000E+00 0. -1.
         -4   -1    0    0    0  501 -0.00000000000E+00 -0.00000000000E+00 -0.14282713292E+03  0.14282713292E+03  0.00000000000E+00 0. -1.
   -9000010    2    1    2    0  502 -0.46506697681E+02 -0.76694866208E+02  0.17464924402E+04  0.20136724031E+04  0.99829641284E+03 0.  0.
         13    1    3    3    0    0 -0.27676411390E+03 -0.43846012023E+03  0.61950808971E+03  0.80785885906E+03  0.10566000000E+00 0. -1.
         -4    1    3    3    0  502  0.23025741622E+03  0.36176525402E+03  0.11269843505E+04  0.12058135441E+04  0.00000000000E+00 0. -1.
        -13    1    1    2    0    0  0.46506697681E+02  0.76694866208E+02  0.20849735853E+03  0.22697166147E+03  0.10566000000E+00 0.  1.
<mgrwt>
<rscale>  1 0.54820723E+03</rscale>
<asrwt>0</asrwt>
<pdfrwt beam="1">  1       21 0.32274104E+00 0.10023177E+04</pdfrwt>
<pdfrwt beam="2">  1       -4 0.21973407E-01 0.10023177E+04</pdfrwt>
<totfact> 0.15055784E+01</totfact>
</mgrwt>
</event>
<event>
 6    2  0.2267664E-005  0.1081021E+04  0.7818608E-02  0.9557660E-01
         21   -1    0    0  501  502  0.00000000000E+00  0.00000000000E+00  0.39212851803E+03  0.39212851803E+03  0.00000000000E+00 0.  1.
         -4   -1    0    0    0  501 -0.00000000000E+00 -0.00000000000E+00 -0.17628216306E+04  0.17628216306E+04  0.00000000000E+00 0. -1.
   -9000010    2    1    2    0  502 -0.12298519086E+03  0.30286626125E+03 -0.14594734959E+04  0.18162241575E+04  0.10304144680E+04 0.  0.
         13    1    3    3    0    0 -0.37353695175E+03  0.22602662667E+03 -0.14897524378E+04  0.15524111013E+04  0.10566000000E+00 0. -1.
         -4    1    3    3    0  502  0.25055176088E+03  0.76839634576E+02  0.30278941937E+02  0.26381305625E+03  0.00000000000E+00 0. -1.
        -13    1    1    2    0    0  0.12298519086E+03 -0.30286626125E+03  0.88780383359E+02  0.33872599104E+03  0.10566000000E+00 0.  1.
<mgrwt>
<rscale>  1 0.80163061E+03</rscale>
<asrwt>0</asrwt>
<pdfrwt beam="1">  1       21 0.60327464E-01 0.10810214E+04</pdfrwt>
<pdfrwt beam="2">  1       -4 0.27120333E+00 0.10810214E+04</pdfrwt>
<totfact> 0.46106615E+00</totfact>
</mgrwt>
</event>
<event>
 6    2  0.2267664E-005  0.1017248E+04  0.7818608E-02  0.9763143E-01
         21   -1    0    0  501  502  0.00000000000E+00  0.00000000000E+00  0.32781472817E+03  0.32781472817E+03  0.00000000000E+00 0. -1.
         -4   -1    0    0    0  501 -0.00000000000E+00 -0.00000000000E+00 -0.12151056691E+04  0.12151056691E+04  0.00000000000E+00 0. -1.
   -9000010    2    1    2    0  502 -0.61409432500E+02  0.18591787176E+03 -0.55912261585E+03  0.11607803258E+04  0.99822657341E+03 0.  0.
         13    1    3    3    0    0  0.12490896427E+03 -0.38888550188E+03 -0.27979017765E+03  0.49509265557E+03  0.10566000000E+00 0. -1.
         -4    1    3    3    0  502 -0.18631839677E+03  0.57480337364E+03 -0.27933243820E+03  0.66568767027E+03  0.00000000000E+00 0. -1.
        -13    1    1    2    0    0  0.61409432500E+02 -0.18591787176E+03 -0.32816832512E+03  0.38214007146E+03  0.10566000000E+00 0.  1.
<mgrwt>
<rscale>  1 0.67378558E+03</rscale>
<asrwt>0</asrwt>
<pdfrwt beam="1">  1       21 0.50433035E-01 0.10172477E+04</pdfrwt>
<pdfrwt beam="2">  1       -4 0.18693933E+00 0.10172477E+04</pdfrwt>
<totfact> 0.23719934E+01</totfact>
</mgrwt>
</event>
<event>
 6    2  0.2267664E-005  0.9680498E+03  0.7818608E-02  0.9629618E-01
         21   -1    0    0  501  502  0.00000000000E+00  0.00000000000E+00  0.27352198103E+04  0.27352198103E+04  0.00000000000E+00 0. -1.
         -4   -1    0    0    0  501 -0.00000000000E+00 -0.00000000000E+00 -0.16203572705E+03  0.16203572705E+03  0.00000000000E+00 0. -1.
   -9000010    2    1    2    0  502  0.88391261318E+02  0.34448842397E+03  0.20136853139E+04  0.22342893441E+04  0.90035273111E+03 0.  0.
         13    1    3    3    0    0 -0.40411605839E+02 -0.30382110270E+03  0.60263520862E+03  0.67609878433E+03  0.10566000000E+00 0. -1.
         -4    1    3    3    0  502  0.12880286716E+03  0.64830952667E+03  0.14110501053E+04  0.15581905598E+04  0.00000000000E+00 0. -1.
        -13    1    1    2    0    0 -0.88391261318E+02 -0.34448842397E+03  0.55949876932E+03  0.66296619323E+03  0.10566000000E+00 0.  1.
<mgrwt>
<rscale>  1 0.75366486E+03</rscale>
<asrwt>0</asrwt>
<pdfrwt beam="1">  1       21 0.42080301E+00 0.96804976E+03</pdfrwt>
<pdfrwt beam="2">  1       -4 0.24928575E-01 0.96804976E+03</pdfrwt>
<totfact> 0.27973401E+00</totfact>
</mgrwt>
</event>
<event>
 6    2  0.2267664E-005  0.1009584E+04  0.7818608E-02  0.9820826E-01
         21   -1    0    0  501  502  0.00000000000E+00  0.00000000000E+00  0.22594696734E+03  0.22594696734E+03  0.00000000000E+00 0. -1.
         -4   -1    0    0    0  501 -0.00000000000E+00 -0.00000000000E+00 -0.15908636489E+04  0.15908636489E+04  0.00000000000E+00 0. -1.
   -9000010    2    1    2    0  502  0.13482482338E+03 -0.96277897035E+02 -0.10252113211E+04  0.14388596808E+04  0.99589746553E+03 0.  0.
         13    1    3    3    0    0 -0.23106462225E+03 -0.29888906433E+03 -0.93855241786E+03  0.10117342461E+04  0.10566000000E+00 0. -1.
         -4    1    3    3    0  502  0.36588944563E+03  0.20261116729E+03 -0.86658903222E+02  0.42712543478E+03  0.00000000000E+00 0. -1.
        -13    1    1    2    0    0 -0.13482482338E+03  0.96277897035E+02 -0.33970536047E+03  0.37795093538E+03  0.10566000000E+00 0.  1.
<mgrwt>
<rscale>  1 0.64256773E+03</rscale>
<asrwt>0</asrwt>
<pdfrwt beam="1">  1       21 0.34761072E-01 0.10095835E+04</pdfrwt>
<pdfrwt beam="2">  1       -4 0.24474826E+00 0.10095835E+04</pdfrwt>
<totfact> 0.22025344E+01</totfact>
</mgrwt>
</event>
<event>
 6    2  0.2267664E-005  0.1032477E+04  0.7818608E-02  0.9688572E-01
         21   -1    0    0  501  502  0.00000000000E+00  0.00000000000E+00  0.19327228068E+04  0.19327228068E+04  0.00000000000E+00 0. -1.
         -4   -1    0    0    0  501 -0.00000000000E+00 -0.00000000000E+00 -0.23921882488E+03  0.23921882488E+03  0.00000000000E+00 0. -1.
   -9000010    2    1    2    0  502 -0.23673247210E+03 -0.40317450925E+02  0.16195624421E+04  0.19206745971E+04  0.10041616621E+04 0.  0.
         13    1    3    3    0    0  0.25344904243E+03  0.27931183309E+03  0.31694955544E+03  0.49265459408E+03  0.10566000000E+00 0. -1.
         -4    1    3    3    0  502 -0.49018151453E+03 -0.31962928401E+03  0.13026128867E+04  0.14280200030E+04  0.00000000000E+00 0. -1.
        -13    1    1    2    0    0  0.23673247210E+03  0.40317450925E+02  0.73941539764E+02  0.25126703457E+03  0.10566000000E+00 0.  1.
<mgrwt>
<rscale>  1 0.71701276E+03</rscale>
<asrwt>0</asrwt>
<pdfrwt beam="1">  1       21 0.29734196E+00 0.10324768E+04</pdfrwt>
<pdfrwt beam="2">  1       -4 0.36802897E-01 0.10324768E+04</pdfrwt>
<totfact> 0.79030693E+00</totfact>
</mgrwt>
</event>
<event>
 6    2  0.2267664E-005  0.1022624E+04  0.7818608E-02  0.9831690E-01
         21   -1    0    0  501  502  0.00000000000E+00  0.00000000000E+00  0.58125103242E+03  0.58125103242E+03  0.00000000000E+00 0. -1.
         -4   -1    0    0    0  501 -0.00000000000E+00 -0.00000000000E+00 -0.76056750627E+03  0.76056750627E+03  0.00000000000E+00 0. -1.
   -9000010    2    1    2    0  502  0.12429314535E+03  0.90681466403E+02  0.95283126561E+02  0.10270537598E+04  0.10109839944E+04 0.  0.
         13    1    3    3    0    0  0.49858842619E+03  0.65942742071E+02 -0.20842452087E+03  0.54440761937E+03  0.10566000000E+00 0. -1.
         -4    1    3    3    0  502 -0.37429528084E+03  0.24738724332E+02  0.30370764743E+03  0.48264614041E+03  0.00000000000E+00 0. -1.
        -13    1    1    2    0    0 -0.12429314535E+03 -0.90681466403E+02 -0.27459960041E+03  0.31476477891E+03  0.10566000000E+00 0.  1.
<mgrwt>
<rscale>  1 0.63689273E+03</rscale>
<asrwt>0</asrwt>
<pdfrwt beam="1">  1       21 0.89423236E-01 0.10226243E+04</pdfrwt>
<pdfrwt beam="2">  1       -4 0.11701039E+00 0.10226243E+04</pdfrwt>
<totfact> 0.22676611E+01</totfact>
</mgrwt>
</event>
<event>
 6    2  0.2267664E-005  0.1192821E+04  0.7818608E-02  0.9277504E-01
         -4   -1    0    0    0  501 -0.00000000000E+00  0.00000000000E+00  0.67463178049E+03  0.67463178049E+03  0.00000000000E+00 0. -1.
         21   -1    0    0  501  502  0.00000000000E+00 -0.00000000000E+00 -0.12745521706E+04  0.12745521706E+04  0.00000000000E+00 0.  1.
   -9000010    2    1    2    0  502 -0.47520801705E+02  0.65838169535E+03 -0.34667944347E+03  0.12421792329E+04  0.99352802006E+03 0.  0.
         13    1    3    3    0    0  0.26676970507E+03 -0.48627264384E+02 -0.38106419757E+03  0.46769714584E+03  0.10566000000E+00 0. -1.
         -4    1    3    3    0  502 -0.31429050678E+03  0.70700895974E+03  0.34384754099E+02  0.77448208702E+03  0.00000000000E+00 0. -1.
        -13    1    1    2    0    0  0.47520801705E+02 -0.65838169535E+03 -0.25324094660E+03  0.70700471821E+03  0.10566000000E+00 0.  1.
<mgrwt>
<rscale>  1 0.10288051E+04</rscale>
<asrwt>0</asrwt>
<pdfrwt beam="2">  1       21 0.19608495E+00 0.11928213E+04</pdfrwt>
<pdfrwt beam="1">  1       -4 0.10378951E+00 0.11928213E+04</pdfrwt>
<totfact> 0.35529728E+00</totfact>
</mgrwt>
</event>
<event>
 6    2  0.2267664E-005  0.1271790E+04  0.7818608E-02  0.9169553E-01
         -4   -1    0    0    0  501 -0.00000000000E+00  0.00000000000E+00  0.72513700664E+03  0.72513700664E+03  0.00000000000E+00 0. -1.
         21   -1    0    0  501  502  0.00000000000E+00 -0.00000000000E+00 -0.15623860458E+04  0.15623860458E+04  0.00000000000E+00 0. -1.
   -9000010    2    1    2    0  502 -0.53496594219E+03  0.61270963667E+03 -0.28197990748E+03  0.13026751058E+04  0.97767484623E+03 0.  0.
         13    1    3    3    0    0  0.62514627210E+02 -0.23023487103E+03 -0.52164389336E+02  0.24420751244E+03  0.10566000000E+00 0. -1.
         -4    1    3    3    0  502 -0.59748056940E+03  0.84294450770E+03 -0.22981551814E+03  0.10584675934E+04  0.00000000000E+00 0. -1.
        -13    1    1    2    0    0  0.53496594219E+03 -0.61270963667E+03 -0.55526913165E+03  0.98484794659E+03  0.10566000000E+00 0.  1.
<mgrwt>
<rscale>  1 0.11373292E+04</rscale>
<asrwt>0</asrwt>
<pdfrwt beam="2">  1       21 0.24036708E+00 0.12717900E+04</pdfrwt>
<pdfrwt beam="1">  1       -4 0.11155954E+00 0.12717900E+04</pdfrwt>
<totfact> 0.14869885E+00</totfact>
</mgrwt>
</event>
<event>
 6    2  0.2267664E-005  0.9968867E+03  0.7818608E-02  0.9835054E-01
         -4   -1    0    0    0  501 -0.00000000000E+00  0.00000000000E+00  0.12379578455E+04  0.12379578455E+04  0.00000000000E+00 0. -1.
         21   -1    0    0  501  502  0.00000000000E+00 -0.00000000000E+00 -0.44476697215E+03  0.44476697215E+03  0.00000000000E+00 0. -1.
   -9000010    2    1    2    0  502  0.13488632480E+03  0.93759040115E+02  0.13696648329E+03  0.10062519509E+04  0.98325891445E+03 0.  0.
         13    1    3    3    0    0 -0.20577429844E+03  0.48500783608E+02 -0.35080146277E+03  0.40958157351E+03  0.10566000000E+00 0. -1.
         -4    1    3    3    0  502  0.34066062324E+03  0.45258256507E+02  0.48776794606E+03  0.59667037735E+03  0.00000000000E+00 0. -1.
        -13    1    1    2    0    0 -0.13488632480E+03 -0.93759040115E+02  0.65622439003E+03  0.67647286676E+03  0.10566000000E+00 0.  1.
<mgrwt>
<rscale>  1 0.63514787E+03</rscale>
<asrwt>0</asrwt>
<pdfrwt beam="2">  1       21 0.68425688E-01 0.99688674E+03</pdfrwt>
<pdfrwt beam="1">  1       -4 0.19045505E+00 0.99688674E+03</pdfrwt>
<totfact> 0.11422346E+01</totfact>
</mgrwt>
</event>
<event>
 6    2  0.2267664E-005  0.1187559E+04  0.7818608E-02  0.9737028E-01
         21   -1    0    0  501  502  0.00000000000E+00  0.00000000000E+00  0.51427360056E+03  0.51427360056E+03  0.00000000000E+00 0. -1.
         -4   -1    0    0    0  501 -0.00000000000E+00 -0.00000000000E+00 -0.10535429047E+04  0.10535429047E+04  0.00000000000E+00 0. -1.
   -9000010    2    1    2    0  502  0.38127921637E+02 -0.12867209867E+03 -0.20172193734E+03  0.12045693671E+04  0.11799514281E+04 0.  0.
         13    1    3    3    0    0  0.14709166084E+03 -0.24235340460E+02 -0.68356973775E+03  0.69963626689E+03  0.10566000000E+00 0. -1.
         -4    1    3    3    0  502 -0.10896373920E+03 -0.10443675821E+03  0.48184780041E+03  0.50493310021E+03  0.00000000000E+00 0. -1.
        -13    1    1    2    0    0 -0.38127921637E+02  0.12867209867E+03 -0.33754736680E+03  0.36324713816E+03  0.10566000000E+00 0.  1.
<mgrwt>
<rscale>  1 0.68854337E+03</rscale>
<asrwt>0</asrwt>
<pdfrwt beam="1">  1       21 0.79119016E-01 0.11875587E+04</pdfrwt>
<pdfrwt beam="2">  1       -4 0.16208352E+00 0.11875587E+04</pdfrwt>
<totfact> 0.12708473E+01</totfact>
</mgrwt>
</event>
<event>
 6    2  0.2267664E-005  0.1001061E+04  0.7818608E-02  0.9851303E-01
         -4   -1    0    0    0  501 -0.00000000000E+00  0.00000000000E+00  0.61520773591E+03  0.61520773591E+03  0.00000000000E+00 0. -1.
         21   -1    0    0  501  502  0.00000000000E+00 -0.00000000000E+00 -0.77455047637E+03  0.77455047637E+03  0.00000000000E+00 0. -1.
   -9000010    2    1    2    0  502  0.11069072665E+03  0.10687809738E+03 -0.42118189628E+03  0.10860558591E+04  0.98916519076E+03 0.  0.
         13    1    3    3    0    0 -0.21998410419E+03  0.46254925657E+03 -0.17263282054E+03  0.54050617272E+03  0.10566000000E+00 0. -1.
         -4    1    3    3    0  502  0.33067483084E+03 -0.35567115920E+03 -0.24854907574E+03  0.54554968636E+03  0.00000000000E+00 0. -1.
        -13    1    1    2    0    0 -0.11069072665E+03 -0.10687809738E+03  0.26183915581E+03  0.30370235321E+03  0.10566000000E+00 0.  1.
<mgrwt>
<rscale>  1 0.62680510E+03</rscale>
<asrwt>0</asrwt>
<pdfrwt beam="2">  1       21 0.11916161E+00 0.10010610E+04</pdfrwt>
<pdfrwt beam="1">  1       -4 0.94647344E-01 0.10010610E+04</pdfrwt>
<totfact> 0.18611629E+01</totfact>
</mgrwt>
</event>
<event>
 6    2  0.2267664E-005  0.9915311E+03  0.7818608E-02  0.1008725E+00
         -4   -1    0    0    0  501 -0.00000000000E+00  0.00000000000E+00  0.19737692034E+03  0.19737692034E+03  0.00000000000E+00 0. -1.
         21   -1    0    0  501  502  0.00000000000E+00 -0.00000000000E+00 -0.14504624898E+04  0.14504624898E+04  0.00000000000E+00 0. -1.
   -9000010    2    1    2    0  502 -0.61061005178E+02 -0.43407042607E+02 -0.11965487841E+04  0.15539829401E+04  0.98869680272E+03 0.  0.
         13    1    3    3    0    0 -0.95201091296E+02  0.46275425454E+03 -0.45817492070E+03  0.65812538091E+03  0.10566000000E+00 0. -1.
         -4    1    3    3    0  502  0.34140086118E+02 -0.50616129715E+03 -0.73837386345E+03  0.89585755923E+03  0.00000000000E+00 0. -1.
        -13    1    1    2    0    0  0.61061005178E+02  0.43407042607E+02 -0.56536785292E+02  0.93856469976E+02  0.10566000000E+00 0.  1.
<mgrwt>
<rscale>  1 0.51984702E+03</rscale>
<asrwt>0</asrwt>
<pdfrwt beam="2">  1       21 0.22314808E+00 0.99153113E+03</pdfrwt>
<pdfrwt beam="1">  1       -4 0.30365680E-01 0.99153113E+03</pdfrwt>
<totfact> 0.34381390E+01</totfact>
</mgrwt>
</event>
<event>
 6    2  0.2267664E-005  0.9917270E+03  0.7818608E-02  0.1044253E+00
         21   -1    0    0  501  502  0.00000000000E+00  0.00000000000E+00  0.24719771205E+04  0.24719771205E+04  0.00000000000E+00 0. -1.
         -4   -1    0    0    0  501 -0.00000000000E+00 -0.00000000000E+00 -0.12696858021E+03  0.12696858021E+03  0.00000000000E+00 0. -1.
   -9000010    2    1    2    0  502  0.14485198125E+01  0.25849055744E+02  0.23661132731E+04  0.25655437126E+04  0.99138904979E+03 0.  0.
         13    1    3    3    0    0 -0.47908351938E+03 -0.73884203979E+02  0.94502874909E+03  0.10621013332E+04  0.10566000000E+00 0. -1.
         -4    1    3    3    0  502  0.48053203920E+03  0.99733259723E+02  0.14210845240E+04  0.15034423794E+04  0.00000000000E+00 0. -1.
        -13    1    1    2    0    0 -0.14485198125E+01 -0.25849055744E+02 -0.21104732895E+02  0.33401988071E+02  0.10566000000E+00 0.  1.
<mgrwt>
<rscale>  1 0.39863589E+03</rscale>
<asrwt>0</asrwt>
<pdfrwt beam="1">  1       21 0.38030414E+00 0.99172704E+03</pdfrwt>
<pdfrwt beam="2">  1       -4 0.19533630E-01 0.99172704E+03</pdfrwt>
<totfact> 0.81249020E+00</totfact>
</mgrwt>
</event>
<event>
 6    2  0.2267664E-005  0.9999294E+03  0.7818608E-02  0.1005593E+00
         21   -1    0    0  501  502  0.00000000000E+00  0.00000000000E+00  0.14109133343E+04  0.14109133343E+04  0.00000000000E+00 0. -1.
         -4   -1    0    0    0  501 -0.00000000000E+00 -0.00000000000E+00 -0.20692116630E+03  0.20692116630E+03  0.00000000000E+00 0. -1.
   -9000010    2    1    2    0  502  0.67773914450E+02 -0.43451715041E+02  0.11057502985E+04  0.14908194184E+04  0.99668322980E+03 0.  0.
         13    1    3    3    0    0  0.19801154491E+02  0.44852554086E+03  0.28212831530E+03  0.53024866240E+03  0.10566000000E+00 0. -1.
         -4    1    3    3    0  502  0.47972759959E+02 -0.49197725590E+03  0.82362198325E+03  0.96057075601E+03  0.00000000000E+00 0. -1.
        -13    1    1    2    0    0 -0.67773914450E+02  0.43451715041E+02  0.98241869408E+02  0.12701508213E+03  0.10566000000E+00 0.  1.
<mgrwt>
<rscale>  1 0.53264196E+03</rscale>
<asrwt>0</asrwt>
<pdfrwt beam="1">  1       21 0.21706358E+00 0.99992941E+03</pdfrwt>
<pdfrwt beam="2">  1       -4 0.31834027E-01 0.99992941E+03</pdfrwt>
<totfact> 0.34333773E+01</totfact>
</mgrwt>
</event>
<event>
 6    2  0.2267664E-005  0.9865645E+03  0.7818608E-02  0.9988886E-01
         -4   -1    0    0    0  501 -0.00000000000E+00  0.00000000000E+00  0.10183405295E+04  0.10183405295E+04  0.00000000000E+00 0. -1.
         21   -1    0    0  501  502  0.00000000000E+00 -0.00000000000E+00 -0.35057047498E+03  0.35057047498E+03  0.00000000000E+00 0. -1.
   -9000010    2    1    2    0  502 -0.14725599915E+02  0.10239414879E+03  0.36996854957E+03  0.10536537246E+04  0.98112590359E+03 0.  0.
         13    1    3    3    0    0 -0.43632111113E+03  0.58473030453E+02 -0.66518565517E+02  0.44521897761E+03  0.10566000000E+00 0. -1.
         -4    1    3    3    0  502  0.42159551121E+03  0.43921118342E+02  0.43648711509E+03  0.60843474699E+03  0.00000000000E+00 0. -1.
        -13    1    1    2    0    0  0.14725599915E+02 -0.10239414879E+03  0.29780150491E+03  0.31525727984E+03  0.10566000000E+00 0.  1.
<mgrwt>
<rscale>  1 0.56140239E+03</rscale>
<asrwt>0</asrwt>
<pdfrwt beam="2">  1       21 0.53933920E-01 0.98656447E+03</pdfrwt>
<pdfrwt beam="1">  1       -4 0.15666777E+00 0.98656447E+03</pdfrwt>
<totfact> 0.33891280E+01</totfact>
</mgrwt>
</event>
<event>
 6    2  0.2267664E-005  0.1214907E+04  0.7818608E-02  0.9254797E-01
         21   -1    0    0  501  502  0.00000000000E+00  0.00000000000E+00  0.80580158734E+03  0.80580158734E+03  0.00000000000E+00 0.  1.
         -4   -1    0    0    0  501 -0.00000000000E+00 -0.00000000000E+00 -0.13948872038E+04  0.13948872038E+04  0.00000000000E+00 0. -1.
   -9000010    2    1    2    0  502 -0.67019028632E+03  0.11032624423E+03  0.11751999860E+03  0.12205773656E+04  0.10073089175E+04 0.  0.
         13    1    3    3    0    0  0.23314826258E+03  0.83597596766E+02  0.19256599125E+03  0.31373291616E+03  0.10566000000E+00 0. -1.
         -4    1    3    3    0  502 -0.90333854890E+03  0.26728647465E+02 -0.75045992648E+02  0.90684444947E+03  0.00000000000E+00 0. -1.
        -13    1    1    2    0    0  0.67019028632E+03 -0.11032624423E+03 -0.70660561510E+03  0.98011142555E+03  0.10566000000E+00 0.  1.
<mgrwt>
<rscale>  1 0.10505296E+04</rscale>
<asrwt>0</asrwt>
<pdfrwt beam="1">  1       21 0.12396948E+00 0.12149066E+04</pdfrwt>
<pdfrwt beam="2">  1       -4 0.21459803E+00 0.12149066E+04</pdfrwt>
<totfact> 0.18066821E+00</totfact>
</mgrwt>
</event>
<event>
 6    2  0.2267664E-005  0.7984559E+03  0.7818608E-02  0.1047053E+00
         21   -1    0    0  501  502  0.00000000000E+00  0.00000000000E+00  0.37425133690E+03  0.37425133690E+03  0.00000000000E+00 0. -1.
         -4   -1    0    0    0  501 -0.00000000000E+00 -0.00000000000E+00 -0.48201442865E+03  0.48201442865E+03  0.00000000000E+00 0. -1.
   -9000010    2    1    2    0  502  0.12420331478E+01  0.45750687177E+02 -0.79334547652E+02  0.80238755746E+03  0.79714312008E+03 0.  0.
         13    1    3    3    0    0  0.10309908437E+03 -0.33210788215E+03 -0.18924151551E+03  0.39590078169E+03  0.10566000000E+00 0. -1.
         -4    1    3    3    0  502 -0.10185705123E+03  0.37785856932E+03  0.10990696786E+03  0.40648677578E+03  0.00000000000E+00 0. -1.
        -13    1    1    2    0    0 -0.12420331478E+01 -0.45750687177E+02 -0.28428544099E+02  0.53878208092E+02  0.10566000000E+00 0.  1.
<mgrwt>
<rscale>  1 0.39068604E+03</rscale>
<asrwt>0</asrwt>
<pdfrwt beam="1">  1       21 0.57577129E-01 0.79845590E+03</pdfrwt>
<pdfrwt beam="2">  1       -4 0.74156065E-01 0.79845590E+03</pdfrwt>
<totfact> 0.18751080E+02</totfact>
</mgrwt>
</event>
<event>
 6    2  0.2267664E-005  0.9906361E+03  0.7818608E-02  0.9926730E-01
         -4   -1    0    0    0  501 -0.00000000000E+00  0.00000000000E+00  0.64664146240E+03  0.64664146240E+03  0.00000000000E+00 0. -1.
         21   -1    0    0  501  502  0.00000000000E+00 -0.00000000000E+00 -0.50564924924E+03  0.50564924924E+03  0.00000000000E+00 0. -1.
   -9000010    2    1    2    0  502  0.28951816024E+02 -0.12108681760E+03  0.39093859643E+02  0.99140718028E+03  0.98278158418E+03 0.  0.
         13    1    3    3    0    0 -0.10096015195E+02  0.40810325208E+03 -0.13969392378E+03  0.43146795638E+03  0.10566000000E+00 0. -1.
         -4    1    3    3    0  502  0.39047831219E+02 -0.52919006967E+03  0.17878778342E+03  0.55993922390E+03  0.00000000000E+00 0. -1.
        -13    1    1    2    0    0 -0.28951816024E+02  0.12108681760E+03  0.10189835352E+03  0.16088353136E+03  0.10566000000E+00 0.  1.
<mgrwt>
<rscale>  1 0.58983141E+03</rscale>
<asrwt>0</asrwt>
<pdfrwt beam="2">  1       21 0.77792191E-01 0.99063609E+03</pdfrwt>
<pdfrwt beam="1">  1       -4 0.99483303E-01 0.99063609E+03</pdfrwt>
<totfact> 0.47133725E+01</totfact>
</mgrwt>
</event>
<event>
 6    2  0.2267664E-005  0.1022125E+04  0.7818608E-02  0.9576209E-01
         -4   -1    0    0    0  501 -0.00000000000E+00  0.00000000000E+00  0.25231439193E+03  0.25231439193E+03  0.00000000000E+00 0. -1.
         21   -1    0    0  501  502  0.00000000000E+00 -0.00000000000E+00 -0.26690953111E+04  0.26690953111E+04  0.00000000000E+00 0.  1.
   -9000010    2    1    2    0  502 -0.34851505759E+02 -0.36106357876E+03 -0.90010193885E+03  0.13619557358E+04  0.95559321399E+03 0.  0.
         13    1    3    3    0    0 -0.12663680071E+03 -0.56197710585E+03 -0.97181014707E+03  0.11297212576E+04  0.10566000000E+00 0. -1.
         -4    1    3    3    0  502  0.91785294949E+02  0.20091352709E+03  0.71708208223E+02  0.23223447820E+03  0.00000000000E+00 0. -1.
        -13    1    1    2    0    0  0.34851505759E+02  0.36106357876E+03 -0.15166789803E+04  0.15594539672E+04  0.10566000000E+00 0.  1.
<mgrwt>
<rscale>  1 0.78891007E+03</rscale>
<asrwt>0</asrwt>
<pdfrwt beam="2">  1       21 0.41063004E+00 0.10221252E+04</pdfrwt>
<pdfrwt beam="1">  1       -4 0.38817600E-01 0.10221252E+04</pdfrwt>
<totfact> 0.13510045E+00</totfact>
</mgrwt>
</event>
<event>
 6    2  0.2267664E-005  0.1106944E+04  0.7818608E-02  0.9431469E-01
         -4   -1    0    0    0  501 -0.00000000000E+00  0.00000000000E+00  0.41920987566E+03  0.41920987566E+03  0.00000000000E+00 0. -1.
         21   -1    0    0  501  502  0.00000000000E+00 -0.00000000000E+00 -0.15346157785E+04  0.15346157785E+04  0.00000000000E+00 0.  1.
   -9000010    2    1    2    0  502 -0.28071024548E+03  0.38157329655E+03 -0.92771360448E+03  0.14442917175E+04  0.10004646975E+04 0.  0.
         13    1    3    3    0    0 -0.26240177745E+03 -0.55167951293E+02 -0.96881706253E+03  0.10052386321E+04  0.10566000000E+00 0. -1.
         -4    1    3    3    0  502 -0.18308468028E+02  0.43674124784E+03  0.41103458058E+02  0.43905308544E+03  0.00000000000E+00 0. -1.
        -13    1    1    2    0    0  0.28071024548E+03 -0.38157329655E+03 -0.18769229840E+03  0.50953393665E+03  0.10566000000E+00 0.  1.
<mgrwt>
<rscale>  1 0.89530574E+03</rscale>
<asrwt>0</asrwt>
<pdfrwt beam="2">  1       21 0.23609474E+00 0.11069445E+04</pdfrwt>
<pdfrwt beam="1">  1       -4 0.64493826E-01 0.11069445E+04</pdfrwt>
<totfact> 0.58357426E+00</totfact>
</mgrwt>
</event>
<event>
 6    2  0.2267664E-005  0.1022622E+04  0.7818608E-02  0.9777807E-01
         -4   -1    0    0    0  501 -0.00000000000E+00  0.00000000000E+00  0.10326015700E+04  0.10326015700E+04  0.00000000000E+00 0. -1.
         21   -1    0    0  501  502  0.00000000000E+00 -0.00000000000E+00 -0.35627177585E+03  0.35627177585E+03  0.00000000000E+00 0. -1.
   -9000010    2    1    2    0  502  0.55209560116E+02 -0.17511363391E+03  0.51754374870E+03  0.11461267708E+04  0.10060030629E+04 0.  0.
         13    1    3    3    0    0  0.37358597992E+03  0.20359156038E+03 -0.63937600163E+01  0.42550781330E+03  0.10566000000E+00 0. -1.
         -4    1    3    3    0  502 -0.31837641980E+03 -0.37870519429E+03  0.52393750872E+03  0.72061895750E+03  0.00000000000E+00 0. -1.
        -13    1    1    2    0    0 -0.55209560116E+02  0.17511363391E+03  0.15878604545E+03  0.24274657506E+03  0.10566000000E+00 0.  1.
<mgrwt>
<rscale>  1 0.66567269E+03</rscale>
<asrwt>0</asrwt>
<pdfrwt beam="2">  1       21 0.54811043E-01 0.10226217E+04</pdfrwt>
<pdfrwt beam="1">  1       -4 0.15886178E+00 0.10226217E+04</pdfrwt>
<totfact> 0.31389986E+01</totfact>
</mgrwt>
</event>
<event>
 6    2  0.2267664E-005  0.1025509E+04  0.7818608E-02  0.9561045E-01
         -4   -1    0    0    0  501 -0.00000000000E+00  0.00000000000E+00  0.87019748206E+03  0.87019748206E+03  0.00000000000E+00 0. -1.
         21   -1    0    0  501  502  0.00000000000E+00 -0.00000000000E+00 -0.77701035049E+03  0.77701035049E+03  0.00000000000E+00 0. -1.
   -9000010    2    1    2    0  502  0.82648687563E+02 -0.36930677279E+03 -0.33207989700E+03  0.10779360567E+04  0.95312684698E+03 0.  0.
         13    1    3    3    0    0  0.39832360035E+03  0.97452251133E+02  0.25007516675E+02  0.41083332253E+03  0.10566000000E+00 0. -1.
         -4    1    3    3    0  502 -0.31567491279E+03 -0.46675902392E+03 -0.35708741368E+03  0.66710273420E+03  0.00000000000E+00 0. -1.
        -13    1    1    2    0    0 -0.82648687563E+02  0.36930677279E+03  0.42526702858E+03  0.56927177582E+03  0.10566000000E+00 0.  1.
<mgrwt>
<rscale>  1 0.79929019E+03</rscale>
<asrwt>0</asrwt>
<pdfrwt beam="2">  1       21 0.11954005E+00 0.10255092E+04</pdfrwt>
<pdfrwt beam="1">  1       -4 0.13387654E+00 0.10255092E+04</pdfrwt>
<totfact> 0.77902016E+00</totfact>
</mgrwt>
</event>
<event>
 6    2  0.2267664E-005  0.1022682E+04  0.7818608E-02  0.9721382E-01
         -4   -1    0    0    0  501 -0.00000000000E+00  0.00000000000E+00  0.82318323500E+03  0.82318323500E+03  0.00000000000E+00 0. -1.
         21   -1    0    0  501  502  0.00000000000E+00 -0.00000000000E+00 -0.47064959763E+03  0.47064959763E+03  0.00000000000E+00 0. -1.
   -9000010    2    1    2    0  502  0.21941057001E+03  0.29509144992E+02  0.27178864621E+03  0.10581814956E+04  0.99843238209E+03 0.  0.
         13    1    3    3    0    0 -0.16866009093E+03 -0.21738584325E+03  0.48002483803E+03  0.55328716541E+03  0.10566000000E+00 0. -1.
         -4    1    3    3    0  502  0.38807066094E+03  0.24689498824E+03 -0.20823619182E+03  0.50489433022E+03  0.00000000000E+00 0. -1.
        -13    1    1    2    0    0 -0.21941057001E+03 -0.29509144992E+02  0.80744991149E+02  0.23565133700E+03  0.10566000000E+00 0.  1.
<mgrwt>
<rscale>  1 0.69757856E+03</rscale>
<asrwt>0</asrwt>
<pdfrwt beam="2">  1       21 0.72407630E-01 0.10226823E+04</pdfrwt>
<pdfrwt beam="1">  1       -4 0.12664357E+00 0.10226823E+04</pdfrwt>
<totfact> 0.30535091E+01</totfact>
</mgrwt>
</event>
<event>
 6    2  0.2267664E-005  0.9904936E+03  0.7818608E-02  0.1010068E+00
         21   -1    0    0  501  502  0.00000000000E+00  0.00000000000E+00  0.62370557637E+03  0.62370557637E+03  0.00000000000E+00 0. -1.
         -4   -1    0    0    0  501 -0.00000000000E+00 -0.00000000000E+00 -0.46899518694E+03  0.46899518694E+03  0.00000000000E+00 0. -1.
   -9000010    2    1    2    0  502 -0.52989503197E+02  0.48886239229E+02  0.87862478551E+02  0.99438287995E+03  0.98786625865E+03 0.  0.
         13    1    3    3    0    0 -0.40913706996E+02 -0.33884525498E+03 -0.29368595219E+03  0.45026823996E+03  0.10566000000E+00 0. -1.
         -4    1    3    3    0  502 -0.12075796201E+02  0.38773149421E+03  0.38154843074E+03  0.54411463999E+03  0.00000000000E+00 0. -1.
        -13    1    1    2    0    0  0.52989503197E+02 -0.48886239229E+02  0.66847910883E+02  0.98317883360E+02  0.10566000000E+00 0.  1.
<mgrwt>
<rscale>  1 0.51447687E+03</rscale>
<asrwt>0</asrwt>
<pdfrwt beam="1">  1       21 0.95954704E-01 0.99049356E+03</pdfrwt>
<pdfrwt beam="2">  1       -4 0.72153106E-01 0.99049356E+03</pdfrwt>
<totfact> 0.60202078E+01</totfact>
</mgrwt>
</event>
<event>
 6    2  0.2267664E-005  0.1064891E+04  0.7818608E-02  0.9934283E-01
         21   -1    0    0  501  502  0.00000000000E+00  0.00000000000E+00  0.47784092113E+03  0.47784092113E+03  0.00000000000E+00 0. -1.
         -4   -1    0    0    0  501 -0.00000000000E+00 -0.00000000000E+00 -0.75260058500E+03  0.75260058500E+03  0.00000000000E+00 0. -1.
   -9000010    2    1    2    0  502 -0.79745998569E+02 -0.56683129100E+02 -0.15550011927E+03  0.10761844105E+04  0.10603868148E+04 0.  0.
         13    1    3    3    0    0 -0.13364901262E+03  0.49181142767E+03 -0.27557731141E+02  0.51039198531E+03  0.10566000000E+00 0. -1.
         -4    1    3    3    0  502  0.53903014052E+02 -0.54849455677E+03 -0.12794238813E+03  0.56579242519E+03  0.00000000000E+00 0. -1.
        -13    1    1    2    0    0  0.79745998569E+02  0.56683129100E+02 -0.11925954459E+03  0.15425709563E+03  0.10566000000E+00 0.  1.
<mgrwt>
<rscale>  1 0.58628193E+03</rscale>
<asrwt>0</asrwt>
<pdfrwt beam="1">  1       21 0.73513988E-01 0.10648909E+04</pdfrwt>
<pdfrwt beam="2">  1       -4 0.11578470E+00 0.10648909E+04</pdfrwt>
<totfact> 0.36842171E+01</totfact>
</mgrwt>
</event>
<event>
 6    2  0.2267664E-005  0.1198310E+04  0.7818608E-02  0.9278655E-01
         21   -1    0    0  501  502  0.00000000000E+00  0.00000000000E+00  0.99288086376E+03  0.99288086376E+03  0.00000000000E+00 0.  1.
         -4   -1    0    0    0  501 -0.00000000000E+00 -0.00000000000E+00 -0.86394603223E+03  0.86394603223E+03  0.00000000000E+00 0. -1.
   -9000010    2    1    2    0  502  0.33361546622E+02  0.64746159691E+03  0.15313493854E+03  0.12080548493E+04  0.10077830606E+04 0.  0.
         13    1    3    3    0    0 -0.19501337878E+03 -0.22290564271E+03  0.70444941123E+02  0.30443331675E+03  0.10566000000E+00 0. -1.
         -4    1    3    3    0  502  0.22837492540E+03  0.87036723962E+03  0.82689997421E+02  0.90362153251E+03  0.00000000000E+00 0. -1.
        -13    1    1    2    0    0 -0.33361546622E+02 -0.64746159691E+03 -0.24200107012E+02  0.64877204672E+03  0.10566000000E+00 0.  1.
<mgrwt>
<rscale>  1 0.10277187E+04</rscale>
<asrwt>0</asrwt>
<pdfrwt beam="1">  1       21 0.15275090E+00 0.11983097E+04</pdfrwt>
<pdfrwt beam="2">  1       -4 0.13291477E+00 0.11983097E+04</pdfrwt>
<totfact> 0.40111800E+00</totfact>
</mgrwt>
</event>
<event>
 6    2  0.2267664E-005  0.1028045E+04  0.7818608E-02  0.9689971E-01
         -4   -1    0    0    0  501 -0.00000000000E+00  0.00000000000E+00  0.73148932655E+03  0.73148932655E+03  0.00000000000E+00 0. -1.
         21   -1    0    0  501  502  0.00000000000E+00 -0.00000000000E+00 -0.55234974834E+03  0.55234974834E+03  0.00000000000E+00 0.  1.
   -9000010    2    1    2    0  502  0.15235250059E+03 -0.18817667532E+03  0.12376448385E+03  0.10354680665E+04  0.99912698077E+03 0.  0.
         13    1    3    3    0    0  0.25387049505E+03 -0.54755540598E+03  0.23209020554E+03  0.64663206350E+03  0.10566000000E+00 0. -1.
         -4    1    3    3    0  502 -0.10151799446E+03  0.35937873066E+03 -0.10832572169E+03  0.38883600300E+03  0.00000000000E+00 0. -1.
        -13    1    1    2    0    0 -0.15235250059E+03  0.18817667532E+03  0.55375094357E+02  0.24837100840E+03  0.10566000000E+00 0.  1.
<mgrwt>
<rscale>  1 0.71617052E+03</rscale>
<asrwt>0</asrwt>
<pdfrwt beam="2">  1       21 0.84976885E-01 0.10280450E+04</pdfrwt>
<pdfrwt beam="1">  1       -4 0.11253682E+00 0.10280450E+04</pdfrwt>
<totfact> 0.28214336E+01</totfact>
</mgrwt>
</event>
<event>
 6    2  0.2267664E-005  0.1079462E+04  0.7818608E-02  0.9593257E-01
         -4   -1    0    0    0  501 -0.00000000000E+00  0.00000000000E+00  0.48398069377E+03  0.48398069377E+03  0.00000000000E+00 0. -1.
         21   -1    0    0  501  502  0.00000000000E+00 -0.00000000000E+00 -0.10323265621E+04  0.10323265621E+04  0.00000000000E+00 0. -1.
   -9000010    2    1    2    0  502  0.21146121801E+03  0.19908802347E+03 -0.57781739482E+03  0.12243818034E+04  0.10396566601E+04 0.  0.
         13    1    3    3    0    0  0.25808491860E+03 -0.25407263004E+03 -0.66812111920E+03  0.75996484631E+03  0.10566000000E+00 0. -1.
         -4    1    3    3    0  502 -0.46623700590E+02  0.45316065351E+03  0.90303724380E+02  0.46441695704E+03  0.00000000000E+00 0. -1.
        -13    1    1    2    0    0 -0.21146121801E+03 -0.19908802347E+03  0.29471526457E+02  0.29192545256E+03  0.10566000000E+00 0.  1.
<mgrwt>
<rscale>  1 0.77744080E+03</rscale>
<asrwt>0</asrwt>
<pdfrwt beam="2">  1       21 0.15881947E+00 0.10794618E+04</pdfrwt>
<pdfrwt beam="1">  1       -4 0.74458569E-01 0.10794618E+04</pdfrwt>
<totfact> 0.14771709E+01</totfact>
</mgrwt>
</event>
<event>
 6    2  0.2267664E-005  0.7481554E+03  0.7818608E-02  0.1009298E+00
         -4   -1    0    0    0  501 -0.00000000000E+00  0.00000000000E+00  0.11844929049E+03  0.11844929049E+03  0.00000000000E+00 0. -1.
         21   -1    0    0  501  502  0.00000000000E+00 -0.00000000000E+00 -0.18260459573E+04  0.18260459573E+04  0.00000000000E+00 0. -1.
   -9000010    2    1    2    0  502 -0.11660273122E+03 -0.12552087728E+03 -0.14923992696E+04  0.16694286768E+04  0.72827524971E+03 0.  0.
         13    1    3    3    0    0  0.10734617266E+03  0.21928560525E+03 -0.99290761568E+03  0.10224846805E+04  0.10566000000E+00 0. -1.
         -4    1    3    3    0  502 -0.22394890388E+03 -0.34480648254E+03 -0.49949165396E+03  0.64694399628E+03  0.00000000000E+00 0. -1.
        -13    1    1    2    0    0  0.11660273122E+03  0.12552087728E+03 -0.21519739714E+03  0.27506657096E+03  0.10566000000E+00 0.  1.
<mgrwt>
<rscale>  1 0.51754489E+03</rscale>
<asrwt>0</asrwt>
<pdfrwt beam="2">  1       21 0.28093012E+00 0.74815542E+03</pdfrwt>
<pdfrwt beam="1">  1       -4 0.18222969E-01 0.74815542E+03</pdfrwt>
<totfact> 0.40503410E+01</totfact>
</mgrwt>
</event>
<event>
 6    2  0.2267664E-005  0.1025134E+04  0.7818608E-02  0.9737378E-01
         21   -1    0    0  501  502  0.00000000000E+00  0.00000000000E+00  0.86323778218E+03  0.86323778218E+03  0.00000000000E+00 0. -1.
         -4   -1    0    0    0  501 -0.00000000000E+00 -0.00000000000E+00 -0.50134147734E+03  0.50134147734E+03  0.00000000000E+00 0. -1.
   -9000010    2    1    2    0  502  0.19594047492E+03  0.70948535378E+02  0.47235489352E+03  0.11287244835E+04  0.10037297693E+04 0.  0.
         13    1    3    3    0    0 -0.17901018449E+03 -0.23738613438E+03 -0.15515088053E+03  0.33536342949E+03  0.10566000000E+00 0. -1.
         -4    1    3    3    0  502  0.37495065941E+03  0.30833466976E+03  0.62750577405E+03  0.79336105402E+03  0.00000000000E+00 0. -1.
        -13    1    1    2    0    0 -0.19594047492E+03 -0.70948535378E+02 -0.11045858868E+03  0.23585477600E+03  0.10566000000E+00 0.  1.
<mgrwt>
<rscale>  1 0.68834267E+03</rscale>
<asrwt>0</asrwt>
<pdfrwt beam="1">  1       21 0.13280581E+00 0.10251340E+04</pdfrwt>
<pdfrwt beam="2">  1       -4 0.77129458E-01 0.10251340E+04</pdfrwt>
<totfact> 0.22471955E+01</totfact>
</mgrwt>
</event>
<event>
 6    2  0.2267664E-005  0.1116870E+04  0.7818608E-02  0.9486170E-01
         -4   -1    0    0    0  501 -0.00000000000E+00  0.00000000000E+00  0.17774161556E+04  0.17774161556E+04  0.00000000000E+00 0. -1.
         21   -1    0    0  501  502  0.00000000000E+00 -0.00000000000E+00 -0.32090634089E+03  0.32090634089E+03  0.00000000000E+00 0. -1.
   -9000010    2    1    2    0  502 -0.20870522456E+03  0.31779878344E+03  0.95853287880E+03  0.14717963778E+04  0.10501644445E+04 0.  0.
         13    1    3    3    0    0  0.15443449446E+03  0.20529730408E+03 -0.15165413388E+03  0.29832194627E+03  0.10566000000E+00 0. -1.
         -4    1    3    3    0  502 -0.36313971902E+03  0.11250147936E+03  0.11101870127E+04  0.11734744316E+04  0.00000000000E+00 0. -1.
        -13    1    1    2    0    0  0.20870522456E+03 -0.31779878344E+03  0.49797693592E+03  0.62652611868E+03  0.10566000000E+00 0.  1.
<mgrwt>
<rscale>  1 0.85311152E+03</rscale>
<asrwt>0</asrwt>
<pdfrwt beam="2">  1       21 0.49370207E-01 0.11168703E+04</pdfrwt>
<pdfrwt beam="1">  1       -4 0.27344863E+00 0.11168703E+04</pdfrwt>
<totfact> 0.69065122E+00</totfact>
</mgrwt>
</event>
<event>
 6    2  0.2267664E-005  0.1355366E+04  0.7818608E-02  0.9105589E-01
         21   -1    0    0  501  502  0.00000000000E+00  0.00000000000E+00  0.17206693228E+04  0.17206693228E+04  0.00000000000E+00 0. -1.
         -4   -1    0    0    0  501 -0.00000000000E+00 -0.00000000000E+00 -0.77559250950E+03  0.77559250950E+03  0.00000000000E+00 0. -1.
   -9000010    2    1    2    0  502 -0.85619864827E+03  0.57356217067E+01  0.92292302601E+03  0.16397574108E+04  0.10506704676E+04 0.  0.
         13    1    3    3    0    0  0.21348532670E+03 -0.76872907496E+02  0.36718359483E+01  0.22693373959E+03  0.10566000000E+00 0. -1.
         -4    1    3    3    0  502 -0.10696839750E+04  0.82608529203E+02  0.91925119006E+03  0.14128236712E+04  0.00000000000E+00 0. -1.
        -13    1    1    2    0    0  0.85619864827E+03 -0.57356217067E+01  0.22153787287E+02  0.85650442153E+03  0.10566000000E+00 0.  1.
<mgrwt>
<rscale>  1 0.12083383E+04</rscale>
<asrwt>0</asrwt>
<pdfrwt beam="1">  1       21 0.26471836E+00 0.13553662E+04</pdfrwt>
<pdfrwt beam="2">  1       -4 0.11932192E+00 0.13553662E+04</pdfrwt>
<totfact> 0.86756999E-01</totfact>
</mgrwt>
</event>
<event>
 6    2  0.2267664E-005  0.1063242E+04  0.7818608E-02  0.9571511E-01
         21   -1    0    0  501  502  0.00000000000E+00  0.00000000000E+00  0.21940590659E+03  0.21940590659E+03  0.00000000000E+00 0. -1.
         -4   -1    0    0    0  501 -0.00000000000E+00 -0.00000000000E+00 -0.26189132460E+04  0.26189132460E+04  0.00000000000E+00 0. -1.
   -9000010    2    1    2    0  502  0.31017929588E+03  0.10516408520E+03 -0.12399248369E+04  0.16333700782E+04  0.10115401776E+04 0.  0.
         13    1    3    3    0    0  0.16581786345E+03 -0.25071156169E+03 -0.12115511962E+04  0.12482820848E+04  0.10566000000E+00 0. -1.
         -4    1    3    3    0  502  0.14436143243E+03  0.35587564689E+03 -0.28373640677E+02  0.38508799346E+03  0.00000000000E+00 0. -1.
        -13    1    1    2    0    0 -0.31017929588E+03 -0.10516408520E+03 -0.11595825025E+04  0.12049490743E+04  0.10566000000E+00 0.  1.
<mgrwt>
<rscale>  1 0.79210786E+03</rscale>
<asrwt>0</asrwt>
<pdfrwt beam="1">  1       21 0.33754754E-01 0.10632423E+04</pdfrwt>
<pdfrwt beam="2">  1       -4 0.40290974E+00 0.10632423E+04</pdfrwt>
<totfact> 0.22603813E+00</totfact>
</mgrwt>
</event>
<event>
 6    2  0.2267664E-005  0.1010859E+04  0.7818608E-02  0.1014081E+00
         21   -1    0    0  501  502  0.00000000000E+00  0.00000000000E+00  0.44057125325E+03  0.44057125325E+03  0.00000000000E+00 0. -1.
         -4   -1    0    0    0  501 -0.00000000000E+00 -0.00000000000E+00 -0.72814279592E+03  0.72814279592E+03  0.00000000000E+00 0. -1.
   -9000010    2    1    2    0  502 -0.21798727881E+02  0.55845904981E+02 -0.15428412002E+03  0.10225651599E+04  0.10090797624E+04 0.  0.
         13    1    3    3    0    0 -0.13450432886E+03  0.47676737090E+03 -0.28001362513E+03  0.56903970148E+03  0.10566000000E+00 0. -1.
         -4    1    3    3    0  502  0.11270560098E+03 -0.42092146592E+03  0.12572950511E+03  0.45352545840E+03  0.00000000000E+00 0. -1.
        -13    1    1    2    0    0  0.21798727881E+02 -0.55845904981E+02 -0.13328742265E+03  0.14614888929E+03  0.10566000000E+00 0.  1.
<mgrwt>
<rscale>  1 0.49884383E+03</rscale>
<asrwt>0</asrwt>
<pdfrwt beam="1">  1       21 0.67780193E-01 0.10108590E+04</pdfrwt>
<pdfrwt beam="2">  1       -4 0.11202197E+00 0.10108590E+04</pdfrwt>
<totfact> 0.48391334E+01</totfact>
</mgrwt>
</event>
<event>
 6    2  0.2267664E-005  0.1068670E+04  0.7818608E-02  0.9512535E-01
         21   -1    0    0  501  502  0.00000000000E+00  0.00000000000E+00  0.18986973362E+04  0.18986973362E+04  0.00000000000E+00 0. -1.
         -4   -1    0    0    0  501 -0.00000000000E+00 -0.00000000000E+00 -0.28574799092E+03  0.28574799092E+03  0.00000000000E+00 0. -1.
   -9000010    2    1    2    0  502 -0.30251449369E+03 -0.25515790863E+03  0.12783292942E+04  0.16661875081E+04  0.99269051092E+03 0.  0.
         13    1    3    3    0    0 -0.43051721888E+03 -0.56940291002E+03  0.72743229014E+03  0.10191773632E+04  0.10566000000E+00 0. -1.
         -4    1    3    3    0  502  0.12800272518E+03  0.31424500139E+03  0.55089700403E+03  0.64701014490E+03  0.00000000000E+00 0. -1.
        -13    1    1    2    0    0  0.30251449369E+03  0.25515790863E+03  0.33462005106E+03  0.51825781901E+03  0.10566000000E+00 0.  1.
<mgrwt>
<rscale>  1 0.83365958E+03</rscale>
<asrwt>0</asrwt>
<pdfrwt beam="1">  1       21 0.29210727E+00 0.10686697E+04</pdfrwt>
<pdfrwt beam="2">  1       -4 0.43961231E-01 0.10686697E+04</pdfrwt>
<totfact> 0.58913865E+00</totfact>
</mgrwt>
</event>
<event>
 6    2  0.2267664E-005  0.1083138E+04  0.7818608E-02  0.9458039E-01
         -4   -1    0    0    0  501 -0.00000000000E+00  0.00000000000E+00  0.17046452691E+04  0.17046452691E+04  0.00000000000E+00 0. -1.
         21   -1    0    0  501  502  0.00000000000E+00 -0.00000000000E+00 -0.45528819360E+03  0.45528819360E+03  0.00000000000E+00 0. -1.
   -9000010    2    1    2    0  502  0.41041477816E+03 -0.20826172955E+03  0.13054610056E+04  0.16962947022E+04  0.98049683398E+03 0.  0.
         13    1    3    3    0    0  0.25853696656E+03  0.30598818362E+03  0.10044287253E+04  0.10813635868E+04  0.10566000000E+00 0. -1.
         -4    1    3    3    0  502  0.15187781160E+03 -0.51424991316E+03  0.30103228028E+03  0.61493111534E+03  0.00000000000E+00 0. -1.
        -13    1    1    2    0    0 -0.41041477816E+03  0.20826172955E+03 -0.56103930071E+02  0.46363876052E+03  0.10566000000E+00 0.  1.
<mgrwt>
<rscale>  1 0.87449423E+03</rscale>
<asrwt>0</asrwt>
<pdfrwt beam="2">  1       21 0.70044338E-01 0.10831377E+04</pdfrwt>
<pdfrwt beam="1">  1       -4 0.26225312E+00 0.10831377E+04</pdfrwt>
<totfact> 0.37323051E+00</totfact>
</mgrwt>
</event>
<event>
 6    2  0.2267664E-005  0.9980646E+03  0.7818608E-02  0.9891035E-01
         -4   -1    0    0    0  501 -0.00000000000E+00  0.00000000000E+00  0.97948459229E+03  0.97948459229E+03  0.00000000000E+00 0. -1.
         21   -1    0    0  501  502  0.00000000000E+00 -0.00000000000E+00 -0.32888890875E+03  0.32888890875E+03  0.00000000000E+00 0. -1.
   -9000010    2    1    2    0  502 -0.47820453595E+02  0.12787668493E+03  0.58544545719E+03  0.11570995592E+04  0.98868284306E+03 0.  0.
         13    1    3    3    0    0 -0.26308379827E+03  0.45415980007E+03  0.10078020513E+03  0.53444444971E+03  0.10566000000E+00 0. -1.
         -4    1    3    3    0  502  0.21526334468E+03 -0.32628311514E+03  0.48466525205E+03  0.62265510946E+03  0.00000000000E+00 0. -1.
        -13    1    1    2    0    0  0.47820453595E+02 -0.12787668493E+03  0.65150226357E+02  0.15127394187E+03  0.10566000000E+00 0.  1.
<mgrwt>
<rscale>  1 0.60697753E+03</rscale>
<asrwt>0</asrwt>
<pdfrwt beam="2">  1       21 0.50598294E-01 0.99806463E+03</pdfrwt>
<pdfrwt beam="1">  1       -4 0.15068994E+00 0.99806463E+03</pdfrwt>
<totfact> 0.43225262E+01</totfact>
</mgrwt>
</event>
<event>
 6    2  0.2267664E-005  0.9915338E+03  0.7818608E-02  0.9582921E-01
         21   -1    0    0  501  502  0.00000000000E+00  0.00000000000E+00  0.11440917124E+04  0.11440917124E+04  0.00000000000E+00 0.  1.
         -4   -1    0    0    0  501 -0.00000000000E+00 -0.00000000000E+00 -0.41710795427E+03  0.41710795427E+03  0.00000000000E+00 0. -1.
   -9000010    2    1    2    0  502 -0.36251846507E+03 -0.13911208410E+03  0.48635810444E+03  0.11043927864E+04  0.91234171861E+03 0.  0.
         13    1    3    3    0    0 -0.21058075494E+02  0.28285514127E+03 -0.10428487478E+03  0.30220162104E+03  0.10566000000E+00 0. -1.
         -4    1    3    3    0  502 -0.34146038958E+03 -0.42196722537E+03  0.59064297922E+03  0.80219116540E+03  0.00000000000E+00 0. -1.
        -13    1    1    2    0    0  0.36251846507E+03  0.13911208410E+03  0.24062565371E+03  0.45680688026E+03  0.10566000000E+00 0.  1.
<mgrwt>
<rscale>  1 0.78436952E+03</rscale>
<asrwt>0</asrwt>
<pdfrwt beam="1">  1       21 0.17601411E+00 0.99153377E+03</pdfrwt>
<pdfrwt beam="2">  1       -4 0.64170455E-01 0.99153377E+03</pdfrwt>
<totfact> 0.15420745E+01</totfact>
</mgrwt>
</event>
<event>
 6    2  0.2267664E-005  0.1010675E+04  0.7818608E-02  0.9925491E-01
         21   -1    0    0  501  502  0.00000000000E+00  0.00000000000E+00  0.63644917897E+03  0.63644917897E+03  0.00000000000E+00 0. -1.
         -4   -1    0    0    0  501 -0.00000000000E+00 -0.00000000000E+00 -0.50217091525E+03  0.50217091525E+03  0.00000000000E+00 0. -1.
   -9000010    2    1    2    0  502 -0.79173160395E+02  0.87099318623E+02  0.97821980525E+02  0.10153977246E+04  0.10037971501E+04 0.  0.
         13    1    3    3    0    0 -0.45554439754E+03 -0.19966786263E+03 -0.91553786837E+02  0.50573714571E+03  0.10566000000E+00 0. -1.
         -4    1    3    3    0  502  0.37637123714E+03  0.28676718126E+03  0.18937576736E+03  0.50966057887E+03  0.00000000000E+00 0. -1.
        -13    1    1    2    0    0  0.79173160395E+02 -0.87099318623E+02  0.36456283201E+02  0.12322236964E+03  0.10566000000E+00 0.  1.
<mgrwt>
<rscale>  1 0.59041613E+03</rscale>
<asrwt>0</asrwt>
<pdfrwt beam="1">  1       21 0.97915258E-01 0.10106747E+04</pdfrwt>
<pdfrwt beam="2">  1       -4 0.77257064E-01 0.10106747E+04</pdfrwt>
<totfact> 0.48981398E+01</totfact>
</mgrwt>
</event>
<event>
 6    2  0.2267664E-005  0.1007812E+04  0.7818608E-02  0.9838096E-01
         -4   -1    0    0    0  501 -0.00000000000E+00  0.00000000000E+00  0.10021675638E+04  0.10021675638E+04  0.00000000000E+00 0. -1.
         21   -1    0    0  501  502  0.00000000000E+00 -0.00000000000E+00 -0.62819917157E+03  0.62819917157E+03  0.00000000000E+00 0. -1.
   -9000010    2    1    2    0  502  0.52886412365E+01 -0.15732929082E+03 -0.20665546279E+03  0.10287817059E+04  0.99544203380E+03 0.  0.
         13    1    3    3    0    0 -0.41398880374E+02  0.26524929213E+03  0.27637555090E+03  0.38529795039E+03  0.10566000000E+00 0. -1.
         -4    1    3    3    0  502  0.46687521611E+02 -0.42257858295E+03 -0.48303101369E+03  0.64348375553E+03  0.00000000000E+00 0. -1.
        -13    1    1    2    0    0 -0.52886412365E+01  0.15732929082E+03  0.58062385506E+03  0.60158502948E+03  0.10566000000E+00 0.  1.
<mgrwt>
<rscale>  1 0.63357556E+03</rscale>
<asrwt>0</asrwt>
<pdfrwt beam="2">  1       21 0.96646026E-01 0.10078121E+04</pdfrwt>
<pdfrwt beam="1">  1       -4 0.15417963E+00 0.10078121E+04</pdfrwt>
<totfact> 0.91787840E+00</totfact>
</mgrwt>
</event>
<event>
 6    2  0.2267664E-005  0.1043668E+04  0.7818608E-02  0.9705243E-01
         -4   -1    0    0    0  501 -0.00000000000E+00  0.00000000000E+00  0.31635364586E+03  0.31635364586E+03  0.00000000000E+00 0. -1.
         21   -1    0    0  501  502  0.00000000000E+00 -0.00000000000E+00 -0.15957245329E+04  0.15957245329E+04  0.00000000000E+00 0.  1.
   -9000010    2    1    2    0  502 -0.10922268220E+03 -0.19079858484E+03 -0.61299893245E+03  0.12103764706E+04  0.10202498787E+04 0.  0.
         13    1    3    3    0    0 -0.21999780442E+03 -0.37209003018E+03  0.11885844609E+03  0.44830499203E+03  0.10566000000E+00 0. -1.
         -4    1    3    3    0  502  0.11077512222E+03  0.18129144534E+03 -0.73185737854E+03  0.76207147852E+03  0.00000000000E+00 0. -1.
        -13    1    1    2    0    0  0.10922268220E+03  0.19079858484E+03 -0.66637195454E+03  0.70170170817E+03  0.10566000000E+00 0.  1.
<mgrwt>
<rscale>  1 0.70705498E+03</rscale>
<asrwt>0</asrwt>
<pdfrwt beam="2">  1       21 0.24549608E+00 0.10436683E+04</pdfrwt>
<pdfrwt beam="1">  1       -4 0.48669791E-01 0.10436683E+04</pdfrwt>
<totfact> 0.93956214E+00</totfact>
</mgrwt>
</event>
<event>
 6    2  0.2267664E-005  0.1273484E+04  0.7818608E-02  0.9485035E-01
         -4   -1    0    0    0  501 -0.00000000000E+00  0.00000000000E+00  0.38379394726E+03  0.38379394726E+03  0.00000000000E+00 0. -1.
         21   -1    0    0  501  502  0.00000000000E+00 -0.00000000000E+00 -0.15315463597E+04  0.15315463597E+04  0.00000000000E+00 0.  1.
   -9000010    2    1    2    0  502  0.21201975912E+03  0.14612471368E+03 -0.91359428363E+03  0.15672959841E+04  0.12471797691E+04 0.  0.
         13    1    3    3    0    0  0.89007614997E+02  0.13086572735E+03  0.30436023458E+03  0.34305008043E+03  0.10566000000E+00 0. -1.
         -4    1    3    3    0  502  0.12301214413E+03  0.15258986330E+02 -0.12179545182E+04  0.12242459037E+04  0.00000000000E+00 0. -1.
        -13    1    1    2    0    0 -0.21201975912E+03 -0.14612471368E+03 -0.23415812876E+03  0.34804432280E+03  0.10566000000E+00 0.  1.
<mgrwt>
<rscale>  1 0.85396168E+03</rscale>
<asrwt>0</asrwt>
<pdfrwt beam="2">  1       21 0.23562251E+00 0.12734843E+04</pdfrwt>
<pdfrwt beam="1">  1       -4 0.59045223E-01 0.12734843E+04</pdfrwt>
<totfact> 0.69821283E+00</totfact>
</mgrwt>
</event>
<event>
 6    2  0.2267664E-005  0.1023373E+04  0.7818608E-02  0.9727705E-01
         -4   -1    0    0    0  501 -0.00000000000E+00  0.00000000000E+00  0.73254434045E+03  0.73254434045E+03  0.00000000000E+00 0. -1.
         21   -1    0    0  501  502  0.00000000000E+00 -0.00000000000E+00 -0.57086614649E+03  0.57086614649E+03  0.00000000000E+00 0. -1.
   -9000010    2    1    2    0  502  0.36819742003E+02  0.21316993481E+03 -0.15956712998E+02  0.10234974900E+04  0.10002476598E+04 0.  0.
         13    1    3    3    0    0 -0.18367866724E+03  0.55358584145E+03 -0.13911230639E+03  0.59962269937E+03  0.10566000000E+00 0. -1.
         -4    1    3    3    0  502  0.22049840924E+03 -0.34041590664E+03  0.12315559339E+03  0.42387479065E+03  0.00000000000E+00 0. -1.
        -13    1    1    2    0    0 -0.36819742003E+02 -0.21316993481E+03  0.17763490695E+03  0.27991299691E+03  0.10566000000E+00 0.  1.
<mgrwt>
<rscale>  1 0.69390960E+03</rscale>
<asrwt>0</asrwt>
<pdfrwt beam="2">  1       21 0.87825561E-01 0.10233731E+04</pdfrwt>
<pdfrwt beam="1">  1       -4 0.11269913E+00 0.10233731E+04</pdfrwt>
<totfact> 0.25991059E+01</totfact>
</mgrwt>
</event>
<event>
 6    2  0.2267664E-005  0.1017214E+04  0.7818608E-02  0.9749948E-01
         -4   -1    0    0    0  501 -0.00000000000E+00  0.00000000000E+00  0.61939406984E+03  0.61939406984E+03  0.00000000000E+00 0. -1.
         21   -1    0    0  501  502  0.00000000000E+00 -0.00000000000E+00 -0.61364471018E+03  0.61364471018E+03  0.00000000000E+00 0. -1.
   -9000010    2    1    2    0  502 -0.18469432601E+03  0.87959246600E+02 -0.57717020168E+02  0.10188500416E+04  0.99643129707E+03 0.  0.
         13    1    3    3    0    0  0.49267898371E+02  0.50921405982E+03  0.79725584952E+02  0.51776680523E+03  0.10566000000E+00 0. -1.
         -4    1    3    3    0  502 -0.23396222438E+03 -0.42125481322E+03 -0.13744260512E+03  0.50108323640E+03  0.00000000000E+00 0. -1.
        -13    1    1    2    0    0  0.18469432601E+03 -0.87959246600E+02  0.63466379822E+02  0.21418873839E+03  0.10566000000E+00 0.  1.
<mgrwt>
<rscale>  1 0.68119216E+03</rscale>
<asrwt>0</asrwt>
<pdfrwt beam="2">  1       21 0.94406878E-01 0.10172139E+04</pdfrwt>
<pdfrwt beam="1">  1       -4 0.95291396E-01 0.10172139E+04</pdfrwt>
<totfact> 0.32829746E+01</totfact>
</mgrwt>
</event>
<event>
 6    2  0.2267664E-005  0.1016277E+04  0.7818608E-02  0.9829437E-01
         -4   -1    0    0    0  501 -0.00000000000E+00  0.00000000000E+00  0.72176294781E+03  0.72176294781E+03  0.00000000000E+00 0. -1.
         21   -1    0    0  501  502  0.00000000000E+00 -0.00000000000E+00 -0.50817560708E+03  0.50817560708E+03  0.00000000000E+00 0. -1.
   -9000010    2    1    2    0  502  0.13094840915E+03 -0.88257983314E+02  0.73649863360E+02  0.10189421895E+04  0.10039332277E+04 0.  0.
         13    1    3    3    0    0 -0.34844396542E+03 -0.25095813263E+03 -0.16403252205E+03  0.45967364600E+03  0.10566000000E+00 0. -1.
         -4    1    3    3    0  502  0.47939237457E+03  0.16270014932E+03  0.23768238541E+03  0.55926854347E+03  0.00000000000E+00 0. -1.
        -13    1    1    2    0    0 -0.13094840915E+03  0.88257983314E+02  0.13993747737E+03  0.21099636541E+03  0.10566000000E+00 0.  1.
<mgrwt>
<rscale>  1 0.63806441E+03</rscale>
<asrwt>0</asrwt>
<pdfrwt beam="2">  1       21 0.78180862E-01 0.10162770E+04</pdfrwt>
<pdfrwt beam="1">  1       -4 0.11104045E+00 0.10162770E+04</pdfrwt>
<totfact> 0.35548040E+01</totfact>
</mgrwt>
</event>
<event>
 6    2  0.2267664E-005  0.1058572E+04  0.7818608E-02  0.9545168E-01
         21   -1    0    0  501  502  0.00000000000E+00  0.00000000000E+00  0.62748069643E+03  0.62748069643E+03  0.00000000000E+00 0. -1.
         -4   -1    0    0    0  501 -0.00000000000E+00 -0.00000000000E+00 -0.86220190356E+03  0.86220190356E+03  0.00000000000E+00 0. -1.
   -9000010    2    1    2    0  502  0.29129966322E+03  0.21744101169E+03 -0.29532623857E+01  0.10585764892E+04  0.99420288396E+03 0.  0.
         13    1    3    3    0    0  0.63033337361E+03  0.11914235316E+03  0.17263918155E+03  0.66431871897E+03  0.10566000000E+00 0. -1.
         -4    1    3    3    0  502 -0.33903371040E+03  0.98298658533E+02 -0.17559244393E+03  0.39425777027E+03  0.00000000000E+00 0. -1.
        -13    1    1    2    0    0 -0.29129966322E+03 -0.21744101169E+03 -0.23176794474E+03  0.43110611075E+03  0.10566000000E+00 0.  1.
<mgrwt>
<rscale>  1 0.81034154E+03</rscale>
<asrwt>0</asrwt>
<pdfrwt beam="1">  1       21 0.96535492E-01 0.10585724E+04</pdfrwt>
<pdfrwt beam="2">  1       -4 0.13264645E+00 0.10585724E+04</pdfrwt>
<totfact> 0.13632450E+01</totfact>
</mgrwt>
</event>
<event>
 6    2  0.2267664E-005  0.1139088E+04  0.7818608E-02  0.9365921E-01
         21   -1    0    0  501  502  0.00000000000E+00  0.00000000000E+00  0.11429172427E+04  0.11429172427E+04  0.00000000000E+00 0. -1.
         -4   -1    0    0    0  501 -0.00000000000E+00 -0.00000000000E+00 -0.88855212287E+03  0.88855212287E+03  0.00000000000E+00 0. -1.
   -9000010    2    1    2    0  502 -0.10092424258E+02 -0.54946884657E+03  0.68860660825E+03  0.13310526669E+04  0.99774960324E+03 0.  0.
         13    1    3    3    0    0  0.77839641879E+02  0.25519348301E+03  0.38098853494E+03  0.46511826296E+03  0.10566000000E+00 0. -1.
         -4    1    3    3    0  502 -0.87932066137E+02 -0.80466232958E+03  0.30761807331E+03  0.86593440394E+03  0.00000000000E+00 0. -1.
        -13    1    1    2    0    0  0.10092424258E+02  0.54946884657E+03 -0.43424148840E+03  0.70041669869E+03  0.10566000000E+00 0.  1.
<mgrwt>
<rscale>  1 0.94934075E+03</rscale>
<asrwt>0</asrwt>
<pdfrwt beam="1">  1       21 0.17583342E+00 0.11390883E+04</pdfrwt>
<pdfrwt beam="2">  1       -4 0.13670033E+00 0.11390883E+04</pdfrwt>
<totfact> 0.24972826E+00</totfact>
</mgrwt>
</event>
<event>
 6    2  0.2267664E-005  0.1010777E+04  0.7818608E-02  0.1004891E+00
         -4   -1    0    0    0  501 -0.00000000000E+00  0.00000000000E+00  0.96718693611E+03  0.96718693611E+03  0.00000000000E+00 0. -1.
         21   -1    0    0  501  502  0.00000000000E+00 -0.00000000000E+00 -0.45036215999E+03  0.45036215999E+03  0.00000000000E+00 0. -1.
   -9000010    2    1    2    0  502  0.10906891893E+02  0.78918698400E+02  0.12589875781E+03  0.10185875889E+04  0.10076324022E+04 0.  0.
         13    1    3    3    0    0 -0.25226786706E+03 -0.38972314260E+03 -0.93951488669E+01  0.46433983741E+03  0.10566000000E+00 0. -1.
         -4    1    3    3    0  502  0.26317475895E+03  0.46864184100E+03  0.13529390668E+03  0.55424775152E+03  0.00000000000E+00 0. -1.
        -13    1    1    2    0    0 -0.10906891893E+02 -0.78918698400E+02  0.39092601831E+03  0.39896150717E+03  0.10566000000E+00 0.  1.
<mgrwt>
<rscale>  1 0.53556688E+03</rscale>
<asrwt>0</asrwt>
<pdfrwt beam="2">  1       21 0.69286487E-01 0.10107770E+04</pdfrwt>
<pdfrwt beam="1">  1       -4 0.14879799E+00 0.10107770E+04</pdfrwt>
<totfact> 0.22195884E+01</totfact>
</mgrwt>
</event>
<event>
 6    2  0.2267664E-005  0.1038350E+04  0.7818608E-02  0.9649382E-01
         21   -1    0    0  501  502  0.00000000000E+00  0.00000000000E+00  0.13453537713E+04  0.13453537713E+04  0.00000000000E+00 0. -1.
         -4   -1    0    0    0  501 -0.00000000000E+00 -0.00000000000E+00 -0.32885033228E+03  0.32885033228E+03  0.00000000000E+00 0. -1.
   -9000010    2    1    2    0  502  0.24471449682E+03  0.11284832839E+03  0.92205176324E+03  0.13886501500E+04  0.10027710880E+04 0.  0.
         13    1    3    3    0    0 -0.12510109916E+03  0.48530277058E+03  0.34404031117E+03  0.60789210475E+03  0.10566000000E+00 0. -1.
         -4    1    3    3    0  502  0.36981559599E+03 -0.37245444219E+03  0.57801145208E+03  0.78075804528E+03  0.00000000000E+00 0. -1.
        -13    1    1    2    0    0 -0.24471449682E+03 -0.11284832839E+03  0.94451675802E+02  0.28555395357E+03  0.10566000000E+00 0.  1.
<mgrwt>
<rscale>  1 0.74112194E+03</rscale>
<asrwt>0</asrwt>
<pdfrwt beam="1">  1       21 0.20697750E+00 0.10383495E+04</pdfrwt>
<pdfrwt beam="2">  1       -4 0.50592359E-01 0.10383495E+04</pdfrwt>
<totfact> 0.15507795E+01</totfact>
</mgrwt>
</event>
<event>
 6    2  0.2267664E-005  0.1081831E+04  0.7818608E-02  0.9479332E-01
         21   -1    0    0  501  502  0.00000000000E+00  0.00000000000E+00  0.14547786998E+04  0.14547786998E+04  0.00000000000E+00 0. -1.
         -4   -1    0    0    0  501 -0.00000000000E+00 -0.00000000000E+00 -0.48382496929E+03  0.48382496929E+03  0.00000000000E+00 0. -1.
   -9000010    2    1    2    0  502  0.39144157179E+03 -0.17437097876E+03  0.10445467737E+04  0.15038075219E+04  0.99334151143E+03 0.  0.
         13    1    3    3    0    0 -0.23517607724E+03 -0.21013487865E+03  0.38070215772E+02  0.31766933598E+03  0.10566000000E+00 0. -1.
         -4    1    3    3    0  502  0.62661764904E+03  0.35763899886E+02  0.10064765579E+04  0.11861381860E+04  0.00000000000E+00 0. -1.
        -13    1    1    2    0    0 -0.39144157179E+03  0.17437097876E+03 -0.73593043186E+02  0.43479614710E+03  0.10566000000E+00 0.  1.
<mgrwt>
<rscale>  1 0.85824869E+03</rscale>
<asrwt>0</asrwt>
<pdfrwt beam="1">  1       21 0.22381211E+00 0.10818314E+04</pdfrwt>
<pdfrwt beam="2">  1       -4 0.74434611E-01 0.10818314E+04</pdfrwt>
<totfact> 0.51101163E+00</totfact>
</mgrwt>
</event>
<event>
 6    2  0.2267664E-005  0.9566988E+03  0.7818608E-02  0.9713225E-01
         21   -1    0    0  501  502  0.00000000000E+00  0.00000000000E+00  0.22573513887E+03  0.22573513887E+03  0.00000000000E+00 0. -1.
         -4   -1    0    0    0  501 -0.00000000000E+00 -0.00000000000E+00 -0.17870102037E+04  0.17870102037E+04  0.00000000000E+00 0. -1.
   -9000010    2    1    2    0  502  0.91574487506E+02  0.26237587947E+03 -0.98592874254E+03  0.13738005948E+04  0.91544830556E+03 0.  0.
         13    1    3    3    0    0  0.30664405265E+03  0.25992169970E+03 -0.10698862787E+04  0.11429114251E+04  0.10566000000E+00 0. -1.
         -4    1    3    3    0  502 -0.21506956515E+03  0.24541797763E+01  0.83957536158E+02  0.23088916980E+03  0.00000000000E+00 0. -1.
        -13    1    1    2    0    0 -0.91574487506E+02 -0.26237587947E+03 -0.57534632226E+03  0.63894474768E+03  0.10566000000E+00 0.  1.
<mgrwt>
<rscale>  1 0.70234835E+03</rscale>
<asrwt>0</asrwt>
<pdfrwt beam="1">  1       21 0.34728483E-01 0.95669880E+03</pdfrwt>
<pdfrwt beam="2">  1       -4 0.27492465E+00 0.95669880E+03</pdfrwt>
<totfact> 0.14464715E+01</totfact>
</mgrwt>
</event>
<event>
 6    2  0.2267664E-005  0.1036943E+04  0.7818608E-02  0.9668846E-01
         21   -1    0    0  501  502  0.00000000000E+00  0.00000000000E+00  0.18324360816E+04  0.18324360816E+04  0.00000000000E+00 0. -1.
         -4   -1    0    0    0  501 -0.00000000000E+00 -0.00000000000E+00 -0.23159008650E+03  0.23159008650E+03  0.00000000000E+00 0. -1.
   -9000010    2    1    2    0  502  0.10495302716E+02 -0.25312169958E+03  0.11627953413E+04  0.15579934294E+04  0.10055196538E+04 0.  0.
         13    1    3    3    0    0  0.10525267424E+03 -0.49222407830E+03  0.11970074989E+04  0.12985336469E+04  0.10566000000E+00 0. -1.
         -4    1    3    3    0  502 -0.94757371526E+02  0.23910237871E+03 -0.34212157630E+02  0.25945978242E+03  0.00000000000E+00 0. -1.
        -13    1    1    2    0    0 -0.10495302716E+02  0.25312169958E+03  0.43805065381E+03  0.50603273871E+03  0.10566000000E+00 0.  1.
<mgrwt>
<rscale>  1 0.72902393E+03</rscale>
<asrwt>0</asrwt>
<pdfrwt beam="1">  1       21 0.28191323E+00 0.10369429E+04</pdfrwt>
<pdfrwt beam="2">  1       -4 0.35629245E-01 0.10369429E+04</pdfrwt>
<totfact> 0.10517310E+01</totfact>
</mgrwt>
</event>
<event>
 6    2  0.2267664E-005  0.1065358E+04  0.7818608E-02  0.9641035E-01
         21   -1    0    0  501  502  0.00000000000E+00  0.00000000000E+00  0.12602490213E+03  0.12602490213E+03  0.00000000000E+00 0. -1.
         -4   -1    0    0    0  501 -0.00000000000E+00 -0.00000000000E+00 -0.37230182024E+04  0.37230182024E+04  0.00000000000E+00 0. -1.
   -9000010    2    1    2    0  502  0.14183916039E+03  0.21391523086E+03 -0.24157137999E+04  0.26402009549E+04  0.10339776816E+04 0.  0.
         13    1    3    3    0    0  0.49211846474E+02  0.56351801337E+03 -0.20470061228E+04  0.21237251317E+04  0.10566000000E+00 0. -1.
         -4    1    3    3    0  502  0.92627313918E+02 -0.34960278251E+03 -0.36870767711E+03  0.51647582323E+03  0.00000000000E+00 0. -1.
        -13    1    1    2    0    0 -0.14183916039E+03 -0.21391523086E+03 -0.11812795004E+04  0.12088421496E+04  0.10566000000E+00 0.  1.
<mgrwt>
<rscale>  1 0.74638746E+03</rscale>
<asrwt>0</asrwt>
<pdfrwt beam="1">  1       21 0.19388450E-01 0.10653581E+04</pdfrwt>
<pdfrwt beam="2">  1       -4 0.57277192E+00 0.10653581E+04</pdfrwt>
<totfact> 0.31267113E-01</totfact>
</mgrwt>
</event>
<event>
 6    2  0.2267664E-005  0.1001848E+04  0.7818608E-02  0.9809377E-01
         21   -1    0    0  501  502  0.00000000000E+00  0.00000000000E+00  0.82500967110E+03  0.82500967110E+03  0.00000000000E+00 0.  1.
         -4   -1    0    0    0  501 -0.00000000000E+00 -0.00000000000E+00 -0.43656396806E+03  0.43656396806E+03  0.00000000000E+00 0. -1.
   -9000010    2    1    2    0  502  0.36567925786E+02 -0.17217435141E+03  0.23729790128E+03  0.10295674116E+04  0.98626443748E+03 0.  0.
         13    1    3    3    0    0 -0.18014117585E+03  0.34486269605E+03 -0.62117765977E+02  0.39400475934E+03  0.10566000000E+00 0. -1.
         -4    1    3    3    0  502  0.21670910164E+03 -0.51703704746E+03  0.29941566726E+03  0.63556265228E+03  0.00000000000E+00 0. -1.
        -13    1    1    2    0    0 -0.36567925786E+02  0.17217435141E+03  0.15114780175E+03  0.23200622754E+03  0.10566000000E+00 0.  1.
<mgrwt>
<rscale>  1 0.64861750E+03</rscale>
<asrwt>0</asrwt>
<pdfrwt beam="1">  1       21 0.12692456E+00 0.10018477E+04</pdfrwt>
<pdfrwt beam="2">  1       -4 0.67163687E-01 0.10018477E+04</pdfrwt>
<totfact> 0.34687141E+01</totfact>
</mgrwt>
</event>
<event>
 6    2  0.2267664E-005  0.1021073E+04  0.7818608E-02  0.9729781E-01
         -4   -1    0    0    0  501 -0.00000000000E+00  0.00000000000E+00  0.13840608416E+04  0.13840608416E+04  0.00000000000E+00 0. -1.
         21   -1    0    0  501  502  0.00000000000E+00 -0.00000000000E+00 -0.32895681535E+03  0.32895681535E+03  0.00000000000E+00 0. -1.
   -9000010    2    1    2    0  502 -0.16034523069E+03 -0.14515640757E+03  0.54159715957E+03  0.11558190488E+04  0.99790240734E+03 0.  0.
         13    1    3    3    0    0 -0.23582345247E+03  0.33495936524E+03  0.52975187362E+03  0.66966225506E+03  0.10566000000E+00 0. -1.
         -4    1    3    3    0  502  0.75478221775E+02 -0.48011577281E+03  0.11845285957E+02  0.48615679370E+03  0.00000000000E+00 0. -1.
        -13    1    1    2    0    0  0.16034523069E+03  0.14515640757E+03  0.51350686673E+03  0.55719860822E+03  0.10566000000E+00 0.  1.
<mgrwt>
<rscale>  1 0.69270973E+03</rscale>
<asrwt>0</asrwt>
<pdfrwt beam="2">  1       21 0.50608742E-01 0.10210731E+04</pdfrwt>
<pdfrwt beam="1">  1       -4 0.21293243E+00 0.10210731E+04</pdfrwt>
<totfact> 0.15823743E+01</totfact>
</mgrwt>
</event>
<event>
 6    2  0.2267664E-005  0.1336567E+04  0.7818608E-02  0.9112371E-01
         -4   -1    0    0    0  501 -0.00000000000E+00  0.00000000000E+00  0.11723939763E+04  0.11723939763E+04  0.00000000000E+00 0. -1.
         21   -1    0    0  501  502  0.00000000000E+00 -0.00000000000E+00 -0.17218954012E+04  0.17218954012E+04  0.00000000000E+00 0.  1.
   -9000010    2    1    2    0  502 -0.17912913745E+03 -0.85143318236E+03 -0.12092133281E+04  0.18023894195E+04  0.10145861397E+04 0.  0.
         13    1    3    3    0    0 -0.28979906663E+03  0.58866956118E+02 -0.68504639820E+03  0.74614837425E+03  0.10566000000E+00 0. -1.
         -4    1    3    3    0  502  0.11066992918E+03 -0.91030013847E+03 -0.52416692993E+03  0.10562410453E+04  0.00000000000E+00 0. -1.
        -13    1    1    2    0    0  0.17912913745E+03  0.85143318236E+03  0.65971190325E+03  0.10918999580E+04  0.10566000000E+00 0.  1.
<mgrwt>
<rscale>  1 0.12005543E+04</rscale>
<asrwt>0</asrwt>
<pdfrwt beam="2">  1       21 0.26490698E+00 0.13365668E+04</pdfrwt>
<pdfrwt beam="1">  1       -4 0.18036830E+00 0.13365668E+04</pdfrwt>
<totfact> 0.28471091E-01</totfact>
</mgrwt>
</event>
<event>
 6    2  0.2267664E-005  0.1015895E+04  0.7818608E-02  0.9780124E-01
         21   -1    0    0  501  502  0.00000000000E+00  0.00000000000E+00  0.47020974664E+03  0.47020974664E+03  0.00000000000E+00 0. -1.
         -4   -1    0    0    0  501 -0.00000000000E+00 -0.00000000000E+00 -0.13312073862E+04  0.13312073862E+04  0.00000000000E+00 0. -1.
   -9000010    2    1    2    0  502  0.12549006182E+03  0.13709401750E+03 -0.10315695052E+03  0.10211190831E+04  0.99874936809E+03 0.  0.
         13    1    3    3    0    0  0.37023856799E+03 -0.29346627982E+03  0.10487527179E+03  0.48393996365E+03  0.10566000000E+00 0. -1.
         -4    1    3    3    0  502 -0.24474850618E+03  0.43056029731E+03 -0.20803222230E+03  0.53717911949E+03  0.00000000000E+00 0. -1.
        -13    1    1    2    0    0 -0.12549006182E+03 -0.13709401750E+03 -0.75784068908E+03  0.78029804974E+03  0.10566000000E+00 0.  1.
<mgrwt>
<rscale>  1 0.66440199E+03</rscale>
<asrwt>0</asrwt>
<pdfrwt beam="1">  1       21 0.72339962E-01 0.10158951E+04</pdfrwt>
<pdfrwt beam="2">  1       -4 0.20480113E+00 0.10158951E+04</pdfrwt>
<totfact> 0.80504578E+00</totfact>
</mgrwt>
</event>
<event>
 6    2  0.2267664E-005  0.1007830E+04  0.7818608E-02  0.9960624E-01
         21   -1    0    0  501  502  0.00000000000E+00  0.00000000000E+00  0.22505188654E+04  0.22505188654E+04  0.00000000000E+00 0. -1.
         -4   -1    0    0    0  501 -0.00000000000E+00 -0.00000000000E+00 -0.13935629892E+03  0.13935629892E+03  0.00000000000E+00 0. -1.
   -9000010    2    1    2    0  502  0.82167655041E+02  0.67164415141E+02  0.19745713754E+04  0.22169019096E+04  0.10022272088E+04 0.  0.
         13    1    3    3    0    0 -0.30666750940E+03  0.19718504655E+03  0.24467165109E+03  0.43907986963E+03  0.10566000000E+00 0. -1.
         -4    1    3    3    0  502  0.38883516444E+03 -0.13002063141E+03  0.17298997243E+04  0.17778220400E+04  0.00000000000E+00 0. -1.
        -13    1    1    2    0    0 -0.82167655041E+02 -0.67164415141E+02  0.13659119106E+03  0.17297325468E+03  0.10566000000E+00 0.  1.
<mgrwt>
<rscale>  1 0.57411034E+03</rscale>
<asrwt>0</asrwt>
<pdfrwt beam="1">  1       21 0.34623365E+00 0.10078303E+04</pdfrwt>
<pdfrwt beam="2">  1       -4 0.21439432E-01 0.10078303E+04</pdfrwt>
<totfact> 0.11222920E+01</totfact>
</mgrwt>
</event>
<event>
 6    2  0.2267664E-005  0.1006084E+04  0.7818608E-02  0.1015121E+00
         -4   -1    0    0    0  501 -0.00000000000E+00  0.00000000000E+00  0.23143415730E+03  0.23143415730E+03  0.00000000000E+00 0. -1.
         21   -1    0    0  501  502  0.00000000000E+00 -0.00000000000E+00 -0.16581518549E+04  0.16581518549E+04  0.00000000000E+00 0. -1.
   -9000010    2    1    2    0  502  0.49038301962E+02  0.32632258528E+02 -0.14933577130E+04  0.18006448958E+04  0.10043580848E+04 0.  0.
         13    1    3    3    0    0 -0.16873352147E+03  0.14197960172E+03  0.59801878277E+02  0.22848519510E+03  0.10566000000E+00 0. -1.
         -4    1    3    3    0  502  0.21777182343E+03 -0.10934734319E+03 -0.15531595913E+04  0.15721597007E+04  0.00000000000E+00 0. -1.
        -13    1    1    2    0    0 -0.49038301962E+02 -0.32632258528E+02  0.66640015443E+02  0.88941116354E+02  0.10566000000E+00 0.  1.
<mgrwt>
<rscale>  1 0.49489270E+03</rscale>
<asrwt>0</asrwt>
<pdfrwt beam="2">  1       21 0.25510028E+00 0.10060839E+04</pdfrwt>
<pdfrwt beam="1">  1       -4 0.35605255E-01 0.10060839E+04</pdfrwt>
<totfact> 0.15589843E+01</totfact>
</mgrwt>
</event>
<event>
 6    2  0.2267664E-005  0.1043904E+04  0.7818608E-02  0.9619330E-01
         -4   -1    0    0    0  501 -0.00000000000E+00  0.00000000000E+00  0.38273025695E+03  0.38273025695E+03  0.00000000000E+00 0. -1.
         21   -1    0    0  501  502  0.00000000000E+00 -0.00000000000E+00 -0.11900148371E+04  0.11900148371E+04  0.00000000000E+00 0.  1.
   -9000010    2    1    2    0  502 -0.45786958055E+02 -0.29014472063E+03 -0.71333512841E+03  0.12643510035E+04  0.10017265346E+04 0.  0.
         13    1    3    3    0    0  0.44720494810E+03  0.37233554889E+02 -0.35815805365E+03  0.57415660388E+03  0.10566000000E+00 0. -1.
         -4    1    3    3    0  502 -0.49299190616E+03 -0.32737827552E+03 -0.35517707476E+03  0.69019439961E+03  0.00000000000E+00 0. -1.
        -13    1    1    2    0    0  0.45786958055E+02  0.29014472063E+03 -0.93949451714E+02  0.30839409054E+03  0.10566000000E+00 0.  1.
<mgrwt>
<rscale>  1 0.76029929E+03</rscale>
<asrwt>0</asrwt>
<pdfrwt beam="2">  1       21 0.18307920E+00 0.10439044E+04</pdfrwt>
<pdfrwt beam="1">  1       -4 0.58881578E-01 0.10439044E+04</pdfrwt>
<totfact> 0.16432939E+01</totfact>
</mgrwt>
</event>
<event>
 6    2  0.2267664E-005  0.1012656E+04  0.7818608E-02  0.9843109E-01
         -4   -1    0    0    0  501 -0.00000000000E+00  0.00000000000E+00  0.83229473232E+03  0.83229473232E+03  0.00000000000E+00 0. -1.
         21   -1    0    0  501  502  0.00000000000E+00 -0.00000000000E+00 -0.52549202851E+03  0.52549202851E+03  0.00000000000E+00 0. -1.
   -9000010    2    1    2    0  502 -0.11780507081E+03  0.97088709851E+02 -0.27262656558E+01  0.10126600502E+04  0.10010837590E+04 0.  0.
         13    1    3    3    0    0 -0.23791450800E+03  0.94890807568E+02 -0.46725189191E+03  0.53285262516E+03  0.10566000000E+00 0. -1.
         -4    1    3    3    0  502  0.12010943719E+03  0.21979022831E+01  0.46452562626E+03  0.47980742504E+03  0.00000000000E+00 0. -1.
        -13    1    1    2    0    0  0.11780507081E+03 -0.97088709851E+02  0.30952896946E+03  0.34512671063E+03  0.10566000000E+00 0.  1.
<mgrwt>
<rscale>  1 0.63099512E+03</rscale>
<asrwt>0</asrwt>
<pdfrwt beam="2">  1       21 0.80844928E-01 0.10126564E+04</pdfrwt>
<pdfrwt beam="1">  1       -4 0.12804534E+00 0.10126564E+04</pdfrwt>
<totfact> 0.22978915E+01</totfact>
</mgrwt>
</event>
<event>
 6    2  0.2267664E-005  0.1058123E+04  0.7818608E-02  0.9630026E-01
         -4   -1    0    0    0  501 -0.00000000000E+00  0.00000000000E+00  0.10035751944E+04  0.10035751944E+04  0.00000000000E+00 0. -1.
         21   -1    0    0  501  502  0.00000000000E+00 -0.00000000000E+00 -0.10055219430E+04  0.10055219430E+04  0.00000000000E+00 0. -1.
   -9000010    2    1    2    0  502  0.18682167439E+03 -0.19763339760E+03 -0.69407870216E+03  0.12654520943E+04  0.10225763836E+04 0.  0.
         13    1    3    3    0    0 -0.24376016953E+03  0.22650567926E+03 -0.55207005583E+03  0.64459692886E+03  0.10566000000E+00 0. -1.
         -4    1    3    3    0  502  0.43058184391E+03 -0.42413907687E+03 -0.14200864632E+03  0.62085516545E+03  0.00000000000E+00 0. -1.
        -13    1    1    2    0    0 -0.18682167439E+03  0.19763339760E+03  0.69213195350E+03  0.74364504307E+03  0.10566000000E+00 0.  1.
<mgrwt>
<rscale>  1 0.75340346E+03</rscale>
<asrwt>0</asrwt>
<pdfrwt beam="2">  1       21 0.15469568E+00 0.10581228E+04</pdfrwt>
<pdfrwt beam="1">  1       -4 0.15439618E+00 0.10581228E+04</pdfrwt>
<totfact> 0.26474867E+00</totfact>
</mgrwt>
</event>
<event>
 6    2  0.2267664E-005  0.1046739E+04  0.7818608E-02  0.9713108E-01
         -4   -1    0    0    0  501 -0.00000000000E+00  0.00000000000E+00  0.65020812949E+03  0.65020812949E+03  0.00000000000E+00 0. -1.
         21   -1    0    0  501  502  0.00000000000E+00 -0.00000000000E+00 -0.67715128385E+03  0.67715128385E+03  0.00000000000E+00 0. -1.
   -9000010    2    1    2    0  502 -0.19007828804E+03 -0.94466676427E+02 -0.18468254766E+03  0.10629063251E+04  0.10249919531E+04 0.  0.
         13    1    3    3    0    0 -0.40879515027E+03 -0.43509703088E+03  0.42834683566E+02  0.59854634110E+03  0.10566000000E+00 0. -1.
         -4    1    3    3    0  502  0.21871686223E+03  0.34063035445E+03 -0.22751723122E+03  0.46435998396E+03  0.00000000000E+00 0. -1.
        -13    1    1    2    0    0  0.19007828804E+03  0.94466676427E+02  0.15773939329E+03  0.26445308828E+03  0.10566000000E+00 0.  1.
<mgrwt>
<rscale>  1 0.70241712E+03</rscale>
<asrwt>0</asrwt>
<pdfrwt beam="2">  1       21 0.10417712E+00 0.10467388E+04</pdfrwt>
<pdfrwt beam="1">  1       -4 0.10003202E+00 0.10467388E+04</pdfrwt>
<totfact> 0.22839760E+01</totfact>
</mgrwt>
</event>
<event>
 6    2  0.2267664E-005  0.1019539E+04  0.7818608E-02  0.9794621E-01
         -4   -1    0    0    0  501 -0.00000000000E+00  0.00000000000E+00  0.71189587491E+03  0.71189587491E+03  0.00000000000E+00 0. -1.
         21   -1    0    0  501  502  0.00000000000E+00 -0.00000000000E+00 -0.54292636581E+03  0.54292636581E+03  0.00000000000E+00 0. -1.
   -9000010    2    1    2    0  502  0.14186459659E+03  0.10297805415E+03  0.12143862826E+02  0.10196109784E+04  0.10043550321E+04 0.  0.
         13    1    3    3    0    0 -0.14107659830E+03 -0.93771242640E+01  0.45822839047E+03  0.47954541604E+03  0.10566000000E+00 0. -1.
         -4    1    3    3    0  502  0.28294119490E+03  0.11235517841E+03 -0.44608452765E+03  0.54006556240E+03  0.00000000000E+00 0. -1.
        -13    1    1    2    0    0 -0.14186459659E+03 -0.10297805415E+03  0.15682564628E+03  0.23521126227E+03  0.10566000000E+00 0.  1.
<mgrwt>
<rscale>  1 0.65652035E+03</rscale>
<asrwt>0</asrwt>
<pdfrwt beam="2">  1       21 0.83527133E-01 0.10195387E+04</pdfrwt>
<pdfrwt beam="1">  1       -4 0.10952244E+00 0.10195387E+04</pdfrwt>
<totfact> 0.31453270E+01</totfact>
</mgrwt>
</event>
<event>
 6    2  0.2267664E-005  0.1005223E+04  0.7818608E-02  0.9900984E-01
         -4   -1    0    0    0  501 -0.00000000000E+00  0.00000000000E+00  0.99264463216E+03  0.99264463216E+03  0.00000000000E+00 0. -1.
         21   -1    0    0  501  502  0.00000000000E+00 -0.00000000000E+00 -0.35974559834E+03  0.35974559834E+03  0.00000000000E+00 0. -1.
   -9000010    2    1    2    0  502  0.91732905473E+02 -0.91289704196E+02  0.39204435992E+03  0.10789679908E+04  0.99685726615E+03 0.  0.
         13    1    3    3    0    0  0.65949984703E+02  0.85508293177E+02 -0.32371220820E+03  0.34124869756E+03  0.10566000000E+00 0. -1.
         -4    1    3    3    0  502  0.25782920770E+02 -0.17679799737E+03  0.71575656812E+03  0.73771929328E+03  0.00000000000E+00 0. -1.
        -13    1    1    2    0    0 -0.91732905473E+02  0.91289704196E+02  0.24085467390E+03  0.27342223966E+03  0.10566000000E+00 0.  1.
<mgrwt>
<rscale>  1 0.60213598E+03</rscale>
<asrwt>0</asrwt>
<pdfrwt beam="2">  1       21 0.55345477E-01 0.10052229E+04</pdfrwt>
<pdfrwt beam="1">  1       -4 0.15271456E+00 0.10052229E+04</pdfrwt>
<totfact> 0.34269251E+01</totfact>
</mgrwt>
</event>
<event>
 6    2  0.2267664E-005  0.1063099E+04  0.7818608E-02  0.9551380E-01
         21   -1    0    0  501  502  0.00000000000E+00  0.00000000000E+00  0.10416116353E+04  0.10416116353E+04  0.00000000000E+00 0. -1.
         -4   -1    0    0    0  501 -0.00000000000E+00 -0.00000000000E+00 -0.49581932919E+03  0.49581932919E+03  0.00000000000E+00 0. -1.
   -9000010    2    1    2    0  502  0.20398796078E+03  0.28593825807E+03  0.52475718570E+03  0.11855584548E+04  0.10033977129E+04 0.  0.
         13    1    3    3    0    0  0.55564171114E+03  0.12884546352E+03  0.55932391127E+03  0.79886301298E+03  0.10566000000E+00 0. -1.
         -4    1    3    3    0  502 -0.35165375035E+03  0.15709279455E+03 -0.34566725578E+02  0.38669544186E+03  0.00000000000E+00 0. -1.
        -13    1    1    2    0    0 -0.20398796078E+03 -0.28593825807E+03  0.21035120390E+02  0.35187250962E+03  0.10566000000E+00 0.  1.
<mgrwt>
<rscale>  1 0.80599465E+03</rscale>
<asrwt>0</asrwt>
<pdfrwt beam="1">  1       21 0.16024794E+00 0.10630987E+04</pdfrwt>
<pdfrwt beam="2">  1       -4 0.76279897E-01 0.10630987E+04</pdfrwt>
<totfact> 0.13652002E+01</totfact>
</mgrwt>
</event>
<event>
 6    2  0.2267664E-005  0.1158963E+04  0.7818608E-02  0.9338984E-01
         21   -1    0    0  501  502  0.00000000000E+00  0.00000000000E+00  0.51438541961E+03  0.51438541961E+03  0.00000000000E+00 0.  1.
         -4   -1    0    0    0  501 -0.00000000000E+00 -0.00000000000E+00 -0.19183598210E+04  0.19183598210E+04  0.00000000000E+00 0. -1.
   -9000010    2    1    2    0  502  0.24797368209E+03  0.51888650497E+03 -0.31462349840E+03  0.12009093940E+04  0.10062113470E+04 0.  0.
         13    1    3    3    0    0  0.29912875433E+03  0.56511793076E+03  0.20905502105E+03  0.67271115668E+03  0.10566000000E+00 0. -1.
         -4    1    3    3    0  502 -0.51155072243E+02 -0.46231425794E+02 -0.52367851945E+03  0.52819823729E+03  0.00000000000E+00 0. -1.
        -13    1    1    2    0    0 -0.24797368209E+03 -0.51888650497E+03 -0.10893509030E+04  0.12318358466E+04  0.10566000000E+00 0.  1.
<mgrwt>
<rscale>  1 0.97271829E+03</rscale>
<asrwt>0</asrwt>
<pdfrwt beam="1">  1       21 0.79136220E-01 0.11589631E+04</pdfrwt>
<pdfrwt beam="2">  1       -4 0.29513227E+00 0.11589631E+04</pdfrwt>
<totfact> 0.17426393E+00</totfact>
</mgrwt>
</event>
<event>
 6    2  0.2267664E-005  0.1063528E+04  0.7818608E-02  0.9689278E-01
         -4   -1    0    0    0  501 -0.00000000000E+00  0.00000000000E+00  0.15786921257E+04  0.15786921257E+04  0.00000000000E+00 0. -1.
         21   -1    0    0  501  502  0.00000000000E+00 -0.00000000000E+00 -0.26094071019E+03  0.26094071019E+03  0.00000000000E+00 0.  1.
   -9000010    2    1    2    0  502  0.84671121292E+02  0.20218108380E+03  0.11183864649E+04  0.15433343645E+04  0.10406950978E+04 0.  0.
         13    1    3    3    0    0  0.55192307449E+02  0.39103146567E+03 -0.13779260568E+02  0.39514766497E+03  0.10566000000E+00 0. -1.
         -4    1    3    3    0  502  0.29478813843E+02 -0.18885038187E+03  0.11321657254E+04  0.11481866995E+04  0.00000000000E+00 0. -1.
        -13    1    1    2    0    0 -0.84671121292E+02 -0.20218108380E+03  0.19936495070E+03  0.29629847141E+03  0.10566000000E+00 0.  1.
<mgrwt>
<rscale>  1 0.71658792E+03</rscale>
<asrwt>0</asrwt>
<pdfrwt beam="2">  1       21 0.40144726E-01 0.10635284E+04</pdfrwt>
<pdfrwt beam="1">  1       -4 0.24287571E+00 0.10635284E+04</pdfrwt>
<totfact> 0.16685885E+01</totfact>
</mgrwt>
</event>
<event>
 6    2  0.2267664E-005  0.1024118E+04  0.7818608E-02  0.9750395E-01
         21   -1    0    0  501  502  0.00000000000E+00  0.00000000000E+00  0.10016306382E+04  0.10016306382E+04  0.00000000000E+00 0. -1.
         -4   -1    0    0    0  501 -0.00000000000E+00 -0.00000000000E+00 -0.37518121491E+03  0.37518121491E+03  0.00000000000E+00 0. -1.
   -9000010    2    1    2    0  502 -0.19430039583E+03 -0.48087861637E+02  0.49613362227E+03  0.11379660757E+04  0.10043670305E+04 0.  0.
         13    1    3    3    0    0 -0.59469347495E+03 -0.12261638611E+03  0.37244624080E+03  0.71232809908E+03  0.10566000000E+00 0. -1.
         -4    1    3    3    0  502  0.40039307912E+03  0.74528524469E+02  0.12368738146E+03  0.42563797658E+03  0.00000000000E+00 0. -1.
        -13    1    1    2    0    0  0.19430039583E+03  0.48087861637E+02  0.13031580105E+03  0.23884577748E+03  0.10566000000E+00 0.  1.
<mgrwt>
<rscale>  1 0.68093932E+03</rscale>
<asrwt>0</asrwt>
<pdfrwt beam="1">  1       21 0.15409702E+00 0.10241183E+04</pdfrwt>
<pdfrwt beam="2">  1       -4 0.57720187E-01 0.10241183E+04</pdfrwt>
<totfact> 0.28453018E+01</totfact>
</mgrwt>
</event>
<event>
 6    2  0.2267664E-005  0.1169544E+04  0.7818608E-02  0.9312082E-01
         -4   -1    0    0    0  501 -0.00000000000E+00  0.00000000000E+00  0.88969580815E+03  0.88969580815E+03  0.00000000000E+00 0. -1.
         21   -1    0    0  501  502  0.00000000000E+00 -0.00000000000E+00 -0.10649933842E+04  0.10649933842E+04  0.00000000000E+00 0. -1.
   -9000010    2    1    2    0  502  0.32501999481E+03 -0.52456186902E+03 -0.48273613633E+03  0.12652534586E+04  0.99349332440E+03 0.  0.
         13    1    3    3    0    0  0.28899164858E+03  0.25488229775E+03 -0.20893777878E+03  0.43833339505E+03  0.10566000000E+00 0. -1.
         -4    1    3    3    0  502  0.36028346231E+02 -0.77944416677E+03 -0.27379835755E+03  0.82692006351E+03  0.00000000000E+00 0. -1.
        -13    1    1    2    0    0 -0.32501999481E+03  0.52456186902E+03  0.30743856031E+03  0.68943573376E+03  0.10566000000E+00 0.  1.
<mgrwt>
<rscale>  1 0.99678127E+03</rscale>
<asrwt>0</asrwt>
<pdfrwt beam="2">  1       21 0.16384514E+00 0.11695436E+04</pdfrwt>
<pdfrwt beam="1">  1       -4 0.13687628E+00 0.11695436E+04</pdfrwt>
<totfact> 0.30512928E+00</totfact>
</mgrwt>
</event>
<event>
 6    2  0.2267664E-005  0.1059747E+04  0.7818608E-02  0.9440640E-01
         21   -1    0    0  501  502  0.00000000000E+00  0.00000000000E+00  0.24606907518E+04  0.24606907518E+04  0.00000000000E+00 0. -1.
         -4   -1    0    0    0  501 -0.00000000000E+00 -0.00000000000E+00 -0.48065641824E+03  0.48065641824E+03  0.00000000000E+00 0. -1.
   -9000010    2    1    2    0  502 -0.51587593418E+03 -0.83407012993E+02  0.21457056914E+04  0.23931394363E+04  0.92194291496E+03 0.  0.
         13    1    3    3    0    0 -0.52111282435E+03  0.70842040770E+02  0.21735860226E+04  0.22363035078E+04  0.10566000000E+00 0. -1.
         -4    1    3    3    0  502  0.52368901648E+01 -0.15424905376E+03 -0.27880331187E+02  0.15683592851E+03  0.00000000000E+00 0. -1.
        -13    1    1    2    0    0  0.51587593418E+03  0.83407012993E+02 -0.16567135785E+03  0.54820773367E+03  0.10566000000E+00 0.  1.
<mgrwt>
<rscale>  1 0.88805279E+03</rscale>
<asrwt>0</asrwt>
<pdfrwt beam="1">  1       21 0.37856780E+00 0.10597469E+04</pdfrwt>
<pdfrwt beam="2">  1       -4 0.73947143E-01 0.10597469E+04</pdfrwt>
<totfact> 0.54642992E-01</totfact>
</mgrwt>
</event>
<event>
 6    2  0.2267664E-005  0.1008050E+04  0.7818608E-02  0.9867854E-01
         21   -1    0    0  501  502  0.00000000000E+00  0.00000000000E+00  0.56946326219E+03  0.56946326219E+03  0.00000000000E+00 0. -1.
         -4   -1    0    0    0  501 -0.00000000000E+00 -0.00000000000E+00 -0.69959828065E+03  0.69959828065E+03  0.00000000000E+00 0. -1.
   -9000010    2    1    2    0  502 -0.13068050596E+03 -0.57603106184E+02 -0.29559162288E+03  0.10504948217E+04  0.99788248326E+03 0.  0.
         13    1    3    3    0    0  0.15544625422E+03 -0.13346162084E+03 -0.59510654620E+03  0.62938649070E+03  0.10566000000E+00 0. -1.
         -4    1    3    3    0  502 -0.28612676018E+03  0.75858514660E+02  0.29951492331E+03  0.42110833099E+03  0.00000000000E+00 0. -1.
        -13    1    1    2    0    0  0.13068050596E+03  0.57603106184E+02  0.16545660443E+03  0.21856672115E+03  0.10566000000E+00 0.  1.
<mgrwt>
<rscale>  1 0.61844843E+03</rscale>
<asrwt>0</asrwt>
<pdfrwt beam="1">  1       21 0.87609732E-01 0.10080501E+04</pdfrwt>
<pdfrwt beam="2">  1       -4 0.10763051E+00 0.10080501E+04</pdfrwt>
<totfact> 0.29322644E+01</totfact>
</mgrwt>
</event>
<event>
 6    2  0.2267664E-005  0.9745159E+03  0.7818608E-02  0.1025749E+00
         -4   -1    0    0    0  501 -0.00000000000E+00  0.00000000000E+00  0.65807389312E+03  0.65807389312E+03  0.00000000000E+00 0. -1.
         21   -1    0    0  501  502  0.00000000000E+00 -0.00000000000E+00 -0.43276212537E+03  0.43276212537E+03  0.00000000000E+00 0. -1.
   -9000010    2    1    2    0  502  0.15943514784E+02  0.44210919486E+02  0.12815158941E+03  0.98290589070E+03  0.97338191839E+03 0.  0.
         13    1    3    3    0    0 -0.40324478955E+03  0.36275282543E+02 -0.19897306722E+03  0.45112365163E+03  0.10566000000E+00 0. -1.
         -4    1    3    3    0  502  0.41918830433E+03  0.79356369432E+01  0.32712465662E+03  0.53178223907E+03  0.00000000000E+00 0. -1.
        -13    1    1    2    0    0 -0.15943514784E+02 -0.44210919486E+02  0.97160178339E+02  0.10793012779E+03  0.10566000000E+00 0.  1.
<mgrwt>
<rscale>  1 0.45667952E+03</rscale>
<asrwt>0</asrwt>
<pdfrwt beam="2">  1       21 0.66578788E-01 0.97451586E+03</pdfrwt>
<pdfrwt beam="1">  1       -4 0.10124214E+00 0.97451586E+03</pdfrwt>
<totfact> 0.64741872E+01</totfact>
</mgrwt>
</event>
<event>
 6    2  0.2267664E-005  0.9657311E+03  0.7818608E-02  0.9763023E-01
         -4   -1    0    0    0  501 -0.00000000000E+00  0.00000000000E+00  0.21026783442E+03  0.21026783442E+03  0.00000000000E+00 0. -1.
         21   -1    0    0  501  502  0.00000000000E+00 -0.00000000000E+00 -0.22362076864E+04  0.22362076864E+04  0.00000000000E+00 0. -1.
   -9000010    2    1    2    0  502  0.39650770473E+01  0.22888951158E+03 -0.19937133238E+04  0.22152944433E+04  0.93820601280E+03 0.  0.
         13    1    3    3    0    0  0.19608752612E+03 -0.19676600401E+03 -0.15376486820E+04  0.15625398103E+04  0.10566000000E+00 0. -1.
         -4    1    3    3    0  502 -0.19212244907E+03  0.42565551559E+03 -0.45606464180E+03  0.65275463299E+03  0.00000000000E+00 0. -1.
        -13    1    1    2    0    0 -0.39650770473E+01 -0.22888951158E+03 -0.32226528177E+02  0.23118107758E+03  0.10566000000E+00 0.  1.
<mgrwt>
<rscale>  1 0.67385267E+03</rscale>
<asrwt>0</asrwt>
<pdfrwt beam="2">  1       21 0.34403197E+00 0.96573115E+03</pdfrwt>
<pdfrwt beam="1">  1       -4 0.32348896E-01 0.96573115E+03</pdfrwt>
<totfact> 0.52908418E+00</totfact>
</mgrwt>
</event>
<event>
 6    2  0.2267664E-005  0.9526435E+03  0.7818608E-02  0.1063936E+00
         21   -1    0    0  501  502  0.00000000000E+00  0.00000000000E+00  0.71592457904E+03  0.71592457904E+03  0.00000000000E+00 0. -1.
         -4   -1    0    0    0  501 -0.00000000000E+00 -0.00000000000E+00 -0.37472908030E+03  0.37472908030E+03  0.00000000000E+00 0. -1.
   -9000010    2    1    2    0  502 -0.22392744446E+01  0.16580123848E+02  0.39725281279E+03  0.10321528176E+04  0.95249657575E+03 0.  0.
         13    1    3    3    0    0 -0.26689591857E+03  0.35620390748E+03 -0.17941094555E+01  0.44510435299E+03  0.10566000000E+00 0. -1.
         -4    1    3    3    0  502  0.26465664412E+03 -0.33962378364E+03  0.39904692224E+03  0.58704846465E+03  0.00000000000E+00 0. -1.
        -13    1    1    2    0    0  0.22392744446E+01 -0.16580123848E+02 -0.56057314052E+02  0.58500841700E+02  0.10566000000E+00 0.  1.
<mgrwt>
<rscale>  1 0.34679930E+03</rscale>
<asrwt>0</asrwt>
<pdfrwt beam="1">  1       21 0.11014224E+00 0.95264350E+03</pdfrwt>
<pdfrwt beam="2">  1       -4 0.57650628E-01 0.95264350E+03</pdfrwt>
<totfact> 0.70224513E+01</totfact>
</mgrwt>
</event>
<event>
 6    2  0.2267664E-005  0.1040504E+04  0.7818608E-02  0.9642217E-01
         -4   -1    0    0    0  501 -0.00000000000E+00  0.00000000000E+00  0.46317562307E+03  0.46317562307E+03  0.00000000000E+00 0. -1.
         21   -1    0    0  501  502  0.00000000000E+00 -0.00000000000E+00 -0.12215361606E+04  0.12215361606E+04  0.00000000000E+00 0. -1.
   -9000010    2    1    2    0  502  0.26362213352E+03  0.76148166875E+02 -0.90015883737E+03  0.13758397364E+04  0.10036702024E+04 0.  0.
         13    1    3    3    0    0 -0.13518060714E+03 -0.37920147659E+03 -0.53278752567E+03  0.66777999002E+03  0.10566000000E+00 0. -1.
         -4    1    3    3    0  502  0.39880274066E+03  0.45534964347E+03 -0.36737131170E+03  0.70805974637E+03  0.00000000000E+00 0. -1.
        -13    1    1    2    0    0 -0.26362213352E+03 -0.76148166875E+02  0.14179829983E+03  0.30887204729E+03  0.10566000000E+00 0.  1.
<mgrwt>
<rscale>  1 0.74563929E+03</rscale>
<asrwt>0</asrwt>
<pdfrwt beam="2">  1       21 0.18792864E+00 0.10405042E+04</pdfrwt>
<pdfrwt beam="1">  1       -4 0.71257788E-01 0.10405042E+04</pdfrwt>
<totfact> 0.99582217E+00</totfact>
</mgrwt>
</event>
<event>
 6    2  0.2267664E-005  0.1013615E+04  0.7818608E-02  0.9936897E-01
         21   -1    0    0  501  502  0.00000000000E+00  0.00000000000E+00  0.37255149477E+03  0.37255149477E+03  0.00000000000E+00 0. -1.
         -4   -1    0    0    0  501 -0.00000000000E+00 -0.00000000000E+00 -0.86128305367E+03  0.86128305367E+03  0.00000000000E+00 0. -1.
   -9000010    2    1    2    0  502 -0.11219580761E+03  0.83668274096E+01 -0.39669317726E+03  0.10884764461E+04  0.10073517727E+04 0.  0.
         13    1    3    3    0    0 -0.52596965720E+03  0.17042795556E+03 -0.31601828599E+03  0.63683383750E+03  0.10566000000E+00 0. -1.
         -4    1    3    3    0  502  0.41377384959E+03 -0.16206112815E+03 -0.80674891267E+02  0.45164260864E+03  0.00000000000E+00 0. -1.
        -13    1    1    2    0    0  0.11219580761E+03 -0.83668274096E+01 -0.92038381642E+02  0.14535810231E+03  0.10566000000E+00 0.  1.
<mgrwt>
<rscale>  1 0.58505953E+03</rscale>
<asrwt>0</asrwt>
<pdfrwt beam="1">  1       21 0.57315616E-01 0.10136151E+04</pdfrwt>
<pdfrwt beam="2">  1       -4 0.13250508E+00 0.10136151E+04</pdfrwt>
<totfact> 0.46128628E+01</totfact>
</mgrwt>
</event>
<event>
 6    2  0.2267664E-005  0.1204989E+04  0.7818608E-02  0.9382291E-01
         21   -1    0    0  501  502  0.00000000000E+00  0.00000000000E+00  0.15619996784E+04  0.15619996784E+04  0.00000000000E+00 0.  1.
         -4   -1    0    0    0  501 -0.00000000000E+00 -0.00000000000E+00 -0.48582457725E+03  0.48582457725E+03  0.00000000000E+00 0. -1.
   -9000010    2    1    2    0  502  0.42904932295E+03 -0.86604487006E+02  0.10678185513E+04  0.16100417734E+04  0.11226817870E+04 0.  0.
         13    1    3    3    0    0  0.49299658211E+02  0.12883323945E+03 -0.21472731496E+03  0.25521812405E+03  0.10566000000E+00 0. -1.
         -4    1    3    3    0  502  0.37974966474E+03 -0.21543772646E+03  0.12825458662E+04  0.13548236493E+04  0.00000000000E+00 0. -1.
        -13    1    1    2    0    0 -0.42904932295E+03  0.86604487006E+02  0.83565499001E+01  0.43778248227E+03  0.10566000000E+00 0.  1.
<mgrwt>
<rscale>  1 0.93547476E+03</rscale>
<asrwt>0</asrwt>
<pdfrwt beam="1">  1       21 0.24030764E+00 0.12049888E+04</pdfrwt>
<pdfrwt beam="2">  1       -4 0.74742243E-01 0.12049888E+04</pdfrwt>
<totfact> 0.38857145E+00</totfact>
</mgrwt>
</event>
<event>
 6    2  0.2267664E-005  0.1080871E+04  0.7818608E-02  0.9654177E-01
         -4   -1    0    0    0  501 -0.00000000000E+00  0.00000000000E+00  0.41177234889E+03  0.41177234889E+03  0.00000000000E+00 0. -1.
         21   -1    0    0  501  502  0.00000000000E+00 -0.00000000000E+00 -0.10886184803E+04  0.10886184803E+04  0.00000000000E+00 0. -1.
   -9000010    2    1    2    0  502  0.22907599836E+03  0.52711421336E+02 -0.65609489563E+03  0.12644142797E+04  0.10550017306E+04 0.  0.
         13    1    3    3    0    0  0.37452096660E+03  0.45386425555E+03 -0.58880349118E+03  0.83243515019E+03  0.10566000000E+00 0. -1.
         -4    1    3    3    0  502 -0.14544496824E+03 -0.40115283421E+03 -0.67291404455E+02  0.43197912947E+03  0.00000000000E+00 0. -1.
        -13    1    1    2    0    0 -0.22907599836E+03 -0.52711421336E+02 -0.20751235736E+02  0.23597654950E+03  0.10566000000E+00 0.  1.
<mgrwt>
<rscale>  1 0.73811885E+03</rscale>
<asrwt>0</asrwt>
<pdfrwt beam="2">  1       21 0.16747976E+00 0.10808714E+04</pdfrwt>
<pdfrwt beam="1">  1       -4 0.63349593E-01 0.10808714E+04</pdfrwt>
<totfact> 0.18178308E+01</totfact>
</mgrwt>
</event>
<event>
 6    2  0.2267664E-005  0.1144126E+04  0.7818608E-02  0.9349860E-01
         21   -1    0    0  501  502  0.00000000000E+00  0.00000000000E+00  0.63195967960E+03  0.63195967960E+03  0.00000000000E+00 0.  1.
         -4   -1    0    0    0  501 -0.00000000000E+00 -0.00000000000E+00 -0.11769209587E+04  0.11769209587E+04  0.00000000000E+00 0. -1.
   -9000010    2    1    2    0  502  0.27402862609E+03 -0.50515066664E+03 -0.29084535354E+03  0.11805146631E+04  0.98932045683E+03 0.  0.
         13    1    3    3    0    0 -0.27395742185E+03 -0.43508483022E+03 -0.35434614610E+03  0.62442988469E+03  0.10566000000E+00 0. -1.
         -4    1    3    3    0  502  0.54798604794E+03 -0.70065836418E+02  0.63500792565E+02  0.55608477845E+03  0.00000000000E+00 0. -1.
        -13    1    1    2    0    0 -0.27402862609E+03  0.50515066664E+03 -0.25411592553E+03  0.62836597512E+03  0.10566000000E+00 0.  1.
<mgrwt>
<rscale>  1 0.96319406E+03</rscale>
<asrwt>0</asrwt>
<pdfrwt beam="1">  1       21 0.97224567E-01 0.11441258E+04</pdfrwt>
<pdfrwt beam="2">  1       -4 0.18106476E+00 0.11441258E+04</pdfrwt>
<totfact> 0.56730135E+00</totfact>
</mgrwt>
</event>
<event>
 6    2  0.2267664E-005  0.9996591E+03  0.7818608E-02  0.1028321E+00
         -4   -1    0    0    0  501 -0.00000000000E+00  0.00000000000E+00  0.11382967086E+04  0.11382967086E+04  0.00000000000E+00 0. -1.
         21   -1    0    0  501  502  0.00000000000E+00 -0.00000000000E+00 -0.26712277699E+03  0.26712277699E+03  0.00000000000E+00 0. -1.
   -9000010    2    1    2    0  502 -0.31638490223E+02 -0.24998547121E+02  0.67754460766E+03  0.12076361504E+04  0.99884556111E+03 0.  0.
         13    1    3    3    0    0 -0.16152294249E+03  0.94839303501E+02 -0.22224890257E+03  0.29065226698E+03  0.10566000000E+00 0. -1.
         -4    1    3    3    0  502  0.12988445227E+03 -0.11983785062E+03  0.89979351023E+03  0.91698388341E+03  0.00000000000E+00 0. -1.
        -13    1    1    2    0    0  0.31638490223E+02  0.24998547121E+02  0.19362932391E+03  0.19778333515E+03  0.10566000000E+00 0.  1.
<mgrwt>
<rscale>  1 0.44799872E+03</rscale>
<asrwt>0</asrwt>
<pdfrwt beam="2">  1       21 0.41095812E-01 0.99965913E+03</pdfrwt>
<pdfrwt beam="1">  1       -4 0.17512257E+00 0.99965913E+03</pdfrwt>
<totfact> 0.44435100E+01</totfact>
</mgrwt>
</event>
<event>
 6    2  0.2267664E-005  0.1270513E+04  0.7818608E-02  0.9185457E-01
         21   -1    0    0  501  502  0.00000000000E+00  0.00000000000E+00  0.88289263660E+03  0.88289263660E+03  0.00000000000E+00 0.  1.
         -4   -1    0    0    0  501 -0.00000000000E+00 -0.00000000000E+00 -0.12374974037E+04  0.12374974037E+04  0.00000000000E+00 0. -1.
   -9000010    2    1    2    0  502  0.72074803159E+03 -0.26685281856E+03  0.81054665847E+01  0.12705389495E+04  0.10116893653E+04 0.  0.
         13    1    3    3    0    0 -0.15138445951E+03 -0.35413293338E+03  0.71682936614E+02  0.39174716802E+03  0.10566000000E+00 0. -1.
         -4    1    3    3    0  502  0.87213249110E+03  0.87280114821E+02 -0.63577470029E+02  0.87879178147E+03  0.00000000000E+00 0. -1.
        -13    1    1    2    0    0 -0.72074803159E+03  0.26685281856E+03 -0.36271023373E+03  0.84985109086E+03  0.10566000000E+00 0.  1.
<mgrwt>
<rscale>  1 0.11204801E+04</rscale>
<asrwt>0</asrwt>
<pdfrwt beam="1">  1       21 0.13582964E+00 0.12705131E+04</pdfrwt>
<pdfrwt beam="2">  1       -4 0.19038422E+00 0.12705131E+04</pdfrwt>
<totfact> 0.20346371E+00</totfact>
</mgrwt>
</event>
<event>
 6    2  0.2267664E-005  0.1009014E+04  0.7818608E-02  0.1022241E+00
         21   -1    0    0  501  502  0.00000000000E+00  0.00000000000E+00  0.32130943680E+03  0.32130943680E+03  0.00000000000E+00 0. -1.
         -4   -1    0    0    0  501 -0.00000000000E+00 -0.00000000000E+00 -0.87727672609E+03  0.87727672609E+03  0.00000000000E+00 0. -1.
   -9000010    2    1    2    0  502 -0.43037091556E+02 -0.18997675164E+02 -0.50200119181E+03  0.11269938885E+04  0.10079171222E+04 0.  0.
         13    1    3    3    0    0  0.90897089276E+02 -0.28825845141E+03  0.20058384747E+03  0.36275212842E+03  0.10566000000E+00 0. -1.
         -4    1    3    3    0  502 -0.13393418083E+03  0.26926077624E+03 -0.70258503928E+03  0.76424176007E+03  0.00000000000E+00 0. -1.
        -13    1    1    2    0    0  0.43037091556E+02  0.18997675164E+02 -0.53966097475E+02  0.71592274388E+02  0.10566000000E+00 0.  1.
<mgrwt>
<rscale>  1 0.46886573E+03</rscale>
<asrwt>0</asrwt>
<pdfrwt beam="1">  1       21 0.49432221E-01 0.10090144E+04</pdfrwt>
<pdfrwt beam="2">  1       -4 0.13496565E+00 0.10090144E+04</pdfrwt>
<totfact> 0.60789351E+01</totfact>
</mgrwt>
</event>
<event>
 6    2  0.2267664E-005  0.1070969E+04  0.7818608E-02  0.9548239E-01
         -4   -1    0    0    0  501 -0.00000000000E+00  0.00000000000E+00  0.13068041848E+04  0.13068041848E+04  0.00000000000E+00 0. -1.
         21   -1    0    0  501  502  0.00000000000E+00 -0.00000000000E+00 -0.71587872795E+03  0.71587872795E+03  0.00000000000E+00 0. -1.
   -9000010    2    1    2    0  502  0.20796283565E+03 -0.27816969379E+03 -0.26131595381E+03  0.11023882030E+04  0.10130877568E+04 0.  0.
         13    1    3    3    0    0  0.21544605177E+03  0.28916313892E+03  0.16117802208E+03  0.39498188325E+03  0.10566000000E+00 0. -1.
         -4    1    3    3    0  502 -0.74832161188E+01 -0.56733283272E+03 -0.42249397588E+03  0.70740631977E+03  0.00000000000E+00 0. -1.
        -13    1    1    2    0    0 -0.20796283565E+03  0.27816969379E+03  0.85224141068E+03  0.92029470975E+03  0.10566000000E+00 0.  1.
<mgrwt>
<rscale>  1 0.80818928E+03</rscale>
<asrwt>0</asrwt>
<pdfrwt beam="2">  1       21 0.11013519E+00 0.10709686E+04</pdfrwt>
<pdfrwt beam="1">  1       -4 0.20104680E+00 0.10709686E+04</pdfrwt>
<totfact> 0.30640992E+00</totfact>
</mgrwt>
</event>
<event>
 6    2  0.2267664E-005  0.1039158E+04  0.7818608E-02  0.1025649E+00
         -4   -1    0    0    0  501 -0.00000000000E+00  0.00000000000E+00  0.30337893740E+03  0.30337893740E+03  0.00000000000E+00 0. -1.
         21   -1    0    0  501  502  0.00000000000E+00 -0.00000000000E+00 -0.11999690911E+04  0.11999690911E+04  0.00000000000E+00 0. -1.
   -9000010    2    1    2    0  502  0.38683339604E+02  0.38745366495E+01 -0.96920032953E+03  0.14209850417E+04  0.10384304489E+04 0.  0.
         13    1    3    3    0    0  0.14773282662E+03  0.23748306343E+03 -0.10978113945E+04  0.11328782205E+04  0.10566000000E+00 0. -1.
         -4    1    3    3    0  502 -0.10904948701E+03 -0.23360852678E+03  0.12861106494E+03  0.28810682121E+03  0.00000000000E+00 0. -1.
        -13    1    1    2    0    0 -0.38683339604E+02 -0.38745366495E+01  0.72610175818E+02  0.82362986793E+02  0.10566000000E+00 0.  1.
<mgrwt>
<rscale>  1 0.45701921E+03</rscale>
<asrwt>0</asrwt>
<pdfrwt beam="2">  1       21 0.18461063E+00 0.10391579E+04</pdfrwt>
<pdfrwt beam="1">  1       -4 0.46673682E-01 0.10391579E+04</pdfrwt>
<totfact> 0.26292691E+01</totfact>
</mgrwt>
</event>
<event>
 6    2  0.2267664E-005  0.1146871E+04  0.7818608E-02  0.9364449E-01
         21   -1    0    0  501  502  0.00000000000E+00  0.00000000000E+00  0.30724715557E+04  0.30724715557E+04  0.00000000000E+00 0.  1.
         -4   -1    0    0    0  501 -0.00000000000E+00 -0.00000000000E+00 -0.25082682491E+03  0.25082682491E+03  0.00000000000E+00 0. -1.
   -9000010    2    1    2    0  502  0.18069751665E+03  0.51026230056E+03  0.23071903129E+04  0.25765169085E+04  0.10110850764E+04 0.  0.
         13    1    3    3    0    0  0.47209508626E+03 -0.29710035630E+02  0.14286315080E+04  0.15049067923E+04  0.10566000000E+00 0. -1.
         -4    1    3    3    0  502 -0.29139756960E+03  0.53997233619E+03  0.87855880488E+03  0.10716101162E+04  0.00000000000E+00 0. -1.
        -13    1    1    2    0    0 -0.18069751665E+03 -0.51026230056E+03  0.51445441792E+03  0.74678147217E+03  0.10566000000E+00 0.  1.
<mgrwt>
<rscale>  1 0.95060006E+03</rscale>
<asrwt>0</asrwt>
<pdfrwt beam="1">  1       21 0.47268791E+00 0.11468706E+04</pdfrwt>
<pdfrwt beam="2">  1       -4 0.38588744E-01 0.11468706E+04</pdfrwt>
<totfact> 0.50215828E-01</totfact>
</mgrwt>
</event>
<event>
 6    2  0.2267664E-005  0.1292713E+04  0.7818608E-02  0.9435001E-01
         -4   -1    0    0    0  501 -0.00000000000E+00  0.00000000000E+00  0.14705786443E+04  0.14705786443E+04  0.00000000000E+00 0. -1.
         21   -1    0    0  501  502  0.00000000000E+00 -0.00000000000E+00 -0.53384581286E+03  0.53384581286E+03  0.00000000000E+00 0. -1.
   -9000010    2    1    2    0  502  0.15111897471E+03  0.25186236101E+03  0.33590036183E+03  0.13356410385E+04  0.12589028307E+04 0.  0.
         13    1    3    3    0    0 -0.46239249276E+03  0.32839612428E+03  0.42804651189E+03  0.71054532531E+03  0.10566000000E+00 0. -1.
         -4    1    3    3    0  502  0.61351146747E+03 -0.76533763270E+02 -0.92146150067E+02  0.62509571316E+03  0.00000000000E+00 0. -1.
        -13    1    1    2    0    0 -0.15111897471E+03 -0.25186236101E+03  0.60083246959E+03  0.66878341867E+03  0.10566000000E+00 0.  1.
<mgrwt>
<rscale>  1 0.89250400E+03</rscale>
<asrwt>0</asrwt>
<pdfrwt beam="2">  1       21 0.82130126E-01 0.12927134E+04</pdfrwt>
<pdfrwt beam="1">  1       -4 0.22624287E+00 0.12927134E+04</pdfrwt>
<totfact> 0.42168412E+00</totfact>
</mgrwt>
</event>
<event>
 6    2  0.2267664E-005  0.1016951E+04  0.7818608E-02  0.9844592E-01
         -4   -1    0    0    0  501 -0.00000000000E+00  0.00000000000E+00  0.13989268691E+03  0.13989268691E+03  0.00000000000E+00 0. -1.
         21   -1    0    0  501  502  0.00000000000E+00 -0.00000000000E+00 -0.33526123875E+04  0.33526123875E+04  0.00000000000E+00 0. -1.
   -9000010    2    1    2    0  502  0.14997104984E+03  0.32159574102E+01 -0.31804343769E+04  0.33390644948E+04  0.10058266334E+04 0.  0.
         13    1    3    3    0    0 -0.31784641827E+03 -0.23581043149E+03 -0.21084593877E+04  0.21452817777E+04  0.10566000000E+00 0. -1.
         -4    1    3    3    0  502  0.46781746811E+03  0.23902638890E+03 -0.10719749893E+04  0.11937827171E+04  0.00000000000E+00 0. -1.
        -13    1    1    2    0    0 -0.14997104984E+03 -0.32159574102E+01 -0.32285323636E+02  0.15344057957E+03  0.10566000000E+00 0.  1.
<mgrwt>
<rscale>  1 0.63023394E+03</rscale>
<asrwt>0</asrwt>
<pdfrwt beam="2">  1       21 0.51578650E+00 0.10169508E+04</pdfrwt>
<pdfrwt beam="1">  1       -4 0.21521953E-01 0.10169508E+04</pdfrwt>
<totfact> 0.79275425E-01</totfact>
</mgrwt>
</event>
<event>
 6    2  0.2267664E-005  0.1163107E+04  0.7818608E-02  0.9338348E-01
         21   -1    0    0  501  502  0.00000000000E+00  0.00000000000E+00  0.89624377614E+03  0.89624377614E+03  0.00000000000E+00 0.  1.
         -4   -1    0    0    0  501 -0.00000000000E+00 -0.00000000000E+00 -0.83823885756E+03  0.83823885756E+03  0.00000000000E+00 0. -1.
   -9000010    2    1    2    0  502  0.18375626394E+03  0.53986395000E+03  0.29129462630E+02  0.11634719051E+04  0.10137055289E+04 0.  0.
         13    1    3    3    0    0  0.40713851948E+03 -0.14637080486E+03  0.80078649746E+02  0.43999862258E+03  0.10566000000E+00 0. -1.
         -4    1    3    3    0  502 -0.22338225554E+03  0.68623475486E+03 -0.50949187117E+02  0.72347328253E+03  0.00000000000E+00 0. -1.
        -13    1    1    2    0    0 -0.18375626394E+03 -0.53986395000E+03  0.28875455950E+02  0.57101072859E+03  0.10566000000E+00 0.  1.
<mgrwt>
<rscale>  1 0.97327804E+03</rscale>
<asrwt>0</asrwt>
<pdfrwt beam="1">  1       21 0.13788366E+00 0.11631072E+04</pdfrwt>
<pdfrwt beam="2">  1       -4 0.12895982E+00 0.11631072E+04</pdfrwt>
<totfact> 0.57818074E+00</totfact>
</mgrwt>
</event>
<event>
 6    2  0.2267664E-005  0.1213064E+04  0.7818608E-02  0.9261901E-01
         -4   -1    0    0    0  501 -0.00000000000E+00  0.00000000000E+00  0.84620368369E+03  0.84620368369E+03  0.00000000000E+00 0. -1.
         21   -1    0    0  501  502  0.00000000000E+00 -0.00000000000E+00 -0.12198865075E+04  0.12198865075E+04  0.00000000000E+00 0. -1.
   -9000010    2    1    2    0  502  0.10482925650E+03  0.65635159542E+03 -0.61362913380E+03  0.13594355141E+04  0.10147598796E+04 0.  0.
         13    1    3    3    0    0 -0.99465962948E+02  0.21428106386E+03  0.26491118037E+03  0.35494759720E+03  0.10566000000E+00 0. -1.
         -4    1    3    3    0  502  0.20429521944E+03  0.44207053156E+03 -0.87854031416E+03  0.10044879169E+04  0.00000000000E+00 0. -1.
        -13    1    1    2    0    0 -0.10482925650E+03 -0.65635159542E+03  0.23994630998E+03  0.70665467710E+03  0.10566000000E+00 0.  1.
<mgrwt>
<rscale>  1 0.10436728E+04</rscale>
<asrwt>0</asrwt>
<pdfrwt beam="2">  1       21 0.18767485E+00 0.12130640E+04</pdfrwt>
<pdfrwt beam="1">  1       -4 0.13018518E+00 0.12130640E+04</pdfrwt>
<totfact> 0.23028313E+00</totfact>
</mgrwt>
</event>
<event>
 6    2  0.2267664E-005  0.1001229E+04  0.7818608E-02  0.9838555E-01
         21   -1    0    0  501  502  0.00000000000E+00  0.00000000000E+00  0.24439237147E+04  0.24439237147E+04  0.00000000000E+00 0. -1.
         -4   -1    0    0    0  501 -0.00000000000E+00 -0.00000000000E+00 -0.14855873234E+03  0.14855873234E+03  0.00000000000E+00 0. -1.
   -9000010    2    1    2    0  502  0.15417556968E+03 -0.43899895424E+02  0.21669852964E+04  0.23871080036E+04  0.98831272316E+03 0.  0.
         13    1    3    3    0    0 -0.20638982513E+02  0.43970236204E+03  0.64740616475E+03  0.78287859091E+03  0.10566000000E+00 0. -1.
         -4    1    3    3    0  502  0.17481455219E+03 -0.48360225746E+03  0.15195791317E+04  0.16042294127E+04  0.00000000000E+00 0. -1.
        -13    1    1    2    0    0 -0.15417556968E+03  0.43899895424E+02  0.12837968596E+03  0.20537444348E+03  0.10566000000E+00 0.  1.
<mgrwt>
<rscale>  1 0.63333868E+03</rscale>
<asrwt>0</asrwt>
<pdfrwt beam="1">  1       21 0.37598823E+00 0.10012289E+04</pdfrwt>
<pdfrwt beam="2">  1       -4 0.22855191E-01 0.10012289E+04</pdfrwt>
<totfact> 0.64407742E+00</totfact>
</mgrwt>
</event>
<event>
 6    2  0.2267664E-005  0.1276662E+04  0.7818608E-02  0.9170268E-01
         -4   -1    0    0    0  501 -0.00000000000E+00  0.00000000000E+00  0.81483222047E+03  0.81483222047E+03  0.00000000000E+00 0. -1.
         21   -1    0    0  501  502  0.00000000000E+00 -0.00000000000E+00 -0.15975810677E+04  0.15975810677E+04  0.00000000000E+00 0. -1.
   -9000010    2    1    2    0  502  0.24787164218E+03 -0.76268451376E+03 -0.95232204858E+03  0.15927285316E+04  0.99334730710E+03 0.  0.
         13    1    3    3    0    0  0.30498619954E+03  0.45593736070E+02  0.40713877920E+02  0.31105144542E+03  0.10566000000E+00 0. -1.
         -4    1    3    3    0  502 -0.57114557368E+02 -0.80827824983E+03 -0.99303592650E+03  0.12816770861E+04  0.00000000000E+00 0. -1.
        -13    1    1    2    0    0 -0.24787164218E+03  0.76268451376E+03  0.16957320132E+03  0.81968475665E+03  0.10566000000E+00 0.  1.
<mgrwt>
<rscale>  1 0.11365649E+04</rscale>
<asrwt>0</asrwt>
<pdfrwt beam="2">  1       21 0.24578170E+00 0.12766624E+04</pdfrwt>
<pdfrwt beam="1">  1       -4 0.12535880E+00 0.12766624E+04</pdfrwt>
<totfact> 0.10223482E+00</totfact>
</mgrwt>
</event>
<event>
 6    2  0.2267664E-005  0.1019378E+04  0.7818608E-02  0.9731661E-01
         21   -1    0    0  501  502  0.00000000000E+00  0.00000000000E+00  0.62300986287E+03  0.62300986287E+03  0.00000000000E+00 0. -1.
         -4   -1    0    0    0  501 -0.00000000000E+00 -0.00000000000E+00 -0.10964810004E+04  0.10964810004E+04  0.00000000000E+00 0. -1.
   -9000010    2    1    2    0  502  0.21281625923E+03 -0.37024608535E+02  0.17651739630E+03  0.10345480284E+04  0.99622770989E+03 0.  0.
         13    1    3    3    0    0 -0.39532503444E+03 -0.58852612258E+02 -0.43494404694E+01  0.39970544357E+03  0.10566000000E+00 0. -1.
         -4    1    3    3    0  502  0.60814129367E+03  0.21828003723E+02  0.18086683676E+03  0.63484258479E+03  0.00000000000E+00 0. -1.
        -13    1    1    2    0    0 -0.21281625923E+03  0.37024608535E+02 -0.64998853387E+03  0.68494283495E+03  0.10566000000E+00 0.  1.
<mgrwt>
<rscale>  1 0.69162605E+03</rscale>
<asrwt>0</asrwt>
<pdfrwt beam="1">  1       21 0.95847672E-01 0.10193779E+04</pdfrwt>
<pdfrwt beam="2">  1       -4 0.16868938E+00 0.10193779E+04</pdfrwt>
<totfact> 0.72965626E+00</totfact>
</mgrwt>
</event>
<event>
 6    2  0.2267664E-005  0.1006072E+04  0.7818608E-02  0.9849980E-01
         21   -1    0    0  501  502  0.00000000000E+00  0.00000000000E+00  0.10726080645E+04  0.10726080645E+04  0.00000000000E+00 0. -1.
         -4   -1    0    0    0  501 -0.00000000000E+00 -0.00000000000E+00 -0.36007224053E+03  0.36007224053E+03  0.00000000000E+00 0. -1.
   -9000010    2    1    2    0  502 -0.14039952320E+03 -0.58848146889E+02  0.77313792650E+03  0.12688274549E+04  0.99448767036E+03 0.  0.
         13    1    3    3    0    0 -0.57061484042E+03 -0.74542232005E+02  0.45143338533E+03  0.73140272970E+03  0.10566000000E+00 0. -1.
         -4    1    3    3    0  502  0.43021531722E+03  0.15694085116E+02  0.32170454117E+03  0.53742472523E+03  0.00000000000E+00 0. -1.
        -13    1    1    2    0    0  0.14039952320E+03  0.58848146889E+02 -0.60602102490E+02  0.16385285014E+03  0.10566000000E+00 0.  1.
<mgrwt>
<rscale>  1 0.62747958E+03</rscale>
<asrwt>0</asrwt>
<pdfrwt beam="1">  1       21 0.16501662E+00 0.10060720E+04</pdfrwt>
<pdfrwt beam="2">  1       -4 0.55395730E-01 0.10060720E+04</pdfrwt>
<totfact> 0.25612458E+01</totfact>
</mgrwt>
</event>
<event>
 6    2  0.2267664E-005  0.1058113E+04  0.7818608E-02  0.9562819E-01
         21   -1    0    0  501  502  0.00000000000E+00  0.00000000000E+00  0.11304383202E+04  0.11304383202E+04  0.00000000000E+00 0.  1.
         -4   -1    0    0    0  501 -0.00000000000E+00 -0.00000000000E+00 -0.43391806145E+03  0.43391806145E+03  0.00000000000E+00 0. -1.
   -9000010    2    1    2    0  502  0.35361176873E+02  0.34059140507E+03  0.51469209771E+03  0.11766523588E+04  0.10011742606E+04 0.  0.
         13    1    3    3    0    0  0.38619314505E+03  0.25884393952E+03  0.64368363285E+03  0.79402390435E+03  0.10566000000E+00 0. -1.
         -4    1    3    3    0  502 -0.35083196818E+03  0.81747465554E+02 -0.12899153514E+03  0.38262845446E+03  0.00000000000E+00 0. -1.
        -13    1    1    2    0    0 -0.35361176873E+02 -0.34059140507E+03  0.18182816107E+03  0.38770402289E+03  0.10566000000E+00 0.  1.
<mgrwt>
<rscale>  1 0.79806729E+03</rscale>
<asrwt>0</asrwt>
<pdfrwt beam="1">  1       21 0.17391359E+00 0.10581129E+04</pdfrwt>
<pdfrwt beam="2">  1       -4 0.66756625E-01 0.10581129E+04</pdfrwt>
<totfact> 0.14528327E+01</totfact>
</mgrwt>
</event>
<event>
 6    2  0.2267664E-005  0.1044971E+04  0.7818608E-02  0.9575817E-01
         21   -1    0    0  501  502  0.00000000000E+00  0.00000000000E+00  0.44919253551E+03  0.44919253551E+03  0.00000000000E+00 0. -1.
         -4   -1    0    0    0  501 -0.00000000000E+00 -0.00000000000E+00 -0.13412829468E+04  0.13412829468E+04  0.00000000000E+00 0. -1.
   -9000010    2    1    2    0  502  0.62034883364E+02  0.33421801025E+03 -0.26637545494E+03  0.10783875503E+04  0.98813653944E+03 0.  0.
         13    1    3    3    0    0 -0.29839673779E+03 -0.20994430446E+03 -0.21540884274E+03  0.42369588715E+03  0.10566000000E+00 0. -1.
         -4    1    3    3    0  502  0.36043162115E+03  0.54416231471E+03 -0.50966612207E+02  0.65469166318E+03  0.00000000000E+00 0. -1.
        -13    1    1    2    0    0 -0.62034883364E+02 -0.33421801025E+03 -0.62571495634E+03  0.71208793198E+03  0.10566000000E+00 0.  1.
<mgrwt>
<rscale>  1 0.78917687E+03</rscale>
<asrwt>0</asrwt>
<pdfrwt beam="1">  1       21 0.69106546E-01 0.10449707E+04</pdfrwt>
<pdfrwt beam="2">  1       -4 0.20635122E+00 0.10449707E+04</pdfrwt>
<totfact> 0.87060341E+00</totfact>
</mgrwt>
</event>
<event>
 6    2  0.2267664E-005  0.1057507E+04  0.7818608E-02  0.9560553E-01
         21   -1    0    0  501  502  0.00000000000E+00  0.00000000000E+00  0.43176425897E+03  0.43176425897E+03  0.00000000000E+00 0. -1.
         -4   -1    0    0    0  501 -0.00000000000E+00 -0.00000000000E+00 -0.11527951261E+04  0.11527951261E+04  0.00000000000E+00 0. -1.
   -9000010    2    1    2    0  502 -0.25767946611E+03 -0.23046262597E+03 -0.61318706648E+03  0.12224240157E+04  0.99940500625E+03 0.  0.
         13    1    3    3    0    0 -0.38116417892E+03  0.90537333937E+02 -0.75484960676E+03  0.85045933478E+03  0.10566000000E+00 0. -1.
         -4    1    3    3    0  502  0.12348471281E+03 -0.32099995990E+03  0.14166254028E+03  0.37196468095E+03  0.00000000000E+00 0. -1.
        -13    1    1    2    0    0  0.25767946611E+03  0.23046262597E+03 -0.10784380064E+03  0.36213536933E+03  0.10566000000E+00 0.  1.
<mgrwt>
<rscale>  1 0.79962979E+03</rscale>
<asrwt>0</asrwt>
<pdfrwt beam="1">  1       21 0.66425271E-01 0.10575075E+04</pdfrwt>
<pdfrwt beam="2">  1       -4 0.17735309E+00 0.10575075E+04</pdfrwt>
<totfact> 0.14952287E+01</totfact>
</mgrwt>
</event>
<event>
 6    2  0.2267664E-005  0.9728174E+03  0.7818608E-02  0.1000418E+00
         21   -1    0    0  501  502  0.00000000000E+00  0.00000000000E+00  0.23525621132E+03  0.23525621132E+03  0.00000000000E+00 0. -1.
         -4   -1    0    0    0  501 -0.00000000000E+00 -0.00000000000E+00 -0.12995186520E+04  0.12995186520E+04  0.00000000000E+00 0. -1.
   -9000010    2    1    2    0  502 -0.94005155056E+02 -0.41639127339E+02 -0.82938071570E+03  0.12783763025E+04  0.96736901598E+03 0.  0.
         13    1    3    3    0    0  0.32497124430E+03  0.10795408518E+03 -0.75270305008E+03  0.82693547928E+03  0.10566000000E+00 0. -1.
         -4    1    3    3    0  502 -0.41897639936E+03 -0.14959321252E+03 -0.76677665619E+02  0.45144082321E+03  0.00000000000E+00 0. -1.
        -13    1    1    2    0    0  0.94005155056E+02  0.41639127339E+02 -0.23488172502E+03  0.25639856087E+03  0.10566000000E+00 0.  1.
<mgrwt>
<rscale>  1 0.55467290E+03</rscale>
<asrwt>0</asrwt>
<pdfrwt beam="1">  1       21 0.36193263E-01 0.97281735E+03</pdfrwt>
<pdfrwt beam="2">  1       -4 0.19992595E+00 0.97281735E+03</pdfrwt>
<totfact> 0.39276599E+01</totfact>
</mgrwt>
</event>
<event>
 6    2  0.2267664E-005  0.1048507E+04  0.7818608E-02  0.9602125E-01
         -4   -1    0    0    0  501 -0.00000000000E+00  0.00000000000E+00  0.16401332556E+04  0.16401332556E+04  0.00000000000E+00 0. -1.
         21   -1    0    0  501  502  0.00000000000E+00 -0.00000000000E+00 -0.31294228283E+03  0.31294228283E+03  0.00000000000E+00 0. -1.
   -9000010    2    1    2    0  502 -0.23108897029E+03 -0.20277118595E+03  0.71824481081E+03  0.12709218128E+04  0.10024212587E+04 0.  0.
         13    1    3    3    0    0 -0.52499135414E+03 -0.23455875606E+02  0.61104992363E+02  0.52905569771E+03  0.10566000000E+00 0. -1.
         -4    1    3    3    0  502  0.29390238385E+03 -0.17931531034E+03  0.65713981845E+03  0.74186611511E+03  0.00000000000E+00 0. -1.
        -13    1    1    2    0    0  0.23108897029E+03  0.20277118595E+03  0.60894616193E+03  0.68215372559E+03  0.10566000000E+00 0.  1.
<mgrwt>
<rscale>  1 0.77155685E+03</rscale>
<asrwt>0</asrwt>
<pdfrwt beam="2">  1       21 0.48144968E-01 0.10485069E+04</pdfrwt>
<pdfrwt beam="1">  1       -4 0.25232819E+00 0.10485069E+04</pdfrwt>
<totfact> 0.99243723E+00</totfact>
</mgrwt>
</event>
<event>
 6    2  0.2267664E-005  0.1037283E+04  0.7818608E-02  0.9634657E-01
         -4   -1    0    0    0  501 -0.00000000000E+00  0.00000000000E+00  0.18742855652E+04  0.18742855652E+04  0.00000000000E+00 0. -1.
         21   -1    0    0  501  502  0.00000000000E+00 -0.00000000000E+00 -0.36179471101E+03  0.36179471101E+03  0.00000000000E+00 0. -1.
   -9000010    2    1    2    0  502  0.24796146288E+03 -0.13880621999E+03  0.44028541406E+03  0.11268568673E+04  0.99759866673E+03 0.  0.
         13    1    3    3    0    0  0.29244745929E+03  0.25085555080E+03 -0.15390915771E+03  0.41490006484E+03  0.10566000000E+00 0. -1.
         -4    1    3    3    0  502 -0.44485996412E+02 -0.38966177080E+03  0.59419457178E+03  0.71195680250E+03  0.00000000000E+00 0. -1.
        -13    1    1    2    0    0 -0.24796146288E+03  0.13880621999E+03  0.10722054401E+04  0.11092234089E+04  0.10566000000E+00 0.  1.
<mgrwt>
<rscale>  1 0.75044180E+03</rscale>
<asrwt>0</asrwt>
<pdfrwt beam="2">  1       21 0.55660726E-01 0.10372826E+04</pdfrwt>
<pdfrwt beam="1">  1       -4 0.28835162E+00 0.10372826E+04</pdfrwt>
<totfact> 0.43464156E+00</totfact>
</mgrwt>
</event>
<event>
 6    2  0.2267664E-005  0.9787043E+03  0.7818608E-02  0.9975820E-01
         21   -1    0    0  501  502  0.00000000000E+00  0.00000000000E+00  0.19559034305E+03  0.19559034305E+03  0.00000000000E+00 0. -1.
         -4   -1    0    0    0  501 -0.00000000000E+00 -0.00000000000E+00 -0.15296456340E+04  0.15296456340E+04  0.00000000000E+00 0. -1.
   -9000010    2    1    2    0  502  0.10858481281E+03  0.20109853858E+02 -0.11449197487E+04  0.15062215202E+04  0.97245409620E+03 0.  0.
         13    1    3    3    0    0  0.82788445044E+02  0.13429106155E+03  0.14304080154E+03  0.21295233719E+03  0.10566000000E+00 0. -1.
         -4    1    3    3    0  502  0.25796367765E+02 -0.11418120769E+03 -0.12879605503E+04  0.12932691830E+04  0.00000000000E+00 0. -1.
        -13    1    1    2    0    0 -0.10858481281E+03 -0.20109853858E+02 -0.18913554219E+03  0.21901445678E+03  0.10566000000E+00 0.  1.
<mgrwt>
<rscale>  1 0.56723326E+03</rscale>
<asrwt>0</asrwt>
<pdfrwt beam="1">  1       21 0.30090822E-01 0.97870426E+03</pdfrwt>
<pdfrwt beam="2">  1       -4 0.23533010E+00 0.97870426E+03</pdfrwt>
<totfact> 0.33929620E+01</totfact>
</mgrwt>
</event>
<event>
 6    2  0.2267664E-005  0.1067715E+04  0.7818608E-02  0.9528464E-01
         21   -1    0    0  501  502  0.00000000000E+00  0.00000000000E+00  0.21938501804E+03  0.21938501804E+03  0.00000000000E+00 0. -1.
         -4   -1    0    0    0  501 -0.00000000000E+00 -0.00000000000E+00 -0.25826516365E+04  0.25826516365E+04  0.00000000000E+00 0. -1.
   -9000010    2    1    2    0  502 -0.37534765098E+03  0.59855970366E+01 -0.13482368892E+04  0.17198134571E+04  0.99954686311E+03 0.  0.
         13    1    3    3    0    0 -0.53284648005E+01  0.26170626011E+03  0.36101169940E+02  0.26423827269E+03  0.10566000000E+00 0. -1.
         -4    1    3    3    0  502 -0.37001918618E+03 -0.25572066308E+03 -0.13843380591E+04  0.14555751844E+04  0.00000000000E+00 0. -1.
        -13    1    1    2    0    0  0.37534765098E+03 -0.59855970366E+01 -0.10150297292E+04  0.10822231974E+04  0.10566000000E+00 0.  1.
<mgrwt>
<rscale>  1 0.82217409E+03</rscale>
<asrwt>0</asrwt>
<pdfrwt beam="1">  1       21 0.33751541E-01 0.10677151E+04</pdfrwt>
<pdfrwt beam="2">  1       -4 0.39733102E+00 0.10677151E+04</pdfrwt>
<totfact> 0.24696403E+00</totfact>
</mgrwt>
</event>
<event>
 6    2  0.2267664E-005  0.1028435E+04  0.7818608E-02  0.9704923E-01
         21   -1    0    0  501  502  0.00000000000E+00  0.00000000000E+00  0.88435100310E+03  0.88435100310E+03  0.00000000000E+00 0. -1.
         -4   -1    0    0    0  501 -0.00000000000E+00 -0.00000000000E+00 -0.67368532259E+03  0.67368532259E+03  0.00000000000E+00 0. -1.
   -9000010    2    1    2    0  502 -0.10403492722E+03 -0.20513807188E+03  0.53590239989E+03  0.11596849363E+04  0.10023835966E+04 0.  0.
         13    1    3    3    0    0 -0.49952392713E+03 -0.16612310325E+03  0.55091890322E+03  0.76199257759E+03  0.10566000000E+00 0. -1.
         -4    1    3    3    0  502  0.39548899991E+03 -0.39014968624E+02 -0.15016503329E+02  0.39769235874E+03  0.00000000000E+00 0. -1.
        -13    1    1    2    0    0  0.10403492722E+03  0.20513807188E+03 -0.32523671938E+03  0.39835138937E+03  0.10566000000E+00 0.  1.
<mgrwt>
<rscale>  1 0.70724439E+03</rscale>
<asrwt>0</asrwt>
<pdfrwt beam="1">  1       21 0.13605400E+00 0.10284346E+04</pdfrwt>
<pdfrwt beam="2">  1       -4 0.10364390E+00 0.10284346E+04</pdfrwt>
<totfact> 0.10504873E+01</totfact>
</mgrwt>
</event>
<event>
 6    2  0.2267664E-005  0.1022784E+04  0.7818608E-02  0.9851765E-01
         21   -1    0    0  501  502  0.00000000000E+00  0.00000000000E+00  0.39405268308E+03  0.39405268308E+03  0.00000000000E+00 0. -1.
         -4   -1    0    0    0  501 -0.00000000000E+00 -0.00000000000E+00 -0.13587281408E+04  0.13587281408E+04  0.00000000000E+00 0. -1.
   -9000010    2    1    2    0  502 -0.93425614795E+01  0.14375114959E+03 -0.29028995780E+03  0.10631813096E+04  0.10125880510E+04 0.  0.
         13    1    3    3    0    0 -0.35154419130E+03  0.22747062228E+03  0.19629834286E+03  0.46244918965E+03  0.10566000000E+00 0. -1.
         -4    1    3    3    0  502  0.34220162982E+03 -0.83719472684E+02 -0.48658830066E+03  0.60073211992E+03  0.00000000000E+00 0. -1.
        -13    1    1    2    0    0  0.93425614795E+01 -0.14375114959E+03 -0.67438549990E+03  0.68959951428E+03  0.10566000000E+00 0.  1.
<mgrwt>
<rscale>  1 0.62656984E+03</rscale>
<asrwt>0</asrwt>
<pdfrwt beam="1">  1       21 0.60623491E-01 0.10227836E+04</pdfrwt>
<pdfrwt beam="2">  1       -4 0.20903509E+00 0.10227836E+04</pdfrwt>
<totfact> 0.11272482E+01</totfact>
</mgrwt>
</event>
<event>
 6    2  0.2267664E-005  0.1069768E+04  0.7818608E-02  0.1008741E+00
         21   -1    0    0  501  502  0.00000000000E+00  0.00000000000E+00  0.10061388024E+04  0.10061388024E+04  0.00000000000E+00 0. -1.
         -4   -1    0    0    0  501 -0.00000000000E+00 -0.00000000000E+00 -0.47164314667E+03  0.47164314667E+03  0.00000000000E+00 0. -1.
   -9000010    2    1    2    0  502  0.50676284213E+02  0.31412087083E+02  0.71564633638E+03  0.12870717363E+04  0.10681054117E+04 0.  0.
         13    1    3    3    0    0  0.44392738256E+03 -0.21524875522E+03  0.65335513693E+03  0.81870415519E+03  0.10566000000E+00 0. -1.
         -4    1    3    3    0  502 -0.39325109835E+03  0.24666084230E+03  0.62291199447E+02  0.46836758108E+03  0.00000000000E+00 0. -1.
        -13    1    1    2    0    0 -0.50676284213E+02 -0.31412087083E+02 -0.18115068066E+03  0.19071021279E+03  0.10566000000E+00 0.  1.
<mgrwt>
<rscale>  1 0.51977981E+03</rscale>
<asrwt>0</asrwt>
<pdfrwt beam="1">  1       21 0.15479058E+00 0.10697682E+04</pdfrwt>
<pdfrwt beam="2">  1       -4 0.72560484E-01 0.10697682E+04</pdfrwt>
<totfact> 0.16866016E+01</totfact>
</mgrwt>
</event>
<event>
 6    2  0.2267664E-005  0.1031005E+04  0.7818608E-02  0.9645709E-01
         21   -1    0    0  501  502  0.00000000000E+00  0.00000000000E+00  0.45991965516E+03  0.45991965516E+03  0.00000000000E+00 0. -1.
         -4   -1    0    0    0  501 -0.00000000000E+00 -0.00000000000E+00 -0.10484876975E+04  0.10484876975E+04  0.00000000000E+00 0. -1.
   -9000010    2    1    2    0  502  0.27741952489E+03 -0.27010799105E+02 -0.23369640613E+03  0.10571590115E+04  0.99261270860E+03 0.  0.
         13    1    3    3    0    0  0.57229767037E+02  0.45857099796E+03  0.28495372251E+02  0.46300605159E+03  0.10566000000E+00 0. -1.
         -4    1    3    3    0  502  0.22018975785E+03 -0.48558179706E+03 -0.26219177838E+03  0.59415295990E+03  0.00000000000E+00 0. -1.
        -13    1    1    2    0    0 -0.27741952489E+03  0.27010799105E+02 -0.35487163623E+03  0.45124834118E+03  0.10566000000E+00 0.  1.
<mgrwt>
<rscale>  1 0.74343333E+03</rscale>
<asrwt>0</asrwt>
<pdfrwt beam="1">  1       21 0.70756870E-01 0.10310049E+04</pdfrwt>
<pdfrwt beam="2">  1       -4 0.16130580E+00 0.10310049E+04</pdfrwt>
<totfact> 0.16950217E+01</totfact>
</mgrwt>
</event>
<event>
 6    2  0.2267664E-005  0.1015429E+04  0.7818608E-02  0.1001029E+00
         21   -1    0    0  501  502  0.00000000000E+00  0.00000000000E+00  0.48641803601E+03  0.48641803601E+03  0.00000000000E+00 0. -1.
         -4   -1    0    0    0  501 -0.00000000000E+00 -0.00000000000E+00 -0.62891058658E+03  0.62891058658E+03  0.00000000000E+00 0. -1.
   -9000010    2    1    2    0  502  0.49868235917E+02  0.73334521341E+02 -0.11217725601E+03  0.10216065802E+04  0.10115490473E+04 0.  0.
         13    1    3    3    0    0  0.41609933444E+03 -0.20374250779E+03  0.15713974112E+03  0.48922650685E+03  0.10566000000E+00 0. -1.
         -4    1    3    3    0  502 -0.36623109852E+03  0.27707702914E+03 -0.26931699713E+03  0.53238007339E+03  0.00000000000E+00 0. -1.
        -13    1    1    2    0    0 -0.49868235917E+02 -0.73334521341E+02 -0.30315294564E+02  0.93722042350E+02  0.10566000000E+00 0.  1.
<mgrwt>
<rscale>  1 0.55201159E+03</rscale>
<asrwt>0</asrwt>
<pdfrwt beam="1">  1       21 0.74833544E-01 0.10154291E+04</pdfrwt>
<pdfrwt beam="2">  1       -4 0.96755474E-01 0.10154291E+04</pdfrwt>
<totfact> 0.55037034E+01</totfact>
</mgrwt>
</event>
<event>
 6    2  0.2267664E-005  0.1125436E+04  0.7818608E-02  0.9377462E-01
         -4   -1    0    0    0  501 -0.00000000000E+00  0.00000000000E+00  0.74164534727E+03  0.74164534727E+03  0.00000000000E+00 0. -1.
         21   -1    0    0  501  502  0.00000000000E+00 -0.00000000000E+00 -0.98176138582E+03  0.98176138582E+03  0.00000000000E+00 0. -1.
   -9000010    2    1    2    0  502 -0.42633352994E+03 -0.34212535759E+03  0.22808146910E+01  0.11254382685E+04  0.98376626032E+03 0.  0.
         13    1    3    3    0    0 -0.34132487937E+03 -0.20722531276E+03  0.47850619798E+03  0.62322804509E+03  0.10566000000E+00 0. -1.
         -4    1    3    3    0  502 -0.85008650573E+02 -0.13490004483E+03 -0.47622538329E+03  0.50221022337E+03  0.00000000000E+00 0. -1.
        -13    1    1    2    0    0  0.42633352994E+03  0.34212535759E+03 -0.24239685324E+03  0.59796846462E+03  0.10566000000E+00 0.  1.
<mgrwt>
<rscale>  1 0.93953950E+03</rscale>
<asrwt>0</asrwt>
<pdfrwt beam="2">  1       21 0.15104021E+00 0.11254360E+04</pdfrwt>
<pdfrwt beam="1">  1       -4 0.11409928E+00 0.11254360E+04</pdfrwt>
<totfact> 0.61521853E+00</totfact>
</mgrwt>
</event>
<event>
 6    2  0.2267664E-005  0.1133871E+04  0.7818608E-02  0.9441734E-01
         -4   -1    0    0    0  501 -0.00000000000E+00  0.00000000000E+00  0.16505963015E+04  0.16505963015E+04  0.00000000000E+00 0. -1.
         21   -1    0    0  501  502  0.00000000000E+00 -0.00000000000E+00 -0.39676189453E+03  0.39676189453E+03  0.00000000000E+00 0. -1.
   -9000010    2    1    2    0  502  0.42483179090E+03  0.11686411074E+02  0.64384828706E+03  0.13039190927E+04  0.10512115680E+04 0.  0.
         13    1    3    3    0    0 -0.33812351490E+03 -0.38787654994E+02  0.68885702542E+02  0.34724234288E+03  0.10566000000E+00 0. -1.
         -4    1    3    3    0  502  0.76295530580E+03  0.50474066068E+02  0.57496258452E+03  0.95667674979E+03  0.00000000000E+00 0. -1.
        -13    1    1    2    0    0 -0.42483179090E+03 -0.11686411074E+02  0.60998611994E+03  0.74343910339E+03  0.10566000000E+00 0.  1.
<mgrwt>
<rscale>  1 0.88719314E+03</rscale>
<asrwt>0</asrwt>
<pdfrwt beam="2">  1       21 0.61040292E-01 0.11338714E+04</pdfrwt>
<pdfrwt beam="1">  1       -4 0.25393789E+00 0.11338714E+04</pdfrwt>
<totfact> 0.57043461E+00</totfact>
</mgrwt>
</event>
<event>
 6    2  0.2267664E-005  0.9974295E+03  0.7818608E-02  0.9813465E-01
         21   -1    0    0  501  502  0.00000000000E+00  0.00000000000E+00  0.26736474799E+03  0.26736474799E+03  0.00000000000E+00 0. -1.
         -4   -1    0    0    0  501 -0.00000000000E+00 -0.00000000000E+00 -0.13142406490E+04  0.13142406490E+04  0.00000000000E+00 0. -1.
   -9000010    2    1    2    0  502  0.31274746630E+02 -0.17318984073E+03 -0.80105075872E+03  0.12792763669E+04  0.98178046125E+03 0.  0.
         13    1    3    3    0    0 -0.22933873302E+03  0.34330927206E+03 -0.40371564170E+03  0.57744596393E+03  0.10566000000E+00 0. -1.
         -4    1    3    3    0  502  0.26061347965E+03 -0.51649911278E+03 -0.39733511702E+03  0.70183040294E+03  0.00000000000E+00 0. -1.
        -13    1    1    2    0    0 -0.31274746630E+02  0.17318984073E+03 -0.24582514229E+03  0.30232903012E+03  0.10566000000E+00 0.  1.
<mgrwt>
<rscale>  1 0.64644905E+03</rscale>
<asrwt>0</asrwt>
<pdfrwt beam="1">  1       21 0.41133038E-01 0.99742955E+03</pdfrwt>
<pdfrwt beam="2">  1       -4 0.20219087E+00 0.99742955E+03</pdfrwt>
<totfact> 0.29006010E+01</totfact>
</mgrwt>
</event>
<event>
 6    2  0.2267664E-005  0.1058472E+04  0.7818608E-02  0.9578095E-01
         21   -1    0    0  501  502  0.00000000000E+00  0.00000000000E+00  0.87748244359E+03  0.87748244359E+03  0.00000000000E+00 0. -1.
         -4   -1    0    0    0  501 -0.00000000000E+00 -0.00000000000E+00 -0.56714874624E+03  0.56714874624E+03  0.00000000000E+00 0. -1.
   -9000010    2    1    2    0  502  0.86260726322E+02  0.31285432700E+03  0.35636966633E+03  0.11168537281E+04  0.10074940039E+04 0.  0.
         13    1    3    3    0    0  0.15578861417E+03 -0.91221375826E+02 -0.29578039257E+03  0.34652198127E+03  0.10566000000E+00 0. -1.
         -4    1    3    3    0  502 -0.69527887846E+02  0.40407570283E+03  0.65215005890E+03  0.77033174680E+03  0.00000000000E+00 0. -1.
        -13    1    1    2    0    0 -0.86260726322E+02 -0.31285432700E+03 -0.46035968988E+02  0.32777746175E+03  0.10566000000E+00 0.  1.
<mgrwt>
<rscale>  1 0.78763088E+03</rscale>
<asrwt>0</asrwt>
<pdfrwt beam="1">  1       21 0.13499730E+00 0.10584720E+04</pdfrwt>
<pdfrwt beam="2">  1       -4 0.87253653E-01 0.10584720E+04</pdfrwt>
<totfact> 0.16120304E+01</totfact>
</mgrwt>
</event>
<event>
 6    2  0.2267664E-005  0.1044667E+04  0.7818608E-02  0.9715798E-01
         21   -1    0    0  501  502  0.00000000000E+00  0.00000000000E+00  0.57663735285E+03  0.57663735285E+03  0.00000000000E+00 0. -1.
         -4   -1    0    0    0  501 -0.00000000000E+00 -0.00000000000E+00 -0.81472996814E+03  0.81472996814E+03  0.00000000000E+00 0. -1.
   -9000010    2    1    2    0  502 -0.15155362789E+03  0.14768580870E+03  0.35763738358E+02  0.10452793064E+04  0.10230103534E+04 0.  0.
         13    1    3    3    0    0 -0.52094072275E+03 -0.17672692372E+03 -0.20278444640E+02  0.55047512993E+03  0.10566000000E+00 0. -1.
         -4    1    3    3    0  502  0.36938709486E+03  0.32441273243E+03  0.56042182998E+02  0.49480417650E+03  0.00000000000E+00 0. -1.
        -13    1    1    2    0    0  0.15155362789E+03 -0.14768580870E+03 -0.27385635366E+03  0.34608801456E+03  0.10566000000E+00 0.  1.
<mgrwt>
<rscale>  1 0.70083945E+03</rscale>
<asrwt>0</asrwt>
<pdfrwt beam="1">  1       21 0.88713439E-01 0.10446673E+04</pdfrwt>
<pdfrwt beam="2">  1       -4 0.12534307E+00 0.10446673E+04</pdfrwt>
<totfact> 0.19388032E+01</totfact>
</mgrwt>
</event>
<event>
 6    2  0.2267664E-005  0.1006592E+04  0.7818608E-02  0.9595769E-01
         21   -1    0    0  501  502  0.00000000000E+00  0.00000000000E+00  0.11508749671E+04  0.11508749671E+04  0.00000000000E+00 0. -1.
         -4   -1    0    0    0  501 -0.00000000000E+00 -0.00000000000E+00 -0.51818900374E+03  0.51818900374E+03  0.00000000000E+00 0. -1.
   -9000010    2    1    2    0  502 -0.34803989163E+03 -0.70532227263E+02  0.79105815983E+03  0.12802345416E+04  0.94187096142E+03 0.  0.
         13    1    3    3    0    0 -0.65423230960E+03 -0.65882260939E+02  0.35459490906E+03  0.74705953440E+03  0.10566000000E+00 0. -1.
         -4    1    3    3    0  502  0.30619241797E+03 -0.46499663241E+01  0.43646325077E+03  0.53317500718E+03  0.00000000000E+00 0. -1.
        -13    1    1    2    0    0  0.34803989163E+03  0.70532227263E+02 -0.15837219649E+03  0.38882942923E+03  0.10566000000E+00 0.  1.
<mgrwt>
<rscale>  1 0.77576883E+03</rscale>
<asrwt>0</asrwt>
<pdfrwt beam="1">  1       21 0.17705769E+00 0.10065920E+04</pdfrwt>
<pdfrwt beam="2">  1       -4 0.79721385E-01 0.10065920E+04</pdfrwt>
<totfact> 0.92828564E+00</totfact>
</mgrwt>
</event>
<event>
 6    2  0.2267664E-005  0.1051958E+04  0.7818608E-02  0.9593869E-01
         21   -1    0    0  501  502  0.00000000000E+00  0.00000000000E+00  0.83975129296E+03  0.83975129296E+03  0.00000000000E+00 0. -1.
         -4   -1    0    0    0  501 -0.00000000000E+00 -0.00000000000E+00 -0.73520696442E+03  0.73520696442E+03  0.00000000000E+00 0. -1.
   -9000010    2    1    2    0  502 -0.19321853565E+03 -0.24644336329E+03  0.41791891049E+03  0.11319330057E+04  0.10042650944E+04 0.  0.
         13    1    3    3    0    0  0.13757575405E+03 -0.10518419612E+03  0.67044254833E+03  0.69244785002E+03  0.10566000000E+00 0. -1.
         -4    1    3    3    0  502 -0.33079428970E+03 -0.14125916717E+03 -0.25252363785E+03  0.43948515570E+03  0.00000000000E+00 0. -1.
        -13    1    1    2    0    0  0.19321853565E+03  0.24644336329E+03 -0.31337458195E+03  0.44302525166E+03  0.10566000000E+00 0.  1.
<mgrwt>
<rscale>  1 0.77703332E+03</rscale>
<asrwt>0</asrwt>
<pdfrwt beam="1">  1       21 0.12919251E+00 0.10519582E+04</pdfrwt>
<pdfrwt beam="2">  1       -4 0.11310876E+00 0.10519582E+04</pdfrwt>
<totfact> 0.97058204E+00</totfact>
</mgrwt>
</event>
<event>
 6    2  0.2267664E-005  0.1005486E+04  0.7818608E-02  0.9743578E-01
         -4   -1    0    0    0  501 -0.00000000000E+00  0.00000000000E+00  0.14550895586E+04  0.14550895586E+04  0.00000000000E+00 0. -1.
         21   -1    0    0  501  502  0.00000000000E+00 -0.00000000000E+00 -0.29398221733E+03  0.29398221733E+03  0.00000000000E+00 0. -1.
   -9000010    2    1    2    0  502  0.16303657181E+03  0.14220495095E+03  0.65861807437E+03  0.12019898384E+04  0.98193616493E+03 0.  0.
         13    1    3    3    0    0 -0.15804085278E+03 -0.12528572887E+03  0.74793617957E+03  0.77464957554E+03  0.10566000000E+00 0. -1.
         -4    1    3    3    0  502  0.32107742459E+03  0.26749067981E+03 -0.89318105208E+02  0.42734026289E+03  0.00000000000E+00 0. -1.
        -13    1    1    2    0    0 -0.16303657181E+03 -0.14220495095E+03  0.50248926687E+03  0.54708193747E+03  0.10566000000E+00 0.  1.
<mgrwt>
<rscale>  1 0.68480417E+03</rscale>
<asrwt>0</asrwt>
<pdfrwt beam="2">  1       21 0.45228034E-01 0.10054859E+04</pdfrwt>
<pdfrwt beam="1">  1       -4 0.22385993E+00 0.10054859E+04</pdfrwt>
<totfact> 0.17179445E+01</totfact>
</mgrwt>
</event>
<event>
 6    2  0.2267664E-005  0.1024973E+04  0.7818608E-02  0.9676888E-01
         21   -1    0    0  501  502  0.00000000000E+00  0.00000000000E+00  0.66037798058E+03  0.66037798058E+03  0.00000000000E+00 0. -1.
         -4   -1    0    0    0  501 -0.00000000000E+00 -0.00000000000E+00 -0.94726661911E+03  0.94726661911E+03  0.00000000000E+00 0. -1.
   -9000010    2    1    2    0  502 -0.74097930753E+02  0.24430895367E+03  0.21251163702E+03  0.10467720522E+04  0.99266971604E+03 0.  0.
         13    1    3    3    0    0  0.82240685226E+02  0.95558441835E+02  0.59467372599E+03  0.60789127124E+03  0.10566000000E+00 0. -1.
         -4    1    3    3    0  502 -0.15633861598E+03  0.14875051183E+03 -0.38216208897E+03  0.43888078092E+03  0.00000000000E+00 0. -1.
        -13    1    1    2    0    0  0.74097930753E+02 -0.24430895367E+03 -0.49940027556E+03  0.56087254753E+03  0.10566000000E+00 0.  1.
<mgrwt>
<rscale>  1 0.72409670E+03</rscale>
<asrwt>0</asrwt>
<pdfrwt beam="1">  1       21 0.10159661E+00 0.10249734E+04</pdfrwt>
<pdfrwt beam="2">  1       -4 0.14573333E+00 0.10249734E+04</pdfrwt>
<totfact> 0.94180516E+00</totfact>
</mgrwt>
</event>
<event>
 6    2  0.2267664E-005  0.1041113E+04  0.7818608E-02  0.9612716E-01
         -4   -1    0    0    0  501 -0.00000000000E+00  0.00000000000E+00  0.94197027399E+03  0.94197027399E+03  0.00000000000E+00 0. -1.
         21   -1    0    0  501  502  0.00000000000E+00 -0.00000000000E+00 -0.79669134502E+03  0.79669134502E+03  0.00000000000E+00 0. -1.
   -9000010    2    1    2    0  502 -0.29754682256E+03  0.56506234056E+02 -0.39968160340E+03  0.11151962558E+04  0.99608746543E+03 0.  0.
         13    1    3    3    0    0  0.34517303861E+03 -0.13307363061E+03 -0.16660347722E+03  0.40572126828E+03  0.10566000000E+00 0. -1.
         -4    1    3    3    0  502 -0.64271986117E+03  0.18957986467E+03 -0.23307812617E+03  0.70947498753E+03  0.00000000000E+00 0. -1.
        -13    1    1    2    0    0  0.29754682256E+03 -0.56506234056E+02  0.54496053238E+03  0.62346536320E+03  0.10566000000E+00 0.  1.
<mgrwt>
<rscale>  1 0.76460257E+03</rscale>
<asrwt>0</asrwt>
<pdfrwt beam="2">  1       21 0.12256790E+00 0.10411135E+04</pdfrwt>
<pdfrwt beam="1">  1       -4 0.14491850E+00 0.10411135E+04</pdfrwt>
<totfact> 0.59150264E+00</totfact>
</mgrwt>
</event>
<event>
 6    2  0.2267664E-005  0.1008230E+04  0.7818608E-02  0.9959054E-01
         21   -1    0    0  501  502  0.00000000000E+00  0.00000000000E+00  0.87184362871E+03  0.87184362871E+03  0.00000000000E+00 0. -1.
         -4   -1    0    0    0  501 -0.00000000000E+00 -0.00000000000E+00 -0.38427742633E+03  0.38427742633E+03  0.00000000000E+00 0. -1.
   -9000010    2    1    2    0  502 -0.87272217566E+02  0.61090267963E+02  0.32043417189E+03  0.10579252236E+04  0.10025862853E+04 0.  0.
         13    1    3    3    0    0 -0.41016120771E+03  0.11148772859E+03 -0.17889929966E+03  0.46115799952E+03  0.10566000000E+00 0. -1.
         -4    1    3    3    0  502  0.32288899014E+03 -0.50397460631E+02  0.49933347155E+03  0.59676722413E+03  0.00000000000E+00 0. -1.
        -13    1    1    2    0    0  0.87272217566E+02 -0.61090267963E+02  0.16713203050E+03  0.19819583139E+03  0.10566000000E+00 0.  1.
<mgrwt>
<rscale>  1 0.57482671E+03</rscale>
<asrwt>0</asrwt>
<pdfrwt beam="1">  1       21 0.13412979E+00 0.10082300E+04</pdfrwt>
<pdfrwt beam="2">  1       -4 0.59119604E-01 0.10082300E+04</pdfrwt>
<totfact> 0.39619257E+01</totfact>
</mgrwt>
</event>
<event>
 6    2  0.2267664E-005  0.9921854E+03  0.7818608E-02  0.1004822E+00
         -4   -1    0    0    0  501 -0.00000000000E+00  0.00000000000E+00  0.21745442866E+03  0.21745442866E+03  0.00000000000E+00 0. -1.
         21   -1    0    0  501  502  0.00000000000E+00 -0.00000000000E+00 -0.14849970707E+04  0.14849970707E+04  0.00000000000E+00 0. -1.
   -9000010    2    1    2    0  502 -0.86514881794E+01  0.83969009943E+02 -0.12774028197E+04  0.16174639877E+04  0.98858795495E+03 0.  0.
         13    1    3    3    0    0 -0.41680607909E+03  0.30816500824E+03 -0.77565518292E+03  0.93291690617E+03  0.10566000000E+00 0. -1.
         -4    1    3    3    0  502  0.40815459091E+03 -0.22419599830E+03 -0.50174763681E+03  0.68454708150E+03  0.00000000000E+00 0. -1.
        -13    1    1    2    0    0  0.86514881794E+01 -0.83969009943E+02  0.98601776697E+01  0.84987511708E+02  0.10566000000E+00 0.  1.
<mgrwt>
<rscale>  1 0.53585551E+03</rscale>
<asrwt>0</asrwt>
<pdfrwt beam="2">  1       21 0.22846110E+00 0.99218536E+03</pdfrwt>
<pdfrwt beam="1">  1       -4 0.33454525E-01 0.99218536E+03</pdfrwt>
<totfact> 0.26213858E+01</totfact>
</mgrwt>
</event>
<event>
 6    2  0.2267664E-005  0.1473728E+04  0.7818608E-02  0.8978159E-01
         -4   -1    0    0    0  501 -0.00000000000E+00  0.00000000000E+00  0.24537971196E+04  0.24537971196E+04  0.00000000000E+00 0. -1.
         21   -1    0    0  501  502  0.00000000000E+00 -0.00000000000E+00 -0.91396512321E+03  0.91396512321E+03  0.00000000000E+00 0.  1.
   -9000010    2    1    2    0  502  0.10875557675E+04  0.80886213743E+02 -0.86985495559E+01  0.14737540617E+04  0.99123924594E+03 0.  0.
         13    1    3    3    0    0  0.85544615244E+03 -0.74209609815E+02  0.42492010217E+03  0.95804607943E+03  0.10566000000E+00 0. -1.
         -4    1    3    3    0  502  0.23210961507E+03  0.15509582356E+03 -0.43361865172E+03  0.51570798231E+03  0.00000000000E+00 0. -1.
        -13    1    1    2    0    0 -0.10875557675E+04 -0.80886213743E+02  0.15485305459E+04  0.18940081810E+04  0.10566000000E+00 0.  1.
<mgrwt>
<rscale>  1 0.13668644E+04</rscale>
<asrwt>0</asrwt>
<pdfrwt beam="2">  1       21 0.14061002E+00 0.14737284E+04</pdfrwt>
<pdfrwt beam="1">  1       -4 0.37750725E+00 0.14737284E+04</pdfrwt>
<totfact> 0.11432894E-01</totfact>
</mgrwt>
</event>
<event>
 6    2  0.2267664E-005  0.9917342E+03  0.7818608E-02  0.9726721E-01
         21   -1    0    0  501  502  0.00000000000E+00  0.00000000000E+00  0.44919023075E+03  0.44919023075E+03  0.00000000000E+00 0. -1.
         -4   -1    0    0    0  501 -0.00000000000E+00 -0.00000000000E+00 -0.10976791614E+04  0.10976791614E+04  0.00000000000E+00 0. -1.
   -9000010    2    1    2    0  502 -0.14469366022E+03  0.18956810028E+03 -0.16173658277E+03  0.10048360175E+04  0.96263408407E+03 0.  0.
         13    1    3    3    0    0  0.14495094656E+03  0.48703177969E+03  0.94627110912E+02  0.51688009502E+03  0.10566000000E+00 0. -1.
         -4    1    3    3    0  502 -0.28964460678E+03 -0.29746367941E+03 -0.25636369368E+03  0.48795592244E+03  0.00000000000E+00 0. -1.
        -13    1    1    2    0    0  0.14469366022E+03 -0.18956810028E+03 -0.48675234790E+03  0.54203337471E+03  0.10566000000E+00 0.  1.
<mgrwt>
<rscale>  1 0.69447896E+03</rscale>
<asrwt>0</asrwt>
<pdfrwt beam="1">  1       21 0.69106190E-01 0.99173419E+03</pdfrwt>
<pdfrwt beam="2">  1       -4 0.16887371E+00 0.99173419E+03</pdfrwt>
<totfact> 0.15810377E+01</totfact>
</mgrwt>
</event>
<event>
 6    2  0.2267664E-005  0.1018137E+04  0.7818608E-02  0.9683325E-01
         21   -1    0    0  501  502  0.00000000000E+00  0.00000000000E+00  0.86646708720E+03  0.86646708720E+03  0.00000000000E+00 0. -1.
         -4   -1    0    0    0  501 -0.00000000000E+00 -0.00000000000E+00 -0.67942135264E+03  0.67942135264E+03  0.00000000000E+00 0. -1.
   -9000010    2    1    2    0  502  0.25479822719E+03 -0.68767971923E+01  0.50653404934E+03  0.11371804495E+04  0.98571456552E+03 0.  0.
         13    1    3    3    0    0 -0.31188382341E+02 -0.45364079093E+03  0.37815395950E+03  0.59140773637E+03  0.10566000000E+00 0. -1.
         -4    1    3    3    0  502  0.28598660953E+03  0.44676399374E+03  0.12838008984E+03  0.54577271313E+03  0.00000000000E+00 0. -1.
        -13    1    1    2    0    0 -0.25479822719E+03  0.68767971923E+01 -0.31948831478E+03  0.40870799033E+03  0.10566000000E+00 0.  1.
<mgrwt>
<rscale>  1 0.72018364E+03</rscale>
<asrwt>0</asrwt>
<pdfrwt beam="1">  1       21 0.13330263E+00 0.10181368E+04</pdfrwt>
<pdfrwt beam="2">  1       -4 0.10452636E+00 0.10181368E+04</pdfrwt>
<totfact> 0.10881787E+01</totfact>
</mgrwt>
</event>
<event>
 6    2  0.2267664E-005  0.1013977E+04  0.7818608E-02  0.9766533E-01
         -4   -1    0    0    0  501 -0.00000000000E+00  0.00000000000E+00  0.75931204473E+03  0.75931204473E+03  0.00000000000E+00 0. -1.
         21   -1    0    0  501  502  0.00000000000E+00 -0.00000000000E+00 -0.54335181286E+03  0.54335181286E+03  0.00000000000E+00 0. -1.
   -9000010    2    1    2    0  502 -0.57441388590E+02  0.18686412136E+03  0.35484678819E+01  0.10139832700E+04  0.99495314831E+03 0.  0.
         13    1    3    3    0    0  0.15950481022E+02 -0.40692982685E+03 -0.62599459113E+02  0.41202549104E+03  0.10566000000E+00 0. -1.
         -4    1    3    3    0  502 -0.73391869612E+02  0.59379394821E+03  0.66147926995E+02  0.60195777900E+03  0.00000000000E+00 0. -1.
        -13    1    1    2    0    0  0.57441388590E+02 -0.18686412136E+03  0.21241176399E+03  0.28868058754E+03  0.10566000000E+00 0.  1.
<mgrwt>
<rscale>  1 0.67189932E+03</rscale>
<asrwt>0</asrwt>
<pdfrwt beam="2">  1       21 0.83592586E-01 0.10139771E+04</pdfrwt>
<pdfrwt beam="1">  1       -4 0.11681724E+00 0.10139771E+04</pdfrwt>
<totfact> 0.26780370E+01</totfact>
</mgrwt>
</event>
<event>
 6    2  0.2267664E-005  0.9881929E+03  0.7818608E-02  0.9983010E-01
         -4   -1    0    0    0  501 -0.00000000000E+00  0.00000000000E+00  0.74870643518E+03  0.74870643518E+03  0.00000000000E+00 0. -1.
         21   -1    0    0  501  502  0.00000000000E+00 -0.00000000000E+00 -0.43435779239E+03  0.43435779239E+03  0.00000000000E+00 0. -1.
   -9000010    2    1    2    0  502  0.12284017186E+02  0.10414471214E+03  0.38067807615E+03  0.10589810980E+04  0.98261291980E+03 0.  0.
         13    1    3    3    0    0  0.24123094586E+03  0.34539264049E+03 -0.13757358998E+03  0.44318726196E+03  0.10566000000E+00 0. -1.
         -4    1    3    3    0  502 -0.22894692867E+03 -0.24124792835E+03  0.51825166613E+03  0.61579383605E+03  0.00000000000E+00 0. -1.
        -13    1    1    2    0    0 -0.12284017186E+02 -0.10414471214E+03 -0.66329433365E+02  0.12408312955E+03  0.10566000000E+00 0.  1.
<mgrwt>
<rscale>  1 0.56401515E+03</rscale>
<asrwt>0</asrwt>
<pdfrwt beam="2">  1       21 0.66824276E-01 0.98819288E+03</pdfrwt>
<pdfrwt beam="1">  1       -4 0.11518561E+00 0.98819288E+03</pdfrwt>
<totfact> 0.46738110E+01</totfact>
</mgrwt>
</event>
<event>
 6    2  0.2267664E-005  0.1106325E+04  0.7818608E-02  0.9447736E-01
         21   -1    0    0  501  502  0.00000000000E+00  0.00000000000E+00  0.50795948996E+03  0.50795948996E+03  0.00000000000E+00 0. -1.
         -4   -1    0    0    0  501 -0.00000000000E+00 -0.00000000000E+00 -0.12143902285E+04  0.12143902285E+04  0.00000000000E+00 0. -1.
   -9000010    2    1    2    0  502  0.38476945755E+03  0.22930002007E+03 -0.61297887920E+03  0.12647917486E+04  0.10115972648E+04 0.  0.
         13    1    3    3    0    0 -0.15238079785E+03  0.48689339226E+03 -0.26539687845E+03  0.57508312202E+03  0.10566000000E+00 0. -1.
         -4    1    3    3    0  502  0.53715025540E+03 -0.25759337218E+03 -0.34758200075E+03  0.68970862653E+03  0.00000000000E+00 0. -1.
        -13    1    1    2    0    0 -0.38476945755E+03 -0.22930002007E+03 -0.93451859371E+02  0.45755796994E+03  0.10566000000E+00 0.  1.
<mgrwt>
<rscale>  1 0.88249148E+03</rscale>
<asrwt>0</asrwt>
<pdfrwt beam="1">  1       21 0.78147616E-01 0.11063250E+04</pdfrwt>
<pdfrwt beam="2">  1       -4 0.18682926E+00 0.11063250E+04</pdfrwt>
<totfact> 0.87856673E+00</totfact>
</mgrwt>
</event>
<event>
 6    2  0.2267664E-005  0.1047806E+04  0.7818608E-02  0.9619777E-01
         -4   -1    0    0    0  501 -0.00000000000E+00  0.00000000000E+00  0.10750313414E+04  0.10750313414E+04  0.00000000000E+00 0. -1.
         21   -1    0    0  501  502  0.00000000000E+00 -0.00000000000E+00 -0.76172075984E+03  0.76172075984E+03  0.00000000000E+00 0. -1.
   -9000010    2    1    2    0  502 -0.14198821503E+03  0.25288870703E+03 -0.35654486119E+03  0.11068071193E+04  0.10068686160E+04 0.  0.
         13    1    3    3    0    0  0.34716550069E+03  0.39823281240E+03 -0.10813262307E+03  0.53926425162E+03  0.10566000000E+00 0. -1.
         -4    1    3    3    0  502 -0.48915371572E+03 -0.14534410537E+03 -0.24841223812E+03  0.56754286765E+03  0.00000000000E+00 0. -1.
        -13    1    1    2    0    0  0.14198821503E+03 -0.25288870703E+03  0.66985544276E+03  0.72994498198E+03  0.10566000000E+00 0.  1.
<mgrwt>
<rscale>  1 0.76000918E+03</rscale>
<asrwt>0</asrwt>
<pdfrwt beam="2">  1       21 0.11718781E+00 0.10478062E+04</pdfrwt>
<pdfrwt beam="1">  1       -4 0.16538944E+00 0.10478062E+04</pdfrwt>
<totfact> 0.46356923E+00</totfact>
</mgrwt>
</event>
<event>
 6    2  0.2267664E-005  0.1039181E+04  0.7818608E-02  0.9635432E-01
         21   -1    0    0  501  502  0.00000000000E+00  0.00000000000E+00  0.43162376491E+03  0.43162376491E+03  0.00000000000E+00 0. -1.
         -4   -1    0    0    0  501 -0.00000000000E+00 -0.00000000000E+00 -0.10400292388E+04  0.10400292388E+04  0.00000000000E+00 0. -1.
   -9000010    2    1    2    0  502  0.24145962650E+03 -0.14542596854E+03 -0.57542208457E+03  0.11878583972E+04  0.10002227416E+04 0.  0.
         13    1    3    3    0    0 -0.11658870299E+03  0.29174034734E+03 -0.53614748416E+03  0.62141732505E+03  0.10566000000E+00 0. -1.
         -4    1    3    3    0  502  0.35804832948E+03 -0.43716631588E+03 -0.39274600406E+02  0.56644107215E+03  0.00000000000E+00 0. -1.
        -13    1    1    2    0    0 -0.24145962650E+03  0.14542596854E+03 -0.32983389339E+02  0.28379460652E+03  0.10566000000E+00 0.  1.
<mgrwt>
<rscale>  1 0.74994804E+03</rscale>
<asrwt>0</asrwt>
<pdfrwt beam="1">  1       21 0.66403657E-01 0.10391809E+04</pdfrwt>
<pdfrwt beam="2">  1       -4 0.16000450E+00 0.10391809E+04</pdfrwt>
<totfact> 0.20023251E+01</totfact>
</mgrwt>
</event>
<event>
 6    2  0.2267664E-005  0.1032056E+04  0.7818608E-02  0.9717596E-01
         -4   -1    0    0    0  501 -0.00000000000E+00  0.00000000000E+00  0.62408028387E+03  0.62408028387E+03  0.00000000000E+00 0. -1.
         21   -1    0    0  501  502  0.00000000000E+00 -0.00000000000E+00 -0.75224881892E+03  0.75224881892E+03  0.00000000000E+00 0. -1.
   -9000010    2    1    2    0  502  0.21803713436E+03 -0.70054638062E+01 -0.32550196211E+03  0.10821696884E+04  0.10087370513E+04 0.  0.
         13    1    3    3    0    0 -0.14784681412E+03  0.29707530404E+03  0.18862541306E+03  0.38169618067E+03  0.10566000000E+00 0. -1.
         -4    1    3    3    0  502  0.36588394848E+03 -0.30408076785E+03 -0.51412737517E+03  0.70047350773E+03  0.00000000000E+00 0. -1.
        -13    1    1    2    0    0 -0.21803713436E+03  0.70054638062E+01  0.19733342705E+03  0.29415941440E+03  0.10566000000E+00 0.  1.
<mgrwt>
<rscale>  1 0.69978738E+03</rscale>
<asrwt>0</asrwt>
<pdfrwt beam="2">  1       21 0.11573059E+00 0.10320561E+04</pdfrwt>
<pdfrwt beam="1">  1       -4 0.96012352E-01 0.10320561E+04</pdfrwt>
<totfact> 0.19329946E+01</totfact>
</mgrwt>
</event>
<event>
 6    2  0.2267664E-005  0.1029671E+04  0.7818608E-02  0.9729303E-01
         -4   -1    0    0    0  501 -0.00000000000E+00  0.00000000000E+00  0.34489902693E+03  0.34489902693E+03  0.00000000000E+00 0. -1.
         21   -1    0    0  501  502  0.00000000000E+00 -0.00000000000E+00 -0.14795915709E+04  0.14795915709E+04  0.00000000000E+00 0. -1.
   -9000010    2    1    2    0  502 -0.11193564276E+03  0.17915942138E+03 -0.12201960387E+04  0.15965903013E+04  0.10077671015E+04 0.  0.
         13    1    3    3    0    0 -0.23815479650E+03  0.25978884069E+03  0.14609876619E+02  0.35273418958E+03  0.10566000000E+00 0. -1.
         -4    1    3    3    0  502  0.12621915374E+03 -0.80629419308E+02 -0.12348059153E+04  0.12438561117E+04  0.00000000000E+00 0. -1.
        -13    1    1    2    0    0  0.11193564276E+03 -0.17915942138E+03  0.85503494752E+02  0.22790029655E+03  0.10566000000E+00 0.  1.
<mgrwt>
<rscale>  1 0.69298590E+03</rscale>
<asrwt>0</asrwt>
<pdfrwt beam="2">  1       21 0.22762947E+00 0.10296709E+04</pdfrwt>
<pdfrwt beam="1">  1       -4 0.53061389E-01 0.10296709E+04</pdfrwt>
<totfact> 0.10227152E+01</totfact>
</mgrwt>
</event>
<event>
 6    2  0.2267664E-005  0.1098796E+04  0.7818608E-02  0.9460135E-01
         21   -1    0    0  501  502  0.00000000000E+00  0.00000000000E+00  0.20646551502E+04  0.20646551502E+04  0.00000000000E+00 0. -1.
         -4   -1    0    0    0  501 -0.00000000000E+00 -0.00000000000E+00 -0.39112552347E+03  0.39112552347E+03  0.00000000000E+00 0. -1.
   -9000010    2    1    2    0  502  0.29051896157E+03  0.32722964950E+03  0.16923725561E+04  0.20177902883E+04  0.10079048906E+04 0.  0.
         13    1    3    3    0    0  0.20013980189E+03 -0.20594957121E+03  0.13443878557E+04  0.13747181107E+04  0.10566000000E+00 0. -1.
         -4    1    3    3    0  502  0.90379159680E+02  0.53317922071E+03  0.34798470036E+03  0.64307217758E+03  0.00000000000E+00 0. -1.
        -13    1    1    2    0    0 -0.29051896157E+03 -0.32722964950E+03 -0.18842929313E+02  0.43799038539E+03  0.10566000000E+00 0.  1.
<mgrwt>
<rscale>  1 0.87287769E+03</rscale>
<asrwt>0</asrwt>
<pdfrwt beam="1">  1       21 0.31763925E+00 0.10987961E+04</pdfrwt>
<pdfrwt beam="2">  1       -4 0.60173159E-01 0.10987961E+04</pdfrwt>
<totfact> 0.20852407E+00</totfact>
</mgrwt>
</event>
<event>
 6    2  0.2267664E-005  0.1081105E+04  0.7818608E-02  0.9534660E-01
         -4   -1    0    0    0  501 -0.00000000000E+00  0.00000000000E+00  0.76463262560E+03  0.76463262560E+03  0.00000000000E+00 0. -1.
         21   -1    0    0  501  502  0.00000000000E+00 -0.00000000000E+00 -0.68297426069E+03  0.68297426069E+03  0.00000000000E+00 0. -1.
   -9000010    2    1    2    0  502 -0.35383444041E+03  0.75859807136E+01 -0.13250817185E+02  0.10811861959E+04  0.10215339680E+04 0.  0.
         13    1    3    3    0    0 -0.62604839901E+03  0.14562544411E+02 -0.29248834827E+03  0.69115708102E+03  0.10566000000E+00 0. -1.
         -4    1    3    3    0  502  0.27221395860E+03 -0.69765636975E+01  0.27923753108E+03  0.39002911489E+03  0.00000000000E+00 0. -1.
        -13    1    1    2    0    0  0.35383444041E+03 -0.75859807136E+01  0.94909182100E+02  0.36642069037E+03  0.10566000000E+00 0.  1.
<mgrwt>
<rscale>  1 0.81776004E+03</rscale>
<asrwt>0</asrwt>
<pdfrwt beam="2">  1       21 0.10507296E+00 0.10811050E+04</pdfrwt>
<pdfrwt beam="1">  1       -4 0.11763579E+00 0.10811050E+04</pdfrwt>
<totfact> 0.14958999E+01</totfact>
</mgrwt>
</event>
<event>
 6    2  0.2267664E-005  0.1015574E+04  0.7818608E-02  0.9793184E-01
         -4   -1    0    0    0  501 -0.00000000000E+00  0.00000000000E+00  0.60649688450E+03  0.60649688450E+03  0.00000000000E+00 0. -1.
         21   -1    0    0  501  502  0.00000000000E+00 -0.00000000000E+00 -0.18162264927E+04  0.18162264927E+04  0.00000000000E+00 0. -1.
   -9000010    2    1    2    0  502 -0.16889992265E+03  0.56818568384E+02 -0.16557648536E+04  0.19424078716E+04  0.99981776126E+03 0.  0.
         13    1    3    3    0    0 -0.30171529708E+03  0.71214348393E+02 -0.30322994930E+02  0.31148531120E+03  0.10566000000E+00 0. -1.
         -4    1    3    3    0  502  0.13281537443E+03 -0.14395780009E+02 -0.16254418587E+04  0.16309225604E+04  0.00000000000E+00 0. -1.
        -13    1    1    2    0    0  0.16889992265E+03 -0.56818568384E+02  0.44603524540E+03  0.48031550557E+03  0.10566000000E+00 0.  1.
<mgrwt>
<rscale>  1 0.65729634E+03</rscale>
<asrwt>0</asrwt>
<pdfrwt beam="2">  1       21 0.27941946E+00 0.10155743E+04</pdfrwt>
<pdfrwt beam="1">  1       -4 0.93307213E-01 0.10155743E+04</pdfrwt>
<totfact> 0.13524615E+00</totfact>
</mgrwt>
</event>
<event>
 6    2  0.2267664E-005  0.1254497E+04  0.7818608E-02  0.9199264E-01
         -4   -1    0    0    0  501 -0.00000000000E+00  0.00000000000E+00  0.10346033597E+04  0.10346033597E+04  0.00000000000E+00 0. -1.
         21   -1    0    0  501  502  0.00000000000E+00 -0.00000000000E+00 -0.97955040145E+03  0.97955040145E+03  0.00000000000E+00 0.  1.
   -9000010    2    1    2    0  502  0.75000505687E+03  0.11104906596E+03  0.60461377406E+02  0.12559527703E+04  0.99946100610E+03 0.  0.
         13    1    3    3    0    0  0.14250619394E+03 -0.82030374289E+02  0.47023907500E+03  0.49815840497E+03  0.10566000000E+00 0. -1.
         -4    1    3    3    0  502  0.60749886293E+03  0.19307944024E+03 -0.40977769760E+03  0.75779436534E+03  0.00000000000E+00 0. -1.
        -13    1    1    2    0    0 -0.75000505687E+03 -0.11104906596E+03 -0.54084191478E+01  0.75820099086E+03  0.10566000000E+00 0.  1.
<mgrwt>
<rscale>  1 0.11061028E+04</rscale>
<asrwt>0</asrwt>
<pdfrwt beam="2">  1       21 0.15070006E+00 0.12544966E+04</pdfrwt>
<pdfrwt beam="1">  1       -4 0.15916975E+00 0.12544966E+04</pdfrwt>
<totfact> 0.25564328E+00</totfact>
</mgrwt>
</event>
<event>
 6    2  0.2267664E-005  0.1033878E+04  0.7818608E-02  0.9617037E-01
         -4   -1    0    0    0  501 -0.00000000000E+00  0.00000000000E+00  0.35784449476E+03  0.35784449476E+03  0.00000000000E+00 0. -1.
         21   -1    0    0  501  502  0.00000000000E+00 -0.00000000000E+00 -0.12927348004E+04  0.12927348004E+04  0.00000000000E+00 0. -1.
   -9000010    2    1    2    0  502 -0.17508823972E+03  0.24941828413E+03 -0.83789044042E+03  0.13307756723E+04  0.98794641948E+03 0.  0.
         13    1    3    3    0    0 -0.15470455368E+03 -0.87316975218E+02 -0.95674620467E+03  0.97309869202E+03  0.10566000000E+00 0. -1.
         -4    1    3    3    0  502 -0.20383686035E+02  0.33673525935E+03  0.11885576425E+03  0.35767698031E+03  0.00000000000E+00 0. -1.
        -13    1    1    2    0    0  0.17508823972E+03 -0.24941828413E+03 -0.96999865199E+02  0.31980362281E+03  0.10566000000E+00 0.  1.
<mgrwt>
<rscale>  1 0.76178720E+03</rscale>
<asrwt>0</asrwt>
<pdfrwt beam="2">  1       21 0.19888227E+00 0.10338779E+04</pdfrwt>
<pdfrwt beam="1">  1       -4 0.55053000E-01 0.10338779E+04</pdfrwt>
<totfact> 0.14721855E+01</totfact>
</mgrwt>
</event>
<event>
 6    2  0.2267664E-005  0.1001155E+04  0.7818608E-02  0.9706533E-01
         21   -1    0    0  501  502  0.00000000000E+00  0.00000000000E+00  0.10369260478E+04  0.10369260478E+04  0.00000000000E+00 0. -1.
         -4   -1    0    0    0  501 -0.00000000000E+00 -0.00000000000E+00 -0.43324135170E+03  0.43324135170E+03  0.00000000000E+00 0. -1.
   -9000010    2    1    2    0  502  0.58807583537E+02  0.24091488612E+03  0.68052413361E+03  0.12105472451E+04  0.96995526802E+03 0.  0.
         13    1    3    3    0    0 -0.18583359663E+03  0.55216125062E+03  0.27643225334E+03  0.64484957484E+03  0.10566000000E+00 0. -1.
         -4    1    3    3    0  502  0.24464118016E+03 -0.31124636449E+03  0.40409188026E+03  0.56569767026E+03  0.00000000000E+00 0. -1.
        -13    1    1    2    0    0 -0.58807583537E+02 -0.24091488612E+03 -0.76839437520E+02  0.25962015438E+03  0.10566000000E+00 0.  1.
<mgrwt>
<rscale>  1 0.70629143E+03</rscale>
<asrwt>0</asrwt>
<pdfrwt beam="1">  1       21 0.15952708E+00 0.10011551E+04</pdfrwt>
<pdfrwt beam="2">  1       -4 0.66652516E-01 0.10011551E+04</pdfrwt>
<totfact> 0.18861408E+01</totfact>
</mgrwt>
</event>
<event>
 6    2  0.2267664E-005  0.8586397E+03  0.7818608E-02  0.9897062E-01
         -4   -1    0    0    0  501 -0.00000000000E+00  0.00000000000E+00  0.16788610550E+04  0.16788610550E+04  0.00000000000E+00 0. -1.
         21   -1    0    0  501  502  0.00000000000E+00 -0.00000000000E+00 -0.36857666249E+03  0.36857666249E+03  0.00000000000E+00 0. -1.
   -9000010    2    1    2    0  502 -0.10193115912E+03 -0.18393880403E+03  0.15419182224E+03  0.87237453322E+03  0.83248949744E+03 0.  0.
         13    1    3    3    0    0 -0.27383420367E+03 -0.37456142340E+03 -0.13739780528E+03  0.48390040200E+03  0.10566000000E+00 0. -1.
         -4    1    3    3    0  502  0.17190304455E+03  0.19062261938E+03  0.29158962753E+03  0.38847413122E+03  0.00000000000E+00 0. -1.
        -13    1    1    2    0    0  0.10193115912E+03  0.18393880403E+03  0.11560925703E+04  0.11750631843E+04  0.10566000000E+00 0.  1.
<mgrwt>
<rscale>  1 0.60403878E+03</rscale>
<asrwt>0</asrwt>
<pdfrwt beam="2">  1       21 0.56704103E-01 0.85863974E+03</pdfrwt>
<pdfrwt beam="1">  1       -4 0.25828631E+00 0.85863974E+03</pdfrwt>
<totfact> 0.65531104E+00</totfact>
</mgrwt>
</event>
<event>
 6    2  0.2267664E-005  0.1004366E+04  0.7818608E-02  0.1006498E+00
         -4   -1    0    0    0  501 -0.00000000000E+00  0.00000000000E+00  0.12516717682E+04  0.12516717682E+04  0.00000000000E+00 0. -1.
         21   -1    0    0  501  502  0.00000000000E+00 -0.00000000000E+00 -0.26286510237E+03  0.26286510237E+03  0.00000000000E+00 0. -1.
   -9000010    2    1    2    0  502  0.72179276744E+02 -0.27494460379E+02  0.72245295329E+03  0.12372101595E+04  0.10013914897E+04 0.  0.
         13    1    3    3    0    0  0.25305670214E+03  0.10204886946E+03  0.90762384000E+03  0.94775139797E+03  0.10566000000E+00 0. -1.
         -4    1    3    3    0  502 -0.18087742539E+03 -0.12954332984E+03 -0.18517088671E+03  0.28945876150E+03  0.00000000000E+00 0. -1.
        -13    1    1    2    0    0 -0.72179276744E+02  0.27494460379E+02  0.26635371252E+03  0.27732671108E+03  0.10566000000E+00 0.  1.
<mgrwt>
<rscale>  1 0.52890488E+03</rscale>
<asrwt>0</asrwt>
<pdfrwt beam="2">  1       21 0.40440786E-01 0.10043658E+04</pdfrwt>
<pdfrwt beam="1">  1       -4 0.19256488E+00 0.10043658E+04</pdfrwt>
<totfact> 0.34820627E+01</totfact>
</mgrwt>
</event>
<event>
 6    2  0.2267664E-005  0.9885539E+03  0.7818608E-02  0.9998475E-01
         21   -1    0    0  501  502  0.00000000000E+00  0.00000000000E+00  0.14232821242E+04  0.14232821242E+04  0.00000000000E+00 0. -1.
         -4   -1    0    0    0  501 -0.00000000000E+00 -0.00000000000E+00 -0.20843476748E+03  0.20843476748E+03  0.00000000000E+00 0. -1.
   -9000010    2    1    2    0  502 -0.17213650561E+02  0.98263285777E+02  0.10821607401E+04  0.14657116734E+04  0.98350742704E+03 0.  0.
         13    1    3    3    0    0  0.27091851781E+03  0.28861208515E+03  0.10461172760E+04  0.11185057645E+04  0.10566000000E+00 0. -1.
         -4    1    3    3    0  502 -0.28813216837E+03 -0.19034879937E+03  0.36043464136E+02  0.34720590891E+03  0.00000000000E+00 0. -1.
        -13    1    1    2    0    0  0.17213650561E+02 -0.98263285777E+02  0.13268661659E+03  0.16600521825E+03  0.10566000000E+00 0.  1.
<mgrwt>
<rscale>  1 0.55717175E+03</rscale>
<asrwt>0</asrwt>
<pdfrwt beam="1">  1       21 0.21896647E+00 0.98855391E+03</pdfrwt>
<pdfrwt beam="2">  1       -4 0.32066888E-01 0.98855391E+03</pdfrwt>
<totfact> 0.32920754E+01</totfact>
</mgrwt>
</event>
<event>
 6    2  0.2267664E-005  0.1072490E+04  0.7818608E-02  0.1053594E+00
         21   -1    0    0  501  502  0.00000000000E+00  0.00000000000E+00  0.44880395050E+03  0.44880395050E+03  0.00000000000E+00 0. -1.
         -4   -1    0    0    0  501 -0.00000000000E+00 -0.00000000000E+00 -0.68349431214E+03  0.68349431214E+03  0.00000000000E+00 0. -1.
   -9000010    2    1    2    0  502 -0.14363168687E+02 -0.62698104112E+01 -0.19559690725E+03  0.10901803273E+04  0.10723755801E+04 0.  0.
         13    1    3    3    0    0  0.14601497115E+03 -0.26996614403E+03  0.34865791876E+03  0.46450451688E+03  0.10566000000E+00 0. -1.
         -4    1    3    3    0  502 -0.16037813983E+03  0.26369633362E+03 -0.54425482600E+03  0.62567581041E+03  0.00000000000E+00 0. -1.
        -13    1    1    2    0    0  0.14363168687E+02  0.62698104112E+01 -0.39093454399E+02  0.42117935351E+02  0.10566000000E+00 0.  1.
<mgrwt>
<rscale>  1 0.37288803E+03</rscale>
<asrwt>0</asrwt>
<pdfrwt beam="1">  1       21 0.69046762E-01 0.10724901E+04</pdfrwt>
<pdfrwt beam="2">  1       -4 0.10515297E+00 0.10724901E+04</pdfrwt>
<totfact> 0.53938414E+01</totfact>
</mgrwt>
</event>
<event>
 6    2  0.2267664E-005  0.9905235E+03  0.7818608E-02  0.1009304E+00
         -4   -1    0    0    0  501 -0.00000000000E+00  0.00000000000E+00  0.11299155236E+04  0.11299155236E+04  0.00000000000E+00 0. -1.
         21   -1    0    0  501  502  0.00000000000E+00 -0.00000000000E+00 -0.31675478441E+03  0.31675478441E+03  0.00000000000E+00 0. -1.
   -9000010    2    1    2    0  502 -0.69293987815E+02 -0.25421907375E+02  0.47130007849E+03  0.10969323309E+04  0.98776963130E+03 0.  0.
         13    1    3    3    0    0 -0.38426049642E+03  0.68195922587E+02  0.62290198320E+03  0.73506034093E+03  0.10566000000E+00 0. -1.
         -4    1    3    3    0  502  0.31496650860E+03 -0.93617829962E+02 -0.15160190471E+03  0.36187198999E+03  0.00000000000E+00 0. -1.
        -13    1    1    2    0    0  0.69293987815E+02  0.25421907375E+02  0.34186066073E+03  0.34973797712E+03  0.10566000000E+00 0.  1.
<mgrwt>
<rscale>  1 0.51752059E+03</rscale>
<asrwt>0</asrwt>
<pdfrwt beam="2">  1       21 0.48731506E-01 0.99052349E+03</pdfrwt>
<pdfrwt beam="1">  1       -4 0.17383316E+00 0.99052349E+03</pdfrwt>
<totfact> 0.31606907E+01</totfact>
</mgrwt>
</event>
<event>
 6    2  0.2267664E-005  0.1017512E+04  0.7818608E-02  0.9781951E-01
         -4   -1    0    0    0  501 -0.00000000000E+00  0.00000000000E+00  0.68701231186E+03  0.68701231186E+03  0.00000000000E+00 0. -1.
         21   -1    0    0  501  502  0.00000000000E+00 -0.00000000000E+00 -0.61718261029E+03  0.61718261029E+03  0.00000000000E+00 0. -1.
   -9000010    2    1    2    0  502 -0.10230978502E+03  0.15276639150E+03 -0.13786698499E+03  0.10268092930E+04  0.10007622875E+04 0.  0.
         13    1    3    3    0    0 -0.42146877154E+03  0.42377448187E+03 -0.57186860129E+02  0.60040909803E+03  0.10566000000E+00 0. -1.
         -4    1    3    3    0  502  0.31915898652E+03 -0.27100809037E+03 -0.80680124864E+02  0.42640019497E+03  0.00000000000E+00 0. -1.
        -13    1    1    2    0    0  0.10230978502E+03 -0.15276639150E+03  0.20769668656E+03  0.27738562915E+03  0.10566000000E+00 0.  1.
<mgrwt>
<rscale>  1 0.66340229E+03</rscale>
<asrwt>0</asrwt>
<pdfrwt beam="2">  1       21 0.94951172E-01 0.10175117E+04</pdfrwt>
<pdfrwt beam="1">  1       -4 0.10569420E+00 0.10175117E+04</pdfrwt>
<totfact> 0.25204491E+01</totfact>
</mgrwt>
</event>
<event>
 6    2  0.2267664E-005  0.1025939E+04  0.7818608E-02  0.9646709E-01
         21   -1    0    0  501  502  0.00000000000E+00  0.00000000000E+00  0.14675246103E+04  0.14675246103E+04  0.00000000000E+00 0. -1.
         -4   -1    0    0    0  501 -0.00000000000E+00 -0.00000000000E+00 -0.34013251145E+03  0.34013251145E+03  0.00000000000E+00 0. -1.
   -9000010    2    1    2    0  502  0.23675125278E+02 -0.28092666070E+03  0.11292895061E+04  0.15257282095E+04  0.98644385563E+03 0.  0.
         13    1    3    3    0    0 -0.40892652421E+03  0.11380989759E+03  0.34543111961E+03  0.54726251887E+03  0.10566000000E+00 0. -1.
         -4    1    3    3    0  502  0.43260164949E+03 -0.39473655830E+03  0.78385838651E+03  0.97846569061E+03  0.00000000000E+00 0. -1.
        -13    1    1    2    0    0 -0.23675125278E+02  0.28092666070E+03 -0.18974072811E+01  0.28192891226E+03  0.10566000000E+00 0.  1.
<mgrwt>
<rscale>  1 0.74280317E+03</rscale>
<asrwt>0</asrwt>
<pdfrwt beam="1">  1       21 0.22577301E+00 0.10259395E+04</pdfrwt>
<pdfrwt beam="2">  1       -4 0.52328079E-01 0.10259395E+04</pdfrwt>
<totfact> 0.10839120E+01</totfact>
</mgrwt>
</event>
<event>
 6    2  0.2267664E-005  0.1015632E+04  0.7818608E-02  0.9852671E-01
         21   -1    0    0  501  502  0.00000000000E+00  0.00000000000E+00  0.15006313822E+03  0.15006313822E+03  0.00000000000E+00 0. -1.
         -4   -1    0    0    0  501 -0.00000000000E+00 -0.00000000000E+00 -0.25889215885E+04  0.25889215885E+04  0.00000000000E+00 0. -1.
   -9000010    2    1    2    0  502 -0.60488334950E+02  0.13363467022E+03 -0.16570440920E+04  0.19435284012E+04  0.10049828157E+04 0.  0.
         13    1    3    3    0    0 -0.41766661674E+03 -0.15209631717E+03 -0.12659563313E+04  0.13417243146E+04  0.10566000000E+00 0. -1.
         -4    1    3    3    0  502  0.35717828179E+03  0.28573098740E+03 -0.39108776068E+03  0.60180408664E+03  0.00000000000E+00 0. -1.
        -13    1    1    2    0    0  0.60488334950E+02 -0.13363467022E+03 -0.78181435830E+03  0.79545632549E+03  0.10566000000E+00 0.  1.
<mgrwt>
<rscale>  1 0.62610915E+03</rscale>
<asrwt>0</asrwt>
<pdfrwt beam="1">  1       21 0.23086640E-01 0.10156316E+04</pdfrwt>
<pdfrwt beam="2">  1       -4 0.39829556E+00 0.10156316E+04</pdfrwt>
<totfact> 0.52459151E+00</totfact>
</mgrwt>
</event>
<event>
 6    2  0.2267664E-005  0.1124703E+04  0.7818608E-02  0.9427791E-01
         21   -1    0    0  501  502  0.00000000000E+00  0.00000000000E+00  0.26507637782E+03  0.26507637782E+03  0.00000000000E+00 0. -1.
         -4   -1    0    0    0  501 -0.00000000000E+00 -0.00000000000E+00 -0.23797430992E+04  0.23797430992E+04  0.00000000000E+00 0. -1.
   -9000010    2    1    2    0  502 -0.63077081822E+02  0.45318902479E+03 -0.13936045269E+04  0.17908348695E+04  0.10274224749E+04 0.  0.
         13    1    3    3    0    0  0.31089549002E+03 -0.19446758884E+03 -0.57554939217E+03  0.68244469579E+03  0.10566000000E+00 0. -1.
         -4    1    3    3    0  502 -0.37397257184E+03  0.64765661363E+03 -0.81805513472E+03  0.11083901737E+04  0.00000000000E+00 0. -1.
        -13    1    1    2    0    0  0.63077081822E+02 -0.45318902479E+03 -0.72106219449E+03  0.85398460755E+03  0.10566000000E+00 0.  1.
<mgrwt>
<rscale>  1 0.89823451E+03</rscale>
<asrwt>0</asrwt>
<pdfrwt beam="1">  1       21 0.40780984E-01 0.11247026E+04</pdfrwt>
<pdfrwt beam="2">  1       -4 0.36611430E+00 0.11247026E+04</pdfrwt>
<totfact> 0.26880722E+00</totfact>
</mgrwt>
</event>
<event>
 6    2  0.2267664E-005  0.1025666E+04  0.7818608E-02  0.9671986E-01
         21   -1    0    0  501  502  0.00000000000E+00  0.00000000000E+00  0.72783079713E+03  0.72783079713E+03  0.00000000000E+00 0.  1.
         -4   -1    0    0    0  501 -0.00000000000E+00 -0.00000000000E+00 -0.62280396177E+03  0.62280396177E+03  0.00000000000E+00 0. -1.
   -9000010    2    1    2    0  502  0.25783593813E+03  0.24828124930E+02 -0.85290666104E+02  0.10292058098E+04  0.99241840696E+03 0.  0.
         13    1    3    3    0    0  0.55928584115E+03  0.54338254475E+02  0.21598028749E+03  0.60199733700E+03  0.10566000000E+00 0. -1.
         -4    1    3    3    0  502 -0.30144990302E+03 -0.29510129545E+02 -0.30127095359E+03  0.42720847283E+03  0.00000000000E+00 0. -1.
        -13    1    1    2    0    0 -0.25783593813E+03 -0.24828124930E+02  0.19031750146E+03  0.32142894907E+03  0.10566000000E+00 0.  1.
<mgrwt>
<rscale>  1 0.72709533E+03</rscale>
<asrwt>0</asrwt>
<pdfrwt beam="1">  1       21 0.11197397E+00 0.10256657E+04</pdfrwt>
<pdfrwt beam="2">  1       -4 0.95815994E-01 0.10256657E+04</pdfrwt>
<totfact> 0.21143967E+01</totfact>
</mgrwt>
</event>
<event>
 6    2  0.2267664E-005  0.1008745E+04  0.7818608E-02  0.9838877E-01
         21   -1    0    0  501  502  0.00000000000E+00  0.00000000000E+00  0.13002224836E+04  0.13002224836E+04  0.00000000000E+00 0. -1.
         -4   -1    0    0    0  501 -0.00000000000E+00 -0.00000000000E+00 -0.46161646206E+03  0.46161646206E+03  0.00000000000E+00 0. -1.
   -9000010    2    1    2    0  502  0.14751445708E+03 -0.52513603218E+02  0.10776297362E+04  0.14760933579E+04  0.99651771646E+03 0.  0.
         13    1    3    3    0    0 -0.92678715414E+02  0.36746462647E+03  0.87124734269E+03  0.95010080482E+03  0.10566000000E+00 0. -1.
         -4    1    3    3    0  502  0.24019317250E+03 -0.41997822968E+03  0.20638239354E+03  0.52599255307E+03  0.00000000000E+00 0. -1.
        -13    1    1    2    0    0 -0.14751445708E+03  0.52513603218E+02 -0.23902371470E+03  0.28574558776E+03  0.10566000000E+00 0.  1.
<mgrwt>
<rscale>  1 0.63317246E+03</rscale>
<asrwt>0</asrwt>
<pdfrwt beam="1">  1       21 0.20003423E+00 0.10087446E+04</pdfrwt>
<pdfrwt beam="2">  1       -4 0.71017918E-01 0.10087446E+04</pdfrwt>
<totfact> 0.82930899E+00</totfact>
</mgrwt>
</event>
<event>
 6    2  0.2267664E-005  0.9874354E+03  0.7818608E-02  0.9950405E-01
         -4   -1    0    0    0  501 -0.00000000000E+00  0.00000000000E+00  0.10923110069E+04  0.10923110069E+04  0.00000000000E+00 0. -1.
         21   -1    0    0  501  502  0.00000000000E+00 -0.00000000000E+00 -0.28155311161E+03  0.28155311161E+03  0.00000000000E+00 0. -1.
   -9000010    2    1    2    0  502 -0.94636669583E+02 -0.68054693239E+02  0.68133086872E+03  0.11996834454E+04  0.98053101739E+03 0.  0.
         13    1    3    3    0    0  0.11732568313E+03 -0.68923345669E+02 -0.22824942247E+03  0.26573210856E+03  0.10566000000E+00 0. -1.
         -4    1    3    3    0  502 -0.21196235271E+03  0.86865243058E+00  0.90958029118E+03  0.93395133687E+03  0.00000000000E+00 0. -1.
        -13    1    1    2    0    0  0.94636669583E+02  0.68054693239E+02  0.12942702653E+03  0.17418067304E+03  0.10566000000E+00 0.  1.
<mgrwt>
<rscale>  1 0.57879419E+03</rscale>
<asrwt>0</asrwt>
<pdfrwt beam="2">  1       21 0.43315864E-01 0.98743537E+03</pdfrwt>
<pdfrwt beam="1">  1       -4 0.16804784E+00 0.98743537E+03</pdfrwt>
<totfact> 0.44730697E+01</totfact>
</mgrwt>
</event>
<event>
 6    2  0.2267664E-005  0.1026672E+04  0.7818608E-02  0.9665495E-01
         21   -1    0    0  501  502  0.00000000000E+00  0.00000000000E+00  0.77067588253E+03  0.77067588253E+03  0.00000000000E+00 0. -1.
         -4   -1    0    0    0  501 -0.00000000000E+00 -0.00000000000E+00 -0.54397566209E+03  0.54397566209E+03  0.00000000000E+00 0. -1.
   -9000010    2    1    2    0  502 -0.14906301601E+03 -0.21787647712E+03  0.22312804205E+03  0.10506388297E+04  0.99215214824E+03 0.  0.
         13    1    3    3    0    0 -0.12163349966E+03  0.28083351286E+03  0.41495356819E+03  0.51560512518E+03  0.10566000000E+00 0. -1.
         -4    1    3    3    0  502 -0.27429516352E+02 -0.49870998998E+03 -0.19182552615E+03  0.53503370451E+03  0.00000000000E+00 0. -1.
        -13    1    1    2    0    0  0.14906301601E+03  0.21787647712E+03  0.35721783970E+01  0.26401271493E+03  0.10566000000E+00 0.  1.
<mgrwt>
<rscale>  1 0.73108879E+03</rscale>
<asrwt>0</asrwt>
<pdfrwt beam="1">  1       21 0.11856552E+00 0.10266722E+04</pdfrwt>
<pdfrwt beam="2">  1       -4 0.83688564E-01 0.10266722E+04</pdfrwt>
<totfact> 0.25107651E+01</totfact>
</mgrwt>
</event>
<event>
 6    2  0.2267664E-005  0.1005583E+04  0.7818608E-02  0.9845359E-01
         21   -1    0    0  501  502  0.00000000000E+00  0.00000000000E+00  0.13089357291E+04  0.13089357291E+04  0.00000000000E+00 0. -1.
         -4   -1    0    0    0  501 -0.00000000000E+00 -0.00000000000E+00 -0.26231372592E+03  0.26231372592E+03  0.00000000000E+00 0. -1.
   -9000010    2    1    2    0  502  0.11065055621E+03  0.10820538217E+03  0.97523627222E+03  0.14008150569E+04  0.99360207660E+03 0.  0.
         13    1    3    3    0    0 -0.42325818533E+03 -0.33599092903E+02  0.26295739306E+03  0.49942265890E+03  0.10566000000E+00 0. -1.
         -4    1    3    3    0  502  0.53390874154E+03  0.14180447507E+03  0.71227887915E+03  0.90139239798E+03  0.00000000000E+00 0. -1.
        -13    1    1    2    0    0 -0.11065055621E+03 -0.10820538217E+03  0.71385730958E+02  0.17043439813E+03  0.10566000000E+00 0.  1.
<mgrwt>
<rscale>  1 0.62984119E+03</rscale>
<asrwt>0</asrwt>
<pdfrwt beam="1">  1       21 0.20137472E+00 0.10055829E+04</pdfrwt>
<pdfrwt beam="2">  1       -4 0.40355958E-01 0.10055829E+04</pdfrwt>
<totfact> 0.27198389E+01</totfact>
</mgrwt>
</event>
<event>
 6    2  0.2267664E-005  0.9996088E+03  0.7818608E-02  0.9848280E-01
         21   -1    0    0  501  502  0.00000000000E+00  0.00000000000E+00  0.78051596719E+03  0.78051596719E+03  0.00000000000E+00 0.  1.
         -4   -1    0    0    0  501 -0.00000000000E+00 -0.00000000000E+00 -0.44692638597E+03  0.44692638597E+03  0.00000000000E+00 0. -1.
   -9000010    2    1    2    0  502  0.94621357143E+02  0.12411029751E+03  0.19442539386E+03  0.10183413025E+04  0.98735060007E+03 0.  0.
         13    1    3    3    0    0 -0.33301428606E+02  0.68299367504E+02  0.59206417656E+03  0.59692025353E+03  0.10566000000E+00 0. -1.
         -4    1    3    3    0  502  0.12792278575E+03  0.55810930003E+02 -0.39763878270E+03  0.42142104899E+03  0.00000000000E+00 0. -1.
        -13    1    1    2    0    0 -0.94621357143E+02 -0.12411029751E+03  0.13916418736E+03  0.20910105065E+03  0.10566000000E+00 0.  1.
<mgrwt>
<rscale>  1 0.62834714E+03</rscale>
<asrwt>0</asrwt>
<pdfrwt beam="1">  1       21 0.12007938E+00 0.99960881E+03</pdfrwt>
<pdfrwt beam="2">  1       -4 0.68757906E-01 0.99960881E+03</pdfrwt>
<totfact> 0.38081527E+01</totfact>
</mgrwt>
</event>
<event>
 6    2  0.2267664E-005  0.9976056E+03  0.7818608E-02  0.1037874E+00
         21   -1    0    0  501  502  0.00000000000E+00  0.00000000000E+00  0.92465278568E+03  0.92465278568E+03  0.00000000000E+00 0. -1.
         -4   -1    0    0    0  501 -0.00000000000E+00 -0.00000000000E+00 -0.33658268882E+03  0.33658268882E+03  0.00000000000E+00 0. -1.
   -9000010    2    1    2    0  502 -0.10282832690E+01 -0.30592767133E+02  0.65102100616E+03  0.11912368823E+04  0.99713589067E+03 0.  0.
         13    1    3    3    0    0  0.17068472386E+03 -0.51414413381E+02  0.88359258111E+03  0.90139479554E+03  0.10566000000E+00 0. -1.
         -4    1    3    3    0  502 -0.17171300713E+03  0.20821646249E+02 -0.23257157495E+03  0.28984208674E+03  0.00000000000E+00 0. -1.
        -13    1    1    2    0    0  0.10282832690E+01  0.30592767133E+02 -0.62950909296E+02  0.69998592218E+02  0.10566000000E+00 0.  1.
<mgrwt>
<rscale>  1 0.41752818E+03</rscale>
<asrwt>0</asrwt>
<pdfrwt beam="1">  1       21 0.14225427E+00 0.99760561E+03</pdfrwt>
<pdfrwt beam="2">  1       -4 0.51781952E-01 0.99760561E+03</pdfrwt>
<totfact> 0.44946093E+01</totfact>
</mgrwt>
</event>
<event>
 6    2  0.2267664E-005  0.9551452E+03  0.7818608E-02  0.9901503E-01
         21   -1    0    0  501  502  0.00000000000E+00  0.00000000000E+00  0.35989289646E+03  0.35989289646E+03  0.00000000000E+00 0. -1.
         -4   -1    0    0    0  501 -0.00000000000E+00 -0.00000000000E+00 -0.85128035114E+03  0.85128035114E+03  0.00000000000E+00 0. -1.
   -9000010    2    1    2    0  502  0.11059468738E+03 -0.10223198818E+03 -0.40420294458E+03  0.10371510816E+04  0.94319657624E+03 0.  0.
         13    1    3    3    0    0  0.17536865393E+03  0.85309326045E+02  0.27073115716E+03  0.33365733398E+03  0.10566000000E+00 0. -1.
         -4    1    3    3    0  502 -0.64773966552E+02 -0.18754131423E+03 -0.67493410174E+03  0.70349374765E+03  0.00000000000E+00 0. -1.
        -13    1    1    2    0    0 -0.11059468738E+03  0.10223198818E+03 -0.87184510095E+02  0.17402216597E+03  0.10566000000E+00 0.  1.
<mgrwt>
<rscale>  1 0.60188510E+03</rscale>
<asrwt>0</asrwt>
<pdfrwt beam="1">  1       21 0.55368138E-01 0.95514520E+03</pdfrwt>
<pdfrwt beam="2">  1       -4 0.13096621E+00 0.95514520E+03</pdfrwt>
<totfact> 0.51541669E+01</totfact>
</mgrwt>
</event>
<event>
 6    2  0.2267664E-005  0.9769206E+03  0.7818608E-02  0.1023827E+00
         -4   -1    0    0    0  501 -0.00000000000E+00  0.00000000000E+00  0.76382150801E+03  0.76382150801E+03  0.00000000000E+00 0. -1.
         21   -1    0    0  501  502  0.00000000000E+00 -0.00000000000E+00 -0.44818434760E+03  0.44818434760E+03  0.00000000000E+00 0. -1.
   -9000010    2    1    2    0  502  0.32194435798E+02 -0.37492731525E+02  0.90042092941E+02  0.98106142020E+03  0.97566989556E+03 0.  0.
         13    1    3    3    0    0 -0.32687219921E+03  0.29357022772E+03 -0.11059869829E+03  0.45305738758E+03  0.10566000000E+00 0. -1.
         -4    1    3    3    0  502  0.35906663501E+03 -0.33106295924E+03  0.20064079123E+03  0.52800403262E+03  0.00000000000E+00 0. -1.
        -13    1    1    2    0    0 -0.32194435798E+02  0.37492731525E+02  0.22559506747E+03  0.23094443541E+03  0.10566000000E+00 0.  1.
<mgrwt>
<rscale>  1 0.46330509E+03</rscale>
<asrwt>0</asrwt>
<pdfrwt beam="2">  1       21 0.68951438E-01 0.97692064E+03</pdfrwt>
<pdfrwt beam="1">  1       -4 0.11751100E+00 0.97692064E+03</pdfrwt>
<totfact> 0.41450027E+01</totfact>
</mgrwt>
</event>
<event>
 6    2  0.2267664E-005  0.1011893E+04  0.7818608E-02  0.9755862E-01
         21   -1    0    0  501  502  0.00000000000E+00  0.00000000000E+00  0.14410377150E+04  0.14410377150E+04  0.00000000000E+00 0. -1.
         -4   -1    0    0    0  501 -0.00000000000E+00 -0.00000000000E+00 -0.41672213276E+03  0.41672213276E+03  0.00000000000E+00 0. -1.
   -9000010    2    1    2    0  502 -0.20193302097E+03  0.27356024443E+02  0.12132704638E+04  0.15798583266E+04  0.99116185202E+03 0.  0.
         13    1    3    3    0    0 -0.36734482291E+03 -0.18468178490E+03  0.12430550575E+04  0.13092881530E+04  0.10566000000E+00 0. -1.
         -4    1    3    3    0  502  0.16541180194E+03  0.21203780934E+03 -0.29784593708E+02  0.27057017358E+03  0.00000000000E+00 0. -1.
        -13    1    1    2    0    0  0.20193302097E+03 -0.27356024443E+02 -0.18895488153E+03  0.27790152114E+03  0.10566000000E+00 0.  1.
<mgrwt>
<rscale>  1 0.67785999E+03</rscale>
<asrwt>0</asrwt>
<pdfrwt beam="1">  1       21 0.22169811E+00 0.10118928E+04</pdfrwt>
<pdfrwt beam="2">  1       -4 0.64111098E-01 0.10118928E+04</pdfrwt>
<totfact> 0.74415319E+00</totfact>
</mgrwt>
</event>
<event>
 6    2  0.2267664E-005  0.1013121E+04  0.7818608E-02  0.9800368E-01
         -4   -1    0    0    0  501 -0.00000000000E+00  0.00000000000E+00  0.52529273882E+03  0.52529273882E+03  0.00000000000E+00 0. -1.
         21   -1    0    0  501  502  0.00000000000E+00 -0.00000000000E+00 -0.78792862649E+03  0.78792862649E+03  0.00000000000E+00 0. -1.
   -9000010    2    1    2    0  502 -0.16495409568E+03  0.59361882518E+02 -0.40129660702E+03  0.10897029253E+04  0.99783756784E+03 0.  0.
         13    1    3    3    0    0 -0.20631721625E+03 -0.34880804975E+03  0.12342401042E+03  0.42363586581E+03  0.10566000000E+00 0. -1.
         -4    1    3    3    0  502  0.41363120570E+02  0.40816993227E+03 -0.52472061744E+03  0.66606705947E+03  0.00000000000E+00 0. -1.
        -13    1    1    2    0    0  0.16495409568E+03 -0.59361882518E+02  0.13866071935E+03  0.22351844003E+03  0.10566000000E+00 0.  1.
<mgrwt>
<rscale>  1 0.65342799E+03</rscale>
<asrwt>0</asrwt>
<pdfrwt beam="2">  1       21 0.12121979E+00 0.10131207E+04</pdfrwt>
<pdfrwt beam="1">  1       -4 0.80814268E-01 0.10131207E+04</pdfrwt>
<totfact> 0.25727794E+01</totfact>
</mgrwt>
</event>
<event>
 6    2  0.2267664E-005  0.1085287E+04  0.7818608E-02  0.9494682E-01
         21   -1    0    0  501  502  0.00000000000E+00  0.00000000000E+00  0.25270772698E+03  0.25270772698E+03  0.00000000000E+00 0. -1.
         -4   -1    0    0    0  501 -0.00000000000E+00 -0.00000000000E+00 -0.22789043325E+04  0.22789043325E+04  0.00000000000E+00 0. -1.
   -9000010    2    1    2    0  502 -0.40170636979E+03 -0.19672777762E+02 -0.12352958337E+04  0.16443245820E+04  0.10080141410E+04 0.  0.
         13    1    3    3    0    0 -0.13913211876E+03 -0.41352563627E+03 -0.15182582573E+03  0.46196568146E+03  0.10566000000E+00 0. -1.
         -4    1    3    3    0  502 -0.26257425103E+03  0.39385285851E+03 -0.10834700079E+04  0.11823589005E+04  0.00000000000E+00 0. -1.
        -13    1    1    2    0    0  0.40170636979E+03  0.19672777762E+02 -0.79090077188E+03  0.88728747756E+03  0.10566000000E+00 0.  1.
<mgrwt>
<rscale>  1 0.84677033E+03</rscale>
<asrwt>0</asrwt>
<pdfrwt beam="1">  1       21 0.38878110E-01 0.10852868E+04</pdfrwt>
<pdfrwt beam="2">  1       -4 0.35060068E+00 0.10852868E+04</pdfrwt>
<totfact> 0.37759098E+00</totfact>
</mgrwt>
</event>
<event>
 6    2  0.2267664E-005  0.1127605E+04  0.7818608E-02  0.9398325E-01
         21   -1    0    0  501  502  0.00000000000E+00  0.00000000000E+00  0.99539787291E+03  0.99539787291E+03  0.00000000000E+00 0.  1.
         -4   -1    0    0    0  501 -0.00000000000E+00 -0.00000000000E+00 -0.69669020010E+03  0.69669020010E+03  0.00000000000E+00 0. -1.
   -9000010    2    1    2    0  502 -0.46973381730E+03  0.18355480940E+03  0.47356334933E+02  0.11285991793E+04  0.10085391702E+04 0.  0.
         13    1    3    3    0    0  0.23591020129E+03 -0.11791465661E+03 -0.19037876399E+03  0.32527153927E+03  0.10566000000E+00 0. -1.
         -4    1    3    3    0  502 -0.70564401859E+03  0.30146946601E+03  0.23773509892E+03  0.80332763999E+03  0.00000000000E+00 0. -1.
        -13    1    1    2    0    0  0.46973381730E+03 -0.18355480940E+03  0.25135133788E+03  0.56348889375E+03  0.10566000000E+00 0.  1.
<mgrwt>
<rscale>  1 0.92213640E+03</rscale>
<asrwt>0</asrwt>
<pdfrwt beam="1">  1       21 0.15313813E+00 0.11276052E+04</pdfrwt>
<pdfrwt beam="2">  1       -4 0.10718311E+00 0.11276052E+04</pdfrwt>
<totfact> 0.69047133E+00</totfact>
</mgrwt>
</event>
<event>
 6    2  0.2267664E-005  0.1015494E+04  0.7818608E-02  0.9743428E-01
         21   -1    0    0  501  502  0.00000000000E+00  0.00000000000E+00  0.23461494266E+03  0.23461494266E+03  0.00000000000E+00 0. -1.
         -4   -1    0    0    0  501 -0.00000000000E+00 -0.00000000000E+00 -0.16178482645E+04  0.16178482645E+04  0.00000000000E+00 0. -1.
   -9000010    2    1    2    0  502 -0.50144868001E+02 -0.20403971777E+03 -0.10688981562E+04  0.14743715229E+04  0.99351970535E+03 0.  0.
         13    1    3    3    0    0 -0.35297205926E+02 -0.40354872790E+03 -0.11785543924E+04  0.12462294875E+04  0.10566000000E+00 0. -1.
         -4    1    3    3    0  502 -0.14847662076E+02  0.19950901013E+03  0.10965623615E+03  0.22814203540E+03  0.00000000000E+00 0. -1.
        -13    1    1    2    0    0  0.50144868001E+02  0.20403971777E+03 -0.31433516563E+03  0.37809168429E+03  0.10566000000E+00 0.  1.
<mgrwt>
<rscale>  1 0.68488924E+03</rscale>
<asrwt>0</asrwt>
<pdfrwt beam="1">  1       21 0.36094608E-01 0.10154940E+04</pdfrwt>
<pdfrwt beam="2">  1       -4 0.24889973E+00 0.10154940E+04</pdfrwt>
<totfact> 0.19196464E+01</totfact>
</mgrwt>
</event>
<event>
 6    2  0.2267664E-005  0.1261198E+04  0.7818608E-02  0.9187632E-01
         -4   -1    0    0    0  501 -0.00000000000E+00  0.00000000000E+00  0.78680429844E+03  0.78680429844E+03  0.00000000000E+00 0. -1.
         21   -1    0    0  501  502  0.00000000000E+00 -0.00000000000E+00 -0.15125616478E+04  0.15125616478E+04  0.00000000000E+00 0. -1.
   -9000010    2    1    2    0  502 -0.19326326752E+03  0.75500095771E+03 -0.83476882160E+03  0.15124347872E+04  0.99158603430E+03 0.  0.
         13    1    3    3    0    0  0.80604110523E+02  0.69470189933E+03 -0.75971101056E+02  0.70347663140E+03  0.10566000000E+00 0. -1.
         -4    1    3    3    0  502 -0.27386737804E+03  0.60299058380E+02 -0.75879772054E+03  0.80895815584E+03  0.00000000000E+00 0. -1.
        -13    1    1    2    0    0  0.19326326752E+03 -0.75500095771E+03  0.10901147226E+03  0.78693115897E+03  0.10566000000E+00 0.  1.
<mgrwt>
<rscale>  1 0.11182006E+04</rscale>
<asrwt>0</asrwt>
<pdfrwt beam="2">  1       21 0.23270179E+00 0.12611978E+04</pdfrwt>
<pdfrwt beam="1">  1       -4 0.12104682E+00 0.12611978E+04</pdfrwt>
<totfact> 0.13618954E+00</totfact>
</mgrwt>
</event>
<event>
 6    2  0.2267664E-005  0.1012093E+04  0.7818608E-02  0.1031153E+00
         21   -1    0    0  501  502  0.00000000000E+00  0.00000000000E+00  0.15192401965E+04  0.15192401965E+04  0.00000000000E+00 0. -1.
         -4   -1    0    0    0  501 -0.00000000000E+00 -0.00000000000E+00 -0.19337805259E+03  0.19337805259E+03  0.00000000000E+00 0. -1.
   -9000010    2    1    2    0  502  0.21984284942E+02  0.28154883889E+02  0.13354460640E+04  0.16756335365E+04  0.10114620866E+04 0.  0.
         13    1    3    3    0    0  0.12925161772E+03  0.65719877579E+02 -0.13659782900E+03  0.19920858677E+03  0.10566000000E+00 0. -1.
         -4    1    3    3    0  502 -0.10726733278E+03 -0.37564993690E+02  0.14720438930E+04  0.14764249498E+04  0.00000000000E+00 0. -1.
        -13    1    1    2    0    0 -0.21984284942E+02 -0.28154883889E+02 -0.95839201023E+01  0.36984712515E+02  0.10566000000E+00 0.  1.
<mgrwt>
<rscale>  1 0.43867944E+03</rscale>
<asrwt>0</asrwt>
<pdfrwt beam="1">  1       21 0.23372925E+00 0.10120927E+04</pdfrwt>
<pdfrwt beam="2">  1       -4 0.29750471E-01 0.10120927E+04</pdfrwt>
<totfact> 0.30450693E+01</totfact>
</mgrwt>
</event>
<event>
 6    2  0.2267664E-005  0.1024415E+04  0.7818608E-02  0.9740252E-01
         -4   -1    0    0    0  501 -0.00000000000E+00  0.00000000000E+00  0.16517967444E+04  0.16517967444E+04  0.00000000000E+00 0. -1.
         21   -1    0    0  501  502  0.00000000000E+00 -0.00000000000E+00 -0.30371454927E+03  0.30371454927E+03  0.00000000000E+00 0. -1.
   -9000010    2    1    2    0  502  0.41320839702E+02 -0.20267258364E+03  0.61731923077E+03  0.11960390366E+04  0.10033158807E+04 0.  0.
         13    1    3    3    0    0  0.51637383648E+03 -0.15889987729E+03  0.25751707173E+03  0.59850326934E+03  0.10566000000E+00 0. -1.
         -4    1    3    3    0  502 -0.47505299678E+03 -0.43772706347E+02  0.35980215904E+03  0.59753576731E+03  0.00000000000E+00 0. -1.
        -13    1    1    2    0    0 -0.41320839702E+02  0.20267258364E+03  0.73076296433E+03  0.75947225700E+03  0.10566000000E+00 0.  1.
<mgrwt>
<rscale>  1 0.68669937E+03</rscale>
<asrwt>0</asrwt>
<pdfrwt beam="2">  1       21 0.46725316E-01 0.10244151E+04</pdfrwt>
<pdfrwt beam="1">  1       -4 0.25412257E+00 0.10244151E+04</pdfrwt>
<totfact> 0.10345387E+01</totfact>
</mgrwt>
</event>
<event>
 6    2  0.2267664E-005  0.1020097E+04  0.7818608E-02  0.9822518E-01
         -4   -1    0    0    0  501 -0.00000000000E+00  0.00000000000E+00  0.56691990519E+03  0.56691990519E+03  0.00000000000E+00 0. -1.
         21   -1    0    0  501  502  0.00000000000E+00 -0.00000000000E+00 -0.61411920671E+03  0.61411920671E+03  0.00000000000E+00 0. -1.
   -9000010    2    1    2    0  502  0.14361287015E+03 -0.69890016005E+02 -0.49647771097E+02  0.10213040908E+04  0.10075156941E+04 0.  0.
         13    1    3    3    0    0 -0.29805769444E+03 -0.32843679859E+03 -0.20196391823E+03  0.48733823502E+03  0.10566000000E+00 0. -1.
         -4    1    3    3    0  502  0.44167056459E+03  0.25854678258E+03  0.15231614714E+03  0.53396585574E+03  0.00000000000E+00 0. -1.
        -13    1    1    2    0    0 -0.14361287015E+03  0.69890016005E+02  0.24484695749E+01  0.15973502114E+03  0.10566000000E+00 0.  1.
<mgrwt>
<rscale>  1 0.64167965E+03</rscale>
<asrwt>0</asrwt>
<pdfrwt beam="2">  1       21 0.94479877E-01 0.10200966E+04</pdfrwt>
<pdfrwt beam="1">  1       -4 0.87218447E-01 0.10200966E+04</pdfrwt>
<totfact> 0.40370660E+01</totfact>
</mgrwt>
</event>
<event>
 6    2  0.2267664E-005  0.1028438E+04  0.7818608E-02  0.9712876E-01
         -4   -1    0    0    0  501 -0.00000000000E+00  0.00000000000E+00  0.13582947764E+04  0.13582947764E+04  0.00000000000E+00 0. -1.
         21   -1    0    0  501  502  0.00000000000E+00 -0.00000000000E+00 -0.30042209680E+03  0.30042209680E+03  0.00000000000E+00 0. -1.
   -9000010    2    1    2    0  502  0.21374455497E+03 -0.66888145031E+02  0.72811772543E+03  0.12600953739E+04  0.10037550352E+04 0.  0.
         13    1    3    3    0    0 -0.32056027271E+03 -0.44013767154E+02 -0.37989969650E+02  0.32579034531E+03  0.10566000000E+00 0. -1.
         -4    1    3    3    0  502  0.53430482768E+03 -0.22874377877E+02  0.76610769508E+03  0.93430502862E+03  0.00000000000E+00 0. -1.
        -13    1    1    2    0    0 -0.21374455497E+03  0.66888145031E+02  0.32975495421E+03  0.39862149931E+03  0.10566000000E+00 0.  1.
<mgrwt>
<rscale>  1 0.70255308E+03</rscale>
<asrwt>0</asrwt>
<pdfrwt beam="2">  1       21 0.46218785E-01 0.10284381E+04</pdfrwt>
<pdfrwt beam="1">  1       -4 0.20896842E+00 0.10284381E+04</pdfrwt>
<totfact> 0.20393900E+01</totfact>
</mgrwt>
</event>
<event>
 6    2  0.2267664E-005  0.1004181E+04  0.7818608E-02  0.9958885E-01
         -4   -1    0    0    0  501 -0.00000000000E+00  0.00000000000E+00  0.15793205939E+04  0.15793205939E+04  0.00000000000E+00 0. -1.
         21   -1    0    0  501  502  0.00000000000E+00 -0.00000000000E+00 -0.24512844916E+03  0.24512844916E+03  0.00000000000E+00 0. -1.
   -9000010    2    1    2    0  502  0.33320425800E+02 -0.10260613941E+03  0.81249770163E+03  0.12917170525E+04  0.99836975012E+03 0.  0.
         13    1    3    3    0    0 -0.27034685519E+03 -0.69567252891E+02 -0.12488857420E+03  0.30581725248E+03  0.10566000000E+00 0. -1.
         -4    1    3    3    0  502  0.30366728099E+03 -0.33038886521E+02  0.93738627583E+03  0.98589980002E+03  0.00000000000E+00 0. -1.
        -13    1    1    2    0    0 -0.33320425800E+02  0.10260613941E+03  0.52169444311E+03  0.53273199055E+03  0.10566000000E+00 0.  1.
<mgrwt>
<rscale>  1 0.57490391E+03</rscale>
<asrwt>0</asrwt>
<pdfrwt beam="2">  1       21 0.37712070E-01 0.10041815E+04</pdfrwt>
<pdfrwt beam="1">  1       -4 0.24297239E+00 0.10041815E+04</pdfrwt>
<totfact> 0.19104295E+01</totfact>
</mgrwt>
</event>
<event>
 6    2  0.2267664E-005  0.1105999E+04  0.7818608E-02  0.9438082E-01
         21   -1    0    0  501  502  0.00000000000E+00  0.00000000000E+00  0.55049351978E+03  0.55049351978E+03  0.00000000000E+00 0. -1.
         -4   -1    0    0    0  501 -0.00000000000E+00 -0.00000000000E+00 -0.12714250752E+04  0.12714250752E+04  0.00000000000E+00 0. -1.
   -9000010    2    1    2    0  502  0.34787372748E+03  0.30690752135E+03 -0.19924454951E+03  0.11238027735E+04  0.10040049433E+04 0.  0.
         13    1    3    3    0    0  0.43118545559E+03  0.41134690089E+02 -0.53448340205E+03  0.68795746821E+03  0.10566000000E+00 0. -1.
         -4    1    3    3    0  502 -0.83311728110E+02  0.26577283126E+03  0.33523885254E+03  0.43584530527E+03  0.00000000000E+00 0. -1.
        -13    1    1    2    0    0 -0.34787372748E+03 -0.30690752135E+03 -0.52168700590E+03  0.69811582150E+03  0.10566000000E+00 0.  1.
<mgrwt>
<rscale>  1 0.89006866E+03</rscale>
<asrwt>0</asrwt>
<pdfrwt beam="1">  1       21 0.84691312E-01 0.11059992E+04</pdfrwt>
<pdfrwt beam="2">  1       -4 0.19560385E+00 0.11059992E+04</pdfrwt>
<totfact> 0.63341728E+00</totfact>
</mgrwt>
</event>
<event>
 6    2  0.2267664E-005  0.1278937E+04  0.7818608E-02  0.9182703E-01
         21   -1    0    0  501  502  0.00000000000E+00  0.00000000000E+00  0.54565421690E+03  0.54565421690E+03  0.00000000000E+00 0.  1.
         -4   -1    0    0    0  501 -0.00000000000E+00 -0.00000000000E+00 -0.20005625520E+04  0.20005625520E+04  0.00000000000E+00 0. -1.
   -9000010    2    1    2    0  502 -0.75852346402E+03 -0.64883399528E+02 -0.63685325850E+03  0.14287276994E+04  0.10276736180E+04 0.  0.
         13    1    3    3    0    0 -0.62987927936E+03 -0.36658337108E+03 -0.78297861473E+03  0.10696666756E+04  0.10566000000E+00 0. -1.
         -4    1    3    3    0  502 -0.12864418466E+03  0.30169997156E+03  0.14612535623E+03  0.35906102381E+03  0.00000000000E+00 0. -1.
        -13    1    1    2    0    0  0.75852346402E+03  0.64883399528E+02 -0.81805507665E+03  0.11174890696E+04  0.10566000000E+00 0.  1.
<mgrwt>
<rscale>  1 0.11233756E+04</rscale>
<asrwt>0</asrwt>
<pdfrwt beam="1">  1       21 0.83946802E-01 0.12789374E+04</pdfrwt>
<pdfrwt beam="2">  1       -4 0.30777886E+00 0.12789374E+04</pdfrwt>
<totfact> 0.12431568E+00</totfact>
</mgrwt>
</event>
<event>
 6    2  0.2267664E-005  0.8485233E+03  0.7818608E-02  0.9843749E-01
         -4   -1    0    0    0  501 -0.00000000000E+00  0.00000000000E+00  0.83572443949E+03  0.83572443949E+03  0.00000000000E+00 0. -1.
         21   -1    0    0  501  502  0.00000000000E+00 -0.00000000000E+00 -0.36840456539E+03  0.36840456539E+03  0.00000000000E+00 0. -1.
   -9000010    2    1    2    0  502 -0.14340742584E+03  0.21560841842E+03  0.39021097889E+03  0.93394670945E+03  0.80804651362E+03 0.  0.
         13    1    3    3    0    0 -0.19866973510E+03  0.47838859348E+03  0.41574725573E+03  0.66420712269E+03  0.10566000000E+00 0. -1.
         -4    1    3    3    0  502  0.55262309265E+02 -0.26278017506E+03 -0.25536276848E+02  0.26973958676E+03  0.00000000000E+00 0. -1.
        -13    1    1    2    0    0  0.14340742584E+03 -0.21560841842E+03  0.77108895218E+02  0.27018229543E+03  0.10566000000E+00 0.  1.
<mgrwt>
<rscale>  1 0.63066673E+03</rscale>
<asrwt>0</asrwt>
<pdfrwt beam="2">  1       21 0.56677625E-01 0.84852333E+03</pdfrwt>
<pdfrwt beam="1">  1       -4 0.12857299E+00 0.84852333E+03</pdfrwt>
<totfact> 0.51808539E+01</totfact>
</mgrwt>
</event>
<event>
 6    2  0.2267664E-005  0.9762924E+03  0.7818608E-02  0.1027642E+00
         21   -1    0    0  501  502  0.00000000000E+00  0.00000000000E+00  0.56291071336E+03  0.56291071336E+03  0.00000000000E+00 0. -1.
         -4   -1    0    0    0  501 -0.00000000000E+00 -0.00000000000E+00 -0.57331352614E+03  0.57331352614E+03  0.00000000000E+00 0. -1.
   -9000010    2    1    2    0  502 -0.41214041979E+02 -0.15891082160E+02  0.13379041964E+03  0.98541700098E+03  0.97529260516E+03 0.  0.
         13    1    3    3    0    0 -0.69006954794E+02  0.35344647888E+03  0.39322728974E+03  0.53321110810E+03  0.10566000000E+00 0. -1.
         -4    1    3    3    0  502  0.27792912815E+02 -0.36933756104E+03 -0.25943687009E+03  0.45220589288E+03  0.00000000000E+00 0. -1.
        -13    1    1    2    0    0  0.41214041979E+02  0.15891082160E+02 -0.14419323242E+03  0.15080723851E+03  0.10566000000E+00 0.  1.
<mgrwt>
<rscale>  1 0.45026774E+03</rscale>
<asrwt>0</asrwt>
<pdfrwt beam="1">  1       21 0.86601648E-01 0.97629237E+03</pdfrwt>
<pdfrwt beam="2">  1       -4 0.88202081E-01 0.97629237E+03</pdfrwt>
<totfact> 0.48715829E+01</totfact>
</mgrwt>
</event>
<event>
 6    2  0.2267664E-005  0.9666939E+03  0.7818608E-02  0.9742514E-01
         21   -1    0    0  501  502  0.00000000000E+00  0.00000000000E+00  0.52457965051E+03  0.52457965051E+03  0.00000000000E+00 0. -1.
         -4   -1    0    0    0  501 -0.00000000000E+00 -0.00000000000E+00 -0.90559652579E+03  0.90559652579E+03  0.00000000000E+00 0. -1.
   -9000010    2    1    2    0  502  0.48436130659E+02  0.23945629769E+03  0.12750182563E+02  0.96677798440E+03  0.93531370497E+03 0.  0.
         13    1    3    3    0    0 -0.21524439222E+03 -0.10173847977E+03  0.34725834570E+03  0.42103353366E+03  0.10566000000E+00 0. -1.
         -4    1    3    3    0  502  0.26368052288E+03  0.34119477746E+03 -0.33450816313E+03  0.54574445074E+03  0.00000000000E+00 0. -1.
        -13    1    1    2    0    0 -0.48436130659E+02 -0.23945629769E+03 -0.39376705784E+03  0.46339819191E+03  0.10566000000E+00 0.  1.
<mgrwt>
<rscale>  1 0.68540969E+03</rscale>
<asrwt>0</asrwt>
<pdfrwt beam="1">  1       21 0.80704562E-01 0.96669390E+03</pdfrwt>
<pdfrwt beam="2">  1       -4 0.13932254E+00 0.96669390E+03</pdfrwt>
<totfact> 0.18631245E+01</totfact>
</mgrwt>
</event>
<event>
 6    2  0.2267664E-005  0.1018962E+04  0.7818608E-02  0.9769933E-01
         21   -1    0    0  501  502  0.00000000000E+00  0.00000000000E+00  0.17733690683E+04  0.17733690683E+04  0.00000000000E+00 0. -1.
         -4   -1    0    0    0  501 -0.00000000000E+00 -0.00000000000E+00 -0.21983087123E+03  0.21983087123E+03  0.00000000000E+00 0. -1.
   -9000010    2    1    2    0  502 -0.16103671443E+03 -0.10174310185E+03  0.10902979092E+04  0.14923246481E+04  0.10009989222E+04 0.  0.
         13    1    3    3    0    0 -0.17066335358E+03 -0.52779762343E+03  0.81185089220E+03  0.98325896583E+03  0.10566000000E+00 0. -1.
         -4    1    3    3    0  502  0.96266391518E+01  0.42605452157E+03  0.27844701704E+03  0.50906568224E+03  0.00000000000E+00 0. -1.
        -13    1    1    2    0    0  0.16103671443E+03  0.10174310185E+03  0.46324028784E+03  0.50087529147E+03  0.10566000000E+00 0.  1.
<mgrwt>
<rscale>  1 0.67001364E+03</rscale>
<asrwt>0</asrwt>
<pdfrwt beam="1">  1       21 0.27282600E+00 0.10189619E+04</pdfrwt>
<pdfrwt beam="2">  1       -4 0.33820135E-01 0.10189619E+04</pdfrwt>
<totfact> 0.13338882E+01</totfact>
</mgrwt>
</event>
<event>
 6    2  0.2267664E-005  0.1034525E+04  0.7818608E-02  0.9641125E-01
         -4   -1    0    0    0  501 -0.00000000000E+00  0.00000000000E+00  0.39737149083E+03  0.39737149083E+03  0.00000000000E+00 0. -1.
         21   -1    0    0  501  502  0.00000000000E+00 -0.00000000000E+00 -0.12958028689E+04  0.12958028689E+04  0.00000000000E+00 0. -1.
   -9000010    2    1    2    0  502  0.27414641471E+03  0.58033775263E+02 -0.95427999828E+03  0.14074415207E+04  0.99584996021E+03 0.  0.
         13    1    3    3    0    0  0.52541430934E+03 -0.27349338114E+03 -0.40133398547E+03  0.71549130326E+03  0.10566000000E+00 0. -1.
         -4    1    3    3    0  502 -0.25126789463E+03  0.33152715640E+03 -0.55294601281E+03  0.69195021742E+03  0.00000000000E+00 0. -1.
        -13    1    1    2    0    0 -0.27414641471E+03 -0.58033775263E+02  0.55848620205E+02  0.28573283905E+03  0.10566000000E+00 0.  1.
<mgrwt>
<rscale>  1 0.74633030E+03</rscale>
<asrwt>0</asrwt>
<pdfrwt beam="2">  1       21 0.19935428E+00 0.10345247E+04</pdfrwt>
<pdfrwt beam="1">  1       -4 0.61134077E-01 0.10345247E+04</pdfrwt>
<totfact> 0.11644119E+01</totfact>
</mgrwt>
</event>
<event>
 6    2  0.2267664E-005  0.1011623E+04  0.7818608E-02  0.9872824E-01
         -4   -1    0    0    0  501 -0.00000000000E+00  0.00000000000E+00  0.99607549506E+03  0.99607549506E+03  0.00000000000E+00 0. -1.
         21   -1    0    0  501  502  0.00000000000E+00 -0.00000000000E+00 -0.33355403987E+03  0.33355403987E+03  0.00000000000E+00 0. -1.
   -9000010    2    1    2    0  502  0.55935502739E+02 -0.12730302478E+03  0.60799475479E+03  0.11802708632E+04  0.10020213811E+04 0.  0.
         13    1    3    3    0    0  0.38405414034E+03  0.13614694900E+03  0.63951683350E+03  0.75829767633E+03  0.10566000000E+00 0. -1.
         -4    1    3    3    0  502 -0.32811863760E+03 -0.26344997378E+03 -0.31522078709E+02  0.42197318691E+03  0.00000000000E+00 0. -1.
        -13    1    1    2    0    0 -0.55935502739E+02  0.12730302478E+03  0.54526700392E+02  0.14935867168E+03  0.10566000000E+00 0.  1.
<mgrwt>
<rscale>  1 0.61596605E+03</rscale>
<asrwt>0</asrwt>
<pdfrwt beam="2">  1       21 0.51316006E-01 0.10116233E+04</pdfrwt>
<pdfrwt beam="1">  1       -4 0.15324238E+00 0.10116233E+04</pdfrwt>
<totfact> 0.40024289E+01</totfact>
</mgrwt>
</event>
<event>
 6    2  0.2267664E-005  0.7984331E+03  0.7818608E-02  0.9904791E-01
         -4   -1    0    0    0  501 -0.00000000000E+00  0.00000000000E+00  0.67516656688E+03  0.67516656688E+03  0.00000000000E+00 0. -1.
         21   -1    0    0  501  502  0.00000000000E+00 -0.00000000000E+00 -0.50181303272E+03  0.50181303272E+03  0.00000000000E+00 0. -1.
   -9000010    2    1    2    0  502 -0.19593364453E+03 -0.16339278563E+03  0.34469450681E+03  0.86966065204E+03  0.75657659970E+03 0.  0.
         13    1    3    3    0    0  0.31984709633E+02 -0.33577772696E+03  0.45237273445E+03  0.56427901397E+03  0.10566000000E+00 0. -1.
         -4    1    3    3    0  502 -0.22791835417E+03  0.17238494133E+03 -0.10767822764E+03  0.30538163807E+03  0.00000000000E+00 0. -1.
        -13    1    1    2    0    0  0.19593364453E+03  0.16339278563E+03 -0.17134097266E+03  0.30731894756E+03  0.10566000000E+00 0.  1.
<mgrwt>
<rscale>  1 0.60029661E+03</rscale>
<asrwt>0</asrwt>
<pdfrwt beam="2">  1       21 0.77202004E-01 0.79843306E+03</pdfrwt>
<pdfrwt beam="1">  1       -4 0.10387178E+00 0.79843306E+03</pdfrwt>
<totfact> 0.43986587E+01</totfact>
</mgrwt>
</event>
<event>
 6    2  0.2267664E-005  0.1499381E+04  0.7818608E-02  0.8956409E-01
         -4   -1    0    0    0  501 -0.00000000000E+00  0.00000000000E+00  0.17144720246E+04  0.17144720246E+04  0.00000000000E+00 0. -1.
         21   -1    0    0  501  502  0.00000000000E+00 -0.00000000000E+00 -0.13460245206E+04  0.13460245206E+04  0.00000000000E+00 0.  1.
   -9000010    2    1    2    0  502  0.82591813081E+03  0.76838165963E+03 -0.55892005992E+03  0.16001672181E+04  0.98772079000E+03 0.  0.
         13    1    3    3    0    0  0.10471444898E+04  0.71180188187E+03 -0.51876345976E+03  0.13683161330E+04  0.10566000000E+00 0. -1.
         -4    1    3    3    0  502 -0.22122635895E+03  0.56579777752E+02 -0.40156600159E+02  0.23185108514E+03  0.00000000000E+00 0. -1.
        -13    1    1    2    0    0 -0.82591813081E+03 -0.76838165963E+03  0.92736756398E+03  0.14603293271E+04  0.10566000000E+00 0.  1.
<mgrwt>
<rscale>  1 0.13964276E+04</rscale>
<asrwt>0</asrwt>
<pdfrwt beam="2">  1       21 0.20708070E+00 0.14993810E+04</pdfrwt>
<pdfrwt beam="1">  1       -4 0.26376493E+00 0.14993810E+04</pdfrwt>
<totfact> 0.19137962E-01</totfact>
</mgrwt>
</event>
<event>
 6    2  0.2267664E-005  0.1025041E+04  0.7818608E-02  0.9676301E-01
         21   -1    0    0  501  502  0.00000000000E+00  0.00000000000E+00  0.21024102688E+03  0.21024102688E+03  0.00000000000E+00 0. -1.
         -4   -1    0    0    0  501 -0.00000000000E+00 -0.00000000000E+00 -0.26038852874E+04  0.26038852874E+04  0.00000000000E+00 0. -1.
   -9000010    2    1    2    0  502 -0.12884969656E+03  0.22092546794E+03 -0.11333061832E+04  0.15281005031E+04  0.99262174872E+03 0.  0.
         13    1    3    3    0    0  0.72185280560E+02  0.59105497322E+03 -0.75833828852E+03  0.96417512263E+03  0.10566000000E+00 0. -1.
         -4    1    3    3    0  502 -0.20103497712E+03 -0.37012950528E+03 -0.37496789466E+03  0.56392538046E+03  0.00000000000E+00 0. -1.
        -13    1    1    2    0    0  0.12884969656E+03 -0.22092546794E+03 -0.12603380773E+04  0.12860258111E+04  0.10566000000E+00 0.  1.
<mgrwt>
<rscale>  1 0.72445528E+03</rscale>
<asrwt>0</asrwt>
<pdfrwt beam="1">  1       21 0.32344775E-01 0.10250406E+04</pdfrwt>
<pdfrwt beam="2">  1       -4 0.40059772E+00 0.10250406E+04</pdfrwt>
<totfact> 0.25746610E+00</totfact>
</mgrwt>
</event>
<event>
 6    2  0.2267664E-005  0.1141626E+04  0.7818608E-02  0.9369361E-01
         21   -1    0    0  501  502  0.00000000000E+00  0.00000000000E+00  0.88879798427E+03  0.88879798427E+03  0.00000000000E+00 0.  1.
         -4   -1    0    0    0  501 -0.00000000000E+00 -0.00000000000E+00 -0.10072705648E+04  0.10072705648E+04  0.00000000000E+00 0. -1.
   -9000010    2    1    2    0  502  0.14115958433E+02 -0.53900089076E+03 -0.48889195212E+03  0.12419036291E+04  0.10062743475E+04 0.  0.
         13    1    3    3    0    0  0.15602479684E+03 -0.69139329943E+03 -0.66295265791E+03  0.97050227692E+03  0.10566000000E+00 0. -1.
         -4    1    3    3    0  502 -0.14190883841E+03  0.15239240866E+03  0.17406070579E+03  0.27140135213E+03  0.00000000000E+00 0. -1.
        -13    1    1    2    0    0 -0.14115958433E+02  0.53900089076E+03  0.37041937161E+03  0.65416492000E+03  0.10566000000E+00 0.  1.
<mgrwt>
<rscale>  1 0.94640594E+03</rscale>
<asrwt>0</asrwt>
<pdfrwt beam="1">  1       21 0.13673815E+00 0.11416257E+04</pdfrwt>
<pdfrwt beam="2">  1       -4 0.15496470E+00 0.11416257E+04</pdfrwt>
<totfact> 0.36483349E+00</totfact>
</mgrwt>
</event>
<event>
 6    2  0.2267664E-005  0.1110326E+04  0.7818608E-02  0.9421934E-01
         21   -1    0    0  501  502  0.00000000000E+00  0.00000000000E+00  0.15984756524E+04  0.15984756524E+04  0.00000000000E+00 0. -1.
         -4   -1    0    0    0  501 -0.00000000000E+00 -0.00000000000E+00 -0.41094671218E+03  0.41094671218E+03  0.00000000000E+00 0. -1.
   -9000010    2    1    2    0  502  0.31048381116E+03  0.37333392278E+03  0.65663227982E+03  0.12899575009E+04  0.99852190174E+03 0.  0.
         13    1    3    3    0    0  0.43019775606E+03  0.66636164091E+03  0.48870542422E+03  0.93163348406E+03  0.10566000000E+00 0. -1.
         -4    1    3    3    0  502 -0.11971394489E+03 -0.29302771813E+03  0.16792685560E+03  0.35832401681E+03  0.00000000000E+00 0. -1.
        -13    1    1    2    0    0 -0.31048381116E+03 -0.37333392278E+03  0.53089666035E+03  0.71946486365E+03  0.10566000000E+00 0.  1.
<mgrwt>
<rscale>  1 0.90292363E+03</rscale>
<asrwt>0</asrwt>
<pdfrwt beam="1">  1       21 0.24591933E+00 0.11103263E+04</pdfrwt>
<pdfrwt beam="2">  1       -4 0.63222572E-01 0.11103263E+04</pdfrwt>
<totfact> 0.52688305E+00</totfact>
</mgrwt>
</event>
<event>
 6    2  0.2267664E-005  0.9905117E+03  0.7818608E-02  0.9659154E-01
         -4   -1    0    0    0  501 -0.00000000000E+00  0.00000000000E+00  0.76362151719E+03  0.76362151719E+03  0.00000000000E+00 0. -1.
         21   -1    0    0  501  502  0.00000000000E+00 -0.00000000000E+00 -0.14638289121E+04  0.14638289121E+04  0.00000000000E+00 0. -1.
   -9000010    2    1    2    0  502  0.30032500868E+03  0.28496303866E+01 -0.12536699069E+04  0.15977489170E+04  0.94388036054E+03 0.  0.
         13    1    3    3    0    0 -0.42893088718E+02  0.38660822636E+03 -0.87832544792E+03  0.96060467487E+03  0.10566000000E+00 0. -1.
         -4    1    3    3    0  502  0.34321809739E+03 -0.38375859597E+03 -0.37534445894E+03  0.63714424208E+03  0.00000000000E+00 0. -1.
        -13    1    1    2    0    0 -0.30032500868E+03 -0.28496303866E+01  0.55346251200E+03  0.62970151229E+03  0.10566000000E+00 0.  1.
<mgrwt>
<rscale>  1 0.73501714E+03</rscale>
<asrwt>0</asrwt>
<pdfrwt beam="2">  1       21 0.22520445E+00 0.99051167E+03</pdfrwt>
<pdfrwt beam="1">  1       -4 0.11748023E+00 0.99051167E+03</pdfrwt>
<totfact> 0.17151290E+00</totfact>
</mgrwt>
</event>
<event>
 6    2  0.2267664E-005  0.1003267E+04  0.7818608E-02  0.1011292E+00
         -4   -1    0    0    0  501 -0.00000000000E+00  0.00000000000E+00  0.95962977961E+03  0.95962977961E+03  0.00000000000E+00 0. -1.
         21   -1    0    0  501  502  0.00000000000E+00 -0.00000000000E+00 -0.40570729540E+03  0.40570729540E+03  0.00000000000E+00 0. -1.
   -9000010    2    1    2    0  502  0.65177214889E+02 -0.14662864808E+02  0.22301792392E+03  0.10277561097E+04  0.10010407373E+04 0.  0.
         13    1    3    3    0    0 -0.16811396517E+03 -0.15541285968E+03  0.55377157432E+03  0.59923153282E+03  0.10566000000E+00 0. -1.
         -4    1    3    3    0  502  0.23329118006E+03  0.14074999487E+03 -0.33075365040E+03  0.42852457689E+03  0.00000000000E+00 0. -1.
        -13    1    1    2    0    0 -0.65177214889E+02  0.14662864808E+02  0.33090456028E+03  0.33758096529E+03  0.10566000000E+00 0.  1.
<mgrwt>
<rscale>  1 0.50964396E+03</rscale>
<asrwt>0</asrwt>
<pdfrwt beam="2">  1       21 0.62416507E-01 0.10032675E+04</pdfrwt>
<pdfrwt beam="1">  1       -4 0.14763535E+00 0.10032675E+04</pdfrwt>
<totfact> 0.28737227E+01</totfact>
</mgrwt>
</event>
<event>
 6    2  0.2267664E-005  0.1056305E+04  0.7818608E-02  0.9539577E-01
         -4   -1    0    0    0  501 -0.00000000000E+00  0.00000000000E+00  0.43364620449E+03  0.43364620449E+03  0.00000000000E+00 0. -1.
         21   -1    0    0  501  502  0.00000000000E+00 -0.00000000000E+00 -0.13626069827E+04  0.13626069827E+04  0.00000000000E+00 0. -1.
   -9000010    2    1    2    0  502  0.37257300541E+03 -0.18090850524E+02 -0.95272378504E+03  0.14224850573E+04  0.98825260159E+03 0.  0.
         13    1    3    3    0    0 -0.21524367147E+03 -0.27866453204E+03 -0.58216055814E+03  0.68036364258E+03  0.10566000000E+00 0. -1.
         -4    1    3    3    0  502  0.58781667688E+03  0.26057368151E+03 -0.37056322690E+03  0.74212141476E+03  0.00000000000E+00 0. -1.
        -13    1    1    2    0    0 -0.37257300541E+03  0.18090850524E+02  0.23763006826E+02  0.37376812985E+03  0.10566000000E+00 0.  1.
<mgrwt>
<rscale>  1 0.81427823E+03</rscale>
<asrwt>0</asrwt>
<pdfrwt beam="2">  1       21 0.20963184E+00 0.10563054E+04</pdfrwt>
<pdfrwt beam="1">  1       -4 0.66714802E-01 0.10563054E+04</pdfrwt>
<totfact> 0.81506675E+00</totfact>
</mgrwt>
</event>
<event>
 6    2  0.2267664E-005  0.1207986E+04  0.7818608E-02  0.9256320E-01
         -4   -1    0    0    0  501 -0.00000000000E+00  0.00000000000E+00  0.95393271459E+03  0.95393271459E+03  0.00000000000E+00 0. -1.
         21   -1    0    0  501  502  0.00000000000E+00 -0.00000000000E+00 -0.10621958454E+04  0.10621958454E+04  0.00000000000E+00 0. -1.
   -9000010    2    1    2    0  502  0.65962476586E+03  0.19228768684E+03 -0.39599015140E+03  0.12712351208E+04  0.99355480274E+03 0.  0.
         13    1    3    3    0    0 -0.24520085333E+03 -0.87659231919E+02 -0.99656729332E+02  0.27881727758E+03  0.10566000000E+00 0. -1.
         -4    1    3    3    0  502  0.90482561919E+03  0.27994691876E+03 -0.29633342207E+03  0.99241784320E+03  0.00000000000E+00 0. -1.
        -13    1    1    2    0    0 -0.65962476586E+03 -0.19228768684E+03  0.28772702058E+03  0.74489343921E+03  0.10566000000E+00 0.  1.
<mgrwt>
<rscale>  1 0.10490552E+04</rscale>
<asrwt>0</asrwt>
<pdfrwt beam="2">  1       21 0.16341475E+00 0.12079861E+04</pdfrwt>
<pdfrwt beam="1">  1       -4 0.14675888E+00 0.12079861E+04</pdfrwt>
<totfact> 0.25435483E+00</totfact>
</mgrwt>
</event>
<event>
 6    2  0.2267664E-005  0.9583756E+03  0.7818608E-02  0.9563218E-01
         -4   -1    0    0    0  501 -0.00000000000E+00  0.00000000000E+00  0.84341537868E+03  0.84341537868E+03  0.00000000000E+00 0. -1.
         21   -1    0    0  501  502  0.00000000000E+00 -0.00000000000E+00 -0.78547099840E+03  0.78547099840E+03  0.00000000000E+00 0. -1.
   -9000010    2    1    2    0  502  0.46020466586E+03 -0.13720205929E+01 -0.34361776908E+03  0.10181144165E+04  0.84065068659E+03 0.  0.
         13    1    3    3    0    0 -0.11017743633E+03 -0.16147626572E+03  0.15047370491E+03  0.24669008675E+03  0.10566000000E+00 0. -1.
         -4    1    3    3    0  502  0.57038210219E+03  0.16010424513E+03 -0.49409147399E+03  0.77142432971E+03  0.00000000000E+00 0. -1.
        -13    1    1    2    0    0 -0.46020466586E+03  0.13720205929E+01  0.40156214935E+03  0.61077196062E+03  0.10566000000E+00 0.  1.
<mgrwt>
<rscale>  1 0.79779269E+03</rscale>
<asrwt>0</asrwt>
<pdfrwt beam="2">  1       21 0.12084169E+00 0.95837560E+03</pdfrwt>
<pdfrwt beam="1">  1       -4 0.12975621E+00 0.95837560E+03</pdfrwt>
<totfact> 0.82754050E+00</totfact>
</mgrwt>
</event>
<event>
 6    2  0.2267664E-005  0.1008467E+04  0.7818608E-02  0.9805984E-01
         21   -1    0    0  501  502  0.00000000000E+00  0.00000000000E+00  0.17332265280E+03  0.17332265280E+03  0.00000000000E+00 0.  1.
         -4   -1    0    0    0  501 -0.00000000000E+00 -0.00000000000E+00 -0.28941981723E+04  0.28941981723E+04  0.00000000000E+00 0. -1.
   -9000010    2    1    2    0  502  0.15084658370E+03  0.87728931589E+02 -0.27112771917E+04  0.28927547062E+04  0.99325461134E+03 0.  0.
         13    1    3    3    0    0 -0.38334398439E+03  0.74985159944E+02 -0.60798494458E+03  0.72264866192E+03  0.10566000000E+00 0. -1.
         -4    1    3    3    0  502  0.53419056809E+03  0.12743771645E+02 -0.21032922471E+04  0.21701060443E+04  0.00000000000E+00 0. -1.
        -13    1    1    2    0    0 -0.15084658370E+03 -0.87728931589E+02 -0.95983278249E+01  0.17476611890E+03  0.10566000000E+00 0.  1.
<mgrwt>
<rscale>  1 0.65042414E+03</rscale>
<asrwt>0</asrwt>
<pdfrwt beam="1">  1       21 0.26665024E-01 0.10084670E+04</pdfrwt>
<pdfrwt beam="2">  1       -4 0.44526125E+00 0.10084670E+04</pdfrwt>
<totfact> 0.18235135E+00</totfact>
</mgrwt>
</event>
<event>
 6    2  0.2267664E-005  0.1031126E+04  0.7818608E-02  0.9760032E-01
         21   -1    0    0  501  502  0.00000000000E+00  0.00000000000E+00  0.65781451582E+03  0.65781451582E+03  0.00000000000E+00 0. -1.
         -4   -1    0    0    0  501 -0.00000000000E+00 -0.00000000000E+00 -0.78475975680E+03  0.78475975680E+03  0.00000000000E+00 0. -1.
   -9000010    2    1    2    0  502  0.79312017003E+02  0.17259232776E+03  0.21324786888E+03  0.10529464107E+04  0.10134806276E+04 0.  0.
         13    1    3    3    0    0  0.21571105113E+03  0.68773687931E+02 -0.37620240760E+03  0.43907782952E+03  0.10566000000E+00 0. -1.
         -4    1    3    3    0  502 -0.13639903413E+03  0.10381863983E+03  0.58945027648E+03  0.61386858115E+03  0.00000000000E+00 0. -1.
        -13    1    1    2    0    0 -0.79312017003E+02 -0.17259232776E+03 -0.34019310986E+03  0.38962786194E+03  0.10566000000E+00 0.  1.
<mgrwt>
<rscale>  1 0.67552277E+03</rscale>
<asrwt>0</asrwt>
<pdfrwt beam="1">  1       21 0.10120223E+00 0.10311263E+04</pdfrwt>
<pdfrwt beam="2">  1       -4 0.12073227E+00 0.10311263E+04</pdfrwt>
<totfact> 0.15470886E+01</totfact>
</mgrwt>
</event>
<event>
 6    2  0.2267664E-005  0.1030604E+04  0.7818608E-02  0.9691993E-01
         21   -1    0    0  501  502  0.00000000000E+00  0.00000000000E+00  0.95117217897E+03  0.95117217897E+03  0.00000000000E+00 0. -1.
         -4   -1    0    0    0  501 -0.00000000000E+00 -0.00000000000E+00 -0.64365692285E+03  0.64365692285E+03  0.00000000000E+00 0. -1.
   -9000010    2    1    2    0  502  0.14182324446E+03  0.19199170815E+03  0.61914944670E+03  0.12022854373E+04  0.10025814614E+04 0.  0.
         13    1    3    3    0    0  0.77290484435E+02  0.24727007309E+03 -0.23148267546E+03  0.34741984433E+03  0.10566000000E+00 0. -1.
         -4    1    3    3    0  502  0.64532760029E+02 -0.55278364937E+02  0.85063212217E+03  0.85486559295E+03  0.00000000000E+00 0. -1.
        -13    1    1    2    0    0 -0.14182324446E+03 -0.19199170815E+03 -0.31163419058E+03  0.39254366454E+03  0.10566000000E+00 0.  1.
<mgrwt>
<rscale>  1 0.71495553E+03</rscale>
<asrwt>0</asrwt>
<pdfrwt beam="1">  1       21 0.14633418E+00 0.10306038E+04</pdfrwt>
<pdfrwt beam="2">  1       -4 0.99024143E-01 0.10306038E+04</pdfrwt>
<totfact> 0.96105715E+00</totfact>
</mgrwt>
</event>
<event>
 6    2  0.2267664E-005  0.1081073E+04  0.7818608E-02  0.9504968E-01
         21   -1    0    0  501  502  0.00000000000E+00  0.00000000000E+00  0.16183249069E+04  0.16183249069E+04  0.00000000000E+00 0. -1.
         -4   -1    0    0    0  501 -0.00000000000E+00 -0.00000000000E+00 -0.37179958493E+03  0.37179958493E+03  0.00000000000E+00 0. -1.
   -9000010    2    1    2    0  502  0.61503343521E+02  0.38767588118E+03  0.11648141157E+04  0.15891856156E+04  0.10072952628E+04 0.  0.
         13    1    3    3    0    0  0.47218425901E+03  0.25942479818E+03  0.98534105557E+03  0.11230121136E+04  0.10566000000E+00 0. -1.
         -4    1    3    3    0  502 -0.41068091549E+03  0.12825108300E+03  0.17947306014E+03  0.46617350198E+03  0.00000000000E+00 0. -1.
        -13    1    1    2    0    0 -0.61503343521E+02 -0.38767588118E+03  0.81711206300E+02  0.40093887628E+03  0.10566000000E+00 0.  1.
<mgrwt>
<rscale>  1 0.83918537E+03</rscale>
<asrwt>0</asrwt>
<pdfrwt beam="1">  1       21 0.24897306E+00 0.10810731E+04</pdfrwt>
<pdfrwt beam="2">  1       -4 0.57199937E-01 0.10810731E+04</pdfrwt>
<totfact> 0.62930605E+00</totfact>
</mgrwt>
</event>
<event>
 6    2  0.2267664E-005  0.1005719E+04  0.7818608E-02  0.9757375E-01
         21   -1    0    0  501  502  0.00000000000E+00  0.00000000000E+00  0.52324783501E+03  0.52324783501E+03  0.00000000000E+00 0. -1.
         -4   -1    0    0    0  501 -0.00000000000E+00 -0.00000000000E+00 -0.74673084014E+03  0.74673084014E+03  0.00000000000E+00 0. -1.
   -9000010    2    1    2    0  502 -0.16965273736E+03 -0.11775693114E+03 -0.30036878889E+03  0.10496149281E+04  0.98428722523E+03 0.  0.
         13    1    3    3    0    0  0.22328053007E+03  0.25479887566E+03 -0.37231282931E+03  0.50338207773E+03  0.10566000000E+00 0. -1.
         -4    1    3    3    0  502 -0.39293326743E+03 -0.37255580680E+03  0.71944040417E+02  0.54623285034E+03  0.00000000000E+00 0. -1.
        -13    1    1    2    0    0  0.16965273736E+03  0.11775693114E+03  0.76885783758E+02  0.22036374709E+03  0.10566000000E+00 0.  1.
<mgrwt>
<rscale>  1 0.67701103E+03</rscale>
<asrwt>0</asrwt>
<pdfrwt beam="1">  1       21 0.80499667E-01 0.10057187E+04</pdfrwt>
<pdfrwt beam="2">  1       -4 0.11488167E+00 0.10057187E+04</pdfrwt>
<totfact> 0.30541385E+01</totfact>
</mgrwt>
</event>
<event>
 6    2  0.2267664E-005  0.9996147E+03  0.7818608E-02  0.9820998E-01
         21   -1    0    0  501  502  0.00000000000E+00  0.00000000000E+00  0.28964367548E+03  0.28964367548E+03  0.00000000000E+00 0. -1.
         -4   -1    0    0    0  501 -0.00000000000E+00 -0.00000000000E+00 -0.12636344731E+04  0.12636344731E+04  0.00000000000E+00 0. -1.
   -9000010    2    1    2    0  502 -0.12999483807E+03  0.11045169780E+03 -0.66586451097E+03  0.12010849414E+04  0.98495241211E+03 0.  0.
         13    1    3    3    0    0 -0.55216714237E+03  0.15654396644E+03 -0.35597545953E+03  0.67536146284E+03  0.10566000000E+00 0. -1.
         -4    1    3    3    0  502  0.42217230430E+03 -0.46092268642E+02 -0.30988905144E+03  0.52572347860E+03  0.00000000000E+00 0. -1.
        -13    1    1    2    0    0  0.12999483807E+03 -0.11045169780E+03 -0.30812628663E+03  0.35219320713E+03  0.10566000000E+00 0.  1.
<mgrwt>
<rscale>  1 0.64247735E+03</rscale>
<asrwt>0</asrwt>
<pdfrwt beam="1">  1       21 0.44560567E-01 0.99961467E+03</pdfrwt>
<pdfrwt beam="2">  1       -4 0.19440530E+00 0.99961467E+03</pdfrwt>
<totfact> 0.27585167E+01</totfact>
</mgrwt>
</event>
<event>
 6    2  0.2267664E-005  0.1045778E+04  0.7818608E-02  0.9676771E-01
         -4   -1    0    0    0  501 -0.00000000000E+00  0.00000000000E+00  0.26008202036E+03  0.26008202036E+03  0.00000000000E+00 0. -1.
         21   -1    0    0  501  502  0.00000000000E+00 -0.00000000000E+00 -0.18343214259E+04  0.18343214259E+04  0.00000000000E+00 0. -1.
   -9000010    2    1    2    0  502  0.10432580914E+03  0.21664794494E+03 -0.15247221222E+04  0.18488995176E+04  0.10177581588E+04 0.  0.
         13    1    3    3    0    0  0.22972948999E+02 -0.68025648655E+02 -0.15500834453E+04  0.15517454507E+04  0.10566000000E+00 0. -1.
         -4    1    3    3    0  502  0.81352860141E+02  0.28467359360E+03  0.25361323109E+02  0.29715406687E+03  0.00000000000E+00 0. -1.
        -13    1    1    2    0    0 -0.10432580914E+03 -0.21664794494E+03 -0.49517283390E+02  0.24550392872E+03  0.10566000000E+00 0.  1.
<mgrwt>
<rscale>  1 0.72416850E+03</rscale>
<asrwt>0</asrwt>
<pdfrwt beam="2">  1       21 0.28220330E+00 0.10457781E+04</pdfrwt>
<pdfrwt beam="1">  1       -4 0.40012619E-01 0.10457781E+04</pdfrwt>
<totfact> 0.82713228E+00</totfact>
</mgrwt>
</event>
<event>
 6    2  0.2267664E-005  0.1121257E+04  0.7818608E-02  0.9478018E-01
         21   -1    0    0  501  502  0.00000000000E+00  0.00000000000E+00  0.13738993002E+04  0.13738993002E+04  0.00000000000E+00 0. -1.
         -4   -1    0    0    0  501 -0.00000000000E+00 -0.00000000000E+00 -0.45037276889E+03  0.45037276889E+03  0.00000000000E+00 0. -1.
   -9000010    2    1    2    0  502  0.24183685065E+03 -0.30171255617E+03  0.89840496819E+03  0.14367844784E+04  0.10524745230E+04 0.  0.
         13    1    3    3    0    0  0.56242564000E+03  0.31294112587E+02  0.77548070810E+03  0.95847392339E+03  0.10566000000E+00 0. -1.
         -4    1    3    3    0  502 -0.32058878936E+03 -0.33300666876E+03  0.12292426009E+03  0.47831055499E+03  0.00000000000E+00 0. -1.
        -13    1    1    2    0    0 -0.24183685065E+03  0.30171255617E+03  0.25121563153E+02  0.38748759074E+03  0.10566000000E+00 0.  1.
<mgrwt>
<rscale>  1 0.85924059E+03</rscale>
<asrwt>0</asrwt>
<pdfrwt beam="1">  1       21 0.21136912E+00 0.11212574E+04</pdfrwt>
<pdfrwt beam="2">  1       -4 0.69288119E-01 0.11212574E+04</pdfrwt>
<totfact> 0.72307542E+00</totfact>
</mgrwt>
</event>
<event>
 6    2  0.2267664E-005  0.1043648E+04  0.7818608E-02  0.9610601E-01
         -4   -1    0    0    0  501 -0.00000000000E+00  0.00000000000E+00  0.13084513537E+04  0.13084513537E+04  0.00000000000E+00 0. -1.
         21   -1    0    0  501  502  0.00000000000E+00 -0.00000000000E+00 -0.39347506256E+03  0.39347506256E+03  0.00000000000E+00 0. -1.
   -9000010    2    1    2    0  502 -0.30258684368E+03  0.12475577888E+02  0.42701613767E+03  0.11276272255E+04  0.99874217883E+03 0.  0.
         13    1    3    3    0    0  0.36994547929E+03 -0.17705700438E+02  0.14533202609E+03  0.39786248686E+03  0.10566000000E+00 0. -1.
         -4    1    3    3    0  502 -0.67253232297E+03  0.30181278326E+02  0.28168411158E+03  0.72976473861E+03  0.00000000000E+00 0. -1.
        -13    1    1    2    0    0  0.30258684368E+03 -0.12475577888E+02  0.48796015352E+03  0.57429919084E+03  0.10566000000E+00 0.  1.
<mgrwt>
<rscale>  1 0.76598478E+03</rscale>
<asrwt>0</asrwt>
<pdfrwt beam="2">  1       21 0.60534626E-01 0.10436476E+04</pdfrwt>
<pdfrwt beam="1">  1       -4 0.20130021E+00 0.10436476E+04</pdfrwt>
<totfact> 0.12679740E+01</totfact>
</mgrwt>
</event>
<event>
 6    2  0.2267664E-005  0.1016669E+04  0.7818608E-02  0.9901342E-01
         21   -1    0    0  501  502  0.00000000000E+00  0.00000000000E+00  0.10844552853E+04  0.10844552853E+04  0.00000000000E+00 0. -1.
         -4   -1    0    0    0  501 -0.00000000000E+00 -0.00000000000E+00 -0.35765905494E+03  0.35765905494E+03  0.00000000000E+00 0. -1.
   -9000010    2    1    2    0  502  0.28251869990E+02 -0.12171506229E+03  0.80319168472E+03  0.12956595651E+04  0.10089618931E+04 0.  0.
         13    1    3    3    0    0  0.64393194184E+02 -0.34723942240E+03 -0.97571271737E+02  0.36639031668E+03  0.10566000000E+00 0. -1.
         -4    1    3    3    0  502 -0.36141324194E+02  0.22552436010E+03  0.90076295645E+03  0.92926924840E+03  0.00000000000E+00 0. -1.
        -13    1    1    2    0    0 -0.28251869990E+02  0.12171506229E+03 -0.76395454374E+02  0.14645477514E+03  0.10566000000E+00 0.  1.
<mgrwt>
<rscale>  1 0.60196289E+03</rscale>
<asrwt>0</asrwt>
<pdfrwt beam="1">  1       21 0.16683927E+00 0.10166695E+04</pdfrwt>
<pdfrwt beam="2">  1       -4 0.55024471E-01 0.10166695E+04</pdfrwt>
<totfact> 0.25140683E+01</totfact>
</mgrwt>
</event>
<event>
 6    2  0.2267664E-005  0.1046709E+04  0.7818608E-02  0.9571342E-01
         21   -1    0    0  501  502  0.00000000000E+00  0.00000000000E+00  0.74488292683E+03  0.74488292683E+03  0.00000000000E+00 0.  1.
         -4   -1    0    0    0  501 -0.00000000000E+00 -0.00000000000E+00 -0.64865081226E+03  0.64865081226E+03  0.00000000000E+00 0. -1.
   -9000010    2    1    2    0  502 -0.23949041042E+03  0.24623008848E+03  0.74554136198E+02  0.10493610222E+04  0.98874431603E+03 0.  0.
         13    1    3    3    0    0  0.34748299579E+03  0.29664196395E+03  0.13629678467E+02  0.45708496632E+03  0.10566000000E+00 0. -1.
         -4    1    3    3    0  502 -0.58697340621E+03 -0.50411875467E+02  0.60924457731E+02  0.59227605586E+03  0.00000000000E+00 0. -1.
        -13    1    1    2    0    0  0.23949041042E+03 -0.24623008848E+03  0.21677978371E+02  0.34417271691E+03  0.10566000000E+00 0.  1.
<mgrwt>
<rscale>  1 0.79222375E+03</rscale>
<asrwt>0</asrwt>
<pdfrwt beam="1">  1       21 0.11459737E+00 0.10467092E+04</pdfrwt>
<pdfrwt beam="2">  1       -4 0.99792432E-01 0.10467092E+04</pdfrwt>
<totfact> 0.18043365E+01</totfact>
</mgrwt>
</event>
<event>
 6    2  0.2267664E-005  0.1018724E+04  0.7818608E-02  0.9993285E-01
         -4   -1    0    0    0  501 -0.00000000000E+00  0.00000000000E+00  0.93010503625E+03  0.93010503625E+03  0.00000000000E+00 0. -1.
         21   -1    0    0  501  502  0.00000000000E+00 -0.00000000000E+00 -0.45940903226E+03  0.45940903226E+03  0.00000000000E+00 0. -1.
   -9000010    2    1    2    0  502 -0.41193334060E+02 -0.83000673702E+02  0.11880527783E+03  0.10256279642E+04  0.10145008744E+04 0.  0.
         13    1    3    3    0    0  0.29864647498E+03 -0.22529878547E+03 -0.29144497602E+03  0.47422509947E+03  0.10566000000E+00 0. -1.
         -4    1    3    3    0  502 -0.33983980904E+03  0.14229811177E+03  0.41025025385E+03  0.55140286470E+03  0.00000000000E+00 0. -1.
        -13    1    1    2    0    0  0.41193334060E+02  0.83000673702E+02  0.35189072616E+03  0.36388610434E+03  0.10566000000E+00 0.  1.
<mgrwt>
<rscale>  1 0.55945642E+03</rscale>
<asrwt>0</asrwt>
<pdfrwt beam="2">  1       21 0.70678313E-01 0.10187237E+04</pdfrwt>
<pdfrwt beam="1">  1       -4 0.14309308E+00 0.10187237E+04</pdfrwt>
<totfact> 0.23516789E+01</totfact>
</mgrwt>
</event>
<event>
 6    2  0.2267664E-005  0.1032567E+04  0.7818608E-02  0.9658495E-01
         -4   -1    0    0    0  501 -0.00000000000E+00  0.00000000000E+00  0.24722988931E+04  0.24722988931E+04  0.00000000000E+00 0. -1.
         21   -1    0    0  501  502  0.00000000000E+00 -0.00000000000E+00 -0.23177291196E+03  0.23177291196E+03  0.00000000000E+00 0.  1.
   -9000010    2    1    2    0  502 -0.23864705014E+03  0.11682321971E+03  0.22065556520E+04  0.24362022965E+04  0.99779442013E+03 0.  0.
         13    1    3    3    0    0 -0.12996528780E+03  0.49251668895E+03  0.62130294141E+03  0.80341833505E+03  0.10566000000E+00 0. -1.
         -4    1    3    3    0  502 -0.10868176234E+03 -0.37569346924E+03  0.15852527106E+04  0.16327839615E+04  0.00000000000E+00 0. -1.
        -13    1    1    2    0    0  0.23864705014E+03 -0.11682321971E+03  0.33970329150E+02  0.26786950859E+03  0.10566000000E+00 0.  1.
<mgrwt>
<rscale>  1 0.73542649E+03</rscale>
<asrwt>0</asrwt>
<pdfrwt beam="2">  1       21 0.35657373E-01 0.10325666E+04</pdfrwt>
<pdfrwt beam="1">  1       -4 0.38035366E+00 0.10325666E+04</pdfrwt>
<totfact> 0.28952762E+00</totfact>
</mgrwt>
</event>
<event>
 6    2  0.2267664E-005  0.1056168E+04  0.7818608E-02  0.9579890E-01
         -4   -1    0    0    0  501 -0.00000000000E+00  0.00000000000E+00  0.27684575611E+03  0.27684575611E+03  0.00000000000E+00 0. -1.
         21   -1    0    0  501  502  0.00000000000E+00 -0.00000000000E+00 -0.20711489704E+04  0.20711489704E+04  0.00000000000E+00 0. -1.
   -9000010    2    1    2    0  502  0.28388012958E+03 -0.15750348645E+03 -0.17144676183E+04  0.20136760017E+04  0.10050355960E+04 0.  0.
         13    1    3    3    0    0 -0.36876893700E+02 -0.45336015090E+03 -0.14100978955E+04  0.14816448353E+04  0.10566000000E+00 0. -1.
         -4    1    3    3    0  502  0.32075702328E+03  0.29585666445E+03 -0.30436972279E+03  0.53203116641E+03  0.00000000000E+00 0. -1.
        -13    1    1    2    0    0 -0.28388012958E+03  0.15750348645E+03 -0.79835595941E+02  0.33431872481E+03  0.10566000000E+00 0.  1.
<mgrwt>
<rscale>  1 0.78641637E+03</rscale>
<asrwt>0</asrwt>
<pdfrwt beam="2">  1       21 0.31863831E+00 0.10561685E+04</pdfrwt>
<pdfrwt beam="1">  1       -4 0.42591653E-01 0.10561685E+04</pdfrwt>
<totfact> 0.43065226E+00</totfact>
</mgrwt>
</event>
<event>
 6    2  0.2267664E-005  0.1048117E+04  0.7818608E-02  0.9572069E-01
         21   -1    0    0  501  502  0.00000000000E+00  0.00000000000E+00  0.64098621113E+03  0.64098621113E+03  0.00000000000E+00 0. -1.
         -4   -1    0    0    0  501 -0.00000000000E+00 -0.00000000000E+00 -0.81132920064E+03  0.81132920064E+03  0.00000000000E+00 0. -1.
   -9000010    2    1    2    0  502  0.80897868150E+02 -0.33152407936E+03  0.44508753034E+02  0.10490611958E+04  0.99100740822E+03 0.  0.
         13    1    3    3    0    0  0.35233793147E+03 -0.12696136710E+03  0.40635394915E+03  0.55261627722E+03  0.10566000000E+00 0. -1.
         -4    1    3    3    0  502 -0.27144006332E+03 -0.20456271226E+03 -0.36184519612E+03  0.49644491857E+03  0.00000000000E+00 0. -1.
        -13    1    1    2    0    0 -0.80897868150E+02  0.33152407936E+03 -0.21485174254E+03  0.40325421598E+03  0.10566000000E+00 0.  1.
<mgrwt>
<rscale>  1 0.79172778E+03</rscale>
<asrwt>0</asrwt>
<pdfrwt beam="1">  1       21 0.98613264E-01 0.10481166E+04</pdfrwt>
<pdfrwt beam="2">  1       -4 0.12481988E+00 0.10481166E+04</pdfrwt>
<totfact> 0.15135292E+01</totfact>
</mgrwt>
</event>
<event>
 6    2  0.2267664E-005  0.1004720E+04  0.7818608E-02  0.9565287E-01
         21   -1    0    0  501  502  0.00000000000E+00  0.00000000000E+00  0.12605723693E+04  0.12605723693E+04  0.00000000000E+00 0. -1.
         -4   -1    0    0    0  501 -0.00000000000E+00 -0.00000000000E+00 -0.39013223820E+03  0.39013223820E+03  0.00000000000E+00 0. -1.
   -9000010    2    1    2    0  502  0.37435970175E+03 -0.13086214781E+03  0.59222697501E+03  0.11662743654E+04  0.92314301033E+03 0.  0.
         13    1    3    3    0    0  0.30886860340E+03  0.10541402235E+03 -0.16830039570E+03  0.36720153136E+03  0.10566000000E+00 0. -1.
         -4    1    3    3    0  502  0.65491098346E+02 -0.23627617017E+03  0.76052737072E+03  0.79907283408E+03  0.00000000000E+00 0. -1.
        -13    1    1    2    0    0 -0.37435970175E+03  0.13086214781E+03  0.27821315604E+03  0.48443024202E+03  0.10566000000E+00 0.  1.
<mgrwt>
<rscale>  1 0.79636973E+03</rscale>
<asrwt>0</asrwt>
<pdfrwt beam="1">  1       21 0.19393421E+00 0.10047204E+04</pdfrwt>
<pdfrwt beam="2">  1       -4 0.60020345E-01 0.10047204E+04</pdfrwt>
<totfact> 0.13268974E+01</totfact>
</mgrwt>
</event>
<event>
 6    2  0.2267664E-005  0.1066432E+04  0.7818608E-02  0.9548257E-01
         -4   -1    0    0    0  501 -0.00000000000E+00  0.00000000000E+00  0.55884994581E+03  0.55884994581E+03  0.00000000000E+00 0. -1.
         21   -1    0    0  501  502  0.00000000000E+00 -0.00000000000E+00 -0.92119558134E+03  0.92119558134E+03  0.00000000000E+00 0. -1.
   -9000010    2    1    2    0  502  0.27538054887E+03  0.21883455789E+03 -0.36833921975E+03  0.11282516320E+04  0.10067546642E+04 0.  0.
         13    1    3    3    0    0 -0.36080585734E+03  0.25735672565E+02 -0.28027296673E+03  0.45759822834E+03  0.10566000000E+00 0. -1.
         -4    1    3    3    0  502  0.63618640622E+03  0.19309888533E+03 -0.88066253021E+02  0.67065340370E+03  0.00000000000E+00 0. -1.
        -13    1    1    2    0    0 -0.27538054887E+03 -0.21883455789E+03  0.59935842130E+01  0.35179389512E+03  0.10566000000E+00 0.  1.
<mgrwt>
<rscale>  1 0.80817665E+03</rscale>
<asrwt>0</asrwt>
<pdfrwt beam="2">  1       21 0.14172239E+00 0.10664324E+04</pdfrwt>
<pdfrwt beam="1">  1       -4 0.85976916E-01 0.10664324E+04</pdfrwt>
<totfact> 0.14608082E+01</totfact>
</mgrwt>
</event>
<event>
 6    2  0.2267664E-005  0.1048471E+04  0.7818608E-02  0.9572930E-01
         -4   -1    0    0    0  501 -0.00000000000E+00  0.00000000000E+00  0.40963699048E+03  0.40963699048E+03  0.00000000000E+00 0. -1.
         21   -1    0    0  501  502  0.00000000000E+00 -0.00000000000E+00 -0.11909604594E+04  0.11909604594E+04  0.00000000000E+00 0. -1.
   -9000010    2    1    2    0  502  0.32674331547E+03 -0.93637652137E+02 -0.51130085643E+03  0.11664990434E+04  0.99184789579E+03 0.  0.
         13    1    3    3    0    0  0.17378575575E+03  0.35303790968E+03 -0.56798107001E+03  0.69097015972E+03  0.10566000000E+00 0. -1.
         -4    1    3    3    0  502  0.15295755972E+03 -0.44667556182E+03  0.56680213584E+02  0.47552888368E+03  0.00000000000E+00 0. -1.
        -13    1    1    2    0    0 -0.32674331547E+03  0.93637652137E+02 -0.27002261253E+03  0.43409840652E+03  0.10566000000E+00 0.  1.
<mgrwt>
<rscale>  1 0.79114093E+03</rscale>
<asrwt>0</asrwt>
<pdfrwt beam="2">  1       21 0.18322468E+00 0.10484710E+04</pdfrwt>
<pdfrwt beam="1">  1       -4 0.63021077E-01 0.10484710E+04</pdfrwt>
<totfact> 0.14123903E+01</totfact>
</mgrwt>
</event>
<event>
 6    2  0.2267664E-005  0.1100453E+04  0.7818608E-02  0.9466711E-01
         21   -1    0    0  501  502  0.00000000000E+00  0.00000000000E+00  0.68351698974E+03  0.68351698974E+03  0.00000000000E+00 0. -1.
         -4   -1    0    0    0  501 -0.00000000000E+00 -0.00000000000E+00 -0.85352146540E+03  0.85352146540E+03  0.00000000000E+00 0. -1.
   -9000010    2    1    2    0  502 -0.42399303393E+03  0.37256964397E+02 -0.91683150153E+02  0.11042655177E+04  0.10148095187E+04 0.  0.
         13    1    3    3    0    0 -0.92745042822E+02 -0.43052961638E+03 -0.25416962338E+03  0.50848756343E+03  0.10566000000E+00 0. -1.
         -4    1    3    3    0  502 -0.33124799110E+03  0.46778658078E+03  0.16248647323E+03  0.59577795423E+03  0.00000000000E+00 0. -1.
        -13    1    1    2    0    0  0.42399303393E+03 -0.37256964397E+02 -0.78321325506E+02  0.43277293747E+03  0.10566000000E+00 0.  1.
<mgrwt>
<rscale>  1 0.86783235E+03</rscale>
<asrwt>0</asrwt>
<pdfrwt beam="1">  1       21 0.10515646E+00 0.11004529E+04</pdfrwt>
<pdfrwt beam="2">  1       -4 0.13131099E+00 0.11004529E+04</pdfrwt>
<totfact> 0.11261655E+01</totfact>
</mgrwt>
</event>
<event>
 6    2  0.2267664E-005  0.1000404E+04  0.7818608E-02  0.9844141E-01
         -4   -1    0    0    0  501 -0.00000000000E+00  0.00000000000E+00  0.10285121982E+04  0.10285121982E+04  0.00000000000E+00 0. -1.
         21   -1    0    0  501  502  0.00000000000E+00 -0.00000000000E+00 -0.48630089257E+03  0.48630089257E+03  0.00000000000E+00 0. -1.
   -9000010    2    1    2    0  502 -0.19217024111E+02  0.15662978142E+03  0.75255344568E+03  0.12518568027E+04  0.98787984254E+03 0.  0.
         13    1    3    3    0    0  0.73926128661E+02  0.54332999225E+03  0.63094801301E+03  0.83592341710E+03  0.10566000000E+00 0. -1.
         -4    1    3    3    0  502 -0.93143152772E+02 -0.38670021083E+03  0.12160543267E+03  0.41593338555E+03  0.00000000000E+00 0. -1.
        -13    1    1    2    0    0  0.19217024111E+02 -0.15662978142E+03 -0.21034214002E+03  0.26295628814E+03  0.10566000000E+00 0.  1.
<mgrwt>
<rscale>  1 0.63046563E+03</rscale>
<asrwt>0</asrwt>
<pdfrwt beam="2">  1       21 0.74815522E-01 0.10004043E+04</pdfrwt>
<pdfrwt beam="1">  1       -4 0.15823265E+00 0.10004043E+04</pdfrwt>
<totfact> 0.15761687E+01</totfact>
</mgrwt>
</event>
<event>
 6    2  0.2267664E-005  0.8724166E+03  0.7818608E-02  0.9919988E-01
         21   -1    0    0  501  502  0.00000000000E+00  0.00000000000E+00  0.26016232831E+03  0.26016232831E+03  0.00000000000E+00 0. -1.
         -4   -1    0    0    0  501 -0.00000000000E+00 -0.00000000000E+00 -0.10772516902E+04  0.10772516902E+04  0.00000000000E+00 0. -1.
   -9000010    2    1    2    0  502 -0.17278146128E+02  0.18545440845E+03 -0.66566706506E+03  0.10973711159E+04  0.85230208999E+03 0.  0.
         13    1    3    3    0    0 -0.27997456631E+03 -0.15812736799E+03 -0.22527297787E+02  0.32233137079E+03  0.10566000000E+00 0. -1.
         -4    1    3    3    0  502  0.26269642018E+03  0.34358177643E+03 -0.64313976727E+03  0.77503974512E+03  0.00000000000E+00 0. -1.
        -13    1    1    2    0    0  0.17278146128E+02 -0.18545440845E+03 -0.15142229684E+03  0.24004290261E+03  0.10566000000E+00 0.  1.
<mgrwt>
<rscale>  1 0.59302285E+03</rscale>
<asrwt>0</asrwt>
<pdfrwt beam="1">  1       21 0.40024973E-01 0.87241660E+03</pdfrwt>
<pdfrwt beam="2">  1       -4 0.16573103E+00 0.87241660E+03</pdfrwt>
<totfact> 0.55459453E+01</totfact>
</mgrwt>
</event>
<event>
 6    2  0.2267664E-005  0.9996810E+03  0.7818608E-02  0.1012629E+00
         -4   -1    0    0    0  501 -0.00000000000E+00  0.00000000000E+00  0.30033637698E+03  0.30033637698E+03  0.00000000000E+00 0. -1.
         21   -1    0    0  501  502  0.00000000000E+00 -0.00000000000E+00 -0.97797683634E+03  0.97797683634E+03  0.00000000000E+00 0. -1.
   -9000010    2    1    2    0  502 -0.36826462767E+02 -0.53325717487E+02 -0.56483187236E+03  0.11482147546E+04  0.99757819646E+03 0.  0.
         13    1    3    3    0    0  0.64195201270E+02 -0.40736856415E+03  0.66156489826E+02  0.41766836514E+03  0.10566000000E+00 0. -1.
         -4    1    3    3    0  502 -0.10102166404E+03  0.35404284667E+03 -0.63098836218E+03  0.73054638942E+03  0.00000000000E+00 0. -1.
        -13    1    1    2    0    0  0.36826462767E+02  0.53325717487E+02 -0.11280858701E+03  0.13009845876E+03  0.10566000000E+00 0.  1.
<mgrwt>
<rscale>  1 0.50442908E+03</rscale>
<asrwt>0</asrwt>
<pdfrwt beam="2">  1       21 0.15045798E+00 0.99968099E+03</pdfrwt>
<pdfrwt beam="1">  1       -4 0.46205596E-01 0.99968099E+03</pdfrwt>
<totfact> 0.48910731E+01</totfact>
</mgrwt>
</event>
<event>
 6    2  0.2267664E-005  0.1009331E+04  0.7818608E-02  0.9823763E-01
         21   -1    0    0  501  502  0.00000000000E+00  0.00000000000E+00  0.73953167974E+03  0.73953167974E+03  0.00000000000E+00 0. -1.
         -4   -1    0    0    0  501 -0.00000000000E+00 -0.00000000000E+00 -0.47075336535E+03  0.47075336535E+03  0.00000000000E+00 0. -1.
   -9000010    2    1    2    0  502  0.87374317861E+02 -0.13903721557E+03  0.27443760844E+03  0.10459754060E+04  0.99588299023E+03 0.  0.
         13    1    3    3    0    0  0.39745322537E+02 -0.54333416982E+03 -0.17430465130E+02  0.54506471454E+03  0.10566000000E+00 0. -1.
         -4    1    3    3    0  502  0.47628995324E+02  0.40429695426E+03  0.29186807357E+03  0.50091069143E+03  0.00000000000E+00 0. -1.
        -13    1    1    2    0    0 -0.87374317861E+02  0.13903721557E+03 -0.56592940503E+01  0.16430963912E+03  0.10566000000E+00 0.  1.
<mgrwt>
<rscale>  1 0.64102718E+03</rscale>
<asrwt>0</asrwt>
<pdfrwt beam="1">  1       21 0.11377411E+00 0.10093307E+04</pdfrwt>
<pdfrwt beam="2">  1       -4 0.72423594E-01 0.10093307E+04</pdfrwt>
<totfact> 0.38898678E+01</totfact>
</mgrwt>
</event>
<event>
 6    2  0.2267664E-005  0.1074221E+04  0.7818608E-02  0.9508401E-01
         -4   -1    0    0    0  501 -0.00000000000E+00  0.00000000000E+00  0.38080122464E+03  0.38080122464E+03  0.00000000000E+00 0. -1.
         21   -1    0    0  501  502  0.00000000000E+00 -0.00000000000E+00 -0.14191534409E+04  0.14191534409E+04  0.00000000000E+00 0. -1.
   -9000010    2    1    2    0  502 -0.98805306988E+02  0.38276642989E+03 -0.73373292154E+03  0.13008899859E+04  0.99883838873E+03 0.  0.
         13    1    3    3    0    0 -0.40429458602E+03  0.48317805332E+03 -0.74927979472E+03  0.97894604828E+03  0.10566000000E+00 0. -1.
         -4    1    3    3    0  502  0.30548927903E+03 -0.10041162343E+03  0.15546873181E+02  0.32194393765E+03  0.00000000000E+00 0. -1.
        -13    1    1    2    0    0  0.98805306988E+02 -0.38276642989E+03 -0.30461929470E+03  0.49906467959E+03  0.10566000000E+00 0.  1.
<mgrwt>
<rscale>  1 0.83667280E+03</rscale>
<asrwt>0</asrwt>
<pdfrwt beam="2">  1       21 0.21833130E+00 0.10742210E+04</pdfrwt>
<pdfrwt beam="1">  1       -4 0.58584804E-01 0.10742210E+04</pdfrwt>
<totfact> 0.94588724E+00</totfact>
</mgrwt>
</event>
<event>
 6    2  0.2267664E-005  0.1014579E+04  0.7818608E-02  0.9697959E-01
         21   -1    0    0  501  502  0.00000000000E+00  0.00000000000E+00  0.27089870812E+03  0.27089870812E+03  0.00000000000E+00 0. -1.
         -4   -1    0    0    0  501 -0.00000000000E+00 -0.00000000000E+00 -0.15248601516E+04  0.15248601516E+04  0.00000000000E+00 0. -1.
   -9000010    2    1    2    0  502 -0.23534203463E+03  0.68903818850E+02 -0.85184119587E+03  0.13247659572E+04  0.98449876021E+03 0.  0.
         13    1    3    3    0    0 -0.61634253405E+03  0.12425897347E+03 -0.50207606562E+03  0.80461096103E+03  0.10566000000E+00 0. -1.
         -4    1    3    3    0  502  0.38100049942E+03 -0.55355154622E+02 -0.34976513025E+03  0.52015499617E+03  0.00000000000E+00 0. -1.
        -13    1    1    2    0    0  0.23534203463E+03 -0.68903818850E+02 -0.40212024756E+03  0.47099290247E+03  0.10566000000E+00 0.  1.
<mgrwt>
<rscale>  1 0.71138419E+03</rscale>
<asrwt>0</asrwt>
<pdfrwt beam="1">  1       21 0.41676724E-01 0.10145794E+04</pdfrwt>
<pdfrwt beam="2">  1       -4 0.23459387E+00 0.10145794E+04</pdfrwt>
<totfact> 0.17464603E+01</totfact>
</mgrwt>
</event>
<event>
 6    2  0.2267664E-005  0.1160230E+04  0.7818608E-02  0.9367376E-01
         21   -1    0    0  501  502  0.00000000000E+00  0.00000000000E+00  0.66597594137E+03  0.66597594137E+03  0.00000000000E+00 0. -1.
         -4   -1    0    0    0  501 -0.00000000000E+00 -0.00000000000E+00 -0.11793590368E+04  0.11793590368E+04  0.00000000000E+00 0. -1.
   -9000010    2    1    2    0  502 -0.48908595947E+03 -0.16865004164E+03 -0.67223008948E+02  0.11621755925E+04  0.10385014504E+04 0.  0.
         13    1    3    3    0    0  0.20233583998E+02 -0.15194356620E+03  0.42614920117E+03  0.45287901039E+03  0.10566000000E+00 0. -1.
         -4    1    3    3    0  502 -0.50931954347E+03 -0.16706475446E+02 -0.49337221012E+03  0.70929658211E+03  0.00000000000E+00 0. -1.
        -13    1    1    2    0    0  0.48908595947E+03  0.16865004164E+03 -0.44616008650E+03  0.68315938568E+03  0.10566000000E+00 0.  1.
<mgrwt>
<rscale>  1 0.94809858E+03</rscale>
<asrwt>0</asrwt>
<pdfrwt beam="1">  1       21 0.10245784E+00 0.11602298E+04</pdfrwt>
<pdfrwt beam="2">  1       -4 0.18143985E+00 0.11602298E+04</pdfrwt>
<totfact> 0.49408486E+00</totfact>
</mgrwt>
</event>
<event>
 6    2  0.2267664E-005  0.9900518E+03  0.7818608E-02  0.9891175E-01
         -4   -1    0    0    0  501 -0.00000000000E+00  0.00000000000E+00  0.20762794192E+03  0.20762794192E+03  0.00000000000E+00 0. -1.
         21   -1    0    0  501  502  0.00000000000E+00 -0.00000000000E+00 -0.15979575278E+04  0.15979575278E+04  0.00000000000E+00 0. -1.
   -9000010    2    1    2    0  502 -0.22473398405E+02 -0.13798594261E+03 -0.13172534405E+04  0.16478346910E+04  0.98013130157E+03 0.  0.
         13    1    3    3    0    0 -0.21288868615E+03  0.25369886927E+03 -0.11232582380E+04  0.11710652370E+04  0.10566000000E+00 0. -1.
         -4    1    3    3    0  502  0.19041528775E+03 -0.39168481187E+03 -0.19399520254E+03  0.47676945400E+03  0.00000000000E+00 0. -1.
        -13    1    1    2    0    0  0.22473398405E+02  0.13798594261E+03 -0.73076145321E+02  0.15775077867E+03  0.10566000000E+00 0.  1.
<mgrwt>
<rscale>  1 0.60690876E+03</rscale>
<asrwt>0</asrwt>
<pdfrwt beam="2">  1       21 0.24583960E+00 0.99005179E+03</pdfrwt>
<pdfrwt beam="1">  1       -4 0.31942762E-01 0.99005179E+03</pdfrwt>
<totfact> 0.22204413E+01</totfact>
</mgrwt>
</event>
<event>
 6    2  0.2267664E-005  0.9947942E+03  0.7818608E-02  0.1005585E+00
         21   -1    0    0  501  502  0.00000000000E+00  0.00000000000E+00  0.14949383149E+04  0.14949383149E+04  0.00000000000E+00 0. -1.
         -4   -1    0    0    0  501 -0.00000000000E+00 -0.00000000000E+00 -0.22838410830E+03  0.22838410830E+03  0.00000000000E+00 0. -1.
   -9000010    2    1    2    0  502  0.81769348228E+02  0.14362964209E+01  0.12982927700E+04  0.16355976443E+04  0.99142687487E+03 0.  0.
         13    1    3    3    0    0  0.32603139858E+03  0.29315102827E+03  0.11437971680E+04  0.12249514157E+04  0.10566000000E+00 0. -1.
         -4    1    3    3    0  502 -0.24426205035E+03 -0.29171473185E+03  0.15449560200E+03  0.41064622859E+03  0.00000000000E+00 0. -1.
        -13    1    1    2    0    0 -0.81769348228E+02 -0.14362964209E+01 -0.31738563404E+02  0.87724778871E+02  0.10566000000E+00 0.  1.
<mgrwt>
<rscale>  1 0.53267757E+03</rscale>
<asrwt>0</asrwt>
<pdfrwt beam="1">  1       21 0.22999050E+00 0.99479422E+03</pdfrwt>
<pdfrwt beam="2">  1       -4 0.35136018E-01 0.99479422E+03</pdfrwt>
<totfact> 0.23225587E+01</totfact>
</mgrwt>
</event>
<event>
 6    2  0.2267664E-005  0.1010191E+04  0.7818608E-02  0.9974882E-01
         21   -1    0    0  501  502  0.00000000000E+00  0.00000000000E+00  0.36886857642E+03  0.36886857642E+03  0.00000000000E+00 0. -1.
         -4   -1    0    0    0  501 -0.00000000000E+00 -0.00000000000E+00 -0.83837274712E+03  0.83837274712E+03  0.00000000000E+00 0. -1.
   -9000010    2    1    2    0  502  0.56915268883E+02 -0.83100338081E+02 -0.40975934179E+03  0.10901325290E+04  0.10051573004E+04 0.  0.
         13    1    3    3    0    0 -0.36154795787E+03  0.24045060020E+03 -0.35020507543E+03  0.55783243273E+03  0.10566000000E+00 0. -1.
         -4    1    3    3    0  502  0.41846322676E+03 -0.32355093828E+03 -0.59554266366E+02  0.53230009624E+03  0.00000000000E+00 0. -1.
        -13    1    1    2    0    0 -0.56915268883E+02  0.83100338081E+02 -0.59744828914E+02  0.11710879458E+03  0.10566000000E+00 0.  1.
<mgrwt>
<rscale>  1 0.56765481E+03</rscale>
<asrwt>0</asrwt>
<pdfrwt beam="1">  1       21 0.56749012E-01 0.10101912E+04</pdfrwt>
<pdfrwt beam="2">  1       -4 0.12898042E+00 0.10101912E+04</pdfrwt>
<totfact> 0.50550263E+01</totfact>
</mgrwt>
</event>
<event>
 6    2  0.2267664E-005  0.1019016E+04  0.7818608E-02  0.9854561E-01
         21   -1    0    0  501  502  0.00000000000E+00  0.00000000000E+00  0.71860248152E+03  0.71860248152E+03  0.00000000000E+00 0. -1.
         -4   -1    0    0    0  501 -0.00000000000E+00 -0.00000000000E+00 -0.56296046565E+03  0.56296046565E+03  0.00000000000E+00 0. -1.
   -9000010    2    1    2    0  502 -0.13712822020E+03  0.45058267895E+02  0.31496191112E+03  0.10665810027E+04  0.10087416089E+04 0.  0.
         13    1    3    3    0    0  0.94976094520E+02 -0.10260971918E+03  0.63173896332E+03  0.64702653883E+03  0.10566000000E+00 0. -1.
         -4    1    3    3    0  502 -0.23210431472E+03  0.14766798708E+03 -0.31677705220E+03  0.41955446383E+03  0.00000000000E+00 0. -1.
        -13    1    1    2    0    0  0.13712822020E+03 -0.45058267895E+02 -0.15931989525E+03  0.21498194451E+03  0.10566000000E+00 0.  1.
<mgrwt>
<rscale>  1 0.62514889E+03</rscale>
<asrwt>0</asrwt>
<pdfrwt beam="1">  1       21 0.11055423E+00 0.10190162E+04</pdfrwt>
<pdfrwt beam="2">  1       -4 0.86609303E-01 0.10190162E+04</pdfrwt>
<totfact> 0.27737586E+01</totfact>
</mgrwt>
</event>
<event>
 6    2  0.2267664E-005  0.1024922E+04  0.7818608E-02  0.9727413E-01
         21   -1    0    0  501  502  0.00000000000E+00  0.00000000000E+00  0.28220664273E+03  0.28220664273E+03  0.00000000000E+00 0. -1.
         -4   -1    0    0    0  501 -0.00000000000E+00 -0.00000000000E+00 -0.13933637832E+04  0.13933637832E+04  0.00000000000E+00 0. -1.
   -9000010    2    1    2    0  502  0.20357872426E+03  0.70854071749E+02 -0.81601703177E+03  0.13100949940E+04  0.10019982538E+04 0.  0.
         13    1    3    3    0    0  0.10033097937E+03  0.34166264924E+03  0.82899560708E+02  0.36561184286E+03  0.10566000000E+00 0. -1.
         -4    1    3    3    0  502  0.10324774489E+03 -0.27080857749E+03 -0.89891659248E+03  0.94448315110E+03  0.00000000000E+00 0. -1.
        -13    1    1    2    0    0 -0.20357872426E+03 -0.70854071749E+02 -0.29514010871E+03  0.36547543199E+03  0.10566000000E+00 0.  1.
<mgrwt>
<rscale>  1 0.69407818E+03</rscale>
<asrwt>0</asrwt>
<pdfrwt beam="1">  1       21 0.43416407E-01 0.10249220E+04</pdfrwt>
<pdfrwt beam="2">  1       -4 0.21436366E+00 0.10249220E+04</pdfrwt>
<totfact> 0.21505681E+01</totfact>
</mgrwt>
</event>
<event>
 6    2  0.2267664E-005  0.1011543E+04  0.7818608E-02  0.9902029E-01
         -4   -1    0    0    0  501 -0.00000000000E+00  0.00000000000E+00  0.58962252138E+03  0.58962252138E+03  0.00000000000E+00 0. -1.
         21   -1    0    0  501  502  0.00000000000E+00 -0.00000000000E+00 -0.78636748852E+03  0.78636748852E+03  0.00000000000E+00 0. -1.
   -9000010    2    1    2    0  502 -0.58016805566E+02 -0.11250180946E+03 -0.43897002342E+03  0.11026850595E+04  0.10035920745E+04 0.  0.
         13    1    3    3    0    0  0.39010849414E+03  0.20154537415E+03 -0.31829142991E+03  0.54232335424E+03  0.10566000000E+00 0. -1.
         -4    1    3    3    0  502 -0.44812529971E+03 -0.31404718361E+03 -0.12067859351E+03  0.56036170524E+03  0.00000000000E+00 0. -1.
        -13    1    1    2    0    0  0.58016805566E+02  0.11250180946E+03  0.24222505628E+03  0.27330495040E+03  0.10566000000E+00 0.  1.
<mgrwt>
<rscale>  1 0.60163073E+03</rscale>
<asrwt>0</asrwt>
<pdfrwt beam="2">  1       21 0.12097961E+00 0.10115432E+04</pdfrwt>
<pdfrwt beam="1">  1       -4 0.90711157E-01 0.10115432E+04</pdfrwt>
<totfact> 0.19763259E+01</totfact>
</mgrwt>
</event>
<event>
 6    2  0.2267664E-005  0.1073392E+04  0.7818608E-02  0.9511395E-01
         -4   -1    0    0    0  501 -0.00000000000E+00  0.00000000000E+00  0.40620165486E+03  0.40620165486E+03  0.00000000000E+00 0. -1.
         21   -1    0    0  501  502  0.00000000000E+00 -0.00000000000E+00 -0.15878442427E+04  0.15878442427E+04  0.00000000000E+00 0. -1.
   -9000010    2    1    2    0  502  0.83031486862E+02 -0.38321776177E+03 -0.11890354907E+04  0.16018664145E+04  0.99920995347E+03 0.  0.
         13    1    3    3    0    0 -0.14115068167E+03  0.13427141633E+03 -0.98194611961E+03  0.10010846723E+04  0.10566000000E+00 0. -1.
         -4    1    3    3    0  502  0.22418216853E+03 -0.51748917810E+03 -0.20708937105E+03  0.60078174218E+03  0.00000000000E+00 0. -1.
        -13    1    1    2    0    0 -0.83031486862E+02  0.38321776177E+03  0.73929028300E+01  0.39217948305E+03  0.10566000000E+00 0.  1.
<mgrwt>
<rscale>  1 0.83448920E+03</rscale>
<asrwt>0</asrwt>
<pdfrwt beam="2">  1       21 0.24428373E+00 0.10733921E+04</pdfrwt>
<pdfrwt beam="1">  1       -4 0.62492561E-01 0.10733921E+04</pdfrwt>
<totfact> 0.55663773E+00</totfact>
</mgrwt>
</event>
<event>
 6    2  0.2267664E-005  0.1018604E+04  0.7818608E-02  0.9776432E-01
         21   -1    0    0  501  502  0.00000000000E+00  0.00000000000E+00  0.63104899659E+03  0.63104899659E+03  0.00000000000E+00 0. -1.
         -4   -1    0    0    0  501 -0.00000000000E+00 -0.00000000000E+00 -0.67598989367E+03  0.67598989367E+03  0.00000000000E+00 0. -1.
   -9000010    2    1    2    0  502 -0.49657935913E+02 -0.17990909653E+03  0.15860607302E+03  0.10308784771E+04  0.10013597528E+04 0.  0.
         13    1    3    3    0    0  0.31206877374E+03 -0.35115589272E+03  0.35138012963E+03  0.58665610642E+03  0.10566000000E+00 0. -1.
         -4    1    3    3    0  502 -0.36172670965E+03  0.17124679618E+03 -0.19277405660E+03  0.44422237064E+03  0.00000000000E+00 0. -1.
        -13    1    1    2    0    0  0.49657935913E+02  0.17990909653E+03 -0.20354697010E+03  0.27616041320E+03  0.10566000000E+00 0.  1.
<mgrwt>
<rscale>  1 0.66642807E+03</rscale>
<asrwt>0</asrwt>
<pdfrwt beam="1">  1       21 0.97084462E-01 0.10186042E+04</pdfrwt>
<pdfrwt beam="2">  1       -4 0.10399844E+00 0.10186042E+04</pdfrwt>
<totfact> 0.24827481E+01</totfact>
</mgrwt>
</event>
<event>
 6    2  0.2267664E-005  0.1108259E+04  0.7818608E-02  0.9422696E-01
         21   -1    0    0  501  502  0.00000000000E+00  0.00000000000E+00  0.55998483004E+03  0.55998483004E+03  0.00000000000E+00 0.  1.
         -4   -1    0    0    0  501 -0.00000000000E+00 -0.00000000000E+00 -0.14237174281E+04  0.14237174281E+04  0.00000000000E+00 0. -1.
   -9000010    2    1    2    0  502  0.39763918530E+03 -0.28111155249E+03 -0.98404683573E+03  0.14820887081E+04  0.99553911890E+03 0.  0.
         13    1    3    3    0    0  0.67253031009E+03 -0.54823521097E+02 -0.36296902628E+03  0.76619133489E+03  0.10566000000E+00 0. -1.
         -4    1    3    3    0  502 -0.27489112479E+03 -0.22628803139E+03 -0.62107780944E+03  0.71589737325E+03  0.00000000000E+00 0. -1.
        -13    1    1    2    0    0 -0.39763918530E+03  0.28111155249E+03  0.12031423765E+03  0.50161355003E+03  0.10566000000E+00 0.  1.
<mgrwt>
<rscale>  1 0.90231225E+03</rscale>
<asrwt>0</asrwt>
<pdfrwt beam="1">  1       21 0.86151513E-01 0.11082593E+04</pdfrwt>
<pdfrwt beam="2">  1       -4 0.21903345E+00 0.11082593E+04</pdfrwt>
<totfact> 0.42706583E+00</totfact>
</mgrwt>
</event>
<event>
 6    2  0.2267664E-005  0.1017051E+04  0.7818608E-02  0.9724723E-01
         -4   -1    0    0    0  501 -0.00000000000E+00  0.00000000000E+00  0.22118232177E+04  0.22118232177E+04  0.00000000000E+00 0. -1.
         21   -1    0    0  501  502  0.00000000000E+00 -0.00000000000E+00 -0.18827492136E+03  0.18827492136E+03  0.00000000000E+00 0. -1.
   -9000010    2    1    2    0  502 -0.18394006341E+03  0.12534605257E+03  0.13467709727E+04  0.16876564666E+04  0.99239443583E+03 0.  0.
         13    1    3    3    0    0 -0.33735686221E+02  0.29828234579E+03 -0.20924416591E+02  0.30091244027E+03  0.10566000000E+00 0. -1.
         -4    1    3    3    0  502 -0.15020437719E+03 -0.17293629322E+03  0.13676953893E+04  0.13867440263E+04  0.00000000000E+00 0. -1.
        -13    1    1    2    0    0  0.18394006341E+03 -0.12534605257E+03  0.67677732358E+03  0.71244167248E+03  0.10566000000E+00 0.  1.
<mgrwt>
<rscale>  1 0.69563689E+03</rscale>
<asrwt>0</asrwt>
<pdfrwt beam="2">  1       21 0.28965374E-01 0.10170508E+04</pdfrwt>
<pdfrwt beam="1">  1       -4 0.34028048E+00 0.10170508E+04</pdfrwt>
<totfact> 0.81171495E+00</totfact>
</mgrwt>
</event>
<event>
 6    2  0.2267664E-005  0.1018355E+04  0.7818608E-02  0.1003191E+00
         -4   -1    0    0    0  501 -0.00000000000E+00  0.00000000000E+00  0.79049800021E+03  0.79049800021E+03  0.00000000000E+00 0. -1.
         21   -1    0    0  501  502  0.00000000000E+00 -0.00000000000E+00 -0.45802925524E+03  0.45802925524E+03  0.00000000000E+00 0. -1.
   -9000010    2    1    2    0  502  0.98070929158E+01 -0.81568414381E+02  0.44322362614E+03  0.11106278712E+04  0.10150357138E+04 0.  0.
         13    1    3    3    0    0 -0.65618369220E+02 -0.12775563450E+03 -0.31556034736E+03  0.34670681636E+03  0.10566000000E+00 0. -1.
         -4    1    3    3    0  502  0.75425462136E+02  0.46187220120E+02  0.75878397350E+03  0.76392105488E+03  0.00000000000E+00 0. -1.
        -13    1    1    2    0    0 -0.98070929158E+01  0.81568414381E+02 -0.11075488118E+03  0.13789938421E+03  0.10566000000E+00 0.  1.
<mgrwt>
<rscale>  1 0.54273048E+03</rscale>
<asrwt>0</asrwt>
<pdfrwt beam="2">  1       21 0.70466039E-01 0.10183551E+04</pdfrwt>
<pdfrwt beam="1">  1       -4 0.12161508E+00 0.10183551E+04</pdfrwt>
<totfact> 0.36047689E+01</totfact>
</mgrwt>
</event>
<event>
 6    2  0.2267664E-005  0.1058870E+04  0.7818608E-02  0.9562456E-01
         21   -1    0    0  501  502  0.00000000000E+00  0.00000000000E+00  0.54777854622E+03  0.54777854622E+03  0.00000000000E+00 0. -1.
         -4   -1    0    0    0  501 -0.00000000000E+00 -0.00000000000E+00 -0.14256638174E+04  0.14256638174E+04  0.00000000000E+00 0. -1.
   -9000010    2    1    2    0  502 -0.26439531105E+03  0.21711432865E+03 -0.30175320607E+02  0.10593003158E+04  0.10020793865E+04 0.  0.
         13    1    3    3    0    0  0.16330758879E+03  0.83086526884E+01 -0.41576005770E+03  0.44676038210E+03  0.10566000000E+00 0. -1.
         -4    1    3    3    0  502 -0.42770289983E+03  0.20880567596E+03  0.38558473710E+03  0.61253993365E+03  0.00000000000E+00 0. -1.
        -13    1    1    2    0    0  0.26439531105E+03 -0.21711432865E+03 -0.84770995053E+03  0.91414204782E+03  0.10566000000E+00 0.  1.
<mgrwt>
<rscale>  1 0.79831730E+03</rscale>
<asrwt>0</asrwt>
<pdfrwt beam="1">  1       21 0.84273624E-01 0.10588704E+04</pdfrwt>
<pdfrwt beam="2">  1       -4 0.21933289E+00 0.10588704E+04</pdfrwt>
<totfact> 0.45092493E+00</totfact>
</mgrwt>
</event>
<event>
 6    2  0.2267664E-005  0.1012363E+04  0.7818608E-02  0.9725230E-01
         -4   -1    0    0    0  501 -0.00000000000E+00  0.00000000000E+00  0.12664730146E+04  0.12664730146E+04  0.00000000000E+00 0. -1.
         21   -1    0    0  501  502  0.00000000000E+00 -0.00000000000E+00 -0.31498948480E+03  0.31498948480E+03  0.00000000000E+00 0. -1.
   -9000010    2    1    2    0  502  0.16753433677E+03 -0.15065895153E+03  0.64243368582E+03  0.11989998334E+04  0.98697197837E+03 0.  0.
         13    1    3    3    0    0  0.41733828471E+03  0.96923673045E+02  0.72093428134E+03  0.83863680545E+03  0.10566000000E+00 0. -1.
         -4    1    3    3    0  502 -0.24980394794E+03 -0.24758262457E+03 -0.78500595525E+02  0.36036302792E+03  0.00000000000E+00 0. -1.
        -13    1    1    2    0    0 -0.16753433677E+03  0.15065895153E+03  0.30904984395E+03  0.38246266599E+03  0.10566000000E+00 0.  1.
<mgrwt>
<rscale>  1 0.69534255E+03</rscale>
<asrwt>0</asrwt>
<pdfrwt beam="2">  1       21 0.48459922E-01 0.10123634E+04</pdfrwt>
<pdfrwt beam="1">  1       -4 0.19484200E+00 0.10123634E+04</pdfrwt>
<totfact> 0.22870178E+01</totfact>
</mgrwt>
</event>
<event>
 6    2  0.2267664E-005  0.1021790E+04  0.7818608E-02  0.1006990E+00
         -4   -1    0    0    0  501 -0.00000000000E+00  0.00000000000E+00  0.10642807228E+04  0.10642807228E+04  0.00000000000E+00 0. -1.
         21   -1    0    0  501  502  0.00000000000E+00 -0.00000000000E+00 -0.35611486792E+03  0.35611486792E+03  0.00000000000E+00 0. -1.
   -9000010    2    1    2    0  502  0.72167810352E+02  0.32610076001E+01  0.38928497766E+03  0.10934340455E+04  0.10192332368E+04 0.  0.
         13    1    3    3    0    0 -0.40489097047E+03 -0.23535175836E+03  0.74903778637E+02  0.47427601178E+03  0.10566000000E+00 0. -1.
         -4    1    3    3    0  502  0.47705878082E+03  0.23861276596E+03  0.31438119902E+03  0.61915803373E+03  0.00000000000E+00 0. -1.
        -13    1    1    2    0    0 -0.72167810352E+02 -0.32610076001E+01  0.31888087719E+03  0.32696154517E+03  0.10566000000E+00 0.  1.
<mgrwt>
<rscale>  1 0.52688766E+03</rscale>
<asrwt>0</asrwt>
<pdfrwt beam="2">  1       21 0.54786903E-01 0.10217902E+04</pdfrwt>
<pdfrwt beam="1">  1       -4 0.16373549E+00 0.10217902E+04</pdfrwt>
<totfact> 0.28904815E+01</totfact>
</mgrwt>
</event>
<event>
 6    2  0.2267664E-005  0.1014269E+04  0.7818608E-02  0.9760271E-01
         -4   -1    0    0    0  501 -0.00000000000E+00  0.00000000000E+00  0.91495950997E+03  0.91495950997E+03  0.00000000000E+00 0. -1.
         21   -1    0    0  501  502  0.00000000000E+00 -0.00000000000E+00 -0.41310831578E+03  0.41310831578E+03  0.00000000000E+00 0. -1.
   -9000010    2    1    2    0  502  0.57940348061E+02 -0.19081120689E+03  0.33531418639E+03  0.10682590754E+04  0.99447264822E+03 0.  0.
         13    1    3    3    0    0 -0.55864054894E+02  0.20256804817E+03  0.56213715642E+03  0.60012732029E+03  0.10566000000E+00 0. -1.
         -4    1    3    3    0  502  0.11380440295E+03 -0.39337925506E+03 -0.22682297003E+03  0.46813175515E+03  0.00000000000E+00 0. -1.
        -13    1    1    2    0    0 -0.57940348061E+02  0.19081120689E+03  0.16653700780E+03  0.25980875031E+03  0.10566000000E+00 0.  1.
<mgrwt>
<rscale>  1 0.67538888E+03</rscale>
<asrwt>0</asrwt>
<pdfrwt beam="2">  1       21 0.63555126E-01 0.10142691E+04</pdfrwt>
<pdfrwt beam="1">  1       -4 0.14076300E+00 0.10142691E+04</pdfrwt>
<totfact> 0.31283941E+01</totfact>
</mgrwt>
</event>
<event>
 6    2  0.2267664E-005  0.1021394E+04  0.7818608E-02  0.9783337E-01
         -4   -1    0    0    0  501 -0.00000000000E+00  0.00000000000E+00  0.11068125196E+04  0.11068125196E+04  0.00000000000E+00 0. -1.
         21   -1    0    0  501  502  0.00000000000E+00 -0.00000000000E+00 -0.46264594738E+03  0.46264594738E+03  0.00000000000E+00 0. -1.
   -9000010    2    1    2    0  502 -0.18070631433E+03  0.92676879561E+01  0.13645690985E+03  0.10304688803E+04  0.10052387592E+04 0.  0.
         13    1    3    3    0    0 -0.10669220412E+03  0.14115674803E+03 -0.41897974778E+03  0.45481039362E+03  0.10566000000E+00 0. -1.
         -4    1    3    3    0  502 -0.74014110213E+02 -0.13188906007E+03  0.55543665763E+03  0.57565848671E+03  0.00000000000E+00 0. -1.
        -13    1    1    2    0    0  0.18070631433E+03 -0.92676879561E+01  0.50770966234E+03  0.53898958661E+03  0.10566000000E+00 0.  1.
<mgrwt>
<rscale>  1 0.66264498E+03</rscale>
<asrwt>0</asrwt>
<pdfrwt beam="2">  1       21 0.71176300E-01 0.10213940E+04</pdfrwt>
<pdfrwt beam="1">  1       -4 0.17027885E+00 0.10213940E+04</pdfrwt>
<totfact> 0.14390699E+01</totfact>
</mgrwt>
</event>
<event>
 6    2  0.2267664E-005  0.1032377E+04  0.7818608E-02  0.9645916E-01
         -4   -1    0    0    0  501 -0.00000000000E+00  0.00000000000E+00  0.25015645949E+03  0.25015645949E+03  0.00000000000E+00 0. -1.
         21   -1    0    0  501  502  0.00000000000E+00 -0.00000000000E+00 -0.17944102218E+04  0.17944102218E+04  0.00000000000E+00 0. -1.
   -9000010    2    1    2    0  502 -0.24417498775E+03 -0.13169682343E+03 -0.13755710707E+04  0.17198832361E+04  0.99440288484E+03 0.  0.
         13    1    3    3    0    0 -0.47952948056E+02 -0.49086135183E+03 -0.32043400266E+03  0.58815160730E+03  0.10566000000E+00 0. -1.
         -4    1    3    3    0  502 -0.19622203970E+03  0.35916452840E+03 -0.10551370680E+04  0.11317316288E+04  0.00000000000E+00 0. -1.
        -13    1    1    2    0    0  0.24417498775E+03  0.13169682343E+03 -0.16868269161E+03  0.32468344516E+03  0.10566000000E+00 0.  1.
<mgrwt>
<rscale>  1 0.74330284E+03</rscale>
<asrwt>0</asrwt>
<pdfrwt beam="2">  1       21 0.27606311E+00 0.10323771E+04</pdfrwt>
<pdfrwt beam="1">  1       -4 0.38485610E-01 0.10323771E+04</pdfrwt>
<totfact> 0.98000012E+00</totfact>
</mgrwt>
</event>
<event>
 6    2  0.2267664E-005  0.1017155E+04  0.7818608E-02  0.1042948E+00
         -4   -1    0    0    0  501 -0.00000000000E+00  0.00000000000E+00  0.40250220869E+03  0.40250220869E+03  0.00000000000E+00 0. -1.
         21   -1    0    0  501  502  0.00000000000E+00 -0.00000000000E+00 -0.70849048025E+03  0.70849048025E+03  0.00000000000E+00 0. -1.
   -9000010    2    1    2    0  502  0.24886752108E+02  0.12534435201E+01 -0.33670837671E+03  0.10714369362E+04  0.10168498688E+04 0.  0.
         13    1    3    3    0    0 -0.23604724594E+02  0.33606309634E+03 -0.56886489982E+03  0.66113755993E+03  0.10566000000E+00 0. -1.
         -4    1    3    3    0  502  0.48491476702E+02 -0.33480965282E+03  0.23215652311E+03  0.41029937625E+03  0.00000000000E+00 0. -1.
        -13    1    1    2    0    0 -0.24886752108E+02 -0.12534435201E+01  0.30720105151E+02  0.39555752750E+02  0.10566000000E+00 0.  1.
<mgrwt>
<rscale>  1 0.40241204E+03</rscale>
<asrwt>0</asrwt>
<pdfrwt beam="2">  1       21 0.10899853E+00 0.10171551E+04</pdfrwt>
<pdfrwt beam="1">  1       -4 0.61923417E-01 0.10171551E+04</pdfrwt>
<totfact> 0.61388974E+01</totfact>
</mgrwt>
</event>
<event>
 6    2  0.2267664E-005  0.1011208E+04  0.7818608E-02  0.9817778E-01
         21   -1    0    0  501  502  0.00000000000E+00  0.00000000000E+00  0.75915697777E+03  0.75915697777E+03  0.00000000000E+00 0. -1.
         -4   -1    0    0    0  501 -0.00000000000E+00 -0.00000000000E+00 -0.83660447239E+03  0.83660447239E+03  0.00000000000E+00 0. -1.
   -9000010    2    1    2    0  502  0.81277582536E+00 -0.16652494253E+03  0.40202510853E+03  0.10881935183E+04  0.99740148805E+03 0.  0.
         13    1    3    3    0    0 -0.82991776592E+02  0.33524498850E+02  0.70772706913E+03  0.71336466309E+03  0.10566000000E+00 0. -1.
         -4    1    3    3    0  502  0.83804552417E+02 -0.20004944138E+03 -0.30570196060E+03  0.37482885524E+03  0.00000000000E+00 0. -1.
        -13    1    1    2    0    0 -0.81277582536E+00  0.16652494253E+03 -0.47947260315E+03  0.50756793183E+03  0.10566000000E+00 0.  1.
<mgrwt>
<rscale>  1 0.64417135E+03</rscale>
<asrwt>0</asrwt>
<pdfrwt beam="1">  1       21 0.11679338E+00 0.10112077E+04</pdfrwt>
<pdfrwt beam="2">  1       -4 0.12870838E+00 0.10112077E+04</pdfrwt>
<totfact> 0.91693078E+00</totfact>
</mgrwt>
</event>
<event>
 6    2  0.2267664E-005  0.1101063E+04  0.7818608E-02  0.9602809E-01
         21   -1    0    0  501  502  0.00000000000E+00  0.00000000000E+00  0.54923847184E+03  0.54923847184E+03  0.00000000000E+00 0. -1.
         -4   -1    0    0    0  501 -0.00000000000E+00 -0.00000000000E+00 -0.85139931612E+03  0.85139931612E+03  0.00000000000E+00 0. -1.
   -9000010    2    1    2    0  502 -0.24342555740E+03 -0.10438241147E+03 -0.21545228269E+03  0.11219442724E+04  0.10687317598E+04 0.  0.
         13    1    3    3    0    0 -0.32269278293E+03  0.44284801103E+03 -0.97236220204E+02  0.55650686134E+03  0.10566000000E+00 0. -1.
         -4    1    3    3    0  502  0.79267225528E+02 -0.54723042250E+03 -0.11821606248E+03  0.56543741102E+03  0.00000000000E+00 0. -1.
        -13    1    1    2    0    0  0.24342555740E+03  0.10438241147E+03 -0.86708561583E+02  0.27869351560E+03  0.10566000000E+00 0.  1.
<mgrwt>
<rscale>  1 0.77110557E+03</rscale>
<asrwt>0</asrwt>
<pdfrwt beam="1">  1       21 0.84498227E-01 0.11010628E+04</pdfrwt>
<pdfrwt beam="2">  1       -4 0.13098451E+00 0.11010628E+04</pdfrwt>
<totfact> 0.19362430E+01</totfact>
</mgrwt>
</event>
<event>
 6    2  0.2267664E-005  0.1014070E+04  0.7818608E-02  0.9769384E-01
         -4   -1    0    0    0  501 -0.00000000000E+00  0.00000000000E+00  0.14263790111E+04  0.14263790111E+04  0.00000000000E+00 0. -1.
         21   -1    0    0  501  502  0.00000000000E+00 -0.00000000000E+00 -0.27555761519E+03  0.27555761519E+03  0.00000000000E+00 0. -1.
   -9000010    2    1    2    0  502 -0.46007122894E+02  0.18806052146E+03  0.11111186581E+04  0.15043012710E+04  0.99541660953E+03 0.  0.
         13    1    3    3    0    0 -0.40958873895E+03 -0.18217663970E+03  0.74416135100E+03  0.86875047661E+03  0.10566000000E+00 0. -1.
         -4    1    3    3    0  502  0.36358161605E+03  0.37023716116E+03  0.36695730710E+03  0.63555079441E+03  0.00000000000E+00 0. -1.
        -13    1    1    2    0    0  0.46007122894E+02 -0.18806052146E+03  0.39702737765E+02  0.19763535523E+03  0.10566000000E+00 0.  1.
<mgrwt>
<rscale>  1 0.67031797E+03</rscale>
<asrwt>0</asrwt>
<pdfrwt beam="2">  1       21 0.42393480E-01 0.10140698E+04</pdfrwt>
<pdfrwt beam="1">  1       -4 0.21944292E+00 0.10140698E+04</pdfrwt>
<totfact> 0.21006357E+01</totfact>
</mgrwt>
</event>
<event>
 6    2  0.2267664E-005  0.1027507E+04  0.7818608E-02  0.9747920E-01
         -4   -1    0    0    0  501 -0.00000000000E+00  0.00000000000E+00  0.24842169730E+03  0.24842169730E+03  0.00000000000E+00 0. -1.
         21   -1    0    0  501  502  0.00000000000E+00 -0.00000000000E+00 -0.26982021158E+04  0.26982021158E+04  0.00000000000E+00 0. -1.
   -9000010    2    1    2    0  502 -0.16532625333E+03  0.11223612230E+03 -0.25304678450E+04  0.27311239543E+04  0.10078892907E+04 0.  0.
         13    1    3    3    0    0 -0.24826482729E+03 -0.41701819355E+03 -0.10507666704E+04  0.11574325920E+04  0.10566000000E+00 0. -1.
         -4    1    3    3    0  502  0.82938573962E+02  0.52925431584E+03 -0.14797011746E+04  0.15736913623E+04  0.00000000000E+00 0. -1.
        -13    1    1    2    0    0  0.16532625333E+03 -0.11223612230E+03  0.80687426450E+02  0.21549985879E+03  0.10566000000E+00 0.  1.
<mgrwt>
<rscale>  1 0.68233967E+03</rscale>
<asrwt>0</asrwt>
<pdfrwt beam="2">  1       21 0.41510802E+00 0.10275070E+04</pdfrwt>
<pdfrwt beam="1">  1       -4 0.38218723E-01 0.10275070E+04</pdfrwt>
<totfact> 0.13004405E+00</totfact>
</mgrwt>
</event>
<event>
 6    2  0.2267664E-005  0.1160757E+04  0.7818608E-02  0.9329738E-01
         -4   -1    0    0    0  501 -0.00000000000E+00  0.00000000000E+00  0.10939923164E+04  0.10939923164E+04  0.00000000000E+00 0. -1.
         21   -1    0    0  501  502  0.00000000000E+00 -0.00000000000E+00 -0.86340776665E+03  0.86340776665E+03  0.00000000000E+00 0.  1.
   -9000010    2    1    2    0  502 -0.39720377848E+03  0.43890134678E+03 -0.25890664863E+03  0.11892810309E+04  0.99847457847E+03 0.  0.
         13    1    3    3    0    0 -0.57059749082E+03  0.66416461347E+03 -0.17547740630E+03  0.89302209469E+03  0.10566000000E+00 0. -1.
         -4    1    3    3    0  502  0.17339371234E+03 -0.22526326669E+03 -0.83429242324E+02  0.29625893619E+03  0.00000000000E+00 0. -1.
        -13    1    1    2    0    0  0.39720377848E+03 -0.43890134678E+03  0.48949119834E+03  0.76811905214E+03  0.10566000000E+00 0.  1.
<mgrwt>
<rscale>  1 0.98090579E+03</rscale>
<asrwt>0</asrwt>
<pdfrwt beam="2">  1       21 0.13283196E+00 0.11607570E+04</pdfrwt>
<pdfrwt beam="1">  1       -4 0.16830651E+00 0.11607570E+04</pdfrwt>
<totfact> 0.31294775E+00</totfact>
</mgrwt>
</event>
<event>
 6    2  0.2267664E-005  0.1002938E+04  0.7818608E-02  0.1012023E+00
         21   -1    0    0  501  502  0.00000000000E+00  0.00000000000E+00  0.41809236036E+03  0.41809236036E+03  0.00000000000E+00 0. -1.
         -4   -1    0    0    0  501 -0.00000000000E+00 -0.00000000000E+00 -0.68480032971E+03  0.68480032971E+03  0.00000000000E+00 0. -1.
   -9000010    2    1    2    0  502  0.22284503039E+01 -0.65345401939E+02 -0.23441101648E+03  0.10299674415E+04  0.10008043857E+04 0.  0.
         13    1    3    3    0    0 -0.40349398536E+03 -0.28255122126E+03 -0.28151702255E+03  0.56735741293E+03  0.10566000000E+00 0. -1.
         -4    1    3    3    0  502  0.40572243567E+03  0.21720581932E+03  0.47106006064E+02  0.46261002860E+03  0.00000000000E+00 0. -1.
        -13    1    1    2    0    0 -0.22284503039E+01  0.65345401939E+02 -0.32296952873E+02  0.72925248538E+02  0.10566000000E+00 0.  1.
<mgrwt>
<rscale>  1 0.50678357E+03</rscale>
<asrwt>0</asrwt>
<pdfrwt beam="1">  1       21 0.64321903E-01 0.10029379E+04</pdfrwt>
<pdfrwt beam="2">  1       -4 0.10535390E+00 0.10029379E+04</pdfrwt>
<totfact> 0.63396740E+01</totfact>
</mgrwt>
</event>
<event>
 6    2  0.2267664E-005  0.1070447E+04  0.7818608E-02  0.9487469E-01
         21   -1    0    0  501  502  0.00000000000E+00  0.00000000000E+00  0.43969263657E+03  0.43969263657E+03  0.00000000000E+00 0. -1.
         -4   -1    0    0    0  501 -0.00000000000E+00 -0.00000000000E+00 -0.15633554067E+04  0.15633554067E+04  0.00000000000E+00 0. -1.
   -9000010    2    1    2    0  502 -0.15582125463E+03 -0.40064623812E+03 -0.36483077006E+03  0.11309106189E+04  0.98033650631E+03 0.  0.
         13    1    3    3    0    0 -0.56822090443E+03 -0.15126366738E+03 -0.18331479585E+03  0.61592208829E+03  0.10566000000E+00 0. -1.
         -4    1    3    3    0  502  0.41239964980E+03 -0.24938257074E+03 -0.18151597421E+03  0.51498853059E+03  0.00000000000E+00 0. -1.
        -13    1    1    2    0    0  0.15582125463E+03  0.40064623812E+03 -0.75883200003E+03  0.87213742434E+03  0.10566000000E+00 0.  1.
<mgrwt>
<rscale>  1 0.85214014E+03</rscale>
<asrwt>0</asrwt>
<pdfrwt beam="1">  1       21 0.67645021E-01 0.10704473E+04</pdfrwt>
<pdfrwt beam="2">  1       -4 0.24051622E+00 0.10704473E+04</pdfrwt>
<totfact> 0.55222035E+00</totfact>
</mgrwt>
</event>
<event>
 6    2  0.2267664E-005  0.9959093E+03  0.7818608E-02  0.9590716E-01
         21   -1    0    0  501  502  0.00000000000E+00  0.00000000000E+00  0.64689827480E+03  0.64689827480E+03  0.00000000000E+00 0. -1.
         -4   -1    0    0    0  501 -0.00000000000E+00 -0.00000000000E+00 -0.84414291209E+03  0.84414291209E+03  0.00000000000E+00 0. -1.
   -9000010    2    1    2    0  502 -0.56895967413E+02  0.36871049565E+03  0.11765354938E+03  0.10028348167E+04  0.92339088759E+03 0.  0.
         13    1    3    3    0    0 -0.41930995544E+03  0.44763832089E+03 -0.11838256001E+01  0.61335333836E+03  0.10566000000E+00 0. -1.
         -4    1    3    3    0  502  0.36241398803E+03 -0.78927825242E+02  0.11883737498E+03  0.38948147839E+03  0.00000000000E+00 0. -1.
        -13    1    1    2    0    0  0.56895967413E+02 -0.36871049565E+03 -0.31489818668E+03  0.48820637014E+03  0.10566000000E+00 0.  1.
<mgrwt>
<rscale>  1 0.77913683E+03</rscale>
<asrwt>0</asrwt>
<pdfrwt beam="1">  1       21 0.99522812E-01 0.99590929E+03</pdfrwt>
<pdfrwt beam="2">  1       -4 0.12986814E+00 0.99590929E+03</pdfrwt>
<totfact> 0.13442314E+01</totfact>
</mgrwt>
</event>
<event>
 6    2  0.2267664E-005  0.1060276E+04  0.7818608E-02  0.9659376E-01
         -4   -1    0    0    0  501 -0.00000000000E+00  0.00000000000E+00  0.11049925034E+04  0.11049925034E+04  0.00000000000E+00 0. -1.
         21   -1    0    0  501  502  0.00000000000E+00 -0.00000000000E+00 -0.39306502248E+03  0.39306502248E+03  0.00000000000E+00 0. -1.
   -9000010    2    1    2    0  502 -0.43065939249E+02 -0.24086511140E+03  0.49121884418E+03  0.11685381934E+04  0.10316563766E+04 0.  0.
         13    1    3    3    0    0  0.27393287913E+03 -0.44852612073E+03  0.57649255336E+03  0.78010164626E+03  0.10566000000E+00 0. -1.
         -4    1    3    3    0  502 -0.31699881838E+03  0.20766100933E+03 -0.85273709184E+02  0.38843654711E+03  0.00000000000E+00 0. -1.
        -13    1    1    2    0    0  0.43065939249E+02  0.24086511140E+03  0.22070863678E+03  0.32951933256E+03  0.10566000000E+00 0.  1.
<mgrwt>
<rscale>  1 0.73487933E+03</rscale>
<asrwt>0</asrwt>
<pdfrwt beam="2">  1       21 0.60471542E-01 0.10602762E+04</pdfrwt>
<pdfrwt beam="1">  1       -4 0.16999885E+00 0.10602762E+04</pdfrwt>
<totfact> 0.20838904E+01</totfact>
</mgrwt>
</event>
<event>
 6    2  0.2267664E-005  0.1006217E+04  0.7818608E-02  0.9821761E-01
         21   -1    0    0  501  502  0.00000000000E+00  0.00000000000E+00  0.80989135759E+03  0.80989135759E+03  0.00000000000E+00 0. -1.
         -4   -1    0    0    0  501 -0.00000000000E+00 -0.00000000000E+00 -0.49536496157E+03  0.49536496157E+03  0.00000000000E+00 0. -1.
   -9000010    2    1    2    0  502 -0.46155858598E+02 -0.16031785651E+03  0.43829205803E+03  0.10975302287E+04  0.99229053024E+03 0.  0.
         13    1    3    3    0    0  0.36670595070E+03 -0.13252645545E+03 -0.11508724520E+03  0.40654839914E+03  0.10566000000E+00 0. -1.
         -4    1    3    3    0  502 -0.41286180930E+03 -0.27791401061E+02  0.55337930323E+03  0.69098182957E+03  0.00000000000E+00 0. -1.
        -13    1    1    2    0    0  0.46155858598E+02  0.16031785651E+03 -0.12376566201E+03  0.20772609045E+03  0.10566000000E+00 0.  1.
<mgrwt>
<rscale>  1 0.64207707E+03</rscale>
<asrwt>0</asrwt>
<pdfrwt beam="1">  1       21 0.12459867E+00 0.10062170E+04</pdfrwt>
<pdfrwt beam="2">  1       -4 0.76209994E-01 0.10062170E+04</pdfrwt>
<totfact> 0.27398685E+01</totfact>
</mgrwt>
</event>
<event>
 6    2  0.2267664E-005  0.1013756E+04  0.7818608E-02  0.9683304E-01
         21   -1    0    0  501  502  0.00000000000E+00  0.00000000000E+00  0.24492897236E+03  0.24492897236E+03  0.00000000000E+00 0. -1.
         -4   -1    0    0    0  501 -0.00000000000E+00 -0.00000000000E+00 -0.17938421800E+04  0.17938421800E+04  0.00000000000E+00 0. -1.
   -9000010    2    1    2    0  502 -0.24398687490E+03 -0.84570013820E+02 -0.96194487166E+03  0.13975118281E+04  0.98031611798E+03 0.  0.
         13    1    3    3    0    0  0.28502565560E+03 -0.32514515396E+03 -0.39592873395E+03  0.58627516494E+03  0.10566000000E+00 0. -1.
         -4    1    3    3    0  502 -0.52901253050E+03  0.24057514014E+03 -0.56601613771E+03  0.81123666314E+03  0.00000000000E+00 0. -1.
        -13    1    1    2    0    0  0.24398687490E+03  0.84570013820E+02 -0.58696833594E+03  0.64125932423E+03  0.10566000000E+00 0.  1.
<mgrwt>
<rscale>  1 0.72019637E+03</rscale>
<asrwt>0</asrwt>
<pdfrwt beam="1">  1       21 0.37681381E-01 0.10137561E+04</pdfrwt>
<pdfrwt beam="2">  1       -4 0.27597572E+00 0.10137561E+04</pdfrwt>
<totfact> 0.11958003E+01</totfact>
</mgrwt>
</event>
<event>
 6    2  0.2267664E-005  0.1044999E+04  0.7818608E-02  0.9765590E-01
         21   -1    0    0  501  502  0.00000000000E+00  0.00000000000E+00  0.29352078567E+03  0.29352078567E+03  0.00000000000E+00 0. -1.
         -4   -1    0    0    0  501 -0.00000000000E+00 -0.00000000000E+00 -0.13196275143E+04  0.13196275143E+04  0.00000000000E+00 0. -1.
   -9000010    2    1    2    0  502  0.54498840815E+02 -0.17066159420E+03 -0.96896933191E+03  0.14251052287E+04  0.10295279711E+04 0.  0.
         13    1    3    3    0    0  0.37986436867E+01 -0.76846449851E+02  0.21912211916E+03  0.23223763867E+03  0.10566000000E+00 0. -1.
         -4    1    3    3    0  502  0.50700197129E+02 -0.93815144345E+02 -0.11880914511E+04  0.11928675900E+04  0.00000000000E+00 0. -1.
        -13    1    1    2    0    0 -0.54498840815E+02  0.17066159420E+03 -0.57137396752E+02  0.18804307128E+03  0.10566000000E+00 0.  1.
<mgrwt>
<rscale>  1 0.67242301E+03</rscale>
<asrwt>0</asrwt>
<pdfrwt beam="1">  1       21 0.45157044E-01 0.10449992E+04</pdfrwt>
<pdfrwt beam="2">  1       -4 0.20301962E+00 0.10449992E+04</pdfrwt>
<totfact> 0.23401374E+01</totfact>
</mgrwt>
</event>
<event>
 6    2  0.2267664E-005  0.1246099E+04  0.7818608E-02  0.9217195E-01
         21   -1    0    0  501  502  0.00000000000E+00  0.00000000000E+00  0.21412638187E+04  0.21412638187E+04  0.00000000000E+00 0. -1.
         -4   -1    0    0    0  501 -0.00000000000E+00 -0.00000000000E+00 -0.47477952543E+03  0.47477952543E+03  0.00000000000E+00 0. -1.
   -9000010    2    1    2    0  502  0.17687580047E+03 -0.70163627641E+03  0.13149321229E+04  0.18115761585E+04  0.10144866569E+04 0.  0.
         13    1    3    3    0    0 -0.57506683028E+02 -0.83163552511E+03  0.12984933633E+04  0.15430520701E+04  0.10566000000E+00 0. -1.
         -4    1    3    3    0  502  0.23438248350E+03  0.12999924870E+03  0.16438759551E+02  0.26852408839E+03  0.00000000000E+00 0. -1.
        -13    1    1    2    0    0 -0.17687580047E+03  0.70163627641E+03  0.35155217042E+03  0.80446718569E+03  0.10566000000E+00 0.  1.
<mgrwt>
<rscale>  1 0.10877699E+04</rscale>
<asrwt>0</asrwt>
<pdfrwt beam="1">  1       21 0.32942520E+00 0.12460986E+04</pdfrwt>
<pdfrwt beam="2">  1       -4 0.73043005E-01 0.12460986E+04</pdfrwt>
<totfact> 0.11143729E+00</totfact>
</mgrwt>
</event>
<event>
 6    2  0.2267664E-005  0.9939889E+03  0.7818608E-02  0.9862082E-01
         21   -1    0    0  501  502  0.00000000000E+00  0.00000000000E+00  0.21924796549E+04  0.21924796549E+04  0.00000000000E+00 0. -1.
         -4   -1    0    0    0  501 -0.00000000000E+00 -0.00000000000E+00 -0.18921772803E+03  0.18921772803E+03  0.00000000000E+00 0. -1.
   -9000010    2    1    2    0  502  0.13543836021E+03 -0.68492259598E+02  0.19959372103E+04  0.22297487019E+04  0.98233354157E+03 0.  0.
         13    1    3    3    0    0  0.34135450315E+03 -0.29466450218E+03  0.18238983048E+04  0.18788174746E+04  0.10566000000E+00 0. -1.
         -4    1    3    3    0  502 -0.20591614293E+03  0.22617224259E+03  0.17203890559E+03  0.35093122727E+03  0.00000000000E+00 0. -1.
        -13    1    1    2    0    0 -0.13543836021E+03  0.68492259598E+02  0.73247165521E+01  0.15194868107E+03  0.10566000000E+00 0.  1.
<mgrwt>
<rscale>  1 0.62134683E+03</rscale>
<asrwt>0</asrwt>
<pdfrwt beam="1">  1       21 0.33730454E+00 0.99398890E+03</pdfrwt>
<pdfrwt beam="2">  1       -4 0.29110421E-01 0.99398890E+03</pdfrwt>
<totfact> 0.71338116E+00</totfact>
</mgrwt>
</event>
<event>
 6    2  0.2267664E-005  0.1006558E+04  0.7818608E-02  0.1016160E+00
         -4   -1    0    0    0  501 -0.00000000000E+00  0.00000000000E+00  0.76854632570E+03  0.76854632570E+03  0.00000000000E+00 0. -1.
         21   -1    0    0  501  502  0.00000000000E+00 -0.00000000000E+00 -0.37143647693E+03  0.37143647693E+03  0.00000000000E+00 0. -1.
   -9000010    2    1    2    0  502 -0.56973625589E+02  0.99491323339E+00  0.34880558684E+03  0.10652814188E+04  0.10049438690E+04 0.  0.
         13    1    3    3    0    0 -0.29612833298E+03  0.41557411481E+03  0.80516198307E+02  0.51660110709E+03  0.10566000000E+00 0. -1.
         -4    1    3    3    0  502  0.23915470739E+03 -0.41457920157E+03  0.26828938853E+03  0.54868031169E+03  0.00000000000E+00 0. -1.
        -13    1    1    2    0    0  0.56973625589E+02 -0.99491323339E+00  0.48304261929E+02  0.74701383853E+02  0.10566000000E+00 0.  1.
<mgrwt>
<rscale>  1 0.49098060E+03</rscale>
<asrwt>0</asrwt>
<pdfrwt beam="2">  1       21 0.57144073E-01 0.10065581E+04</pdfrwt>
<pdfrwt beam="1">  1       -4 0.11823790E+00 0.10065581E+04</pdfrwt>
<totfact> 0.62101653E+01</totfact>
</mgrwt>
</event>
<event>
 6    2  0.2267664E-005  0.1152110E+04  0.7818608E-02  0.9340693E-01
         21   -1    0    0  501  502  0.00000000000E+00  0.00000000000E+00  0.90901001894E+03  0.90901001894E+03  0.00000000000E+00 0. -1.
         -4   -1    0    0    0  501 -0.00000000000E+00 -0.00000000000E+00 -0.11178565877E+04  0.11178565877E+04  0.00000000000E+00 0. -1.
   -9000010    2    1    2    0  502 -0.79112674886E+01  0.58175055220E+03  0.36612741764E+03  0.12088865400E+04  0.99441494739E+03 0.  0.
         13    1    3    3    0    0  0.26746683110E+03  0.70673548396E+03  0.46910189888E+03  0.88942124594E+03  0.10566000000E+00 0. -1.
         -4    1    3    3    0  502 -0.27537809859E+03 -0.12498493176E+03 -0.10297448123E+03  0.31946529410E+03  0.00000000000E+00 0. -1.
        -13    1    1    2    0    0  0.79112674886E+01 -0.58175055220E+03 -0.57497398636E+03  0.81798006656E+03  0.10566000000E+00 0.  1.
<mgrwt>
<rscale>  1 0.97121346E+03</rscale>
<asrwt>0</asrwt>
<pdfrwt beam="1">  1       21 0.13984770E+00 0.11521100E+04</pdfrwt>
<pdfrwt beam="2">  1       -4 0.17197794E+00 0.11521100E+04</pdfrwt>
<totfact> 0.25642326E+00</totfact>
</mgrwt>
</event>
<event>
 6    2  0.2267664E-005  0.9997087E+03  0.7818608E-02  0.9954950E-01
         -4   -1    0    0    0  501 -0.00000000000E+00  0.00000000000E+00  0.33676390759E+03  0.33676390759E+03  0.00000000000E+00 0. -1.
         21   -1    0    0  501  502  0.00000000000E+00 -0.00000000000E+00 -0.10874708784E+04  0.10874708784E+04  0.00000000000E+00 0. -1.
   -9000010    2    1    2    0  502 -0.10721486139E+03 -0.27606245105E+02 -0.82054709267E+03  0.12933348812E+04  0.99355948611E+03 0.  0.
         13    1    3    3    0    0  0.36851958714E+03  0.16322280657E+03 -0.11108379005E+03  0.41807653637E+03  0.10566000000E+00 0. -1.
         -4    1    3    3    0  502 -0.47573444853E+03 -0.19082905168E+03 -0.70946330262E+03  0.87525834486E+03  0.00000000000E+00 0. -1.
        -13    1    1    2    0    0  0.10721486139E+03  0.27606245105E+02  0.69840121886E+02  0.13089990474E+03  0.10566000000E+00 0.  1.
<mgrwt>
<rscale>  1 0.57670508E+03</rscale>
<asrwt>0</asrwt>
<pdfrwt beam="2">  1       21 0.16730322E+00 0.99970875E+03</pdfrwt>
<pdfrwt beam="1">  1       -4 0.51809831E-01 0.99970875E+03</pdfrwt>
<totfact> 0.28410433E+01</totfact>
</mgrwt>
</event>
<event>
 6    2  0.2267664E-005  0.1020918E+04  0.7818608E-02  0.9843469E-01
         -4   -1    0    0    0  501 -0.00000000000E+00  0.00000000000E+00  0.57003741033E+03  0.57003741033E+03  0.00000000000E+00 0. -1.
         21   -1    0    0  501  502  0.00000000000E+00 -0.00000000000E+00 -0.78881403301E+03  0.78881403301E+03  0.00000000000E+00 0. -1.
   -9000010    2    1    2    0  502  0.50553073577E+02  0.13995647867E+03 -0.42390959488E+03  0.11054289175E+04  0.10100150087E+04 0.  0.
         13    1    3    3    0    0 -0.17916974935E+03  0.46820056135E+03  0.27252126652E+02  0.50205204342E+03  0.10566000000E+00 0. -1.
         -4    1    3    3    0  502  0.22972282292E+03 -0.32824408268E+03 -0.45116172153E+03  0.60337687407E+03  0.00000000000E+00 0. -1.
        -13    1    1    2    0    0 -0.50553073577E+02 -0.13995647867E+03  0.20513297220E+03  0.25342252586E+03  0.10566000000E+00 0.  1.
<mgrwt>
<rscale>  1 0.63081035E+03</rscale>
<asrwt>0</asrwt>
<pdfrwt beam="2">  1       21 0.12135601E+00 0.10209181E+04</pdfrwt>
<pdfrwt beam="1">  1       -4 0.87698063E-01 0.10209181E+04</pdfrwt>
<totfact> 0.21202201E+01</totfact>
</mgrwt>
</event>
<event>
 6    2  0.2267664E-005  0.1002726E+04  0.7818608E-02  0.9953867E-01
         21   -1    0    0  501  502  0.00000000000E+00  0.00000000000E+00  0.61806756908E+03  0.61806756908E+03  0.00000000000E+00 0. -1.
         -4   -1    0    0    0  501 -0.00000000000E+00 -0.00000000000E+00 -0.64221239430E+03  0.64221239430E+03  0.00000000000E+00 0. -1.
   -9000010    2    1    2    0  502 -0.14702393576E+02 -0.10910805645E+03  0.18899896974E+03  0.10203820333E+04  0.99666351142E+03 0.  0.
         13    1    3    3    0    0 -0.45940825873E+03 -0.25133420625E+03  0.17888862613E+03  0.55337689069E+03  0.10566000000E+00 0. -1.
         -4    1    3    3    0  502  0.44470586516E+03  0.14222614980E+03  0.10110343608E+02  0.46700514263E+03  0.00000000000E+00 0. -1.
        -13    1    1    2    0    0  0.14702393576E+02  0.10910805645E+03 -0.21314379496E+03  0.23989793007E+03  0.10566000000E+00 0.  1.
<mgrwt>
<rscale>  1 0.57720191E+03</rscale>
<asrwt>0</asrwt>
<pdfrwt beam="1">  1       21 0.95087318E-01 0.10027257E+04</pdfrwt>
<pdfrwt beam="2">  1       -4 0.98801907E-01 0.10027257E+04</pdfrwt>
<totfact> 0.29623705E+01</totfact>
</mgrwt>
</event>
<event>
 6    2  0.2267664E-005  0.1025398E+04  0.7818608E-02  0.9831384E-01
         21   -1    0    0  501  502  0.00000000000E+00  0.00000000000E+00  0.90817223754E+03  0.90817223754E+03  0.00000000000E+00 0. -1.
         -4   -1    0    0    0  501 -0.00000000000E+00 -0.00000000000E+00 -0.39317027491E+03  0.39317027491E+03  0.00000000000E+00 0. -1.
   -9000010    2    1    2    0  502 -0.14113782308E+03  0.58455048605E+02  0.36827096465E+03  0.10895244897E+04  0.10139542556E+04 0.  0.
         13    1    3    3    0    0  0.26981044465E+03  0.25119800760E+03  0.49599984651E+03  0.61799188827E+03  0.10566000000E+00 0. -1.
         -4    1    3    3    0  502 -0.41094826773E+03 -0.19274295899E+03 -0.12772888186E+03  0.47153260147E+03  0.00000000000E+00 0. -1.
        -13    1    1    2    0    0  0.14113782308E+03 -0.58455048605E+02  0.14673099798E+03  0.21181802271E+03  0.10566000000E+00 0.  1.
<mgrwt>
<rscale>  1 0.63705162E+03</rscale>
<asrwt>0</asrwt>
<pdfrwt beam="1">  1       21 0.13971881E+00 0.10253975E+04</pdfrwt>
<pdfrwt beam="2">  1       -4 0.60487735E-01 0.10253975E+04</pdfrwt>
<totfact> 0.33702146E+01</totfact>
</mgrwt>
</event>
<event>
 6    2  0.2267664E-005  0.1026110E+04  0.7818608E-02  0.9657000E-01
         -4   -1    0    0    0  501 -0.00000000000E+00  0.00000000000E+00  0.59774878375E+03  0.59774878375E+03  0.00000000000E+00 0. -1.
         21   -1    0    0  501  502  0.00000000000E+00 -0.00000000000E+00 -0.85036644158E+03  0.85036644158E+03  0.00000000000E+00 0. -1.
   -9000010    2    1    2    0  502  0.23871018279E+03 -0.13065583076E+03 -0.44129277428E+03  0.11169780812E+04  0.98936708244E+03 0.  0.
         13    1    3    3    0    0  0.29131364057E+03 -0.50151281084E+03 -0.46249576984E+03  0.74180933190E+03  0.10566000000E+00 0. -1.
         -4    1    3    3    0  502 -0.52603457775E+02  0.37085698008E+03  0.21202995559E+02  0.37516874932E+03  0.00000000000E+00 0. -1.
        -13    1    1    2    0    0 -0.23871018279E+03  0.13065583076E+03  0.18867511645E+03  0.33113714411E+03  0.10566000000E+00 0.  1.
<mgrwt>
<rscale>  1 0.73635712E+03</rscale>
<asrwt>0</asrwt>
<pdfrwt beam="2">  1       21 0.13082561E+00 0.10261095E+04</pdfrwt>
<pdfrwt beam="1">  1       -4 0.91961352E-01 0.10261095E+04</pdfrwt>
<totfact> 0.15545323E+01</totfact>
</mgrwt>
</event>
<event>
 6    2  0.2267664E-005  0.9962494E+03  0.7818608E-02  0.1024233E+00
         21   -1    0    0  501  502  0.00000000000E+00  0.00000000000E+00  0.89631023776E+03  0.89631023776E+03  0.00000000000E+00 0. -1.
         -4   -1    0    0    0  501 -0.00000000000E+00 -0.00000000000E+00 -0.32068456568E+03  0.32068456568E+03  0.00000000000E+00 0. -1.
   -9000010    2    1    2    0  502 -0.99031968473E+00  0.46022787806E+02  0.60193310314E+03  0.11639743374E+04  0.99518526900E+03 0.  0.
         13    1    3    3    0    0 -0.39600292254E+02  0.46666951803E+03  0.53014966578E+02  0.47133769215E+03  0.10566000000E+00 0. -1.
         -4    1    3    3    0  502  0.38609972569E+02 -0.42064673022E+03  0.54891813657E+03  0.69263664520E+03  0.00000000000E+00 0. -1.
        -13    1    1    2    0    0  0.99031968473E+00 -0.46022787806E+02 -0.26307431064E+02  0.53020466084E+02  0.10566000000E+00 0.  1.
<mgrwt>
<rscale>  1 0.46189652E+03</rscale>
<asrwt>0</asrwt>
<pdfrwt beam="1">  1       21 0.13789388E+00 0.99624937E+03</pdfrwt>
<pdfrwt beam="2">  1       -4 0.49336088E-01 0.99624937E+03</pdfrwt>
<totfact> 0.54208769E+01</totfact>
</mgrwt>
</event>
<event>
 6    2  0.2267664E-005  0.1050939E+04  0.7818608E-02  0.9591708E-01
         21   -1    0    0  501  502  0.00000000000E+00  0.00000000000E+00  0.91886979414E+03  0.91886979414E+03  0.00000000000E+00 0. -1.
         -4   -1    0    0    0  501 -0.00000000000E+00 -0.00000000000E+00 -0.52733441036E+03  0.52733441036E+03  0.00000000000E+00 0. -1.
   -9000010    2    1    2    0  502  0.30407855717E+03 -0.87458642717E+02  0.18167205304E+03  0.10665261674E+04  0.10021779022E+04 0.  0.
         13    1    3    3    0    0  0.23848613921E+03  0.36527729256E+03 -0.19125126731E+03  0.47631942798E+03  0.10566000000E+00 0. -1.
         -4    1    3    3    0  502  0.65592417955E+02 -0.45273593528E+03  0.37292332035E+03  0.59020673941E+03  0.00000000000E+00 0. -1.
        -13    1    1    2    0    0 -0.30407855717E+03  0.87458642717E+02  0.20986333073E+03  0.37967803711E+03  0.10566000000E+00 0.  1.
<mgrwt>
<rscale>  1 0.77847463E+03</rscale>
<asrwt>0</asrwt>
<pdfrwt beam="1">  1       21 0.14136458E+00 0.10509393E+04</pdfrwt>
<pdfrwt beam="2">  1       -4 0.81128371E-01 0.10509393E+04</pdfrwt>
<totfact> 0.16856425E+01</totfact>
</mgrwt>
</event>
<event>
 6    2  0.2267664E-005  0.9924292E+03  0.7818608E-02  0.1006879E+00
         21   -1    0    0  501  502  0.00000000000E+00  0.00000000000E+00  0.15313789809E+04  0.15313789809E+04  0.00000000000E+00 0. -1.
         -4   -1    0    0    0  501 -0.00000000000E+00 -0.00000000000E+00 -0.21831204947E+03  0.21831204947E+03  0.00000000000E+00 0. -1.
   -9000010    2    1    2    0  502 -0.23912785108E+02 -0.75417265033E+02  0.13387731288E+04  0.16665020593E+04  0.98927045759E+03 0.  0.
         13    1    3    3    0    0 -0.38571948772E+03 -0.11853012461E+03  0.16236933338E+03  0.43496290098E+03  0.10566000000E+00 0. -1.
         -4    1    3    3    0  502  0.36180670261E+03  0.43112859574E+02  0.11764037954E+04  0.12315391583E+04  0.00000000000E+00 0. -1.
        -13    1    1    2    0    0  0.23912785108E+02  0.75417265033E+02 -0.25706197351E+02  0.83188971042E+02  0.10566000000E+00 0.  1.
<mgrwt>
<rscale>  1 0.52734268E+03</rscale>
<asrwt>0</asrwt>
<pdfrwt beam="1">  1       21 0.23559676E+00 0.99242915E+03</pdfrwt>
<pdfrwt beam="2">  1       -4 0.33586470E-01 0.99242915E+03</pdfrwt>
<totfact> 0.23378538E+01</totfact>
</mgrwt>
</event>
<event>
 6    2  0.2267664E-005  0.9815132E+03  0.7818608E-02  0.9825216E-01
         -4   -1    0    0    0  501 -0.00000000000E+00  0.00000000000E+00  0.15314085049E+03  0.15314085049E+03  0.00000000000E+00 0. -1.
         21   -1    0    0  501  502  0.00000000000E+00 -0.00000000000E+00 -0.23354993827E+04  0.23354993827E+04  0.00000000000E+00 0. -1.
   -9000010    2    1    2    0  502 -0.16479638571E+03 -0.66553411794E+02 -0.15748909723E+04  0.18557073356E+04  0.96528800644E+03 0.  0.
         13    1    3    3    0    0  0.32962396988E+03 -0.28032467274E+03 -0.83565426503E+03  0.94103769610E+03  0.10566000000E+00 0. -1.
         -4    1    3    3    0  502 -0.49442035559E+03  0.21377126095E+03 -0.73923670732E+03  0.91466963953E+03  0.00000000000E+00 0. -1.
        -13    1    1    2    0    0  0.16479638571E+03  0.66553411794E+02 -0.60746755989E+03  0.63293289758E+03  0.10566000000E+00 0.  1.
<mgrwt>
<rscale>  1 0.64026694E+03</rscale>
<asrwt>0</asrwt>
<pdfrwt beam="2">  1       21 0.35930755E+00 0.98151319E+03</pdfrwt>
<pdfrwt beam="1">  1       -4 0.23560134E-01 0.98151319E+03</pdfrwt>
<totfact> 0.78022042E+00</totfact>
</mgrwt>
</event>
<event>
 6    2  0.2267664E-005  0.1339551E+04  0.7818608E-02  0.9094352E-01
         21   -1    0    0  501  502  0.00000000000E+00  0.00000000000E+00  0.93683183633E+03  0.93683183633E+03  0.00000000000E+00 0.  1.
         -4   -1    0    0    0  501 -0.00000000000E+00 -0.00000000000E+00 -0.19874869773E+04  0.19874869773E+04  0.00000000000E+00 0. -1.
   -9000010    2    1    2    0  502 -0.34055061161E+03 -0.86088245359E+03  0.21449336233E+03  0.13566153772E+04  0.96814490716E+03 0.  0.
         13    1    3    3    0    0  0.28852575579E+03 -0.42676114427E+03 -0.10916636356E+03  0.52658284449E+03  0.10566000000E+00 0. -1.
         -4    1    3    3    0  502 -0.62907636740E+03 -0.43412130933E+03  0.32365972589E+03  0.83003253273E+03  0.00000000000E+00 0. -1.
        -13    1    1    2    0    0  0.34055061161E+03  0.86088245359E+03 -0.12651485033E+04  0.15677034364E+04  0.10566000000E+00 0.  1.
<mgrwt>
<rscale>  1 0.12213722E+04</rscale>
<asrwt>0</asrwt>
<pdfrwt beam="1">  1       21 0.14412797E+00 0.13395514E+04</pdfrwt>
<pdfrwt beam="2">  1       -4 0.30576723E+00 0.13395514E+04</pdfrwt>
<totfact> 0.31780584E-01</totfact>
</mgrwt>
</event>
<event>
 6    2  0.2267664E-005  0.1102915E+04  0.7818608E-02  0.9405584E-01
         21   -1    0    0  501  502  0.00000000000E+00  0.00000000000E+00  0.75181912107E+03  0.75181912107E+03  0.00000000000E+00 0. -1.
         -4   -1    0    0    0  501 -0.00000000000E+00 -0.00000000000E+00 -0.96072128442E+03  0.96072128442E+03  0.00000000000E+00 0. -1.
   -9000010    2    1    2    0  502 -0.52451012353E+03 -0.26051626794E+02 -0.36984686749E+03  0.11632747449E+04  0.96986177871E+03 0.  0.
         13    1    3    3    0    0  0.82854613079E+02 -0.37066986751E+03 -0.15352434735E+02  0.38012727606E+03  0.10566000000E+00 0. -1.
         -4    1    3    3    0  502 -0.60736473661E+03  0.34461824072E+03 -0.35449443275E+03  0.78314746885E+03  0.00000000000E+00 0. -1.
        -13    1    1    2    0    0  0.52451012353E+03  0.26051626794E+02  0.16094470413E+03  0.54926566058E+03  0.10566000000E+00 0.  1.
<mgrwt>
<rscale>  1 0.91617578E+03</rscale>
<asrwt>0</asrwt>
<pdfrwt beam="1">  1       21 0.11566448E+00 0.11029150E+04</pdfrwt>
<pdfrwt beam="2">  1       -4 0.14780327E+00 0.11029150E+04</pdfrwt>
<totfact> 0.64758382E+00</totfact>
</mgrwt>
</event>
<event>
 6    2  0.2267664E-005  0.9955300E+03  0.7818608E-02  0.9684063E-01
         21   -1    0    0  501  502  0.00000000000E+00  0.00000000000E+00  0.12561949982E+04  0.12561949982E+04  0.00000000000E+00 0. -1.
         -4   -1    0    0    0  501 -0.00000000000E+00 -0.00000000000E+00 -0.35737814736E+03  0.35737814736E+03  0.00000000000E+00 0. -1.
   -9000010    2    1    2    0  502  0.98078928136E+02 -0.25367572527E+03  0.89933415438E+03  0.13415968074E+04  0.95765819724E+03 0.  0.
         13    1    3    3    0    0  0.27138437189E+03 -0.56511768492E+03  0.46953461438E+03  0.78324341069E+03  0.10566000000E+00 0. -1.
         -4    1    3    3    0  502 -0.17330544376E+03  0.31144195966E+03  0.42979954000E+03  0.55835339675E+03  0.00000000000E+00 0. -1.
        -13    1    1    2    0    0 -0.98078928136E+02  0.25367572527E+03 -0.51730354292E+00  0.27197633813E+03  0.10566000000E+00 0.  1.
<mgrwt>
<rscale>  1 0.71973623E+03</rscale>
<asrwt>0</asrwt>
<pdfrwt beam="1">  1       21 0.19326077E+00 0.99553005E+03</pdfrwt>
<pdfrwt beam="2">  1       -4 0.54981254E-01 0.99553005E+03</pdfrwt>
<totfact> 0.16231664E+01</totfact>
</mgrwt>
</event>
<event>
 6    2  0.2267664E-005  0.1062246E+04  0.7818608E-02  0.9537967E-01
         -4   -1    0    0    0  501 -0.00000000000E+00  0.00000000000E+00  0.28580626791E+04  0.28580626791E+04  0.00000000000E+00 0. -1.
         21   -1    0    0  501  502  0.00000000000E+00 -0.00000000000E+00 -0.30300629960E+03  0.30300629960E+03  0.00000000000E+00 0. -1.
   -9000010    2    1    2    0  502  0.16273382355E+03 -0.33100246953E+03  0.70571485634E+03  0.12753041438E+04  0.99615373738E+03 0.  0.
         13    1    3    3    0    0  0.45780790326E+03 -0.53112717737E+03  0.41135771277E+03  0.81295715376E+03  0.10566000000E+00 0. -1.
         -4    1    3    3    0  502 -0.29507407971E+03  0.20012470784E+03  0.29435714357E+03  0.46234699002E+03  0.00000000000E+00 0. -1.
        -13    1    1    2    0    0 -0.16273382355E+03  0.33100246953E+03  0.18493415232E+04  0.18857648349E+04  0.10566000000E+00 0.  1.
<mgrwt>
<rscale>  1 0.81541598E+03</rscale>
<asrwt>0</asrwt>
<pdfrwt beam="2">  1       21 0.46616356E-01 0.10622463E+04</pdfrwt>
<pdfrwt beam="1">  1       -4 0.43970193E+00 0.10622463E+04</pdfrwt>
<totfact> 0.62741385E-01</totfact>
</mgrwt>
</event>
<event>
 6    2  0.2267664E-005  0.1051814E+04  0.7818608E-02  0.9746696E-01
         21   -1    0    0  501  502  0.00000000000E+00  0.00000000000E+00  0.74022516856E+03  0.74022516856E+03  0.00000000000E+00 0. -1.
         -4   -1    0    0    0  501 -0.00000000000E+00 -0.00000000000E+00 -0.95850804952E+03  0.95850804952E+03  0.00000000000E+00 0. -1.
   -9000010    2    1    2    0  502  0.28602550720E+02  0.18484718285E+03  0.34361672108E+03  0.11065189318E+04  0.10350483605E+04 0.  0.
         13    1    3    3    0    0 -0.42303966607E+03  0.75126218674E+02 -0.12401884751E+03  0.44719927718E+03  0.10566000000E+00 0. -1.
         -4    1    3    3    0  502  0.45164221679E+03  0.10972096417E+03  0.46763556860E+03  0.65931965463E+03  0.00000000000E+00 0. -1.
        -13    1    1    2    0    0 -0.28602550720E+02 -0.18484718285E+03 -0.56189960204E+03  0.59221428626E+03  0.10566000000E+00 0.  1.
<mgrwt>
<rscale>  1 0.68303314E+03</rscale>
<asrwt>0</asrwt>
<pdfrwt beam="1">  1       21 0.11388080E+00 0.10518135E+04</pdfrwt>
<pdfrwt beam="2">  1       -4 0.14746278E+00 0.10518135E+04</pdfrwt>
<totfact> 0.68196400E+00</totfact>
</mgrwt>
</event>
<event>
 6    2  0.2267664E-005  0.7644123E+03  0.7818608E-02  0.1006540E+00
         -4   -1    0    0    0  501 -0.00000000000E+00  0.00000000000E+00  0.73264836219E+03  0.73264836219E+03  0.00000000000E+00 0. -1.
         21   -1    0    0  501  502  0.00000000000E+00 -0.00000000000E+00 -0.54716382213E+03  0.54716382213E+03  0.00000000000E+00 0. -1.
   -9000010    2    1    2    0  502 -0.24263906837E+02 -0.17327745427E+03 -0.25502115381E+03  0.80583002135E+03  0.74411855311E+03 0.  0.
         13    1    3    3    0    0 -0.13756943933E+03 -0.13936403968E+03 -0.49826043743E+03  0.53536077636E+03  0.10566000000E+00 0. -1.
         -4    1    3    3    0  502  0.11330553249E+03 -0.33913414590E+02  0.24323928363E+03  0.27046924499E+03  0.00000000000E+00 0. -1.
        -13    1    1    2    0    0  0.24263906837E+02  0.17327745427E+03  0.44050569386E+03  0.47398216298E+03  0.10566000000E+00 0.  1.
<mgrwt>
<rscale>  1 0.52873184E+03</rscale>
<asrwt>0</asrwt>
<pdfrwt beam="2">  1       21 0.84179050E-01 0.76441235E+03</pdfrwt>
<pdfrwt beam="1">  1       -4 0.11271513E+00 0.76441235E+03</pdfrwt>
<totfact> 0.29525474E+01</totfact>
</mgrwt>
</event>
<event>
 6    2  0.2267664E-005  0.9896253E+03  0.7818608E-02  0.1009280E+00
         -4   -1    0    0    0  501 -0.00000000000E+00  0.00000000000E+00  0.47263202193E+03  0.47263202193E+03  0.00000000000E+00 0. -1.
         21   -1    0    0  501  502  0.00000000000E+00 -0.00000000000E+00 -0.63036381691E+03  0.63036381691E+03  0.00000000000E+00 0. -1.
   -9000010    2    1    2    0  502 -0.74046124503E+02  0.17733109658E+01 -0.75764409868E+02  0.99252124188E+03  0.98684963221E+03 0.  0.
         13    1    3    3    0    0 -0.44285494345E+03  0.84556182087E+02  0.23019834905E+03  0.50622281650E+03  0.10566000000E+00 0. -1.
         -4    1    3    3    0  502  0.36880881895E+03 -0.82782871122E+02 -0.30596275892E+03  0.48629842539E+03  0.00000000000E+00 0. -1.
        -13    1    1    2    0    0  0.74046124503E+02 -0.17733109658E+01 -0.81967385119E+02  0.11047459696E+03  0.10566000000E+00 0.  1.
<mgrwt>
<rscale>  1 0.51761870E+03</rscale>
<asrwt>0</asrwt>
<pdfrwt beam="2">  1       21 0.96979048E-01 0.98962527E+03</pdfrwt>
<pdfrwt beam="1">  1       -4 0.72712619E-01 0.98962527E+03</pdfrwt>
<totfact> 0.57646470E+01</totfact>
</mgrwt>
</event>
<event>
 6    2  0.2267664E-005  0.1221392E+04  0.7818608E-02  0.9243971E-01
         -4   -1    0    0    0  501 -0.00000000000E+00  0.00000000000E+00  0.14218343058E+04  0.14218343058E+04  0.00000000000E+00 0. -1.
         21   -1    0    0  501  502  0.00000000000E+00 -0.00000000000E+00 -0.71350436858E+03  0.71350436858E+03  0.00000000000E+00 0.  1.
   -9000010    2    1    2    0  502  0.68386926918E+03 -0.12790634715E+03  0.75859351487E+03  0.14377975290E+04  0.10038727025E+04 0.  0.
         13    1    3    3    0    0  0.60012576281E+03 -0.10713151305E+03 -0.61929365153E+02  0.61275064235E+03  0.10566000000E+00 0. -1.
         -4    1    3    3    0  502  0.83743506373E+02 -0.20774834101E+02  0.82052288002E+03  0.82504688668E+03  0.00000000000E+00 0. -1.
        -13    1    1    2    0    0 -0.68386926918E+03  0.12790634715E+03 -0.50263577692E+02  0.69754114529E+03  0.10566000000E+00 0.  1.
<mgrwt>
<rscale>  1 0.10610873E+04</rscale>
<asrwt>0</asrwt>
<pdfrwt beam="2">  1       21 0.10976990E+00 0.12213917E+04</pdfrwt>
<pdfrwt beam="1">  1       -4 0.21874374E+00 0.12213917E+04</pdfrwt>
<totfact> 0.23248825E+00</totfact>
</mgrwt>
</event>
<event>
 6    2  0.2267664E-005  0.9796669E+03  0.7818608E-02  0.9787718E-01
         -4   -1    0    0    0  501 -0.00000000000E+00  0.00000000000E+00  0.18787854931E+03  0.18787854931E+03  0.00000000000E+00 0. -1.
         21   -1    0    0  501  502  0.00000000000E+00 -0.00000000000E+00 -0.22545915544E+04  0.22545915544E+04  0.00000000000E+00 0. -1.
   -9000010    2    1    2    0  502 -0.13667961418E+03  0.14890666705E+03 -0.20043280938E+04  0.22309366531E+04  0.95858892637E+03 0.  0.
         13    1    3    3    0    0 -0.22276043871E+03  0.42195887224E+02 -0.20675611784E+04  0.20799547937E+04  0.10566000000E+00 0. -1.
         -4    1    3    3    0  502  0.86080824528E+02  0.10671077982E+03  0.63233084584E+02  0.15098185940E+03  0.00000000000E+00 0. -1.
        -13    1    1    2    0    0  0.13667961418E+03 -0.14890666705E+03 -0.62384911239E+02  0.21153345064E+03  0.10566000000E+00 0.  1.
<mgrwt>
<rscale>  1 0.66025826E+03</rscale>
<asrwt>0</asrwt>
<pdfrwt beam="2">  1       21 0.34686024E+00 0.97966690E+03</pdfrwt>
<pdfrwt beam="1">  1       -4 0.28904392E-01 0.97966690E+03</pdfrwt>
<totfact> 0.63160972E+00</totfact>
</mgrwt>
</event>
<event>
 6    2  0.2267664E-005  0.1030521E+04  0.7818608E-02  0.9951113E-01
         -4   -1    0    0    0  501 -0.00000000000E+00  0.00000000000E+00  0.19855790552E+03  0.19855790552E+03  0.00000000000E+00 0. -1.
         21   -1    0    0  501  502  0.00000000000E+00 -0.00000000000E+00 -0.19565203268E+04  0.19565203268E+04  0.00000000000E+00 0. -1.
   -9000010    2    1    2    0  502  0.53051087010E+02  0.87488834816E+02 -0.17739169450E+04  0.20515249994E+04  0.10254290718E+04 0.  0.
         13    1    3    3    0    0  0.26140055082E+03  0.26641817165E+03 -0.14628312565E+03  0.40088359179E+03  0.10566000000E+00 0. -1.
         -4    1    3    3    0  502 -0.20834946381E+03 -0.17892933683E+03 -0.16276338193E+04  0.16506414076E+04  0.00000000000E+00 0. -1.
        -13    1    1    2    0    0 -0.53051087010E+02 -0.87488834816E+02  0.15954523745E+02  0.10355323289E+03  0.10566000000E+00 0.  1.
<mgrwt>
<rscale>  1 0.57846802E+03</rscale>
<asrwt>0</asrwt>
<pdfrwt beam="2">  1       21 0.30100312E+00 0.10305210E+04</pdfrwt>
<pdfrwt beam="1">  1       -4 0.30547371E-01 0.10305210E+04</pdfrwt>
<totfact> 0.10865133E+01</totfact>
</mgrwt>
</event>
<event>
 6    2  0.2267664E-005  0.1055754E+04  0.7818608E-02  0.9755962E-01
         -4   -1    0    0    0  501 -0.00000000000E+00  0.00000000000E+00  0.34440326377E+03  0.34440326377E+03  0.00000000000E+00 0. -1.
         21   -1    0    0  501  502  0.00000000000E+00 -0.00000000000E+00 -0.11417814282E+04  0.11417814282E+04  0.00000000000E+00 0. -1.
   -9000010    2    1    2    0  502  0.10551120361E+03  0.14504360775E+03 -0.58075722049E+03  0.12049465247E+04  0.10404070914E+04 0.  0.
         13    1    3    3    0    0 -0.11404449044E+03  0.56129627418E+03 -0.40971690197E+03  0.70422127498E+03  0.10566000000E+00 0. -1.
         -4    1    3    3    0  502  0.21955569404E+03 -0.41625266643E+03 -0.17104031852E+03  0.50072524967E+03  0.00000000000E+00 0. -1.
        -13    1    1    2    0    0 -0.10551120361E+03 -0.14504360775E+03 -0.21662094394E+03  0.28123816731E+03  0.10566000000E+00 0.  1.
<mgrwt>
<rscale>  1 0.67780388E+03</rscale>
<asrwt>0</asrwt>
<pdfrwt beam="2">  1       21 0.17565868E+00 0.10557543E+04</pdfrwt>
<pdfrwt beam="1">  1       -4 0.52985119E-01 0.10557543E+04</pdfrwt>
<totfact> 0.23325274E+01</totfact>
</mgrwt>
</event>
<event>
 6    2  0.2267664E-005  0.1037547E+04  0.7818608E-02  0.9679256E-01
         21   -1    0    0  501  502  0.00000000000E+00  0.00000000000E+00  0.69898082736E+03  0.69898082736E+03  0.00000000000E+00 0. -1.
         -4   -1    0    0    0  501 -0.00000000000E+00 -0.00000000000E+00 -0.74083999855E+03  0.74083999855E+03  0.00000000000E+00 0. -1.
   -9000010    2    1    2    0  502  0.20273738494E+03 -0.13608275474E+03  0.24199645867E+03  0.10653946073E+04  0.10084058806E+04 0.  0.
         13    1    3    3    0    0 -0.27335717923E+03 -0.40592141732E+03  0.91906144057E+02  0.49793884660E+03  0.10566000000E+00 0. -1.
         -4    1    3    3    0  502  0.47609456417E+03  0.26983866258E+03  0.15009031461E+03  0.56745576074E+03  0.00000000000E+00 0. -1.
        -13    1    1    2    0    0 -0.20273738494E+03  0.13608275474E+03 -0.28385562986E+03  0.37442621857E+03  0.10566000000E+00 0.  1.
<mgrwt>
<rscale>  1 0.72265441E+03</rscale>
<asrwt>0</asrwt>
<pdfrwt beam="1">  1       21 0.10753551E+00 0.10375468E+04</pdfrwt>
<pdfrwt beam="2">  1       -4 0.11397538E+00 0.10375468E+04</pdfrwt>
<totfact> 0.15329511E+01</totfact>
</mgrwt>
</event>
<event>
 6    2  0.2267664E-005  0.1043422E+04  0.7818608E-02  0.9530830E-01
         -4   -1    0    0    0  501 -0.00000000000E+00  0.00000000000E+00  0.10896094880E+04  0.10896094880E+04  0.00000000000E+00 0. -1.
         21   -1    0    0  501  502  0.00000000000E+00 -0.00000000000E+00 -0.49288454824E+03  0.49288454824E+03  0.00000000000E+00 0. -1.
   -9000010    2    1    2    0  502  0.39727849152E+03 -0.36324457087E+02  0.30121065127E+03  0.10860281544E+04  0.96414709957E+03 0.  0.
         13    1    3    3    0    0  0.29769205353E+03 -0.33909110837E+03  0.52823222582E+03  0.69471766500E+03  0.10566000000E+00 0. -1.
         -4    1    3    3    0  502  0.99586437997E+02  0.30276665129E+03 -0.22702157455E+03  0.39131048935E+03  0.00000000000E+00 0. -1.
        -13    1    1    2    0    0 -0.39727849152E+03  0.36324457087E+02  0.29551428852E+03  0.49646588190E+03  0.10566000000E+00 0.  1.
<mgrwt>
<rscale>  1 0.82048508E+03</rscale>
<asrwt>0</asrwt>
<pdfrwt beam="2">  1       21 0.75828392E-01 0.10434219E+04</pdfrwt>
<pdfrwt beam="1">  1       -4 0.16763223E+00 0.10434219E+04</pdfrwt>
<totfact> 0.12959038E+01</totfact>
</mgrwt>
</event>
<event>
 6    2  0.2267664E-005  0.1032591E+04  0.7818608E-02  0.9622910E-01
         21   -1    0    0  501  502  0.00000000000E+00  0.00000000000E+00  0.21967681415E+04  0.21967681415E+04  0.00000000000E+00 0. -1.
         -4   -1    0    0    0  501 -0.00000000000E+00 -0.00000000000E+00 -0.23431906279E+03  0.23431906279E+03  0.00000000000E+00 0. -1.
   -9000010    2    1    2    0  502  0.23501635002E+03  0.18615875191E+03  0.18344349181E+04  0.21050881212E+04  0.98810766799E+03 0.  0.
         13    1    3    3    0    0  0.89509889355E+02  0.11619480789E+02  0.18725103370E+04  0.18746845084E+04  0.10566000000E+00 0. -1.
         -4    1    3    3    0  502  0.14550646066E+03  0.17453927112E+03 -0.38075418922E+02  0.23040361278E+03  0.00000000000E+00 0. -1.
        -13    1    1    2    0    0 -0.23501635002E+03 -0.18615875191E+03  0.12801416057E+03  0.32599908306E+03  0.10566000000E+00 0.  1.
<mgrwt>
<rscale>  1 0.75798199E+03</rscale>
<asrwt>0</asrwt>
<pdfrwt beam="1">  1       21 0.33796432E+00 0.10325912E+04</pdfrwt>
<pdfrwt beam="2">  1       -4 0.36049088E-01 0.10325912E+04</pdfrwt>
<totfact> 0.45952555E+00</totfact>
</mgrwt>
</event>
<event>
 6    2  0.2267664E-005  0.9919147E+03  0.7818608E-02  0.9925022E-01
         -4   -1    0    0    0  501 -0.00000000000E+00  0.00000000000E+00  0.45066050572E+03  0.45066050572E+03  0.00000000000E+00 0. -1.
         21   -1    0    0  501  502  0.00000000000E+00 -0.00000000000E+00 -0.81343227334E+03  0.81343227334E+03  0.00000000000E+00 0. -1.
   -9000010    2    1    2    0  502  0.25673032629E+02  0.12202758106E+03 -0.47184434642E+03  0.10984224022E+04  0.98404514700E+03 0.  0.
         13    1    3    3    0    0 -0.20383781973E+01 -0.19548144129E+03  0.24528477049E+03  0.31365869775E+03  0.10566000000E+00 0. -1.
         -4    1    3    3    0  502  0.27711410826E+02  0.31750902235E+03 -0.71712911691E+03  0.78476370449E+03  0.00000000000E+00 0. -1.
        -13    1    1    2    0    0 -0.25673032629E+02 -0.12202758106E+03  0.10907257880E+03  0.16567037681E+03  0.10566000000E+00 0.  1.
<mgrwt>
<rscale>  1 0.59063815E+03</rscale>
<asrwt>0</asrwt>
<pdfrwt beam="2">  1       21 0.12514343E+00 0.99191466E+03</pdfrwt>
<pdfrwt beam="1">  1       -4 0.69332386E-01 0.99191466E+03</pdfrwt>
<totfact> 0.33573374E+01</totfact>
</mgrwt>
</event>
<event>
 6    2  0.2267664E-005  0.1005939E+04  0.7818608E-02  0.9681406E-01
         21   -1    0    0  501  502  0.00000000000E+00  0.00000000000E+00  0.11313472804E+04  0.11313472804E+04  0.00000000000E+00 0. -1.
         -4   -1    0    0    0  501 -0.00000000000E+00 -0.00000000000E+00 -0.38521582069E+03  0.38521582069E+03  0.00000000000E+00 0. -1.
   -9000010    2    1    2    0  502  0.24326612134E+03  0.10757153175E+03  0.74295027236E+03  0.12505552603E+04  0.97013571818E+03 0.  0.
         13    1    3    3    0    0  0.91773116780E+02  0.23107756362E+03 -0.18011757484E+03  0.30702035324E+03  0.10566000000E+00 0. -1.
         -4    1    3    3    0  502  0.15149300456E+03 -0.12350603187E+03  0.92306784720E+03  0.94353490708E+03  0.00000000000E+00 0. -1.
        -13    1    1    2    0    0 -0.24326612134E+03 -0.10757153175E+03  0.31811873481E+01  0.26600784077E+03  0.10566000000E+00 0.  1.
<mgrwt>
<rscale>  1 0.72134760E+03</rscale>
<asrwt>0</asrwt>
<pdfrwt beam="1">  1       21 0.17405343E+00 0.10059390E+04</pdfrwt>
<pdfrwt beam="2">  1       -4 0.59263973E-01 0.10059390E+04</pdfrwt>
<totfact> 0.18941461E+01</totfact>
</mgrwt>
</event>
<event>
 6    2  0.2267664E-005  0.8311490E+03  0.7818608E-02  0.1014441E+00
         21   -1    0    0  501  502  0.00000000000E+00  0.00000000000E+00  0.35539656096E+03  0.35539656096E+03  0.00000000000E+00 0. -1.
         -4   -1    0    0    0  501 -0.00000000000E+00 -0.00000000000E+00 -0.63747366044E+03  0.63747366044E+03  0.00000000000E+00 0. -1.
   -9000010    2    1    2    0  502 -0.98055895818E+02  0.41989185466E+02 -0.19147950059E+03  0.85292027859E+03  0.82427577429E+03 0.  0.
         13    1    3    3    0    0  0.97557808936E+02  0.17703044400E+03  0.26795119359E+03  0.33564141207E+03  0.10566000000E+00 0. -1.
         -4    1    3    3    0  502 -0.19561370475E+03 -0.13504125853E+03 -0.45943069418E+03  0.51727886652E+03  0.00000000000E+00 0. -1.
        -13    1    1    2    0    0  0.98055895818E+02 -0.41989185466E+02 -0.90597598893E+02  0.13994994280E+03  0.10566000000E+00 0.  1.
<mgrwt>
<rscale>  1 0.49747091E+03</rscale>
<asrwt>0</asrwt>
<pdfrwt beam="1">  1       21 0.54676394E-01 0.83114897E+03</pdfrwt>
<pdfrwt beam="2">  1       -4 0.98072871E-01 0.83114897E+03</pdfrwt>
<totfact> 0.10955270E+02</totfact>
</mgrwt>
</event>
<event>
 6    2  0.2267664E-005  0.1041488E+04  0.7818608E-02  0.9620861E-01
         -4   -1    0    0    0  501 -0.00000000000E+00  0.00000000000E+00  0.10706167229E+04  0.10706167229E+04  0.00000000000E+00 0. -1.
         21   -1    0    0  501  502  0.00000000000E+00 -0.00000000000E+00 -0.62006454507E+03  0.62006454507E+03  0.00000000000E+00 0. -1.
   -9000010    2    1    2    0  502 -0.87757154650E+02  0.28085260705E+03 -0.12034453067E+03  0.10484176398E+04  0.99905817467E+03 0.  0.
         13    1    3    3    0    0 -0.30974525768E+03  0.52549161968E+03 -0.29184611108E+03  0.67620834861E+03  0.10566000000E+00 0. -1.
         -4    1    3    3    0  502  0.22198810303E+03 -0.24463901263E+03  0.17150158041E+03  0.37220929122E+03  0.00000000000E+00 0. -1.
        -13    1    1    2    0    0  0.87757154650E+02 -0.28085260705E+03  0.57089670850E+03  0.64226362813E+03  0.10566000000E+00 0.  1.
<mgrwt>
<rscale>  1 0.75930720E+03</rscale>
<asrwt>0</asrwt>
<pdfrwt beam="2">  1       21 0.95394545E-01 0.10414878E+04</pdfrwt>
<pdfrwt beam="1">  1       -4 0.16471027E+00 0.10414878E+04</pdfrwt>
<totfact> 0.78710122E+00</totfact>
</mgrwt>
</event>
<event>
 6    2  0.2267664E-005  0.1030322E+04  0.7818608E-02  0.9712713E-01
         21   -1    0    0  501  502  0.00000000000E+00  0.00000000000E+00  0.11811043732E+04  0.11811043732E+04  0.00000000000E+00 0. -1.
         -4   -1    0    0    0  501 -0.00000000000E+00 -0.00000000000E+00 -0.34069630671E+03  0.34069630671E+03  0.00000000000E+00 0. -1.
   -9000010    2    1    2    0  502  0.46501542830E+02 -0.21795581777E+03  0.77587313987E+03  0.12897836549E+04  0.10059302238E+04 0.  0.
         13    1    3    3    0    0  0.43716855845E+03 -0.19107935008E+03  0.76065255734E+03  0.89789753908E+03  0.10566000000E+00 0. -1.
         -4    1    3    3    0  502 -0.39066701562E+03 -0.26876467689E+02  0.15220582530E+02  0.39188611578E+03  0.00000000000E+00 0. -1.
        -13    1    1    2    0    0 -0.46501542830E+02  0.21795581777E+03  0.64534926572E+02  0.23201702502E+03  0.10566000000E+00 0.  1.
<mgrwt>
<rscale>  1 0.70264874E+03</rscale>
<asrwt>0</asrwt>
<pdfrwt beam="1">  1       21 0.18170836E+00 0.10303217E+04</pdfrwt>
<pdfrwt beam="2">  1       -4 0.52414817E-01 0.10303217E+04</pdfrwt>
<totfact> 0.21622940E+01</totfact>
</mgrwt>
</event>
<event>
 6    2  0.2267664E-005  0.1009842E+04  0.7818608E-02  0.9751427E-01
         21   -1    0    0  501  502  0.00000000000E+00  0.00000000000E+00  0.67897148370E+03  0.67897148370E+03  0.00000000000E+00 0. -1.
         -4   -1    0    0    0  501 -0.00000000000E+00 -0.00000000000E+00 -0.87394562751E+03  0.87394562751E+03  0.00000000000E+00 0. -1.
   -9000010    2    1    2    0  502  0.13067328658E+03  0.16190434221E+03  0.26846343696E+03  0.10449181680E+04  0.98817652118E+03 0.  0.
         13    1    3    3    0    0 -0.30816181877E+03  0.40080111670E+03  0.85096467518E+02  0.51268573380E+03  0.10566000000E+00 0. -1.
         -4    1    3    3    0  502  0.43883510535E+03 -0.23889677449E+03  0.18336696945E+03  0.53223243421E+03  0.00000000000E+00 0. -1.
        -13    1    1    2    0    0 -0.13067328658E+03 -0.16190434221E+03 -0.46343758077E+03  0.50799894320E+03  0.10566000000E+00 0.  1.
<mgrwt>
<rscale>  1 0.68035685E+03</rscale>
<asrwt>0</asrwt>
<pdfrwt beam="1">  1       21 0.10445715E+00 0.10098422E+04</pdfrwt>
<pdfrwt beam="2">  1       -4 0.13445317E+00 0.10098422E+04</pdfrwt>
<totfact> 0.10877468E+01</totfact>
</mgrwt>
</event>
<event>
 6    2  0.2267664E-005  0.9896463E+03  0.7818608E-02  0.9774526E-01
         21   -1    0    0  501  502  0.00000000000E+00  0.00000000000E+00  0.79824386618E+03  0.79824386618E+03  0.00000000000E+00 0. -1.
         -4   -1    0    0    0  501 -0.00000000000E+00 -0.00000000000E+00 -0.82955361063E+03  0.82955361063E+03  0.00000000000E+00 0. -1.
   -9000010    2    1    2    0  502 -0.16166102076E+03 -0.12571427473E+03  0.46311007256E+03  0.10926439184E+04  0.96822591811E+03 0.  0.
         13    1    3    3    0    0 -0.31348150775E+03 -0.15651371778E+02  0.71369521156E+03  0.77966434272E+03  0.10566000000E+00 0. -1.
         -4    1    3    3    0  502  0.15182048699E+03 -0.11006290295E+03 -0.25058513900E+03  0.31297957563E+03  0.00000000000E+00 0. -1.
        -13    1    1    2    0    0  0.16166102076E+03  0.12571427473E+03 -0.49441981702E+03  0.53515355846E+03  0.10566000000E+00 0.  1.
<mgrwt>
<rscale>  1 0.66747723E+03</rscale>
<asrwt>0</asrwt>
<pdfrwt beam="1">  1       21 0.12280675E+00 0.98964630E+03</pdfrwt>
<pdfrwt beam="2">  1       -4 0.12762363E+00 0.98964630E+03</pdfrwt>
<totfact> 0.82460815E+00</totfact>
</mgrwt>
</event>
<event>
 6    2  0.2267664E-005  0.1065968E+04  0.7818608E-02  0.9791870E-01
         21   -1    0    0  501  502  0.00000000000E+00  0.00000000000E+00  0.28716893889E+03  0.28716893889E+03  0.00000000000E+00 0. -1.
         -4   -1    0    0    0  501 -0.00000000000E+00 -0.00000000000E+00 -0.13015537376E+04  0.13015537376E+04  0.00000000000E+00 0. -1.
   -9000010    2    1    2    0  502 -0.63145511355E+02 -0.14130359709E+03 -0.85434608777E+03  0.13660874090E+04  0.10546722283E+04 0.  0.
         13    1    3    3    0    0 -0.30943821748E+03 -0.33858819723E+03 -0.36004721726E+01  0.45870137596E+03  0.10566000000E+00 0. -1.
         -4    1    3    3    0  502  0.24629270612E+03  0.19728460014E+03 -0.85074561559E+03  0.90738603306E+03  0.00000000000E+00 0. -1.
        -13    1    1    2    0    0  0.63145511355E+02  0.14130359709E+03 -0.16003871096E+03  0.22263526748E+03  0.10566000000E+00 0.  1.
<mgrwt>
<rscale>  1 0.65800701E+03</rscale>
<asrwt>0</asrwt>
<pdfrwt beam="1">  1       21 0.44179838E-01 0.10659679E+04</pdfrwt>
<pdfrwt beam="2">  1       -4 0.20023903E+00 0.10659679E+04</pdfrwt>
<totfact> 0.25526218E+01</totfact>
</mgrwt>
</event>
<event>
 6    2  0.2267664E-005  0.1034533E+04  0.7818608E-02  0.9670807E-01
         21   -1    0    0  501  502  0.00000000000E+00  0.00000000000E+00  0.43781599510E+03  0.43781599510E+03  0.00000000000E+00 0. -1.
         -4   -1    0    0    0  501 -0.00000000000E+00 -0.00000000000E+00 -0.98931453585E+03  0.98931453585E+03  0.00000000000E+00 0. -1.
   -9000010    2    1    2    0  502  0.84649250714E+02  0.23887532767E+03 -0.55432540077E+03  0.11736844418E+04  0.10030112667E+04 0.  0.
         13    1    3    3    0    0  0.11130786219E+03 -0.31310975646E+03  0.70325596523E+02  0.33966580703E+03  0.10566000000E+00 0. -1.
         -4    1    3    3    0  502 -0.26658611480E+02  0.55198508413E+03 -0.62465099730E+03  0.83401863474E+03  0.00000000000E+00 0. -1.
        -13    1    1    2    0    0 -0.84649250714E+02 -0.23887532767E+03  0.28268600333E+01  0.25344608918E+03  0.10566000000E+00 0.  1.
<mgrwt>
<rscale>  1 0.72781828E+03</rscale>
<asrwt>0</asrwt>
<pdfrwt beam="1">  1       21 0.67356308E-01 0.10345330E+04</pdfrwt>
<pdfrwt beam="2">  1       -4 0.15220223E+00 0.10345330E+04</pdfrwt>
<totfact> 0.22227836E+01</totfact>
</mgrwt>
</event>
<event>
 6    2  0.2267664E-005  0.9855012E+03  0.7818608E-02  0.9896525E-01
         21   -1    0    0  501  502  0.00000000000E+00  0.00000000000E+00  0.32499891033E+03  0.32499891033E+03  0.00000000000E+00 0. -1.
         -4   -1    0    0    0  501 -0.00000000000E+00 -0.00000000000E+00 -0.10099789750E+04  0.10099789750E+04  0.00000000000E+00 0. -1.
   -9000010    2    1    2    0  502  0.19066742279E+02 -0.13801740979E+03 -0.50495752265E+03  0.11073367799E+04  0.97560253097E+03 0.  0.
         13    1    3    3    0    0  0.50906765898E+01  0.17684248158E+03  0.24016965034E+03  0.29829624601E+03  0.10566000000E+00 0. -1.
         -4    1    3    3    0  502  0.13976065689E+02 -0.31485989137E+03 -0.74512717298E+03  0.80904053392E+03  0.00000000000E+00 0. -1.
        -13    1    1    2    0    0 -0.19066742279E+02  0.13801740979E+03 -0.18002254202E+03  0.22764110540E+03  0.10566000000E+00 0.  1.
<mgrwt>
<rscale>  1 0.60430009E+03</rscale>
<asrwt>0</asrwt>
<pdfrwt beam="1">  1       21 0.49999833E-01 0.98550121E+03</pdfrwt>
<pdfrwt beam="2">  1       -4 0.15538138E+00 0.98550121E+03</pdfrwt>
<totfact> 0.40871990E+01</totfact>
</mgrwt>
</event>
<event>
 6    2  0.2267664E-005  0.1305240E+04  0.7818608E-02  0.9140633E-01
         21   -1    0    0  501  502  0.00000000000E+00  0.00000000000E+00  0.66807143579E+03  0.66807143579E+03  0.00000000000E+00 0.  1.
         -4   -1    0    0    0  501 -0.00000000000E+00 -0.00000000000E+00 -0.18848303812E+04  0.18848303812E+04  0.00000000000E+00 0. -1.
   -9000010    2    1    2    0  502  0.82634167978E+03 -0.14624080359E+03 -0.36078266457E+03  0.13541848575E+04  0.99971273520E+03 0.  0.
         13    1    3    3    0    0  0.68424603513E+01 -0.43216318665E+03 -0.64166826038E+02  0.43695449636E+03  0.10566000000E+00 0. -1.
         -4    1    3    3    0  502  0.81949921943E+03  0.28592238306E+03 -0.29661583853E+03  0.91723036116E+03  0.00000000000E+00 0. -1.
        -13    1    1    2    0    0 -0.82634167978E+03  0.14624080359E+03 -0.85597628083E+03  0.11987169595E+04  0.10566000000E+00 0.  1.
<mgrwt>
<rscale>  1 0.11687778E+04</rscale>
<asrwt>0</asrwt>
<pdfrwt beam="1">  1       21 0.10278022E+00 0.13052404E+04</pdfrwt>
<pdfrwt beam="2">  1       -4 0.28997390E+00 0.13052404E+04</pdfrwt>
<totfact> 0.97463511E-01</totfact>
</mgrwt>
</event>
<event>
 6    2  0.2267664E-005  0.1056682E+04  0.7818608E-02  0.1039824E+00
         21   -1    0    0  501  502  0.00000000000E+00  0.00000000000E+00  0.79515368792E+03  0.79515368792E+03  0.00000000000E+00 0. -1.
         -4   -1    0    0    0  501 -0.00000000000E+00 -0.00000000000E+00 -0.40161516165E+03  0.40161516165E+03  0.00000000000E+00 0. -1.
   -9000010    2    1    2    0  502 -0.18155189576E+02 -0.16202196169E+02  0.43975657874E+03  0.11445362773E+04  0.10564020633E+04 0.  0.
         13    1    3    3    0    0 -0.42483010424E+03  0.29483326144E+03  0.91016907501E+02  0.52506319442E+03  0.10566000000E+00 0. -1.
         -4    1    3    3    0  502  0.40667491466E+03 -0.31103545761E+03  0.34873967124E+03  0.61947308287E+03  0.00000000000E+00 0. -1.
        -13    1    1    2    0    0  0.18155189576E+02  0.16202196169E+02 -0.46218052471E+02  0.52232572285E+02  0.10566000000E+00 0.  1.
<mgrwt>
<rscale>  1 0.41163353E+03</rscale>
<asrwt>0</asrwt>
<pdfrwt beam="1">  1       21 0.12233134E+00 0.10566823E+04</pdfrwt>
<pdfrwt beam="2">  1       -4 0.61786948E-01 0.10566823E+04</pdfrwt>
<totfact> 0.45718914E+01</totfact>
</mgrwt>
</event>
<event>
 6    2  0.2267664E-005  0.1018017E+04  0.7818608E-02  0.9791021E-01
         21   -1    0    0  501  502  0.00000000000E+00  0.00000000000E+00  0.12362437426E+04  0.12362437426E+04  0.00000000000E+00 0. -1.
         -4   -1    0    0    0  501 -0.00000000000E+00 -0.00000000000E+00 -0.29073203964E+03  0.29073203964E+03  0.00000000000E+00 0. -1.
   -9000010    2    1    2    0  502 -0.95473754095E+02  0.15044745281E+03  0.76572717492E+03  0.12738509880E+04  0.10023016310E+04 0.  0.
         13    1    3    3    0    0 -0.27611726141E+03  0.27548879375E+03 -0.81613667672E+02  0.39849168052E+03  0.10566000000E+00 0. -1.
         -4    1    3    3    0  502  0.18064350731E+03 -0.12504134094E+03  0.84734084259E+03  0.87535930748E+03  0.00000000000E+00 0. -1.
        -13    1    1    2    0    0  0.95473754095E+02 -0.15044745281E+03  0.17978452808E+03  0.25312479428E+03  0.10566000000E+00 0.  1.
<mgrwt>
<rscale>  1 0.65846652E+03</rscale>
<asrwt>0</asrwt>
<pdfrwt beam="1">  1       21 0.19019134E+00 0.10180168E+04</pdfrwt>
<pdfrwt beam="2">  1       -4 0.44728007E-01 0.10180168E+04</pdfrwt>
<totfact> 0.26287532E+01</totfact>
</mgrwt>
</event>
<event>
 6    2  0.2267664E-005  0.1046157E+04  0.7818608E-02  0.9615975E-01
         -4   -1    0    0    0  501 -0.00000000000E+00  0.00000000000E+00  0.15375201679E+04  0.15375201679E+04  0.00000000000E+00 0. -1.
         21   -1    0    0  501  502  0.00000000000E+00 -0.00000000000E+00 -0.31474405131E+03  0.31474405131E+03  0.00000000000E+00 0. -1.
   -9000010    2    1    2    0  502  0.83811932282E+02  0.28305381362E+03  0.72254034096E+03  0.12714202266E+04  0.10036438347E+04 0.  0.
         13    1    3    3    0    0 -0.47188026045E+02 -0.13824730198E+03 -0.20066690758E+03  0.24820605406E+03  0.10566000000E+00 0. -1.
         -4    1    3    3    0  502  0.13099995833E+03  0.42130111561E+03  0.92320724854E+03  0.10232141725E+04  0.00000000000E+00 0. -1.
        -13    1    1    2    0    0 -0.83811932282E+02 -0.28305381362E+03  0.50023577564E+03  0.58084399265E+03  0.10566000000E+00 0.  1.
<mgrwt>
<rscale>  1 0.76247804E+03</rscale>
<asrwt>0</asrwt>
<pdfrwt beam="2">  1       21 0.48422162E-01 0.10461572E+04</pdfrwt>
<pdfrwt beam="1">  1       -4 0.23654156E+00 0.10461572E+04</pdfrwt>
<totfact> 0.12293567E+01</totfact>
</mgrwt>
</event>
<event>
 6    2  0.2267664E-005  0.1024312E+04  0.7818608E-02  0.9670464E-01
         21   -1    0    0  501  502  0.00000000000E+00  0.00000000000E+00  0.10847080840E+04  0.10847080840E+04  0.00000000000E+00 0. -1.
         -4   -1    0    0    0  501 -0.00000000000E+00 -0.00000000000E+00 -0.38352689177E+03  0.38352689177E+03  0.00000000000E+00 0. -1.
   -9000010    2    1    2    0  502  0.16262695297E+03  0.20464632779E+03  0.60541121515E+03  0.11898475749E+04  0.99039732768E+03 0.  0.
         13    1    3    3    0    0  0.81340525890E+02  0.35144438290E+03  0.83261208630E+03  0.90739866257E+03  0.10566000000E+00 0. -1.
         -4    1    3    3    0  502  0.81286427077E+02 -0.14679805510E+03 -0.22720087115E+03  0.28244891230E+03  0.00000000000E+00 0. -1.
        -13    1    1    2    0    0 -0.16262695297E+03 -0.20464632779E+03  0.95769977085E+02  0.27838740091E+03  0.10566000000E+00 0.  1.
<mgrwt>
<rscale>  1 0.72802899E+03</rscale>
<asrwt>0</asrwt>
<pdfrwt beam="1">  1       21 0.16687817E+00 0.10243117E+04</pdfrwt>
<pdfrwt beam="2">  1       -4 0.59004138E-01 0.10243117E+04</pdfrwt>
<totfact> 0.21589831E+01</totfact>
</mgrwt>
</event>
<event>
 6    2  0.2267664E-005  0.9498802E+03  0.7818608E-02  0.9884716E-01
         21   -1    0    0  501  502  0.00000000000E+00  0.00000000000E+00  0.63587469827E+03  0.63587469827E+03  0.00000000000E+00 0. -1.
         -4   -1    0    0    0  501 -0.00000000000E+00 -0.00000000000E+00 -0.78006490561E+03  0.78006490561E+03  0.00000000000E+00 0. -1.
   -9000010    2    1    2    0  502 -0.16023632868E+03  0.21213457393E+02  0.25647811062E+03  0.98389700877E+03  0.93602703532E+03 0.  0.
         13    1    3    3    0    0 -0.18472086330E+03 -0.44519308266E+03  0.10961143804E+03  0.49430087669E+03  0.10566000000E+00 0. -1.
         -4    1    3    3    0  502  0.24484534612E+02  0.46640654005E+03  0.14686667258E+03  0.48959613208E+03  0.00000000000E+00 0. -1.
        -13    1    1    2    0    0  0.16023632868E+03 -0.21213457393E+02 -0.40066831796E+03  0.43204259511E+03  0.10566000000E+00 0.  1.
<mgrwt>
<rscale>  1 0.61007764E+03</rscale>
<asrwt>0</asrwt>
<pdfrwt beam="1">  1       21 0.97826877E-01 0.94988015E+03</pdfrwt>
<pdfrwt beam="2">  1       -4 0.12000999E+00 0.94988015E+03</pdfrwt>
<totfact> 0.17228464E+01</totfact>
</mgrwt>
</event>
<event>
 6    2  0.2267664E-005  0.1002620E+04  0.7818608E-02  0.9794253E-01
         -4   -1    0    0    0  501 -0.00000000000E+00  0.00000000000E+00  0.23395150515E+03  0.23395150515E+03  0.00000000000E+00 0. -1.
         21   -1    0    0  501  502  0.00000000000E+00 -0.00000000000E+00 -0.16726695199E+04  0.16726695199E+04  0.00000000000E+00 0. -1.
   -9000010    2    1    2    0  502 -0.33693069827E+02 -0.18144595789E+03 -0.13933356948E+04  0.17165751760E+04  0.98548877113E+03 0.  0.
         13    1    3    3    0    0 -0.20216171280E+03 -0.60690300346E+02 -0.14777647789E+04  0.14927630165E+04  0.10566000000E+00 0. -1.
         -4    1    3    3    0  502  0.16846864297E+03 -0.12075565754E+03  0.84429084101E+02  0.22381215949E+03  0.00000000000E+00 0. -1.
        -13    1    1    2    0    0  0.33693069827E+02  0.18144595789E+03 -0.45382319929E+02  0.19004584898E+03  0.10566000000E+00 0.  1.
<mgrwt>
<rscale>  1 0.65671860E+03</rscale>
<asrwt>0</asrwt>
<pdfrwt beam="2">  1       21 0.25733377E+00 0.10026196E+04</pdfrwt>
<pdfrwt beam="1">  1       -4 0.35992539E-01 0.10026196E+04</pdfrwt>
<totfact> 0.14774869E+01</totfact>
</mgrwt>
</event>
<event>
 6    2  0.2267664E-005  0.1040212E+04  0.7818608E-02  0.9721095E-01
         -4   -1    0    0    0  501 -0.00000000000E+00  0.00000000000E+00  0.85505121467E+03  0.85505121467E+03  0.00000000000E+00 0. -1.
         21   -1    0    0  501  502  0.00000000000E+00 -0.00000000000E+00 -0.45746178816E+03  0.45746178816E+03  0.00000000000E+00 0. -1.
   -9000010    2    1    2    0  502 -0.20475033669E+03  0.49217190095E+02  0.32625777677E+03  0.10901771137E+04  0.10186741236E+04 0.  0.
         13    1    3    3    0    0 -0.43490174911E+03  0.32901542069E+03 -0.73966565531E+02  0.55032875848E+03  0.10566000000E+00 0. -1.
         -4    1    3    3    0  502  0.23015141241E+03 -0.27979823059E+03  0.40022434230E+03  0.53984835523E+03  0.00000000000E+00 0. -1.
        -13    1    1    2    0    0  0.20475033669E+03 -0.49217190095E+02  0.71331649739E+02  0.22233588913E+03  0.10566000000E+00 0.  1.
<mgrwt>
<rscale>  1 0.69774572E+03</rscale>
<asrwt>0</asrwt>
<pdfrwt beam="2">  1       21 0.70378737E-01 0.10402125E+04</pdfrwt>
<pdfrwt beam="1">  1       -4 0.13154634E+00 0.10402125E+04</pdfrwt>
<totfact> 0.29527549E+01</totfact>
</mgrwt>
</event>
<event>
 6    2  0.2267664E-005  0.1003269E+04  0.7818608E-02  0.1020282E+00
         -4   -1    0    0    0  501 -0.00000000000E+00  0.00000000000E+00  0.51327078599E+03  0.51327078599E+03  0.00000000000E+00 0. -1.
         21   -1    0    0  501  502  0.00000000000E+00 -0.00000000000E+00 -0.61072551481E+03  0.61072551481E+03  0.00000000000E+00 0. -1.
   -9000010    2    1    2    0  502  0.47825573464E+02  0.17044336005E+02 -0.18748512101E+03  0.10206363591E+04  0.10019830897E+04 0.  0.
         13    1    3    3    0    0 -0.23663987649E+02 -0.17174286480E+03 -0.56583649432E+03  0.59179941314E+03  0.10566000000E+00 0. -1.
         -4    1    3    3    0  502  0.71489561113E+02  0.18878720081E+03  0.37835137331E+03  0.42883694597E+03  0.00000000000E+00 0. -1.
        -13    1    1    2    0    0 -0.47825573464E+02 -0.17044336005E+02  0.90030392188E+02  0.10335994170E+03  0.10566000000E+00 0.  1.
<mgrwt>
<rscale>  1 0.47584904E+03</rscale>
<asrwt>0</asrwt>
<pdfrwt beam="2">  1       21 0.93957771E-01 0.10032686E+04</pdfrwt>
<pdfrwt beam="1">  1       -4 0.78964736E-01 0.10032686E+04</pdfrwt>
<totfact> 0.51579947E+01</totfact>
</mgrwt>
</event>
<event>
 6    2  0.2267664E-005  0.1011584E+04  0.7818608E-02  0.9819273E-01
         21   -1    0    0  501  502  0.00000000000E+00  0.00000000000E+00  0.23925150029E+03  0.23925150029E+03  0.00000000000E+00 0. -1.
         -4   -1    0    0    0  501 -0.00000000000E+00 -0.00000000000E+00 -0.14481434153E+04  0.14481434153E+04  0.00000000000E+00 0. -1.
   -9000010    2    1    2    0  502  0.16513949352E+03 -0.11360971370E+02 -0.10472249912E+04  0.14560157259E+04  0.99794863996E+03 0.  0.
         13    1    3    3    0    0 -0.36820897217E+02 -0.42410753533E+03 -0.86045082919E+03  0.95999928157E+03  0.10566000000E+00 0. -1.
         -4    1    3    3    0  502  0.20196039074E+03  0.41274656396E+03 -0.18677416198E+03  0.49601644435E+03  0.00000000000E+00 0. -1.
        -13    1    1    2    0    0 -0.16513949352E+03  0.11360971370E+02 -0.16166692386E+03  0.23137918970E+03  0.10566000000E+00 0.  1.
<mgrwt>
<rscale>  1 0.64338438E+03</rscale>
<asrwt>0</asrwt>
<pdfrwt beam="1">  1       21 0.36807923E-01 0.10115837E+04</pdfrwt>
<pdfrwt beam="2">  1       -4 0.22279129E+00 0.10115837E+04</pdfrwt>
<totfact> 0.26877182E+01</totfact>
</mgrwt>
</event>
<event>
 6    2  0.2267664E-005  0.1015517E+04  0.7818608E-02  0.9722658E-01
         -4   -1    0    0    0  501 -0.00000000000E+00  0.00000000000E+00  0.21620598665E+03  0.21620598665E+03  0.00000000000E+00 0. -1.
         21   -1    0    0  501  502  0.00000000000E+00 -0.00000000000E+00 -0.17837886350E+04  0.17837886350E+04  0.00000000000E+00 0.  1.
   -9000010    2    1    2    0  502 -0.20914276991E+03  0.83361751698E+02 -0.12456674224E+04  0.16071596643E+04  0.99024490884E+03 0.  0.
         13    1    3    3    0    0 -0.20322162480E+03  0.37586505226E+03 -0.11960233344E+03  0.44370969746E+03  0.10566000000E+00 0. -1.
         -4    1    3    3    0  502 -0.59211451162E+01 -0.29250330056E+03 -0.11260650889E+04  0.11634499668E+04  0.00000000000E+00 0. -1.
        -13    1    1    2    0    0  0.20914276991E+03 -0.83361751698E+02 -0.32191522602E+03  0.39283495740E+03  0.10566000000E+00 0.  1.
<mgrwt>
<rscale>  1 0.69683609E+03</rscale>
<asrwt>0</asrwt>
<pdfrwt beam="2">  1       21 0.27442901E+00 0.10155170E+04</pdfrwt>
<pdfrwt beam="1">  1       -4 0.33262461E-01 0.10155170E+04</pdfrwt>
<totfact> 0.13479561E+01</totfact>
</mgrwt>
</event>
<event>
 6    2  0.2267664E-005  0.1069738E+04  0.7818608E-02  0.9515363E-01
         -4   -1    0    0    0  501 -0.00000000000E+00  0.00000000000E+00  0.77185046535E+03  0.77185046535E+03  0.00000000000E+00 0. -1.
         21   -1    0    0  501  502  0.00000000000E+00 -0.00000000000E+00 -0.73256623527E+03  0.73256623527E+03  0.00000000000E+00 0.  1.
   -9000010    2    1    2    0  502 -0.31533670831E+03  0.23066307200E+03 -0.13194933829E+03  0.10778447389E+04  0.99583932489E+03 0.  0.
         13    1    3    3    0    0 -0.35445820510E+01 -0.18562066013E+03  0.33232471876E+03  0.38066694549E+03  0.10566000000E+00 0. -1.
         -4    1    3    3    0  502 -0.31179212626E+03  0.41628373213E+03 -0.46427405704E+03  0.69717779345E+03  0.00000000000E+00 0. -1.
        -13    1    1    2    0    0  0.31533670831E+03 -0.23066307200E+03  0.17123356837E+03  0.42657196168E+03  0.10566000000E+00 0.  1.
<mgrwt>
<rscale>  1 0.83160572E+03</rscale>
<asrwt>0</asrwt>
<pdfrwt beam="2">  1       21 0.11270250E+00 0.10697377E+04</pdfrwt>
<pdfrwt beam="1">  1       -4 0.11874623E+00 0.10697377E+04</pdfrwt>
<totfact> 0.12248044E+01</totfact>
</mgrwt>
</event>
<event>
 6    2  0.2267664E-005  0.1027400E+04  0.7818608E-02  0.9743243E-01
         21   -1    0    0  501  502  0.00000000000E+00  0.00000000000E+00  0.26622328316E+03  0.26622328316E+03  0.00000000000E+00 0. -1.
         -4   -1    0    0    0  501 -0.00000000000E+00 -0.00000000000E+00 -0.14321246732E+04  0.14321246732E+04  0.00000000000E+00 0. -1.
   -9000010    2    1    2    0  502 -0.13250417717E+03  0.15381184608E+03 -0.91664925425E+03  0.13768793275E+04  0.10071421877E+04 0.  0.
         13    1    3    3    0    0  0.62738746324E+02  0.56529905054E+03 -0.56244902255E+03  0.79990504496E+03  0.10566000000E+00 0. -1.
         -4    1    3    3    0  502 -0.19524292350E+03 -0.41148720446E+03 -0.35420023170E+03  0.57697428257E+03  0.00000000000E+00 0. -1.
        -13    1    1    2    0    0  0.13250417717E+03 -0.15381184608E+03 -0.24925213581E+03  0.32146862885E+03  0.10566000000E+00 0.  1.
<mgrwt>
<rscale>  1 0.68499467E+03</rscale>
<asrwt>0</asrwt>
<pdfrwt beam="1">  1       21 0.40957428E-01 0.10274000E+04</pdfrwt>
<pdfrwt beam="2">  1       -4 0.22032687E+00 0.10274000E+04</pdfrwt>
<totfact> 0.22266586E+01</totfact>
</mgrwt>
</event>
<event>
 6    2  0.2267664E-005  0.1043562E+04  0.7818608E-02  0.9576947E-01
         21   -1    0    0  501  502  0.00000000000E+00  0.00000000000E+00  0.74452407088E+03  0.74452407088E+03  0.00000000000E+00 0. -1.
         -4   -1    0    0    0  501 -0.00000000000E+00 -0.00000000000E+00 -0.67578391432E+03  0.67578391432E+03  0.00000000000E+00 0. -1.
   -9000010    2    1    2    0  502  0.33207349438E+03  0.72890110122E+02 -0.85335310384E+02  0.10470452969E+04  0.98662858498E+03 0.  0.
         13    1    3    3    0    0  0.60471690843E+03  0.17560733937E+03  0.17794664756E+03  0.65435884461E+03  0.10566000000E+00 0. -1.
         -4    1    3    3    0  502 -0.27264341406E+03 -0.10271722925E+03 -0.26328195794E+03  0.39268645226E+03  0.00000000000E+00 0. -1.
        -13    1    1    2    0    0 -0.33207349438E+03 -0.72890110122E+02  0.15407546694E+03  0.37326268833E+03  0.10566000000E+00 0.  1.
<mgrwt>
<rscale>  1 0.78840944E+03</rscale>
<asrwt>0</asrwt>
<pdfrwt beam="1">  1       21 0.11454216E+00 0.10435620E+04</pdfrwt>
<pdfrwt beam="2">  1       -4 0.10396676E+00 0.10435620E+04</pdfrwt>
<totfact> 0.16359164E+01</totfact>
</mgrwt>
</event>
<event>
 6    2  0.2267664E-005  0.1172732E+04  0.7818608E-02  0.9298050E-01
         21   -1    0    0  501  502  0.00000000000E+00  0.00000000000E+00  0.12605841853E+04  0.12605841853E+04  0.00000000000E+00 0. -1.
         -4   -1    0    0    0  501 -0.00000000000E+00 -0.00000000000E+00 -0.68050038233E+03  0.68050038233E+03  0.00000000000E+00 0. -1.
   -9000010    2    1    2    0  502  0.41399801906E+03  0.49360490695E+03  0.55222605508E+03  0.12962464257E+04  0.97992908738E+03 0.  0.
         13    1    3    3    0    0 -0.10245623320E+03  0.51038570005E+03 -0.25447508309E+02  0.52118943714E+03  0.10566000000E+00 0. -1.
         -4    1    3    3    0  502  0.51645425225E+03 -0.16780793107E+02  0.57767356339E+03  0.77505698857E+03  0.00000000000E+00 0. -1.
        -13    1    1    2    0    0 -0.41399801906E+03 -0.49360490695E+03  0.27857747846E+02  0.64483814188E+03  0.10566000000E+00 0.  1.
<mgrwt>
<rscale>  1 0.10096258E+04</rscale>
<asrwt>0</asrwt>
<pdfrwt beam="1">  1       21 0.19393603E+00 0.11727324E+04</pdfrwt>
<pdfrwt beam="2">  1       -4 0.10469237E+00 0.11727324E+04</pdfrwt>
<totfact> 0.36104206E+00</totfact>
</mgrwt>
</event>
<event>
 6    2  0.2267664E-005  0.1040705E+04  0.7818608E-02  0.9776504E-01
         21   -1    0    0  501  502  0.00000000000E+00  0.00000000000E+00  0.31937015495E+03  0.31937015495E+03  0.00000000000E+00 0. -1.
         -4   -1    0    0    0  501 -0.00000000000E+00 -0.00000000000E+00 -0.11570946154E+04  0.11570946154E+04  0.00000000000E+00 0. -1.
   -9000010    2    1    2    0  502 -0.11282135597E+03  0.13371853907E+03 -0.70927343453E+03  0.12594187308E+04  0.10258934782E+04 0.  0.
         13    1    3    3    0    0 -0.99206203545E+02 -0.86925641024E+02  0.24587578163E+03  0.27902123404E+03  0.10566000000E+00 0. -1.
         -4    1    3    3    0  502 -0.13615152421E+02  0.22064418009E+03 -0.95514921616E+03  0.98039749679E+03  0.00000000000E+00 0. -1.
        -13    1    1    2    0    0  0.11282135597E+03 -0.13371853907E+03 -0.12845102597E+03  0.21704603956E+03  0.10566000000E+00 0.  1.
<mgrwt>
<rscale>  1 0.66638837E+03</rscale>
<asrwt>0</asrwt>
<pdfrwt beam="1">  1       21 0.49133871E-01 0.10407049E+04</pdfrwt>
<pdfrwt beam="2">  1       -4 0.17801455E+00 0.10407049E+04</pdfrwt>
<totfact> 0.28875297E+01</totfact>
</mgrwt>
</event>
<event>
 6    2  0.2267664E-005  0.1003208E+04  0.7818608E-02  0.9900768E-01
         -4   -1    0    0    0  501 -0.00000000000E+00  0.00000000000E+00  0.73367349818E+03  0.73367349818E+03  0.00000000000E+00 0. -1.
         21   -1    0    0  501  502  0.00000000000E+00 -0.00000000000E+00 -0.65311028776E+03  0.65311028776E+03  0.00000000000E+00 0. -1.
   -9000010    2    1    2    0  502  0.37737725211E+02  0.12470396144E+03 -0.24793481666E+03  0.10333913994E+04  0.99471146427E+03 0.  0.
         13    1    3    3    0    0 -0.34402769082E+03  0.16052603674E+03  0.21181418308E+03  0.43472855880E+03  0.10566000000E+00 0. -1.
         -4    1    3    3    0  502  0.38176541603E+03 -0.35822075301E+02 -0.45974899974E+03  0.59866284061E+03  0.00000000000E+00 0. -1.
        -13    1    1    2    0    0 -0.37737725211E+02 -0.12470396144E+03  0.32849802707E+03  0.35339238653E+03  0.10566000000E+00 0.  1.
<mgrwt>
<rscale>  1 0.60224077E+03</rscale>
<asrwt>0</asrwt>
<pdfrwt beam="2">  1       21 0.10047851E+00 0.10032079E+04</pdfrwt>
<pdfrwt beam="1">  1       -4 0.11287285E+00 0.10032079E+04</pdfrwt>
<totfact> 0.18681991E+01</totfact>
</mgrwt>
</event>
<event>
 6    2  0.2267664E-005  0.1027348E+04  0.7818608E-02  0.9697623E-01
         -4   -1    0    0    0  501 -0.00000000000E+00  0.00000000000E+00  0.45830231879E+03  0.45830231879E+03  0.00000000000E+00 0. -1.
         21   -1    0    0  501  502  0.00000000000E+00 -0.00000000000E+00 -0.89009159676E+03  0.89009159676E+03  0.00000000000E+00 0.  1.
   -9000010    2    1    2    0  502  0.15095823523E+03  0.18200022177E+03 -0.42514645839E+03  0.11118424249E+04  0.99976577118E+03 0.  0.
         13    1    3    3    0    0 -0.13630238741E+03  0.15546099572E+03 -0.68994316196E+03  0.72025553792E+03  0.10566000000E+00 0. -1.
         -4    1    3    3    0  502  0.28726062264E+03  0.26539226051E+02  0.26479670357E+03  0.39158688698E+03  0.00000000000E+00 0. -1.
        -13    1    1    2    0    0 -0.15095823523E+03 -0.18200022177E+03 -0.66428195759E+01  0.23655149064E+03  0.10566000000E+00 0.  1.
<mgrwt>
<rscale>  1 0.71158503E+03</rscale>
<asrwt>0</asrwt>
<pdfrwt beam="2">  1       21 0.13693717E+00 0.10273481E+04</pdfrwt>
<pdfrwt beam="1">  1       -4 0.70508049E-01 0.10273481E+04</pdfrwt>
<totfact> 0.25354898E+01</totfact>
</mgrwt>
</event>
<event>
 6    2  0.2267664E-005  0.1114724E+04  0.7818608E-02  0.9435892E-01
         21   -1    0    0  501  502  0.00000000000E+00  0.00000000000E+00  0.16226698732E+04  0.16226698732E+04  0.00000000000E+00 0. -1.
         -4   -1    0    0    0  501 -0.00000000000E+00 -0.00000000000E+00 -0.38772445039E+03  0.38772445039E+03  0.00000000000E+00 0. -1.
   -9000010    2    1    2    0  502  0.14702655323E+03 -0.43231193405E+03  0.74561992811E+03  0.13411037539E+04  0.10169069702E+04 0.  0.
         13    1    3    3    0    0  0.46807050193E+03 -0.35166524700E+03  0.81441663158E+03  0.10030119150E+04  0.10566000000E+00 0. -1.
         -4    1    3    3    0  502 -0.32104394870E+03 -0.80646687050E+02 -0.68796703476E+02  0.33809183892E+03  0.00000000000E+00 0. -1.
        -13    1    1    2    0    0 -0.14702655323E+03  0.43231193405E+03  0.48932549467E+03  0.66929056961E+03  0.10566000000E+00 0.  1.
<mgrwt>
<rscale>  1 0.89179826E+03</rscale>
<asrwt>0</asrwt>
<pdfrwt beam="1">  1       21 0.24964151E+00 0.11147243E+04</pdfrwt>
<pdfrwt beam="2">  1       -4 0.59649916E-01 0.11147243E+04</pdfrwt>
<totfact> 0.56620456E+00</totfact>
</mgrwt>
</event>
<event>
 6    2  0.2267664E-005  0.1001099E+04  0.7818608E-02  0.9829878E-01
         21   -1    0    0  501  502  0.00000000000E+00  0.00000000000E+00  0.18220753312E+03  0.18220753312E+03  0.00000000000E+00 0. -1.
         -4   -1    0    0    0  501 -0.00000000000E+00 -0.00000000000E+00 -0.18676655431E+04  0.18676655431E+04  0.00000000000E+00 0. -1.
   -9000010    2    1    2    0  502 -0.28655577271E+02  0.16246063253E+03 -0.14226406738E+04  0.17395707033E+04  0.98741336128E+03 0.  0.
         13    1    3    3    0    0  0.47229862614E+03  0.16648065028E+02 -0.77744613248E+03  0.90981627288E+03  0.10566000000E+00 0. -1.
         -4    1    3    3    0  502 -0.50095420341E+03  0.14581256750E+03 -0.64519454129E+03  0.82975443046E+03  0.00000000000E+00 0. -1.
        -13    1    1    2    0    0  0.28655577271E+02 -0.16246063253E+03 -0.26281733618E+03  0.31030237284E+03  0.10566000000E+00 0.  1.
<mgrwt>
<rscale>  1 0.63783467E+03</rscale>
<asrwt>0</asrwt>
<pdfrwt beam="1">  1       21 0.28031928E-01 0.10010993E+04</pdfrwt>
<pdfrwt beam="2">  1       -4 0.28733316E+00 0.10010993E+04</pdfrwt>
<totfact> 0.18632267E+01</totfact>
</mgrwt>
</event>
<event>
 6    2  0.2267664E-005  0.1044897E+04  0.7818608E-02  0.9617112E-01
         -4   -1    0    0    0  501 -0.00000000000E+00  0.00000000000E+00  0.10590269869E+04  0.10590269869E+04  0.00000000000E+00 0. -1.
         21   -1    0    0  501  502  0.00000000000E+00 -0.00000000000E+00 -0.61273510751E+03  0.61273510751E+03  0.00000000000E+00 0. -1.
   -9000010    2    1    2    0  502 -0.64295931885E+02 -0.28803384878E+03 -0.10120713309E+03  0.10497873001E+04  0.10023537434E+04 0.  0.
         13    1    3    3    0    0  0.32512869962E+02 -0.59309515851E+03  0.18323201012E+03  0.62160512744E+03  0.10566000000E+00 0. -1.
         -4    1    3    3    0  502 -0.96808801846E+02  0.30506130973E+03 -0.28443914321E+03  0.42818217268E+03  0.00000000000E+00 0. -1.
        -13    1    1    2    0    0  0.64295931885E+02  0.28803384878E+03  0.54749901245E+03  0.62197479426E+03  0.10566000000E+00 0.  1.
<mgrwt>
<rscale>  1 0.76173852E+03</rscale>
<asrwt>0</asrwt>
<pdfrwt beam="2">  1       21 0.94266940E-01 0.10448974E+04</pdfrwt>
<pdfrwt beam="1">  1       -4 0.16292723E+00 0.10448974E+04</pdfrwt>
<totfact> 0.83489869E+00</totfact>
</mgrwt>
</event>
<event>
 6    2  0.2267664E-005  0.1043813E+04  0.7818608E-02  0.9616828E-01
         21   -1    0    0  501  502  0.00000000000E+00  0.00000000000E+00  0.35796385782E+03  0.35796385782E+03  0.00000000000E+00 0. -1.
         -4   -1    0    0    0  501 -0.00000000000E+00 -0.00000000000E+00 -0.14718324892E+04  0.14718324892E+04  0.00000000000E+00 0. -1.
   -9000010    2    1    2    0  502  0.28072233903E+03  0.94903425543E+02 -0.52014783140E+03  0.11662331689E+04  0.10008667973E+04 0.  0.
         13    1    3    3    0    0  0.36960228194E+03  0.19908812308E+03  0.17711864278E+03  0.45564564340E+03  0.10566000000E+00 0. -1.
         -4    1    3    3    0  502 -0.88879942904E+02 -0.10418469754E+03 -0.69726647418E+03  0.71058752555E+03  0.00000000000E+00 0. -1.
        -13    1    1    2    0    0 -0.28072233903E+03 -0.94903425543E+02 -0.59372079998E+03  0.66356317808E+03  0.10566000000E+00 0.  1.
<mgrwt>
<rscale>  1 0.76192311E+03</rscale>
<asrwt>0</asrwt>
<pdfrwt beam="1">  1       21 0.55071364E-01 0.10438132E+04</pdfrwt>
<pdfrwt beam="2">  1       -4 0.22643576E+00 0.10438132E+04</pdfrwt>
<totfact> 0.10761374E+01</totfact>
</mgrwt>
</event>
<event>
 6    2  0.2267664E-005  0.1056689E+04  0.7818608E-02  0.9548926E-01
         21   -1    0    0  501  502  0.00000000000E+00  0.00000000000E+00  0.25233895760E+03  0.25233895760E+03  0.00000000000E+00 0.  1.
         -4   -1    0    0    0  501 -0.00000000000E+00 -0.00000000000E+00 -0.19978011665E+04  0.19978011665E+04  0.00000000000E+00 0. -1.
   -9000010    2    1    2    0  502 -0.17404290983E+03 -0.31596171477E+03 -0.13591960406E+04  0.17216287207E+04  0.99321137494E+03 0.  0.
         13    1    3    3    0    0 -0.12374170105E+03 -0.64606339074E+03 -0.59221984674E+03  0.88511822457E+03  0.10566000000E+00 0. -1.
         -4    1    3    3    0  502 -0.50301208779E+02  0.33010167598E+03 -0.76697619388E+03  0.83651049609E+03  0.00000000000E+00 0. -1.
        -13    1    1    2    0    0  0.17404290983E+03  0.31596171477E+03 -0.38626616831E+03  0.52851140348E+03  0.10566000000E+00 0.  1.
<mgrwt>
<rscale>  1 0.80770838E+03</rscale>
<asrwt>0</asrwt>
<pdfrwt beam="1">  1       21 0.38821377E-01 0.10566890E+04</pdfrwt>
<pdfrwt beam="2">  1       -4 0.30735404E+00 0.10566890E+04</pdfrwt>
<totfact> 0.71519610E+00</totfact>
</mgrwt>
</event>
<event>
 6    2  0.2267664E-005  0.9974324E+03  0.7818608E-02  0.9973474E-01
         -4   -1    0    0    0  501 -0.00000000000E+00  0.00000000000E+00  0.14853528745E+04  0.14853528745E+04  0.00000000000E+00 0. -1.
         21   -1    0    0  501  502  0.00000000000E+00 -0.00000000000E+00 -0.25143098894E+03  0.25143098894E+03  0.00000000000E+00 0. -1.
   -9000010    2    1    2    0  502 -0.93594442098E+02 -0.47824405402E+02  0.76716014410E+03  0.12583346730E+04  0.99187921105E+03 0.  0.
         13    1    3    3    0    0 -0.22613118857E+02 -0.39232636525E+03 -0.22765884124E+02  0.39363641430E+03  0.10566000000E+00 0. -1.
         -4    1    3    3    0  502 -0.70981323241E+02  0.34450195985E+03  0.78992602823E+03  0.86469825874E+03  0.00000000000E+00 0. -1.
        -13    1    1    2    0    0  0.93594442098E+02  0.47824405402E+02  0.46676174147E+03  0.47844919041E+03  0.10566000000E+00 0.  1.
<mgrwt>
<rscale>  1 0.56828825E+03</rscale>
<asrwt>0</asrwt>
<pdfrwt beam="2">  1       21 0.38681692E-01 0.99743244E+03</pdfrwt>
<pdfrwt beam="1">  1       -4 0.22851582E+00 0.99743244E+03</pdfrwt>
<totfact> 0.22337536E+01</totfact>
</mgrwt>
</event>
<event>
 6    2  0.2267664E-005  0.8473363E+03  0.7818608E-02  0.9938828E-01
         -4   -1    0    0    0  501 -0.00000000000E+00  0.00000000000E+00  0.44968225761E+03  0.44968225761E+03  0.00000000000E+00 0. -1.
         21   -1    0    0  501  502  0.00000000000E+00 -0.00000000000E+00 -0.96433451781E+03  0.96433451781E+03  0.00000000000E+00 0. -1.
   -9000010    2    1    2    0  502 -0.46763231159E+02 -0.18560601731E+03 -0.73531724925E+03  0.11219047387E+04  0.82543466865E+03 0.  0.
         13    1    3    3    0    0 -0.30502048400E+03  0.20078938099E+00 -0.74351232473E+03  0.80364676579E+03  0.10566000000E+00 0. -1.
         -4    1    3    3    0  502  0.25825725284E+03 -0.18580680669E+03  0.81950754816E+01  0.31825797290E+03  0.00000000000E+00 0. -1.
        -13    1    1    2    0    0  0.46763231159E+02  0.18560601731E+03  0.22066498905E+03  0.29211203673E+03  0.10566000000E+00 0.  1.
<mgrwt>
<rscale>  1 0.58415885E+03</rscale>
<asrwt>0</asrwt>
<pdfrwt beam="2">  1       21 0.14835915E+00 0.84733629E+03</pdfrwt>
<pdfrwt beam="1">  1       -4 0.69181887E-01 0.84733629E+03</pdfrwt>
<totfact> 0.21679335E+01</totfact>
</mgrwt>
</event>
<event>
 6    2  0.2267664E-005  0.1003479E+04  0.7818608E-02  0.9864639E-01
         -4   -1    0    0    0  501 -0.00000000000E+00  0.00000000000E+00  0.96664413953E+03  0.96664413953E+03  0.00000000000E+00 0. -1.
         21   -1    0    0  501  502  0.00000000000E+00 -0.00000000000E+00 -0.35679319685E+03  0.35679319685E+03  0.00000000000E+00 0. -1.
   -9000010    2    1    2    0  502  0.13787350443E+03 -0.48901972184E+02  0.43032635007E+03  0.10918566882E+04  0.99275865841E+03 0.  0.
         13    1    3    3    0    0  0.33971381071E+03 -0.11743013377E+02  0.68504705933E+03  0.76474365392E+03  0.10566000000E+00 0. -1.
         -4    1    3    3    0  502 -0.20184030628E+03 -0.37158958807E+02 -0.25472070925E+03  0.32711303426E+03  0.00000000000E+00 0. -1.
        -13    1    1    2    0    0 -0.13787350443E+03  0.48901972184E+02  0.17952459261E+03  0.23158064820E+03  0.10566000000E+00 0.  1.
<mgrwt>
<rscale>  1 0.62006080E+03</rscale>
<asrwt>0</asrwt>
<pdfrwt beam="2">  1       21 0.54891261E-01 0.10034791E+04</pdfrwt>
<pdfrwt beam="1">  1       -4 0.14871448E+00 0.10034791E+04</pdfrwt>
<totfact> 0.37481003E+01</totfact>
</mgrwt>
</event>
<event>
 6    2  0.2267664E-005  0.1004481E+04  0.7818608E-02  0.1007433E+00
         21   -1    0    0  501  502  0.00000000000E+00  0.00000000000E+00  0.26639065869E+04  0.26639065869E+04  0.00000000000E+00 0. -1.
         -4   -1    0    0    0  501 -0.00000000000E+00 -0.00000000000E+00 -0.15248527750E+03  0.15248527750E+03  0.00000000000E+00 0. -1.
   -9000010    2    1    2    0  502 -0.71467134805E+02 -0.22748448027E+02  0.25436191488E+04  0.27347722879E+04  0.10016766193E+04 0.  0.
         13    1    3    3    0    0  0.24266830723E+03 -0.40859891493E+03  0.90371905290E+03  0.10210529459E+04  0.10566000000E+00 0. -1.
         -4    1    3    3    0  502 -0.31413544204E+03  0.38585046690E+03  0.16399000959E+04  0.17137193420E+04  0.00000000000E+00 0. -1.
        -13    1    1    2    0    0  0.71467134805E+02  0.22748448027E+02 -0.32197839344E+02  0.81619576496E+02  0.10566000000E+00 0.  1.
<mgrwt>
<rscale>  1 0.52507577E+03</rscale>
<asrwt>0</asrwt>
<pdfrwt beam="1">  1       21 0.40983175E+00 0.10044805E+04</pdfrwt>
<pdfrwt beam="2">  1       -4 0.23459275E-01 0.10044805E+04</pdfrwt>
<totfact> 0.36852107E+00</totfact>
</mgrwt>
</event>
<event>
 6    2  0.2267664E-005  0.1003131E+04  0.7818608E-02  0.1011380E+00
         -4   -1    0    0    0  501 -0.00000000000E+00  0.00000000000E+00  0.34949812266E+03  0.34949812266E+03  0.00000000000E+00 0. -1.
         21   -1    0    0  501  502  0.00000000000E+00 -0.00000000000E+00 -0.89077957161E+03  0.89077957161E+03  0.00000000000E+00 0. -1.
   -9000010    2    1    2    0  502 -0.57865416582E+02 -0.33076292788E+02 -0.58435141779E+03  0.11609210250E+04  0.10009138820E+04 0.  0.
         13    1    3    3    0    0 -0.46793076046E+03 -0.19143852609E+03 -0.11623884840E+03  0.51876717986E+03  0.10566000000E+00 0. -1.
         -4    1    3    3    0  502  0.41006534388E+03  0.15836223330E+03 -0.46811256939E+03  0.64215384512E+03  0.00000000000E+00 0. -1.
        -13    1    1    2    0    0  0.57865416582E+02  0.33076292788E+02  0.43069968834E+02  0.79356669287E+02  0.10566000000E+00 0.  1.
<mgrwt>
<rscale>  1 0.50929691E+03</rscale>
<asrwt>0</asrwt>
<pdfrwt beam="2">  1       21 0.13704301E+00 0.10031306E+04</pdfrwt>
<pdfrwt beam="1">  1       -4 0.53768942E-01 0.10031306E+04</pdfrwt>
<totfact> 0.45900141E+01</totfact>
</mgrwt>
</event>
<event>
 6    2  0.2267664E-005  0.1009696E+04  0.7818608E-02  0.9852899E-01
         21   -1    0    0  501  502  0.00000000000E+00  0.00000000000E+00  0.65634619283E+03  0.65634619283E+03  0.00000000000E+00 0.  1.
         -4   -1    0    0    0  501 -0.00000000000E+00 -0.00000000000E+00 -0.52737064957E+03  0.52737064957E+03  0.00000000000E+00 0. -1.
   -9000010    2    1    2    0  502 -0.14505464878E+03  0.34834595606E+02  0.18087327806E+03  0.10257684767E+04  0.99861480306E+03 0.  0.
         13    1    3    3    0    0  0.11085920824E+03 -0.33444433058E+03 -0.22685614312E+03  0.41905428663E+03  0.10566000000E+00 0. -1.
         -4    1    3    3    0  502 -0.25591385702E+03  0.36927892619E+03  0.40772942118E+03  0.60671419007E+03  0.00000000000E+00 0. -1.
        -13    1    1    2    0    0  0.14505464878E+03 -0.34834595606E+02 -0.51897734795E+02  0.15794836569E+03  0.10566000000E+00 0.  1.
<mgrwt>
<rscale>  1 0.62599335E+03</rscale>
<asrwt>0</asrwt>
<pdfrwt beam="1">  1       21 0.10097634E+00 0.10096959E+04</pdfrwt>
<pdfrwt beam="2">  1       -4 0.81133946E-01 0.10096959E+04</pdfrwt>
<totfact> 0.40570677E+01</totfact>
</mgrwt>
</event>
<event>
 6    2  0.2267664E-005  0.1034217E+04  0.7818608E-02  0.9819454E-01
         21   -1    0    0  501  502  0.00000000000E+00  0.00000000000E+00  0.12909003852E+04  0.12909003852E+04  0.00000000000E+00 0. -1.
         -4   -1    0    0    0  501 -0.00000000000E+00 -0.00000000000E+00 -0.30189070311E+03  0.30189070311E+03  0.00000000000E+00 0. -1.
   -9000010    2    1    2    0  502  0.88970568288E+02  0.12668627791E+03  0.99866397495E+03  0.14376834110E+04  0.10225647561E+04 0.  0.
         13    1    3    3    0    0  0.51696699460E+03  0.19618538421E+03  0.34000209302E+03  0.64911094037E+03  0.10566000000E+00 0. -1.
         -4    1    3    3    0  502 -0.42799642632E+03 -0.69499106299E+02  0.65866188193E+03  0.78857247062E+03  0.00000000000E+00 0. -1.
        -13    1    1    2    0    0 -0.88970568288E+02 -0.12668627791E+03 -0.96542928355E+01  0.15510767733E+03  0.10566000000E+00 0.  1.
<mgrwt>
<rscale>  1 0.64328913E+03</rscale>
<asrwt>0</asrwt>
<pdfrwt beam="1">  1       21 0.19860006E+00 0.10342165E+04</pdfrwt>
<pdfrwt beam="2">  1       -4 0.46444724E-01 0.10342165E+04</pdfrwt>
<totfact> 0.21192046E+01</totfact>
</mgrwt>
</event>
<event>
 6    2  0.2267664E-005  0.1009717E+04  0.7818608E-02  0.9808663E-01
         -4   -1    0    0    0  501 -0.00000000000E+00  0.00000000000E+00  0.59649408775E+03  0.59649408775E+03  0.00000000000E+00 0. -1.
         21   -1    0    0  501  502  0.00000000000E+00 -0.00000000000E+00 -0.58969159501E+03  0.58969159501E+03  0.00000000000E+00 0. -1.
   -9000010    2    1    2    0  502 -0.15945084855E+02 -0.17159503299E+03 -0.29166559387E+02  0.10101377207E+04  0.99490121392E+03 0.  0.
         13    1    3    3    0    0 -0.11558629938E+03  0.10038315467E+03  0.43603511040E+03  0.46212941803E+03  0.10566000000E+00 0. -1.
         -4    1    3    3    0  502  0.99641214520E+02 -0.27197818766E+03 -0.46520166978E+03  0.54800830264E+03  0.00000000000E+00 0. -1.
        -13    1    1    2    0    0  0.15945084855E+02  0.17159503299E+03  0.35969052130E+02  0.17604796209E+03  0.10566000000E+00 0.  1.
<mgrwt>
<rscale>  1 0.64899678E+03</rscale>
<asrwt>0</asrwt>
<pdfrwt beam="2">  1       21 0.90721783E-01 0.10097166E+04</pdfrwt>
<pdfrwt beam="1">  1       -4 0.91768322E-01 0.10097166E+04</pdfrwt>
<totfact> 0.39572262E+01</totfact>
</mgrwt>
</event>
<event>
 6    2  0.2267664E-005  0.1178039E+04  0.7818608E-02  0.9310455E-01
         -4   -1    0    0    0  501 -0.00000000000E+00  0.00000000000E+00  0.74170375356E+03  0.74170375356E+03  0.00000000000E+00 0. -1.
         21   -1    0    0  501  502  0.00000000000E+00 -0.00000000000E+00 -0.10920706604E+04  0.10920706604E+04  0.00000000000E+00 0. -1.
   -9000010    2    1    2    0  502  0.56509473110E+03 -0.22279508151E+03 -0.12002408925E+03  0.11841379554E+04  0.10093598031E+04 0.  0.
         13    1    3    3    0    0  0.29132079202E+03 -0.30498704955E+03 -0.53436854127E+03  0.68076034940E+03  0.10566000000E+00 0. -1.
         -4    1    3    3    0  502  0.27377393907E+03  0.82191968044E+02  0.41434445202E+03  0.50337760602E+03  0.00000000000E+00 0. -1.
        -13    1    1    2    0    0 -0.56509473110E+03  0.22279508151E+03 -0.23034281755E+03  0.64963645850E+03  0.10566000000E+00 0.  1.
<mgrwt>
<rscale>  1 0.99826022E+03</rscale>
<asrwt>0</asrwt>
<pdfrwt beam="2">  1       21 0.16801087E+00 0.11780394E+04</pdfrwt>
<pdfrwt beam="1">  1       -4 0.11410827E+00 0.11780394E+04</pdfrwt>
<totfact> 0.45053390E+00</totfact>
</mgrwt>
</event>
<event>
 6    2  0.2267664E-005  0.1016157E+04  0.7818608E-02  0.9927039E-01
         21   -1    0    0  501  502  0.00000000000E+00  0.00000000000E+00  0.20686869574E+03  0.20686869574E+03  0.00000000000E+00 0. -1.
         -4   -1    0    0    0  501 -0.00000000000E+00 -0.00000000000E+00 -0.17595050560E+04  0.17595050560E+04  0.00000000000E+00 0. -1.
   -9000010    2    1    2    0  502 -0.60998632343E+02 -0.97770984018E+02 -0.10924855461E+04  0.14920123058E+04  0.10096019284E+04 0.  0.
         13    1    3    3    0    0 -0.14581376610E+03 -0.47190591197E+03 -0.97134822683E+03  0.10897129131E+04  0.10566000000E+00 0. -1.
         -4    1    3    3    0  502  0.84815133761E+02  0.37413492795E+03 -0.12113731930E+03  0.40229939269E+03  0.00000000000E+00 0. -1.
        -13    1    1    2    0    0  0.60998632343E+02  0.97770984018E+02 -0.46015081408E+03  0.47436144586E+03  0.10566000000E+00 0.  1.
<mgrwt>
<rscale>  1 0.58968566E+03</rscale>
<asrwt>0</asrwt>
<pdfrwt beam="1">  1       21 0.31825952E-01 0.10161575E+04</pdfrwt>
<pdfrwt beam="2">  1       -4 0.27069309E+00 0.10161575E+04</pdfrwt>
<totfact> 0.18226328E+01</totfact>
</mgrwt>
</event>
<event>
 6    2  0.2267664E-005  0.1002822E+04  0.7818608E-02  0.9918564E-01
         -4   -1    0    0    0  501 -0.00000000000E+00  0.00000000000E+00  0.29755078756E+03  0.29755078756E+03  0.00000000000E+00 0. -1.
         21   -1    0    0  501  502  0.00000000000E+00 -0.00000000000E+00 -0.10916072665E+04  0.10916072665E+04  0.00000000000E+00 0. -1.
   -9000010    2    1    2    0  502  0.95773067736E+02 -0.77489968727E+02 -0.76828667690E+03  0.12632959485E+04  0.99522613506E+03 0.  0.
         13    1    3    3    0    0  0.35577186114E+03  0.20003206094E+03 -0.23591230010E+01  0.40815685613E+03  0.10566000000E+00 0. -1.
         -4    1    3    3    0  502 -0.25999879340E+03 -0.27752202966E+03 -0.76592755390E+03  0.85513909239E+03  0.00000000000E+00 0. -1.
        -13    1    1    2    0    0 -0.95773067736E+02  0.77489968727E+02 -0.25769802073E+02  0.12586210557E+03  0.10566000000E+00 0.  1.
<mgrwt>
<rscale>  1 0.59369972E+03</rscale>
<asrwt>0</asrwt>
<pdfrwt beam="2">  1       21 0.16793958E+00 0.10028221E+04</pdfrwt>
<pdfrwt beam="1">  1       -4 0.45777044E-01 0.10028221E+04</pdfrwt>
<totfact> 0.36438552E+01</totfact>
</mgrwt>
</event>
<event>
 6    2  0.2267664E-005  0.1017407E+04  0.7818608E-02  0.9899751E-01
         -4   -1    0    0    0  501 -0.00000000000E+00  0.00000000000E+00  0.83120345672E+03  0.83120345672E+03  0.00000000000E+00 0. -1.
         21   -1    0    0  501  502  0.00000000000E+00 -0.00000000000E+00 -0.41126292931E+03  0.41126292931E+03  0.00000000000E+00 0. -1.
   -9000010    2    1    2    0  502 -0.12526136423E+03  0.38018800887E+01  0.45172173870E+03  0.11131801910E+04  0.10096597174E+04 0.  0.
         13    1    3    3    0    0  0.13396292152E+03  0.26220996181E+01 -0.29432038255E+03  0.32338435104E+03  0.10566000000E+00 0. -1.
         -4    1    3    3    0  502 -0.25922428575E+03  0.11797804706E+01  0.74604212125E+03  0.78979584000E+03  0.00000000000E+00 0. -1.
        -13    1    1    2    0    0  0.12526136423E+03 -0.38018800887E+01 -0.31781211283E+02  0.12928619499E+03  0.10566000000E+00 0.  1.
<mgrwt>
<rscale>  1 0.60273374E+03</rscale>
<asrwt>0</asrwt>
<pdfrwt beam="2">  1       21 0.63271220E-01 0.10174073E+04</pdfrwt>
<pdfrwt beam="1">  1       -4 0.12787745E+00 0.10174073E+04</pdfrwt>
<totfact> 0.40522505E+01</totfact>
</mgrwt>
</event>
<event>
 6    2  0.2267664E-005  0.1133209E+04  0.7818608E-02  0.9411631E-01
         21   -1    0    0  501  502  0.00000000000E+00  0.00000000000E+00  0.73264112540E+03  0.73264112540E+03  0.00000000000E+00 0. -1.
         -4   -1    0    0    0  501 -0.00000000000E+00 -0.00000000000E+00 -0.92237913193E+03  0.92237913193E+03  0.00000000000E+00 0. -1.
   -9000010    2    1    2    0  502 -0.12270074462E+03  0.45765759986E+03  0.28023153740E+02  0.11335551238E+04  0.10293959248E+04 0.  0.
         13    1    3    3    0    0  0.75011014935E+02 -0.30094314485E+03  0.14246148353E+03  0.34130443045E+03  0.10566000000E+00 0. -1.
         -4    1    3    3    0  502 -0.19771175955E+03  0.75860074471E+03 -0.11443832979E+03  0.79225069332E+03  0.00000000000E+00 0. -1.
        -13    1    1    2    0    0  0.12270074462E+03 -0.45765759986E+03 -0.21776116027E+03  0.52146513356E+03  0.10566000000E+00 0.  1.
<mgrwt>
<rscale>  1 0.91124657E+03</rscale>
<asrwt>0</asrwt>
<pdfrwt beam="1">  1       21 0.11271402E+00 0.11332087E+04</pdfrwt>
<pdfrwt beam="2">  1       -4 0.14190448E+00 0.11332087E+04</pdfrwt>
<totfact> 0.76858292E+00</totfact>
</mgrwt>
</event>
<event>
 6    2  0.2267664E-005  0.1012632E+04  0.7818608E-02  0.9913514E-01
         -4   -1    0    0    0  501 -0.00000000000E+00  0.00000000000E+00  0.21276344731E+04  0.21276344731E+04  0.00000000000E+00 0. -1.
         21   -1    0    0  501  502  0.00000000000E+00 -0.00000000000E+00 -0.18709161332E+03  0.18709161332E+03  0.00000000000E+00 0. -1.
   -9000010    2    1    2    0  502  0.74677280894E+02  0.95971626369E+02  0.12270066306E+04  0.15909020671E+04  0.10053043651E+04 0.  0.
         13    1    3    3    0    0  0.78157170299E+02  0.30533334679E+03  0.13233827098E+04  0.13603965612E+04  0.10566000000E+00 0. -1.
         -4    1    3    3    0  502 -0.34798894051E+01 -0.20936172042E+03 -0.96376079255E+02  0.23050550592E+03  0.00000000000E+00 0. -1.
        -13    1    1    2    0    0 -0.74677280894E+02 -0.95971626369E+02  0.71353622919E+03  0.72382401928E+03  0.10566000000E+00 0.  1.
<mgrwt>
<rscale>  1 0.59610778E+03</rscale>
<asrwt>0</asrwt>
<pdfrwt beam="2">  1       21 0.28783327E-01 0.10126323E+04</pdfrwt>
<pdfrwt beam="1">  1       -4 0.32732836E+00 0.10126323E+04</pdfrwt>
<totfact> 0.99434037E+00</totfact>
</mgrwt>
</event>
<event>
 6    2  0.2267664E-005  0.1008461E+04  0.7818608E-02  0.9980654E-01
         21   -1    0    0  501  502  0.00000000000E+00  0.00000000000E+00  0.31159433404E+03  0.31159433404E+03  0.00000000000E+00 0. -1.
         -4   -1    0    0    0  501 -0.00000000000E+00 -0.00000000000E+00 -0.10107851309E+04  0.10107851309E+04  0.00000000000E+00 0. -1.
   -9000010    2    1    2    0  502 -0.39233253832E+02 -0.91338851962E+02 -0.56682612391E+03  0.11568426053E+04  0.10035491640E+04 0.  0.
         13    1    3    3    0    0  0.46172886650E+03  0.72829119241E+02 -0.36221356966E+03  0.59135125601E+03  0.10566000000E+00 0. -1.
         -4    1    3    3    0  502 -0.50096212034E+03 -0.16416797120E+03 -0.20461255425E+03  0.56549134931E+03  0.00000000000E+00 0. -1.
        -13    1    1    2    0    0  0.39233253832E+02  0.91338851962E+02 -0.13236467293E+03  0.16553685961E+03  0.10566000000E+00 0.  1.
<mgrwt>
<rscale>  1 0.56506718E+03</rscale>
<asrwt>0</asrwt>
<pdfrwt beam="1">  1       21 0.47937590E-01 0.10084607E+04</pdfrwt>
<pdfrwt beam="2">  1       -4 0.15550540E+00 0.10084607E+04</pdfrwt>
<totfact> 0.44572973E+01</totfact>
</mgrwt>
</event>
<event>
 6    2  0.2267664E-005  0.1004326E+04  0.7818608E-02  0.9700378E-01
         -4   -1    0    0    0  501 -0.00000000000E+00  0.00000000000E+00  0.98762115480E+03  0.98762115480E+03  0.00000000000E+00 0. -1.
         21   -1    0    0  501  502  0.00000000000E+00 -0.00000000000E+00 -0.40370475630E+03  0.40370475630E+03  0.00000000000E+00 0. -1.
   -9000010    2    1    2    0  502  0.12378555095E+03  0.21808504183E+03  0.40325807575E+03  0.10822605639E+04  0.97251576051E+03 0.  0.
         13    1    3    3    0    0 -0.20382530832E+03  0.21225542006E+02  0.61295709464E+03  0.64630618980E+03  0.10566000000E+00 0. -1.
         -4    1    3    3    0  502  0.32761085927E+03  0.19685949982E+03 -0.20969901889E+03  0.43595437411E+03  0.00000000000E+00 0. -1.
        -13    1    1    2    0    0 -0.12378555095E+03 -0.21808504183E+03  0.18065832276E+03  0.30906534720E+03  0.10566000000E+00 0.  1.
<mgrwt>
<rscale>  1 0.70994309E+03</rscale>
<asrwt>0</asrwt>
<pdfrwt beam="2">  1       21 0.62108424E-01 0.10043261E+04</pdfrwt>
<pdfrwt beam="1">  1       -4 0.15194172E+00 0.10043261E+04</pdfrwt>
<totfact> 0.26898195E+01</totfact>
</mgrwt>
</event>
<event>
 6    2  0.2267664E-005  0.1079904E+04  0.7818608E-02  0.9591163E-01
         21   -1    0    0  501  502  0.00000000000E+00  0.00000000000E+00  0.72095401757E+03  0.72095401757E+03  0.00000000000E+00 0. -1.
         -4   -1    0    0    0  501 -0.00000000000E+00 -0.00000000000E+00 -0.65561393058E+03  0.65561393058E+03  0.00000000000E+00 0. -1.
   -9000010    2    1    2    0  502  0.29215560401E+03 -0.27974147655E+01  0.14451968138E+02  0.10800003601E+04  0.10396293551E+04 0.  0.
         13    1    3    3    0    0  0.49589220174E+03 -0.30752439888E+03  0.25998411325E+03  0.63880519876E+03  0.10566000000E+00 0. -1.
         -4    1    3    3    0  502 -0.20373659773E+03  0.30472698412E+03 -0.24553214511E+03  0.44119516134E+03  0.00000000000E+00 0. -1.
        -13    1    1    2    0    0 -0.29215560401E+03  0.27974147655E+01  0.50888118857E+02  0.29656758806E+03  0.10566000000E+00 0.  1.
<mgrwt>
<rscale>  1 0.77883840E+03</rscale>
<asrwt>0</asrwt>
<pdfrwt beam="1">  1       21 0.11091600E+00 0.10799037E+04</pdfrwt>
<pdfrwt beam="2">  1       -4 0.10086368E+00 0.10799037E+04</pdfrwt>
<totfact> 0.19047969E+01</totfact>
</mgrwt>
</event>
<event>
 6    2  0.2267664E-005  0.1020488E+04  0.7818608E-02  0.9677788E-01
         21   -1    0    0  501  502  0.00000000000E+00  0.00000000000E+00  0.11573163767E+04  0.11573163767E+04  0.00000000000E+00 0. -1.
         -4   -1    0    0    0  501 -0.00000000000E+00 -0.00000000000E+00 -0.47378161968E+03  0.47378161968E+03  0.00000000000E+00 0. -1.
   -9000010    2    1    2    0  502 -0.34666367721E+02 -0.25555626345E+03  0.84662531149E+03  0.13259598294E+04  0.98736228929E+03 0.  0.
         13    1    3    3    0    0 -0.93999725242E+02  0.29814029931E+03  0.67397346903E+03  0.74294268590E+03  0.10566000000E+00 0. -1.
         -4    1    3    3    0  502  0.59333357522E+02 -0.55369656275E+03  0.17265184247E+03  0.58301714351E+03  0.00000000000E+00 0. -1.
        -13    1    1    2    0    0  0.34666367721E+02  0.25555626345E+03 -0.16309055445E+03  0.30513816699E+03  0.10566000000E+00 0.  1.
<mgrwt>
<rscale>  1 0.72354795E+03</rscale>
<asrwt>0</asrwt>
<pdfrwt beam="1">  1       21 0.17804867E+00 0.10204877E+04</pdfrwt>
<pdfrwt beam="2">  1       -4 0.72889480E-01 0.10204877E+04</pdfrwt>
<totfact> 0.11174915E+01</totfact>
</mgrwt>
</event>
<event>
 6    2  0.2267664E-005  0.1115721E+04  0.7818608E-02  0.9412640E-01
         21   -1    0    0  501  502  0.00000000000E+00  0.00000000000E+00  0.96193299675E+03  0.96193299675E+03  0.00000000000E+00 0. -1.
         -4   -1    0    0    0  501 -0.00000000000E+00 -0.00000000000E+00 -0.75364130482E+03  0.75364130482E+03  0.00000000000E+00 0. -1.
   -9000010    2    1    2    0  502 -0.47664049833E+03 -0.13233036119E+03  0.39971335118E+03  0.11851596035E+04  0.10000675145E+04 0.  0.
         13    1    3    3    0    0 -0.17962905109E+03  0.35893603412E+03  0.45700096098E+03  0.60823643601E+03  0.10566000000E+00 0. -1.
         -4    1    3    3    0  502 -0.29701144724E+03 -0.49126639531E+03 -0.57287609803E+02  0.57692316749E+03  0.00000000000E+00 0. -1.
        -13    1    1    2    0    0  0.47664049833E+03  0.13233036119E+03 -0.19142165924E+03  0.53041469807E+03  0.10566000000E+00 0.  1.
<mgrwt>
<rscale>  1 0.91042734E+03</rscale>
<asrwt>0</asrwt>
<pdfrwt beam="1">  1       21 0.14798969E+00 0.11157206E+04</pdfrwt>
<pdfrwt beam="2">  1       -4 0.11594482E+00 0.11157206E+04</pdfrwt>
<totfact> 0.62651805E+00</totfact>
</mgrwt>
</event>
<event>
 6    2  0.2267664E-005  0.1009057E+04  0.7818608E-02  0.9734348E-01
         -4   -1    0    0    0  501 -0.00000000000E+00  0.00000000000E+00  0.34274923890E+03  0.34274923890E+03  0.00000000000E+00 0. -1.
         21   -1    0    0  501  502  0.00000000000E+00 -0.00000000000E+00 -0.11383417152E+04  0.11383417152E+04  0.00000000000E+00 0. -1.
   -9000010    2    1    2    0  502  0.47489718451E+02  0.21555565076E+03 -0.74596846048E+03  0.12548564164E+04  0.98461980979E+03 0.  0.
         13    1    3    3    0    0  0.38368383663E+02  0.42289404706E+03  0.54323584360E+02  0.42809177858E+03  0.10566000000E+00 0. -1.
         -4    1    3    3    0  502  0.91213347879E+01 -0.20733839630E+03 -0.80029204484E+03  0.82676463783E+03  0.00000000000E+00 0. -1.
        -13    1    1    2    0    0 -0.47489718451E+02 -0.21555565076E+03 -0.49624015819E+02  0.22623453769E+03  0.10566000000E+00 0.  1.
<mgrwt>
<rscale>  1 0.69008025E+03</rscale>
<asrwt>0</asrwt>
<pdfrwt beam="2">  1       21 0.17512949E+00 0.10090568E+04</pdfrwt>
<pdfrwt beam="1">  1       -4 0.52730652E-01 0.10090568E+04</pdfrwt>
<totfact> 0.23902152E+01</totfact>
</mgrwt>
</event>
<event>
 6    2  0.2267664E-005  0.1035791E+04  0.7818608E-02  0.9683302E-01
         21   -1    0    0  501  502  0.00000000000E+00  0.00000000000E+00  0.11385332407E+04  0.11385332407E+04  0.00000000000E+00 0.  1.
         -4   -1    0    0    0  501 -0.00000000000E+00 -0.00000000000E+00 -0.36065505806E+03  0.36065505806E+03  0.00000000000E+00 0. -1.
   -9000010    2    1    2    0  502  0.23883766761E+03  0.39592651892E+02  0.58441756760E+03  0.11892882660E+04  0.10071006289E+04 0.  0.
         13    1    3    3    0    0 -0.36760630195E+03 -0.14703047298E+03  0.16644768383E+03  0.42948480280E+03  0.10566000000E+00 0. -1.
         -4    1    3    3    0  502  0.60644396957E+03  0.18662312487E+03  0.41796988377E+03  0.75980346320E+03  0.00000000000E+00 0. -1.
        -13    1    1    2    0    0 -0.23883766761E+03 -0.39592651892E+02  0.19346061501E+03  0.30990003272E+03  0.10566000000E+00 0.  1.
<mgrwt>
<rscale>  1 0.72019735E+03</rscale>
<asrwt>0</asrwt>
<pdfrwt beam="1">  1       21 0.17515896E+00 0.10357909E+04</pdfrwt>
<pdfrwt beam="2">  1       -4 0.55485394E-01 0.10357909E+04</pdfrwt>
<totfact> 0.21359456E+01</totfact>
</mgrwt>
</event>
<event>
 6    2  0.2267664E-005  0.1030507E+04  0.7818608E-02  0.9709454E-01
         -4   -1    0    0    0  501 -0.00000000000E+00  0.00000000000E+00  0.10490935403E+04  0.10490935403E+04  0.00000000000E+00 0. -1.
         21   -1    0    0  501  502  0.00000000000E+00 -0.00000000000E+00 -0.37784387304E+03  0.37784387304E+03  0.00000000000E+00 0. -1.
   -9000010    2    1    2    0  502  0.86659134491E+02 -0.20784044697E+03  0.59057567101E+03  0.11877392490E+04  0.10056030248E+04 0.  0.
         13    1    3    3    0    0  0.40746153965E+03 -0.15211374068E+03 -0.80061560796E+02  0.44223677038E+03  0.10566000000E+00 0. -1.
         -4    1    3    3    0  502 -0.32080240516E+03 -0.55726706295E+02  0.67063723181E+03  0.74550247862E+03  0.00000000000E+00 0. -1.
        -13    1    1    2    0    0 -0.86659134491E+02  0.20784044697E+03  0.80673996263E+02  0.23919816434E+03  0.10566000000E+00 0.  1.
<mgrwt>
<rscale>  1 0.70456699E+03</rscale>
<asrwt>0</asrwt>
<pdfrwt beam="2">  1       21 0.58129827E-01 0.10305071E+04</pdfrwt>
<pdfrwt beam="1">  1       -4 0.16139900E+00 0.10305071E+04</pdfrwt>
<totfact> 0.26375145E+01</totfact>
</mgrwt>
</event>
<event>
 6    2  0.2267664E-005  0.1043096E+04  0.7818608E-02  0.9628891E-01
         21   -1    0    0  501  502  0.00000000000E+00  0.00000000000E+00  0.32865061082E+03  0.32865061082E+03  0.00000000000E+00 0. -1.
         -4   -1    0    0    0  501 -0.00000000000E+00 -0.00000000000E+00 -0.23965419197E+04  0.23965419197E+04  0.00000000000E+00 0. -1.
   -9000010    2    1    2    0  502  0.20097164541E+03 -0.20205085905E+03 -0.54697508218E+03  0.11778075326E+04  0.10034115265E+04 0.  0.
         13    1    3    3    0    0  0.46225323397E+03 -0.34071488526E+03 -0.21326443358E+02  0.57464729505E+03  0.10566000000E+00 0. -1.
         -4    1    3    3    0  502 -0.26128158856E+03  0.13866402621E+03 -0.52564863882E+03  0.60316023756E+03  0.00000000000E+00 0. -1.
        -13    1    1    2    0    0 -0.20097164541E+03  0.20205085905E+03 -0.15209162267E+04  0.15473849979E+04  0.10566000000E+00 0.  1.
<mgrwt>
<rscale>  1 0.75413156E+03</rscale>
<asrwt>0</asrwt>
<pdfrwt beam="1">  1       21 0.50561634E-01 0.10430958E+04</pdfrwt>
<pdfrwt beam="2">  1       -4 0.36869875E+00 0.10430958E+04</pdfrwt>
<totfact> 0.16530921E+00</totfact>
</mgrwt>
</event>
<event>
 6    2  0.2267664E-005  0.1060451E+04  0.7818608E-02  0.9572322E-01
         21   -1    0    0  501  502  0.00000000000E+00  0.00000000000E+00  0.11874257497E+04  0.11874257497E+04  0.00000000000E+00 0. -1.
         -4   -1    0    0    0  501 -0.00000000000E+00 -0.00000000000E+00 -0.45370783299E+03  0.45370783299E+03  0.00000000000E+00 0. -1.
   -9000010    2    1    2    0  502  0.32525892996E+03 -0.50750758856E+02  0.76917849640E+03  0.13100346928E+04  0.10080606757E+04 0.  0.
         13    1    3    3    0    0  0.23428502201E+03 -0.51539880705E+03  0.54623692400E+03  0.78670209747E+03  0.10566000000E+00 0. -1.
         -4    1    3    3    0  502  0.90973907949E+02  0.46464804820E+03  0.22294157240E+03  0.52333259532E+03  0.00000000000E+00 0. -1.
        -13    1    1    2    0    0 -0.32525892996E+03  0.50750758856E+02 -0.35460579664E+02  0.33109888994E+03  0.10566000000E+00 0.  1.
<mgrwt>
<rscale>  1 0.79155474E+03</rscale>
<asrwt>0</asrwt>
<pdfrwt beam="1">  1       21 0.18268088E+00 0.10604505E+04</pdfrwt>
<pdfrwt beam="2">  1       -4 0.69801206E-01 0.10604505E+04</pdfrwt>
<totfact> 0.11344322E+01</totfact>
</mgrwt>
</event>
<event>
 6    2  0.2267664E-005  0.1259485E+04  0.7818608E-02  0.9194017E-01
         21   -1    0    0  501  502  0.00000000000E+00  0.00000000000E+00  0.55707006093E+03  0.55707006093E+03  0.00000000000E+00 0.  1.
         -4   -1    0    0    0  501 -0.00000000000E+00 -0.00000000000E+00 -0.18702856405E+04  0.18702856405E+04  0.00000000000E+00 0. -1.
   -9000010    2    1    2    0  502  0.25940168049E+03  0.71866569885E+03 -0.65890849414E+03  0.14214295651E+04  0.10012651928E+04 0.  0.
         13    1    3    3    0    0 -0.31756368999E+03  0.75103480642E+02  0.13116891640E+02  0.32658734516E+03  0.10566000000E+00 0. -1.
         -4    1    3    3    0  502  0.57696537048E+03  0.64356221821E+03 -0.67202538578E+03  0.10948422199E+04  0.00000000000E+00 0. -1.
        -13    1    1    2    0    0 -0.25940168049E+03 -0.71866569885E+03 -0.65430708542E+03  0.10059261363E+04  0.10566000000E+00 0.  1.
<mgrwt>
<rscale>  1 0.11115394E+04</rscale>
<asrwt>0</asrwt>
<pdfrwt beam="1">  1       21 0.85703086E-01 0.12594847E+04</pdfrwt>
<pdfrwt beam="2">  1       -4 0.28773625E+00 0.12594847E+04</pdfrwt>
<totfact> 0.15809851E+00</totfact>
</mgrwt>
</event>
<event>
 6    2  0.2267664E-005  0.9932131E+03  0.7818608E-02  0.1039448E+00
         -4   -1    0    0    0  501 -0.00000000000E+00  0.00000000000E+00  0.87320547841E+03  0.87320547841E+03  0.00000000000E+00 0. -1.
         21   -1    0    0  501  502  0.00000000000E+00 -0.00000000000E+00 -0.30004067416E+03  0.30004067416E+03  0.00000000000E+00 0. -1.
   -9000010    2    1    2    0  502  0.24493616773E+02  0.16665331189E+02  0.56428748031E+03  0.11423190032E+04  0.99277120930E+03 0.  0.
         13    1    3    3    0    0  0.35326735215E+03 -0.23665655418E+03 -0.19930635028E+02  0.42567756355E+03  0.10566000000E+00 0. -1.
         -4    1    3    3    0  502 -0.32877373538E+03  0.25332188536E+03  0.58421811534E+03  0.71664143961E+03  0.00000000000E+00 0. -1.
        -13    1    1    2    0    0 -0.24493616773E+02 -0.16665331189E+02  0.88773239376E+01  0.30927149409E+02  0.10566000000E+00 0.  1.
<mgrwt>
<rscale>  1 0.41276135E+03</rscale>
<asrwt>0</asrwt>
<pdfrwt beam="2">  1       21 0.46160104E-01 0.99321314E+03</pdfrwt>
<pdfrwt beam="1">  1       -4 0.13433930E+00 0.99321314E+03</pdfrwt>
<totfact> 0.71358351E+01</totfact>
</mgrwt>
</event>
<event>
 6    2  0.2267664E-005  0.9835510E+03  0.7818608E-02  0.1001097E+00
         21   -1    0    0  501  502  0.00000000000E+00  0.00000000000E+00  0.31024866261E+03  0.31024866261E+03  0.00000000000E+00 0. -1.
         -4   -1    0    0    0  501 -0.00000000000E+00 -0.00000000000E+00 -0.98453753405E+03  0.98453753405E+03  0.00000000000E+00 0. -1.
   -9000010    2    1    2    0  502  0.79653954287E+02  0.56022083142E+02 -0.52057438965E+03  0.11128208722E+04  0.97871822921E+03 0.  0.
         13    1    3    3    0    0  0.19347716911E+03  0.49424591191E+03 -0.27735353044E+03  0.59886344722E+03  0.10566000000E+00 0. -1.
         -4    1    3    3    0  502 -0.11382321482E+03 -0.43822382877E+03 -0.24322085921E+03  0.51395742497E+03  0.00000000000E+00 0. -1.
        -13    1    1    2    0    0 -0.79653954287E+02 -0.56022083142E+02 -0.15371448179E+03  0.18196532447E+03  0.10566000000E+00 0.  1.
<mgrwt>
<rscale>  1 0.55171812E+03</rscale>
<asrwt>0</asrwt>
<pdfrwt beam="1">  1       21 0.47730563E-01 0.98355101E+03</pdfrwt>
<pdfrwt beam="2">  1       -4 0.15146731E+00 0.98355101E+03</pdfrwt>
<totfact> 0.48405163E+01</totfact>
</mgrwt>
</event>
<event>
 6    2  0.2267664E-005  0.9733818E+03  0.7818608E-02  0.9984758E-01
         -4   -1    0    0    0  501 -0.00000000000E+00  0.00000000000E+00  0.37058347397E+03  0.37058347397E+03  0.00000000000E+00 0. -1.
         21   -1    0    0  501  502  0.00000000000E+00 -0.00000000000E+00 -0.79232645656E+03  0.79232645656E+03  0.00000000000E+00 0. -1.
   -9000010    2    1    2    0  502  0.34780084614E+02  0.10343123911E+03 -0.36209604330E+03  0.10385497921E+04  0.96724580667E+03 0.  0.
         13    1    3    3    0    0 -0.26307302917E+03  0.42635098308E+03 -0.32610314344E+03  0.59776738852E+03  0.10566000000E+00 0. -1.
         -4    1    3    3    0  502  0.29785311378E+03 -0.32291974397E+03 -0.35992899861E+02  0.44078240355E+03  0.00000000000E+00 0. -1.
        -13    1    1    2    0    0 -0.34780084614E+02 -0.10343123911E+03 -0.59646939289E+02  0.12436013847E+03  0.10566000000E+00 0.  1.
<mgrwt>
<rscale>  1 0.56323663E+03</rscale>
<asrwt>0</asrwt>
<pdfrwt beam="2">  1       21 0.12189638E+00 0.97338180E+03</pdfrwt>
<pdfrwt beam="1">  1       -4 0.57012843E-01 0.97338180E+03</pdfrwt>
<totfact> 0.55363686E+01</totfact>
</mgrwt>
</event>
<event>
 6    2  0.2267664E-005  0.1050079E+04  0.7818608E-02  0.9504023E-01
         -4   -1    0    0    0  501 -0.00000000000E+00  0.00000000000E+00  0.17287180786E+03  0.17287180786E+03  0.00000000000E+00 0. -1.
         21   -1    0    0  501  502  0.00000000000E+00 -0.00000000000E+00 -0.31927752221E+04  0.31927752221E+04  0.00000000000E+00 0. -1.
   -9000010    2    1    2    0  502  0.28145093882E+03  0.32474229676E+03 -0.22755367784E+04  0.25061390952E+04  0.95811969196E+03 0.  0.
         13    1    3    3    0    0  0.60410865272E+03  0.37777064055E+03 -0.13861358260E+04  0.15585347159E+04  0.10566000000E+00 0. -1.
         -4    1    3    3    0  502 -0.32265771390E+03 -0.53028343792E+02 -0.88940095237E+03  0.94760437930E+03  0.00000000000E+00 0. -1.
        -13    1    1    2    0    0 -0.28145093882E+03 -0.32474229676E+03 -0.74436663579E+03  0.85950793475E+03  0.10566000000E+00 0.  1.
<mgrwt>
<rscale>  1 0.83987879E+03</rscale>
<asrwt>0</asrwt>
<pdfrwt beam="2">  1       21 0.49119617E+00 0.10500788E+04</pdfrwt>
<pdfrwt beam="1">  1       -4 0.26595664E-01 0.10500788E+04</pdfrwt>
<totfact> 0.79131523E-01</totfact>
</mgrwt>
</event>
<event>
 6    2  0.2267664E-005  0.9773405E+03  0.7818608E-02  0.9968920E-01
         21   -1    0    0  501  502  0.00000000000E+00  0.00000000000E+00  0.22354093859E+03  0.22354093859E+03  0.00000000000E+00 0. -1.
         -4   -1    0    0    0  501 -0.00000000000E+00 -0.00000000000E+00 -0.16723434322E+04  0.16723434322E+04  0.00000000000E+00 0. -1.
   -9000010    2    1    2    0  502 -0.10638326130E+03  0.39113878031E+02 -0.87757161637E+03  0.13135167721E+04  0.97074562836E+03 0.  0.
         13    1    3    3    0    0  0.26438229197E+03 -0.11958655962E+03 -0.86242296701E+03  0.90992984716E+03  0.10566000000E+00 0. -1.
         -4    1    3    3    0  502 -0.37076555327E+03  0.15870043765E+03 -0.15148649352E+02  0.40358692493E+03  0.00000000000E+00 0. -1.
        -13    1    1    2    0    0  0.10638326130E+03 -0.39113878031E+02 -0.57123087727E+03  0.58236759873E+03  0.10566000000E+00 0.  1.
<mgrwt>
<rscale>  1 0.57034273E+03</rscale>
<asrwt>0</asrwt>
<pdfrwt beam="1">  1       21 0.34390912E-01 0.97734046E+03</pdfrwt>
<pdfrwt beam="2">  1       -4 0.25728361E+00 0.97734046E+03</pdfrwt>
<totfact> 0.18899000E+01</totfact>
</mgrwt>
</event>
<event>
 6    2  0.2267664E-005  0.1018424E+04  0.7818608E-02  0.9795862E-01
         21   -1    0    0  501  502  0.00000000000E+00  0.00000000000E+00  0.84404898244E+03  0.84404898244E+03  0.00000000000E+00 0. -1.
         -4   -1    0    0    0  501 -0.00000000000E+00 -0.00000000000E+00 -0.54408406266E+03  0.54408406266E+03  0.00000000000E+00 0. -1.
   -9000010    2    1    2    0  502  0.97036678572E+02  0.14582439256E+03  0.48958531089E+03  0.11299920481E+04  0.10032484147E+04 0.  0.
         13    1    3    3    0    0 -0.17480072383E+03 -0.32199489103E+03  0.46005684570E+03  0.58812270432E+03  0.10566000000E+00 0. -1.
         -4    1    3    3    0  502  0.27183740241E+03  0.46781928359E+03  0.29528465196E+02  0.54186934376E+03  0.00000000000E+00 0. -1.
        -13    1    1    2    0    0 -0.97036678572E+02 -0.14582439256E+03 -0.18962039111E+03  0.25814099702E+03  0.10566000000E+00 0.  1.
<mgrwt>
<rscale>  1 0.65585083E+03</rscale>
<asrwt>0</asrwt>
<pdfrwt beam="1">  1       21 0.12985369E+00 0.10184244E+04</pdfrwt>
<pdfrwt beam="2">  1       -4 0.83705240E-01 0.10184244E+04</pdfrwt>
<totfact> 0.19778790E+01</totfact>
</mgrwt>
</event>
<event>
 6    2  0.2267664E-005  0.1221803E+04  0.7818608E-02  0.9240433E-01
         21   -1    0    0  501  502  0.00000000000E+00  0.00000000000E+00  0.71326566287E+03  0.71326566287E+03  0.00000000000E+00 0. -1.
         -4   -1    0    0    0  501 -0.00000000000E+00 -0.00000000000E+00 -0.13046915126E+04  0.13046915126E+04  0.00000000000E+00 0. -1.
   -9000010    2    1    2    0  502 -0.42639120786E+03 -0.56041719173E+03 -0.43220879081E+03  0.12959966683E+04  0.99846183422E+03 0.  0.
         13    1    3    3    0    0 -0.50159661321E+02  0.18761885086E+03 -0.41534306167E+03  0.45850484715E+03  0.10566000000E+00 0. -1.
         -4    1    3    3    0  502 -0.37623154654E+03 -0.74803604259E+03 -0.16865729138E+02  0.83749182112E+03  0.00000000000E+00 0. -1.
        -13    1    1    2    0    0  0.42639120786E+03  0.56041719173E+03 -0.15921705890E+03  0.72196050718E+03  0.10566000000E+00 0.  1.
<mgrwt>
<rscale>  1 0.10645663E+04</rscale>
<asrwt>0</asrwt>
<pdfrwt beam="1">  1       21 0.10973318E+00 0.12218031E+04</pdfrwt>
<pdfrwt beam="2">  1       -4 0.20072177E+00 0.12218031E+04</pdfrwt>
<totfact> 0.30506641E+00</totfact>
</mgrwt>
</event>
<event>
 6    2  0.2267664E-005  0.1045694E+04  0.7818608E-02  0.9589622E-01
         -4   -1    0    0    0  501 -0.00000000000E+00  0.00000000000E+00  0.11110183871E+04  0.11110183871E+04  0.00000000000E+00 0. -1.
         21   -1    0    0  501  502  0.00000000000E+00 -0.00000000000E+00 -0.47797514471E+03  0.47797514471E+03  0.00000000000E+00 0. -1.
   -9000010    2    1    2    0  502 -0.85467290791E+02  0.31200427410E+03  0.22736986341E+03  0.10701272423E+04  0.99439626658E+03 0.  0.
         13    1    3    3    0    0  0.15380510796E+03  0.59745831410E+03 -0.29544331839E+02  0.61764498462E+03  0.10566000000E+00 0. -1.
         -4    1    3    3    0  502 -0.23927239875E+03 -0.28545404000E+03  0.25691419525E+03  0.45248225764E+03  0.00000000000E+00 0. -1.
        -13    1    1    2    0    0  0.85467290791E+02 -0.31200427410E+03  0.40567337894E+03  0.51886628951E+03  0.10566000000E+00 0.  1.
<mgrwt>
<rscale>  1 0.77986864E+03</rscale>
<asrwt>0</asrwt>
<pdfrwt beam="2">  1       21 0.73534638E-01 0.10456937E+04</pdfrwt>
<pdfrwt beam="1">  1       -4 0.17092591E+00 0.10456937E+04</pdfrwt>
<totfact> 0.13172595E+01</totfact>
</mgrwt>
</event>
<event>
 6    2  0.2267664E-005  0.1106806E+04  0.7818608E-02  0.9425685E-01
         -4   -1    0    0    0  501 -0.00000000000E+00  0.00000000000E+00  0.47261870166E+03  0.47261870166E+03  0.00000000000E+00 0. -1.
         21   -1    0    0  501  502  0.00000000000E+00 -0.00000000000E+00 -0.14638627204E+04  0.14638627204E+04  0.00000000000E+00 0. -1.
   -9000010    2    1    2    0  502 -0.37863015732E+03  0.30104063361E+03 -0.41004474254E+03  0.11803208115E+04  0.99550704070E+03 0.  0.
         13    1    3    3    0    0 -0.10538770213E+02  0.53705182080E+03  0.57437710415E+02  0.54021738740E+03  0.10566000000E+00 0. -1.
         -4    1    3    3    0  502 -0.36809138711E+03 -0.23601118719E+03 -0.46748245295E+03  0.64010342412E+03  0.00000000000E+00 0. -1.
        -13    1    1    2    0    0  0.37863015732E+03 -0.30104063361E+03 -0.58119927617E+03  0.75616061052E+03  0.10566000000E+00 0.  1.
<mgrwt>
<rscale>  1 0.89991733E+03</rscale>
<asrwt>0</asrwt>
<pdfrwt beam="2">  1       21 0.22520965E+00 0.11068065E+04</pdfrwt>
<pdfrwt beam="1">  1       -4 0.72710570E-01 0.11068065E+04</pdfrwt>
<totfact> 0.52575929E+00</totfact>
</mgrwt>
</event>
<event>
 6    2  0.2267664E-005  0.9862925E+03  0.7818608E-02  0.9850258E-01
         -4   -1    0    0    0  501 -0.00000000000E+00  0.00000000000E+00  0.30395608430E+03  0.30395608430E+03  0.00000000000E+00 0. -1.
         21   -1    0    0  501  502  0.00000000000E+00 -0.00000000000E+00 -0.11346307220E+04  0.11346307220E+04  0.00000000000E+00 0. -1.
   -9000010    2    1    2    0  502 -0.13813656131E+03  0.83537025981E+02 -0.80913556409E+03  0.12757246341E+04  0.97299169400E+03 0.  0.
         13    1    3    3    0    0  0.39590863463E+03  0.18525256937E+03 -0.29399143240E+03  0.52677617156E+03  0.10566000000E+00 0. -1.
         -4    1    3    3    0  502 -0.53404519594E+03 -0.10171554339E+03 -0.51514413168E+03  0.74894846250E+03  0.00000000000E+00 0. -1.
        -13    1    1    2    0    0  0.13813656131E+03 -0.83537025981E+02 -0.21539073581E+02  0.16286217220E+03  0.10566000000E+00 0.  1.
<mgrwt>
<rscale>  1 0.62733777E+03</rscale>
<asrwt>0</asrwt>
<pdfrwt beam="2">  1       21 0.17455857E+00 0.98629254E+03</pdfrwt>
<pdfrwt beam="1">  1       -4 0.46762475E-01 0.98629254E+03</pdfrwt>
<totfact> 0.31172217E+01</totfact>
</mgrwt>
</event>
<event>
 6    2  0.2267664E-005  0.1020920E+04  0.7818608E-02  0.9829327E-01
         21   -1    0    0  501  502  0.00000000000E+00  0.00000000000E+00  0.25456469865E+03  0.25456469865E+03  0.00000000000E+00 0. -1.
         -4   -1    0    0    0  501 -0.00000000000E+00 -0.00000000000E+00 -0.13601783494E+04  0.13601783494E+04  0.00000000000E+00 0. -1.
   -9000010    2    1    2    0  502 -0.16708112925E+02  0.15492733356E+03 -0.95128601032E+03  0.13954289548E+04  0.10089575089E+04 0.  0.
         13    1    3    3    0    0 -0.13664589141E+03  0.56449805571E+03 -0.65763370431E+03  0.87738945443E+03  0.10566000000E+00 0. -1.
         -4    1    3    3    0  502  0.11993777848E+03 -0.40957072215E+03 -0.29365230601E+03  0.51803950040E+03  0.00000000000E+00 0. -1.
        -13    1    1    2    0    0  0.16708112925E+02 -0.15492733356E+03 -0.15432764047E+03  0.21931409325E+03  0.10566000000E+00 0.  1.
<mgrwt>
<rscale>  1 0.63812160E+03</rscale>
<asrwt>0</asrwt>
<pdfrwt beam="1">  1       21 0.39163800E-01 0.10209196E+04</pdfrwt>
<pdfrwt beam="2">  1       -4 0.20925821E+00 0.10209196E+04</pdfrwt>
<totfact> 0.28837295E+01</totfact>
</mgrwt>
</event>
<event>
 6    2  0.2267664E-005  0.1042693E+04  0.7818608E-02  0.9792895E-01
         -4   -1    0    0    0  501 -0.00000000000E+00  0.00000000000E+00  0.10279107604E+04  0.10279107604E+04  0.00000000000E+00 0. -1.
         21   -1    0    0  501  502  0.00000000000E+00 -0.00000000000E+00 -0.56907361636E+03  0.56907361636E+03  0.00000000000E+00 0. -1.
   -9000010    2    1    2    0  502 -0.10669401208E+03 -0.12561573520E+03 -0.68060519522E+02  0.10449118415E+04  0.10295851577E+04 0.  0.
         13    1    3    3    0    0  0.46088575718E+03 -0.10638598791E+03 -0.52836554415E+00  0.47300523245E+03  0.10566000000E+00 0. -1.
         -4    1    3    3    0  502 -0.56757976926E+03 -0.19229747289E+02 -0.67532153978E+02  0.57190660905E+03  0.00000000000E+00 0. -1.
        -13    1    1    2    0    0  0.10669401208E+03  0.12561573520E+03  0.52689766354E+03  0.55207253523E+03  0.10566000000E+00 0.  1.
<mgrwt>
<rscale>  1 0.65745254E+03</rscale>
<asrwt>0</asrwt>
<pdfrwt beam="2">  1       21 0.87549787E-01 0.10426929E+04</pdfrwt>
<pdfrwt beam="1">  1       -4 0.15814012E+00 0.10426929E+04</pdfrwt>
<totfact> 0.10845449E+01</totfact>
</mgrwt>
</event>
<event>
 6    2  0.2267664E-005  0.1111288E+04  0.7818608E-02  0.9403301E-01
         -4   -1    0    0    0  501 -0.00000000000E+00  0.00000000000E+00  0.19426774113E+04  0.19426774113E+04  0.00000000000E+00 0. -1.
         21   -1    0    0  501  502  0.00000000000E+00 -0.00000000000E+00 -0.35312275664E+03  0.35312275664E+03  0.00000000000E+00 0. -1.
   -9000010    2    1    2    0  502  0.32724392143E+03 -0.40099618456E+03  0.87993216978E+03  0.14174775584E+04  0.98339995990E+03 0.  0.
         13    1    3    3    0    0  0.62983355248E+03 -0.10569423189E+03  0.31570292785E+03  0.71241134487E+03  0.10566000000E+00 0. -1.
         -4    1    3    3    0  502 -0.30258963105E+03 -0.29530195267E+03  0.56422924193E+03  0.70506621357E+03  0.00000000000E+00 0. -1.
        -13    1    1    2    0    0 -0.32724392143E+03  0.40099618456E+03  0.70962248492E+03  0.87832260953E+03  0.10566000000E+00 0.  1.
<mgrwt>
<rscale>  1 0.91804498E+03</rscale>
<asrwt>0</asrwt>
<pdfrwt beam="2">  1       21 0.54326579E-01 0.11112884E+04</pdfrwt>
<pdfrwt beam="1">  1       -4 0.29887344E+00 0.11112884E+04</pdfrwt>
<totfact> 0.39072089E+00</totfact>
</mgrwt>
</event>
<event>
 6    2  0.2267664E-005  0.1048647E+04  0.7818608E-02  0.9620040E-01
         -4   -1    0    0    0  501 -0.00000000000E+00  0.00000000000E+00  0.90759030583E+03  0.90759030583E+03  0.00000000000E+00 0. -1.
         21   -1    0    0  501  502  0.00000000000E+00 -0.00000000000E+00 -0.49966329262E+03  0.49966329262E+03  0.00000000000E+00 0. -1.
   -9000010    2    1    2    0  502  0.28751845944E+03  0.29877029272E+02  0.25071336873E+03  0.10782009544E+04  0.10080181563E+04 0.  0.
         13    1    3    3    0    0  0.33731704074E+01  0.79139302923E+02 -0.37815513290E+03  0.38636216591E+03  0.10566000000E+00 0. -1.
         -4    1    3    3    0  502  0.28414528904E+03 -0.49262273651E+02  0.62886850163E+03  0.69183878847E+03  0.00000000000E+00 0. -1.
        -13    1    1    2    0    0 -0.28751845944E+03 -0.29877029272E+02  0.15721364447E+03  0.32905264407E+03  0.10566000000E+00 0.  1.
<mgrwt>
<rscale>  1 0.75983871E+03</rscale>
<asrwt>0</asrwt>
<pdfrwt beam="2">  1       21 0.76871276E-01 0.10486468E+04</pdfrwt>
<pdfrwt beam="1">  1       -4 0.13962928E+00 0.10486468E+04</pdfrwt>
<totfact> 0.20596807E+01</totfact>
</mgrwt>
</event>
<event>
 6    2  0.2267664E-005  0.1150314E+04  0.7818608E-02  0.9343869E-01
         -4   -1    0    0    0  501 -0.00000000000E+00  0.00000000000E+00  0.51812661452E+03  0.51812661452E+03  0.00000000000E+00 0. -1.
         21   -1    0    0  501  502  0.00000000000E+00 -0.00000000000E+00 -0.16458294425E+04  0.16458294425E+04  0.00000000000E+00 0.  1.
   -9000010    2    1    2    0  502  0.28949198435E+03  0.50010668634E+03 -0.36451862692E+03  0.12066878383E+04  0.99464033848E+03 0.  0.
         13    1    3    3    0    0  0.36120356696E+02  0.37383817184E+03  0.30239036667E+03  0.48218212732E+03  0.10566000000E+00 0. -1.
         -4    1    3    3    0  502  0.25337162766E+03  0.12626851451E+03 -0.66690899360E+03  0.72450571095E+03  0.00000000000E+00 0. -1.
        -13    1    1    2    0    0 -0.28949198435E+03 -0.50010668634E+03 -0.76318420109E+03  0.95726821878E+03  0.10566000000E+00 0.  1.
<mgrwt>
<rscale>  1 0.96842578E+03</rscale>
<asrwt>0</asrwt>
<pdfrwt beam="2">  1       21 0.25320453E+00 0.11503137E+04</pdfrwt>
<pdfrwt beam="1">  1       -4 0.79711787E-01 0.11503137E+04</pdfrwt>
<totfact> 0.27935319E+00</totfact>
</mgrwt>
</event>
<event>
 6    2  0.2267664E-005  0.1002236E+04  0.7818608E-02  0.1001659E+00
         -4   -1    0    0    0  501 -0.00000000000E+00  0.00000000000E+00  0.22850795273E+03  0.22850795273E+03  0.00000000000E+00 0. -1.
         21   -1    0    0  501  502  0.00000000000E+00 -0.00000000000E+00 -0.13791877963E+04  0.13791877963E+04  0.00000000000E+00 0. -1.
   -9000010    2    1    2    0  502 -0.33277559974E+02 -0.84080057993E+02 -0.92214365659E+03  0.13619201358E+04  0.99814862653E+03 0.  0.
         13    1    3    3    0    0 -0.17405357628E+03  0.26454443566E+02 -0.10973925697E+04  0.11114247379E+04  0.10566000000E+00 0. -1.
         -4    1    3    3    0  502  0.14077601630E+03 -0.11053450156E+03  0.17524891307E+03  0.25049539783E+03  0.00000000000E+00 0. -1.
        -13    1    1    2    0    0  0.33277559974E+02  0.84080057993E+02 -0.22853618699E+03  0.24577561327E+03  0.10566000000E+00 0.  1.
<mgrwt>
<rscale>  1 0.54928910E+03</rscale>
<asrwt>0</asrwt>
<pdfrwt beam="2">  1       21 0.21218275E+00 0.10022363E+04</pdfrwt>
<pdfrwt beam="1">  1       -4 0.35155068E-01 0.10022363E+04</pdfrwt>
<totfact> 0.30378453E+01</totfact>
</mgrwt>
</event>
<event>
 6    2  0.2267664E-005  0.1014650E+04  0.7818608E-02  0.9789331E-01
         21   -1    0    0  501  502  0.00000000000E+00  0.00000000000E+00  0.37686284005E+03  0.37686284005E+03  0.00000000000E+00 0. -1.
         -4   -1    0    0    0  501 -0.00000000000E+00 -0.00000000000E+00 -0.96349719554E+03  0.96349719554E+03  0.00000000000E+00 0. -1.
   -9000010    2    1    2    0  502 -0.25484777706E+02  0.17916401492E+03 -0.43381500191E+03  0.11034993505E+04  0.99838176194E+03 0.  0.
         13    1    3    3    0    0  0.16897171350E+02 -0.37935744413E+03 -0.38577927015E+03  0.54131621189E+03  0.10566000000E+00 0. -1.
         -4    1    3    3    0  502 -0.42381949056E+02  0.55852145905E+03 -0.48035731760E+02  0.56218313862E+03  0.00000000000E+00 0. -1.
        -13    1    1    2    0    0  0.25484777706E+02 -0.17916401492E+03 -0.15281935358E+03  0.23686068507E+03  0.10566000000E+00 0.  1.
<mgrwt>
<rscale>  1 0.65938255E+03</rscale>
<asrwt>0</asrwt>
<pdfrwt beam="1">  1       21 0.57978898E-01 0.10146504E+04</pdfrwt>
<pdfrwt beam="2">  1       -4 0.14823034E+00 0.10146504E+04</pdfrwt>
<totfact> 0.33479902E+01</totfact>
</mgrwt>
</event>
<event>
 6    2  0.2267664E-005  0.9989534E+03  0.7818608E-02  0.1006965E+00
         21   -1    0    0  501  502  0.00000000000E+00  0.00000000000E+00  0.12692640785E+04  0.12692640785E+04  0.00000000000E+00 0. -1.
         -4   -1    0    0    0  501 -0.00000000000E+00 -0.00000000000E+00 -0.24309313242E+03  0.24309313242E+03  0.00000000000E+00 0. -1.
   -9000010    2    1    2    0  502 -0.96319163163E+01  0.76766749743E+02  0.10300510301E+04  0.14348912578E+04  0.99595275470E+03 0.  0.
         13    1    3    3    0    0  0.11093357064E+03  0.64609944891E+02  0.12106327537E+04  0.12174203783E+04  0.10566000000E+00 0. -1.
         -4    1    3    3    0  502 -0.12056548695E+03  0.12156804851E+02 -0.18058172360E+03  0.21747087954E+03  0.00000000000E+00 0. -1.
        -13    1    1    2    0    0  0.96319163163E+01 -0.76766749743E+02 -0.38800839418E+01  0.77465953124E+02  0.10566000000E+00 0.  1.
<mgrwt>
<rscale>  1 0.52698743E+03</rscale>
<asrwt>0</asrwt>
<pdfrwt beam="1">  1       21 0.19527139E+00 0.99895335E+03</pdfrwt>
<pdfrwt beam="2">  1       -4 0.37398944E-01 0.99895335E+03</pdfrwt>
<totfact> 0.35005061E+01</totfact>
</mgrwt>
</event>
<event>
 6    2  0.2267664E-005  0.1032001E+04  0.7818608E-02  0.9661035E-01
         -4   -1    0    0    0  501 -0.00000000000E+00  0.00000000000E+00  0.56390072801E+03  0.56390072801E+03  0.00000000000E+00 0. -1.
         21   -1    0    0  501  502  0.00000000000E+00 -0.00000000000E+00 -0.75719299259E+03  0.75719299259E+03  0.00000000000E+00 0. -1.
   -9000010    2    1    2    0  502  0.23476250310E+03 -0.12047058546E+03 -0.22218727960E+03  0.10556478167E+04  0.99769661267E+03 0.  0.
         13    1    3    3    0    0 -0.16898468988E+03 -0.44840146342E+03 -0.23847620703E+03  0.53524817635E+03  0.10566000000E+00 0. -1.
         -4    1    3    3    0  502  0.40374719297E+03  0.32793087795E+03  0.16288927421E+02  0.52039964038E+03  0.00000000000E+00 0. -1.
        -13    1    1    2    0    0 -0.23476250310E+03  0.12047058546E+03  0.28895015029E+02  0.26544590387E+03  0.10566000000E+00 0.  1.
<mgrwt>
<rscale>  1 0.73384924E+03</rscale>
<asrwt>0</asrwt>
<pdfrwt beam="2">  1       21 0.11649123E+00 0.10320005E+04</pdfrwt>
<pdfrwt beam="1">  1       -4 0.86753958E-01 0.10320005E+04</pdfrwt>
<totfact> 0.24150232E+01</totfact>
</mgrwt>
</event>
<event>
 6    2  0.2267664E-005  0.1041493E+04  0.7818608E-02  0.9710053E-01
         21   -1    0    0  501  502  0.00000000000E+00  0.00000000000E+00  0.12880247069E+04  0.12880247069E+04  0.00000000000E+00 0. -1.
         -4   -1    0    0    0  501 -0.00000000000E+00 -0.00000000000E+00 -0.31253934688E+03  0.31253934688E+03  0.00000000000E+00 0. -1.
   -9000010    2    1    2    0  502  0.13632398622E+03  0.16972622594E+03  0.87730371325E+03  0.13617526891E+04  0.10184877809E+04 0.  0.
         13    1    3    3    0    0  0.83196391111E+02  0.52040992346E+03  0.14268555247E+03  0.54599203838E+03  0.10566000000E+00 0. -1.
         -4    1    3    3    0  502  0.53127595112E+02 -0.35068369752E+03  0.73461816079E+03  0.81576065070E+03  0.00000000000E+00 0. -1.
        -13    1    1    2    0    0 -0.13632398622E+03 -0.16972622594E+03  0.98181646812E+02  0.23881136473E+03  0.10566000000E+00 0.  1.
<mgrwt>
<rscale>  1 0.70421400E+03</rscale>
<asrwt>0</asrwt>
<pdfrwt beam="1">  1       21 0.19815765E+00 0.10414934E+04</pdfrwt>
<pdfrwt beam="2">  1       -4 0.48082977E-01 0.10414934E+04</pdfrwt>
<totfact> 0.19830776E+01</totfact>
</mgrwt>
</event>
<event>
 6    2  0.2267664E-005  0.1060855E+04  0.7818608E-02  0.9561479E-01
         21   -1    0    0  501  502  0.00000000000E+00  0.00000000000E+00  0.35123198891E+03  0.35123198891E+03  0.00000000000E+00 0. -1.
         -4   -1    0    0    0  501 -0.00000000000E+00 -0.00000000000E+00 -0.18282391794E+04  0.18282391794E+04  0.00000000000E+00 0. -1.
   -9000010    2    1    2    0  502 -0.25344564103E+03  0.22865851110E+03 -0.55702486016E+03  0.11982031586E+04  0.10044375076E+04 0.  0.
         13    1    3    3    0    0 -0.49897860199E+03  0.45247879695E+03 -0.54380513642E+03  0.86570245725E+03  0.10566000000E+00 0. -1.
         -4    1    3    3    0  502  0.24553296096E+03 -0.22382028585E+03 -0.13219723739E+02  0.33250070131E+03  0.00000000000E+00 0. -1.
        -13    1    1    2    0    0  0.25344564103E+03 -0.22865851110E+03 -0.91998233030E+03  0.98126800971E+03  0.10566000000E+00 0.  1.
<mgrwt>
<rscale>  1 0.79899107E+03</rscale>
<asrwt>0</asrwt>
<pdfrwt beam="1">  1       21 0.54035692E-01 0.10608554E+04</pdfrwt>
<pdfrwt beam="2">  1       -4 0.28126756E+00 0.10608554E+04</pdfrwt>
<totfact> 0.51133039E+00</totfact>
</mgrwt>
</event>
<event>
 6    2  0.2267664E-005  0.1025194E+04  0.7818608E-02  0.9795584E-01
         21   -1    0    0  501  502  0.00000000000E+00  0.00000000000E+00  0.72716788535E+03  0.72716788535E+03  0.00000000000E+00 0. -1.
         -4   -1    0    0    0  501 -0.00000000000E+00 -0.00000000000E+00 -0.49813848043E+03  0.49813848043E+03  0.00000000000E+00 0. -1.
   -9000010    2    1    2    0  502 -0.17060699700E+03  0.20791448914E+02  0.24059775748E+03  0.10530482173E+04  0.10106850327E+04 0.  0.
         13    1    3    3    0    0  0.88602884937E+00  0.48384124426E+03  0.27769751244E+03  0.55787010520E+03  0.10566000000E+00 0. -1.
         -4    1    3    3    0  502 -0.17149302585E+03 -0.46304979535E+03 -0.37099754964E+02  0.49517811210E+03  0.00000000000E+00 0. -1.
        -13    1    1    2    0    0  0.17060699700E+03 -0.20791448914E+02 -0.11568352564E+02  0.17225814848E+03  0.10566000000E+00 0.  1.
<mgrwt>
<rscale>  1 0.65600051E+03</rscale>
<asrwt>0</asrwt>
<pdfrwt beam="1">  1       21 0.11187198E+00 0.10251943E+04</pdfrwt>
<pdfrwt beam="2">  1       -4 0.76636689E-01 0.10251943E+04</pdfrwt>
<totfact> 0.35669584E+01</totfact>
</mgrwt>
</event>
<event>
 6    2  0.2267664E-005  0.1010705E+04  0.7818608E-02  0.9980997E-01
         21   -1    0    0  501  502  0.00000000000E+00  0.00000000000E+00  0.11412968612E+04  0.11412968612E+04  0.00000000000E+00 0. -1.
         -4   -1    0    0    0  501 -0.00000000000E+00 -0.00000000000E+00 -0.28382421088E+03  0.28382421088E+03  0.00000000000E+00 0. -1.
   -9000010    2    1    2    0  502 -0.97813133889E+02  0.12748997982E+02  0.85906423355E+03  0.13264676869E+04  0.10058803214E+04 0.  0.
         13    1    3    3    0    0  0.15537242644E+03  0.46720338017E+02 -0.18820984655E+03  0.24848810511E+03  0.10566000000E+00 0. -1.
         -4    1    3    3    0  502 -0.25318556032E+03 -0.33971340035E+02  0.10472740801E+04  0.10779795818E+04  0.00000000000E+00 0. -1.
        -13    1    1    2    0    0  0.97813133889E+02 -0.12748997982E+02 -0.15915832109E+01  0.98653385203E+02  0.10566000000E+00 0.  1.
<mgrwt>
<rscale>  1 0.56491391E+03</rscale>
<asrwt>0</asrwt>
<pdfrwt beam="1">  1       21 0.17558413E+00 0.10107053E+04</pdfrwt>
<pdfrwt beam="2">  1       -4 0.43665264E-01 0.10107053E+04</pdfrwt>
<totfact> 0.35226233E+01</totfact>
</mgrwt>
</event>
<event>
 6    2  0.2267664E-005  0.9933347E+03  0.7818608E-02  0.9845705E-01
         -4   -1    0    0    0  501 -0.00000000000E+00  0.00000000000E+00  0.18779885306E+04  0.18779885306E+04  0.00000000000E+00 0. -1.
         21   -1    0    0  501  502  0.00000000000E+00 -0.00000000000E+00 -0.24069931890E+03  0.24069931890E+03  0.00000000000E+00 0. -1.
   -9000010    2    1    2    0  502 -0.60132630650E+02  0.14867930829E+03  0.82657273815E+03  0.12922601868E+04  0.98030221311E+03 0.  0.
         13    1    3    3    0    0 -0.77875894282E+02  0.51217865157E+03  0.17660307003E+03  0.54733927462E+03  0.10566000000E+00 0. -1.
         -4    1    3    3    0  502  0.17743263632E+02 -0.36349934328E+03  0.64996966812E+03  0.74492091221E+03  0.00000000000E+00 0. -1.
        -13    1    1    2    0    0  0.60132630650E+02 -0.14867930829E+03  0.81071647360E+03  0.82642766272E+03  0.10566000000E+00 0.  1.
<mgrwt>
<rscale>  1 0.62966378E+03</rscale>
<asrwt>0</asrwt>
<pdfrwt beam="2">  1       21 0.37030666E-01 0.99333474E+03</pdfrwt>
<pdfrwt beam="1">  1       -4 0.28892130E+00 0.99333474E+03</pdfrwt>
<totfact> 0.10345432E+01</totfact>
</mgrwt>
</event>
<event>
 6    2  0.2267664E-005  0.1035966E+04  0.7818608E-02  0.9645964E-01
         21   -1    0    0  501  502  0.00000000000E+00  0.00000000000E+00  0.50651118160E+03  0.50651118160E+03  0.00000000000E+00 0. -1.
         -4   -1    0    0    0  501 -0.00000000000E+00 -0.00000000000E+00 -0.10362756065E+04  0.10362756065E+04  0.00000000000E+00 0. -1.
   -9000010    2    1    2    0  502 -0.23566646396E+03 -0.14077044635E+03 -0.67078810302E+03  0.12341726444E+04  0.99893465058E+03 0.  0.
         13    1    3    3    0    0 -0.26582836205E+03  0.16573235285E+03 -0.83023127176E+03  0.88736458495E+03  0.10566000000E+00 0. -1.
         -4    1    3    3    0  502  0.30161898089E+02 -0.30650279920E+03  0.15944316874E+03  0.34680805941E+03  0.00000000000E+00 0. -1.
        -13    1    1    2    0    0  0.23566646396E+03  0.14077044635E+03  0.14102367809E+03  0.30861414379E+03  0.10566000000E+00 0.  1.
<mgrwt>
<rscale>  1 0.74327270E+03</rscale>
<asrwt>0</asrwt>
<pdfrwt beam="1">  1       21 0.77924798E-01 0.10359659E+04</pdfrwt>
<pdfrwt beam="2">  1       -4 0.15942701E+00 0.10359659E+04</pdfrwt>
<totfact> 0.13989568E+01</totfact>
</mgrwt>
</event>
<event>
 6    2  0.2267664E-005  0.9998187E+03  0.7818608E-02  0.9903079E-01
         21   -1    0    0  501  502  0.00000000000E+00  0.00000000000E+00  0.12728918850E+04  0.12728918850E+04  0.00000000000E+00 0. -1.
         -4   -1    0    0    0  501 -0.00000000000E+00 -0.00000000000E+00 -0.25919549389E+03  0.25919549389E+03  0.00000000000E+00 0. -1.
   -9000010    2    1    2    0  502 -0.77770377951E+02  0.10497422280E+03  0.79510526594E+03  0.12774309234E+04  0.99124646838E+03 0.  0.
         13    1    3    3    0    0  0.22594049459E+03  0.94713253940E+02 -0.14824025317E+03  0.28634750111E+03  0.10566000000E+00 0. -1.
         -4    1    3    3    0  502 -0.30371087254E+03  0.10260968856E+02  0.94334551910E+03  0.99108342232E+03  0.00000000000E+00 0. -1.
        -13    1    1    2    0    0  0.77770377951E+02 -0.10497422280E+03  0.21859112521E+03  0.25465645549E+03  0.10566000000E+00 0.  1.
<mgrwt>
<rscale>  1 0.60112291E+03</rscale>
<asrwt>0</asrwt>
<pdfrwt beam="1">  1       21 0.19582952E+00 0.99981867E+03</pdfrwt>
<pdfrwt beam="2">  1       -4 0.39876231E-01 0.99981867E+03</pdfrwt>
<totfact> 0.30459573E+01</totfact>
</mgrwt>
</event>
<event>
 6    2  0.2267664E-005  0.1007203E+04  0.7818608E-02  0.9822070E-01
         -4   -1    0    0    0  501 -0.00000000000E+00  0.00000000000E+00  0.51384634573E+03  0.51384634573E+03  0.00000000000E+00 0. -1.
         21   -1    0    0  501  502  0.00000000000E+00 -0.00000000000E+00 -0.90882684566E+03  0.90882684566E+03  0.00000000000E+00 0. -1.
   -9000010    2    1    2    0  502  0.11484780640E+03 -0.12009644990E+03 -0.58934624979E+03  0.11669560981E+04  0.99340040108E+03 0.  0.
         13    1    3    3    0    0 -0.52908565743E+02 -0.40525777055E+03 -0.70632016100E+03  0.81604004676E+03  0.10566000000E+00 0. -1.
         -4    1    3    3    0  502  0.16775637214E+03  0.28516132065E+03  0.11697391121E+03  0.35091605135E+03  0.00000000000E+00 0. -1.
        -13    1    1    2    0    0 -0.11484780640E+03  0.12009644990E+03  0.19436574987E+03  0.25571709328E+03  0.10566000000E+00 0.  1.
<mgrwt>
<rscale>  1 0.64191462E+03</rscale>
<asrwt>0</asrwt>
<pdfrwt beam="2">  1       21 0.13981951E+00 0.10072028E+04</pdfrwt>
<pdfrwt beam="1">  1       -4 0.79053285E-01 0.10072028E+04</pdfrwt>
<totfact> 0.18522909E+01</totfact>
</mgrwt>
</event>
<event>
 6    2  0.2267664E-005  0.9920829E+03  0.7818608E-02  0.9992553E-01
         21   -1    0    0  501  502  0.00000000000E+00  0.00000000000E+00  0.15098960200E+04  0.15098960200E+04  0.00000000000E+00 0. -1.
         -4   -1    0    0    0  501 -0.00000000000E+00 -0.00000000000E+00 -0.19791028446E+03  0.19791028446E+03  0.00000000000E+00 0. -1.
   -9000010    2    1    2    0  502 -0.70606261815E+02  0.71603443327E+02  0.11735200861E+04  0.15366775677E+04  0.98697328097E+03 0.  0.
         13    1    3    3    0    0 -0.40489208916E+03 -0.97597131725E+02  0.14331346194E+03  0.44045608580E+03  0.10566000000E+00 0. -1.
         -4    1    3    3    0  502  0.33428582734E+03  0.16920057505E+03  0.10302066241E+04  0.10962214819E+04  0.00000000000E+00 0. -1.
        -13    1    1    2    0    0  0.70606261815E+02 -0.71603443327E+02  0.13846564950E+03  0.17112873680E+03  0.10566000000E+00 0.  1.
<mgrwt>
<rscale>  1 0.55977994E+03</rscale>
<asrwt>0</asrwt>
<pdfrwt beam="1">  1       21 0.23229169E+00 0.99208294E+03</pdfrwt>
<pdfrwt beam="2">  1       -4 0.30447737E-01 0.99208294E+03</pdfrwt>
<totfact> 0.29808768E+01</totfact>
</mgrwt>
</event>
<event>
 6    2  0.2267664E-005  0.1010141E+04  0.7818608E-02  0.1005868E+00
         -4   -1    0    0    0  501 -0.00000000000E+00  0.00000000000E+00  0.11128361533E+04  0.11128361533E+04  0.00000000000E+00 0. -1.
         21   -1    0    0  501  502  0.00000000000E+00 -0.00000000000E+00 -0.27189259789E+03  0.27189259789E+03  0.00000000000E+00 0. -1.
   -9000010    2    1    2    0  502 -0.76843944574E+02 -0.94716561514E+01  0.82821468051E+03  0.13062638577E+04  0.10071697994E+04 0.  0.
         13    1    3    3    0    0 -0.19959630274E+03 -0.95119975307E+01  0.10413275023E+04  0.10603264310E+04  0.10566000000E+00 0. -1.
         -4    1    3    3    0  502  0.12275235817E+03  0.40341379352E-01 -0.21311282176E+03  0.24593742672E+03  0.00000000000E+00 0. -1.
        -13    1    1    2    0    0  0.76843944574E+02  0.94716561514E+01  0.12728874925E+02  0.78464893480E+02  0.10566000000E+00 0.  1.
<mgrwt>
<rscale>  1 0.53150550E+03</rscale>
<asrwt>0</asrwt>
<pdfrwt beam="2">  1       21 0.41829631E-01 0.10101414E+04</pdfrwt>
<pdfrwt beam="1">  1       -4 0.17120556E+00 0.10101414E+04</pdfrwt>
<totfact> 0.45610873E+01</totfact>
</mgrwt>
</event>
<event>
 6    2  0.2267664E-005  0.1002996E+04  0.7818608E-02  0.1022309E+00
         -4   -1    0    0    0  501 -0.00000000000E+00  0.00000000000E+00  0.68791449476E+03  0.68791449476E+03  0.00000000000E+00 0. -1.
         21   -1    0    0  501  502  0.00000000000E+00 -0.00000000000E+00 -0.53284910518E+03  0.53284910518E+03  0.00000000000E+00 0. -1.
   -9000010    2    1    2    0  502 -0.25556687742E+02  0.40390251807E+02 -0.55802092110E+02  0.10045469893E+04  0.10018564086E+04 0.  0.
         13    1    3    3    0    0 -0.37980072911E+03 -0.32074876891E+03 -0.27422935212E+02  0.49787588326E+03  0.10566000000E+00 0. -1.
         -4    1    3    3    0  502  0.35424404137E+03  0.36113902072E+03 -0.28379156898E+02  0.50667110602E+03  0.00000000000E+00 0. -1.
        -13    1    1    2    0    0  0.25556687742E+02 -0.40390251807E+02  0.21086748169E+03  0.21621661067E+03  0.10566000000E+00 0.  1.
<mgrwt>
<rscale>  1 0.46862335E+03</rscale>
<asrwt>0</asrwt>
<pdfrwt beam="2">  1       21 0.81976785E-01 0.10029959E+04</pdfrwt>
<pdfrwt beam="1">  1       -4 0.10583300E+00 0.10029959E+04</pdfrwt>
<totfact> 0.35816267E+01</totfact>
</mgrwt>
</event>
<event>
 6    2  0.2267664E-005  0.1002423E+04  0.7818608E-02  0.9994257E-01
         -4   -1    0    0    0  501 -0.00000000000E+00  0.00000000000E+00  0.97439808557E+03  0.97439808557E+03  0.00000000000E+00 0. -1.
         21   -1    0    0  501  502  0.00000000000E+00 -0.00000000000E+00 -0.57620749321E+03  0.57620749321E+03  0.00000000000E+00 0. -1.
   -9000010    2    1    2    0  502 -0.75169615904E+02  0.61239303860E+02 -0.13248987510E+03  0.10111405723E+04  0.99772289064E+03 0.  0.
         13    1    3    3    0    0  0.40509297601E+03 -0.55583229737E+02 -0.27971946672E+03  0.49541175386E+03  0.10566000000E+00 0. -1.
         -4    1    3    3    0  502 -0.48026259191E+03  0.11682253360E+03  0.14722959162E+03  0.51572881846E+03  0.00000000000E+00 0. -1.
        -13    1    1    2    0    0  0.75169615904E+02 -0.61239303860E+02  0.53068046745E+03  0.53946500646E+03  0.10566000000E+00 0.  1.
<mgrwt>
<rscale>  1 0.55902787E+03</rscale>
<asrwt>0</asrwt>
<pdfrwt beam="2">  1       21 0.88647307E-01 0.10024229E+04</pdfrwt>
<pdfrwt beam="1">  1       -4 0.14990740E+00 0.10024229E+04</pdfrwt>
<totfact> 0.12221029E+01</totfact>
</mgrwt>
</event>
<event>
 6    2  0.2267664E-005  0.1087401E+04  0.7818608E-02  0.9472454E-01
         21   -1    0    0  501  502  0.00000000000E+00  0.00000000000E+00  0.13086485767E+04  0.13086485767E+04  0.00000000000E+00 0. -1.
         -4   -1    0    0    0  501 -0.00000000000E+00 -0.00000000000E+00 -0.46577224079E+03  0.46577224079E+03  0.00000000000E+00 0. -1.
   -9000010    2    1    2    0  502  0.21487529604E+03  0.37512023307E+03  0.40854380664E+03  0.11616146987E+04  0.99777456577E+03 0.  0.
         13    1    3    3    0    0  0.63934011138E+02  0.70634225112E+03  0.17963383766E+03  0.73162508178E+03  0.10566000000E+00 0. -1.
         -4    1    3    3    0  502  0.15094128490E+03 -0.33122201805E+03  0.22890996898E+03  0.42998961688E+03  0.00000000000E+00 0. -1.
        -13    1    1    2    0    0 -0.21487529604E+03 -0.37512023307E+03  0.43433252925E+03  0.61280611880E+03  0.10566000000E+00 0.  1.
<mgrwt>
<rscale>  1 0.86345475E+03</rscale>
<asrwt>0</asrwt>
<pdfrwt beam="1">  1       21 0.20133055E+00 0.10874009E+04</pdfrwt>
<pdfrwt beam="2">  1       -4 0.71657269E-01 0.10874009E+04</pdfrwt>
<totfact> 0.78803279E+00</totfact>
</mgrwt>
</event>
<event>
 6    2  0.2267664E-005  0.1008750E+04  0.7818608E-02  0.1021149E+00
         -4   -1    0    0    0  501 -0.00000000000E+00  0.00000000000E+00  0.65804403101E+03  0.65804403101E+03  0.00000000000E+00 0. -1.
         21   -1    0    0  501  502  0.00000000000E+00 -0.00000000000E+00 -0.61624359379E+03  0.61624359379E+03  0.00000000000E+00 0. -1.
   -9000010    2    1    2    0  502 -0.22559774993E+02  0.43111899229E+02 -0.19936562072E+03  0.10282618986E+04  0.10075754572E+04 0.  0.
         13    1    3    3    0    0 -0.33116004983E+03  0.38320763300E+03 -0.25256306253E+03  0.56595333757E+03  0.10566000000E+00 0. -1.
         -4    1    3    3    0  502  0.30860027484E+03 -0.34009573377E+03  0.53197441811E+02  0.46230856100E+03  0.00000000000E+00 0. -1.
        -13    1    1    2    0    0  0.22559774993E+02 -0.43111899229E+02  0.24116605794E+03  0.24602572623E+03  0.10566000000E+00 0.  1.
<mgrwt>
<rscale>  1 0.47274384E+03</rscale>
<asrwt>0</asrwt>
<pdfrwt beam="2">  1       21 0.94806707E-01 0.10087497E+04</pdfrwt>
<pdfrwt beam="1">  1       -4 0.10123754E+00 0.10087497E+04</pdfrwt>
<totfact> 0.28119898E+01</totfact>
</mgrwt>
</event>
<event>
 6    2  0.2267664E-005  0.1179710E+04  0.7818608E-02  0.9311542E-01
         21   -1    0    0  501  502  0.00000000000E+00  0.00000000000E+00  0.21249484187E+04  0.21249484187E+04  0.00000000000E+00 0.  1.
         -4   -1    0    0    0  501 -0.00000000000E+00 -0.00000000000E+00 -0.37460895207E+03  0.37460895207E+03  0.00000000000E+00 0. -1.
   -9000010    2    1    2    0  502 -0.48889316788E+03  0.35205216014E+03  0.12170955086E+04  0.16950038405E+04  0.10142777180E+04 0.  0.
         13    1    3    3    0    0 -0.78431519571E+03  0.18222101727E+03  0.10262811169E+04  0.13044568860E+04  0.10566000000E+00 0. -1.
         -4    1    3    3    0  502  0.29542202783E+03  0.16983114287E+03  0.19081439169E+03  0.39054695453E+03  0.00000000000E+00 0. -1.
        -13    1    1    2    0    0  0.48889316788E+03 -0.35205216014E+03  0.53324395802E+03  0.80455353022E+03  0.10566000000E+00 0.  1.
<mgrwt>
<rscale>  1 0.99727167E+03</rscale>
<asrwt>0</asrwt>
<pdfrwt beam="1">  1       21 0.32691513E+00 0.11797104E+04</pdfrwt>
<pdfrwt beam="2">  1       -4 0.57632148E-01 0.11797104E+04</pdfrwt>
<totfact> 0.19757292E+00</totfact>
</mgrwt>
</event>
<event>
 6    2  0.2267664E-005  0.1040689E+04  0.7818608E-02  0.9782918E-01
         21   -1    0    0  501  502  0.00000000000E+00  0.00000000000E+00  0.11349020201E+04  0.11349020201E+04  0.00000000000E+00 0. -1.
         -4   -1    0    0    0  501 -0.00000000000E+00 -0.00000000000E+00 -0.33799848690E+03  0.33799848690E+03  0.00000000000E+00 0. -1.
   -9000010    2    1    2    0  502  0.11157431664E+03 -0.12998155474E+03  0.78043006066E+03  0.13008091964E+04  0.10264937668E+04 0.  0.
         13    1    3    3    0    0 -0.42406505746E+03 -0.18635010342E+03  0.18732743560E+03  0.49964899009E+03  0.10566000000E+00 0. -1.
         -4    1    3    3    0  502  0.53563937410E+03  0.56368548675E+02  0.59310262506E+03  0.80116020634E+03  0.00000000000E+00 0. -1.
        -13    1    1    2    0    0 -0.11157431664E+03  0.12998155474E+03  0.16473472517E+02  0.17209131055E+03  0.10566000000E+00 0.  1.
<mgrwt>
<rscale>  1 0.66287357E+03</rscale>
<asrwt>0</asrwt>
<pdfrwt beam="1">  1       21 0.17460031E+00 0.10406889E+04</pdfrwt>
<pdfrwt beam="2">  1       -4 0.51999768E-01 0.10406889E+04</pdfrwt>
<totfact> 0.24757734E+01</totfact>
</mgrwt>
</event>
<event>
 6    2  0.2267664E-005  0.1074759E+04  0.7818608E-02  0.9502652E-01
         -4   -1    0    0    0  501 -0.00000000000E+00  0.00000000000E+00  0.20397402607E+03  0.20397402607E+03  0.00000000000E+00 0. -1.
         21   -1    0    0  501  502  0.00000000000E+00 -0.00000000000E+00 -0.31269623229E+04  0.31269623229E+04  0.00000000000E+00 0. -1.
   -9000010    2    1    2    0  502  0.14464530481E+03  0.37585856123E+03 -0.26043390555E+04  0.28173905649E+04  0.99645158260E+03 0.  0.
         13    1    3    3    0    0  0.13892429819E+03 -0.33151066691E+03 -0.10452536524E+04  0.11053300375E+04  0.10566000000E+00 0. -1.
         -4    1    3    3    0  502  0.57210066208E+01  0.70736922815E+03 -0.15590854032E+04  0.17120605273E+04  0.00000000000E+00 0. -1.
        -13    1    1    2    0    0 -0.14464530481E+03 -0.37585856123E+03 -0.31864924133E+03  0.51354578415E+03  0.10566000000E+00 0.  1.
<mgrwt>
<rscale>  1 0.84088592E+03</rscale>
<asrwt>0</asrwt>
<pdfrwt beam="2">  1       21 0.48107104E+00 0.10747594E+04</pdfrwt>
<pdfrwt beam="1">  1       -4 0.31380625E-01 0.10747594E+04</pdfrwt>
<totfact> 0.67290214E-01</totfact>
</mgrwt>
</event>
<event>
 6    2  0.2267664E-005  0.1011997E+04  0.7818608E-02  0.9983010E-01
         21   -1    0    0  501  502  0.00000000000E+00  0.00000000000E+00  0.12087000568E+04  0.12087000568E+04  0.00000000000E+00 0. -1.
         -4   -1    0    0    0  501 -0.00000000000E+00 -0.00000000000E+00 -0.45068045942E+03  0.45068045942E+03  0.00000000000E+00 0. -1.
   -9000010    2    1    2    0  502  0.22568034298E+02  0.94995473297E+02  0.98504390219E+03  0.14122499794E+04  0.10072760589E+04 0.  0.
         13    1    3    3    0    0  0.11787069775E+03  0.28700343311E+03  0.11178339168E+04  0.11600935948E+04  0.10566000000E+00 0. -1.
         -4    1    3    3    0  502 -0.95302663451E+02 -0.19200795981E+03 -0.13279001461E+03  0.25215638456E+03  0.00000000000E+00 0. -1.
        -13    1    1    2    0    0 -0.22568034298E+02 -0.94995473297E+02 -0.22702430479E+03  0.24713053686E+03  0.10566000000E+00 0.  1.
<mgrwt>
<rscale>  1 0.56401528E+03</rscale>
<asrwt>0</asrwt>
<pdfrwt beam="1">  1       21 0.18595385E+00 0.10119973E+04</pdfrwt>
<pdfrwt beam="2">  1       -4 0.69335456E-01 0.10119973E+04</pdfrwt>
<totfact> 0.10975835E+01</totfact>
</mgrwt>
</event>
<event>
 6    2  0.2267664E-005  0.1094494E+04  0.7818608E-02  0.9570561E-01
         21   -1    0    0  501  502  0.00000000000E+00  0.00000000000E+00  0.13975128652E+04  0.13975128652E+04  0.00000000000E+00 0. -1.
         -4   -1    0    0    0  501 -0.00000000000E+00 -0.00000000000E+00 -0.41847792187E+03  0.41847792187E+03  0.00000000000E+00 0. -1.
   -9000010    2    1    2    0  502 -0.26282732191E+03  0.14720979512E+03  0.10386794001E+04  0.15088973204E+04  0.10522201776E+04 0.  0.
         13    1    3    3    0    0 -0.34735234154E+03 -0.35534313904E+03  0.81012281886E+03  0.95037960228E+03  0.10566000000E+00 0. -1.
         -4    1    3    3    0  502  0.84525019636E+02  0.50255293415E+03  0.22855658125E+03  0.55851771807E+03  0.00000000000E+00 0. -1.
        -13    1    1    2    0    0  0.26282732191E+03 -0.14720979512E+03 -0.59644456771E+02  0.30709346673E+03  0.10566000000E+00 0.  1.
<mgrwt>
<rscale>  1 0.79275705E+03</rscale>
<asrwt>0</asrwt>
<pdfrwt beam="1">  1       21 0.21500198E+00 0.10944936E+04</pdfrwt>
<pdfrwt beam="2">  1       -4 0.64381219E-01 0.10944936E+04</pdfrwt>
<totfact> 0.80758755E+00</totfact>
</mgrwt>
</event>
<event>
 6    2  0.2267664E-005  0.1002130E+04  0.7818608E-02  0.9818659E-01
         -4   -1    0    0    0  501 -0.00000000000E+00  0.00000000000E+00  0.15642503841E+04  0.15642503841E+04  0.00000000000E+00 0. -1.
         21   -1    0    0  501  502  0.00000000000E+00 -0.00000000000E+00 -0.25718463315E+03  0.25718463315E+03  0.00000000000E+00 0. -1.
   -9000010    2    1    2    0  502 -0.13474685908E+03 -0.10463228635E+03  0.78735030614E+03  0.12744352128E+04  0.98750188635E+03 0.  0.
         13    1    3    3    0    0 -0.29061599384E+03  0.38615259148E+03  0.43739633648E+03  0.65183360308E+03  0.10566000000E+00 0. -1.
         -4    1    3    3    0  502  0.15586913477E+03 -0.49078487783E+03  0.34995396966E+03  0.62260160967E+03  0.00000000000E+00 0. -1.
        -13    1    1    2    0    0  0.13474685908E+03  0.10463228635E+03  0.51971544485E+03  0.54699980453E+03  0.10566000000E+00 0.  1.
<mgrwt>
<rscale>  1 0.64370716E+03</rscale>
<asrwt>0</asrwt>
<pdfrwt beam="2">  1       21 0.39566867E-01 0.10021300E+04</pdfrwt>
<pdfrwt beam="1">  1       -4 0.24065390E+00 0.10021300E+04</pdfrwt>
<totfact> 0.17874591E+01</totfact>
</mgrwt>
</event>
<event>
 6    2  0.2267664E-005  0.1064065E+04  0.7818608E-02  0.9547214E-01
         21   -1    0    0  501  502  0.00000000000E+00  0.00000000000E+00  0.60006927272E+03  0.60006927272E+03  0.00000000000E+00 0.  1.
         -4   -1    0    0    0  501 -0.00000000000E+00 -0.00000000000E+00 -0.83997236546E+03  0.83997236546E+03  0.00000000000E+00 0. -1.
   -9000010    2    1    2    0  502 -0.26797815750E+03  0.23341091940E+03 -0.19595275262E+03  0.10819570200E+04  0.10029658827E+04 0.  0.
         13    1    3    3    0    0  0.29602451003E+02 -0.51837401780E+02  0.37390338029E+03  0.37863857474E+03  0.10566000000E+00 0. -1.
         -4    1    3    3    0  502 -0.29758060851E+03  0.28524832118E+03 -0.56985613290E+03  0.70331844530E+03  0.00000000000E+00 0. -1.
        -13    1    1    2    0    0  0.26797815750E+03 -0.23341091940E+03 -0.43950340121E+02  0.35808461815E+03  0.10566000000E+00 0.  1.
<mgrwt>
<rscale>  1 0.80890673E+03</rscale>
<asrwt>0</asrwt>
<pdfrwt beam="1">  1       21 0.92318350E-01 0.10640646E+04</pdfrwt>
<pdfrwt beam="2">  1       -4 0.12922652E+00 0.10640646E+04</pdfrwt>
<totfact> 0.16253884E+01</totfact>
</mgrwt>
</event>
<event>
 6    2  0.2267664E-005  0.1075534E+04  0.7818608E-02  0.9878524E-01
         21   -1    0    0  501  502  0.00000000000E+00  0.00000000000E+00  0.12412197084E+04  0.12412197084E+04  0.00000000000E+00 0. -1.
         -4   -1    0    0    0  501 -0.00000000000E+00 -0.00000000000E+00 -0.28952005512E+03  0.28952005512E+03  0.00000000000E+00 0. -1.
   -9000010    2    1    2    0  502 -0.43550876816E+02  0.10491268009E+03  0.91281746760E+03  0.14106765100E+04  0.10695181800E+04 0.  0.
         13    1    3    3    0    0 -0.18441639292E+03  0.55672241722E+03  0.38395223884E+03  0.70097688170E+03  0.10566000000E+00 0. -1.
         -4    1    3    3    0  502  0.14086551610E+03 -0.45180973712E+03  0.52886522876E+03  0.70969962828E+03  0.00000000000E+00 0. -1.
        -13    1    1    2    0    0  0.43550876816E+02 -0.10491268009E+03  0.38882185642E+02  0.12006325350E+03  0.10566000000E+00 0.  1.
<mgrwt>
<rscale>  1 0.61313461E+03</rscale>
<asrwt>0</asrwt>
<pdfrwt beam="1">  1       21 0.19095688E+00 0.10755336E+04</pdfrwt>
<pdfrwt beam="2">  1       -4 0.44541548E-01 0.10755336E+04</pdfrwt>
<totfact> 0.26021671E+01</totfact>
</mgrwt>
</event>
<event>
 6    2  0.2267664E-005  0.9941918E+03  0.7818608E-02  0.1002514E+00
         -4   -1    0    0    0  501 -0.00000000000E+00  0.00000000000E+00  0.10534152083E+04  0.10534152083E+04  0.00000000000E+00 0. -1.
         21   -1    0    0  501  502  0.00000000000E+00 -0.00000000000E+00 -0.34100610013E+03  0.34100610013E+03  0.00000000000E+00 0. -1.
   -9000010    2    1    2    0  502 -0.37258533806E+02 -0.82127295589E+02  0.40407665535E+03  0.10731706218E+04  0.99009300023E+03 0.  0.
         13    1    3    3    0    0  0.32762165469E+03  0.12850489936E+03 -0.14538879342E+03  0.38077207119E+03  0.10566000000E+00 0. -1.
         -4    1    3    3    0  502 -0.36488018850E+03 -0.21063219495E+03  0.54946544878E+03  0.69239855062E+03  0.00000000000E+00 0. -1.
        -13    1    1    2    0    0  0.37258533806E+02  0.82127295589E+02  0.30833245282E+03  0.32125068661E+03  0.10566000000E+00 0.  1.
<mgrwt>
<rscale>  1 0.54561292E+03</rscale>
<asrwt>0</asrwt>
<pdfrwt beam="2">  1       21 0.52462478E-01 0.99419175E+03</pdfrwt>
<pdfrwt beam="1">  1       -4 0.16206388E+00 0.99419175E+03</pdfrwt>
<totfact> 0.32776609E+01</totfact>
</mgrwt>
</event>
<event>
 6    2  0.2267664E-005  0.1266940E+04  0.7818608E-02  0.9181638E-01
         21   -1    0    0  501  502  0.00000000000E+00  0.00000000000E+00  0.10435025980E+04  0.10435025980E+04  0.00000000000E+00 0. -1.
         -4   -1    0    0    0  501 -0.00000000000E+00 -0.00000000000E+00 -0.15389458883E+04  0.15389458883E+04  0.00000000000E+00 0. -1.
   -9000010    2    1    2    0  502  0.64322636783E+03 -0.45217802845E+03  0.45749861981E+03  0.13470119541E+04  0.99344405368E+03 0.  0.
         13    1    3    3    0    0  0.18748585244E+03 -0.32406849779E+03  0.71574454567E+03  0.80775095292E+03  0.10566000000E+00 0. -1.
         -4    1    3    3    0  502  0.45574051539E+03 -0.12810953065E+03 -0.25824592586E+03  0.53926100122E+03  0.00000000000E+00 0. -1.
        -13    1    1    2    0    0 -0.64322636783E+03  0.45217802845E+03 -0.95294191012E+03  0.12354365321E+04  0.10566000000E+00 0.  1.
<mgrwt>
<rscale>  1 0.11244976E+04</rscale>
<asrwt>0</asrwt>
<pdfrwt beam="1">  1       21 0.16053886E+00 0.12669397E+04</pdfrwt>
<pdfrwt beam="2">  1       -4 0.23676090E+00 0.12669397E+04</pdfrwt>
<totfact> 0.63666215E-01</totfact>
</mgrwt>
</event>
<event>
 6    2  0.2267664E-005  0.1214711E+04  0.7818608E-02  0.9573239E-01
         21   -1    0    0  501  502  0.00000000000E+00  0.00000000000E+00  0.90664451333E+03  0.90664451333E+03  0.00000000000E+00 0. -1.
         -4   -1    0    0    0  501 -0.00000000000E+00 -0.00000000000E+00 -0.58104341773E+03  0.58104341773E+03  0.00000000000E+00 0. -1.
   -9000010    2    1    2    0  502  0.16179458552E+03  0.14661146297E+03  0.35936202642E+03  0.12667530524E+04  0.11949267010E+04 0.  0.
         13    1    3    3    0    0  0.75489044122E+02 -0.25925923907E+03 -0.35174224648E+03  0.44343721985E+03  0.10566000000E+00 0. -1.
         -4    1    3    3    0  502  0.86305541402E+02  0.40587070204E+03  0.71110427290E+03  0.82331583259E+03  0.00000000000E+00 0. -1.
        -13    1    1    2    0    0 -0.16179458552E+03 -0.14661146297E+03 -0.33760930820E+02  0.22093487862E+03  0.10566000000E+00 0.  1.
<mgrwt>
<rscale>  1 0.79093002E+03</rscale>
<asrwt>0</asrwt>
<pdfrwt beam="1">  1       21 0.13948377E+00 0.12147108E+04</pdfrwt>
<pdfrwt beam="2">  1       -4 0.89391294E-01 0.12147108E+04</pdfrwt>
<totfact> 0.13725959E+01</totfact>
</mgrwt>
</event>
<event>
 6    2  0.2267664E-005  0.1001187E+04  0.7818608E-02  0.9975172E-01
         -4   -1    0    0    0  501 -0.00000000000E+00  0.00000000000E+00  0.18269773829E+04  0.18269773829E+04  0.00000000000E+00 0. -1.
         21   -1    0    0  501  502  0.00000000000E+00 -0.00000000000E+00 -0.16788144511E+03  0.16788144511E+03  0.00000000000E+00 0. -1.
   -9000010    2    1    2    0  502  0.91332213475E+02  0.48411398520E+02  0.14565358167E+04  0.17674476354E+04  0.99583599136E+03 0.  0.
         13    1    3    3    0    0 -0.18060055957E+03 -0.17402225566E+03 -0.18184874943E+02  0.25145776668E+03  0.10566000000E+00 0. -1.
         -4    1    3    3    0  502  0.27193277305E+03  0.22243365418E+03  0.14747206917E+04  0.15159898687E+04  0.00000000000E+00 0. -1.
        -13    1    1    2    0    0 -0.91332213475E+02 -0.48411398520E+02  0.20256012112E+03  0.22741119268E+03  0.10566000000E+00 0.  1.
<mgrwt>
<rscale>  1 0.56752414E+03</rscale>
<asrwt>0</asrwt>
<pdfrwt beam="2">  1       21 0.25827916E-01 0.10011866E+04</pdfrwt>
<pdfrwt beam="1">  1       -4 0.28107343E+00 0.10011866E+04</pdfrwt>
<totfact> 0.23970177E+01</totfact>
</mgrwt>
</event>
<event>
 6    2  0.2267664E-005  0.1202757E+04  0.7818608E-02  0.9279925E-01
         21   -1    0    0  501  502  0.00000000000E+00  0.00000000000E+00  0.10798243796E+04  0.10798243796E+04  0.00000000000E+00 0. -1.
         -4   -1    0    0    0  501 -0.00000000000E+00 -0.00000000000E+00 -0.13772310783E+04  0.13772310783E+04  0.00000000000E+00 0. -1.
   -9000010    2    1    2    0  502  0.13038287549E+03  0.62471422904E+03  0.60929590054E+03  0.13482826333E+04  0.10194885986E+04 0.  0.
         13    1    3    3    0    0  0.52011031388E+03  0.20920350253E+03  0.53294860340E+03  0.77350828638E+03  0.10566000000E+00 0. -1.
         -4    1    3    3    0  502 -0.38972743839E+03  0.41551072651E+03  0.76347297149E+02  0.57477434690E+03  0.00000000000E+00 0. -1.
        -13    1    1    2    0    0 -0.13038287549E+03 -0.62471422904E+03 -0.90670259924E+03  0.11087728247E+04  0.10566000000E+00 0.  1.
<mgrwt>
<rscale>  1 0.10265224E+04</rscale>
<asrwt>0</asrwt>
<pdfrwt beam="1">  1       21 0.16612683E+00 0.12027571E+04</pdfrwt>
<pdfrwt beam="2">  1       -4 0.21188170E+00 0.12027571E+04</pdfrwt>
<totfact> 0.83890156E-01</totfact>
</mgrwt>
</event>
<event>
 6    2  0.2267664E-005  0.9992233E+03  0.7818608E-02  0.1042147E+00
         21   -1    0    0  501  502  0.00000000000E+00  0.00000000000E+00  0.20098120746E+04  0.20098120746E+04  0.00000000000E+00 0. -1.
         -4   -1    0    0    0  501 -0.00000000000E+00 -0.00000000000E+00 -0.17277857134E+03  0.17277857134E+03  0.00000000000E+00 0. -1.
   -9000010    2    1    2    0  502  0.12008486572E+02 -0.24070935940E+02  0.18816422697E+04  0.21304987376E+04  0.99886116456E+03 0.  0.
         13    1    3    3    0    0 -0.77266474663E+02 -0.47228283760E+03  0.58579967499E+03  0.75642743022E+03  0.10566000000E+00 0. -1.
         -4    1    3    3    0  502  0.89274961235E+02  0.44821190166E+03  0.12958425947E+04  0.13740713074E+04  0.00000000000E+00 0. -1.
        -13    1    1    2    0    0 -0.12008486572E+02  0.24070935940E+02 -0.44608766444E+02  0.52091908339E+02  0.10566000000E+00 0.  1.
<mgrwt>
<rscale>  1 0.40474930E+03</rscale>
<asrwt>0</asrwt>
<pdfrwt beam="1">  1       21 0.30920184E+00 0.99922332E+03</pdfrwt>
<pdfrwt beam="2">  1       -4 0.26581320E-01 0.99922332E+03</pdfrwt>
<totfact> 0.12728572E+01</totfact>
</mgrwt>
</event>
<event>
 6    2  0.2267664E-005  0.1219916E+04  0.7818608E-02  0.9274985E-01
         21   -1    0    0  501  502  0.00000000000E+00  0.00000000000E+00  0.11784575466E+04  0.11784575466E+04  0.00000000000E+00 0. -1.
         -4   -1    0    0    0  501 -0.00000000000E+00 -0.00000000000E+00 -0.78927742063E+03  0.78927742063E+03  0.00000000000E+00 0. -1.
   -9000010    2    1    2    0  502  0.21281250506E+03 -0.58533072062E+03 -0.24305616902E+02  0.12201577568E+04  0.10489485086E+04 0.  0.
         13    1    3    3    0    0  0.57615945926E+03 -0.55318100353E+03 -0.18766807054E+03  0.82048050618E+03  0.10566000000E+00 0. -1.
         -4    1    3    3    0  502 -0.36334695420E+03 -0.32149717090E+02  0.16336245364E+03  0.39967725066E+03  0.00000000000E+00 0. -1.
        -13    1    1    2    0    0 -0.21281250506E+03  0.58533072062E+03  0.41348574291E+03  0.74757721044E+03  0.10566000000E+00 0.  1.
<mgrwt>
<rscale>  1 0.10311873E+04</rscale>
<asrwt>0</asrwt>
<pdfrwt beam="1">  1       21 0.18130116E+00 0.12199156E+04</pdfrwt>
<pdfrwt beam="2">  1       -4 0.12142730E+00 0.12199156E+04</pdfrwt>
<totfact> 0.30563857E+00</totfact>
</mgrwt>
</event>
<event>
 6    2  0.2267664E-005  0.1066687E+04  0.7818608E-02  0.9632806E-01
         21   -1    0    0  501  502  0.00000000000E+00  0.00000000000E+00  0.11007861495E+04  0.11007861495E+04  0.00000000000E+00 0. -1.
         -4   -1    0    0    0  501 -0.00000000000E+00 -0.00000000000E+00 -0.41715276465E+03  0.41715276465E+03  0.00000000000E+00 0. -1.
   -9000010    2    1    2    0  502 -0.13049203111E+03 -0.22829864969E+03  0.65898118672E+03  0.12538249508E+04  0.10337661046E+04 0.  0.
         13    1    3    3    0    0 -0.21396124687E+03 -0.70380480622E+02  0.91463066699E+03  0.94195652520E+03  0.10566000000E+00 0. -1.
         -4    1    3    3    0  502  0.83469215758E+02 -0.15791816907E+03 -0.25564948027E+03  0.31186842557E+03  0.00000000000E+00 0. -1.
        -13    1    1    2    0    0  0.13049203111E+03  0.22829864969E+03  0.24652198175E+02  0.26411396342E+03  0.10566000000E+00 0.  1.
<mgrwt>
<rscale>  1 0.75162378E+03</rscale>
<asrwt>0</asrwt>
<pdfrwt beam="1">  1       21 0.16935171E+00 0.10666868E+04</pdfrwt>
<pdfrwt beam="2">  1       -4 0.64177349E-01 0.10666868E+04</pdfrwt>
<totfact> 0.17126902E+01</totfact>
</mgrwt>
</event>
<event>
 6    2  0.2267664E-005  0.8333311E+03  0.7818608E-02  0.1011319E+00
         -4   -1    0    0    0  501 -0.00000000000E+00  0.00000000000E+00  0.37525834048E+03  0.37525834048E+03  0.00000000000E+00 0. -1.
         21   -1    0    0  501  502  0.00000000000E+00 -0.00000000000E+00 -0.75155698139E+03  0.75155698139E+03  0.00000000000E+00 0. -1.
   -9000010    2    1    2    0  502  0.11250961904E+03 -0.30147670819E+02 -0.48777273563E+03  0.96558945115E+03  0.82515056208E+03 0.  0.
         13    1    3    3    0    0  0.16995368508E+03  0.37134284930E+03 -0.14121315168E+03  0.43211217544E+03  0.10566000000E+00 0. -1.
         -4    1    3    3    0  502 -0.57444066039E+02 -0.40149052011E+03 -0.34655958395E+03  0.53347727570E+03  0.00000000000E+00 0. -1.
        -13    1    1    2    0    0 -0.11250961904E+03  0.30147670819E+02  0.11147409472E+03  0.16122587072E+03  0.10566000000E+00 0.  1.
<mgrwt>
<rscale>  1 0.50953604E+03</rscale>
<asrwt>0</asrwt>
<pdfrwt beam="2">  1       21 0.11562415E+00 0.83333111E+03</pdfrwt>
<pdfrwt beam="1">  1       -4 0.57732053E-01 0.83333111E+03</pdfrwt>
<totfact> 0.62567895E+01</totfact>
</mgrwt>
</event>
<event>
 6    2  0.2267664E-005  0.1018963E+04  0.7818608E-02  0.9819559E-01
         -4   -1    0    0    0  501 -0.00000000000E+00  0.00000000000E+00  0.38917821409E+03  0.38917821409E+03  0.00000000000E+00 0. -1.
         21   -1    0    0  501  502  0.00000000000E+00 -0.00000000000E+00 -0.10433699118E+04  0.10433699118E+04  0.00000000000E+00 0. -1.
   -9000010    2    1    2    0  502 -0.16166598025E+03 -0.67721654296E+01 -0.73038950203E+03  0.12536966010E+04  0.10060340905E+04 0.  0.
         13    1    3    3    0    0  0.12940518221E+02  0.44785777143E+03 -0.10345979432E+03  0.45983473188E+03  0.10566000000E+00 0. -1.
         -4    1    3    3    0  502 -0.17460649847E+03 -0.45462993686E+03 -0.62692970771E+03  0.79386186910E+03  0.00000000000E+00 0. -1.
        -13    1    1    2    0    0  0.16166598025E+03  0.67721654296E+01  0.76197804368E+02  0.17885152487E+03  0.10566000000E+00 0.  1.
<mgrwt>
<rscale>  1 0.64323370E+03</rscale>
<asrwt>0</asrwt>
<pdfrwt beam="2">  1       21 0.16051845E+00 0.10189634E+04</pdfrwt>
<pdfrwt beam="1">  1       -4 0.59873572E-01 0.10189634E+04</pdfrwt>
<totfact> 0.23410567E+01</totfact>
</mgrwt>
</event>
<event>
 6    2  0.2267664E-005  0.1125551E+04  0.7818608E-02  0.9394726E-01
         21   -1    0    0  501  502  0.00000000000E+00  0.00000000000E+00  0.28905503298E+03  0.28905503298E+03  0.00000000000E+00 0. -1.
         -4   -1    0    0    0  501 -0.00000000000E+00 -0.00000000000E+00 -0.24954545838E+04  0.24954545838E+04  0.00000000000E+00 0. -1.
   -9000010    2    1    2    0  502 -0.24729131813E+03 -0.45021767905E+03 -0.11462376558E+04  0.16064636884E+04  0.10015067968E+04 0.  0.
         13    1    3    3    0    0  0.32676238407E+03 -0.27992118704E+03 -0.17292861349E+03  0.46371741732E+03  0.10566000000E+00 0. -1.
         -4    1    3    3    0  502 -0.57405370220E+03 -0.17029649201E+03 -0.97330904231E+03  0.11427462711E+04  0.00000000000E+00 0. -1.
        -13    1    1    2    0    0  0.24729131813E+03  0.45021767905E+03 -0.10601618950E+04  0.11780459284E+04  0.10566000000E+00 0.  1.
<mgrwt>
<rscale>  1 0.92510979E+03</rscale>
<asrwt>0</asrwt>
<pdfrwt beam="1">  1       21 0.44470005E-01 0.11255509E+04</pdfrwt>
<pdfrwt beam="2">  1       -4 0.38391609E+00 0.11255509E+04</pdfrwt>
<totfact> 0.17001907E+00</totfact>
</mgrwt>
</event>
<event>
 6    2  0.2267664E-005  0.1095030E+04  0.7818608E-02  0.9502578E-01
         21   -1    0    0  501  502  0.00000000000E+00  0.00000000000E+00  0.14608238071E+04  0.14608238071E+04  0.00000000000E+00 0. -1.
         -4   -1    0    0    0  501 -0.00000000000E+00 -0.00000000000E+00 -0.46296665229E+03  0.46296665229E+03  0.00000000000E+00 0. -1.
   -9000010    2    1    2    0  502 -0.30700967373E+03 -0.22541243229E+03  0.10757484056E+04  0.15350324851E+04  0.10266569017E+04 0.  0.
         13    1    3    3    0    0 -0.51028036558E+03  0.15121181729E+03  0.95007045202E+03  0.10889834435E+04  0.10566000000E+00 0. -1.
         -4    1    3    3    0  502  0.20327069185E+03 -0.37662424958E+03  0.12567795362E+03  0.44604904166E+03  0.00000000000E+00 0. -1.
        -13    1    1    2    0    0  0.30700967373E+03  0.22541243229E+03 -0.77891250877E+02  0.38875797422E+03  0.10566000000E+00 0.  1.
<mgrwt>
<rscale>  1 0.84094004E+03</rscale>
<asrwt>0</asrwt>
<pdfrwt beam="1">  1       21 0.22474212E+00 0.10950297E+04</pdfrwt>
<pdfrwt beam="2">  1       -4 0.71225639E-01 0.10950297E+04</pdfrwt>
<totfact> 0.55559901E+00</totfact>
</mgrwt>
</event>
<event>
 6    2  0.2267664E-005  0.9966270E+03  0.7818608E-02  0.1004063E+00
         21   -1    0    0  501  502  0.00000000000E+00  0.00000000000E+00  0.13797679616E+04  0.13797679616E+04  0.00000000000E+00 0. -1.
         -4   -1    0    0    0  501 -0.00000000000E+00 -0.00000000000E+00 -0.21623316366E+03  0.21623316366E+03  0.00000000000E+00 0. -1.
   -9000010    2    1    2    0  502  0.82306103325E+02  0.22349910200E+02  0.10015099069E+04  0.14129003617E+04  0.99297105968E+03 0.  0.
         13    1    3    3    0    0 -0.11943904428E+02 -0.30284230999E+03  0.10294857725E+04  0.10731715094E+04  0.10566000000E+00 0. -1.
         -4    1    3    3    0  502  0.94250007753E+02  0.32519222019E+03 -0.27975865641E+02  0.33972885231E+03  0.00000000000E+00 0. -1.
        -13    1    1    2    0    0 -0.82306103325E+02 -0.22349910200E+02  0.16202489109E+03  0.18310076359E+03  0.10566000000E+00 0.  1.
<mgrwt>
<rscale>  1 0.53903862E+03</rscale>
<asrwt>0</asrwt>
<pdfrwt beam="1">  1       21 0.21227199E+00 0.99662698E+03</pdfrwt>
<pdfrwt beam="2">  1       -4 0.33266641E-01 0.99662698E+03</pdfrwt>
<totfact> 0.33888009E+01</totfact>
</mgrwt>
</event>
<event>
 6    2  0.2267664E-005  0.1029943E+04  0.7818608E-02  0.9828271E-01
         21   -1    0    0  501  502  0.00000000000E+00  0.00000000000E+00  0.14475331163E+04  0.14475331163E+04  0.00000000000E+00 0. -1.
         -4   -1    0    0    0  501 -0.00000000000E+00 -0.00000000000E+00 -0.56611965228E+03  0.56611965228E+03  0.00000000000E+00 0. -1.
   -9000010    2    1    2    0  502  0.14108849098E+03 -0.57326672370E+02  0.12471620282E+04  0.16174655236E+04  0.10186212672E+04 0.  0.
         13    1    3    3    0    0  0.31701637266E+03  0.36493076469E+03  0.96688068400E+03  0.10809866381E+04  0.10566000000E+00 0. -1.
         -4    1    3    3    0  502 -0.17592788168E+03 -0.42225743706E+03  0.28028134417E+03  0.53647888551E+03  0.00000000000E+00 0. -1.
        -13    1    1    2    0    0 -0.14108849098E+03  0.57326672370E+02 -0.36574856419E+03  0.39618724490E+03  0.10566000000E+00 0.  1.
<mgrwt>
<rscale>  1 0.63867184E+03</rscale>
<asrwt>0</asrwt>
<pdfrwt beam="1">  1       21 0.22269740E+00 0.10299425E+04</pdfrwt>
<pdfrwt beam="2">  1       -4 0.87095332E-01 0.10299425E+04</pdfrwt>
<totfact> 0.36473963E+00</totfact>
</mgrwt>
</event>
<event>
 6    2  0.2267664E-005  0.9601800E+03  0.7818608E-02  0.1007887E+00
         21   -1    0    0  501  502  0.00000000000E+00  0.00000000000E+00  0.28302763404E+03  0.28302763404E+03  0.00000000000E+00 0. -1.
         -4   -1    0    0    0  501 -0.00000000000E+00 -0.00000000000E+00 -0.96699368681E+03  0.96699368681E+03  0.00000000000E+00 0. -1.
   -9000010    2    1    2    0  502  0.55729876591E+01  0.84483396611E+02 -0.60971743832E+03  0.11374097299E+04  0.95643977159E+03 0.  0.
         13    1    3    3    0    0  0.25639528567E+03 -0.34121189317E+03 -0.12376639190E+03  0.44438972702E+03  0.10566000000E+00 0. -1.
         -4    1    3    3    0  502 -0.25082229801E+03  0.42569528979E+03 -0.48595104642E+03  0.69302000292E+03  0.00000000000E+00 0. -1.
        -13    1    1    2    0    0 -0.55729876591E+01 -0.84483396611E+02 -0.74248614450E+02  0.11261159091E+03  0.10566000000E+00 0.  1.
<mgrwt>
<rscale>  1 0.52323058E+03</rscale>
<asrwt>0</asrwt>
<pdfrwt beam="1">  1       21 0.43542713E-01 0.96017995E+03</pdfrwt>
<pdfrwt beam="2">  1       -4 0.14876826E+00 0.96017995E+03</pdfrwt>
<totfact> 0.61899061E+01</totfact>
</mgrwt>
</event>
<event>
 6    2  0.2267664E-005  0.1003375E+04  0.7818608E-02  0.9682627E-01
         -4   -1    0    0    0  501 -0.00000000000E+00  0.00000000000E+00  0.13223055206E+04  0.13223055206E+04  0.00000000000E+00 0. -1.
         21   -1    0    0  501  502  0.00000000000E+00 -0.00000000000E+00 -0.12150611208E+04  0.12150611208E+04  0.00000000000E+00 0. -1.
   -9000010    2    1    2    0  502  0.62307466448E+01  0.26686012979E+03 -0.98913904818E+03  0.14089563315E+04  0.96721700589E+03 0.  0.
         13    1    3    3    0    0 -0.15124339343E+03 -0.30172285760E+03 -0.11943095335E+03  0.35801537766E+03  0.10566000000E+00 0. -1.
         -4    1    3    3    0  502  0.15747414007E+03  0.56858298739E+03 -0.86970809483E+03  0.10509409539E+04  0.00000000000E+00 0. -1.
        -13    1    1    2    0    0 -0.62307466448E+01 -0.26686012979E+03  0.10963834480E+04  0.11284103099E+04  0.10566000000E+00 0.  1.
<mgrwt>
<rscale>  1 0.72060630E+03</rscale>
<asrwt>0</asrwt>
<pdfrwt beam="2">  1       21 0.18693248E+00 0.10033752E+04</pdfrwt>
<pdfrwt beam="1">  1       -4 0.20343162E+00 0.10033752E+04</pdfrwt>
<totfact> 0.69191918E-01</totfact>
</mgrwt>
</event>
<event>
 6    2  0.2267664E-005  0.1037217E+04  0.7818608E-02  0.9650539E-01
         21   -1    0    0  501  502  0.00000000000E+00  0.00000000000E+00  0.45506153006E+03  0.45506153006E+03  0.00000000000E+00 0. -1.
         -4   -1    0    0    0  501 -0.00000000000E+00 -0.00000000000E+00 -0.17941564176E+04  0.17941564176E+04  0.00000000000E+00 0. -1.
   -9000010    2    1    2    0  502 -0.26261661187E+03  0.59658156405E+02 -0.17190947020E+03  0.10513663750E+04  0.10016445518E+04 0.  0.
         13    1    3    3    0    0 -0.17406261747E+02 -0.23693274087E+03  0.33762777818E+03  0.41283486942E+03  0.10566000000E+00 0. -1.
         -4    1    3    3    0  502 -0.24521035013E+03  0.29659089728E+03 -0.50953724838E+03  0.63853150560E+03  0.00000000000E+00 0. -1.
        -13    1    1    2    0    0  0.26261661187E+03 -0.59658156405E+02 -0.11671854173E+04  0.11978515726E+04  0.10566000000E+00 0.  1.
<mgrwt>
<rscale>  1 0.74039635E+03</rscale>
<asrwt>0</asrwt>
<pdfrwt beam="1">  1       21 0.70009466E-01 0.10372167E+04</pdfrwt>
<pdfrwt beam="2">  1       -4 0.27602407E+00 0.10372167E+04</pdfrwt>
<totfact> 0.30925871E+00</totfact>
</mgrwt>
</event>
<event>
 6    2  0.2267664E-005  0.1151069E+04  0.7818608E-02  0.9355442E-01
         -4   -1    0    0    0  501 -0.00000000000E+00  0.00000000000E+00  0.10206887155E+04  0.10206887155E+04  0.00000000000E+00 0. -1.
         21   -1    0    0  501  502  0.00000000000E+00 -0.00000000000E+00 -0.13041061889E+04  0.13041061889E+04  0.00000000000E+00 0. -1.
   -9000010    2    1    2    0  502  0.49428169846E+03 -0.24817848894E+03 -0.92575143418E+03  0.14771511773E+04  0.10094815119E+04 0.  0.
         13    1    3    3    0    0  0.63742897792E+03  0.20017553429E+03 -0.64750813047E+03  0.93040460909E+03  0.10566000000E+00 0. -1.
         -4    1    3    3    0  502 -0.14314727945E+03 -0.44835402323E+03 -0.27824330370E+03  0.54674656818E+03  0.00000000000E+00 0. -1.
        -13    1    1    2    0    0 -0.49428169846E+03  0.24817848894E+03  0.64233396074E+03  0.84764372710E+03  0.10566000000E+00 0.  1.
<mgrwt>
<rscale>  1 0.95835121E+03</rscale>
<asrwt>0</asrwt>
<pdfrwt beam="2">  1       21 0.20063172E+00 0.11510690E+04</pdfrwt>
<pdfrwt beam="1">  1       -4 0.15702903E+00 0.11510690E+04</pdfrwt>
<totfact> 0.11452238E+00</totfact>
</mgrwt>
</event>
<event>
 6    2  0.2267664E-005  0.1036025E+04  0.7818608E-02  0.1001973E+00
         -4   -1    0    0    0  501 -0.00000000000E+00  0.00000000000E+00  0.24305972045E+03  0.24305972045E+03  0.00000000000E+00 0. -1.
         21   -1    0    0  501  502  0.00000000000E+00 -0.00000000000E+00 -0.13485708313E+04  0.13485708313E+04  0.00000000000E+00 0. -1.
   -9000010    2    1    2    0  502 -0.39651431342E+02 -0.70700568641E+02 -0.90604838917E+03  0.13763256635E+04  0.10328493801E+04 0.  0.
         13    1    3    3    0    0 -0.22940388729E+03  0.38171451852E+03 -0.72995488035E+03  0.85508260166E+03  0.10566000000E+00 0. -1.
         -4    1    3    3    0  502  0.18975245594E+03 -0.45241508716E+03 -0.17609350882E+03  0.52124306180E+03  0.00000000000E+00 0. -1.
        -13    1    1    2    0    0  0.39651431342E+02  0.70700568641E+02 -0.19946272167E+03  0.21530488828E+03  0.10566000000E+00 0.  1.
<mgrwt>
<rscale>  1 0.54793657E+03</rscale>
<asrwt>0</asrwt>
<pdfrwt beam="2">  1       21 0.20747244E+00 0.10360254E+04</pdfrwt>
<pdfrwt beam="1">  1       -4 0.37393803E-01 0.10360254E+04</pdfrwt>
<totfact> 0.28750192E+01</totfact>
</mgrwt>
</event>
<event>
 6    2  0.2267664E-005  0.1306671E+04  0.7818608E-02  0.9310311E-01
         21   -1    0    0  501  502  0.00000000000E+00  0.00000000000E+00  0.60873583847E+03  0.60873583847E+03  0.00000000000E+00 0. -1.
         -4   -1    0    0    0  501 -0.00000000000E+00 -0.00000000000E+00 -0.12641142374E+04  0.12641142374E+04  0.00000000000E+00 0. -1.
   -9000010    2    1    2    0  502  0.43945830779E+03  0.72215810093E+02 -0.44557414624E+03  0.13805528454E+04  0.12284344149E+04 0.  0.
         13    1    3    3    0    0 -0.40950492219E+02 -0.52053228825E+03 -0.30510299624E+03  0.60474676965E+03  0.10566000000E+00 0. -1.
         -4    1    3    3    0  502  0.48040880001E+03  0.59274809834E+03 -0.14047115000E+03  0.77580607576E+03  0.00000000000E+00 0. -1.
        -13    1    1    2    0    0 -0.43945830779E+03 -0.72215810093E+02 -0.20980425270E+03  0.49229723047E+03  0.10566000000E+00 0.  1.
<mgrwt>
<rscale>  1 0.99839111E+03</rscale>
<asrwt>0</asrwt>
<pdfrwt beam="1">  1       21 0.93651668E-01 0.13066713E+04</pdfrwt>
<pdfrwt beam="2">  1       -4 0.19447911E+00 0.13066713E+04</pdfrwt>
<totfact> 0.49477661E+00</totfact>
</mgrwt>
</event>
<event>
 6    2  0.2267664E-005  0.1031332E+04  0.7818608E-02  0.9671703E-01
         21   -1    0    0  501  502  0.00000000000E+00  0.00000000000E+00  0.79144187308E+03  0.79144187308E+03  0.00000000000E+00 0. -1.
         -4   -1    0    0    0  501 -0.00000000000E+00 -0.00000000000E+00 -0.12754266551E+04  0.12754266551E+04  0.00000000000E+00 0. -1.
   -9000010    2    1    2    0  502  0.24625296452E+03 -0.66314359515E+02  0.43043604037E+03  0.11175511058E+04  0.99930334357E+03 0.  0.
         13    1    3    3    0    0  0.50524962753E+03  0.24330456089E+03  0.44152649363E+03  0.71373661193E+03  0.10566000000E+00 0. -1.
         -4    1    3    3    0  502 -0.25899666301E+03 -0.30961892041E+03 -0.11090453263E+02  0.40381449389E+03  0.00000000000E+00 0. -1.
        -13    1    1    2    0    0 -0.24625296452E+03  0.66314359515E+02 -0.91442082242E+03  0.94931742239E+03  0.10566000000E+00 0.  1.
<mgrwt>
<rscale>  1 0.72726856E+03</rscale>
<asrwt>0</asrwt>
<pdfrwt beam="1">  1       21 0.12176029E+00 0.10313318E+04</pdfrwt>
<pdfrwt beam="2">  1       -4 0.19621948E+00 0.10313318E+04</pdfrwt>
<totfact> 0.25633492E+00</totfact>
</mgrwt>
</event>
<event>
 6    2  0.2267664E-005  0.1150128E+04  0.7818608E-02  0.9337083E-01
         21   -1    0    0  501  502  0.00000000000E+00  0.00000000000E+00  0.84264110542E+03  0.84264110542E+03  0.00000000000E+00 0.  1.
         -4   -1    0    0    0  501 -0.00000000000E+00 -0.00000000000E+00 -0.91937767354E+03  0.91937767354E+03  0.00000000000E+00 0. -1.
   -9000010    2    1    2    0  502  0.93128351227E+02 -0.58515192683E+03  0.67812100514E+02  0.11521253489E+04  0.98575791720E+03 0.  0.
         13    1    3    3    0    0  0.48664989388E+03 -0.34194783432E+03  0.26261748552E+03  0.65017258899E+03  0.10566000000E+00 0. -1.
         -4    1    3    3    0  502 -0.39352154265E+03 -0.24320409251E+03 -0.19480538501E+03  0.50195275990E+03  0.00000000000E+00 0. -1.
        -13    1    1    2    0    0 -0.93128351227E+02  0.58515192683E+03 -0.14454866864E+03  0.60989343007E+03  0.10566000000E+00 0.  1.
<mgrwt>
<rscale>  1 0.97439426E+03</rscale>
<asrwt>0</asrwt>
<pdfrwt beam="1">  1       21 0.12963709E+00 0.11501280E+04</pdfrwt>
<pdfrwt beam="2">  1       -4 0.14144272E+00 0.11501280E+04</pdfrwt>
<totfact> 0.53716549E+00</totfact>
</mgrwt>
</event>
<event>
 6    2  0.2267664E-005  0.1226192E+04  0.7818608E-02  0.9205217E-01
         21   -1    0    0  501  502  0.00000000000E+00  0.00000000000E+00  0.99762564354E+03  0.99762564354E+03  0.00000000000E+00 0. -1.
         -4   -1    0    0    0  501 -0.00000000000E+00 -0.00000000000E+00 -0.10399701086E+04  0.10399701086E+04  0.00000000000E+00 0. -1.
   -9000010    2    1    2    0  502  0.29470495507E+03 -0.73734943659E+03  0.10235689508E+03  0.12304565467E+04  0.93435067137E+03 0.  0.
         13    1    3    3    0    0  0.56556747752E+03 -0.16010564439E+03  0.27386294370E+02  0.58843046257E+03  0.10566000000E+00 0. -1.
         -4    1    3    3    0  502 -0.27086252245E+03 -0.57724379220E+03  0.74970600714E+02  0.64202608411E+03  0.00000000000E+00 0. -1.
        -13    1    1    2    0    0 -0.29470495507E+03  0.73734943659E+03 -0.14470136013E+03  0.80713920545E+03  0.10566000000E+00 0.  1.
<mgrwt>
<rscale>  1 0.10999742E+04</rscale>
<asrwt>0</asrwt>
<pdfrwt beam="1">  1       21 0.15348087E+00 0.12261918E+04</pdfrwt>
<pdfrwt beam="2">  1       -4 0.15999540E+00 0.12261918E+04</pdfrwt>
<totfact> 0.24018634E+00</totfact>
</mgrwt>
</event>
<event>
 6    2  0.2267664E-005  0.9407713E+03  0.7818608E-02  0.1000017E+00
         -4   -1    0    0    0  501 -0.00000000000E+00  0.00000000000E+00  0.84402666087E+03  0.84402666087E+03  0.00000000000E+00 0. -1.
         21   -1    0    0  501  502  0.00000000000E+00 -0.00000000000E+00 -0.34248229751E+03  0.34248229751E+03  0.00000000000E+00 0. -1.
   -9000010    2    1    2    0  502  0.88466080771E+02  0.73675855801E+02  0.36798929443E+03  0.10101815732E+04  0.93370033242E+03 0.  0.
         13    1    3    3    0    0  0.89634976190E+01  0.50337565700E+03  0.18378328157E+03  0.53595121242E+03  0.10566000000E+00 0. -1.
         -4    1    3    3    0  502  0.79502583152E+02 -0.42969980120E+03  0.18420601286E+03  0.47423036074E+03  0.00000000000E+00 0. -1.
        -13    1    1    2    0    0 -0.88466080771E+02 -0.73675855801E+02  0.13355506893E+03  0.17632738521E+03  0.10566000000E+00 0.  1.
<mgrwt>
<rscale>  1 0.55642678E+03</rscale>
<asrwt>0</asrwt>
<pdfrwt beam="2">  1       21 0.52689584E-01 0.94077133E+03</pdfrwt>
<pdfrwt beam="1">  1       -4 0.12985025E+00 0.94077133E+03</pdfrwt>
<totfact> 0.58787216E+01</totfact>
</mgrwt>
</event>
<event>
 6    2  0.2267664E-005  0.1063451E+04  0.7818608E-02  0.9540951E-01
         -4   -1    0    0    0  501 -0.00000000000E+00  0.00000000000E+00  0.75225754207E+03  0.75225754207E+03  0.00000000000E+00 0. -1.
         21   -1    0    0  501  502  0.00000000000E+00 -0.00000000000E+00 -0.10476678926E+04  0.10476678926E+04  0.00000000000E+00 0. -1.
   -9000010    2    1    2    0  502  0.11634344023E+03 -0.34469981628E+03 -0.68650121819E+03  0.12657851560E+04  0.99928693535E+03 0.  0.
         13    1    3    3    0    0  0.44111069384E+03 -0.48971772704E+03 -0.61813548397E+03  0.90360034534E+03  0.10566000000E+00 0. -1.
         -4    1    3    3    0  502 -0.32476725361E+03  0.14501791076E+03 -0.68365734221E+02  0.36218481066E+03  0.00000000000E+00 0. -1.
        -13    1    1    2    0    0 -0.11634344023E+03  0.34469981628E+03  0.39109086762E+03  0.53414027870E+03  0.10566000000E+00 0.  1.
<mgrwt>
<rscale>  1 0.81330823E+03</rscale>
<asrwt>0</asrwt>
<pdfrwt beam="2">  1       21 0.16117968E+00 0.10634511E+04</pdfrwt>
<pdfrwt beam="1">  1       -4 0.11573193E+00 0.10634511E+04</pdfrwt>
<totfact> 0.49757721E+00</totfact>
</mgrwt>
</event>
<event>
 6    2  0.2267664E-005  0.1411626E+04  0.7818608E-02  0.9032105E-01
         21   -1    0    0  501  502  0.00000000000E+00  0.00000000000E+00  0.12133125865E+04  0.12133125865E+04  0.00000000000E+00 0.  1.
         -4   -1    0    0    0  501 -0.00000000000E+00 -0.00000000000E+00 -0.12062977524E+04  0.12062977524E+04  0.00000000000E+00 0. -1.
   -9000010    2    1    2    0  502  0.77141872754E+03 -0.64476788656E+03  0.59177730391E+02  0.14128663497E+04  0.99089698641E+03 0.  0.
         13    1    3    3    0    0  0.63915327445E+03  0.95855931438E+02 -0.67935986210E+02  0.64986196782E+03  0.10566000000E+00 0. -1.
         -4    1    3    3    0  502  0.13226545309E+03 -0.74062381800E+03  0.12711371660E+03  0.76300438191E+03  0.00000000000E+00 0. -1.
        -13    1    1    2    0    0 -0.77141872754E+03  0.64476788656E+03 -0.52162896252E+02  0.10067439891E+04  0.10566000000E+00 0.  1.
<mgrwt>
<rscale>  1 0.12968020E+04</rscale>
<asrwt>0</asrwt>
<pdfrwt beam="1">  1       21 0.18666348E+00 0.14116265E+04</pdfrwt>
<pdfrwt beam="2">  1       -4 0.18558427E+00 0.14116265E+04</pdfrwt>
<totfact> 0.86191786E-01</totfact>
</mgrwt>
</event>
<event>
 6    2  0.2267664E-005  0.9838258E+03  0.7818608E-02  0.1001512E+00
         -4   -1    0    0    0  501 -0.00000000000E+00  0.00000000000E+00  0.33180786285E+03  0.33180786285E+03  0.00000000000E+00 0. -1.
         21   -1    0    0  501  502  0.00000000000E+00 -0.00000000000E+00 -0.96701032380E+03  0.96701032380E+03  0.00000000000E+00 0. -1.
   -9000010    2    1    2    0  502  0.41949583046E+02 -0.86392102525E+02 -0.67681833746E+03  0.11941508315E+04  0.97912705177E+03 0.  0.
         13    1    3    3    0    0  0.10984939917E+02  0.38836445110E+03 -0.27914591409E+02  0.38952131054E+03  0.10566000000E+00 0. -1.
         -4    1    3    3    0  502  0.30964643129E+02 -0.47475655363E+03 -0.64890374605E+03  0.80462952095E+03  0.00000000000E+00 0. -1.
        -13    1    1    2    0    0 -0.41949583046E+02  0.86392102525E+02  0.41615876509E+02  0.10466735517E+03  0.10566000000E+00 0.  1.
<mgrwt>
<rscale>  1 0.54992045E+03</rscale>
<asrwt>0</asrwt>
<pdfrwt beam="2">  1       21 0.14877082E+00 0.98382577E+03</pdfrwt>
<pdfrwt beam="1">  1       -4 0.51047364E-01 0.98382577E+03</pdfrwt>
<totfact> 0.40999054E+01</totfact>
</mgrwt>
</event>
<event>
 6    2  0.2267664E-005  0.1068853E+04  0.7818608E-02  0.9670785E-01
         21   -1    0    0  501  502  0.00000000000E+00  0.00000000000E+00  0.95163252244E+03  0.95163252244E+03  0.00000000000E+00 0. -1.
         -4   -1    0    0    0  501 -0.00000000000E+00 -0.00000000000E+00 -0.44314146898E+03  0.44314146898E+03  0.00000000000E+00 0. -1.
   -9000010    2    1    2    0  502 -0.22176340166E+03  0.60282214840E+02  0.42561933143E+03  0.11504776852E+04  0.10438554197E+04 0.  0.
         13    1    3    3    0    0  0.23738062307E+03 -0.83384204014E+01 -0.24083994713E+03  0.33826466083E+03  0.10566000000E+00 0. -1.
         -4    1    3    3    0  502 -0.45914402473E+03  0.68620635242E+02  0.66645927856E+03  0.81221302440E+03  0.00000000000E+00 0. -1.
        -13    1    1    2    0    0  0.22176340166E+03 -0.60282214840E+02  0.82871722034E+02  0.24429630619E+03  0.10566000000E+00 0.  1.
<mgrwt>
<rscale>  1 0.72783193E+03</rscale>
<asrwt>0</asrwt>
<pdfrwt beam="1">  1       21 0.14640500E+00 0.10688532E+04</pdfrwt>
<pdfrwt beam="2">  1       -4 0.68175611E-01 0.10688532E+04</pdfrwt>
<totfact> 0.22665931E+01</totfact>
</mgrwt>
</event>
<event>
 6    2  0.2267664E-005  0.1134197E+04  0.7818608E-02  0.9383187E-01
         -4   -1    0    0    0  501 -0.00000000000E+00  0.00000000000E+00  0.72390426318E+03  0.72390426318E+03  0.00000000000E+00 0. -1.
         21   -1    0    0  501  502  0.00000000000E+00 -0.00000000000E+00 -0.94915469472E+03  0.94915469472E+03  0.00000000000E+00 0. -1.
   -9000010    2    1    2    0  502  0.49245215091E+03 -0.17671169154E+03 -0.13638416049E+03  0.11423675521E+04  0.10063134909E+04 0.  0.
         13    1    3    3    0    0  0.64322578419E+03 -0.21095716682E+03  0.25357843062E+03  0.72287230360E+03  0.10566000000E+00 0. -1.
         -4    1    3    3    0  502 -0.15077363327E+03  0.34245475283E+02 -0.38996259111E+03  0.41949524852E+03  0.00000000000E+00 0. -1.
        -13    1    1    2    0    0 -0.49245215091E+03  0.17671169154E+03 -0.88866271051E+02  0.53069140577E+03  0.10566000000E+00 0.  1.
<mgrwt>
<rscale>  1 0.93472308E+03</rscale>
<asrwt>0</asrwt>
<pdfrwt beam="2">  1       21 0.14602380E+00 0.11341971E+04</pdfrwt>
<pdfrwt beam="1">  1       -4 0.11136989E+00 0.11341971E+04</pdfrwt>
<totfact> 0.71698878E+00</totfact>
</mgrwt>
</event>
<event>
 6    2  0.2267664E-005  0.1096321E+04  0.7818608E-02  0.9457812E-01
         21   -1    0    0  501  502  0.00000000000E+00  0.00000000000E+00  0.17046561324E+04  0.17046561324E+04  0.00000000000E+00 0. -1.
         -4   -1    0    0    0  501 -0.00000000000E+00 -0.00000000000E+00 -0.36271771774E+03  0.36271771774E+03  0.00000000000E+00 0. -1.
   -9000010    2    1    2    0  502 -0.16269442498E+03  0.41331519496E+03  0.75429706578E+03  0.13307455230E+04  0.10023076659E+04 0.  0.
         13    1    3    3    0    0 -0.50206372514E+03  0.53178792896E+02  0.10720229251E+03  0.51612819221E+03  0.10566000000E+00 0. -1.
         -4    1    3    3    0  502  0.33936930015E+03  0.36013640206E+03  0.64709477327E+03  0.81461733076E+03  0.00000000000E+00 0. -1.
        -13    1    1    2    0    0  0.16269442498E+03 -0.41331519496E+03  0.58764134893E+03  0.73662832720E+03  0.10566000000E+00 0.  1.
<mgrwt>
<rscale>  1 0.87466939E+03</rscale>
<asrwt>0</asrwt>
<pdfrwt beam="1">  1       21 0.26225478E+00 0.10963209E+04</pdfrwt>
<pdfrwt beam="2">  1       -4 0.55802727E-01 0.10963209E+04</pdfrwt>
<totfact> 0.54549416E+00</totfact>
</mgrwt>
</event>
<event>
 6    2  0.2267664E-005  0.1093779E+04  0.7818608E-02  0.9476838E-01
         -4   -1    0    0    0  501 -0.00000000000E+00  0.00000000000E+00  0.42273048545E+03  0.42273048545E+03  0.00000000000E+00 0. -1.
         21   -1    0    0  501  502  0.00000000000E+00 -0.00000000000E+00 -0.13649445257E+04  0.13649445257E+04  0.00000000000E+00 0.  1.
   -9000010    2    1    2    0  502  0.28480061871E+03 -0.30635067878E+03 -0.75718397260E+03  0.13302930396E+04  0.10106383488E+04 0.  0.
         13    1    3    3    0    0  0.36679453480E+03  0.25244424316E+03 -0.86691386327E+02  0.45363171658E+03  0.10566000000E+00 0. -1.
         -4    1    3    3    0  502 -0.81993916089E+02 -0.55879492194E+03 -0.67049258627E+03  0.87666132303E+03  0.00000000000E+00 0. -1.
        -13    1    1    2    0    0 -0.28480061871E+03  0.30635067878E+03 -0.18503006769E+03  0.45738197157E+03  0.10566000000E+00 0.  1.
<mgrwt>
<rscale>  1 0.86013205E+03</rscale>
<asrwt>0</asrwt>
<pdfrwt beam="2">  1       21 0.20999147E+00 0.10937788E+04</pdfrwt>
<pdfrwt beam="1">  1       -4 0.65035459E-01 0.10937788E+04</pdfrwt>
<totfact> 0.85353651E+00</totfact>
</mgrwt>
</event>
<event>
 6    2  0.2267664E-005  0.1023442E+04  0.7818608E-02  0.9663050E-01
         21   -1    0    0  501  502  0.00000000000E+00  0.00000000000E+00  0.27862018938E+03  0.27862018938E+03  0.00000000000E+00 0. -1.
         -4   -1    0    0    0  501 -0.00000000000E+00 -0.00000000000E+00 -0.16699141744E+04  0.16699141744E+04  0.00000000000E+00 0. -1.
   -9000010    2    1    2    0  502 -0.22679918331E+03  0.14410187922E+03 -0.79987808303E+03  0.12989375647E+04  0.98753765903E+03 0.  0.
         13    1    3    3    0    0 -0.17193223539E+03 -0.41112490843E+03 -0.48353455005E+03  0.65756372783E+03  0.10566000000E+00 0. -1.
         -4    1    3    3    0  502 -0.54866947914E+02  0.55522678765E+03 -0.31634353298E+03  0.64137383682E+03  0.00000000000E+00 0. -1.
        -13    1    1    2    0    0  0.22679918331E+03 -0.14410187922E+03 -0.59141590203E+03  0.64959679917E+03  0.10566000000E+00 0.  1.
<mgrwt>
<rscale>  1 0.73260024E+03</rscale>
<asrwt>0</asrwt>
<pdfrwt beam="1">  1       21 0.42864645E-01 0.10234422E+04</pdfrwt>
<pdfrwt beam="2">  1       -4 0.25690987E+00 0.10234422E+04</pdfrwt>
<totfact> 0.11947902E+01</totfact>
</mgrwt>
</event>
<event>
 6    2  0.2267664E-005  0.1020206E+04  0.7818608E-02  0.9710309E-01
         21   -1    0    0  501  502  0.00000000000E+00  0.00000000000E+00  0.29210692083E+03  0.29210692083E+03  0.00000000000E+00 0.  1.
         -4   -1    0    0    0  501 -0.00000000000E+00 -0.00000000000E+00 -0.13997278086E+04  0.13997278086E+04  0.00000000000E+00 0. -1.
   -9000010    2    1    2    0  502 -0.11371799777E+03 -0.20154084808E+03 -0.10248248532E+04  0.14460590371E+04  0.99361474548E+03 0.  0.
         13    1    3    3    0    0  0.21157836145E+03 -0.37331528240E+03 -0.98701510086E+03  0.10762567183E+04  0.10566000000E+00 0. -1.
         -4    1    3    3    0  502 -0.32529635922E+03  0.17177443432E+03 -0.37809752343E+02  0.36980231879E+03  0.00000000000E+00 0. -1.
        -13    1    1    2    0    0  0.11371799777E+03  0.20154084808E+03 -0.82796034557E+02  0.24577569238E+03  0.10566000000E+00 0.  1.
<mgrwt>
<rscale>  1 0.70406294E+03</rscale>
<asrwt>0</asrwt>
<pdfrwt beam="1">  1       21 0.44939527E-01 0.10202062E+04</pdfrwt>
<pdfrwt beam="2">  1       -4 0.21534274E+00 0.10202062E+04</pdfrwt>
<totfact> 0.19708131E+01</totfact>
</mgrwt>
</event>
<event>
 6    2  0.2267664E-005  0.1040694E+04  0.7818608E-02  0.9749198E-01
         21   -1    0    0  501  502  0.00000000000E+00  0.00000000000E+00  0.11281833960E+04  0.11281833960E+04  0.00000000000E+00 0. -1.
         -4   -1    0    0    0  501 -0.00000000000E+00 -0.00000000000E+00 -0.33655448910E+03  0.33655448910E+03  0.00000000000E+00 0. -1.
   -9000010    2    1    2    0  502  0.11336530485E+03  0.15435015685E+03  0.67770333938E+03  0.12419045183E+04  0.10229219682E+04 0.  0.
         13    1    3    3    0    0 -0.89257033693E+02 -0.87692913752E+02 -0.24042034226E+03  0.27103287130E+03  0.10566000000E+00 0. -1.
         -4    1    3    3    0  502  0.20262233854E+03  0.24204307060E+03  0.91812368164E+03  0.97087164697E+03  0.00000000000E+00 0. -1.
        -13    1    1    2    0    0 -0.11336530485E+03 -0.15435015685E+03  0.11392556748E+03  0.22283336679E+03  0.10566000000E+00 0.  1.
<mgrwt>
<rscale>  1 0.68161589E+03</rscale>
<asrwt>0</asrwt>
<pdfrwt beam="1">  1       21 0.17356667E+00 0.10406945E+04</pdfrwt>
<pdfrwt beam="2">  1       -4 0.51777614E-01 0.10406945E+04</pdfrwt>
<totfact> 0.25428433E+01</totfact>
</mgrwt>
</event>
<event>
 6    2  0.2267664E-005  0.1011821E+04  0.7818608E-02  0.9819602E-01
         21   -1    0    0  501  502  0.00000000000E+00  0.00000000000E+00  0.65918828233E+03  0.65918828233E+03  0.00000000000E+00 0. -1.
         -4   -1    0    0    0  501 -0.00000000000E+00 -0.00000000000E+00 -0.56607916517E+03  0.56607916517E+03  0.00000000000E+00 0. -1.
   -9000010    2    1    2    0  502 -0.32248326839E+02  0.16205807855E+03  0.19598002619E+03  0.10306262121E+04  0.99823816952E+03 0.  0.
         13    1    3    3    0    0  0.41835669839E+03  0.57429351081E+02 -0.15513353115E+03  0.44987429478E+03  0.10566000000E+00 0. -1.
         -4    1    3    3    0  502 -0.45060502523E+03  0.10462872747E+03  0.35111355734E+03  0.58075191737E+03  0.00000000000E+00 0. -1.
        -13    1    1    2    0    0  0.32248326839E+02 -0.16205807855E+03 -0.10287090903E+03  0.19464123534E+03  0.10566000000E+00 0.  1.
<mgrwt>
<rscale>  1 0.64321137E+03</rscale>
<asrwt>0</asrwt>
<pdfrwt beam="1">  1       21 0.10141358E+00 0.10118212E+04</pdfrwt>
<pdfrwt beam="2">  1       -4 0.87089102E-01 0.10118212E+04</pdfrwt>
<totfact> 0.34046669E+01</totfact>
</mgrwt>
</event>
<event>
 6    2  0.2267664E-005  0.1024728E+04  0.7818608E-02  0.9731640E-01
         -4   -1    0    0    0  501 -0.00000000000E+00  0.00000000000E+00  0.30696088926E+03  0.30696088926E+03  0.00000000000E+00 0. -1.
         21   -1    0    0  501  502  0.00000000000E+00 -0.00000000000E+00 -0.13403441967E+04  0.13403441967E+04  0.00000000000E+00 0.  1.
   -9000010    2    1    2    0  502 -0.15451107021E+03  0.14612137635E+03 -0.66391281552E+03  0.12210028657E+04  0.10024183977E+04 0.  0.
         13    1    3    3    0    0 -0.52326547932E+02 -0.43164619458E+03 -0.33047773349E+03  0.54614288278E+03  0.10566000000E+00 0. -1.
         -4    1    3    3    0  502 -0.10218452227E+03  0.57776757093E+03 -0.33343508203E+03  0.67485998291E+03  0.00000000000E+00 0. -1.
        -13    1    1    2    0    0  0.15451107021E+03 -0.14612137635E+03 -0.36947049191E+03  0.42630222026E+03  0.10566000000E+00 0.  1.
<mgrwt>
<rscale>  1 0.69163831E+03</rscale>
<asrwt>0</asrwt>
<pdfrwt beam="2">  1       21 0.20620680E+00 0.10247281E+04</pdfrwt>
<pdfrwt beam="1">  1       -4 0.47224752E-01 0.10247281E+04</pdfrwt>
<totfact> 0.18175173E+01</totfact>
</mgrwt>
</event>
<event>
 6    2  0.2267664E-005  0.1025238E+04  0.7818608E-02  0.9758035E-01
         -4   -1    0    0    0  501 -0.00000000000E+00  0.00000000000E+00  0.11725717170E+04  0.11725717170E+04  0.00000000000E+00 0. -1.
         21   -1    0    0  501  502  0.00000000000E+00 -0.00000000000E+00 -0.40022589306E+03  0.40022589306E+03  0.00000000000E+00 0. -1.
   -9000010    2    1    2    0  502 -0.19262928773E+03 -0.27037217706E+02  0.30981113711E+03  0.10710253496E+04  0.10066157684E+04 0.  0.
         13    1    3    3    0    0  0.40029292336E+03 -0.41603802704E+02  0.12293804007E+01  0.40245101991E+03  0.10566000000E+00 0. -1.
         -4    1    3    3    0  502 -0.59292221109E+03  0.14566584998E+02  0.30858175671E+03  0.66857432973E+03  0.00000000000E+00 0. -1.
        -13    1    1    2    0    0  0.19262928773E+03  0.27037217706E+02  0.46253468687E+03  0.50177226044E+03  0.10566000000E+00 0.  1.
<mgrwt>
<rscale>  1 0.67664069E+03</rscale>
<asrwt>0</asrwt>
<pdfrwt beam="2">  1       21 0.61573215E-01 0.10252377E+04</pdfrwt>
<pdfrwt beam="1">  1       -4 0.18039565E+00 0.10252377E+04</pdfrwt>
<totfact> 0.16947533E+01</totfact>
</mgrwt>
</event>
