<event>
 8    1  0.7418332E-006  0.1022705E+04  0.7818608E-02  0.8760922E-01
         21   -1    0    0  503  502  0.00000000000E+00  0.00000000000E+00  0.17948942304E+04  0.17948942304E+04  0.00000000000E+00 0.  1.
         21   -1    0    0  501  503 -0.00000000000E+00 -0.00000000000E+00 -0.62869696693E+03  0.62869696693E+03  0.00000000000E+00 0.  1.
    9000010    2    1    2  501    0 -0.63253070314E+02 -0.14688142078E+03  0.96117723443E+03  0.13805382734E+04  0.97798218058E+03 0.  0.
   -9000010    2    1    2    0  502  0.63253070314E+02  0.14688142078E+03  0.20502002901E+03  0.10430529239E+04  0.10101242929E+04 0.  0.
        -13    1    3    3    0    0 -0.35919265808E+03  0.28592483927E+03  0.53412855888E+03  0.70431932240E+03  0.10566000000E+00 0.  1.
          4    1    3    3  501    0  0.29593958776E+03 -0.43280626005E+03  0.42704867555E+03  0.67621895096E+03  0.00000000000E+00 0.  1.
         13    1    4    4    0    0 -0.52672661003E+02  0.42480785541E+03  0.47442632306E+03  0.63899645571E+03  0.10566000000E+00 0. -1.
         -4    1    4    4    0  502  0.11592573132E+03 -0.27792643463E+03 -0.26940629404E+03  0.40405646823E+03  0.00000000000E+00 0. -1.
<mgrwt>
<rscale>  2 0.10146778E+04</rscale>
<asrwt>0</asrwt>
<pdfrwt beam="1">  1       21 0.27613757E+00 0.10227053E+04</pdfrwt>
<pdfrwt beam="2">  1       21 0.96722611E-01 0.10227053E+04</pdfrwt>
<totfact> 0.17046580E+01</totfact>
</mgrwt>
</event>
<event>
 8    1  0.7418332E-006  0.1076830E+04  0.7818608E-02  0.8715765E-01
         21   -1    0    0  501  502  0.00000000000E+00  0.00000000000E+00  0.17364066648E+04  0.17364066648E+04  0.00000000000E+00 0.  1.
         21   -1    0    0  502  503 -0.00000000000E+00 -0.00000000000E+00 -0.76839336921E+03  0.76839336921E+03  0.00000000000E+00 0.  1.
    9000010    2    1    2  501    0 -0.72254594959E+02  0.34735309358E+03  0.10060075527E+04  0.14736400681E+04  0.10167049504E+04 0.  0.
   -9000010    2    1    2    0  503  0.72254594959E+02 -0.34735309358E+03 -0.37994257111E+02  0.10311599659E+04  0.96745667273E+03 0.  0.
        -13    1    3    3    0    0  0.40936940153E+03  0.28166420108E+03  0.20680547602E+03  0.53822536651E+03  0.10566000000E+00 0.  1.
          4    1    3    3  501    0 -0.48162399649E+03  0.65688892497E+02  0.79920207671E+03  0.93541470162E+03  0.00000000000E+00 0.  1.
         13    1    4    4    0    0 -0.41621185531E+03 -0.49633398109E+02  0.12310131853E+03  0.43686351244E+03  0.10566000000E+00 0. -1.
         -4    1    4    4    0  503  0.48846645027E+03 -0.29771969547E+03 -0.16109557564E+03  0.59429645347E+03  0.00000000000E+00 0. -1.
<mgrwt>
<rscale>  2 0.10650457E+04</rscale>
<asrwt>0</asrwt>
<pdfrwt beam="1">  1       21 0.26713948E+00 0.10768305E+04</pdfrwt>
<pdfrwt beam="2">  1       21 0.11821437E+00 0.10768305E+04</pdfrwt>
<totfact> 0.11402319E+01</totfact>
</mgrwt>
</event>
<event>
 8    1  0.7418332E-006  0.1068372E+04  0.7818608E-02  0.8712998E-01
         21   -1    0    0  501  502  0.00000000000E+00  0.00000000000E+00  0.16923609865E+04  0.16923609865E+04  0.00000000000E+00 0.  1.
         21   -1    0    0  502  503 -0.00000000000E+00 -0.00000000000E+00 -0.12231440216E+04  0.12231440216E+04  0.00000000000E+00 0.  1.
    9000010    2    1    2  501    0  0.32733425822E+03 -0.11179843184E+03  0.12113197176E+04  0.16151516685E+04  0.10108278033E+04 0.  0.
   -9000010    2    1    2    0  503 -0.32733425822E+03  0.11179843184E+03 -0.74210275271E+03  0.13003533396E+04  0.10102255720E+04 0.  0.
        -13    1    3    3    0    0 -0.55411323527E+02 -0.51149115800E+03  0.60808206098E+03  0.79652835702E+03  0.10566000000E+00 0.  1.
          4    1    3    3  501    0  0.38274558175E+03  0.39969272617E+03  0.60323765659E+03  0.81862331144E+03  0.00000000000E+00 0.  1.
         13    1    4    4    0    0 -0.16890921238E+03  0.51126229690E+03 -0.67810980877E+03  0.86588242976E+03  0.10566000000E+00 0. -1.
         -4    1    4    4    0  503 -0.15842504585E+03 -0.39946386506E+03 -0.63992943944E+02  0.43447090986E+03  0.00000000000E+00 0. -1.
<mgrwt>
<rscale>  2 0.10682299E+04</rscale>
<asrwt>0</asrwt>
<pdfrwt beam="1">  1       21 0.26036323E+00 0.10683723E+04</pdfrwt>
<pdfrwt beam="2">  1       21 0.18817600E+00 0.10683723E+04</pdfrwt>
<totfact> 0.30372895E+00</totfact>
</mgrwt>
</event>
<event>
 8    1  0.7418332E-006  0.9755620E+03  0.7818608E-02  0.8798078E-01
         21   -1    0    0  503  502  0.00000000000E+00  0.00000000000E+00  0.90145358864E+03  0.90145358864E+03  0.00000000000E+00 0.  1.
         21   -1    0    0  501  503 -0.00000000000E+00 -0.00000000000E+00 -0.10902486699E+04  0.10902486699E+04  0.00000000000E+00 0.  1.
    9000010    2    1    2  501    0  0.49228408824E+02 -0.15097088031E+03 -0.27353206339E+03  0.10124670419E+04  0.96179731663E+03 0.  0.
   -9000010    2    1    2    0  502 -0.49228408824E+02  0.15097088031E+03  0.84736982144E+02  0.97923521663E+03  0.96255161441E+03 0.  0.
        -13    1    3    3    0    0  0.48666644860E+03  0.22462449642E+02 -0.23336076346E+03  0.54019075420E+03  0.10566000000E+00 0.  1.
          4    1    3    3  501    0 -0.43743803977E+03 -0.17343332995E+03 -0.40171299930E+02  0.47227628769E+03  0.00000000000E+00 0.  1.
         13    1    4    4    0    0 -0.46942628526E+03 -0.74645230519E+02  0.14867086812E+03  0.49803211335E+03  0.10566000000E+00 0. -1.
         -4    1    4    4    0  502  0.42019787644E+03  0.22561611082E+03 -0.63933885979E+02  0.48120310328E+03  0.00000000000E+00 0. -1.
<mgrwt>
<rscale>  2 0.97537591E+03</rscale>
<asrwt>0</asrwt>
<pdfrwt beam="1">  1       21 0.13868517E+00 0.97556202E+03</pdfrwt>
<pdfrwt beam="2">  1       21 0.16773056E+00 0.97556202E+03</pdfrwt>
<totfact> 0.42442510E+01</totfact>
</mgrwt>
</event>
<event>
 8    1  0.7418332E-006  0.1059518E+04  0.7818608E-02  0.8726715E-01
         21   -1    0    0  503  502  0.00000000000E+00  0.00000000000E+00  0.54586591698E+03  0.54586591698E+03  0.00000000000E+00 0. -1.
         21   -1    0    0  501  503 -0.00000000000E+00 -0.00000000000E+00 -0.22108823189E+04  0.22108823189E+04  0.00000000000E+00 0. -1.
    9000010    2    1    2  501    0 -0.19315298290E+03  0.19128155813E+03 -0.12647104116E+04  0.16498701347E+04  0.10240519161E+04 0.  0.
   -9000010    2    1    2    0  502  0.19315298290E+03 -0.19128155813E+03 -0.40030599036E+03  0.11068781012E+04  0.99550868188E+03 0.  0.
        -13    1    3    3    0    0 -0.34297215340E+02  0.59769211814E+03 -0.55273980101E+03  0.81482112507E+03  0.10566000000E+00 0.  1.
          4    1    3    3  501    0 -0.15885576756E+03 -0.40641056001E+03 -0.71197061057E+03  0.83504900964E+03  0.00000000000E+00 0.  1.
         13    1    4    4    0    0 -0.13924003247E+03  0.17388435344E+03 -0.54793729915E+03  0.59148867274E+03  0.10566000000E+00 0. -1.
         -4    1    4    4    0  502  0.33239301537E+03 -0.36516591157E+03  0.14763130879E+03  0.51538942846E+03  0.00000000000E+00 0. -1.
<mgrwt>
<rscale>  2 0.10525596E+04</rscale>
<asrwt>0</asrwt>
<pdfrwt beam="1">  1       21 0.83979373E-01 0.10595183E+04</pdfrwt>
<pdfrwt beam="2">  1       21 0.34013574E+00 0.10595183E+04</pdfrwt>
<totfact> 0.85677705E+00</totfact>
</mgrwt>
</event>
<event>
 8    1  0.7418332E-006  0.9867005E+03  0.7818608E-02  0.8787670E-01
         21   -1    0    0  503  502  0.00000000000E+00  0.00000000000E+00  0.99584866239E+03  0.99584866239E+03  0.00000000000E+00 0.  1.
         21   -1    0    0  501  503 -0.00000000000E+00 -0.00000000000E+00 -0.11049315365E+04  0.11049315365E+04  0.00000000000E+00 0.  1.
    9000010    2    1    2  501    0  0.18232369330E+02  0.57680256780E+02 -0.41379846744E+03  0.10680994329E+04  0.98282643208E+03 0.  0.
   -9000010    2    1    2    0  502 -0.18232369330E+02 -0.57680256780E+02  0.30471559334E+03  0.10326807660E+04  0.98484442442E+03 0.  0.
        -13    1    3    3    0    0 -0.36830617019E+03 -0.60058324951E+02 -0.52950231149E+03  0.64778788691E+03  0.10566000000E+00 0.  1.
          4    1    3    3  501    0  0.38653853952E+03  0.11773858173E+03  0.11570384405E+03  0.42031154599E+03  0.00000000000E+00 0.  1.
         13    1    4    4    0    0  0.44153580550E+02  0.33496239549E+03  0.48909108103E+03  0.59444044426E+03  0.10566000000E+00 0. -1.
         -4    1    4    4    0  502 -0.62385949881E+02 -0.39264265227E+03 -0.18437548770E+03  0.43824032172E+03  0.00000000000E+00 0. -1.
<mgrwt>
<rscale>  2 0.98619662E+03</rscale>
<asrwt>0</asrwt>
<pdfrwt beam="1">  1       21 0.15320749E+00 0.98670055E+03</pdfrwt>
<pdfrwt beam="2">  1       21 0.16998947E+00 0.98670055E+03</pdfrwt>
<totfact> 0.29951750E+01</totfact>
</mgrwt>
</event>
<event>
 8    1  0.7418332E-006  0.1102645E+04  0.7818608E-02  0.8693777E-01
         21   -1    0    0  501  502  0.00000000000E+00  0.00000000000E+00  0.14174695792E+04  0.14174695792E+04  0.00000000000E+00 0. -1.
         21   -1    0    0  502  503 -0.00000000000E+00 -0.00000000000E+00 -0.11220321390E+04  0.11220321390E+04  0.00000000000E+00 0. -1.
    9000010    2    1    2  501    0 -0.60114869233E+02 -0.48035659303E+03  0.80241179428E+03  0.13258918012E+04  0.93795955510E+03 0.  0.
   -9000010    2    1    2    0  503  0.60114869233E+02  0.48035659303E+03 -0.50697435406E+03  0.12136099170E+04  0.99069156707E+03 0.  0.
        -13    1    3    3    0    0 -0.27325466187E+02 -0.64926091736E+03  0.91352322242E+03  0.11210758712E+04  0.10566000000E+00 0.  1.
          4    1    3    3  501    0 -0.32789403046E+02  0.16890432433E+03 -0.11111142814E+03  0.20481593003E+03  0.00000000000E+00 0.  1.
         13    1    4    4    0    0  0.15283848888E+03 -0.66835301806E+02  0.23428666371E+03  0.28760530803E+03  0.10566000000E+00 0. -1.
         -4    1    4    4    0  503 -0.92723619649E+02  0.54719189484E+03 -0.74126101777E+03  0.92600460900E+03  0.00000000000E+00 0. -1.
<mgrwt>
<rscale>  2 0.10906703E+04</rscale>
<asrwt>0</asrwt>
<pdfrwt beam="1">  1       21 0.21807224E+00 0.11026450E+04</pdfrwt>
<pdfrwt beam="2">  1       21 0.17262033E+00 0.11026450E+04</pdfrwt>
<totfact> 0.82706497E+00</totfact>
</mgrwt>
</event>
<event>
 8    1  0.7418332E-006  0.1053632E+04  0.7818608E-02  0.8727788E-01
         21   -1    0    0  503  502  0.00000000000E+00  0.00000000000E+00  0.13982057286E+04  0.13982057286E+04  0.00000000000E+00 0.  1.
         21   -1    0    0  501  503 -0.00000000000E+00 -0.00000000000E+00 -0.10020111524E+04  0.10020111524E+04  0.00000000000E+00 0.  1.
    9000010    2    1    2  501    0 -0.30200005853E+02 -0.27345099796E+03 -0.35698759388E+03  0.11124662453E+04  0.10170808799E+04 0.  0.
   -9000010    2    1    2    0  502  0.30200005853E+02  0.27345099796E+03  0.75318217013E+03  0.12877506357E+04  0.10076362586E+04 0.  0.
        -13    1    3    3    0    0  0.86301927537E+02  0.32784198267E+03 -0.36738846665E+03  0.49990267541E+03  0.10566000000E+00 0.  1.
          4    1    3    3  501    0 -0.11650193339E+03 -0.60129298063E+03  0.10400872769E+02  0.61256356992E+03  0.00000000000E+00 0.  1.
         13    1    4    4    0    0 -0.41084076114E+03  0.41230611062E+03  0.42774484831E+03  0.72232411443E+03  0.10566000000E+00 0. -1.
         -4    1    4    4    0  502  0.44104076700E+03 -0.13885511266E+03  0.32543732182E+03  0.56542652122E+03  0.00000000000E+00 0. -1.
<mgrwt>
<rscale>  2 0.10513463E+04</rscale>
<asrwt>0</asrwt>
<pdfrwt beam="1">  1       21 0.21510857E+00 0.10536323E+04</pdfrwt>
<pdfrwt beam="2">  1       21 0.15415556E+00 0.10536323E+04</pdfrwt>
<totfact> 0.12670966E+01</totfact>
</mgrwt>
</event>
<event>
 8    1  0.7418332E-006  0.1005989E+04  0.7818608E-02  0.8784653E-01
         21   -1    0    0  501  502  0.00000000000E+00  0.00000000000E+00  0.69498614471E+03  0.69498614471E+03  0.00000000000E+00 0. -1.
         21   -1    0    0  502  503 -0.00000000000E+00 -0.00000000000E+00 -0.14518500914E+04  0.14518500914E+04  0.00000000000E+00 0. -1.
    9000010    2    1    2  501    0 -0.13803328163E+03 -0.30371450343E+02 -0.65454741061E+03  0.12001859498E+04  0.99601123968E+03 0.  0.
   -9000010    2    1    2    0  503  0.13803328163E+03  0.30371450343E+02 -0.10231653608E+03  0.94665028630E+03  0.93043134038E+03 0.  0.
        -13    1    3    3    0    0 -0.14931938698E+03 -0.19617389347E+03  0.20751774199E+03  0.32224850692E+03  0.10566000000E+00 0.  1.
          4    1    3    3  501    0  0.11286105348E+02  0.16580244313E+03 -0.86206515260E+03  0.87793744290E+03  0.00000000000E+00 0.  1.
         13    1    4    4    0    0 -0.25251997473E+03  0.54114817689E+02 -0.38524670925E+03  0.46379929849E+03  0.10566000000E+00 0. -1.
         -4    1    4    4    0  503  0.39055325635E+03 -0.23743367346E+02  0.28293017316E+03  0.48285098781E+03  0.00000000000E+00 0. -1.
<mgrwt>
<rscale>  2 0.98936019E+03</rscale>
<asrwt>0</asrwt>
<pdfrwt beam="1">  1       21 0.10692095E+00 0.10059891E+04</pdfrwt>
<pdfrwt beam="2">  1       21 0.22336155E+00 0.10059891E+04</pdfrwt>
<totfact> 0.31864009E+01</totfact>
</mgrwt>
</event>
<event>
 8    1  0.7418332E-006  0.1001365E+04  0.7818608E-02  0.8773549E-01
         21   -1    0    0  503  502  0.00000000000E+00  0.00000000000E+00  0.24379860033E+04  0.24379860033E+04  0.00000000000E+00 0.  1.
         21   -1    0    0  501  503 -0.00000000000E+00 -0.00000000000E+00 -0.59758040456E+03  0.59758040456E+03  0.00000000000E+00 0.  1.
    9000010    2    1    2  501    0 -0.12511962160E+03  0.15436138356E+02  0.71508746361E+02  0.10029011507E+04  0.99237292542E+03 0.  0.
   -9000010    2    1    2    0  502  0.12511962160E+03 -0.15436138356E+02  0.17688968524E+04  0.20326652572E+04  0.99339759380E+03 0.  0.
        -13    1    3    3    0    0  0.11545563876E+03  0.15232333195E+03  0.47590296780E+03  0.51285090221E+03  0.10566000000E+00 0.  1.
          4    1    3    3  501    0 -0.24057526037E+03 -0.13688719359E+03 -0.40439422144E+03  0.49005024844E+03  0.00000000000E+00 0.  1.
         13    1    4    4    0    0  0.40089290750E+03 -0.23955325313E+03  0.38916693287E+03  0.60790772093E+03  0.10566000000E+00 0. -1.
         -4    1    4    4    0  502 -0.27577328589E+03  0.22411711477E+03  0.13797299195E+04  0.14247575362E+04  0.00000000000E+00 0. -1.
<mgrwt>
<rscale>  2 0.10011108E+04</rscale>
<asrwt>0</asrwt>
<pdfrwt beam="1">  1       21 0.37507476E+00 0.10013651E+04</pdfrwt>
<pdfrwt beam="2">  1       21 0.91935448E-01 0.10013651E+04</pdfrwt>
<totfact> 0.39218522E+00</totfact>
</mgrwt>
</event>
<event>
 8    1  0.7418332E-006  0.1082335E+04  0.7818608E-02  0.8701894E-01
         21   -1    0    0  503  502  0.00000000000E+00  0.00000000000E+00  0.16354837636E+04  0.16354837636E+04  0.00000000000E+00 0. -1.
         21   -1    0    0  501  503 -0.00000000000E+00 -0.00000000000E+00 -0.88430983177E+03  0.88430983177E+03  0.00000000000E+00 0. -1.
    9000010    2    1    2  501    0  0.84457518141E+02  0.42203744569E+03 -0.17814289069E+03  0.10968976589E+04  0.99307648578E+03 0.  0.
   -9000010    2    1    2    0  502 -0.84457518141E+02 -0.42203744569E+03  0.92931682250E+03  0.14228959365E+04  0.98780282017E+03 0.  0.
        -13    1    3    3    0    0 -0.18622731029E+03  0.63452324042E+03  0.80839072015E+02  0.66620966704E+03  0.10566000000E+00 0.  1.
          4    1    3    3  501    0  0.27068482843E+03 -0.21248579473E+03 -0.25898196270E+03  0.43068799183E+03  0.00000000000E+00 0.  1.
         13    1    4    4    0    0  0.33689009952E+03  0.14310289341E+03  0.39375802710E+03  0.53760466175E+03  0.10566000000E+00 0. -1.
         -4    1    4    4    0  502 -0.42134761766E+03 -0.56514033910E+03  0.53555879540E+03  0.88529127473E+03  0.00000000000E+00 0. -1.
<mgrwt>
<rscale>  2 0.10811240E+04</rscale>
<asrwt>0</asrwt>
<pdfrwt beam="1">  1       21 0.25161289E+00 0.10823352E+04</pdfrwt>
<pdfrwt beam="2">  1       21 0.13604767E+00 0.10823352E+04</pdfrwt>
<totfact> 0.98600414E+00</totfact>
</mgrwt>
</event>
<event>
 8    1  0.7418332E-006  0.1021430E+04  0.7818608E-02  0.8761156E-01
         21   -1    0    0  503  502  0.00000000000E+00  0.00000000000E+00  0.12937146165E+04  0.12937146165E+04  0.00000000000E+00 0.  1.
         21   -1    0    0  501  503 -0.00000000000E+00 -0.00000000000E+00 -0.13812789303E+04  0.13812789303E+04  0.00000000000E+00 0.  1.
    9000010    2    1    2  501    0 -0.24333637231E+03  0.94686673447E+02  0.83482185347E+03  0.13191843133E+04  0.98749256663E+03 0.  0.
   -9000010    2    1    2    0  502  0.24333637231E+03 -0.94686673447E+02 -0.92238616735E+03  0.13558092335E+04  0.95877227732E+03 0.  0.
        -13    1    3    3    0    0  0.32195690464E+03 -0.18950937497E+03  0.42248864150E+03  0.56397403753E+03  0.10566000000E+00 0.  1.
          4    1    3    3  501    0 -0.56529327695E+03  0.28419604842E+03  0.41233321196E+03  0.75521027575E+03  0.00000000000E+00 0.  1.
         13    1    4    4    0    0  0.56853893497E+03 -0.75025129973E+02 -0.84454368778E+03  0.10208424670E+04  0.10566000000E+00 0. -1.
         -4    1    4    4    0  502 -0.32520256265E+03 -0.19661543475E+02 -0.77842479571E+02  0.33496676652E+03  0.00000000000E+00 0. -1.
<mgrwt>
<rscale>  2 0.10144237E+04</rscale>
<asrwt>0</asrwt>
<pdfrwt beam="1">  1       21 0.19903302E+00 0.10214302E+04</pdfrwt>
<pdfrwt beam="2">  1       21 0.21250445E+00 0.10214302E+04</pdfrwt>
<totfact> 0.56943548E+00</totfact>
</mgrwt>
</event>
<event>
 8    1  0.7418332E-006  0.1081036E+04  0.7818608E-02  0.8704003E-01
         21   -1    0    0  501  502  0.00000000000E+00  0.00000000000E+00  0.18552366460E+04  0.18552366460E+04  0.00000000000E+00 0. -1.
         21   -1    0    0  502  503 -0.00000000000E+00 -0.00000000000E+00 -0.78685057878E+03  0.78685057878E+03  0.00000000000E+00 0. -1.
    9000010    2    1    2  501    0 -0.86195783661E+02  0.40611864016E+03  0.11362906186E+04  0.15683731058E+04  0.99813614605E+03 0.  0.
   -9000010    2    1    2    0  503  0.86195783661E+02 -0.40611864016E+03 -0.67904551332E+02  0.10737141190E+04  0.98787090164E+03 0.  0.
        -13    1    3    3    0    0 -0.21389394344E+03  0.71506514208E+03  0.76573162994E+03  0.10693052495E+04  0.10566000000E+00 0.  1.
          4    1    3    3  501    0  0.12769815978E+03 -0.30894650192E+03  0.37055898866E+03  0.49906785624E+03  0.00000000000E+00 0.  1.
         13    1    4    4    0    0 -0.45258788261E+03 -0.17951255725E+03 -0.21119310090E+02  0.48734647441E+03  0.10566000000E+00 0. -1.
         -4    1    4    4    0  503  0.53878366628E+03 -0.22660608291E+03 -0.46785241242E+02  0.58636764462E+03  0.00000000000E+00 0. -1.
<mgrwt>
<rscale>  2 0.10786600E+04</rscale>
<asrwt>0</asrwt>
<pdfrwt beam="1">  1       21 0.28542102E+00 0.10810355E+04</pdfrwt>
<pdfrwt beam="2">  1       21 0.12105394E+00 0.10810355E+04</pdfrwt>
<totfact> 0.78924266E+00</totfact>
</mgrwt>
</event>
<event>
 8    1  0.7418332E-006  0.1060467E+04  0.7818608E-02  0.8722205E-01
         21   -1    0    0  501  502  0.00000000000E+00  0.00000000000E+00  0.12948055949E+04  0.12948055949E+04  0.00000000000E+00 0.  1.
         21   -1    0    0  502  503 -0.00000000000E+00 -0.00000000000E+00 -0.10233352360E+04  0.10233352360E+04  0.00000000000E+00 0.  1.
    9000010    2    1    2  501    0  0.34273078735E+03  0.97090410166E+02  0.59894462675E+03  0.12082622739E+04  0.98705223579E+03 0.  0.
   -9000010    2    1    2    0  503 -0.34273078735E+03 -0.97090410166E+02 -0.32747426783E+03  0.11098785571E+04  0.99884937553E+03 0.  0.
        -13    1    3    3    0    0 -0.17973317269E+03  0.32089713584E+03 -0.19478943916E+02  0.36831837529E+03  0.10566000000E+00 0.  1.
          4    1    3    3  501    0  0.52246396004E+03 -0.22380672567E+03  0.61842357067E+03  0.83994389858E+03  0.00000000000E+00 0.  1.
         13    1    4    4    0    0  0.34071013492E+03 -0.13055766990E+03 -0.19212824776E+03  0.41236146275E+03  0.10566000000E+00 0. -1.
         -4    1    4    4    0  503 -0.68344092228E+03  0.33467259730E+02 -0.13534602007E+03  0.69751709432E+03  0.00000000000E+00 0. -1.
<mgrwt>
<rscale>  2 0.10576803E+04</rscale>
<asrwt>0</asrwt>
<pdfrwt beam="1">  1       21 0.19920086E+00 0.10604674E+04</pdfrwt>
<pdfrwt beam="2">  1       21 0.15743619E+00 0.10604674E+04</pdfrwt>
<totfact> 0.15702120E+01</totfact>
</mgrwt>
</event>
<event>
 8    1  0.7418332E-006  0.1009318E+04  0.7818608E-02  0.8769524E-01
         21   -1    0    0  503  502  0.00000000000E+00  0.00000000000E+00  0.15799154068E+04  0.15799154068E+04  0.00000000000E+00 0. -1.
         21   -1    0    0  501  503 -0.00000000000E+00 -0.00000000000E+00 -0.79832194809E+03  0.79832194809E+03  0.00000000000E+00 0. -1.
    9000010    2    1    2  501    0 -0.76713794392E+02 -0.16173273891E+02 -0.14477920766E+03  0.10196490147E+04  0.10062686089E+04 0.  0.
   -9000010    2    1    2    0  502  0.76713794392E+02  0.16173273891E+02  0.92637266640E+03  0.13585883402E+04  0.99068127064E+03 0.  0.
        -13    1    3    3    0    0  0.15527978289E+03 -0.38562540412E+03  0.20215663656E+03  0.46226191726E+03  0.10566000000E+00 0.  1.
          4    1    3    3  501    0 -0.23199357728E+03  0.36945213023E+03 -0.34693584422E+03  0.55738709748E+03  0.00000000000E+00 0.  1.
         13    1    4    4    0    0 -0.43369443846E+03 -0.66824585927E+02  0.24296132526E+03  0.50158409860E+03  0.10566000000E+00 0. -1.
         -4    1    4    4    0  502  0.51040823285E+03  0.82997859818E+02  0.68341134115E+03  0.85700424159E+03  0.00000000000E+00 0. -1.
<mgrwt>
<rscale>  2 0.10054106E+04</rscale>
<asrwt>0</asrwt>
<pdfrwt beam="1">  1       21 0.24306391E+00 0.10093181E+04</pdfrwt>
<pdfrwt beam="2">  1       21 0.12281876E+00 0.10093181E+04</pdfrwt>
<totfact> 0.15550482E+01</totfact>
</mgrwt>
</event>
<event>
 8    1  0.7418332E-006  0.1099001E+04  0.7818608E-02  0.8687219E-01
         21   -1    0    0  501  502  0.00000000000E+00  0.00000000000E+00  0.73555280371E+03  0.73555280371E+03  0.00000000000E+00 0. -1.
         21   -1    0    0  502  503 -0.00000000000E+00 -0.00000000000E+00 -0.19086151290E+04  0.19086151290E+04  0.00000000000E+00 0. -1.
    9000010    2    1    2  501    0  0.40576799725E+02 -0.46076286422E+03 -0.89934235788E+02  0.11026745239E+04  0.99692228643E+03 0.  0.
   -9000010    2    1    2    0  503 -0.40576799725E+02  0.46076286422E+03 -0.10831280895E+04  0.15414934088E+04  0.99452831905E+03 0.  0.
        -13    1    3    3    0    0 -0.33153660101E+03  0.37983853160E+02  0.22773807740E+03  0.40400981915E+03  0.10566000000E+00 0.  1.
          4    1    3    3  501    0  0.37211340073E+03 -0.49874671738E+03 -0.31767231319E+03  0.69866470475E+03  0.00000000000E+00 0.  1.
         13    1    4    4    0    0  0.41655590125E+03  0.20966993124E+03 -0.18257375505E+03  0.50081282544E+03  0.10566000000E+00 0. -1.
         -4    1    4    4    0  503 -0.45713270097E+03  0.25109293298E+03 -0.90055433441E+03  0.10406805833E+04  0.00000000000E+00 0. -1.
<mgrwt>
<rscale>  2 0.10984577E+04</rscale>
<asrwt>0</asrwt>
<pdfrwt beam="1">  1       21 0.11316197E+00 0.10990009E+04</pdfrwt>
<pdfrwt beam="2">  1       21 0.29363310E+00 0.10990009E+04</pdfrwt>
<totfact> 0.82869595E+00</totfact>
</mgrwt>
</event>
<event>
 8    1  0.7418332E-006  0.1030062E+04  0.7818608E-02  0.8747360E-01
         21   -1    0    0  501  502  0.00000000000E+00  0.00000000000E+00  0.81627029719E+03  0.81627029719E+03  0.00000000000E+00 0.  1.
         21   -1    0    0  502  503 -0.00000000000E+00 -0.00000000000E+00 -0.16410114993E+04  0.16410114993E+04  0.00000000000E+00 0.  1.
    9000010    2    1    2  501    0 -0.19407937056E+03 -0.13247676089E+03  0.15053155508E+03  0.10387669844E+04  0.10005799341E+04 0.  0.
   -9000010    2    1    2    0  503  0.19407937056E+03  0.13247676089E+03 -0.97527275718E+03  0.14185148121E+04  0.10029010056E+04 0.  0.
        -13    1    3    3    0    0 -0.15091145024E+03  0.21257233190E+03 -0.34560429857E+03  0.43290137960E+03  0.10566000000E+00 0.  1.
          4    1    3    3  501    0 -0.43167920314E+02 -0.34504909278E+03  0.49613585365E+03  0.60586560478E+03  0.00000000000E+00 0.  1.
         13    1    4    4    0    0 -0.31724766646E+03 -0.23099284869E+03 -0.47485890148E+03  0.61603146470E+03  0.10566000000E+00 0. -1.
         -4    1    4    4    0  503  0.51132703702E+03  0.36346960958E+03 -0.50041385570E+03  0.80248334740E+03  0.00000000000E+00 0. -1.
<mgrwt>
<rscale>  2 0.10294964E+04</rscale>
<asrwt>0</asrwt>
<pdfrwt beam="1">  1       21 0.12558005E+00 0.10300618E+04</pdfrwt>
<pdfrwt beam="2">  1       21 0.25246330E+00 0.10300618E+04</pdfrwt>
<totfact> 0.12407264E+01</totfact>
</mgrwt>
</event>
<event>
 8    1  0.1017234E-005  0.1013626E+04  0.7818608E-02  0.8816550E-01
         21   -1    0    0  503  502  0.00000000000E+00  0.00000000000E+00  0.43767464558E+03  0.43767464558E+03  0.00000000000E+00 0.  1.
         21   -1    0    0  501  503 -0.00000000000E+00 -0.00000000000E+00 -0.19212718855E+04  0.19212718855E+04  0.00000000000E+00 0.  1.
    9000010    2    1    2  501    0  0.14491463942E+03  0.21444644117E+02 -0.98309076008E+03  0.14120572962E+04  0.10029846658E+04 0.  0.
   -9000010    2    1    2    0  502 -0.14491463942E+03 -0.21444644117E+02 -0.50050647988E+03  0.94688923486E+03  0.79033686566E+03 0.  0.
        -13    1    3    3    0    0 -0.12783199365E+03  0.14447318020E+03 -0.10803491916E+04  0.10974369710E+04  0.10566000000E+00 0.  1.
          4    1    3    3  501    0  0.27274663307E+03 -0.12302853608E+03  0.97258431529E+02  0.31462032523E+03  0.00000000000E+00 0.  1.
         13    1    4    4    0    0  0.30534821935E+03  0.71163577407E+01 -0.50344618549E+02  0.30955253090E+03  0.10566000000E+00 0. -1.
         -4    1    4    4    0  502 -0.45026285877E+03 -0.28561001857E+02 -0.45016186133E+03  0.63733670396E+03  0.00000000000E+00 0. -1.
<mgrwt>
<rscale>  2 0.95652264E+03</rscale>
<asrwt>0</asrwt>
<pdfrwt beam="1">  1       21 0.67334561E-01 0.10136263E+04</pdfrwt>
<pdfrwt beam="2">  1       21 0.29558029E+00 0.10136263E+04</pdfrwt>
<totfact> 0.30348335E+01</totfact>
</mgrwt>
</event>
<event>
 8    1  0.7418332E-006  0.1107399E+04  0.7818608E-02  0.8685958E-01
         21   -1    0    0  501  502  0.00000000000E+00  0.00000000000E+00  0.80961942029E+03  0.80961942029E+03  0.00000000000E+00 0. -1.
         21   -1    0    0  502  503 -0.00000000000E+00 -0.00000000000E+00 -0.18322947045E+04  0.18322947045E+04  0.00000000000E+00 0. -1.
    9000010    2    1    2  501    0 -0.30695001465E+03  0.29878231287E+03  0.66643482869E+02  0.11094028810E+04  0.10211974426E+04 0.  0.
   -9000010    2    1    2    0  503  0.30695001465E+03 -0.29878231287E+03 -0.10893187671E+04  0.15325112438E+04  0.98918459044E+03 0.  0.
        -13    1    3    3    0    0 -0.17708875743E+03  0.53866772097E+03 -0.30853859801E+03  0.64553808505E+03  0.10566000000E+00 0.  1.
          4    1    3    3  501    0 -0.12986125723E+03 -0.23988540810E+03  0.37518208088E+03  0.46386479600E+03  0.00000000000E+00 0.  1.
         13    1    4    4    0    0  0.89267517586E+02 -0.65445603573E+03 -0.64649613966E+03  0.92425032440E+03  0.10566000000E+00 0. -1.
         -4    1    4    4    0  503  0.21768249707E+03  0.35567372286E+03 -0.44282262747E+03  0.60826091939E+03  0.00000000000E+00 0. -1.
<mgrwt>
<rscale>  2 0.10999624E+04</rscale>
<asrwt>0</asrwt>
<pdfrwt beam="1">  1       21 0.12455684E+00 0.11073994E+04</pdfrwt>
<pdfrwt beam="2">  1       21 0.28189149E+00 0.11073994E+04</pdfrwt>
<totfact> 0.76683671E+00</totfact>
</mgrwt>
</event>
<event>
 8    1  0.7418332E-006  0.1232892E+04  0.7818608E-02  0.8582750E-01
         21   -1    0    0  503  502  0.00000000000E+00  0.00000000000E+00  0.25293154214E+04  0.25293154214E+04  0.00000000000E+00 0. -1.
         21   -1    0    0  501  503 -0.00000000000E+00 -0.00000000000E+00 -0.62049202608E+03  0.62049202608E+03  0.00000000000E+00 0. -1.
    9000010    2    1    2  501    0 -0.70406996893E+03 -0.11960121007E+03  0.12430426162E+04  0.17486343348E+04  0.10012732496E+04 0.  0.
   -9000010    2    1    2    0  502  0.70406996893E+03  0.11960121007E+03  0.66578077906E+03  0.14011731127E+04  0.10049890922E+04 0.  0.
        -13    1    3    3    0    0 -0.86956587274E+03 -0.22245220190E+03  0.12665750917E+04  0.15523666652E+04  0.10566000000E+00 0.  1.
          4    1    3    3  501    0  0.16549590381E+03  0.10285099183E+03 -0.23532475499E+02  0.19626766953E+03  0.00000000000E+00 0.  1.
         13    1    4    4    0    0  0.64821502385E+03  0.29181705038E+03 -0.35474859631E+00  0.71087273478E+03  0.10566000000E+00 0. -1.
         -4    1    4    4    0  502  0.55854945076E+02 -0.17221584031E+03  0.66613552766E+03  0.69030037791E+03  0.00000000000E+00 0. -1.
<mgrwt>
<rscale>  2 0.12321343E+04</rscale>
<asrwt>0</asrwt>
<pdfrwt beam="1">  1       21 0.38912544E+00 0.12328917E+04</pdfrwt>
<pdfrwt beam="2">  1       21 0.95460313E-01 0.12328917E+04</pdfrwt>
<totfact> 0.27015241E+00</totfact>
</mgrwt>
</event>
<event>
 8    1  0.7418332E-006  0.1025631E+04  0.7818608E-02  0.8752762E-01
         21   -1    0    0  503  502  0.00000000000E+00  0.00000000000E+00  0.18135986421E+04  0.18135986421E+04  0.00000000000E+00 0. -1.
         21   -1    0    0  501  503 -0.00000000000E+00 -0.00000000000E+00 -0.70252433749E+03  0.70252433749E+03  0.00000000000E+00 0. -1.
    9000010    2    1    2  501    0  0.17896440190E+03 -0.15445538509E+03  0.22138585165E+02  0.10258694719E+04  0.99801469591E+03 0.  0.
   -9000010    2    1    2    0  502 -0.17896440190E+03  0.15445538509E+03  0.10889357195E+04  0.14902535077E+04  0.98954019273E+03 0.  0.
        -13    1    3    3    0    0 -0.36520550340E+03  0.15530004612E+03  0.44327535281E+02  0.39932205747E+03  0.10566000000E+00 0.  1.
          4    1    3    3  501    0  0.54416990530E+03 -0.30975543121E+03 -0.22188950116E+02  0.62654741441E+03  0.00000000000E+00 0.  1.
         13    1    4    4    0    0 -0.28521217700E+03  0.23165011294E+03  0.12381243918E+04  0.12914951729E+04  0.10566000000E+00 0. -1.
         -4    1    4    4    0  502  0.10624777511E+03 -0.77194727850E+02 -0.14918867235E+03  0.19875833487E+03  0.00000000000E+00 0. -1.
<mgrwt>
<rscale>  2 0.10235632E+04</rscale>
<asrwt>0</asrwt>
<pdfrwt beam="1">  1       21 0.27901517E+00 0.10256306E+04</pdfrwt>
<pdfrwt beam="2">  1       21 0.10808067E+00 0.10256306E+04</pdfrwt>
<totfact> 0.12125498E+01</totfact>
</mgrwt>
</event>
<event>
 8    1  0.7418332E-006  0.1032924E+04  0.7818608E-02  0.8746187E-01
         21   -1    0    0  503  502  0.00000000000E+00  0.00000000000E+00  0.16031980602E+04  0.16031980602E+04  0.00000000000E+00 0.  1.
         21   -1    0    0  501  503 -0.00000000000E+00 -0.00000000000E+00 -0.68587217481E+03  0.68587217481E+03  0.00000000000E+00 0.  1.
    9000010    2    1    2  501    0 -0.20859816777E+03 -0.17395052172E+03  0.23468854410E+03  0.10509562919E+04  0.98775423824E+03 0.  0.
   -9000010    2    1    2    0  502  0.20859816777E+03  0.17395052172E+03  0.68263734131E+03  0.12381139431E+04  0.99657434084E+03 0.  0.
        -13    1    3    3    0    0  0.89538509503E+02 -0.50953645045E+02  0.57379761459E+03  0.58297266857E+03  0.10566000000E+00 0.  1.
          4    1    3    3  501    0 -0.29813667728E+03 -0.12299687668E+03 -0.33910907050E+03  0.46798362333E+03  0.00000000000E+00 0.  1.
         13    1    4    4    0    0  0.57070634034E+03  0.20102819682E+02  0.61439607087E+03  0.83880414479E+03  0.10566000000E+00 0. -1.
         -4    1    4    4    0  502 -0.36210817256E+03  0.15384770204E+03  0.68241270446E+02  0.39930979834E+03  0.00000000000E+00 0. -1.
<mgrwt>
<rscale>  2 0.10307908E+04</rscale>
<asrwt>0</asrwt>
<pdfrwt beam="1">  1       21 0.24664585E+00 0.10329242E+04</pdfrwt>
<pdfrwt beam="2">  1       21 0.10551880E+00 0.10329242E+04</pdfrwt>
<totfact> 0.22077009E+01</totfact>
</mgrwt>
</event>
<event>
 8    1  0.7418332E-006  0.1063398E+04  0.7818608E-02  0.8724529E-01
         21   -1    0    0  503  502  0.00000000000E+00  0.00000000000E+00  0.68291924586E+03  0.68291924586E+03  0.00000000000E+00 0.  1.
         21   -1    0    0  501  503 -0.00000000000E+00 -0.00000000000E+00 -0.21566813779E+04  0.21566813779E+04  0.00000000000E+00 0.  1.
    9000010    2    1    2  501    0 -0.21657164333E+03 -0.20373690242E+03 -0.14463825668E+04  0.17758506273E+04  0.98651453052E+03 0.  0.
   -9000010    2    1    2    0  502  0.21657164333E+03  0.20373690242E+03 -0.27379565249E+02  0.10637499964E+04  0.10209811028E+04 0.  0.
        -13    1    3    3    0    0  0.90658282657E+02  0.34115490912E+03 -0.80965537452E+03  0.88325955013E+03  0.10566000000E+00 0.  1.
          4    1    3    3  501    0 -0.30722992599E+03 -0.54489181154E+03 -0.63672719223E+03  0.89259107716E+03  0.00000000000E+00 0.  1.
         13    1    4    4    0    0 -0.27145828521E+03  0.16683077693E+03 -0.35328588846E+03  0.47574472030E+03  0.10566000000E+00 0. -1.
         -4    1    4    4    0  502  0.48802992854E+03  0.36906125493E+02  0.32590632321E+03  0.58800527613E+03  0.00000000000E+00 0. -1.
<mgrwt>
<rscale>  2 0.10550378E+04</rscale>
<asrwt>0</asrwt>
<pdfrwt beam="1">  1       21 0.10506450E+00 0.10633976E+04</pdfrwt>
<pdfrwt beam="2">  1       21 0.33179713E+00 0.10633976E+04</pdfrwt>
<totfact> 0.54959478E+00</totfact>
</mgrwt>
</event>
<event>
 8    1  0.7418332E-006  0.1122476E+04  0.7818608E-02  0.8678703E-01
         21   -1    0    0  501  502  0.00000000000E+00  0.00000000000E+00  0.10639421161E+04  0.10639421161E+04  0.00000000000E+00 0. -1.
         21   -1    0    0  502  503 -0.00000000000E+00 -0.00000000000E+00 -0.14398492399E+04  0.14398492399E+04  0.00000000000E+00 0. -1.
    9000010    2    1    2  501    0 -0.33558946487E+03  0.19549881851E+03  0.39113186476E+03  0.11886697330E+04  0.10531436376E+04 0.  0.
   -9000010    2    1    2    0  503  0.33558946487E+03 -0.19549881851E+03 -0.76703898856E+03  0.13151216230E+04  0.99516631597E+03 0.  0.
        -13    1    3    3    0    0 -0.16014386885E+03 -0.42112917712E+03  0.26962490043E+02  0.45135665453E+03  0.10566000000E+00 0.  1.
          4    1    3    3  501    0 -0.17544559601E+03  0.61662799563E+03  0.36416937471E+03  0.73731307844E+03  0.00000000000E+00 0.  1.
         13    1    4    4    0    0 -0.13387566778E+03 -0.46865013409E+03 -0.53717551835E+03  0.72533660550E+03  0.10566000000E+00 0. -1.
         -4    1    4    4    0  503  0.46946513265E+03  0.27315131558E+03 -0.22986347021E+03  0.58978501754E+03  0.00000000000E+00 0. -1.
<mgrwt>
<rscale>  2 0.11086711E+04</rscale>
<asrwt>0</asrwt>
<pdfrwt beam="1">  1       21 0.16368340E+00 0.11224757E+04</pdfrwt>
<pdfrwt beam="2">  1       21 0.22151527E+00 0.11224757E+04</pdfrwt>
<totfact> 0.92251358E+00</totfact>
</mgrwt>
</event>
<event>
 8    1  0.7418332E-006  0.1062526E+04  0.7818608E-02  0.8720823E-01
         21   -1    0    0  503  502  0.00000000000E+00  0.00000000000E+00  0.65539040789E+03  0.65539040789E+03  0.00000000000E+00 0. -1.
         21   -1    0    0  501  503 -0.00000000000E+00 -0.00000000000E+00 -0.18172163328E+04  0.18172163328E+04  0.00000000000E+00 0. -1.
    9000010    2    1    2  501    0  0.12461972070E+03 -0.28384429791E+03 -0.88947719407E+03  0.13757312360E+04  0.10026809536E+04 0.  0.
   -9000010    2    1    2    0  502 -0.12461972070E+03  0.28384429791E+03 -0.27234873086E+03  0.10968755047E+04  0.10162993562E+04 0.  0.
        -13    1    3    3    0    0 -0.95037186308E+01  0.52387021440E+02  0.21080784163E+03  0.21742740844E+03  0.10566000000E+00 0.  1.
          4    1    3    3  501    0  0.13412343933E+03 -0.33623131935E+03 -0.11002850357E+04  0.11583038275E+04  0.00000000000E+00 0.  1.
         13    1    4    4    0    0 -0.12103626604E+03  0.32054118929E+03  0.34042322014E+03  0.48299525019E+03  0.10566000000E+00 0. -1.
         -4    1    4    4    0  502 -0.35834546643E+01 -0.36696891385E+02 -0.61277195100E+03  0.61388025454E+03  0.00000000000E+00 0. -1.
<mgrwt>
<rscale>  2 0.10592566E+04</rscale>
<asrwt>0</asrwt>
<pdfrwt beam="1">  1       21 0.10082929E+00 0.10625263E+04</pdfrwt>
<pdfrwt beam="2">  1       21 0.27957174E+00 0.10625263E+04</pdfrwt>
<totfact> 0.14328953E+01</totfact>
</mgrwt>
</event>
<event>
 8    1  0.7418332E-006  0.1006441E+04  0.7818608E-02  0.8781946E-01
         21   -1    0    0  501  502  0.00000000000E+00  0.00000000000E+00  0.54356060010E+03  0.54356060010E+03  0.00000000000E+00 0. -1.
         21   -1    0    0  502  503 -0.00000000000E+00 -0.00000000000E+00 -0.23823328114E+04  0.23823328114E+04  0.00000000000E+00 0. -1.
    9000010    2    1    2  501    0  0.96482559204E+02  0.15784504304E+02 -0.19229269831E+03  0.10246467060E+04  0.10016817636E+04 0.  0.
   -9000010    2    1    2    0  503 -0.96482559204E+02 -0.15784504304E+02 -0.16464795130E+04  0.19012467055E+04  0.94566707338E+03 0.  0.
        -13    1    3    3    0    0 -0.41406603809E+03  0.18834013992E+03 -0.16885706666E+03  0.48521687144E+03  0.10566000000E+00 0.  1.
          4    1    3    3  501    0  0.51054859730E+03 -0.17255563562E+03 -0.23435631646E+02  0.53942983456E+03  0.00000000000E+00 0.  1.
         13    1    4    4    0    0  0.92199196350E+02  0.31343768245E+03 -0.14248040649E+04  0.14617833311E+04  0.10566000000E+00 0. -1.
         -4    1    4    4    0  503 -0.18868175555E+03 -0.32922218676E+03 -0.22167544806E+03  0.43946337436E+03  0.00000000000E+00 0. -1.
<mgrwt>
<rscale>  2 0.99220883E+03</rscale>
<asrwt>0</asrwt>
<pdfrwt beam="1">  1       21 0.83624707E-01 0.10064414E+04</pdfrwt>
<pdfrwt beam="2">  1       21 0.36651274E+00 0.10064414E+04</pdfrwt>
<totfact> 0.57240314E+00</totfact>
</mgrwt>
</event>
<event>
 8    1  0.7418332E-006  0.1051160E+04  0.7818608E-02  0.8740714E-01
         21   -1    0    0  501  502  0.00000000000E+00  0.00000000000E+00  0.15499852053E+04  0.15499852053E+04  0.00000000000E+00 0. -1.
         21   -1    0    0  502  503 -0.00000000000E+00 -0.00000000000E+00 -0.73403139119E+03  0.73403139119E+03  0.00000000000E+00 0. -1.
    9000010    2    1    2  501    0  0.25369534520E+03 -0.21902824066E+03  0.74103746272E+03  0.12861081968E+04  0.99629467240E+03 0.  0.
   -9000010    2    1    2    0  503 -0.25369534520E+03  0.21902824066E+03  0.74916351381E+02  0.99790839971E+03  0.93694931353E+03 0.  0.
        -13    1    3    3    0    0 -0.30826096668E+03 -0.26535995960E+03  0.75274457405E+02  0.41365080302E+03  0.10566000000E+00 0.  1.
          4    1    3    3  501    0  0.56195631188E+03  0.46331718939E+02  0.66576300531E+03  0.87245739374E+03  0.00000000000E+00 0.  1.
         13    1    4    4    0    0 -0.44998996396E+03  0.26270996663E+03  0.37124395574E+03  0.63978869955E+03  0.10566000000E+00 0. -1.
         -4    1    4    4    0  503  0.19629461876E+03 -0.43681725973E+02 -0.29632760436E+03  0.35811970016E+03  0.00000000000E+00 0. -1.
<mgrwt>
<rscale>  2 0.10368538E+04</rscale>
<asrwt>0</asrwt>
<pdfrwt beam="1">  1       21 0.23845926E+00 0.10511602E+04</pdfrwt>
<pdfrwt beam="2">  1       21 0.11292791E+00 0.10511602E+04</pdfrwt>
<totfact> 0.21014268E+01</totfact>
</mgrwt>
</event>
<event>
 8    1  0.7418332E-006  0.1026400E+04  0.7818608E-02  0.8752392E-01
         21   -1    0    0  503  502  0.00000000000E+00  0.00000000000E+00  0.10361187342E+04  0.10361187342E+04  0.00000000000E+00 0.  1.
         21   -1    0    0  501  503 -0.00000000000E+00 -0.00000000000E+00 -0.22740379989E+04  0.22740379989E+04  0.00000000000E+00 0.  1.
    9000010    2    1    2  501    0  0.22504711561E+03  0.11493061831E+03 -0.18555786696E+04  0.21205349370E+04  0.99480700072E+03 0.  0.
   -9000010    2    1    2    0  502 -0.22504711561E+03 -0.11493061831E+03  0.61765940496E+03  0.11896217960E+04  0.98480537457E+03 0.  0.
        -13    1    3    3    0    0  0.28538249375E+02 -0.35974061494E+03 -0.13587490856E+04  0.14058544841E+04  0.10566000000E+00 0.  1.
          4    1    3    3  501    0  0.19650886624E+03  0.47467123326E+03 -0.49682958400E+03  0.71468045288E+03  0.00000000000E+00 0.  1.
         13    1    4    4    0    0  0.24617820997E+03 -0.28179568624E+03  0.57748290670E+03  0.68811266414E+03  0.10566000000E+00 0. -1.
         -4    1    4    4    0  502 -0.47122532558E+03  0.16686506793E+03  0.40176498263E+02  0.50150913190E+03  0.00000000000E+00 0. -1.
<mgrwt>
<rscale>  2 0.10239683E+04</rscale>
<asrwt>0</asrwt>
<pdfrwt beam="1">  1       21 0.15940288E+00 0.10263996E+04</pdfrwt>
<pdfrwt beam="2">  1       21 0.34985200E+00 0.10263996E+04</pdfrwt>
<totfact> 0.12394781E+00</totfact>
</mgrwt>
</event>
<event>
 8    1  0.7418332E-006  0.1050428E+04  0.7818608E-02  0.8728864E-01
         21   -1    0    0  501  502  0.00000000000E+00  0.00000000000E+00  0.18961308811E+04  0.18961308811E+04  0.00000000000E+00 0.  1.
         21   -1    0    0  502  503 -0.00000000000E+00 -0.00000000000E+00 -0.59199542278E+03  0.59199542278E+03  0.00000000000E+00 0.  1.
    9000010    2    1    2  501    0  0.24741559865E+03 -0.19039828849E+03  0.81922989540E+03  0.13311764312E+04  0.10017120758E+04 0.  0.
   -9000010    2    1    2    0  503 -0.24741559865E+03  0.19039828849E+03  0.48490556289E+03  0.11569498727E+04  0.10029624201E+04 0.  0.
        -13    1    3    3    0    0 -0.33042286098E+03 -0.27784057937E+03  0.51599074478E+03  0.67277122000E+03  0.10566000000E+00 0.  1.
          4    1    3    3  501    0  0.57783845963E+03  0.87442290885E+02  0.30323915062E+03  0.65840521120E+03  0.00000000000E+00 0.  1.
         13    1    4    4    0    0 -0.37088129852E+03  0.46175181721E+03  0.59464898249E+03  0.83927057724E+03  0.10566000000E+00 0. -1.
         -4    1    4    4    0  503  0.12346569987E+03 -0.27135352872E+03 -0.10974341959E+03  0.31767929542E+03  0.00000000000E+00 0. -1.
<mgrwt>
<rscale>  2 0.10501297E+04</rscale>
<asrwt>0</asrwt>
<pdfrwt beam="1">  1       21 0.29171244E+00 0.10504283E+04</pdfrwt>
<pdfrwt beam="2">  1       21 0.91076219E-01 0.10504283E+04</pdfrwt>
<totfact> 0.15312159E+01</totfact>
</mgrwt>
</event>
<event>
 8    1  0.7418332E-006  0.1003606E+04  0.7818608E-02  0.8772315E-01
         21   -1    0    0  501  502  0.00000000000E+00  0.00000000000E+00  0.17620801701E+04  0.17620801701E+04  0.00000000000E+00 0. -1.
         21   -1    0    0  502  503 -0.00000000000E+00 -0.00000000000E+00 -0.58632410693E+03  0.58632410693E+03  0.00000000000E+00 0. -1.
    9000010    2    1    2  501    0 -0.70867327464E+02 -0.50034397114E+02  0.38698453016E+03  0.10756306222E+04  0.99984928353E+03 0.  0.
   -9000010    2    1    2    0  503  0.70867327464E+02  0.50034397114E+02  0.78877153304E+03  0.12727736549E+04  0.99512141282E+03 0.  0.
        -13    1    3    3    0    0 -0.44821414914E+03 -0.25923085520E+03  0.35265703792E+02  0.51898000039E+03  0.10566000000E+00 0.  1.
          4    1    3    3  501    0  0.37734682168E+03  0.20919645808E+03  0.35171882637E+03  0.55665062178E+03  0.00000000000E+00 0.  1.
         13    1    4    4    0    0  0.20666793837E+03  0.24883857152E+03 -0.11050670670E+03  0.34182453805E+03  0.10566000000E+00 0. -1.
         -4    1    4    4    0  503 -0.13580061091E+03 -0.19880417440E+03  0.89927823974E+03  0.93094911684E+03  0.00000000000E+00 0. -1.
<mgrwt>
<rscale>  2 0.10024260E+04</rscale>
<asrwt>0</asrwt>
<pdfrwt beam="1">  1       21 0.27108925E+00 0.10036056E+04</pdfrwt>
<pdfrwt beam="2">  1       21 0.90203710E-01 0.10036056E+04</pdfrwt>
<totfact> 0.22237772E+01</totfact>
</mgrwt>
</event>
<event>
 8    1  0.7418332E-006  0.1010472E+04  0.7818608E-02  0.8769425E-01
         21   -1    0    0  501  502  0.00000000000E+00  0.00000000000E+00  0.13124271301E+04  0.13124271301E+04  0.00000000000E+00 0.  1.
         21   -1    0    0  502  503 -0.00000000000E+00 -0.00000000000E+00 -0.76430359554E+03  0.76430359554E+03  0.00000000000E+00 0.  1.
    9000010    2    1    2  501    0  0.55239322150E+02  0.27263007692E-01  0.31562117112E+03  0.10398554712E+04  0.98925795115E+03 0.  0.
   -9000010    2    1    2    0  503 -0.55239322150E+02 -0.27263007692E-01  0.23250236343E+03  0.10368752544E+04  0.10089606339E+04 0.  0.
        -13    1    3    3    0    0  0.23686710282E+03  0.27961403270E+03  0.52935773812E+03  0.64382424446E+03  0.10566000000E+00 0.  1.
          4    1    3    3  501    0 -0.18162778067E+03 -0.27958676969E+03 -0.21373656700E+03  0.39603122676E+03  0.00000000000E+00 0.  1.
         13    1    4    4    0    0 -0.46302619358E+03  0.21918192122E+03 -0.13789098054E+02  0.51246865360E+03  0.10566000000E+00 0. -1.
         -4    1    4    4    0  503  0.40778687143E+03 -0.21920918423E+03  0.24629146148E+03  0.52440660080E+03  0.00000000000E+00 0. -1.
<mgrwt>
<rscale>  2 0.10055172E+04</rscale>
<asrwt>0</asrwt>
<pdfrwt beam="1">  1       21 0.20191187E+00 0.10104716E+04</pdfrwt>
<pdfrwt beam="2">  1       21 0.11758517E+00 0.10104716E+04</pdfrwt>
<totfact> 0.35795782E+01</totfact>
</mgrwt>
</event>
<event>
 8    1  0.7418332E-006  0.1127859E+04  0.7818608E-02  0.8667035E-01
         21   -1    0    0  501  502  0.00000000000E+00  0.00000000000E+00  0.16535747003E+04  0.16535747003E+04  0.00000000000E+00 0. -1.
         21   -1    0    0  502  503 -0.00000000000E+00 -0.00000000000E+00 -0.92055324922E+03  0.92055324922E+03  0.00000000000E+00 0. -1.
    9000010    2    1    2  501    0 -0.38168958410E+03  0.11013778569E+03  0.91369885051E+03  0.14515203324E+04  0.10555796586E+04 0.  0.
   -9000010    2    1    2    0  503  0.38168958410E+03 -0.11013778569E+03 -0.18067739947E+03  0.11226076170E+04  0.10343047272E+04 0.  0.
        -13    1    3    3    0    0 -0.41333693380E+03  0.24450811574E+03  0.11112117827E+04  0.12105466851E+04  0.10566000000E+00 0.  1.
          4    1    3    3  501    0  0.31647349704E+02 -0.13437033005E+03 -0.19751293220E+03  0.24097364737E+03  0.00000000000E+00 0.  1.
         13    1    4    4    0    0  0.37742206540E+03  0.56469635656E+02  0.37947957251E+03  0.53818304722E+03  0.10566000000E+00 0. -1.
         -4    1    4    4    0  503  0.42675187040E+01 -0.16660742134E+03 -0.56015697198E+03  0.58442456983E+03  0.00000000000E+00 0. -1.
<mgrwt>
<rscale>  2 0.11228541E+04</rscale>
<asrwt>0</asrwt>
<pdfrwt beam="1">  1       21 0.25439611E+00 0.11278589E+04</pdfrwt>
<pdfrwt beam="2">  1       21 0.14162358E+00 0.11278589E+04</pdfrwt>
<totfact> 0.82664402E+00</totfact>
</mgrwt>
</event>
<event>
 8    1  0.7418332E-006  0.1140049E+04  0.7818608E-02  0.8671914E-01
         21   -1    0    0  503  502  0.00000000000E+00  0.00000000000E+00  0.11734615032E+04  0.11734615032E+04  0.00000000000E+00 0. -1.
         21   -1    0    0  501  503 -0.00000000000E+00 -0.00000000000E+00 -0.10229762219E+04  0.10229762219E+04  0.00000000000E+00 0. -1.
    9000010    2    1    2  501    0 -0.34922244228E+03 -0.40361019668E+03  0.11154950137E+03  0.11454931063E+04  0.10073994542E+04 0.  0.
   -9000010    2    1    2    0  502  0.34922244228E+03  0.40361019668E+03  0.38935779890E+02  0.10509446187E+04  0.90449493733E+03 0.  0.
        -13    1    3    3    0    0  0.13949160521E+03  0.27213861294E+03  0.18503838896E+02  0.30636536324E+03  0.10566000000E+00 0.  1.
          4    1    3    3  501    0 -0.48871404749E+03 -0.67574880962E+03  0.93045662477E+02  0.83912774309E+03  0.00000000000E+00 0.  1.
         13    1    4    4    0    0  0.33358265845E+03 -0.23534081243E+03 -0.22455853260E+02  0.40886056856E+03  0.10566000000E+00 0. -1.
         -4    1    4    4    0  502  0.15639783830E+02  0.63895100911E+03  0.61391633150E+02  0.64208405019E+03  0.00000000000E+00 0. -1.
<mgrwt>
<rscale>  2 0.11168966E+04</rscale>
<asrwt>0</asrwt>
<pdfrwt beam="1">  1       21 0.18053254E+00 0.11400488E+04</pdfrwt>
<pdfrwt beam="2">  1       21 0.15738096E+00 0.11400488E+04</pdfrwt>
<totfact> 0.21779790E+01</totfact>
</mgrwt>
</event>
<event>
 8    1  0.7418332E-006  0.1176646E+04  0.7818608E-02  0.8626039E-01
         21   -1    0    0  503  502  0.00000000000E+00  0.00000000000E+00  0.17509181529E+04  0.17509181529E+04  0.00000000000E+00 0.  1.
         21   -1    0    0  501  503 -0.00000000000E+00 -0.00000000000E+00 -0.12485948541E+04  0.12485948541E+04  0.00000000000E+00 0. -1.
    9000010    2    1    2  501    0 -0.42066130815E+03  0.43202866958E+03 -0.66337301038E+03  0.13432088693E+04  0.10002707674E+04 0.  0.
   -9000010    2    1    2    0  502  0.42066130815E+03 -0.43202866958E+03  0.11656963091E+04  0.16563041377E+04  0.10103914113E+04 0.  0.
        -13    1    3    3    0    0 -0.19519650925E+03  0.21773901270E+03  0.24598273805E+03  0.38212494483E+03  0.10566000000E+00 0.  1.
          4    1    3    3  501    0 -0.22546479889E+03  0.21428965687E+03 -0.90935574843E+03  0.96108392443E+03  0.00000000000E+00 0.  1.
         13    1    4    4    0    0  0.72342084903E+03 -0.29266643944E+03  0.10397041316E+04  0.12999907931E+04  0.10566000000E+00 0. -1.
         -4    1    4    4    0  502 -0.30275954089E+03 -0.13936223013E+03  0.12599217753E+03  0.35631334466E+03  0.00000000000E+00 0. -1.
<mgrwt>
<rscale>  2 0.11744701E+04</rscale>
<asrwt>0</asrwt>
<pdfrwt beam="1">  1       21 0.26937202E+00 0.11766459E+04</pdfrwt>
<pdfrwt beam="2">  1       21 0.19209152E+00 0.11766459E+04</pdfrwt>
<totfact> 0.23725539E+00</totfact>
</mgrwt>
</event>
<event>
 8    1  0.7418332E-006  0.1047901E+04  0.7818608E-02  0.8734490E-01
         21   -1    0    0  501  502  0.00000000000E+00  0.00000000000E+00  0.58588263761E+03  0.58588263761E+03  0.00000000000E+00 0.  1.
         21   -1    0    0  502  503 -0.00000000000E+00 -0.00000000000E+00 -0.19540384382E+04  0.19540384382E+04  0.00000000000E+00 0.  1.
    9000010    2    1    2  501    0  0.29514976044E+03  0.19353152459E+02 -0.98883134521E+03  0.14407929908E+04  0.10052905487E+04 0.  0.
   -9000010    2    1    2    0  503 -0.29514976044E+03 -0.19353152459E+02 -0.37932445536E+03  0.10991280850E+04  0.98828517103E+03 0.  0.
        -13    1    3    3    0    0  0.54793631143E+03 -0.11135838200E+03 -0.10110347611E+04  0.11553467834E+04  0.10566000000E+00 0.  1.
          4    1    3    3  501    0 -0.25278655099E+03  0.13071153446E+03  0.22203415912E+02  0.28544620733E+03  0.00000000000E+00 0.  1.
         13    1    4    4    0    0  0.33123242002E+03 -0.18096137027E+03 -0.77632041706E+02  0.38534228767E+03  0.10566000000E+00 0. -1.
         -4    1    4    4    0  503 -0.62638218046E+03  0.16160821781E+03 -0.30169241366E+03  0.71378579737E+03  0.00000000000E+00 0. -1.
<mgrwt>
<rscale>  2 0.10438016E+04</rscale>
<asrwt>0</asrwt>
<pdfrwt beam="1">  1       21 0.90135790E-01 0.10479012E+04</pdfrwt>
<pdfrwt beam="2">  1       21 0.30062130E+00 0.10479012E+04</pdfrwt>
<totfact> 0.13604646E+01</totfact>
</mgrwt>
</event>
<event>
 8    1  0.7418332E-006  0.1169881E+04  0.7818608E-02  0.8668937E-01
         21   -1    0    0  501  502  0.00000000000E+00  0.00000000000E+00  0.82434195257E+03  0.82434195257E+03  0.00000000000E+00 0.  1.
         21   -1    0    0  502  503 -0.00000000000E+00 -0.00000000000E+00 -0.14740043740E+04  0.14740043740E+04  0.00000000000E+00 0.  1.
    9000010    2    1    2  501    0  0.12138075013E+03  0.81072793257E+02 -0.54094857878E+03  0.11234251236E+04  0.97373125611E+03 0.  0.
   -9000010    2    1    2    0  503 -0.12138075013E+03 -0.81072793257E+02 -0.10871384264E+03  0.11749212030E+04  0.11607390100E+04 0.  0.
        -13    1    3    3    0    0 -0.28203723864E+02 -0.37262619516E+03 -0.52630513917E+03  0.64547876963E+03  0.10566000000E+00 0.  1.
          4    1    3    3  501    0  0.14958447400E+03  0.45369898841E+03 -0.14643439613E+02  0.47794635397E+03  0.00000000000E+00 0.  1.
         13    1    4    4    0    0  0.41532145247E+03  0.29086921476E+03  0.27837472506E+02  0.50781073739E+03  0.10566000000E+00 0. -1.
         -4    1    4    4    0  503 -0.53670220260E+03 -0.37194200802E+03 -0.13655131515E+03  0.66711046557E+03  0.00000000000E+00 0. -1.
<mgrwt>
<rscale>  2 0.11205271E+04</rscale>
<asrwt>0</asrwt>
<pdfrwt beam="1">  1       21 0.12682184E+00 0.11698808E+04</pdfrwt>
<pdfrwt beam="2">  1       21 0.22676990E+00 0.11698808E+04</pdfrwt>
<totfact> 0.18083074E+01</totfact>
</mgrwt>
</event>
<event>
 8    1  0.7418332E-006  0.9922497E+03  0.7818608E-02  0.8782695E-01
         21   -1    0    0  501  502  0.00000000000E+00  0.00000000000E+00  0.93746342620E+03  0.93746342620E+03  0.00000000000E+00 0.  1.
         21   -1    0    0  502  503 -0.00000000000E+00 -0.00000000000E+00 -0.10507304066E+04  0.10507304066E+04  0.00000000000E+00 0.  1.
    9000010    2    1    2  501    0 -0.89220304179E+02  0.37090300933E+02 -0.11786119197E+03  0.99593354047E+03  0.98420343596E+03 0.  0.
   -9000010    2    1    2    0  503  0.89220304179E+02 -0.37090300933E+02  0.45942115903E+01  0.99226029231E+03  0.98753401350E+03 0.  0.
        -13    1    3    3    0    0  0.22148951010E+03 -0.19745566328E+03  0.30198919720E+03  0.42337197408E+03  0.10566000000E+00 0.  1.
          4    1    3    3  501    0 -0.31070981428E+03  0.23454596422E+03 -0.41985038917E+03  0.57256156639E+03  0.00000000000E+00 0.  1.
         13    1    4    4    0    0  0.15553510010E+03  0.35290501360E+03 -0.30356995449E+03  0.49080326447E+03  0.10566000000E+00 0. -1.
         -4    1    4    4    0  503 -0.66314795917E+02 -0.38999531453E+03  0.30816416608E+03  0.50145702784E+03  0.00000000000E+00 0. -1.
<mgrwt>
<rscale>  2 0.99141994E+03</rscale>
<asrwt>0</asrwt>
<pdfrwt beam="1">  1       21 0.14422514E+00 0.99224966E+03</pdfrwt>
<pdfrwt beam="2">  1       21 0.16165083E+00 0.99224966E+03</pdfrwt>
<totfact> 0.42356725E+01</totfact>
</mgrwt>
</event>
<event>
 8    1  0.7418332E-006  0.1040218E+04  0.7818608E-02  0.8740236E-01
         21   -1    0    0  503  502  0.00000000000E+00  0.00000000000E+00  0.13008464208E+04  0.13008464208E+04  0.00000000000E+00 0.  1.
         21   -1    0    0  501  503 -0.00000000000E+00 -0.00000000000E+00 -0.87805549051E+03  0.87805549051E+03  0.00000000000E+00 0.  1.
    9000010    2    1    2  501    0 -0.71637102790E+02  0.23941259700E+03 -0.62956307507E+02  0.10308586699E+04  0.99812616160E+03 0.  0.
   -9000010    2    1    2    0  502  0.71637102790E+02 -0.23941259700E+03  0.48574723777E+03  0.11480432414E+04  0.10097537517E+04 0.  0.
        -13    1    3    3    0    0 -0.28233699935E+03 -0.27948264936E+03  0.15971350410E+03  0.42817420175E+03  0.10566000000E+00 0.  1.
          4    1    3    3  501    0  0.21069989656E+03  0.51889524635E+03 -0.22266981160E+03  0.60268446811E+03  0.00000000000E+00 0.  1.
         13    1    4    4    0    0 -0.46110831805E+03 -0.80011318012E+02  0.12226943393E+03  0.48370705765E+03  0.10566000000E+00 0. -1.
         -4    1    4    4    0  502  0.53274542084E+03 -0.15940127898E+03  0.36347780385E+03  0.66433618377E+03  0.00000000000E+00 0. -1.
<mgrwt>
<rscale>  2 0.10373854E+04</rscale>
<asrwt>0</asrwt>
<pdfrwt beam="1">  1       21 0.20013022E+00 0.10402177E+04</pdfrwt>
<pdfrwt beam="2">  1       21 0.13508546E+00 0.10402177E+04</pdfrwt>
<totfact> 0.24714633E+01</totfact>
</mgrwt>
</event>
<event>
 8    1  0.7418332E-006  0.1040301E+04  0.7818608E-02  0.8740477E-01
         21   -1    0    0  503  502  0.00000000000E+00  0.00000000000E+00  0.15613117722E+04  0.15613117722E+04  0.00000000000E+00 0. -1.
         21   -1    0    0  501  503 -0.00000000000E+00 -0.00000000000E+00 -0.75293791410E+03  0.75293791410E+03  0.00000000000E+00 0. -1.
    9000010    2    1    2  501    0 -0.12654262875E+03  0.18650160269E+03  0.58182106566E+02  0.10419266849E+04  0.10155935085E+04 0.  0.
   -9000010    2    1    2    0  502  0.12654262875E+03 -0.18650160269E+03  0.75019175155E+03  0.12723230014E+04  0.10026077354E+04 0.  0.
        -13    1    3    3    0    0  0.32707286893E+03  0.29555233207E+03  0.28320128251E+03  0.52395688770E+03  0.10566000000E+00 0.  1.
          4    1    3    3  501    0 -0.45361549768E+03 -0.10905072938E+03 -0.22501917595E+03  0.51796979724E+03  0.00000000000E+00 0.  1.
         13    1    4    4    0    0  0.31708678373E+03 -0.53989605189E+03  0.45403796732E+03  0.77342243451E+03  0.10566000000E+00 0. -1.
         -4    1    4    4    0  502 -0.19054415498E+03  0.35339444920E+03  0.29615378423E+03  0.49890056688E+03  0.00000000000E+00 0. -1.
<mgrwt>
<rscale>  2 0.10371180E+04</rscale>
<asrwt>0</asrwt>
<pdfrwt beam="1">  1       21 0.24020181E+00 0.10403009E+04</pdfrwt>
<pdfrwt beam="2">  1       21 0.11583660E+00 0.10403009E+04</pdfrwt>
<totfact> 0.19073173E+01</totfact>
</mgrwt>
</event>
<event>
 8    1  0.7418332E-006  0.1038563E+04  0.7818608E-02  0.8746110E-01
         21   -1    0    0  503  502  0.00000000000E+00  0.00000000000E+00  0.17411821958E+04  0.17411821958E+04  0.00000000000E+00 0. -1.
         21   -1    0    0  501  503 -0.00000000000E+00 -0.00000000000E+00 -0.13556481792E+04  0.13556481792E+04  0.00000000000E+00 0. -1.
    9000010    2    1    2  501    0 -0.10091454959E+02  0.23584100978E+03 -0.96336635124E+03  0.13944365059E+04  0.98013041112E+03 0.  0.
   -9000010    2    1    2    0  502  0.10091454959E+02 -0.23584100978E+03  0.13489003678E+04  0.17023938692E+04  0.10113801779E+04 0.  0.
        -13    1    3    3    0    0 -0.28639441122E+03  0.19634931869E+03 -0.10469882667E+04  0.11030681101E+04  0.10566000000E+00 0.  1.
          4    1    3    3  501    0  0.27630295626E+03  0.39491691091E+02  0.83621915459E+02  0.29136839576E+03  0.00000000000E+00 0.  1.
         13    1    4    4    0    0 -0.25235740062E+03  0.32576992973E+03  0.44665186916E+03  0.60770733758E+03  0.10566000000E+00 0. -1.
         -4    1    4    4    0  502  0.26244885558E+03 -0.56161093951E+03  0.90224849869E+03  0.10946865316E+04  0.00000000000E+00 0. -1.
<mgrwt>
<rscale>  2 0.10308762E+04</rscale>
<asrwt>0</asrwt>
<pdfrwt beam="1">  1       21 0.26787418E+00 0.10385628E+04</pdfrwt>
<pdfrwt beam="2">  1       21 0.20856126E+00 0.10385628E+04</pdfrwt>
<totfact> 0.18714014E+00</totfact>
</mgrwt>
</event>
<event>
 8    1  0.7418332E-006  0.1069824E+04  0.7818608E-02  0.8714180E-01
         21   -1    0    0  501  502  0.00000000000E+00  0.00000000000E+00  0.27017015296E+04  0.27017015296E+04  0.00000000000E+00 0. -1.
         21   -1    0    0  502  503 -0.00000000000E+00 -0.00000000000E+00 -0.12314602829E+04  0.12314602829E+04  0.00000000000E+00 0. -1.
    9000010    2    1    2  501    0  0.34421032243E+03  0.15195991937E+03  0.23311066560E+04  0.25599857457E+04  0.98888635011E+03 0.  0.
   -9000010    2    1    2    0  503 -0.34421032243E+03 -0.15195991937E+03 -0.86086540935E+03  0.13731760668E+04  0.10014742605E+04 0.  0.
        -13    1    3    3    0    0  0.64548766246E+03  0.11468857740E+03  0.20266150475E+04  0.21300179234E+04  0.10566000000E+00 0.  1.
          4    1    3    3  501    0 -0.30127734003E+03  0.37271341967E+02  0.30449160847E+03  0.42996782226E+03  0.00000000000E+00 0.  1.
         13    1    4    4    0    0 -0.15652084928E+03 -0.37971780092E+02 -0.10627494118E+04  0.10748846244E+04  0.10566000000E+00 0. -1.
         -4    1    4    4    0  503 -0.18768947315E+03 -0.11398813928E+03  0.20188400241E+03  0.29829144248E+03  0.00000000000E+00 0. -1.
<mgrwt>
<rscale>  2 0.10668681E+04</rscale>
<asrwt>0</asrwt>
<pdfrwt beam="1">  1       21 0.41564639E+00 0.10698239E+04</pdfrwt>
<pdfrwt beam="2">  1       21 0.18945543E+00 0.10698239E+04</pdfrwt>
<totfact> 0.23967245E-01</totfact>
</mgrwt>
</event>
<event>
 8    1  0.7418332E-006  0.1037291E+04  0.7818608E-02  0.8741832E-01
         21   -1    0    0  501  502  0.00000000000E+00  0.00000000000E+00  0.16506438315E+04  0.16506438315E+04  0.00000000000E+00 0. -1.
         21   -1    0    0  502  503 -0.00000000000E+00 -0.00000000000E+00 -0.65580712600E+03  0.65580712600E+03  0.00000000000E+00 0. -1.
    9000010    2    1    2  501    0 -0.68531292487E+02 -0.27034599768E+03  0.62445971156E+03  0.12050189544E+04  0.99213771850E+03 0.  0.
   -9000010    2    1    2    0  503  0.68531292487E+02  0.27034599768E+03  0.37037699391E+03  0.11014320031E+04  0.99909451173E+03 0.  0.
        -13    1    3    3    0    0 -0.13268203389E+03 -0.62223423018E+03  0.54699867205E+03  0.83903964013E+03  0.10566000000E+00 0.  1.
          4    1    3    3  501    0  0.64150741405E+02  0.35188823250E+03  0.77461039511E+02  0.36597931422E+03  0.00000000000E+00 0.  1.
         13    1    4    4    0    0  0.49775076647E+03  0.13170746309E+03 -0.45473193275E+01  0.51490132125E+03  0.10566000000E+00 0. -1.
         -4    1    4    4    0  503 -0.42921947398E+03  0.13863853459E+03  0.37492431323E+03  0.58653068187E+03  0.00000000000E+00 0. -1.
<mgrwt>
<rscale>  2 0.10356125E+04</rscale>
<asrwt>0</asrwt>
<pdfrwt beam="1">  1       21 0.25394520E+00 0.10372913E+04</pdfrwt>
<pdfrwt beam="2">  1       21 0.10089340E+00 0.10372913E+04</pdfrwt>
<totfact> 0.21977704E+01</totfact>
</mgrwt>
</event>
<event>
 8    1  0.7418332E-006  0.1101080E+04  0.7818608E-02  0.8685784E-01
         21   -1    0    0  501  502  0.00000000000E+00  0.00000000000E+00  0.12287185891E+04  0.12287185891E+04  0.00000000000E+00 0. -1.
         21   -1    0    0  502  503 -0.00000000000E+00 -0.00000000000E+00 -0.13463972370E+04  0.13463972370E+04  0.00000000000E+00 0. -1.
    9000010    2    1    2  501    0  0.16500578408E+03  0.43129674639E+03 -0.72727316249E+03  0.13165521924E+04  0.99555995817E+03 0.  0.
   -9000010    2    1    2    0  503 -0.16500578408E+03 -0.43129674639E+03  0.60959451452E+03  0.12585636337E+04  0.99956648384E+03 0.  0.
        -13    1    3    3    0    0  0.54106476365E+02  0.50985473907E+03  0.61286024533E+02  0.51636745995E+03  0.10566000000E+00 0.  1.
          4    1    3    3  501    0  0.11089930771E+03 -0.78557992678E+02 -0.78855918702E+03  0.80018473248E+03  0.00000000000E+00 0.  1.
         13    1    4    4    0    0 -0.51297358380E+03 -0.33852120121E+02  0.98306476727E+02  0.52340427802E+03  0.10566000000E+00 0. -1.
         -4    1    4    4    0  503  0.34796779973E+03 -0.39744462627E+03  0.51128803779E+03  0.73515935564E+03  0.00000000000E+00 0. -1.
<mgrwt>
<rscale>  2 0.11001698E+04</rscale>
<asrwt>0</asrwt>
<pdfrwt beam="1">  1       21 0.18903363E+00 0.11010799E+04</pdfrwt>
<pdfrwt beam="2">  1       21 0.20713804E+00 0.11010799E+04</pdfrwt>
<totfact> 0.73661538E+00</totfact>
</mgrwt>
</event>
<event>
 8    1  0.7418332E-006  0.1065739E+04  0.7818608E-02  0.8718513E-01
         21   -1    0    0  503  502  0.00000000000E+00  0.00000000000E+00  0.12368192034E+04  0.12368192034E+04  0.00000000000E+00 0. -1.
         21   -1    0    0  501  503 -0.00000000000E+00 -0.00000000000E+00 -0.98741726670E+03  0.98741726670E+03  0.00000000000E+00 0. -1.
    9000010    2    1    2  501    0  0.23788123337E+03  0.23618880615E+03 -0.19538429016E+03  0.10835006746E+04  0.10116452232E+04 0.  0.
   -9000010    2    1    2    0  502 -0.23788123337E+03 -0.23618880615E+03  0.44478622690E+03  0.11407357956E+04  0.99552535593E+03 0.  0.
        -13    1    3    3    0    0  0.11957066426E+03 -0.44828330824E+02  0.39711951416E+03  0.41714582904E+03  0.10566000000E+00 0.  1.
          4    1    3    3  501    0  0.11831056911E+03  0.28101713697E+03 -0.59250380432E+03  0.66635484553E+03  0.00000000000E+00 0.  1.
         13    1    4    4    0    0 -0.74388960829E+02 -0.24717174919E+03 -0.28980489679E+03  0.38809081470E+03  0.10566000000E+00 0. -1.
         -4    1    4    4    0  502 -0.16349227254E+03  0.10982943040E+02  0.73459112369E+03  0.75264498087E+03  0.00000000000E+00 0. -1.
<mgrwt>
<rscale>  2 0.10618955E+04</rscale>
<asrwt>0</asrwt>
<pdfrwt beam="1">  1       21 0.19027988E+00 0.10657386E+04</pdfrwt>
<pdfrwt beam="2">  1       21 0.15191035E+00 0.10657386E+04</pdfrwt>
<totfact> 0.20623140E+01</totfact>
</mgrwt>
</event>
<event>
 8    1  0.7418332E-006  0.1086793E+04  0.7818608E-02  0.8699759E-01
         21   -1    0    0  501  502  0.00000000000E+00  0.00000000000E+00  0.22209410016E+04  0.22209410016E+04  0.00000000000E+00 0. -1.
         21   -1    0    0  502  503 -0.00000000000E+00 -0.00000000000E+00 -0.10080794653E+04  0.10080794653E+04  0.00000000000E+00 0. -1.
    9000010    2    1    2  501    0 -0.35113607120E+03 -0.23052125047E+03  0.17214589725E+04  0.20291079655E+04  0.98864632411E+03 0.  0.
   -9000010    2    1    2    0  503  0.35113607120E+03  0.23052125047E+03 -0.50859743626E+03  0.11999125015E+04  0.10023383020E+04 0.  0.
        -13    1    3    3    0    0 -0.59209470082E+03 -0.45199295678E+03  0.12517777839E+04  0.14566473146E+04  0.10566000000E+00 0.  1.
          4    1    3    3  501    0  0.24095862962E+03  0.22147170631E+03  0.46968118860E+03  0.57246065088E+03  0.00000000000E+00 0.  1.
         13    1    4    4    0    0  0.24872727777E+03 -0.10425531336E+03 -0.73505178960E+03  0.78296588280E+03  0.10566000000E+00 0. -1.
         -4    1    4    4    0  503  0.10240879343E+03  0.33477656383E+03  0.22645435334E+03  0.41694661866E+03  0.00000000000E+00 0. -1.
<mgrwt>
<rscale>  2 0.10836253E+04</rscale>
<asrwt>0</asrwt>
<pdfrwt beam="1">  1       21 0.34168323E+00 0.10867928E+04</pdfrwt>
<pdfrwt beam="2">  1       21 0.15508915E+00 0.10867928E+04</pdfrwt>
<totfact> 0.15182997E+00</totfact>
</mgrwt>
</event>
<event>
 8    1  0.7418332E-006  0.1101957E+04  0.7818608E-02  0.8689371E-01
         21   -1    0    0  503  502  0.00000000000E+00  0.00000000000E+00  0.14267367460E+04  0.14267367460E+04  0.00000000000E+00 0.  1.
         21   -1    0    0  501  503 -0.00000000000E+00 -0.00000000000E+00 -0.10715977424E+04  0.10715977424E+04  0.00000000000E+00 0.  1.
    9000010    2    1    2  501    0  0.38575686398E+03  0.22766253434E+03 -0.41381192587E+03  0.11546104537E+04  0.98043174276E+03 0.  0.
   -9000010    2    1    2    0  502 -0.38575686398E+03 -0.22766253434E+03  0.76895092943E+03  0.13437240346E+04  0.10068118800E+04 0.  0.
        -13    1    3    3    0    0 -0.23701621541E+03  0.58447895246E+02 -0.44601945270E+03  0.50845472382E+03  0.10566000000E+00 0.  1.
          4    1    3    3  501    0  0.62277307939E+03  0.16921463909E+03  0.32207526830E+02  0.64615572990E+03  0.00000000000E+00 0.  1.
         13    1    4    4    0    0 -0.62976261957E+03  0.14384875304E+03  0.35887864245E+03  0.73897720664E+03  0.10566000000E+00 0. -1.
         -4    1    4    4    0  502  0.24400575560E+03 -0.37151128738E+03  0.41007228698E+03  0.60474682798E+03  0.00000000000E+00 0. -1.
<mgrwt>
<rscale>  2 0.10958947E+04</rscale>
<asrwt>0</asrwt>
<pdfrwt beam="1">  1       21 0.21949796E+00 0.11019568E+04</pdfrwt>
<pdfrwt beam="2">  1       21 0.16486119E+00 0.11019568E+04</pdfrwt>
<totfact> 0.93788495E+00</totfact>
</mgrwt>
</event>
<event>
 8    1  0.7418332E-006  0.1108845E+04  0.7818608E-02  0.8682106E-01
         21   -1    0    0  501  502  0.00000000000E+00  0.00000000000E+00  0.67915682475E+03  0.67915682475E+03  0.00000000000E+00 0. -1.
         21   -1    0    0  502  503 -0.00000000000E+00 -0.00000000000E+00 -0.18244347045E+04  0.18244347045E+04  0.00000000000E+00 0.  1.
    9000010    2    1    2  501    0 -0.10366892315E+02 -0.45928192666E+03 -0.75747487430E+03  0.13288880671E+04  0.99051903008E+03 0.  0.
   -9000010    2    1    2    0  503  0.10366892315E+02  0.45928192666E+03 -0.38780300549E+03  0.11747034622E+04  0.10092025032E+04 0.  0.
        -13    1    3    3    0    0  0.11046758888E+01 -0.48817729714E+03 -0.98495286684E+03  0.10992954356E+04  0.10566000000E+00 0.  1.
          4    1    3    3  501    0 -0.11471568203E+02  0.28895370479E+02  0.22747799254E+03  0.22959263142E+03  0.00000000000E+00 0.  1.
         13    1    4    4    0    0  0.24081181096E+03  0.68395645292E+03 -0.44071685592E+03  0.84853881234E+03  0.10566000000E+00 0. -1.
         -4    1    4    4    0  503 -0.23044491865E+03 -0.22467452626E+03  0.52913850426E+02  0.32616464991E+03  0.00000000000E+00 0. -1.
<mgrwt>
<rscale>  2 0.11045761E+04</rscale>
<asrwt>0</asrwt>
<pdfrwt beam="1">  1       21 0.10448567E+00 0.11088449E+04</pdfrwt>
<pdfrwt beam="2">  1       21 0.28068226E+00 0.11088449E+04</pdfrwt>
<totfact> 0.12675504E+01</totfact>
</mgrwt>
</event>
<event>
 8    1  0.7418332E-006  0.1014930E+04  0.7818608E-02  0.8760803E-01
         21   -1    0    0  501  502  0.00000000000E+00  0.00000000000E+00  0.97370951381E+03  0.97370951381E+03  0.00000000000E+00 0. -1.
         21   -1    0    0  502  503 -0.00000000000E+00 -0.00000000000E+00 -0.10972876978E+04  0.10972876978E+04  0.00000000000E+00 0. -1.
    9000010    2    1    2  501    0 -0.17048095412E+03  0.15497891835E+03  0.13569470942E+03  0.10234742231E+04  0.98792925366E+03 0.  0.
   -9000010    2    1    2    0  503  0.17048095412E+03 -0.15497891835E+03 -0.25927289346E+03  0.10475229886E+04  0.98843298079E+03 0.  0.
        -13    1    3    3    0    0 -0.41582185054E+01 -0.41654058574E+03  0.92305077804E+02  0.42666566408E+03  0.10566000000E+00 0.  1.
          4    1    3    3  501    0 -0.16632273561E+03  0.57151950409E+03  0.43389631613E+02  0.59680855897E+03  0.00000000000E+00 0.  1.
         13    1    4    4    0    0  0.37189355583E+03  0.31645566454E+03 -0.40023903014E+02  0.48994992444E+03  0.10566000000E+00 0. -1.
         -4    1    4    4    0  503 -0.20141260171E+03 -0.47143458288E+03 -0.21924899044E+03  0.55757306416E+03  0.00000000000E+00 0. -1.
<mgrwt>
<rscale>  2 0.10148069E+04</rscale>
<asrwt>0</asrwt>
<pdfrwt beam="1">  1       21 0.14980146E+00 0.10149295E+04</pdfrwt>
<pdfrwt beam="2">  1       21 0.16881349E+00 0.10149295E+04</pdfrwt>
<totfact> 0.32631639E+01</totfact>
</mgrwt>
</event>
<event>
 8    1  0.7418332E-006  0.1108774E+04  0.7818608E-02  0.8685103E-01
         21   -1    0    0  503  502  0.00000000000E+00  0.00000000000E+00  0.10048633559E+04  0.10048633559E+04  0.00000000000E+00 0.  1.
         21   -1    0    0  501  503 -0.00000000000E+00 -0.00000000000E+00 -0.12092289813E+04  0.12092289813E+04  0.00000000000E+00 0.  1.
    9000010    2    1    2  501    0  0.32177232790E+03  0.27267704925E+03 -0.24161988656E+03  0.11046930504E+04  0.99200623076E+03 0.  0.
   -9000010    2    1    2    0  502 -0.32177232790E+03 -0.27267704925E+03  0.37254261210E+02  0.11093992867E+04  0.10254212272E+04 0.  0.
        -13    1    3    3    0    0  0.21819200807E+03  0.48350955948E+03  0.22971655959E+03  0.57806483669E+03  0.10566000000E+00 0.  1.
          4    1    3    3  501    0  0.10358031982E+03 -0.21083251023E+03 -0.47133644615E+03  0.52662821373E+03  0.00000000000E+00 0.  1.
         13    1    4    4    0    0 -0.18849290913E+03 -0.13391922176E+03  0.53118009245E+03  0.57932394783E+03  0.10566000000E+00 0. -1.
         -4    1    4    4    0  502 -0.13327941876E+03 -0.13875782749E+03 -0.49392583124E+03  0.53007533891E+03  0.00000000000E+00 0. -1.
<mgrwt>
<rscale>  2 0.11009849E+04</rscale>
<asrwt>0</asrwt>
<pdfrwt beam="1">  1       21 0.15459436E+00 0.11087736E+04</pdfrwt>
<pdfrwt beam="2">  1       21 0.18603523E+00 0.11087736E+04</pdfrwt>
<totfact> 0.20922881E+01</totfact>
</mgrwt>
</event>
<event>
 8    1  0.7418332E-006  0.1033875E+04  0.7818608E-02  0.8762675E-01
         21   -1    0    0  501  502  0.00000000000E+00  0.00000000000E+00  0.45328739987E+03  0.45328739987E+03  0.00000000000E+00 0. -1.
         21   -1    0    0  502  503 -0.00000000000E+00 -0.00000000000E+00 -0.23126761701E+04  0.23126761701E+04  0.00000000000E+00 0. -1.
    9000010    2    1    2  501    0 -0.26007346561E+03 -0.35090105775E+02 -0.55668720232E+03  0.11028553771E+04  0.91516108880E+03 0.  0.
   -9000010    2    1    2    0  503  0.26007346561E+03  0.35090105775E+02 -0.13027015679E+04  0.16631081929E+04  0.10000139815E+04 0.  0.
        -13    1    3    3    0    0  0.21103556239E+03 -0.28864685205E+03 -0.41229571068E+02  0.35993458084E+03  0.10566000000E+00 0.  1.
          4    1    3    3  501    0 -0.47110902800E+03  0.25355674627E+03 -0.51545763125E+03  0.74292079623E+03  0.00000000000E+00 0.  1.
         13    1    4    4    0    0  0.19332448152E+03 -0.32457142757E+03 -0.12344869534E+04  0.12909992316E+04  0.10566000000E+00 0. -1.
         -4    1    4    4    0  503  0.66748984096E+02  0.35966153335E+03 -0.68214614520E+02  0.37210896130E+03  0.00000000000E+00 0. -1.
<mgrwt>
<rscale>  2 0.10127806E+04</rscale>
<asrwt>0</asrwt>
<pdfrwt beam="1">  1       21 0.69736524E-01 0.10338750E+04</pdfrwt>
<pdfrwt beam="2">  1       21 0.35579633E+00 0.10338750E+04</pdfrwt>
<totfact> 0.10489723E+01</totfact>
</mgrwt>
</event>
<event>
 8    1  0.7418332E-006  0.1006658E+04  0.7818608E-02  0.8770968E-01
         21   -1    0    0  503  502  0.00000000000E+00  0.00000000000E+00  0.44615071839E+03  0.44615071839E+03  0.00000000000E+00 0.  1.
         21   -1    0    0  501  503 -0.00000000000E+00 -0.00000000000E+00 -0.30096710860E+04  0.30096710860E+04  0.00000000000E+00 0.  1.
    9000010    2    1    2  501    0 -0.73374045794E+01  0.58753061390E+02 -0.21572802281E+04  0.23805921476E+04  0.10049155344E+04 0.  0.
   -9000010    2    1    2    0  502  0.73374045794E+01 -0.58753061390E+02 -0.40624013954E+03  0.10752296567E+04  0.99377160557E+03 0.  0.
        -13    1    3    3    0    0 -0.42733563163E+03  0.30013390311E+03 -0.11092477755E+04  0.12260206933E+04  0.10566000000E+00 0.  1.
          4    1    3    3  501    0  0.41999822706E+03 -0.24138084172E+03 -0.10480324525E+04  0.11545714543E+04  0.00000000000E+00 0.  1.
         13    1    4    4    0    0  0.16174016429E+03 -0.46661531940E+03 -0.22561152482E+02  0.49436702339E+03  0.10566000000E+00 0. -1.
         -4    1    4    4    0  502 -0.15440275972E+03  0.40786225801E+03 -0.38367898705E+03  0.58086263335E+03  0.00000000000E+00 0. -1.
<mgrwt>
<rscale>  2 0.10038656E+04</rscale>
<asrwt>0</asrwt>
<pdfrwt beam="1">  1       21 0.68638573E-01 0.10066583E+04</pdfrwt>
<pdfrwt beam="2">  1       21 0.46302631E+00 0.10066583E+04</pdfrwt>
<totfact> 0.19665184E+00</totfact>
</mgrwt>
</event>
<event>
 8    1  0.7418332E-006  0.1208404E+04  0.7818608E-02  0.8635567E-01
         21   -1    0    0  501  502  0.00000000000E+00  0.00000000000E+00  0.18044381944E+04  0.18044381944E+04  0.00000000000E+00 0.  1.
         21   -1    0    0  502  503 -0.00000000000E+00 -0.00000000000E+00 -0.77550626200E+03  0.77550626200E+03  0.00000000000E+00 0.  1.
    9000010    2    1    2  501    0 -0.22552285790E+03  0.80137549872E+02  0.96059965874E+03  0.15436939188E+04  0.11844646994E+04 0.  0.
   -9000010    2    1    2    0  503  0.22552285790E+03 -0.80137549872E+02  0.68332273683E+02  0.10362505376E+04  0.10059141568E+04 0.  0.
        -13    1    3    3    0    0  0.22255188683E+03 -0.45735200009E+03  0.40036083489E+03  0.64729359922E+03  0.10566000000E+00 0.  1.
          4    1    3    3  501    0 -0.44807474472E+03  0.53748954996E+03  0.56023882385E+03  0.89640031957E+03  0.00000000000E+00 0.  1.
         13    1    4    4    0    0  0.22337544867E+03  0.15100115605E+03  0.48777386300E+03  0.55733409441E+03  0.10566000000E+00 0. -1.
         -4    1    4    4    0  503  0.21474092261E+01 -0.23113870592E+03 -0.41944158932E+03  0.47891644322E+03  0.00000000000E+00 0. -1.
<mgrwt>
<rscale>  2 0.11622207E+04</rscale>
<asrwt>0</asrwt>
<pdfrwt beam="1">  1       21 0.27760588E+00 0.12084036E+04</pdfrwt>
<pdfrwt beam="2">  1       21 0.11930866E+00 0.12084036E+04</pdfrwt>
<totfact> 0.90936162E+00</totfact>
</mgrwt>
</event>
<event>
 8    1  0.7418332E-006  0.1019039E+04  0.7818608E-02  0.8757744E-01
         21   -1    0    0  503  502  0.00000000000E+00  0.00000000000E+00  0.18462429748E+04  0.18462429748E+04  0.00000000000E+00 0.  1.
         21   -1    0    0  501  503 -0.00000000000E+00 -0.00000000000E+00 -0.68847667860E+03  0.68847667860E+03  0.00000000000E+00 0.  1.
    9000010    2    1    2  501    0  0.24198356466E+03  0.67155446426E+02  0.11262401843E+04  0.15188345024E+04  0.98761095242E+03 0.  0.
   -9000010    2    1    2    0  502 -0.24198356466E+03 -0.67155446426E+02  0.31526111929E+02  0.10158851510E+04  0.98385102776E+03 0.  0.
        -13    1    3    3    0    0  0.30476099569E+03 -0.42052298723E+03  0.48338458595E+03  0.70949243575E+03  0.10566000000E+00 0.  1.
          4    1    3    3  501    0 -0.62777431031E+02  0.48767843366E+03  0.64285559833E+03  0.80934206663E+03  0.00000000000E+00 0.  1.
         13    1    4    4    0    0  0.22578550016E+03  0.29338837074E+03 -0.14786659058E+03  0.39864817564E+03  0.10566000000E+00 0. -1.
         -4    1    4    4    0  502 -0.46776906482E+03 -0.36054381716E+03  0.17939270251E+03  0.61723697540E+03  0.00000000000E+00 0. -1.
<mgrwt>
<rscale>  2 0.10181273E+04</rscale>
<asrwt>0</asrwt>
<pdfrwt beam="1">  1       21 0.28403738E+00 0.10190394E+04</pdfrwt>
<pdfrwt beam="2">  1       21 0.10591949E+00 0.10190394E+04</pdfrwt>
<totfact> 0.11805933E+01</totfact>
</mgrwt>
</event>
<event>
 8    1  0.7418332E-006  0.1011388E+04  0.7818608E-02  0.8764849E-01
         21   -1    0    0  501  502  0.00000000000E+00  0.00000000000E+00  0.14699953861E+04  0.14699953861E+04  0.00000000000E+00 0.  1.
         21   -1    0    0  502  503 -0.00000000000E+00 -0.00000000000E+00 -0.84314296559E+03  0.84314296559E+03  0.00000000000E+00 0.  1.
    9000010    2    1    2  501    0 -0.17518250605E+03 -0.30756300594E+02  0.80061234723E+03  0.12869323019E+04  0.99175589677E+03 0.  0.
   -9000010    2    1    2    0  503  0.17518250605E+03  0.30756300594E+02 -0.17375992668E+03  0.10262060498E+04  0.99562617687E+03 0.  0.
        -13    1    3    3    0    0  0.41820829265E+02 -0.58187812545E+02 -0.22609785827E+03  0.23718148319E+03  0.10566000000E+00 0.  1.
          4    1    3    3  501    0 -0.21700333532E+03  0.27431511951E+02  0.10267102055E+04  0.10497508188E+04  0.00000000000E+00 0.  1.
         13    1    4    4    0    0  0.24711724670E+03  0.41182028450E+03  0.16850209396E+03  0.50897529132E+03  0.10566000000E+00 0. -1.
         -4    1    4    4    0  503 -0.71934740650E+02 -0.38106398391E+03 -0.34226202063E+03  0.51723075848E+03  0.00000000000E+00 0. -1.
<mgrwt>
<rscale>  2 0.10104345E+04</rscale>
<asrwt>0</asrwt>
<pdfrwt beam="1">  1       21 0.22615314E+00 0.10113883E+04</pdfrwt>
<pdfrwt beam="2">  1       21 0.12971430E+00 0.10113883E+04</pdfrwt>
<totfact> 0.17731586E+01</totfact>
</mgrwt>
</event>
<event>
 8    1  0.7418332E-006  0.1049660E+04  0.7818608E-02  0.8736735E-01
         21   -1    0    0  503  502  0.00000000000E+00  0.00000000000E+00  0.11456322268E+04  0.11456322268E+04  0.00000000000E+00 0.  1.
         21   -1    0    0  501  503 -0.00000000000E+00 -0.00000000000E+00 -0.96055671105E+03  0.96055671105E+03  0.00000000000E+00 0.  1.
    9000010    2    1    2  501    0  0.13345831467E+03 -0.28641063354E+03  0.27663194262E+03  0.10855008074E+04  0.10009718270E+04 0.  0.
   -9000010    2    1    2    0  502 -0.13345831467E+03  0.28641063354E+03 -0.91556426896E+02  0.10206881304E+04  0.96621918193E+03 0.  0.
        -13    1    3    3    0    0  0.28953842195E+03 -0.41474001993E+03  0.54892005774E+03  0.74642817663E+03  0.10566000000E+00 0.  1.
          4    1    3    3  501    0 -0.15608010728E+03  0.12832938639E+03 -0.27228811512E+03  0.33907263077E+03  0.00000000000E+00 0.  1.
         13    1    4    4    0    0 -0.14998460073E+03  0.26303647334E+03 -0.51438685361E+03  0.59688978304E+03  0.10566000000E+00 0. -1.
         -4    1    4    4    0  502  0.16526286056E+02  0.23374160201E+02  0.42283042671E+03  0.42379834739E+03  0.00000000000E+00 0. -1.
<mgrwt>
<rscale>  2 0.10412890E+04</rscale>
<asrwt>0</asrwt>
<pdfrwt beam="1">  1       21 0.17625111E+00 0.10496603E+04</pdfrwt>
<pdfrwt beam="2">  1       21 0.14777796E+00 0.10496603E+04</pdfrwt>
<totfact> 0.29273913E+01</totfact>
</mgrwt>
</event>
<event>
 8    1  0.7418332E-006  0.1021055E+04  0.7818608E-02  0.8756463E-01
         21   -1    0    0  501  502  0.00000000000E+00  0.00000000000E+00  0.73993645619E+03  0.73993645619E+03  0.00000000000E+00 0.  1.
         21   -1    0    0  502  503 -0.00000000000E+00 -0.00000000000E+00 -0.15057166485E+04  0.15057166485E+04  0.00000000000E+00 0.  1.
    9000010    2    1    2  501    0 -0.70550468682E+02  0.48502927370E+02 -0.87207538149E+02  0.10247719021E+04  0.10174587923E+04 0.  0.
   -9000010    2    1    2    0  503  0.70550468682E+02 -0.48502927370E+02 -0.67857265419E+03  0.12208812027E+04  0.10113160541E+04 0.  0.
        -13    1    3    3    0    0  0.13483332842E+03 -0.38110733776E+03 -0.29979828429E+03  0.50329102096E+03  0.10566000000E+00 0.  1.
          4    1    3    3  501    0 -0.20538379710E+03  0.42961026514E+03  0.21259074615E+03  0.52148088111E+03  0.00000000000E+00 0.  1.
         13    1    4    4    0    0 -0.45752861055E+03 -0.11061264427E+03 -0.22378602101E+03  0.52119840839E+03  0.10566000000E+00 0. -1.
         -4    1    4    4    0  503  0.52807907924E+03  0.62109716895E+02 -0.45478663318E+03  0.69968279426E+03  0.00000000000E+00 0. -1.
<mgrwt>
<rscale>  2 0.10195208E+04</rscale>
<asrwt>0</asrwt>
<pdfrwt beam="1">  1       21 0.11383638E+00 0.10210545E+04</pdfrwt>
<pdfrwt beam="2">  1       21 0.23164871E+00 0.10210545E+04</pdfrwt>
<totfact> 0.23241001E+01</totfact>
</mgrwt>
</event>
<event>
 8    1  0.7418332E-006  0.1207339E+04  0.7818608E-02  0.8610790E-01
         21   -1    0    0  501  502  0.00000000000E+00  0.00000000000E+00  0.46458326214E+03  0.46458326214E+03  0.00000000000E+00 0. -1.
         21   -1    0    0  502  503 -0.00000000000E+00 -0.00000000000E+00 -0.33494520175E+04  0.33494520175E+04  0.00000000000E+00 0. -1.
    9000010    2    1    2  501    0 -0.62462593657E+03 -0.23604807283E+03 -0.80457010042E+03  0.14087681815E+04  0.94414961184E+03 0.  0.
   -9000010    2    1    2    0  503  0.62462593657E+03  0.23604807283E+03 -0.20802986549E+04  0.24052670981E+04  0.10058782561E+04 0.  0.
        -13    1    3    3    0    0 -0.24316524793E+03  0.23001878416E+03 -0.72849351796E+03  0.80171116728E+03  0.10566000000E+00 0.  1.
          4    1    3    3  501    0 -0.38146068864E+03 -0.46606685700E+03 -0.76076582457E+02  0.60705701427E+03  0.00000000000E+00 0.  1.
         13    1    4    4    0    0 -0.24804918085E+03 -0.82324831694E+02 -0.64093669157E+03  0.69217456454E+03  0.10566000000E+00 0. -1.
         -4    1    4    4    0  503  0.87267511742E+03  0.31837290453E+03 -0.14393619634E+04  0.17130925335E+04  0.00000000000E+00 0. -1.
<mgrwt>
<rscale>  2 0.11944014E+04</rscale>
<asrwt>0</asrwt>
<pdfrwt beam="1">  1       21 0.71474349E-01 0.12073389E+04</pdfrwt>
<pdfrwt beam="2">  1       21 0.51530031E+00 0.12073389E+04</pdfrwt>
<totfact> 0.74052873E-01</totfact>
</mgrwt>
</event>
<event>
 8    1  0.7418332E-006  0.1090986E+04  0.7818608E-02  0.8700770E-01
         21   -1    0    0  501  502  0.00000000000E+00  0.00000000000E+00  0.11155492322E+04  0.11155492322E+04  0.00000000000E+00 0.  1.
         21   -1    0    0  502  503 -0.00000000000E+00 -0.00000000000E+00 -0.12493030216E+04  0.12493030216E+04  0.00000000000E+00 0.  1.
    9000010    2    1    2  501    0 -0.31820522792E+03 -0.20910831302E+03  0.42461235715E+03  0.11392813992E+04  0.98624824409E+03 0.  0.
   -9000010    2    1    2    0  503  0.31820522792E+03  0.20910831302E+03 -0.55836614647E+03  0.12255708547E+04  0.10223846207E+04 0.  0.
        -13    1    3    3    0    0 -0.52009577172E+03  0.22460541031E+03  0.14354648792E+03  0.58442519407E+03  0.10566000000E+00 0.  1.
          4    1    3    3  501    0  0.20189054380E+03 -0.43371372333E+03  0.28106586923E+03  0.55485620509E+03  0.00000000000E+00 0.  1.
         13    1    4    4    0    0  0.36219666694E+02  0.59417677309E+03 -0.42036901573E+03  0.72874414062E+03  0.10566000000E+00 0. -1.
         -4    1    4    4    0  503  0.28198556123E+03 -0.38506846007E+03 -0.13799713074E+03  0.49682671403E+03  0.00000000000E+00 0. -1.
<mgrwt>
<rscale>  2 0.10824392E+04</rscale>
<asrwt>0</asrwt>
<pdfrwt beam="1">  1       21 0.17162296E+00 0.10909863E+04</pdfrwt>
<pdfrwt beam="2">  1       21 0.19220046E+00 0.10909863E+04</pdfrwt>
<totfact> 0.13404242E+01</totfact>
</mgrwt>
</event>
<event>
 8    1  0.7418332E-006  0.1005217E+04  0.7818608E-02  0.8780556E-01
         21   -1    0    0  501  502  0.00000000000E+00  0.00000000000E+00  0.75311096568E+03  0.75311096568E+03  0.00000000000E+00 0.  1.
         21   -1    0    0  502  503 -0.00000000000E+00 -0.00000000000E+00 -0.13030624585E+04  0.13030624585E+04  0.00000000000E+00 0.  1.
    9000010    2    1    2  501    0  0.70893267096E+02 -0.69496766881E+02 -0.39992060784E+03  0.10398214233E+04  0.95469180574E+03 0.  0.
   -9000010    2    1    2    0  503 -0.70893267096E+02  0.69496766881E+02 -0.15003088497E+03  0.10163520008E+04  0.10003031876E+04 0.  0.
        -13    1    3    3    0    0 -0.28104027572E+03 -0.24687573939E+03  0.11503474297E+03  0.39136207089E+03  0.10566000000E+00 0.  1.
          4    1    3    3  501    0  0.35193354282E+03  0.17737897251E+03 -0.51495535081E+03  0.64845935245E+03  0.00000000000E+00 0.  1.
         13    1    4    4    0    0 -0.34167791522E+03 -0.30013749519E+03  0.13785048730E+03  0.47521477437E+03  0.10566000000E+00 0. -1.
         -4    1    4    4    0  503  0.27078464812E+03  0.36963426207E+03 -0.28788137227E+03  0.54113722645E+03  0.00000000000E+00 0. -1.
<mgrwt>
<rscale>  2 0.99367573E+03</rscale>
<asrwt>0</asrwt>
<pdfrwt beam="1">  1       21 0.11586323E+00 0.10052175E+04</pdfrwt>
<pdfrwt beam="2">  1       21 0.20047115E+00 0.10052175E+04</pdfrwt>
<totfact> 0.38304629E+01</totfact>
</mgrwt>
</event>
<event>
 8    1  0.7418332E-006  0.1260671E+04  0.7818608E-02  0.8566098E-01
         21   -1    0    0  501  502  0.00000000000E+00  0.00000000000E+00  0.13199172731E+04  0.13199172731E+04  0.00000000000E+00 0. -1.
         21   -1    0    0  502  503 -0.00000000000E+00 -0.00000000000E+00 -0.12122149410E+04  0.12122149410E+04  0.00000000000E+00 0. -1.
    9000010    2    1    2  501    0  0.65603474472E+03  0.37649417022E+03  0.24825585725E+03  0.12636504197E+04  0.98135211115E+03 0.  0.
   -9000010    2    1    2    0  503 -0.65603474472E+03 -0.37649417022E+03 -0.14055352518E+03  0.12684817944E+04  0.10085441601E+04 0.  0.
        -13    1    3    3    0    0  0.54060128891E+03 -0.17679579533E+03 -0.13014063102E+03  0.58347502245E+03  0.10566000000E+00 0.  1.
          4    1    3    3  501    0  0.11543345581E+03  0.55328996554E+03  0.37839648826E+03  0.68017539725E+03  0.00000000000E+00 0.  1.
         13    1    4    4    0    0 -0.34618056886E+02 -0.96344368586E+02 -0.49132457998E+03  0.50187697823E+03  0.10566000000E+00 0. -1.
         -4    1    4    4    0  503 -0.62141668783E+03 -0.28014980163E+03  0.35077105480E+03  0.76660481616E+03  0.00000000000E+00 0. -1.
<mgrwt>
<rscale>  2 0.12552240E+04</rscale>
<asrwt>0</asrwt>
<pdfrwt beam="1">  1       21 0.20306420E+00 0.12606708E+04</pdfrwt>
<pdfrwt beam="2">  1       21 0.18649461E+00 0.12606708E+04</pdfrwt>
<totfact> 0.80238930E+00</totfact>
</mgrwt>
</event>
<event>
 8    1  0.7418332E-006  0.1032008E+04  0.7818608E-02  0.8747385E-01
         21   -1    0    0  501  502  0.00000000000E+00  0.00000000000E+00  0.58475260255E+03  0.58475260255E+03  0.00000000000E+00 0.  1.
         21   -1    0    0  502  503 -0.00000000000E+00 -0.00000000000E+00 -0.18185375867E+04  0.18185375867E+04  0.00000000000E+00 0.  1.
    9000010    2    1    2  501    0  0.19736709414E+03 -0.45046648675E+02 -0.50476566467E+03  0.11397599260E+04  0.10016393274E+04 0.  0.
   -9000010    2    1    2    0  503 -0.19736709414E+03  0.45046648675E+02 -0.72901931949E+03  0.12635302632E+04  0.10119568111E+04 0.  0.
        -13    1    3    3    0    0 -0.15212107948E+03 -0.44305285950E+03 -0.11560379610E+03  0.48249446419E+03  0.10566000000E+00 0.  1.
          4    1    3    3  501    0  0.34948817361E+03  0.39800621083E+03 -0.38916186856E+03  0.65726546182E+03  0.00000000000E+00 0.  1.
         13    1    4    4    0    0  0.34389947873E+03 -0.23991180004E+03 -0.32391789962E+03  0.52985596168E+03  0.10566000000E+00 0. -1.
         -4    1    4    4    0  503 -0.54126657287E+03  0.28495844871E+03 -0.40510141986E+03  0.73367430156E+03  0.00000000000E+00 0. -1.
<mgrwt>
<rscale>  2 0.10294694E+04</rscale>
<asrwt>0</asrwt>
<pdfrwt beam="1">  1       21 0.89961938E-01 0.10320075E+04</pdfrwt>
<pdfrwt beam="2">  1       21 0.27977502E+00 0.10320075E+04</pdfrwt>
<totfact> 0.19287058E+01</totfact>
</mgrwt>
</event>
<event>
 8    1  0.7418332E-006  0.1041532E+04  0.7818608E-02  0.8737511E-01
         21   -1    0    0  501  502  0.00000000000E+00  0.00000000000E+00  0.46682613971E+03  0.46682613971E+03  0.00000000000E+00 0.  1.
         21   -1    0    0  502  503 -0.00000000000E+00 -0.00000000000E+00 -0.32307372230E+04  0.32307372230E+04  0.00000000000E+00 0.  1.
    9000010    2    1    2  501    0  0.23459361636E+03  0.16652770713E+03 -0.39496102567E+03  0.11097625061E+04  0.99640000308E+03 0.  0.
   -9000010    2    1    2    0  503 -0.23459361636E+03 -0.16652770713E+03 -0.23689500576E+04  0.25878008565E+04  0.10010111167E+04 0.  0.
        -13    1    3    3    0    0 -0.75838196137E+02  0.46152046618E+03  0.75299860110E+02  0.47373268073E+03  0.10566000000E+00 0.  1.
          4    1    3    3  501    0  0.31043181250E+03 -0.29499275905E+03 -0.47026088578E+03  0.63602982540E+03  0.00000000000E+00 0.  1.
         13    1    4    4    0    0 -0.22148342060E+03  0.40925384448E+03 -0.10874159204E+04  0.11828004946E+04  0.10566000000E+00 0. -1.
         -4    1    4    4    0  503 -0.13110195760E+02 -0.57578155162E+03 -0.12815341371E+04  0.14050003619E+04  0.00000000000E+00 0. -1.
<mgrwt>
<rscale>  2 0.10404225E+04</rscale>
<asrwt>0</asrwt>
<pdfrwt beam="1">  1       21 0.71819406E-01 0.10415320E+04</pdfrwt>
<pdfrwt beam="2">  1       21 0.49703650E+00 0.10415320E+04</pdfrwt>
<totfact> 0.10163697E+00</totfact>
</mgrwt>
</event>
<event>
 8    1  0.7418332E-006  0.1124500E+04  0.7818608E-02  0.8706111E-01
         21   -1    0    0  501  502  0.00000000000E+00  0.00000000000E+00  0.91180790204E+03  0.91180790204E+03  0.00000000000E+00 0.  1.
         21   -1    0    0  502  503 -0.00000000000E+00 -0.00000000000E+00 -0.12734987604E+04  0.12734987604E+04  0.00000000000E+00 0.  1.
    9000010    2    1    2  501    0  0.18827968859E+02  0.46134713680E+03  0.11124771477E+03  0.11299894286E+04  0.10253313521E+04 0.  0.
   -9000010    2    1    2    0  503 -0.18827968859E+02 -0.46134713680E+03 -0.47293857317E+03  0.10553172339E+04  0.82269550691E+03 0.  0.
        -13    1    3    3    0    0  0.41717896170E+03  0.47241194881E+03 -0.15712983428E+03  0.64953916853E+03  0.10566000000E+00 0.  1.
          4    1    3    3  501    0 -0.39835099285E+03 -0.11064812015E+02  0.26837754905E+03  0.48045026007E+03  0.00000000000E+00 0.  1.
         13    1    4    4    0    0  0.74650877429E+02 -0.69009687886E+03 -0.37979006432E+03  0.79123129351E+03  0.10566000000E+00 0. -1.
         -4    1    4    4    0  503 -0.93478846288E+02  0.22874974206E+03 -0.93148508848E+02  0.26408594036E+03  0.00000000000E+00 0. -1.
<mgrwt>
<rscale>  2 0.10762044E+04</rscale>
<asrwt>0</asrwt>
<pdfrwt beam="1">  1       21 0.14027814E+00 0.11244999E+04</pdfrwt>
<pdfrwt beam="2">  1       21 0.19592289E+00 0.11244999E+04</pdfrwt>
<totfact> 0.23414915E+01</totfact>
</mgrwt>
</event>
<event>
 8    1  0.7418332E-006  0.1133009E+04  0.7818608E-02  0.8677665E-01
         21   -1    0    0  503  502  0.00000000000E+00  0.00000000000E+00  0.77676071209E+03  0.77676071209E+03  0.00000000000E+00 0. -1.
         21   -1    0    0  501  503 -0.00000000000E+00 -0.00000000000E+00 -0.16433464220E+04  0.16433464220E+04  0.00000000000E+00 0. -1.
    9000010    2    1    2  501    0 -0.70143296248E+02  0.52246791465E+03 -0.12481174642E+03  0.11398631501E+04  0.10029043948E+04 0.  0.
   -9000010    2    1    2    0  502  0.70143296248E+02 -0.52246791465E+03 -0.74177396345E+03  0.12802439839E+04  0.90050166113E+03 0.  0.
        -13    1    3    3    0    0 -0.36647851082E+03  0.67345721956E+03  0.41852639639E+02  0.76785596311E+03  0.10566000000E+00 0.  1.
          4    1    3    3  501    0  0.29633521458E+03 -0.15098930491E+03 -0.16666438606E+03  0.37200718699E+03  0.00000000000E+00 0.  1.
         13    1    4    4    0    0 -0.16977724657E+03 -0.80048100307E+02  0.16058502500E+03  0.24702140238E+03  0.10566000000E+00 0. -1.
         -4    1    4    4    0  502  0.23992054282E+03 -0.44241981434E+03 -0.90235898845E+03  0.10332225816E+04  0.00000000000E+00 0. -1.
<mgrwt>
<rscale>  2 0.11099244E+04</rscale>
<asrwt>0</asrwt>
<pdfrwt beam="1">  1       21 0.11950165E+00 0.11330093E+04</pdfrwt>
<pdfrwt beam="2">  1       21 0.25282252E+00 0.11330093E+04</pdfrwt>
<totfact> 0.13864753E+01</totfact>
</mgrwt>
</event>
<event>
 8    1  0.7418332E-006  0.1019576E+04  0.7818608E-02  0.8758457E-01
         21   -1    0    0  501  502  0.00000000000E+00  0.00000000000E+00  0.19361494951E+04  0.19361494951E+04  0.00000000000E+00 0. -1.
         21   -1    0    0  502  503 -0.00000000000E+00 -0.00000000000E+00 -0.84722072209E+03  0.84722072209E+03  0.00000000000E+00 0. -1.
    9000010    2    1    2  501    0  0.10459650312E+03 -0.10555718932E+03  0.13915177740E+04  0.17198405589E+04  0.99972350372E+03 0.  0.
   -9000010    2    1    2    0  503 -0.10459650312E+03  0.10555718932E+03 -0.30258900099E+03  0.10635296583E+04  0.10086884960E+04 0.  0.
        -13    1    3    3    0    0  0.53614128478E+03 -0.13153828097E+03  0.96968695209E+03  0.11158147664E+04  0.10566000000E+00 0.  1.
          4    1    3    3  501    0 -0.43154478166E+03  0.25981091647E+02  0.42183082193E+03  0.60402579252E+03  0.00000000000E+00 0.  1.
         13    1    4    4    0    0  0.29356225541E+03  0.41217119662E+03 -0.73862449176E+02  0.51138983730E+03  0.10566000000E+00 0. -1.
         -4    1    4    4    0  503 -0.39815875853E+03 -0.30661400730E+03 -0.22872655181E+03  0.55213982103E+03  0.00000000000E+00 0. -1.
<mgrwt>
<rscale>  2 0.10173516E+04</rscale>
<asrwt>0</asrwt>
<pdfrwt beam="1">  1       21 0.29786915E+00 0.10195760E+04</pdfrwt>
<pdfrwt beam="2">  1       21 0.13034165E+00 0.10195760E+04</pdfrwt>
<totfact> 0.52953261E+00</totfact>
</mgrwt>
</event>
<event>
 8    1  0.7418332E-006  0.1093333E+04  0.7818608E-02  0.8709107E-01
         21   -1    0    0  503  502  0.00000000000E+00  0.00000000000E+00  0.11609824541E+04  0.11609824541E+04  0.00000000000E+00 0. -1.
         21   -1    0    0  501  503 -0.00000000000E+00 -0.00000000000E+00 -0.10022619800E+04  0.10022619800E+04  0.00000000000E+00 0. -1.
    9000010    2    1    2  501    0 -0.18118882537E+01  0.16600334582E+03  0.30982174401E+03  0.10595194371E+04  0.99951564811E+03 0.  0.
   -9000010    2    1    2    0  502  0.18118882537E+01 -0.16600334582E+03 -0.15110126990E+03  0.11037249969E+04  0.10806557645E+04 0.  0.
        -13    1    3    3    0    0  0.10153542518E+03  0.43183076204E+03  0.53582104584E+03  0.69562306886E+03  0.10566000000E+00 0.  1.
          4    1    3    3  501    0 -0.10334731344E+03 -0.26582741622E+03 -0.22599930183E+03  0.36389636826E+03  0.00000000000E+00 0.  1.
         13    1    4    4    0    0  0.40222389533E+03  0.20422127809E+03 -0.29590083821E+03  0.53948837765E+03  0.10566000000E+00 0. -1.
         -4    1    4    4    0  502 -0.40041200707E+03 -0.37022462391E+03  0.14479956832E+03  0.56423661929E+03  0.00000000000E+00 0. -1.
<mgrwt>
<rscale>  2 0.10727267E+04</rscale>
<asrwt>0</asrwt>
<pdfrwt beam="1">  1       21 0.17861268E+00 0.10933331E+04</pdfrwt>
<pdfrwt beam="2">  1       21 0.15419415E+00 0.10933331E+04</pdfrwt>
<totfact> 0.24315407E+01</totfact>
</mgrwt>
</event>
<event>
 8    1  0.7418332E-006  0.1030990E+04  0.7818608E-02  0.8750604E-01
         21   -1    0    0  503  502  0.00000000000E+00  0.00000000000E+00  0.14795524719E+04  0.14795524719E+04  0.00000000000E+00 0.  1.
         21   -1    0    0  501  503 -0.00000000000E+00 -0.00000000000E+00 -0.72253512303E+03  0.72253512303E+03  0.00000000000E+00 0.  1.
    9000010    2    1    2  501    0 -0.25173540877E+02  0.17931747376E+03  0.20811737744E+03  0.10517860275E+04  0.10149643054E+04 0.  0.
   -9000010    2    1    2    0  502  0.25173540877E+02 -0.17931747376E+03  0.54889997148E+03  0.11503015675E+04  0.99454213284E+03 0.  0.
        -13    1    3    3    0    0 -0.43052848317E+03  0.31632385880E+03 -0.73891576363E+02  0.53932878163E+03  0.10566000000E+00 0.  1.
          4    1    3    3  501    0  0.40535494229E+03 -0.13700638504E+03  0.28200895380E+03  0.51245724583E+03  0.00000000000E+00 0.  1.
         13    1    4    4    0    0  0.41701723603E+03 -0.32456784562E+03  0.10151989675E+03  0.53810218561E+03  0.10566000000E+00 0. -1.
         -4    1    4    4    0  502 -0.39184369515E+03  0.14525037186E+03  0.44738007472E+03  0.61219938191E+03  0.00000000000E+00 0. -1.
<mgrwt>
<rscale>  2 0.10259286E+04</rscale>
<asrwt>0</asrwt>
<pdfrwt beam="1">  1       21 0.22762346E+00 0.10309903E+04</pdfrwt>
<pdfrwt beam="2">  1       21 0.11115925E+00 0.10309903E+04</pdfrwt>
<totfact> 0.26512913E+01</totfact>
</mgrwt>
</event>
<event>
 8    1  0.7418332E-006  0.1054875E+04  0.7818608E-02  0.8725257E-01
         21   -1    0    0  503  502  0.00000000000E+00  0.00000000000E+00  0.60260141447E+03  0.60260141447E+03  0.00000000000E+00 0. -1.
         21   -1    0    0  501  503 -0.00000000000E+00 -0.00000000000E+00 -0.24609665562E+04  0.24609665562E+04  0.00000000000E+00 0. -1.
    9000010    2    1    2  501    0  0.28471244851E+03  0.14296587972E+03 -0.16965387359E+04  0.19963526902E+04  0.10028359586E+04 0.  0.
   -9000010    2    1    2    0  502 -0.28471244851E+03 -0.14296587972E+03 -0.16182640580E+03  0.10672152805E+04  0.10056143636E+04 0.  0.
        -13    1    3    3    0    0  0.47783379099E+03  0.37255607857E+03 -0.15464065139E+04  0.16608721446E+04  0.10566000000E+00 0.  1.
          4    1    3    3  501    0 -0.19312134248E+03 -0.22959019886E+03 -0.15013222204E+03  0.33548054553E+03  0.00000000000E+00 0.  1.
         13    1    4    4    0    0 -0.16078100769E+03 -0.57927623086E+03 -0.83950368260E+02  0.60700836861E+03  0.10566000000E+00 0. -1.
         -4    1    4    4    0  502 -0.12393144082E+03  0.43631035114E+03 -0.77876037542E+02  0.46020691190E+03  0.00000000000E+00 0. -1.
<mgrwt>
<rscale>  2 0.10542120E+04</rscale>
<asrwt>0</asrwt>
<pdfrwt beam="1">  1       21 0.92707908E-01 0.10548747E+04</pdfrwt>
<pdfrwt beam="2">  1       21 0.37861025E+00 0.10548747E+04</pdfrwt>
<totfact> 0.35807656E+00</totfact>
</mgrwt>
</event>
<event>
 8    1  0.7418332E-006  0.1177235E+04  0.7818608E-02  0.8662414E-01
         21   -1    0    0  503  502  0.00000000000E+00  0.00000000000E+00  0.80859436192E+03  0.80859436192E+03  0.00000000000E+00 0.  1.
         21   -1    0    0  501  503 -0.00000000000E+00 -0.00000000000E+00 -0.14920161078E+04  0.14920161078E+04  0.00000000000E+00 0.  1.
    9000010    2    1    2  501    0 -0.16486037782E+03 -0.60944117329E+01 -0.48716505784E+03  0.11071286217E+04  0.98040191009E+03 0.  0.
   -9000010    2    1    2    0  502  0.16486037782E+03  0.60944117329E+01 -0.19625668802E+03  0.11934818480E+04  0.11656183543E+04 0.  0.
        -13    1    3    3    0    0 -0.20503410770E+03  0.20102981231E+03  0.22472752136E+03  0.36462918256E+03  0.10566000000E+00 0.  1.
          4    1    3    3  501    0  0.40173729882E+02 -0.20712422405E+03 -0.71189257920E+03  0.74249943911E+03  0.00000000000E+00 0.  1.
         13    1    4    4    0    0  0.54876153862E+03 -0.30553172149E+03  0.69862186211E+02  0.63195695687E+03  0.10566000000E+00 0. -1.
         -4    1    4    4    0  502 -0.38390116081E+03  0.31162613322E+03 -0.26611887423E+03  0.56152489117E+03  0.00000000000E+00 0. -1.
<mgrwt>
<rscale>  2 0.11285328E+04</rscale>
<asrwt>0</asrwt>
<pdfrwt beam="1">  1       21 0.12439913E+00 0.11772350E+04</pdfrwt>
<pdfrwt beam="2">  1       21 0.22954094E+00 0.11772350E+04</pdfrwt>
<totfact> 0.18193297E+01</totfact>
</mgrwt>
</event>
<event>
 8    1  0.7418332E-006  0.1050573E+04  0.7818608E-02  0.8787531E-01
         21   -1    0    0  501  502  0.00000000000E+00  0.00000000000E+00  0.24477657243E+04  0.24477657243E+04  0.00000000000E+00 0.  1.
         21   -1    0    0  502  503 -0.00000000000E+00 -0.00000000000E+00 -0.41338945143E+03  0.41338945143E+03  0.00000000000E+00 0.  1.
    9000010    2    1    2  501    0  0.32545237927E+03 -0.11334108869E+03  0.16567677265E+04  0.19617807535E+04  0.99244091599E+03 0.  0.
   -9000010    2    1    2    0  503 -0.32545237927E+03  0.11334108869E+03  0.37760854638E+03  0.89937442223E+03  0.73994640583E+03 0.  0.
        -13    1    3    3    0    0  0.59285359504E+03 -0.19688778411E+03  0.59152317682E+03  0.86031381749E+03  0.10566000000E+00 0.  1.
          4    1    3    3  501    0 -0.26740121578E+03  0.83546695419E+02  0.10652445497E+04  0.11014669360E+04  0.00000000000E+00 0.  1.
         13    1    4    4    0    0 -0.25318174843E+03  0.29891331247E+03 -0.80444639889E+02  0.39990188467E+03  0.10566000000E+00 0. -1.
         -4    1    4    4    0  503 -0.72270630837E+02 -0.18557222378E+03  0.45805318627E+03  0.49947253755E+03  0.00000000000E+00 0. -1.
<mgrwt>
<rscale>  2 0.98634169E+03</rscale>
<asrwt>0</asrwt>
<pdfrwt beam="1">  1       21 0.37657933E+00 0.10505734E+04</pdfrwt>
<pdfrwt beam="2">  1       21 0.63598379E-01 0.10505734E+04</pdfrwt>
<totfact> 0.92771565E+00</totfact>
</mgrwt>
</event>
<event>
 8    1  0.7418332E-006  0.1107488E+04  0.7818608E-02  0.8688560E-01
         21   -1    0    0  503  502  0.00000000000E+00  0.00000000000E+00  0.17217918384E+04  0.17217918384E+04  0.00000000000E+00 0. -1.
         21   -1    0    0  501  503 -0.00000000000E+00 -0.00000000000E+00 -0.69076426992E+03  0.69076426992E+03  0.00000000000E+00 0. -1.
    9000010    2    1    2  501    0 -0.10224247404E+03  0.34855746663E+03  0.62907567561E+03  0.12736817158E+04  0.10462232440E+04 0.  0.
   -9000010    2    1    2    0  502  0.10224247404E+03 -0.34855746663E+03  0.40195189283E+03  0.11388743925E+04  0.10017603140E+04 0.  0.
        -13    1    3    3    0    0 -0.12174217096E+02 -0.37293236248E+03  0.28368259195E+03  0.46872442083E+03  0.10566000000E+00 0.  1.
          4    1    3    3  501    0 -0.90068256945E+02  0.72148982911E+03  0.34539308367E+03  0.80495729493E+03  0.00000000000E+00 0.  1.
         13    1    4    4    0    0 -0.41913700707E+03  0.81953241895E+01  0.69337432201E+02  0.42491256125E+03  0.10566000000E+00 0. -1.
         -4    1    4    4    0  502  0.52137948111E+03 -0.35675279082E+03  0.33261446062E+03  0.71396183126E+03  0.00000000000E+00 0. -1.
<mgrwt>
<rscale>  2 0.10968598E+04</rscale>
<asrwt>0</asrwt>
<pdfrwt beam="1">  1       21 0.26489105E+00 0.11074877E+04</pdfrwt>
<pdfrwt beam="2">  1       21 0.10627143E+00 0.11074877E+04</pdfrwt>
<totfact> 0.15721299E+01</totfact>
</mgrwt>
</event>
<event>
 8    1  0.7418332E-006  0.1053729E+04  0.7818608E-02  0.8745936E-01
         21   -1    0    0  503  502  0.00000000000E+00  0.00000000000E+00  0.12882405137E+04  0.12882405137E+04  0.00000000000E+00 0.  1.
         21   -1    0    0  501  503 -0.00000000000E+00 -0.00000000000E+00 -0.88021502846E+03  0.88021502846E+03  0.00000000000E+00 0.  1.
    9000010    2    1    2  501    0 -0.25587823214E+03 -0.51929926448E+02  0.53973384377E+03  0.11065268742E+04  0.93001006137E+03 0.  0.
   -9000010    2    1    2    0  502  0.25587823214E+03  0.51929926448E+02 -0.13170835856E+03  0.10619286679E+04  0.10208697356E+04 0.  0.
        -13    1    3    3    0    0 -0.43844196982E+03 -0.34773217125E+03  0.14009538547E+03  0.57686718750E+03  0.10566000000E+00 0.  1.
          4    1    3    3  501    0  0.18256373768E+03  0.29580224480E+03  0.39963845830E+03  0.52965968668E+03  0.00000000000E+00 0.  1.
         13    1    4    4    0    0  0.45684074005E+03  0.24935923311E+03 -0.41255009215E+03  0.66413935179E+03  0.10566000000E+00 0. -1.
         -4    1    4    4    0  502 -0.20096250791E+03 -0.19742930666E+03  0.28084173358E+03  0.39778931614E+03  0.00000000000E+00 0. -1.
<mgrwt>
<rscale>  2 0.10310677E+04</rscale>
<asrwt>0</asrwt>
<pdfrwt beam="1">  1       21 0.19819085E+00 0.10537293E+04</pdfrwt>
<pdfrwt beam="2">  1       21 0.13541770E+00 0.10537293E+04</pdfrwt>
<totfact> 0.25332401E+01</totfact>
</mgrwt>
</event>
<event>
 8    1  0.7418332E-006  0.1008937E+04  0.7818608E-02  0.8767882E-01
         21   -1    0    0  503  502  0.00000000000E+00  0.00000000000E+00  0.14412089349E+04  0.14412089349E+04  0.00000000000E+00 0.  1.
         21   -1    0    0  501  503 -0.00000000000E+00 -0.00000000000E+00 -0.94234107967E+03  0.94234107967E+03  0.00000000000E+00 0.  1.
    9000010    2    1    2  501    0  0.96366942975E+02 -0.16971004018E+02 -0.35383977627E+03  0.10625412933E+04  0.99710421222E+03 0.  0.
   -9000010    2    1    2    0  502 -0.96366942975E+02  0.16971004018E+02  0.85270763154E+03  0.13210087213E+04  0.10041808274E+04 0.  0.
        -13    1    3    3    0    0 -0.38862290466E+03  0.10318846071E+03 -0.39184725463E+03  0.56144447862E+03  0.10566000000E+00 0.  1.
          4    1    3    3  501    0  0.48498984763E+03 -0.12015946472E+03  0.38007478361E+02  0.50109681468E+03  0.00000000000E+00 0.  1.
         13    1    4    4    0    0  0.30389112791E+03 -0.14422753651E+03  0.82229741633E+03  0.88843933500E+03  0.10566000000E+00 0. -1.
         -4    1    4    4    0  502 -0.40025807088E+03  0.16119854052E+03  0.30410215207E+02  0.43256938630E+03  0.00000000000E+00 0. -1.
<mgrwt>
<rscale>  2 0.10071716E+04</rscale>
<asrwt>0</asrwt>
<pdfrwt beam="1">  1       21 0.22172445E+00 0.10089369E+04</pdfrwt>
<pdfrwt beam="2">  1       21 0.14497555E+00 0.10089369E+04</pdfrwt>
<totfact> 0.13787420E+01</totfact>
</mgrwt>
</event>
<event>
 8    1  0.7418332E-006  0.1050101E+04  0.7818608E-02  0.8729546E-01
         21   -1    0    0  503  502  0.00000000000E+00  0.00000000000E+00  0.68262226692E+03  0.68262226692E+03  0.00000000000E+00 0.  1.
         21   -1    0    0  501  503 -0.00000000000E+00 -0.00000000000E+00 -0.18977084815E+04  0.18977084815E+04  0.00000000000E+00 0.  1.
    9000010    2    1    2  501    0 -0.17223270484E+03  0.28465836571E+03 -0.11098704047E+04  0.15279148956E+04  0.99600056391E+03 0.  0.
   -9000010    2    1    2    0  502  0.17223270484E+03 -0.28465836571E+03 -0.10521580993E+03  0.10524158528E+04  0.99288180102E+03 0.  0.
        -13    1    3    3    0    0 -0.36579286986E+03 -0.22162572785E+03 -0.79054087885E+03  0.89881993702E+03  0.10566000000E+00 0.  1.
          4    1    3    3  501    0  0.19356016502E+03  0.50628409356E+03 -0.31932952581E+03  0.62909495859E+03  0.00000000000E+00 0.  1.
         13    1    4    4    0    0  0.35248643419E+03  0.10525542302E+03  0.29021227610E+03  0.46856009938E+03  0.10566000000E+00 0. -1.
         -4    1    4    4    0  502 -0.18025372935E+03 -0.38991378874E+03 -0.39542808603E+03  0.58385575343E+03  0.00000000000E+00 0. -1.
<mgrwt>
<rscale>  2 0.10493606E+04</rscale>
<asrwt>0</asrwt>
<pdfrwt beam="1">  1       21 0.10501881E+00 0.10501008E+04</pdfrwt>
<pdfrwt beam="2">  1       21 0.29195515E+00 0.10501008E+04</pdfrwt>
<totfact> 0.10537042E+01</totfact>
</mgrwt>
</event>
<event>
 8    1  0.7418332E-006  0.9998950E+03  0.7818608E-02  0.8777699E-01
         21   -1    0    0  503  502  0.00000000000E+00  0.00000000000E+00  0.58408708777E+03  0.58408708777E+03  0.00000000000E+00 0. -1.
         21   -1    0    0  501  503 -0.00000000000E+00 -0.00000000000E+00 -0.17924895145E+04  0.17924895145E+04  0.00000000000E+00 0. -1.
    9000010    2    1    2  501    0 -0.67393150583E+01  0.77136979708E+02 -0.88468342361E+03  0.13255847099E+04  0.98413135868E+03 0.  0.
   -9000010    2    1    2    0  502  0.67393150583E+01 -0.77136979708E+02 -0.32371900312E+03  0.10509918923E+04  0.99689238777E+03 0.  0.
        -13    1    3    3    0    0  0.18856601924E+03 -0.41493418049E+03 -0.45133867443E+03  0.64143131195E+03  0.10566000000E+00 0.  1.
          4    1    3    3  501    0 -0.19530533430E+03  0.49207116020E+03 -0.43334474918E+03  0.68415339796E+03  0.00000000000E+00 0.  1.
         13    1    4    4    0    0  0.79555617247E+02  0.40144930372E+03  0.84341385853E+02  0.41785657853E+03  0.10566000000E+00 0. -1.
         -4    1    4    4    0  502 -0.72816302188E+02 -0.47858628343E+03 -0.40806038897E+03  0.63313531381E+03  0.00000000000E+00 0. -1.
<mgrwt>
<rscale>  2 0.99669913E+03</rscale>
<asrwt>0</asrwt>
<pdfrwt beam="1">  1       21 0.89859552E-01 0.99989498E+03</pdfrwt>
<pdfrwt beam="2">  1       21 0.27576762E+00 0.99989498E+03</pdfrwt>
<totfact> 0.20810447E+01</totfact>
</mgrwt>
</event>
<event>
 8    1  0.7418332E-006  0.1015291E+04  0.7818608E-02  0.8767050E-01
         21   -1    0    0  503  502  0.00000000000E+00  0.00000000000E+00  0.74591590130E+03  0.74591590130E+03  0.00000000000E+00 0.  1.
         21   -1    0    0  501  503 -0.00000000000E+00 -0.00000000000E+00 -0.18144669646E+04  0.18144669646E+04  0.00000000000E+00 0.  1.
    9000010    2    1    2  501    0  0.64451958613E+02  0.12239726650E+03 -0.11922352643E+04  0.15659631754E+04  0.10058233421E+04 0.  0.
   -9000010    2    1    2    0  502 -0.64451958613E+02 -0.12239726650E+03  0.12368420103E+03  0.99441969047E+03  0.97695321965E+03 0.  0.
        -13    1    3    3    0    0 -0.24672695858E+03  0.15586735837E+03  0.40034066345E+02  0.29457013278E+03  0.10566000000E+00 0.  1.
          4    1    3    3  501    0  0.31117891719E+03 -0.33470091868E+02 -0.12322693306E+04  0.12713930426E+04  0.00000000000E+00 0.  1.
         13    1    4    4    0    0 -0.87189622656E+02 -0.35544252897E+03 -0.32426265506E+03  0.48896595212E+03  0.10566000000E+00 0. -1.
         -4    1    4    4    0  502  0.22737664043E+02  0.23304526247E+03  0.44794685609E+03  0.50545373835E+03  0.00000000000E+00 0. -1.
<mgrwt>
<rscale>  2 0.10080659E+04</rscale>
<asrwt>0</asrwt>
<pdfrwt beam="1">  1       21 0.11475629E+00 0.10152910E+04</pdfrwt>
<pdfrwt beam="2">  1       21 0.27914876E+00 0.10152910E+04</pdfrwt>
<totfact> 0.10303228E+01</totfact>
</mgrwt>
</event>
<event>
 8    1  0.7418332E-006  0.1000568E+04  0.7818608E-02  0.8775800E-01
         21   -1    0    0  503  502  0.00000000000E+00  0.00000000000E+00  0.11841772797E+04  0.11841772797E+04  0.00000000000E+00 0.  1.
         21   -1    0    0  501  503 -0.00000000000E+00 -0.00000000000E+00 -0.10057825795E+04  0.10057825795E+04  0.00000000000E+00 0.  1.
    9000010    2    1    2  501    0  0.14706961552E+02 -0.16413353692E+02 -0.35615830158E+03  0.10620667660E+04  0.10003256404E+04 0.  0.
   -9000010    2    1    2    0  502 -0.14706961552E+02  0.16413353692E+02  0.53455300179E+03  0.11278930932E+04  0.99293012088E+03 0.  0.
        -13    1    3    3    0    0  0.10889008083E+03 -0.27551804170E+03 -0.61580126400E+03  0.68335821420E+03  0.10566000000E+00 0.  1.
          4    1    3    3  501    0 -0.94183119282E+02  0.25910468801E+03  0.25964296242E+03  0.37870855184E+03  0.00000000000E+00 0.  1.
         13    1    4    4    0    0 -0.37615331245E+03  0.26556472868E+03  0.51159909354E+03  0.68829469217E+03  0.10566000000E+00 0. -1.
         -4    1    4    4    0  502  0.36144635090E+03 -0.24915137499E+03  0.22953908252E+02  0.43959840098E+03  0.00000000000E+00 0. -1.
<mgrwt>
<rscale>  2 0.99871481E+03</rscale>
<asrwt>0</asrwt>
<pdfrwt beam="1">  1       21 0.18218112E+00 0.10005684E+04</pdfrwt>
<pdfrwt beam="2">  1       21 0.15473578E+00 0.10005684E+04</pdfrwt>
<totfact> 0.22967597E+01</totfact>
</mgrwt>
</event>
<event>
 8    1  0.7418332E-006  0.1021596E+04  0.7818608E-02  0.8755062E-01
         21   -1    0    0  503  502  0.00000000000E+00  0.00000000000E+00  0.52972483220E+03  0.52972483220E+03  0.00000000000E+00 0.  1.
         21   -1    0    0  501  503 -0.00000000000E+00 -0.00000000000E+00 -0.27228830676E+04  0.27228830676E+04  0.00000000000E+00 0.  1.
    9000010    2    1    2  501    0 -0.10212880192E+02 -0.19263773993E+03 -0.19531802962E+04  0.22032046590E+04  0.10009914576E+04 0.  0.
   -9000010    2    1    2    0  502  0.10212880192E+02  0.19263773993E+03 -0.23997793922E+03  0.10494032408E+04  0.10032169001E+04 0.  0.
        -13    1    3    3    0    0 -0.12233720754E+03  0.36436373206E+03 -0.11980556414E+04  0.12581989718E+04  0.10566000000E+00 0.  1.
          4    1    3    3  501    0  0.11212432735E+03 -0.55700147199E+03 -0.75512465481E+03  0.94500568722E+03  0.00000000000E+00 0.  1.
         13    1    4    4    0    0  0.51028294054E+02  0.40761741594E+03 -0.53972889996E+03  0.67827954502E+03  0.10566000000E+00 0. -1.
         -4    1    4    4    0  502 -0.40815413862E+02 -0.21497967601E+03  0.29975096074E+03  0.37112369578E+03  0.00000000000E+00 0. -1.
<mgrwt>
<rscale>  2 0.10210489E+04</rscale>
<asrwt>0</asrwt>
<pdfrwt beam="1">  1       21 0.81496126E-01 0.10215957E+04</pdfrwt>
<pdfrwt beam="2">  1       21 0.41890510E+00 0.10215957E+04</pdfrwt>
<totfact> 0.26232262E+00</totfact>
</mgrwt>
</event>
<event>
 8    1  0.8598863E-006  0.1056130E+04  0.7818608E-02  0.8776375E-01
         21   -1    0    0  503  502  0.00000000000E+00  0.00000000000E+00  0.61196750483E+03  0.61196750483E+03  0.00000000000E+00 0.  1.
         21   -1    0    0  501  503 -0.00000000000E+00 -0.00000000000E+00 -0.15592370824E+04  0.15592370824E+04  0.00000000000E+00 0.  1.
    9000010    2    1    2  501    0  0.27785924755E+03  0.49826127957E+02 -0.26956983905E+03  0.10899896693E+04  0.10177038747E+04 0.  0.
   -9000010    2    1    2    0  502 -0.27785924755E+03 -0.49826127957E+02 -0.67769973848E+03  0.10812149179E+04  0.79376341474E+03 0.  0.
        -13    1    3    3    0    0 -0.16435581203E+03  0.31858841205E+03  0.18302954803E+03  0.40250619356E+03  0.10566000000E+00 0.  1.
          4    1    3    3  501    0  0.44221505958E+03 -0.26876228409E+03 -0.45259938708E+03  0.68748347577E+03  0.00000000000E+00 0.  1.
         13    1    4    4    0    0 -0.76786286164E+02 -0.39453846169E+03 -0.50744033087E+03  0.64734259250E+03  0.10566000000E+00 0. -1.
         -4    1    4    4    0  502 -0.20107296139E+03  0.34471233374E+03 -0.17025940761E+03  0.43387232536E+03  0.00000000000E+00 0. -1.
<mgrwt>
<rscale>  2 0.99810440E+03</rscale>
<asrwt>0</asrwt>
<pdfrwt beam="1">  1       21 0.94148846E-01 0.10561295E+04</pdfrwt>
<pdfrwt beam="2">  1       21 0.23988263E+00 0.10561295E+04</pdfrwt>
<totfact> 0.33154972E+01</totfact>
</mgrwt>
</event>
<event>
 8    1  0.7418332E-006  0.9847082E+03  0.7818608E-02  0.8791483E-01
         21   -1    0    0  501  502  0.00000000000E+00  0.00000000000E+00  0.17145775632E+04  0.17145775632E+04  0.00000000000E+00 0.  1.
         21   -1    0    0  502  503 -0.00000000000E+00 -0.00000000000E+00 -0.55987334553E+03  0.55987334553E+03  0.00000000000E+00 0.  1.
    9000010    2    1    2  501    0  0.28989537594E+02 -0.31287184672E+02  0.56600607407E+03  0.11271864338E+04  0.97384141395E+03 0.  0.
   -9000010    2    1    2    0  503 -0.28989537594E+02  0.31287184672E+02  0.58869814358E+03  0.11472644749E+04  0.98378401585E+03 0.  0.
        -13    1    3    3    0    0 -0.15316917207E+03  0.39009018642E+03  0.51698600648E+03  0.66551160086E+03  0.10566000000E+00 0.  1.
          4    1    3    3  501    0  0.18215870966E+03 -0.42137737109E+03  0.49020067589E+02  0.46167483298E+03  0.00000000000E+00 0.  1.
         13    1    4    4    0    0 -0.50411632262E+03  0.65150791475E+02  0.31061072342E+03  0.59569868644E+03  0.10566000000E+00 0. -1.
         -4    1    4    4    0  503  0.47512678503E+03 -0.33863606803E+02  0.27808742016E+03  0.55156578843E+03  0.00000000000E+00 0. -1.
<mgrwt>
<rscale>  2 0.98221547E+03</rscale>
<asrwt>0</asrwt>
<pdfrwt beam="1">  1       21 0.26378116E+00 0.98470822E+03</pdfrwt>
<pdfrwt beam="2">  1       21 0.86134361E-01 0.98470822E+03</pdfrwt>
<totfact> 0.28359930E+01</totfact>
</mgrwt>
</event>
<event>
 8    1  0.7418332E-006  0.1082945E+04  0.7818608E-02  0.8705558E-01
         21   -1    0    0  503  502  0.00000000000E+00  0.00000000000E+00  0.27068840829E+04  0.27068840829E+04  0.00000000000E+00 0. -1.
         21   -1    0    0  501  503 -0.00000000000E+00 -0.00000000000E+00 -0.61548163650E+03  0.61548163650E+03  0.00000000000E+00 0. -1.
    9000010    2    1    2  501    0 -0.20237302871E+03  0.30932292039E+03  0.11017553601E+03  0.10644842061E+04  0.99214538478E+03 0.  0.
   -9000010    2    1    2    0  502  0.20237302871E+03 -0.30932292039E+03  0.19812269104E+04  0.22578815133E+04  0.10179063541E+04 0.  0.
        -13    1    3    3    0    0 -0.57739496821E+03  0.33812253855E+03 -0.11362437891E+02  0.66920917249E+03  0.10566000000E+00 0.  1.
          4    1    3    3  501    0  0.37502193951E+03 -0.28799618156E+02  0.12153797390E+03  0.39527503364E+03  0.00000000000E+00 0.  1.
         13    1    4    4    0    0 -0.25750045154E+03 -0.10001687160E+03  0.16032720340E+04  0.16268961502E+04  0.10566000000E+00 0. -1.
         -4    1    4    4    0  502  0.45987348025E+03 -0.20930604879E+03  0.37795487637E+03  0.63098536312E+03  0.00000000000E+00 0. -1.
<mgrwt>
<rscale>  2 0.10768489E+04</rscale>
<asrwt>0</asrwt>
<pdfrwt beam="1">  1       21 0.41644370E+00 0.10829445E+04</pdfrwt>
<pdfrwt beam="2">  1       21 0.94689484E-01 0.10829445E+04</pdfrwt>
<totfact> 0.18391178E+00</totfact>
</mgrwt>
</event>
<event>
 8    1  0.7418332E-006  0.1039285E+04  0.7818608E-02  0.8741298E-01
         21   -1    0    0  501  502  0.00000000000E+00  0.00000000000E+00  0.16914699171E+04  0.16914699171E+04  0.00000000000E+00 0.  1.
         21   -1    0    0  502  503 -0.00000000000E+00 -0.00000000000E+00 -0.71952502726E+03  0.71952502726E+03  0.00000000000E+00 0.  1.
    9000010    2    1    2  501    0 -0.18623447215E+03 -0.13468367566E+03  0.60731164830E+02  0.10288142798E+04  0.10009733147E+04 0.  0.
   -9000010    2    1    2    0  503  0.18623447215E+03  0.13468367566E+03  0.91121372506E+03  0.13821806646E+04  0.10135531391E+04 0.  0.
        -13    1    3    3    0    0  0.68476600656E+02 -0.29782274537E+03 -0.38413088147E+03  0.49086044632E+03  0.10566000000E+00 0.  1.
          4    1    3    3  501    0 -0.25471107281E+03  0.16313906971E+03  0.44486204630E+03  0.53795383344E+03  0.00000000000E+00 0.  1.
         13    1    4    4    0    0  0.27151580521E+03  0.52580542003E+03  0.33334059971E+03  0.67919668639E+03  0.10566000000E+00 0. -1.
         -4    1    4    4    0  503 -0.85281333056E+02 -0.39112174438E+03  0.57787312534E+03  0.70298397826E+03  0.00000000000E+00 0. -1.
<mgrwt>
<rscale>  2 0.10362050E+04</rscale>
<asrwt>0</asrwt>
<pdfrwt beam="1">  1       21 0.26022614E+00 0.10392848E+04</pdfrwt>
<pdfrwt beam="2">  1       21 0.11069616E+00 0.10392848E+04</pdfrwt>
<totfact> 0.15447988E+01</totfact>
</mgrwt>
</event>
<event>
 8    1  0.7418332E-006  0.1013017E+04  0.7818608E-02  0.8799227E-01
         21   -1    0    0  503  502  0.00000000000E+00  0.00000000000E+00  0.15133838242E+04  0.15133838242E+04  0.00000000000E+00 0. -1.
         21   -1    0    0  501  503 -0.00000000000E+00 -0.00000000000E+00 -0.62158097861E+03  0.62158097861E+03  0.00000000000E+00 0. -1.
    9000010    2    1    2  501    0 -0.95062344923E+02 -0.12083484109E+03  0.14979422656E+03  0.87926561713E+03  0.85266160165E+03 0.  0.
   -9000010    2    1    2    0  502  0.95062344923E+02  0.12083484109E+03  0.74200861905E+03  0.12556991857E+04  0.10012820512E+04 0.  0.
        -13    1    3    3    0    0  0.11796023818E+03  0.32292038389E+02  0.45827449675E+03  0.47431310236E+03  0.10566000000E+00 0.  1.
          4    1    3    3  501    0 -0.21302258310E+03 -0.15312687947E+03 -0.30848027019E+03  0.40495251478E+03  0.00000000000E+00 0.  1.
         13    1    4    4    0    0  0.26331733491E+03 -0.21288469593E+03  0.80809103757E+03  0.87616610799E+03  0.10566000000E+00 0. -1.
         -4    1    4    4    0  502 -0.16825498999E+03  0.33371953702E+03 -0.66082418515E+02  0.37953307772E+03  0.00000000000E+00 0. -1.
<mgrwt>
<rscale>  2 0.97419006E+03</rscale>
<asrwt>0</asrwt>
<pdfrwt beam="1">  1       21 0.23282828E+00 0.10130171E+04</pdfrwt>
<pdfrwt beam="2">  1       21 0.95627843E-01 0.10130171E+04</pdfrwt>
<totfact> 0.36252585E+01</totfact>
</mgrwt>
</event>
<event>
 8    1  0.7418332E-006  0.1026921E+04  0.7818608E-02  0.8754859E-01
         21   -1    0    0  501  502  0.00000000000E+00  0.00000000000E+00  0.15388570998E+04  0.15388570998E+04  0.00000000000E+00 0.  1.
         21   -1    0    0  502  503 -0.00000000000E+00 -0.00000000000E+00 -0.70853676178E+03  0.70853676178E+03  0.00000000000E+00 0.  1.
    9000010    2    1    2  501    0  0.11050387719E+03  0.61997335908E+02  0.67145533791E+03  0.12082569828E+04  0.99648275913E+03 0.  0.
   -9000010    2    1    2    0  503 -0.11050387719E+03 -0.61997335908E+02  0.15886500009E+03  0.10391368787E+04  0.10190743780E+04 0.  0.
        -13    1    3    3    0    0  0.42294371402E+03 -0.67139176064E+02 -0.30301859058E+02  0.42931022352E+03  0.10566000000E+00 0.  1.
          4    1    3    3  501    0 -0.31243983683E+03  0.12913651197E+03  0.70175719697E+03  0.77894675932E+03  0.00000000000E+00 0.  1.
         13    1    4    4    0    0  0.89847505838E+02  0.82728201810E+02  0.55715961956E+03  0.57038879943E+03  0.10566000000E+00 0. -1.
         -4    1    4    4    0  503 -0.20035138303E+03 -0.14472553772E+03 -0.39829461947E+03  0.46874807930E+03  0.00000000000E+00 0. -1.
<mgrwt>
<rscale>  2 0.10212711E+04</rscale>
<asrwt>0</asrwt>
<pdfrwt beam="1">  1       21 0.23674725E+00 0.10269213E+04</pdfrwt>
<pdfrwt beam="2">  1       21 0.10900566E+00 0.10269213E+04</pdfrwt>
<totfact> 0.23946452E+01</totfact>
</mgrwt>
</event>
<event>
 8    1  0.7418332E-006  0.1027833E+04  0.7818608E-02  0.8749607E-01
         21   -1    0    0  501  502  0.00000000000E+00  0.00000000000E+00  0.10933155262E+04  0.10933155262E+04  0.00000000000E+00 0.  1.
         21   -1    0    0  502  503 -0.00000000000E+00 -0.00000000000E+00 -0.10097816711E+04  0.10097816711E+04  0.00000000000E+00 0.  1.
    9000010    2    1    2  501    0  0.13934513950E+03 -0.18052825671E+03  0.26759232542E+03  0.10620949859E+04  0.10022138430E+04 0.  0.
   -9000010    2    1    2    0  503 -0.13934513950E+03  0.18052825671E+03 -0.18405847034E+03  0.10410022113E+04  0.99889967671E+03 0.  0.
        -13    1    3    3    0    0  0.13100234155E+03  0.38354765999E+03  0.28861936429E+03  0.49756564349E+03  0.10566000000E+00 0.  1.
          4    1    3    3  501    0  0.83427979437E+01 -0.56407591670E+03 -0.21027038878E+02  0.56452934241E+03  0.00000000000E+00 0.  1.
         13    1    4    4    0    0 -0.17689092803E+02 -0.40719658615E+03  0.17282888263E+02  0.40794689993E+03  0.10566000000E+00 0. -1.
         -4    1    4    4    0  503 -0.12165604669E+03  0.58772484286E+03 -0.20134135860E+03  0.63305531140E+03  0.00000000000E+00 0. -1.
<mgrwt>
<rscale>  2 0.10270239E+04</rscale>
<asrwt>0</asrwt>
<pdfrwt beam="1">  1       21 0.16820239E+00 0.10278327E+04</pdfrwt>
<pdfrwt beam="2">  1       21 0.15535103E+00 0.10278327E+04</pdfrwt>
<totfact> 0.29409374E+01</totfact>
</mgrwt>
</event>
<event>
 8    1  0.7418332E-006  0.1198462E+04  0.7818608E-02  0.8611857E-01
         21   -1    0    0  503  502  0.00000000000E+00  0.00000000000E+00  0.21221319494E+04  0.21221319494E+04  0.00000000000E+00 0. -1.
         21   -1    0    0  501  503 -0.00000000000E+00 -0.00000000000E+00 -0.21245449426E+04  0.21245449426E+04  0.00000000000E+00 0. -1.
    9000010    2    1    2  501    0 -0.51705546741E+03  0.32458825556E+03 -0.17613483931E+04  0.21304126862E+04  0.10313128331E+04 0.  0.
   -9000010    2    1    2    0  502  0.51705546741E+03 -0.32458825556E+03  0.17589353999E+04  0.21162642058E+04  0.10059903358E+04 0.  0.
        -13    1    3    3    0    0 -0.84698937022E+02 -0.36313906175E+03 -0.41445055702E+03  0.55750620039E+03  0.10566000000E+00 0.  1.
          4    1    3    3  501    0 -0.43235653038E+03  0.68772731731E+03 -0.13468978361E+04  0.15729064859E+04  0.00000000000E+00 0.  1.
         13    1    4    4    0    0  0.20648445196E+03  0.17515217443E+03  0.99366115882E+01  0.27094807718E+03  0.10566000000E+00 0. -1.
         -4    1    4    4    0  502  0.31057101544E+03 -0.49974043000E+03  0.17489987883E+04  0.18453161286E+04  0.00000000000E+00 0. -1.
<mgrwt>
<rscale>  2 0.11929942E+04</rscale>
<asrwt>0</asrwt>
<pdfrwt beam="1">  1       21 0.32648184E+00 0.11984615E+04</pdfrwt>
<pdfrwt beam="2">  1       21 0.32685307E+00 0.11984615E+04</pdfrwt>
<totfact> 0.96090531E-02</totfact>
</mgrwt>
</event>
<event>
 8    1  0.7418332E-006  0.1021225E+04  0.7818608E-02  0.8763964E-01
         21   -1    0    0  501  502  0.00000000000E+00  0.00000000000E+00  0.25812013069E+04  0.25812013069E+04  0.00000000000E+00 0.  1.
         21   -1    0    0  502  503 -0.00000000000E+00 -0.00000000000E+00 -0.77426435379E+03  0.77426435379E+03  0.00000000000E+00 0.  1.
    9000010    2    1    2  501    0 -0.11757851027E+02 -0.13677637274E+03  0.20782934547E+04  0.22988035616E+04  0.97280424955E+03 0.  0.
   -9000010    2    1    2    0  503  0.11757851027E+02  0.13677637274E+03 -0.27135650164E+03  0.10566620990E+04  0.10119557388E+04 0.  0.
        -13    1    3    3    0    0  0.10126403682E+03 -0.11662221300E+03 -0.53851529866E+02  0.16356999771E+03  0.10566000000E+00 0.  1.
          4    1    3    3  501    0 -0.11302188785E+03 -0.20154159739E+02  0.21321449846E+04  0.21352335639E+04  0.00000000000E+00 0.  1.
         13    1    4    4    0    0  0.40399096880E+02 -0.17040442119E+03  0.33405355814E+03  0.37717574771E+03  0.10566000000E+00 0. -1.
         -4    1    4    4    0  503 -0.28641245853E+02  0.30718079393E+03 -0.60541005978E+03  0.67948635130E+03  0.00000000000E+00 0. -1.
<mgrwt>
<rscale>  2 0.10113882E+04</rscale>
<asrwt>0</asrwt>
<pdfrwt beam="1">  1       21 0.39710789E+00 0.10212250E+04</pdfrwt>
<pdfrwt beam="2">  1       21 0.11911759E+00 0.10212250E+04</pdfrwt>
<totfact> 0.13741815E+00</totfact>
</mgrwt>
</event>
<event>
 8    1  0.7418332E-006  0.1029362E+04  0.7818608E-02  0.8748920E-01
         21   -1    0    0  503  502  0.00000000000E+00  0.00000000000E+00  0.15401695883E+04  0.15401695883E+04  0.00000000000E+00 0.  1.
         21   -1    0    0  501  503 -0.00000000000E+00 -0.00000000000E+00 -0.74141354933E+03  0.74141354933E+03  0.00000000000E+00 0.  1.
    9000010    2    1    2  501    0 -0.18547871320E+03 -0.39769210617E+02  0.82368887555E+02  0.10326526561E+04  0.10117326383E+04 0.  0.
   -9000010    2    1    2    0  502  0.18547871320E+03  0.39769210617E+02  0.71638715142E+03  0.12489304815E+04  0.10053023694E+04 0.  0.
        -13    1    3    3    0    0 -0.39037019969E+03  0.27388024408E+03  0.33324850838E+03  0.58176787502E+03  0.10566000000E+00 0.  1.
          4    1    3    3  501    0  0.20489148649E+03 -0.31364945469E+03 -0.25087962082E+03  0.45088478108E+03  0.00000000000E+00 0.  1.
         13    1    4    4    0    0  0.15809385995E+03  0.59694494259E+01  0.97445891909E+03  0.98721806053E+03  0.10566000000E+00 0. -1.
         -4    1    4    4    0  502  0.27384853258E+02  0.33799761191E+02 -0.25807176767E+03  0.26171242101E+03  0.00000000000E+00 0. -1.
<mgrwt>
<rscale>  2 0.10277788E+04</rscale>
<asrwt>0</asrwt>
<pdfrwt beam="1">  1       21 0.23694917E+00 0.10293624E+04</pdfrwt>
<pdfrwt beam="2">  1       21 0.11406362E+00 0.10293624E+04</pdfrwt>
<totfact> 0.21078765E+01</totfact>
</mgrwt>
</event>
<event>
 8    1  0.7418332E-006  0.9998875E+03  0.7818608E-02  0.8778285E-01
         21   -1    0    0  501  502  0.00000000000E+00  0.00000000000E+00  0.72132249001E+03  0.72132249001E+03  0.00000000000E+00 0. -1.
         21   -1    0    0  502  503 -0.00000000000E+00 -0.00000000000E+00 -0.13755374817E+04  0.13755374817E+04  0.00000000000E+00 0. -1.
    9000010    2    1    2  501    0  0.79603909529E+02 -0.70914092210E+01 -0.23334907930E+03  0.10120083412E+04  0.98148969394E+03 0.  0.
   -9000010    2    1    2    0  503 -0.79603909529E+02  0.70914092210E+01 -0.42086591243E+03  0.10848516306E+04  0.99668845363E+03 0.  0.
        -13    1    3    3    0    0  0.11544451896E+03  0.38425456207E+03 -0.41660813073E+03  0.57839549720E+03  0.10566000000E+00 0.  1.
          4    1    3    3  501    0 -0.35840609430E+02 -0.39134597129E+03  0.18325905143E+03  0.43361284398E+03  0.00000000000E+00 0.  1.
         13    1    4    4    0    0  0.45969733828E+03 -0.73135155869E+01 -0.17434462920E+03  0.49170234006E+03  0.10566000000E+00 0. -1.
         -4    1    4    4    0  503 -0.53930124781E+03  0.14404924808E+02 -0.24652128324E+03  0.59314929051E+03  0.00000000000E+00 0. -1.
<mgrwt>
<rscale>  2 0.99607841E+03</rscale>
<asrwt>0</asrwt>
<pdfrwt beam="1">  1       21 0.11097269E+00 0.99988747E+03</pdfrwt>
<pdfrwt beam="2">  1       21 0.21162115E+00 0.99988747E+03</pdfrwt>
<totfact> 0.35409765E+01</totfact>
</mgrwt>
</event>
<event>
 8    1  0.7418332E-006  0.1043284E+04  0.7818608E-02  0.8741513E-01
         21   -1    0    0  501  502  0.00000000000E+00  0.00000000000E+00  0.10619553091E+04  0.10619553091E+04  0.00000000000E+00 0. -1.
         21   -1    0    0  502  503 -0.00000000000E+00 -0.00000000000E+00 -0.14117853135E+04  0.14117853135E+04  0.00000000000E+00 0. -1.
    9000010    2    1    2  501    0  0.55424521893E+02  0.20912672534E+03  0.49398250926E+03  0.11543224463E+04  0.10206055681E+04 0.  0.
   -9000010    2    1    2    0  503 -0.55424521893E+02 -0.20912672534E+03 -0.84381251370E+03  0.13194181763E+04  0.99097875894E+03 0.  0.
        -13    1    3    3    0    0 -0.28324528181E+03 -0.15823328417E+03 -0.13467712053E+03  0.35128848522E+03  0.10566000000E+00 0.  1.
          4    1    3    3  501    0  0.33866980370E+03  0.36736000951E+03  0.62865962979E+03  0.80303396109E+03  0.00000000000E+00 0.  1.
         13    1    4    4    0    0  0.37440917889E+03  0.10650118376E+03 -0.95973081621E+02  0.40091841931E+03  0.10566000000E+00 0. -1.
         -4    1    4    4    0  503 -0.42983370078E+03 -0.31562790911E+03 -0.74783943208E+03  0.91849975694E+03  0.00000000000E+00 0. -1.
<mgrwt>
<rscale>  2 0.10359664E+04</rscale>
<asrwt>0</asrwt>
<pdfrwt beam="1">  1       21 0.16337774E+00 0.10432840E+04</pdfrwt>
<pdfrwt beam="2">  1       21 0.21719774E+00 0.10432840E+04</pdfrwt>
<totfact> 0.10188711E+01</totfact>
</mgrwt>
</event>
<event>
 8    1  0.7418332E-006  0.1010839E+04  0.7818608E-02  0.8767449E-01
         21   -1    0    0  501  502  0.00000000000E+00  0.00000000000E+00  0.24853084332E+04  0.24853084332E+04  0.00000000000E+00 0.  1.
         21   -1    0    0  502  503 -0.00000000000E+00 -0.00000000000E+00 -0.44076082706E+03  0.44076082706E+03  0.00000000000E+00 0.  1.
    9000010    2    1    2  501    0  0.92418534180E+02 -0.39962863507E+02  0.14273582977E+04  0.17417051042E+04  0.99299886407E+03 0.  0.
   -9000010    2    1    2    0  503 -0.92418534180E+02  0.39962863507E+02  0.61718930850E+03  0.11843641561E+04  0.10058119088E+04 0.  0.
        -13    1    3    3    0    0  0.44145957885E+03 -0.80542281749E+02  0.12875708974E+04  0.13635294078E+04  0.10566000000E+00 0.  1.
          4    1    3    3  501    0 -0.34904104467E+03  0.40579418242E+02  0.13978740025E+03  0.37817569636E+03  0.00000000000E+00 0.  1.
         13    1    4    4    0    0 -0.32830894927E+03 -0.38569815012E+03  0.42479444051E+03  0.66105987401E+03  0.10566000000E+00 0. -1.
         -4    1    4    4    0  503  0.23589041509E+03  0.42566101362E+03  0.19239486799E+03  0.52330428211E+03  0.00000000000E+00 0. -1.
<mgrwt>
<rscale>  2 0.10076369E+04</rscale>
<asrwt>0</asrwt>
<pdfrwt beam="1">  1       21 0.38235514E+00 0.10108392E+04</pdfrwt>
<pdfrwt beam="2">  1       21 0.67809359E-01 0.10108392E+04</pdfrwt>
<totfact> 0.73364857E+00</totfact>
</mgrwt>
</event>
<event>
 8    1  0.7418332E-006  0.1003390E+04  0.7818608E-02  0.8772298E-01
         21   -1    0    0  501  502  0.00000000000E+00  0.00000000000E+00  0.81205675822E+03  0.81205675822E+03  0.00000000000E+00 0. -1.
         21   -1    0    0  502  503 -0.00000000000E+00 -0.00000000000E+00 -0.12530419241E+04  0.12530419241E+04  0.00000000000E+00 0. -1.
    9000010    2    1    2  501    0 -0.12341021496E+03 -0.51317879145E+02 -0.34431142476E+03  0.10608216800E+04  0.99444892966E+03 0.  0.
   -9000010    2    1    2    0  503  0.12341021496E+03  0.51317879145E+02 -0.96673741094E+02  0.10042770023E+04  0.99063761245E+03 0.  0.
        -13    1    3    3    0    0 -0.83779220572E+02 -0.52300883490E+03 -0.19601970739E+03  0.56478397289E+03  0.10566000000E+00 0.  1.
          4    1    3    3  501    0 -0.39630994392E+02  0.47169095575E+03 -0.14829171737E+03  0.49603770713E+03  0.00000000000E+00 0.  1.
         13    1    4    4    0    0  0.20064899252E+03 -0.36638835774E+03  0.22217222655E+03  0.47313946813E+03  0.10566000000E+00 0. -1.
         -4    1    4    4    0  503 -0.77238777552E+02  0.41770623688E+03 -0.31884596765E+03  0.53113753414E+03  0.00000000000E+00 0. -1.
<mgrwt>
<rscale>  2 0.10024448E+04</rscale>
<asrwt>0</asrwt>
<pdfrwt beam="1">  1       21 0.12493181E+00 0.10033904E+04</pdfrwt>
<pdfrwt beam="2">  1       21 0.19277568E+00 0.10033904E+04</pdfrwt>
<totfact> 0.35673306E+01</totfact>
</mgrwt>
</event>
<event>
 8    1  0.7418332E-006  0.1030672E+04  0.7818608E-02  0.8754174E-01
         21   -1    0    0  503  502  0.00000000000E+00  0.00000000000E+00  0.84906612887E+03  0.84906612887E+03  0.00000000000E+00 0.  1.
         21   -1    0    0  501  503 -0.00000000000E+00 -0.00000000000E+00 -0.12200486487E+04  0.12200486487E+04  0.00000000000E+00 0.  1.
    9000010    2    1    2  501    0 -0.86286243576E+01  0.44055612053E+02 -0.94591458109E+02  0.10350038064E+04  0.10296941222E+04 0.  0.
   -9000010    2    1    2    0  502  0.86286243576E+01 -0.44055612053E+02 -0.27639106174E+03  0.10341109712E+04  0.99547884535E+03 0.  0.
        -13    1    3    3    0    0  0.47175794921E+03  0.63217375708E+02 -0.23955047389E+03  0.53285686628E+03  0.10566000000E+00 0.  1.
          4    1    3    3  501    0 -0.48038657357E+03 -0.19161763654E+02  0.14495901578E+03  0.50214694016E+03  0.00000000000E+00 0.  1.
         13    1    4    4    0    0  0.23900582879E+03  0.39699908012E+03  0.30827985373E+01  0.46340216942E+03  0.10566000000E+00 0. -1.
         -4    1    4    4    0  502 -0.23037720443E+03 -0.44105469217E+03 -0.27947386027E+03  0.57070880174E+03  0.00000000000E+00 0. -1.
<mgrwt>
<rscale>  2 0.10220185E+04</rscale>
<asrwt>0</asrwt>
<pdfrwt beam="1">  1       21 0.13062556E+00 0.10306723E+04</pdfrwt>
<pdfrwt beam="2">  1       21 0.18769979E+00 0.10306723E+04</pdfrwt>
<totfact> 0.34246197E+01</totfact>
</mgrwt>
</event>
<event>
 8    1  0.7418332E-006  0.1024958E+04  0.7818608E-02  0.8756603E-01
         21   -1    0    0  503  502  0.00000000000E+00  0.00000000000E+00  0.82353166359E+03  0.82353166359E+03  0.00000000000E+00 0. -1.
         21   -1    0    0  501  503 -0.00000000000E+00 -0.00000000000E+00 -0.17359936249E+04  0.17359936249E+04  0.00000000000E+00 0. -1.
    9000010    2    1    2  501    0 -0.65541063668E+02  0.11249706772E+03 -0.11381682867E+04  0.15316544057E+04  0.10166547832E+04 0.  0.
   -9000010    2    1    2    0  502  0.65541063668E+02 -0.11249706772E+03  0.22570632543E+03  0.10278708828E+04  0.99429572316E+03 0.  0.
        -13    1    3    3    0    0 -0.29387572389E+03 -0.21646676847E+02  0.63259939727E+02  0.30138571772E+03  0.10566000000E+00 0.  1.
          4    1    3    3  501    0  0.22833466022E+03  0.13414374457E+03 -0.12014282265E+04  0.12302686880E+04  0.00000000000E+00 0.  1.
         13    1    4    4    0    0  0.28177575519E+03  0.78467067157E+01  0.55113488609E+03  0.61903862630E+03  0.10566000000E+00 0. -1.
         -4    1    4    4    0  502 -0.21623469153E+03 -0.12034377443E+03 -0.32542856065E+03  0.40883225650E+03  0.00000000000E+00 0. -1.
<mgrwt>
<rscale>  2 0.10193686E+04</rscale>
<asrwt>0</asrwt>
<pdfrwt beam="1">  1       21 0.12669718E+00 0.10249576E+04</pdfrwt>
<pdfrwt beam="2">  1       21 0.26707594E+00 0.10249576E+04</pdfrwt>
<totfact> 0.95024246E+00</totfact>
</mgrwt>
</event>
<event>
 8    1  0.7418332E-006  0.1036649E+04  0.7818608E-02  0.8745469E-01
         21   -1    0    0  501  502  0.00000000000E+00  0.00000000000E+00  0.10632595674E+04  0.10632595674E+04  0.00000000000E+00 0. -1.
         21   -1    0    0  502  503 -0.00000000000E+00 -0.00000000000E+00 -0.10087999683E+04  0.10087999683E+04  0.00000000000E+00 0. -1.
    9000010    2    1    2  501    0  0.17281678754E+03  0.64560157381E+02  0.16436369617E+03  0.10495982283E+04  0.10201016421E+04 0.  0.
   -9000010    2    1    2    0  503 -0.17281678754E+03 -0.64560157381E+02 -0.10990409705E+03  0.10224613075E+04  0.99965722062E+03 0.  0.
        -13    1    3    3    0    0 -0.25895846733E+03 -0.50200430414E+02  0.44836710521E+03  0.52020442444E+03  0.10566000000E+00 0.  1.
          4    1    3    3  501    0  0.43177525487E+03  0.11476058780E+03 -0.28400340904E+03  0.52939380387E+03  0.00000000000E+00 0.  1.
         13    1    4    4    0    0  0.41581518992E+03  0.22930664664E+01 -0.10968689767E+03  0.43004506393E+03  0.10566000000E+00 0. -1.
         -4    1    4    4    0  503 -0.58863197746E+03 -0.66853223848E+02 -0.21719937800E+00  0.59241624354E+03  0.00000000000E+00 0. -1.
<mgrwt>
<rscale>  2 0.10315840E+04</rscale>
<asrwt>0</asrwt>
<pdfrwt beam="1">  1       21 0.16357839E+00 0.10366489E+04</pdfrwt>
<pdfrwt beam="2">  1       21 0.15520000E+00 0.10366489E+04</pdfrwt>
<totfact> 0.32220093E+01</totfact>
</mgrwt>
</event>
<event>
 8    1  0.7418332E-006  0.1005119E+04  0.7818608E-02  0.8774777E-01
         21   -1    0    0  503  502  0.00000000000E+00  0.00000000000E+00  0.20268101216E+04  0.20268101216E+04  0.00000000000E+00 0.  1.
         21   -1    0    0  501  503 -0.00000000000E+00 -0.00000000000E+00 -0.49273307268E+03  0.49273307268E+03  0.00000000000E+00 0.  1.
    9000010    2    1    2  501    0  0.12620358831E+02 -0.59525068680E+02  0.88188850906E+03  0.13213721059E+04  0.98213766472E+03 0.  0.
   -9000010    2    1    2    0  502 -0.12620358831E+02  0.59525068680E+02  0.65218853983E+03  0.11981710884E+04  0.10032754150E+04 0.  0.
        -13    1    3    3    0    0 -0.30680458057E+03 -0.40503369525E+03  0.52653432296E+03  0.73172382042E+03  0.10566000000E+00 0.  1.
          4    1    3    3  501    0  0.31942493940E+03  0.34550862657E+03  0.35535418610E+03  0.58964828544E+03  0.00000000000E+00 0.  1.
         13    1    4    4    0    0  0.11686556638E+03  0.27774940233E+03  0.83350249648E+03  0.88630057762E+03  0.10566000000E+00 0. -1.
         -4    1    4    4    0  502 -0.12948592521E+03 -0.21822433365E+03 -0.18131395664E+03  0.31187051078E+03  0.00000000000E+00 0. -1.
<mgrwt>
<rscale>  2 0.99980236E+03</rscale>
<asrwt>0</asrwt>
<pdfrwt beam="1">  1       21 0.31181694E+00 0.10051189E+04</pdfrwt>
<pdfrwt beam="2">  1       21 0.75805089E-01 0.10051189E+04</pdfrwt>
<totfact> 0.17608471E+01</totfact>
</mgrwt>
</event>
<event>
 8    1  0.7418332E-006  0.1018258E+04  0.7818608E-02  0.8759297E-01
         21   -1    0    0  501  502  0.00000000000E+00  0.00000000000E+00  0.18254302996E+04  0.18254302996E+04  0.00000000000E+00 0.  1.
         21   -1    0    0  502  503 -0.00000000000E+00 -0.00000000000E+00 -0.69636810748E+03  0.69636810748E+03  0.00000000000E+00 0.  1.
    9000010    2    1    2  501    0  0.98388311878E+02  0.19290581520E+03  0.16357763848E+02  0.10183892938E+04  0.99496545862E+03 0.  0.
   -9000010    2    1    2    0  503 -0.98388311878E+02 -0.19290581520E+03  0.11127044283E+04  0.15034091133E+04  0.98753982388E+03 0.  0.
        -13    1    3    3    0    0 -0.12798869169E+02 -0.38449917083E+03  0.15415199585E+03  0.41444694764E+03  0.10566000000E+00 0.  1.
          4    1    3    3  501    0  0.11118718105E+03  0.57740498602E+03 -0.13779423200E+03  0.60394234616E+03  0.00000000000E+00 0.  1.
         13    1    4    4    0    0 -0.28638044960E+03 -0.35145387624E+03  0.11666472281E+04  0.12516386679E+04  0.10566000000E+00 0. -1.
         -4    1    4    4    0  503  0.18799213772E+03  0.15854806104E+03 -0.53942799823E+02  0.25177044536E+03  0.00000000000E+00 0. -1.
<mgrwt>
<rscale>  2 0.10164394E+04</rscale>
<asrwt>0</asrwt>
<pdfrwt beam="1">  1       21 0.28083543E+00 0.10182579E+04</pdfrwt>
<pdfrwt beam="2">  1       21 0.10713356E+00 0.10182579E+04</pdfrwt>
<totfact> 0.12071086E+01</totfact>
</mgrwt>
</event>
<event>
 8    1  0.7418332E-006  0.1007449E+04  0.7818608E-02  0.8769576E-01
         21   -1    0    0  503  502  0.00000000000E+00  0.00000000000E+00  0.21642208630E+04  0.21642208630E+04  0.00000000000E+00 0. -1.
         21   -1    0    0  501  503 -0.00000000000E+00 -0.00000000000E+00 -0.46535990685E+03  0.46535990685E+03  0.00000000000E+00 0. -1.
    9000010    2    1    2  501    0  0.69161112137E+02  0.68540704192E+02  0.87751722768E+03  0.13297501030E+04  0.99434288056E+03 0.  0.
   -9000010    2    1    2    0  502 -0.69161112137E+02 -0.68540704192E+02  0.82134372844E+03  0.12998306668E+04  0.10027328430E+04 0.  0.
        -13    1    3    3    0    0 -0.52606406578E+02 -0.45680421397E+03  0.40558417645E+03  0.61313624853E+03  0.10566000000E+00 0.  1.
          4    1    3    3  501    0  0.12176751871E+03  0.52534491816E+03  0.47193305122E+03  0.71661385452E+03  0.00000000000E+00 0.  1.
         13    1    4    4    0    0 -0.96340093805E+02  0.46053704710E+03  0.30942691480E+03  0.56313480819E+03  0.10566000000E+00 0. -1.
         -4    1    4    4    0  502  0.27178981669E+02 -0.52907775129E+03  0.51191681363E+03  0.73669585857E+03  0.00000000000E+00 0. -1.
<mgrwt>
<rscale>  2 0.10053553E+04</rscale>
<asrwt>0</asrwt>
<pdfrwt beam="1">  1       21 0.33295705E+00 0.10074494E+04</pdfrwt>
<pdfrwt beam="2">  1       21 0.71593833E-01 0.10074494E+04</pdfrwt>
<totfact> 0.14332627E+01</totfact>
</mgrwt>
</event>
<event>
 8    1  0.7418332E-006  0.1056844E+04  0.7818608E-02  0.8723940E-01
         21   -1    0    0  501  502  0.00000000000E+00  0.00000000000E+00  0.15824040808E+04  0.15824040808E+04  0.00000000000E+00 0.  1.
         21   -1    0    0  502  503 -0.00000000000E+00 -0.00000000000E+00 -0.10444031903E+04  0.10444031903E+04  0.00000000000E+00 0.  1.
    9000010    2    1    2  501    0 -0.12053367224E+03  0.31230360697E+03  0.10197487980E+04  0.14653425830E+04  0.99763689058E+03 0.  0.
   -9000010    2    1    2    0  503  0.12053367224E+03 -0.31230360697E+03 -0.48174790748E+03  0.11614646881E+04  0.10024256912E+04 0.  0.
        -13    1    3    3    0    0  0.35756636772E+03  0.32055961595E+03  0.81332941896E+03  0.94451941728E+03  0.10566000000E+00 0.  1.
          4    1    3    3  501    0 -0.47810003996E+03 -0.82560089792E+01  0.20641937901E+03  0.52082316570E+03  0.00000000000E+00 0.  1.
         13    1    4    4    0    0  0.62351741066E+02  0.34546133570E+03 -0.33454226548E+03  0.48492248106E+03  0.10566000000E+00 0. -1.
         -4    1    4    4    0  503  0.58181931178E+02 -0.65776494266E+03 -0.14720564200E+03  0.67654220707E+03  0.00000000000E+00 0. -1.
<mgrwt>
<rscale>  2 0.10557069E+04</rscale>
<asrwt>0</asrwt>
<pdfrwt beam="1">  1       21 0.24344678E+00 0.10568440E+04</pdfrwt>
<pdfrwt beam="2">  1       21 0.16067741E+00 0.10568440E+04</pdfrwt>
<totfact> 0.68348276E+00</totfact>
</mgrwt>
</event>
<event>
 8    1  0.7418332E-006  0.1051245E+04  0.7818608E-02  0.8732525E-01
         21   -1    0    0  503  502  0.00000000000E+00  0.00000000000E+00  0.13221167550E+04  0.13221167550E+04  0.00000000000E+00 0.  1.
         21   -1    0    0  501  503 -0.00000000000E+00 -0.00000000000E+00 -0.97281432972E+03  0.97281432972E+03  0.00000000000E+00 0.  1.
    9000010    2    1    2  501    0  0.29018784808E+03 -0.12105088486E+03 -0.27951672511E+03  0.10877710485E+04  0.10031221015E+04 0.  0.
   -9000010    2    1    2    0  502 -0.29018784808E+03  0.12105088486E+03  0.62881915044E+03  0.12071600362E+04  0.98130501132E+03 0.  0.
        -13    1    3    3    0    0 -0.25238101815E+03 -0.37079860373E+03 -0.65502294609E+02  0.45329719237E+03  0.10566000000E+00 0.  1.
          4    1    3    3  501    0  0.54256886623E+03  0.24974771888E+03 -0.21401443050E+03  0.63447385615E+03  0.00000000000E+00 0.  1.
         13    1    4    4    0    0 -0.59395521930E+03 -0.13712829021E+03  0.49936939353E+03  0.78800810457E+03  0.10566000000E+00 0. -1.
         -4    1    4    4    0  502  0.30376737122E+03  0.25817917507E+03  0.12944975691E+03  0.41915193167E+03  0.00000000000E+00 0. -1.
<mgrwt>
<rscale>  2 0.10460066E+04</rscale>
<asrwt>0</asrwt>
<pdfrwt beam="1">  1       21 0.20340258E+00 0.10512451E+04</pdfrwt>
<pdfrwt beam="2">  1       21 0.14966374E+00 0.10512451E+04</pdfrwt>
<totfact> 0.17086427E+01</totfact>
</mgrwt>
</event>
<event>
 8    1  0.7418332E-006  0.1011592E+04  0.7818608E-02  0.8763970E-01
         21   -1    0    0  501  502  0.00000000000E+00  0.00000000000E+00  0.13696622528E+04  0.13696622528E+04  0.00000000000E+00 0.  1.
         21   -1    0    0  502  503 -0.00000000000E+00 -0.00000000000E+00 -0.78295924859E+03  0.78295924859E+03  0.00000000000E+00 0.  1.
    9000010    2    1    2  501    0 -0.54390969843E+02 -0.94110338930E+02  0.52568521536E+03  0.11400276280E+04  0.10057350116E+04 0.  0.
   -9000010    2    1    2    0  503  0.54390969843E+02  0.94110338930E+02  0.61017788800E+02  0.10125938733E+04  0.10048920580E+04 0.  0.
        -13    1    3    3    0    0 -0.41845386792E+03  0.25810559536E+03  0.16661364158E+03  0.51911680252E+03  0.10566000000E+00 0.  1.
          4    1    3    3  501    0  0.36406289807E+03 -0.35221593429E+03  0.35907157378E+03  0.62091082550E+03  0.00000000000E+00 0.  1.
         13    1    4    4    0    0  0.19027778202E+03 -0.23871443827E+03 -0.35140420609E+03  0.46548377479E+03  0.10566000000E+00 0. -1.
         -4    1    4    4    0  503 -0.13588681217E+03  0.33282477720E+03  0.41242199489E+03  0.54711009853E+03  0.00000000000E+00 0. -1.
<mgrwt>
<rscale>  2 0.10113823E+04</rscale>
<asrwt>0</asrwt>
<pdfrwt beam="1">  1       21 0.21071727E+00 0.10115918E+04</pdfrwt>
<pdfrwt beam="2">  1       21 0.12045527E+00 0.10115918E+04</pdfrwt>
<totfact> 0.28623177E+01</totfact>
</mgrwt>
</event>
<event>
 8    1  0.7418332E-006  0.1081780E+04  0.7818608E-02  0.8709855E-01
         21   -1    0    0  503  502  0.00000000000E+00  0.00000000000E+00  0.15926789921E+04  0.15926789921E+04  0.00000000000E+00 0. -1.
         21   -1    0    0  501  503 -0.00000000000E+00 -0.00000000000E+00 -0.85081671893E+03  0.85081671893E+03  0.00000000000E+00 0. -1.
    9000010    2    1    2  501    0 -0.26789507755E+02 -0.38569299240E+03 -0.13449734802E+03  0.10512837028E+04  0.96831354688E+03 0.  0.
   -9000010    2    1    2    0  502  0.26789507755E+02  0.38569299240E+03  0.87635962115E+03  0.13922120082E+04  0.10103322860E+04 0.  0.
        -13    1    3    3    0    0 -0.42473367687E+03  0.75920420419E+02 -0.26094062763E+02  0.43225399684E+03  0.10566000000E+00 0.  1.
          4    1    3    3  501    0  0.39794416912E+03 -0.46161341282E+03 -0.10840328525E+03  0.61902970598E+03  0.00000000000E+00 0.  1.
         13    1    4    4    0    0 -0.28337922404E+03  0.22044623990E+03 -0.84723489536E+02  0.36888807265E+03  0.10566000000E+00 0. -1.
         -4    1    4    4    0  502  0.31016873179E+03  0.16524675250E+03  0.96108311068E+03  0.10233239355E+04  0.00000000000E+00 0. -1.
<mgrwt>
<rscale>  2 0.10718606E+04</rscale>
<asrwt>0</asrwt>
<pdfrwt beam="1">  1       21 0.24502754E+00 0.10817801E+04</pdfrwt>
<pdfrwt beam="2">  1       21 0.13089488E+00 0.10817801E+04</pdfrwt>
<totfact> 0.12329869E+01</totfact>
</mgrwt>
</event>
<event>
 8    1  0.7418332E-006  0.1080435E+04  0.7818608E-02  0.8704458E-01
         21   -1    0    0  501  502  0.00000000000E+00  0.00000000000E+00  0.12983891786E+04  0.12983891786E+04  0.00000000000E+00 0. -1.
         21   -1    0    0  502  503 -0.00000000000E+00 -0.00000000000E+00 -0.16943485234E+04  0.16943485234E+04  0.00000000000E+00 0. -1.
    9000010    2    1    2  501    0  0.37886051780E+03  0.12771368982E+03  0.83254059067E+03  0.13567206119E+04  0.99384148888E+03 0.  0.
   -9000010    2    1    2    0  503 -0.37886051780E+03 -0.12771368982E+03 -0.12284999355E+04  0.16360170901E+04  0.10037398812E+04 0.  0.
        -13    1    3    3    0    0  0.44297119331E+03  0.25018298013E+02 -0.67317715335E+02  0.44875503262E+03  0.10566000000E+00 0.  1.
          4    1    3    3  501    0 -0.64110675510E+02  0.10269539180E+03  0.89985830600E+03  0.90796557924E+03  0.00000000000E+00 0.  1.
         13    1    4    4    0    0 -0.54744656982E+03  0.89908342874E+02 -0.23052114707E+03  0.60076723225E+03  0.10566000000E+00 0. -1.
         -4    1    4    4    0  503  0.16858605202E+03 -0.21762203269E+03 -0.99797878844E+03  0.10352498579E+04  0.00000000000E+00 0. -1.
<mgrwt>
<rscale>  2 0.10781303E+04</rscale>
<asrwt>0</asrwt>
<pdfrwt beam="1">  1       21 0.19975218E+00 0.10804350E+04</pdfrwt>
<pdfrwt beam="2">  1       21 0.26066900E+00 0.10804350E+04</pdfrwt>
<totfact> 0.24401117E+00</totfact>
</mgrwt>
</event>
<event>
 8    1  0.7418332E-006  0.1026790E+04  0.7818608E-02  0.8763512E-01
         21   -1    0    0  503  502  0.00000000000E+00  0.00000000000E+00  0.69545322501E+03  0.69545322501E+03  0.00000000000E+00 0.  1.
         21   -1    0    0  501  503 -0.00000000000E+00 -0.00000000000E+00 -0.15353861568E+04  0.15353861568E+04  0.00000000000E+00 0.  1.
    9000010    2    1    2  501    0  0.23138553914E+03 -0.12985700137E+03 -0.14074757252E+03  0.10363916891E+04  0.99191519068E+03 0.  0.
   -9000010    2    1    2    0  502 -0.23138553914E+03  0.12985700137E+03 -0.69918535925E+03  0.11944476927E+04  0.93136620914E+03 0.  0.
        -13    1    3    3    0    0 -0.18467145368E+03 -0.52244741068E+02  0.34336349958E+03  0.39335933036E+03  0.10566000000E+00 0.  1.
          4    1    3    3  501    0  0.41605699282E+03 -0.77612260303E+02 -0.48411107210E+03  0.64303235872E+03  0.00000000000E+00 0.  1.
         13    1    4    4    0    0 -0.30732077981E+01  0.45410383148E+03 -0.82933390833E+02  0.46162505657E+03  0.10566000000E+00 0. -1.
         -4    1    4    4    0  502 -0.22831233134E+03 -0.32424683011E+03 -0.61625196842E+03  0.73282263616E+03  0.00000000000E+00 0. -1.
<mgrwt>
<rscale>  2 0.10118768E+04</rscale>
<asrwt>0</asrwt>
<pdfrwt beam="1">  1       21 0.10699280E+00 0.10267901E+04</pdfrwt>
<pdfrwt beam="2">  1       21 0.23621325E+00 0.10267901E+04</pdfrwt>
<totfact> 0.25406286E+01</totfact>
</mgrwt>
</event>
<event>
 8    1  0.7418332E-006  0.1014248E+04  0.7818608E-02  0.8763522E-01
         21   -1    0    0  501  502  0.00000000000E+00  0.00000000000E+00  0.81578391044E+03  0.81578391044E+03  0.00000000000E+00 0. -1.
         21   -1    0    0  502  503 -0.00000000000E+00 -0.00000000000E+00 -0.12886600184E+04  0.12886600184E+04  0.00000000000E+00 0. -1.
    9000010    2    1    2  501    0 -0.20216507081E+02 -0.99803756865E+02 -0.42160109313E+03  0.10983839847E+04  0.10091235797E+04 0.  0.
   -9000010    2    1    2    0  503  0.20216507081E+02  0.99803756865E+02 -0.51275014851E+02  0.10060599441E+04  0.99957890485E+03 0.  0.
        -13    1    3    3    0    0 -0.64330468059E+02  0.39309338440E+03 -0.45214569802E+03  0.60257494254E+03  0.10566000000E+00 0.  1.
          4    1    3    3  501    0  0.44113960978E+02 -0.49289714126E+03  0.30544604884E+02  0.49580904218E+03  0.00000000000E+00 0.  1.
         13    1    4    4    0    0 -0.21035417265E+03 -0.39483192013E+03 -0.99155350153E+02  0.45822801936E+03  0.10566000000E+00 0. -1.
         -4    1    4    4    0  503  0.23057067973E+03  0.49463567699E+03  0.47880335302E+02  0.54783192478E+03  0.00000000000E+00 0. -1.
<mgrwt>
<rscale>  2 0.10118661E+04</rscale>
<asrwt>0</asrwt>
<pdfrwt beam="1">  1       21 0.12550522E+00 0.10142484E+04</pdfrwt>
<pdfrwt beam="2">  1       21 0.19825538E+00 0.10142484E+04</pdfrwt>
<totfact> 0.31801576E+01</totfact>
</mgrwt>
</event>
<event>
 8    1  0.7418332E-006  0.1133675E+04  0.7818608E-02  0.8703540E-01
         21   -1    0    0  503  502  0.00000000000E+00  0.00000000000E+00  0.21529602386E+04  0.21529602386E+04  0.00000000000E+00 0. -1.
         21   -1    0    0  501  503 -0.00000000000E+00 -0.00000000000E+00 -0.63785839164E+03  0.63785839164E+03  0.00000000000E+00 0. -1.
    9000010    2    1    2  501    0 -0.41044201755E+03 -0.74253124439E+02  0.15734959346E+03  0.11445425623E+04  0.10541549251E+04 0.  0.
   -9000010    2    1    2    0  502  0.41044201755E+03  0.74253124439E+02  0.13577522535E+04  0.16462760679E+04  0.83232057141E+03 0.  0.
        -13    1    3    3    0    0 -0.60073071009E+03  0.32828986060E+03  0.14122929600E+03  0.69899738471E+03  0.10566000000E+00 0.  1.
          4    1    3    3  501    0  0.19028869253E+03 -0.40254298504E+03  0.16120297455E+02  0.44554517762E+03  0.00000000000E+00 0.  1.
         13    1    4    4    0    0  0.48590675202E+03 -0.10435076796E+03  0.32120238613E+03  0.59174778280E+03  0.10566000000E+00 0. -1.
         -4    1    4    4    0  502 -0.75464734468E+02  0.17860389240E+03  0.10365498673E+04  0.10545282851E+04  0.00000000000E+00 0. -1.
<mgrwt>
<rscale>  2 0.10792004E+04</rscale>
<asrwt>0</asrwt>
<pdfrwt beam="1">  1       21 0.33122465E+00 0.11336749E+04</pdfrwt>
<pdfrwt beam="2">  1       21 0.98132061E-01 0.11336749E+04</pdfrwt>
<totfact> 0.65383654E+00</totfact>
</mgrwt>
</event>
<event>
 8    1  0.7418332E-006  0.1074627E+04  0.7818608E-02  0.8710692E-01
         21   -1    0    0  501  502  0.00000000000E+00  0.00000000000E+00  0.59352900440E+03  0.59352900440E+03  0.00000000000E+00 0.  1.
         21   -1    0    0  502  503 -0.00000000000E+00 -0.00000000000E+00 -0.20869848609E+04  0.20869848609E+04  0.00000000000E+00 0.  1.
    9000010    2    1    2  501    0 -0.22986951342E+00  0.35013870648E+03 -0.37113009058E+03  0.11369081322E+04  0.10159849361E+04 0.  0.
   -9000010    2    1    2    0  503  0.22986951342E+00 -0.35013870648E+03 -0.11223257659E+04  0.15436057331E+04  0.10002531518E+04 0.  0.
        -13    1    3    3    0    0 -0.25042109492E+03  0.97122035466E+02  0.28430320098E+03  0.39111601323E+03  0.10566000000E+00 0.  1.
          4    1    3    3  501    0  0.25019122541E+03  0.25301667102E+03 -0.65543329156E+03  0.74579211901E+03  0.00000000000E+00 0.  1.
         13    1    4    4    0    0 -0.14227130655E+03 -0.17895016138E+03  0.13580637811E+03  0.26590913566E+03  0.10566000000E+00 0. -1.
         -4    1    4    4    0  503  0.14250117606E+03 -0.17118854510E+03 -0.12581321441E+04  0.12776965974E+04  0.00000000000E+00 0. -1.
<mgrwt>
<rscale>  2 0.10708921E+04</rscale>
<asrwt>0</asrwt>
<pdfrwt beam="1">  1       21 0.91312153E-01 0.10746267E+04</pdfrwt>
<pdfrwt beam="2">  1       21 0.32107460E+00 0.10746267E+04</pdfrwt>
<totfact> 0.93890779E+00</totfact>
</mgrwt>
</event>
<event>
 8    1  0.7418332E-006  0.1148725E+04  0.7818608E-02  0.8651133E-01
         21   -1    0    0  501  502  0.00000000000E+00  0.00000000000E+00  0.83017755884E+03  0.83017755884E+03  0.00000000000E+00 0.  1.
         21   -1    0    0  502  503 -0.00000000000E+00 -0.00000000000E+00 -0.23579980952E+04  0.23579980952E+04  0.00000000000E+00 0.  1.
    9000010    2    1    2  501    0  0.38761837370E+02  0.55029317996E+03  0.16043416168E+03  0.11598743291E+04  0.10075933084E+04 0.  0.
   -9000010    2    1    2    0  503 -0.38761837370E+02 -0.55029317996E+03 -0.16882546980E+04  0.20283013249E+04  0.97952910893E+03 0.  0.
        -13    1    3    3    0    0 -0.49320083905E+02 -0.10628162398E+03  0.42925031315E+03  0.44495403895E+03  0.10566000000E+00 0.  1.
          4    1    3    3  501    0  0.88081921275E+02  0.65657480394E+03 -0.26881615147E+03  0.71492029018E+03  0.00000000000E+00 0.  1.
         13    1    4    4    0    0 -0.59834976553E+02  0.27089595076E+03 -0.63206113790E+03  0.69026526333E+03  0.10566000000E+00 0. -1.
         -4    1    4    4    0  503  0.21073139183E+02 -0.82118913072E+03 -0.10561935602E+04  0.13380360616E+04  0.00000000000E+00 0. -1.
<mgrwt>
<rscale>  2 0.11425415E+04</rscale>
<asrwt>0</asrwt>
<pdfrwt beam="1">  1       21 0.12771963E+00 0.11487251E+04</pdfrwt>
<pdfrwt beam="2">  1       21 0.36276893E+00 0.11487251E+04</pdfrwt>
<totfact> 0.19048330E+00</totfact>
</mgrwt>
</event>
<event>
 8    1  0.7418332E-006  0.1035268E+04  0.7818608E-02  0.8744048E-01
         21   -1    0    0  501  502  0.00000000000E+00  0.00000000000E+00  0.31743377185E+03  0.31743377185E+03  0.00000000000E+00 0. -1.
         21   -1    0    0  502  503 -0.00000000000E+00 -0.00000000000E+00 -0.36276915789E+04  0.36276915789E+04  0.00000000000E+00 0. -1.
    9000010    2    1    2  501    0  0.17131881479E+03  0.16839236907E+03 -0.21956483346E+04  0.24238974844E+04  0.99834927718E+03 0.  0.
   -9000010    2    1    2    0  503 -0.17131881479E+03 -0.16839236907E+03 -0.11146094725E+04  0.15212278664E+04  0.10070123232E+04 0.  0.
        -13    1    3    3    0    0 -0.91586033230E+02  0.44722111200E+02 -0.21216310682E+04  0.21240777927E+04  0.10566000000E+00 0.  1.
          4    1    3    3  501    0  0.26290484802E+03  0.12367025787E+03 -0.74017266409E+02  0.29981969168E+03  0.00000000000E+00 0.  1.
         13    1    4    4    0    0  0.16271235888E+03 -0.49372577747E+03 -0.81601563410E+03  0.96753396909E+03  0.10566000000E+00 0. -1.
         -4    1    4    4    0  503 -0.33403117367E+03  0.32533340840E+03 -0.29859383836E+03  0.55369389730E+03  0.00000000000E+00 0. -1.
<mgrwt>
<rscale>  2 0.10331554E+04</rscale>
<asrwt>0</asrwt>
<pdfrwt beam="1">  1       21 0.48835961E-01 0.10352681E+04</pdfrwt>
<pdfrwt beam="2">  1       21 0.55810644E+00 0.10352681E+04</pdfrwt>
<totfact> 0.90571974E-01</totfact>
</mgrwt>
</event>
<event>
 8    1  0.7418332E-006  0.1198426E+04  0.7818608E-02  0.8626904E-01
         21   -1    0    0  501  502  0.00000000000E+00  0.00000000000E+00  0.59801780554E+03  0.59801780554E+03  0.00000000000E+00 0.  1.
         21   -1    0    0  502  503 -0.00000000000E+00 -0.00000000000E+00 -0.26497879913E+04  0.26497879913E+04  0.00000000000E+00 0.  1.
    9000010    2    1    2  501    0 -0.34930679019E+03  0.47609030517E+03 -0.40159841155E+03  0.12639246201E+04  0.10428551907E+04 0.  0.
   -9000010    2    1    2    0  503  0.34930679019E+03 -0.47609030517E+03 -0.16501717742E+04  0.19838811768E+04  0.92953774899E+03 0.  0.
        -13    1    3    3    0    0  0.37242444487E+02  0.69307338260E+03 -0.43542749359E+03  0.81935024664E+03  0.10566000000E+00 0.  1.
          4    1    3    3  501    0 -0.38654923468E+03 -0.21698307742E+03  0.33829082032E+02  0.44457437343E+03  0.00000000000E+00 0.  1.
         13    1    4    4    0    0  0.34956798014E+03 -0.39095829889E+03 -0.24975975781E+03  0.58088390578E+03  0.10566000000E+00 0. -1.
         -4    1    4    4    0  503 -0.26118994493E+00 -0.85132006284E+02 -0.14004120164E+04  0.14029972710E+04  0.00000000000E+00 0. -1.
<mgrwt>
<rscale>  2 0.11733519E+04</rscale>
<asrwt>0</asrwt>
<pdfrwt beam="1">  1       21 0.92002739E-01 0.11984257E+04</pdfrwt>
<pdfrwt beam="2">  1       21 0.40765969E+00 0.11984257E+04</pdfrwt>
<totfact> 0.22218053E+00</totfact>
</mgrwt>
</event>
<event>
 8    1  0.7418332E-006  0.1037457E+04  0.7818608E-02  0.8741873E-01
         21   -1    0    0  501  502  0.00000000000E+00  0.00000000000E+00  0.19649268029E+04  0.19649268029E+04  0.00000000000E+00 0. -1.
         21   -1    0    0  502  503 -0.00000000000E+00 -0.00000000000E+00 -0.60764956066E+03  0.60764956066E+03  0.00000000000E+00 0. -1.
    9000010    2    1    2  501    0 -0.22172337560E+03 -0.90425592050E+02  0.10978420956E+04  0.15104879148E+04  0.10094446151E+04 0.  0.
   -9000010    2    1    2    0  503  0.22172337560E+03  0.90425592050E+02  0.25943514665E+03  0.10620884488E+04  0.10016921856E+04 0.  0.
        -13    1    3    3    0    0 -0.40553467032E+03  0.26544336503E+03  0.97946192880E+03  0.10928239703E+04  0.10566000000E+00 0.  1.
          4    1    3    3  501    0  0.18381129473E+03 -0.35586895708E+03  0.11838016680E+03  0.41766394454E+03  0.00000000000E+00 0.  1.
         13    1    4    4    0    0  0.60753098239E+03  0.17874671295E+03  0.18055268345E+03  0.65851618402E+03  0.10566000000E+00 0. -1.
         -4    1    4    4    0  503 -0.38580760680E+03 -0.88321120901E+02  0.78882463194E+02  0.40357226473E+03  0.00000000000E+00 0. -1.
<mgrwt>
<rscale>  2 0.10355662E+04</rscale>
<asrwt>0</asrwt>
<pdfrwt beam="1">  1       21 0.30229643E+00 0.10374567E+04</pdfrwt>
<pdfrwt beam="2">  1       21 0.93484548E-01 0.10374567E+04</pdfrwt>
<totfact> 0.12088613E+01</totfact>
</mgrwt>
</event>
<event>
 8    1  0.7418332E-006  0.1144643E+04  0.7818608E-02  0.8649621E-01
         21   -1    0    0  501  502  0.00000000000E+00  0.00000000000E+00  0.21317192702E+04  0.21317192702E+04  0.00000000000E+00 0. -1.
         21   -1    0    0  502  503 -0.00000000000E+00 -0.00000000000E+00 -0.65472254211E+03  0.65472254211E+03  0.00000000000E+00 0. -1.
    9000010    2    1    2  501    0  0.35816748635E+03  0.40698443240E+03  0.10854508590E+04  0.15774701163E+04  0.10081111665E+04 0.  0.
   -9000010    2    1    2    0  503 -0.35816748635E+03 -0.40698443240E+03  0.39154586902E+03  0.12089716960E+04  0.10071663803E+04 0.  0.
        -13    1    3    3    0    0  0.25730184869E+03 -0.25599382827E+03  0.73748274201E+03  0.82195978453E+03  0.10566000000E+00 0.  1.
          4    1    3    3  501    0  0.10086563766E+03  0.66297826067E+03  0.34796811704E+03  0.75551033180E+03  0.00000000000E+00 0.  1.
         13    1    4    4    0    0 -0.40631118990E+03 -0.21033926457E+03 -0.26031325264E+03  0.52639755881E+03  0.10566000000E+00 0. -1.
         -4    1    4    4    0  503  0.48143703552E+02 -0.19664516784E+03  0.65185912166E+03  0.68257413715E+03  0.00000000000E+00 0. -1.
<mgrwt>
<rscale>  2 0.11444353E+04</rscale>
<asrwt>0</asrwt>
<pdfrwt beam="1">  1       21 0.32795681E+00 0.11446434E+04</pdfrwt>
<pdfrwt beam="2">  1       21 0.10072655E+00 0.11446434E+04</pdfrwt>
<totfact> 0.64233511E+00</totfact>
</mgrwt>
</event>
<event>
 8    1  0.7418332E-006  0.1017606E+04  0.7818608E-02  0.8764010E-01
         21   -1    0    0  503  502  0.00000000000E+00  0.00000000000E+00  0.95987007407E+03  0.95987007407E+03  0.00000000000E+00 0.  1.
         21   -1    0    0  501  503 -0.00000000000E+00 -0.00000000000E+00 -0.12717752181E+04  0.12717752181E+04  0.00000000000E+00 0.  1.
    9000010    2    1    2  501    0 -0.24914676309E+02  0.18995630753E+03 -0.61750206565E+03  0.11691427318E+04  0.97410563412E+03 0.  0.
   -9000010    2    1    2    0  502  0.24914676309E+02 -0.18995630753E+03  0.30559692163E+03  0.10625025603E+04  0.99940886144E+03 0.  0.
        -13    1    3    3    0    0 -0.31932771366E+03  0.75568204550E+01 -0.73662171085E+03  0.80289404675E+03  0.10566000000E+00 0.  1.
          4    1    3    3  501    0  0.29441303735E+03  0.18239948708E+03  0.11911964520E+03  0.36624868508E+03  0.00000000000E+00 0.  1.
         13    1    4    4    0    0 -0.84776576701E+02  0.85899015046E+02 -0.33520859881E+03  0.35627310398E+03  0.10566000000E+00 0. -1.
         -4    1    4    4    0  502  0.10969125301E+03 -0.27585532258E+03  0.64080552044E+03  0.70622945634E+03  0.00000000000E+00 0. -1.
<mgrwt>
<rscale>  2 0.10113386E+04</rscale>
<asrwt>0</asrwt>
<pdfrwt beam="1">  1       21 0.14767232E+00 0.10176061E+04</pdfrwt>
<pdfrwt beam="2">  1       21 0.19565773E+00 0.10176061E+04</pdfrwt>
<totfact> 0.20626105E+01</totfact>
</mgrwt>
</event>
<event>
 8    1  0.7418332E-006  0.1060248E+04  0.7818608E-02  0.8721982E-01
         21   -1    0    0  501  502  0.00000000000E+00  0.00000000000E+00  0.18469754334E+04  0.18469754334E+04  0.00000000000E+00 0.  1.
         21   -1    0    0  502  503 -0.00000000000E+00 -0.00000000000E+00 -0.70555189052E+03  0.70555189052E+03  0.00000000000E+00 0.  1.
    9000010    2    1    2  501    0 -0.15847931932E+03 -0.29680413510E+03  0.10585855335E+04  0.14982420598E+04  0.10054439560E+04 0.  0.
   -9000010    2    1    2    0  503  0.15847931932E+03  0.29680413510E+03  0.82838009370E+02  0.10542852641E+04  0.99571426278E+03 0.  0.
        -13    1    3    3    0    0 -0.37030651695E+03  0.19784880447E+03  0.15691266418E+03  0.44821050999E+03  0.10566000000E+00 0.  1.
          4    1    3    3  501    0  0.21182719763E+03 -0.49465293957E+03  0.90167286932E+03  0.10500315498E+04  0.00000000000E+00 0.  1.
         13    1    4    4    0    0 -0.30783015954E+03  0.27980748982E+02  0.33850963877E+03  0.45840060661E+03  0.10566000000E+00 0. -1.
         -4    1    4    4    0  503  0.46630947885E+03  0.26882338612E+03 -0.25567162940E+03  0.59588465753E+03  0.00000000000E+00 0. -1.
<mgrwt>
<rscale>  2 0.10579349E+04</rscale>
<asrwt>0</asrwt>
<pdfrwt beam="1">  1       21 0.28415006E+00 0.10602481E+04</pdfrwt>
<pdfrwt beam="2">  1       21 0.10854645E+00 0.10602481E+04</pdfrwt>
<totfact> 0.10929927E+01</totfact>
</mgrwt>
</event>
<event>
 8    1  0.7418332E-006  0.1008482E+04  0.7818608E-02  0.8769576E-01
         21   -1    0    0  501  502  0.00000000000E+00  0.00000000000E+00  0.16408785947E+04  0.16408785947E+04  0.00000000000E+00 0. -1.
         21   -1    0    0  502  503 -0.00000000000E+00 -0.00000000000E+00 -0.65283943079E+03  0.65283943079E+03  0.00000000000E+00 0. -1.
    9000010    2    1    2  501    0 -0.10960407838E+03 -0.14210667994E+02  0.77733505113E+03  0.12634600150E+04  0.98988202867E+03 0.  0.
   -9000010    2    1    2    0  503  0.10960407838E+03  0.14210667994E+02  0.21070411278E+03  0.10302580105E+04  0.10024072765E+04 0.  0.
        -13    1    3    3    0    0  0.39069718234E+03 -0.18499396454E+03  0.51784617242E+03  0.67456039363E+03  0.10566000000E+00 0.  1.
          4    1    3    3  501    0 -0.50030126072E+03  0.17078329655E+03  0.25948887871E+03  0.58889962136E+03  0.00000000000E+00 0.  1.
         13    1    4    4    0    0 -0.11835298650E+03  0.29330738311E+03  0.48386501140E+03  0.57806747947E+03  0.10566000000E+00 0. -1.
         -4    1    4    4    0  503  0.22795706489E+03 -0.27909671512E+03 -0.27316089862E+03  0.45219053103E+03  0.00000000000E+00 0. -1.
<mgrwt>
<rscale>  2 0.10053550E+04</rscale>
<asrwt>0</asrwt>
<pdfrwt beam="1">  1       21 0.25244286E+00 0.10084817E+04</pdfrwt>
<pdfrwt beam="2">  1       21 0.10043684E+00 0.10084817E+04</pdfrwt>
<totfact> 0.22955951E+01</totfact>
</mgrwt>
</event>
<event>
 8    1  0.7418332E-006  0.1059496E+04  0.7818608E-02  0.8753563E-01
         21   -1    0    0  503  502  0.00000000000E+00  0.00000000000E+00  0.77011523751E+03  0.77011523751E+03  0.00000000000E+00 0. -1.
         21   -1    0    0  501  503 -0.00000000000E+00 -0.00000000000E+00 -0.13574382516E+04  0.13574382516E+04  0.00000000000E+00 0. -1.
    9000010    2    1    2  501    0  0.92600064611E+02 -0.35909030930E+03 -0.46365674742E+02  0.10605100745E+04  0.99247731468E+03 0.  0.
   -9000010    2    1    2    0  502 -0.92600064611E+02  0.35909030930E+03 -0.54095733933E+03  0.10670434146E+04  0.84168057089E+03 0.  0.
        -13    1    3    3    0    0 -0.39248080150E+03  0.58958094257E+02  0.87230052393E+02  0.40635739150E+03  0.10566000000E+00 0.  1.
          4    1    3    3  501    0  0.48508086611E+03 -0.41804840355E+03 -0.13359572714E+03  0.65415268301E+03  0.00000000000E+00 0.  1.
         13    1    4    4    0    0  0.22434911395E+03  0.51414860967E+03 -0.27230122888E+03  0.62356177574E+03  0.10566000000E+00 0. -1.
         -4    1    4    4    0  502 -0.31694917856E+03 -0.15505830037E+03 -0.26865611045E+03  0.44348163883E+03  0.00000000000E+00 0. -1.
<mgrwt>
<rscale>  2 0.10226862E+04</rscale>
<asrwt>0</asrwt>
<pdfrwt beam="1">  1       21 0.11847927E+00 0.10594960E+04</pdfrwt>
<pdfrwt beam="2">  1       21 0.20883666E+00 0.10594960E+04</pdfrwt>
<totfact> 0.30658722E+01</totfact>
</mgrwt>
</event>
<event>
 8    1  0.7418332E-006  0.1118410E+04  0.7818608E-02  0.8671231E-01
         21   -1    0    0  501  502  0.00000000000E+00  0.00000000000E+00  0.89053490435E+03  0.89053490435E+03  0.00000000000E+00 0. -1.
         21   -1    0    0  502  503 -0.00000000000E+00 -0.00000000000E+00 -0.14849842312E+04  0.14849842312E+04  0.00000000000E+00 0.  1.
    9000010    2    1    2  501    0 -0.48979273006E+03  0.11876892265E+03 -0.15394768761E+02  0.11185163919E+04  0.99841822130E+03 0.  0.
   -9000010    2    1    2    0  503  0.48979273006E+03 -0.11876892265E+03 -0.57905455805E+03  0.12570027436E+04  0.99536362243E+03 0.  0.
        -13    1    3    3    0    0 -0.60503634827E+03  0.39975884973E+03  0.19272367717E+03  0.75034561875E+03  0.10566000000E+00 0.  1.
          4    1    3    3  501    0  0.11524361821E+03 -0.28098992708E+03 -0.20811844593E+03  0.36817077314E+03  0.00000000000E+00 0.  1.
         13    1    4    4    0    0  0.40692759002E+03  0.71232285720E+02  0.19417322740E+03  0.45647273243E+03  0.10566000000E+00 0. -1.
         -4    1    4    4    0  503  0.82865140037E+02 -0.19000120837E+03 -0.77322778545E+03  0.80053001118E+03  0.00000000000E+00 0. -1.
<mgrwt>
<rscale>  2 0.11177283E+04</rscale>
<asrwt>0</asrwt>
<pdfrwt beam="1">  1       21 0.13700537E+00 0.11184104E+04</pdfrwt>
<pdfrwt beam="2">  1       21 0.22845911E+00 0.11184104E+04</pdfrwt>
<totfact> 0.14180049E+01</totfact>
</mgrwt>
</event>
<event>
 8    1  0.7418332E-006  0.1087339E+04  0.7818608E-02  0.8724311E-01
         21   -1    0    0  501  502  0.00000000000E+00  0.00000000000E+00  0.96915780309E+03  0.96915780309E+03  0.00000000000E+00 0. -1.
         21   -1    0    0  502  503 -0.00000000000E+00 -0.00000000000E+00 -0.12402240652E+04  0.12402240652E+04  0.00000000000E+00 0. -1.
    9000010    2    1    2  501    0 -0.11630343380E+03 -0.92845231358E+02 -0.51712910036E+03  0.10945484242E+04  0.95313536335E+03 0.  0.
   -9000010    2    1    2    0  503  0.11630343380E+03  0.92845231358E+02  0.24606283823E+03  0.11148334441E+04  0.10771072193E+04 0.  0.
        -13    1    3    3    0    0  0.19098179880E+03 -0.11150833323E+03 -0.70161971621E+03  0.73564828091E+03  0.10566000000E+00 0.  1.
          4    1    3    3  501    0 -0.30728523260E+03  0.18663101873E+02  0.18449061586E+03  0.35890014333E+03  0.00000000000E+00 0.  1.
         13    1    4    4    0    0 -0.16540410085E+03 -0.17365842069E+03 -0.33758422878E+03  0.41410009218E+03  0.10566000000E+00 0. -1.
         -4    1    4    4    0  503  0.28170753465E+03  0.26650365205E+03  0.58364706701E+03  0.70073335190E+03  0.00000000000E+00 0. -1.
<mgrwt>
<rscale>  2 0.10552855E+04</rscale>
<asrwt>0</asrwt>
<pdfrwt beam="1">  1       21 0.14910120E+00 0.10873393E+04</pdfrwt>
<pdfrwt beam="2">  1       21 0.19080370E+00 0.10873393E+04</pdfrwt>
<totfact> 0.21535928E+01</totfact>
</mgrwt>
</event>
<event>
 8    1  0.7418332E-006  0.1018959E+04  0.7818608E-02  0.8759636E-01
         21   -1    0    0  503  502  0.00000000000E+00  0.00000000000E+00  0.76694278940E+03  0.76694278940E+03  0.00000000000E+00 0. -1.
         21   -1    0    0  501  503 -0.00000000000E+00 -0.00000000000E+00 -0.17315985317E+04  0.17315985317E+04  0.00000000000E+00 0. -1.
    9000010    2    1    2  501    0  0.23998691708E+02 -0.23143477111E+03 -0.10753959006E+04  0.14735824761E+04  0.98021986321E+03 0.  0.
   -9000010    2    1    2    0  502 -0.23998691708E+02  0.23143477111E+03  0.11074015826E+03  0.10249588451E+04  0.99203793324E+03 0.  0.
        -13    1    3    3    0    0  0.12100604463E+03 -0.31668048790E+03  0.48348438982E+02  0.34244207827E+03  0.10566000000E+00 0.  1.
          4    1    3    3  501    0 -0.97007352926E+02  0.85245716796E+02 -0.11237443396E+04  0.11311403978E+04  0.00000000000E+00 0.  1.
         13    1    4    4    0    0 -0.37249208536E+03  0.45912558473E+03 -0.10711032440E+02  0.59132173441E+03  0.10566000000E+00 0. -1.
         -4    1    4    4    0  502  0.34849339365E+03 -0.22769081362E+03  0.12145119070E+03  0.43363711067E+03  0.00000000000E+00 0. -1.
<mgrwt>
<rscale>  2 0.10160711E+04</rscale>
<asrwt>0</asrwt>
<pdfrwt beam="1">  1       21 0.11799120E+00 0.10189589E+04</pdfrwt>
<pdfrwt beam="2">  1       21 0.26639977E+00 0.10189589E+04</pdfrwt>
<totfact> 0.11760420E+01</totfact>
</mgrwt>
</event>
<event>
 8    1  0.7418332E-006  0.1007426E+04  0.7818608E-02  0.8778669E-01
         21   -1    0    0  503  502  0.00000000000E+00  0.00000000000E+00  0.78095548588E+03  0.78095548588E+03  0.00000000000E+00 0. -1.
         21   -1    0    0  501  503 -0.00000000000E+00 -0.00000000000E+00 -0.14359107301E+04  0.14359107301E+04  0.00000000000E+00 0. -1.
    9000010    2    1    2  501    0 -0.13800905724E+03  0.54093690604E+02 -0.72948071611E+03  0.12066870104E+04  0.94972564391E+03 0.  0.
   -9000010    2    1    2    0  502  0.13800905724E+03 -0.54093690604E+02  0.74525471861E+02  0.10101792056E+04  0.99646141632E+03 0.  0.
        -13    1    3    3    0    0  0.35029199241E+03  0.18626346237E+03 -0.11972525300E+03  0.41440644871E+03  0.10566000000E+00 0.  1.
          4    1    3    3  501    0 -0.48830104966E+03 -0.13216977177E+03 -0.60975546311E+03  0.79228056171E+03  0.00000000000E+00 0.  1.
         13    1    4    4    0    0  0.52397264455E+03  0.51775301443E+02  0.23805469176E+03  0.57783913116E+03  0.10566000000E+00 0. -1.
         -4    1    4    4    0  502 -0.38596358731E+03 -0.10586899205E+03 -0.16352921989E+03  0.43234007443E+03  0.00000000000E+00 0. -1.
<mgrwt>
<rscale>  2 0.99567165E+03</rscale>
<asrwt>0</asrwt>
<pdfrwt beam="1">  1       21 0.12014700E+00 0.10074264E+04</pdfrwt>
<pdfrwt beam="2">  1       21 0.22090934E+00 0.10074264E+04</pdfrwt>
<totfact> 0.24154396E+01</totfact>
</mgrwt>
</event>
<event>
 8    1  0.7418332E-006  0.1066615E+04  0.7818608E-02  0.8719263E-01
         21   -1    0    0  503  502  0.00000000000E+00  0.00000000000E+00  0.41099381854E+03  0.41099381854E+03  0.00000000000E+00 0. -1.
         21   -1    0    0  501  503 -0.00000000000E+00 -0.00000000000E+00 -0.29012058277E+04  0.29012058277E+04  0.00000000000E+00 0. -1.
    9000010    2    1    2  501    0  0.22149408885E+03 -0.20637784495E+03 -0.16813817810E+04  0.19911582673E+04  0.10227487988E+04 0.  0.
   -9000010    2    1    2    0  502 -0.22149408885E+03  0.20637784495E+03 -0.80883022815E+03  0.13210413790E+04  0.99964620777E+03 0.  0.
        -13    1    3    3    0    0  0.31393297819E+02 -0.19286719217E+03 -0.17701613688E+04  0.17809139720E+04  0.10566000000E+00 0.  1.
          4    1    3    3  501    0  0.19010079103E+03 -0.13510652777E+02  0.88779587767E+02  0.21024429527E+03  0.00000000000E+00 0.  1.
         13    1    4    4    0    0 -0.64557815059E+02  0.22138929153E+03  0.19677556465E+03  0.30315270722E+03  0.10566000000E+00 0. -1.
         -4    1    4    4    0  502 -0.15693627379E+03 -0.15011446586E+02 -0.10056057928E+04  0.10178886718E+04  0.00000000000E+00 0. -1.
<mgrwt>
<rscale>  2 0.10610380E+04</rscale>
<asrwt>0</asrwt>
<pdfrwt beam="1">  1       21 0.63229818E-01 0.10666145E+04</pdfrwt>
<pdfrwt beam="2">  1       21 0.44633936E+00 0.10666145E+04</pdfrwt>
<totfact> 0.30736303E+00</totfact>
</mgrwt>
</event>
<event>
 8    1  0.7418332E-006  0.9996475E+03  0.7818608E-02  0.8784827E-01
         21   -1    0    0  503  502  0.00000000000E+00  0.00000000000E+00  0.40571112331E+03  0.40571112331E+03  0.00000000000E+00 0.  1.
         21   -1    0    0  501  503 -0.00000000000E+00 -0.00000000000E+00 -0.23882180410E+04  0.23882180410E+04  0.00000000000E+00 0.  1.
    9000010    2    1    2  501    0  0.40259450457E+02  0.49851995613E+02 -0.11154429707E+04  0.14706397135E+04  0.95627511794E+03 0.  0.
   -9000010    2    1    2    0  502 -0.40259450457E+02 -0.49851995613E+02 -0.86706394705E+03  0.13232894509E+04  0.99759161870E+03 0.  0.
        -13    1    3    3    0    0 -0.20393107349E+03 -0.37112965748E+03 -0.29286605970E+03  0.51487439777E+03  0.10566000000E+00 0.  1.
          4    1    3    3  501    0  0.24419052394E+03  0.42098165309E+03 -0.82257691097E+03  0.95576531569E+03  0.00000000000E+00 0.  1.
         13    1    4    4    0    0 -0.47972869494E+02  0.41568587757E+03 -0.10692827590E+03  0.43189097278E+03  0.10566000000E+00 0. -1.
         -4    1    4    4    0  502  0.77134190365E+01 -0.46553787318E+03 -0.76013567115E+03  0.89139847810E+03  0.00000000000E+00 0. -1.
<mgrwt>
<rscale>  2 0.98917716E+03</rscale>
<asrwt>0</asrwt>
<pdfrwt beam="1">  1       21 0.62417097E-01 0.99964748E+03</pdfrwt>
<pdfrwt beam="2">  1       21 0.36741816E+00 0.99964748E+03</pdfrwt>
<totfact> 0.11358647E+01</totfact>
</mgrwt>
</event>
<event>
 8    1  0.7418332E-006  0.1041333E+04  0.7818608E-02  0.8740249E-01
         21   -1    0    0  503  502  0.00000000000E+00  0.00000000000E+00  0.13083750780E+04  0.13083750780E+04  0.00000000000E+00 0.  1.
         21   -1    0    0  501  503 -0.00000000000E+00 -0.00000000000E+00 -0.10892810234E+04  0.10892810234E+04  0.00000000000E+00 0.  1.
    9000010    2    1    2  501    0 -0.25172555576E+03 -0.10936805207E+03 -0.48995148499E+03  0.11508370566E+04  0.10045129899E+04 0.  0.
   -9000010    2    1    2    0  502  0.25172555576E+03  0.10936805207E+03  0.70904553955E+03  0.12468190448E+04  0.98817256948E+03 0.  0.
        -13    1    3    3    0    0 -0.87023372082E+01 -0.22457065546E+03  0.26614040438E+03  0.34833667044E+03  0.10566000000E+00 0.  1.
          4    1    3    3  501    0 -0.24302321855E+03  0.11520260339E+03 -0.75609188937E+03  0.80250038614E+03  0.00000000000E+00 0.  1.
         13    1    4    4    0    0  0.47384607532E+03 -0.29676866407E+03  0.43934625409E+03  0.71107445828E+03  0.10566000000E+00 0. -1.
         -4    1    4    4    0  502 -0.22212051956E+03  0.40613671614E+03  0.26969928546E+03  0.53574458651E+03  0.00000000000E+00 0. -1.
<mgrwt>
<rscale>  2 0.10373716E+04</rscale>
<asrwt>0</asrwt>
<pdfrwt beam="1">  1       21 0.20128847E+00 0.10413325E+04</pdfrwt>
<pdfrwt beam="2">  1       21 0.16758169E+00 0.10413325E+04</pdfrwt>
<totfact> 0.12435756E+01</totfact>
</mgrwt>
</event>
<event>
 8    1  0.7418332E-006  0.1056170E+04  0.7818608E-02  0.8729041E-01
         21   -1    0    0  503  502  0.00000000000E+00  0.00000000000E+00  0.11405416225E+04  0.11405416225E+04  0.00000000000E+00 0.  1.
         21   -1    0    0  501  503 -0.00000000000E+00 -0.00000000000E+00 -0.10861422874E+04  0.10861422874E+04  0.00000000000E+00 0.  1.
    9000010    2    1    2  501    0 -0.16604557060E+03  0.23296122983E+03 -0.35952724005E+03  0.10922988705E+04  0.99096665944E+03 0.  0.
   -9000010    2    1    2    0  502  0.16604557060E+03 -0.23296122983E+03  0.41392657517E+03  0.11343850394E+04  0.10166868455E+04 0.  0.
        -13    1    3    3    0    0  0.11785231083E+02  0.19701228226E+03 -0.68870913912E+03  0.71643075067E+03  0.10566000000E+00 0.  1.
          4    1    3    3  501    0 -0.17783080168E+03  0.35948947565E+02  0.32918189907E+03  0.37586811987E+03  0.00000000000E+00 0.  1.
         13    1    4    4    0    0 -0.11110745697E+03 -0.55437179306E+03  0.36733560161E+02  0.56658831398E+03  0.10566000000E+00 0. -1.
         -4    1    4    4    0  502  0.27715302757E+03  0.32141056323E+03  0.37719301501E+03  0.56779672544E+03  0.00000000000E+00 0. -1.
<mgrwt>
<rscale>  2 0.10499307E+04</rscale>
<asrwt>0</asrwt>
<pdfrwt beam="1">  1       21 0.17546794E+00 0.10561696E+04</pdfrwt>
<pdfrwt beam="2">  1       21 0.16709881E+00 0.10561696E+04</pdfrwt>
<totfact> 0.20139583E+01</totfact>
</mgrwt>
</event>
<event>
 8    1  0.7418332E-006  0.1085314E+04  0.7818608E-02  0.8701261E-01
         21   -1    0    0  503  502  0.00000000000E+00  0.00000000000E+00  0.10641248930E+04  0.10641248930E+04  0.00000000000E+00 0.  1.
         21   -1    0    0  501  503 -0.00000000000E+00 -0.00000000000E+00 -0.11664117339E+04  0.11664117339E+04  0.00000000000E+00 0.  1.
    9000010    2    1    2  501    0 -0.25093290066E+03 -0.35609807962E+03  0.22840597710E+03  0.11090879006E+04  0.99404905204E+03 0.  0.
   -9000010    2    1    2    0  502  0.25093290066E+03  0.35609807962E+03 -0.33069281800E+03  0.11214487264E+04  0.97903847883E+03 0.  0.
        -13    1    3    3    0    0  0.35905828517E+03 -0.23403609513E+03 -0.42251846131E+02  0.43067502324E+03  0.10566000000E+00 0.  1.
          4    1    3    3  501    0 -0.60999118583E+03 -0.12206198448E+03  0.27065782323E+03  0.67841287733E+03  0.00000000000E+00 0.  1.
         13    1    4    4    0    0 -0.35897898542E+03  0.10986935161E+03 -0.26690169868E+03  0.46062318040E+03  0.10566000000E+00 0. -1.
         -4    1    4    4    0  502  0.60991188609E+03  0.24622872801E+03 -0.63791119319E+02  0.66082554596E+03  0.00000000000E+00 0. -1.
<mgrwt>
<rscale>  2 0.10818648E+04</rscale>
<asrwt>0</asrwt>
<pdfrwt beam="1">  1       21 0.16371152E+00 0.10853141E+04</pdfrwt>
<pdfrwt beam="2">  1       21 0.17944796E+00 0.10853141E+04</pdfrwt>
<totfact> 0.19828953E+01</totfact>
</mgrwt>
</event>
<event>
 8    1  0.7418332E-006  0.1101443E+04  0.7818608E-02  0.8689443E-01
         21   -1    0    0  503  502  0.00000000000E+00  0.00000000000E+00  0.13043656419E+04  0.13043656419E+04  0.00000000000E+00 0.  1.
         21   -1    0    0  501  503 -0.00000000000E+00 -0.00000000000E+00 -0.10787825425E+04  0.10787825425E+04  0.00000000000E+00 0.  1.
    9000010    2    1    2  501    0 -0.22805735560E+01  0.43747047756E+03 -0.35571369986E+03  0.11574581347E+04  0.10108370183E+04 0.  0.
   -9000010    2    1    2    0  502  0.22805735560E+01 -0.43747047756E+03  0.58129679932E+03  0.12256900497E+04  0.98642004709E+03 0.  0.
        -13    1    3    3    0    0 -0.32930085515E+03  0.73033068251E+02 -0.53798718866E+03  0.63498276243E+03  0.10566000000E+00 0.  1.
          4    1    3    3  501    0  0.32702028159E+03  0.36443740930E+03  0.18227348879E+03  0.52247537223E+03  0.00000000000E+00 0.  1.
         13    1    4    4    0    0 -0.21881283304E+03  0.21404229079E+03  0.41883456082E+03  0.51876349009E+03  0.10566000000E+00 0. -1.
         -4    1    4    4    0  502  0.22109340660E+03 -0.65151276834E+03  0.16246223850E+03  0.70692655962E+03  0.00000000000E+00 0. -1.
<mgrwt>
<rscale>  2 0.10958089E+04</rscale>
<asrwt>0</asrwt>
<pdfrwt beam="1">  1       21 0.20067164E+00 0.11014432E+04</pdfrwt>
<pdfrwt beam="2">  1       21 0.16596654E+00 0.11014432E+04</pdfrwt>
<totfact> 0.12797835E+01</totfact>
</mgrwt>
</event>
<event>
 8    1  0.7418332E-006  0.1104922E+04  0.7818608E-02  0.8693669E-01
         21   -1    0    0  501  502  0.00000000000E+00  0.00000000000E+00  0.83968370724E+03  0.83968370724E+03  0.00000000000E+00 0. -1.
         21   -1    0    0  502  503 -0.00000000000E+00 -0.00000000000E+00 -0.13993487853E+04  0.13993487853E+04  0.00000000000E+00 0. -1.
    9000010    2    1    2  501    0  0.78958832957E+00 -0.31540720770E+03 -0.16205830997E+03  0.11167432999E+04  0.10589477664E+04 0.  0.
   -9000010    2    1    2    0  503 -0.78958832957E+00  0.31540720770E+03 -0.39760676811E+03  0.11222891927E+04  0.10009793004E+04 0.  0.
        -13    1    3    3    0    0 -0.35832774253E+03  0.11787620441E+03 -0.35877707354E+03  0.52059059759E+03  0.10566000000E+00 0.  1.
          4    1    3    3  501    0  0.35911733086E+03 -0.43328341211E+03  0.19671876357E+03  0.59615270231E+03  0.00000000000E+00 0.  1.
         13    1    4    4    0    0 -0.13694759353E+03 -0.15138685336E+02  0.30460457258E+03  0.33431688555E+03  0.10566000000E+00 0. -1.
         -4    1    4    4    0  503  0.13615800520E+03  0.33054589304E+03 -0.70221134068E+03  0.78797230711E+03  0.00000000000E+00 0. -1.
<mgrwt>
<rscale>  2 0.10907970E+04</rscale>
<asrwt>0</asrwt>
<pdfrwt beam="1">  1       21 0.12918211E+00 0.11049220E+04</pdfrwt>
<pdfrwt beam="2">  1       21 0.21528443E+00 0.11049220E+04</pdfrwt>
<totfact> 0.21214856E+01</totfact>
</mgrwt>
</event>
<event>
 8    1  0.7418332E-006  0.1046350E+04  0.7818608E-02  0.8744852E-01
         21   -1    0    0  503  502  0.00000000000E+00  0.00000000000E+00  0.17863672141E+04  0.17863672141E+04  0.00000000000E+00 0. -1.
         21   -1    0    0  501  503 -0.00000000000E+00 -0.00000000000E+00 -0.10127050320E+04  0.10127050320E+04  0.00000000000E+00 0. -1.
    9000010    2    1    2  501    0  0.48988286246E+02 -0.23531430460E+03 -0.53278005673E+03  0.11252626278E+04  0.96155536420E+03 0.  0.
   -9000010    2    1    2    0  502 -0.48988286246E+02  0.23531430460E+03  0.13064422388E+04  0.16738096184E+04  0.10183686175E+04 0.  0.
        -13    1    3    3    0    0 -0.82127461642E+02  0.10554414558E+03 -0.70777227826E+03  0.72029583899E+03  0.10566000000E+00 0.  1.
          4    1    3    3  501    0  0.13111574789E+03 -0.34085845018E+03  0.17499222153E+03  0.40496678876E+03  0.00000000000E+00 0.  1.
         13    1    4    4    0    0  0.37182077000E+03 -0.19175361689E+03  0.73404102837E+03  0.84488838143E+03  0.10566000000E+00 0. -1.
         -4    1    4    4    0  502 -0.42080905624E+03  0.42706792149E+03  0.57240121040E+03  0.82892123694E+03  0.00000000000E+00 0. -1.
<mgrwt>
<rscale>  2 0.10322657E+04</rscale>
<asrwt>0</asrwt>
<pdfrwt beam="1">  1       21 0.27482572E+00 0.10463495E+04</pdfrwt>
<pdfrwt beam="2">  1       21 0.15580078E+00 0.10463495E+04</pdfrwt>
<totfact> 0.44823289E+00</totfact>
</mgrwt>
</event>
<event>
 8    1  0.9674929E-006  0.1289464E+04  0.7818608E-02  0.8590103E-01
         21   -1    0    0  503  502  0.00000000000E+00  0.00000000000E+00  0.14919037349E+04  0.14919037349E+04  0.00000000000E+00 0. -1.
         21   -1    0    0  501  503 -0.00000000000E+00 -0.00000000000E+00 -0.13339411755E+04  0.13339411755E+04  0.00000000000E+00 0. -1.
    9000010    2    1    2  501    0 -0.91141653311E+02  0.21906544925E+03 -0.70903680838E+03  0.14715467677E+04  0.12674463388E+04 0.  0.
   -9000010    2    1    2    0  502  0.91141653311E+02 -0.21906544925E+03  0.86699936775E+03  0.13542981428E+04  0.10129852337E+04 0.  0.
        -13    1    3    3    0    0  0.86623662547E+02  0.30847065836E+03 -0.10384198244E+04  0.10867260689E+04  0.10566000000E+00 0.  1.
          4    1    3    3  501    0 -0.17776531586E+03 -0.89405209115E+02  0.32938301603E+03  0.38482069875E+03  0.00000000000E+00 0.  1.
         13    1    4    4    0    0 -0.21385852928E+03 -0.18459045577E+03 -0.13010098931E+03  0.31102312694E+03  0.10566000000E+00 0. -1.
         -4    1    4    4    0  502  0.30500018260E+03 -0.34474993478E+02  0.99710035706E+03  0.10432750158E+04  0.00000000000E+00 0. -1.
<mgrwt>
<rscale>  2 0.12221010E+04</rscale>
<asrwt>0</asrwt>
<pdfrwt beam="1">  1       21 0.22952365E+00 0.12894637E+04</pdfrwt>
<pdfrwt beam="2">  1       21 0.20522172E+00 0.12894637E+04</pdfrwt>
<totfact> 0.35695242E+00</totfact>
</mgrwt>
</event>
<event>
 8    1  0.7418332E-006  0.1041133E+04  0.7818608E-02  0.8738738E-01
         21   -1    0    0  501  502  0.00000000000E+00  0.00000000000E+00  0.95809406484E+03  0.95809406484E+03  0.00000000000E+00 0. -1.
         21   -1    0    0  502  503 -0.00000000000E+00 -0.00000000000E+00 -0.12346106260E+04  0.12346106260E+04  0.00000000000E+00 0. -1.
    9000010    2    1    2  501    0  0.27610033142E+03 -0.69710585616E+02  0.19179286609E+03  0.10586511820E+04  0.10014324055E+04 0.  0.
   -9000010    2    1    2    0  503 -0.27610033142E+03  0.69710585616E+02 -0.46830942720E+03  0.11340535088E+04  0.99281049677E+03 0.  0.
        -13    1    3    3    0    0 -0.30496442707E+03  0.23218372760E+03  0.31996415380E+02  0.38462496916E+03  0.10566000000E+00 0.  1.
          4    1    3    3  501    0  0.58106475849E+03 -0.30189431322E+03  0.15979645071E+03  0.67402621282E+03  0.00000000000E+00 0.  1.
         13    1    4    4    0    0 -0.60942578360E+03 -0.11708578328E+02 -0.50149787906E+03  0.78932693504E+03  0.10566000000E+00 0. -1.
         -4    1    4    4    0  503  0.33332545218E+03  0.81419163944E+02  0.33188451862E+02  0.34472657377E+03  0.00000000000E+00 0. -1.
<mgrwt>
<rscale>  2 0.10390541E+04</rscale>
<asrwt>0</asrwt>
<pdfrwt beam="1">  1       21 0.14739909E+00 0.10411330E+04</pdfrwt>
<pdfrwt beam="2">  1       21 0.18994010E+00 0.10411330E+04</pdfrwt>
<totfact> 0.22897672E+01</totfact>
</mgrwt>
</event>
<event>
 8    1  0.7418332E-006  0.1065042E+04  0.7818608E-02  0.8725568E-01
         21   -1    0    0  503  502  0.00000000000E+00  0.00000000000E+00  0.10880241768E+04  0.10880241768E+04  0.00000000000E+00 0.  1.
         21   -1    0    0  501  503 -0.00000000000E+00 -0.00000000000E+00 -0.10375195230E+04  0.10375195230E+04  0.00000000000E+00 0.  1.
    9000010    2    1    2  501    0 -0.10255929930E+03  0.15390672610E+03 -0.17762145031E+03  0.10363438478E+04  0.10041182705E+04 0.  0.
   -9000010    2    1    2    0  502  0.10255929930E+03 -0.15390672610E+03  0.22812610418E+03  0.10891998520E+04  0.10488608620E+04 0.  0.
        -13    1    3    3    0    0 -0.49424954490E+03  0.32699423586E+03 -0.94300244443E+02  0.60008365265E+03  0.10566000000E+00 0.  1.
          4    1    3    3  501    0  0.39169024560E+03 -0.17308750976E+03 -0.83321205869E+02  0.43626019516E+03  0.00000000000E+00 0.  1.
         13    1    4    4    0    0  0.35248039364E+03  0.17824317829E+03  0.46552365866E+03  0.61051236387E+03  0.10566000000E+00 0. -1.
         -4    1    4    4    0  502 -0.24992109434E+03 -0.33214990438E+03 -0.23739755449E+03  0.47868748809E+03  0.00000000000E+00 0. -1.
<mgrwt>
<rscale>  2 0.10538589E+04</rscale>
<asrwt>0</asrwt>
<pdfrwt beam="1">  1       21 0.16738834E+00 0.10650422E+04</pdfrwt>
<pdfrwt beam="2">  1       21 0.15961839E+00 0.10650422E+04</pdfrwt>
<totfact> 0.27204843E+01</totfact>
</mgrwt>
</event>
<event>
 8    1  0.7418332E-006  0.1030031E+04  0.7818608E-02  0.8773681E-01
         21   -1    0    0  501  502  0.00000000000E+00  0.00000000000E+00  0.82778933112E+03  0.82778933112E+03  0.00000000000E+00 0. -1.
         21   -1    0    0  502  503 -0.00000000000E+00 -0.00000000000E+00 -0.11838383468E+04  0.11838383468E+04  0.00000000000E+00 0. -1.
    9000010    2    1    2  501    0 -0.13600566065E+03 -0.14778390718E+03 -0.10246097288E+02  0.10300818951E+04  0.10102604145E+04 0.  0.
   -9000010    2    1    2    0  503  0.13600566065E+03  0.14778390718E+03 -0.34580291843E+03  0.98154578287E+03  0.89638989425E+03 0.  0.
        -13    1    3    3    0    0  0.25610810948E+03 -0.19532811702E+02  0.38232773049E+03  0.46059461475E+03  0.10566000000E+00 0.  1.
          4    1    3    3  501    0 -0.39211377013E+03 -0.12825109548E+03 -0.39257382778E+03  0.56948728034E+03  0.00000000000E+00 0.  1.
         13    1    4    4    0    0  0.46064717638E+03  0.85654115806E+02 -0.43483767845E+03  0.63923099615E+03  0.10566000000E+00 0. -1.
         -4    1    4    4    0  503 -0.32464151574E+03  0.62129791376E+02  0.89034760023E+02  0.34231478672E+03  0.00000000000E+00 0. -1.
<mgrwt>
<rscale>  2 0.10009699E+04</rscale>
<asrwt>0</asrwt>
<pdfrwt beam="1">  1       21 0.12735220E+00 0.10300309E+04</pdfrwt>
<pdfrwt beam="2">  1       21 0.18212898E+00 0.10300309E+04</pdfrwt>
<totfact> 0.40863627E+01</totfact>
</mgrwt>
</event>
<event>
 8    1  0.7418332E-006  0.1101659E+04  0.7818608E-02  0.8696574E-01
         21   -1    0    0  501  502  0.00000000000E+00  0.00000000000E+00  0.93342630813E+03  0.93342630813E+03  0.00000000000E+00 0.  1.
         21   -1    0    0  502  503 -0.00000000000E+00 -0.00000000000E+00 -0.15945925371E+04  0.15945925371E+04  0.00000000000E+00 0.  1.
    9000010    2    1    2  501    0  0.21103941714E+02 -0.30011856777E+03  0.26291300769E+03  0.11325966251E+04  0.10597807955E+04 0.  0.
   -9000010    2    1    2    0  503 -0.21103941714E+02  0.30011856777E+03 -0.92407923671E+03  0.13954222202E+04  0.10013811491E+04 0.  0.
        -13    1    3    3    0    0  0.23104432589E+03 -0.89275339181E+02  0.62008737575E+03  0.66772743798E+03  0.10566000000E+00 0.  1.
          4    1    3    3  501    0 -0.20994038418E+03 -0.21084322858E+03 -0.35717436805E+03  0.46486918713E+03  0.00000000000E+00 0.  1.
         13    1    4    4    0    0 -0.15268147587E+02 -0.37202188420E+03 -0.36033606303E+03  0.51814620344E+03  0.10566000000E+00 0. -1.
         -4    1    4    4    0  503 -0.58357941275E+01  0.67214045196E+03 -0.56374317368E+03  0.87727601673E+03  0.00000000000E+00 0. -1.
<mgrwt>
<rscale>  2 0.10873685E+04</rscale>
<asrwt>0</asrwt>
<pdfrwt beam="1">  1       21 0.14360405E+00 0.11016587E+04</pdfrwt>
<pdfrwt beam="2">  1       21 0.24532193E+00 0.11016587E+04</pdfrwt>
<totfact> 0.92852352E+00</totfact>
</mgrwt>
</event>
<event>
 8    1  0.7418332E-006  0.1089616E+04  0.7818608E-02  0.8708530E-01
         21   -1    0    0  501  502  0.00000000000E+00  0.00000000000E+00  0.21879523544E+04  0.21879523544E+04  0.00000000000E+00 0. -1.
         21   -1    0    0  502  503 -0.00000000000E+00 -0.00000000000E+00 -0.55287586874E+03  0.55287586874E+03  0.00000000000E+00 0. -1.
    9000010    2    1    2  501    0  0.16037874835E+03  0.83782226499E+02  0.12149633474E+04  0.16319921218E+04  0.10744866428E+04 0.  0.
   -9000010    2    1    2    0  503 -0.16037874835E+03 -0.83782226499E+02  0.42011313827E+03  0.11088361014E+04  0.10100899200E+04 0.  0.
        -13    1    3    3    0    0  0.42775463634E+03  0.28996140051E+03  0.11852993873E+04  0.12930530892E+04  0.10566000000E+00 0.  1.
          4    1    3    3  501    0 -0.26737588800E+03 -0.20617917401E+03  0.29663960090E+02  0.33893903258E+03  0.00000000000E+00 0.  1.
         13    1    4    4    0    0 -0.47023955481E+03 -0.12191228521E+03 -0.10586010943E+03  0.49718630122E+03  0.10566000000E+00 0. -1.
         -4    1    4    4    0  503  0.30986080646E+03  0.38130058707E+02  0.52597324770E+03  0.61164980017E+03  0.00000000000E+00 0. -1.
<mgrwt>
<rscale>  2 0.10733954E+04</rscale>
<asrwt>0</asrwt>
<pdfrwt beam="1">  1       21 0.33660805E+00 0.10896157E+04</pdfrwt>
<pdfrwt beam="2">  1       21 0.85057827E-01 0.10896157E+04</pdfrwt>
<totfact> 0.87267324E+00</totfact>
</mgrwt>
</event>
<event>
 8    1  0.7418332E-006  0.1040886E+04  0.7818608E-02  0.8737832E-01
         21   -1    0    0  501  502  0.00000000000E+00  0.00000000000E+00  0.58952348185E+03  0.58952348185E+03  0.00000000000E+00 0.  1.
         21   -1    0    0  502  503 -0.00000000000E+00 -0.00000000000E+00 -0.22352082917E+04  0.22352082917E+04  0.00000000000E+00 0.  1.
    9000010    2    1    2  501    0  0.54646884761E+02  0.24891915594E+03 -0.22194592121E+03  0.10610777899E+04  0.10058225769E+04 0.  0.
   -9000010    2    1    2    0  503 -0.54646884761E+02 -0.24891915594E+03 -0.14237388887E+04  0.17636539836E+04  0.10092055899E+04 0.  0.
        -13    1    3    3    0    0  0.17620001011E+03 -0.35311398830E+03  0.33156089564E+02  0.39602432972E+03  0.10566000000E+00 0.  1.
          4    1    3    3  501    0 -0.12155312535E+03  0.60203314423E+03 -0.25510201077E+03  0.66505346021E+03  0.00000000000E+00 0.  1.
         13    1    4    4    0    0  0.39935126147E+03  0.13737854648E+03 -0.41593504389E+03  0.59275312481E+03  0.10566000000E+00 0. -1.
         -4    1    4    4    0  503 -0.45399814623E+03 -0.38629770241E+03 -0.10078038448E+04  0.11709008588E+04  0.00000000000E+00 0. -1.
<mgrwt>
<rscale>  2 0.10400648E+04</rscale>
<asrwt>0</asrwt>
<pdfrwt beam="1">  1       21 0.90695920E-01 0.10408857E+04</pdfrwt>
<pdfrwt beam="2">  1       21 0.34387820E+00 0.10408857E+04</pdfrwt>
<totfact> 0.66575993E+00</totfact>
</mgrwt>
</event>
<event>
 8    1  0.7418332E-006  0.1110571E+04  0.7818608E-02  0.8677673E-01
         21   -1    0    0  503  502  0.00000000000E+00  0.00000000000E+00  0.76496252200E+03  0.76496252200E+03  0.00000000000E+00 0. -1.
         21   -1    0    0  501  503 -0.00000000000E+00 -0.00000000000E+00 -0.18786648661E+04  0.18786648661E+04  0.00000000000E+00 0. -1.
    9000010    2    1    2  501    0  0.40959590577E+03 -0.28757839423E+03 -0.10575288276E+04  0.15316367719E+04  0.98847045538E+03 0.  0.
   -9000010    2    1    2    0  502 -0.40959590577E+03  0.28757839423E+03 -0.56173516513E+02  0.11119906161E+04  0.99141188595E+03 0.  0.
        -13    1    3    3    0    0 -0.18144013691E+03  0.22246765633E+03 -0.11875949397E+03  0.31067058111E+03  0.10566000000E+00 0.  1.
          4    1    3    3  501    0  0.59103604268E+03 -0.51004605056E+03 -0.93876933359E+03  0.12209661908E+04  0.00000000000E+00 0.  1.
         13    1    4    4    0    0  0.24880469795E+03  0.36414885423E+03 -0.82271944573E+02  0.44863888572E+03  0.10566000000E+00 0. -1.
         -4    1    4    4    0  502 -0.65840060371E+03 -0.76570459992E+02  0.26098428061E+02  0.66335173043E+03  0.00000000000E+00 0. -1.
<mgrwt>
<rscale>  2 0.11099140E+04</rscale>
<asrwt>0</asrwt>
<pdfrwt beam="1">  1       21 0.11768654E+00 0.11105709E+04</pdfrwt>
<pdfrwt beam="2">  1       21 0.28902536E+00 0.11105709E+04</pdfrwt>
<totfact> 0.79975393E+00</totfact>
</mgrwt>
</event>
<event>
 8    1  0.7418332E-006  0.1028797E+04  0.7818608E-02  0.8748161E-01
         21   -1    0    0  503  502  0.00000000000E+00  0.00000000000E+00  0.12812404936E+04  0.12812404936E+04  0.00000000000E+00 0. -1.
         21   -1    0    0  501  503 -0.00000000000E+00 -0.00000000000E+00 -0.10845211903E+04  0.10845211903E+04  0.00000000000E+00 0. -1.
    9000010    2    1    2  501    0  0.28390655820E+02  0.23528021729E+03 -0.47968927056E+03  0.11351320517E+04  0.10011294464E+04 0.  0.
   -9000010    2    1    2    0  502 -0.28390655820E+02 -0.23528021729E+03  0.67640857390E+03  0.12306296322E+04  0.10003788896E+04 0.  0.
        -13    1    3    3    0    0  0.18897206689E+03  0.57507909053E+03 -0.45727030062E+03  0.75863201977E+03  0.10566000000E+00 0.  1.
          4    1    3    3  501    0 -0.16058141107E+03 -0.33979887324E+03 -0.22418969939E+02  0.37650003194E+03  0.00000000000E+00 0.  1.
         13    1    4    4    0    0  0.15372943530E+03 -0.17161396273E+03  0.90363639057E+03  0.93254642191E+03  0.10566000000E+00 0. -1.
         -4    1    4    4    0  502 -0.18212009112E+03 -0.63666254554E+02 -0.22722781668E+03  0.29808321024E+03  0.00000000000E+00 0. -1.
<mgrwt>
<rscale>  2 0.10286142E+04</rscale>
<asrwt>0</asrwt>
<pdfrwt beam="1">  1       21 0.19711392E+00 0.10287969E+04</pdfrwt>
<pdfrwt beam="2">  1       21 0.16684941E+00 0.10287969E+04</pdfrwt>
<totfact> 0.13639358E+01</totfact>
</mgrwt>
</event>
<event>
 8    1  0.7418332E-006  0.1054977E+04  0.7818608E-02  0.8724763E-01
         21   -1    0    0  501  502  0.00000000000E+00  0.00000000000E+00  0.14264893761E+04  0.14264893761E+04  0.00000000000E+00 0.  1.
         21   -1    0    0  502  503 -0.00000000000E+00 -0.00000000000E+00 -0.11584661346E+04  0.11584661346E+04  0.00000000000E+00 0.  1.
    9000010    2    1    2  501    0  0.12431246396E+03 -0.30396854373E+03  0.87316702986E+03  0.13694517087E+04  0.10025601509E+04 0.  0.
   -9000010    2    1    2    0  503 -0.12431246396E+03  0.30396854373E+03 -0.60514378835E+03  0.12155038020E+04  0.10016985693E+04 0.  0.
        -13    1    3    3    0    0 -0.43167714128E+03 -0.23765358317E+02  0.35194088346E+03  0.55746958946E+03  0.10566000000E+00 0.  1.
          4    1    3    3  501    0  0.55598960524E+03 -0.28020318541E+03  0.52122614640E+03  0.81198211923E+03  0.00000000000E+00 0.  1.
         13    1    4    4    0    0 -0.50704127239E+03  0.26187059870E+03 -0.60332471541E+03  0.83046239275E+03  0.10566000000E+00 0. -1.
         -4    1    4    4    0  503  0.38272880843E+03  0.42097945028E+02 -0.18190729305E+01  0.38504140921E+03  0.00000000000E+00 0. -1.
<mgrwt>
<rscale>  2 0.10547727E+04</rscale>
<asrwt>0</asrwt>
<pdfrwt beam="1">  1       21 0.21945990E+00 0.10549774E+04</pdfrwt>
<pdfrwt beam="2">  1       21 0.17822556E+00 0.10549774E+04</pdfrwt>
<totfact> 0.73382515E+00</totfact>
</mgrwt>
</event>
<event>
 8    1  0.7418332E-006  0.1103685E+04  0.7818608E-02  0.8688691E-01
         21   -1    0    0  503  502  0.00000000000E+00  0.00000000000E+00  0.67661803568E+03  0.67661803568E+03  0.00000000000E+00 0.  1.
         21   -1    0    0  501  503 -0.00000000000E+00 -0.00000000000E+00 -0.22321436440E+04  0.22321436440E+04  0.00000000000E+00 0.  1.
    9000010    2    1    2  501    0 -0.37835191212E+03  0.59493216669E+02 -0.14420485561E+04  0.17992579909E+04  0.10055524191E+04 0.  0.
   -9000010    2    1    2    0  502  0.37835191212E+03 -0.59493216669E+02 -0.11347705223E+03  0.11095036888E+04  0.10350998898E+04 0.  0.
        -13    1    3    3    0    0 -0.31151634980E+03 -0.25155742019E+03 -0.14255121897E+04  0.14806784208E+04  0.10566000000E+00 0.  1.
          4    1    3    3  501    0 -0.66835562320E+02  0.31105063686E+03 -0.16536366471E+02  0.31857957012E+03  0.00000000000E+00 0.  1.
         13    1    4    4    0    0  0.16947822326E+03  0.46090718920E+03 -0.22103090598E+03  0.53852853015E+03  0.10566000000E+00 0. -1.
         -4    1    4    4    0  502  0.20887368887E+03 -0.52040040587E+03  0.10755385375E+03  0.57097515865E+03  0.00000000000E+00 0. -1.
<mgrwt>
<rscale>  2 0.10967038E+04</rscale>
<asrwt>0</asrwt>
<pdfrwt beam="1">  1       21 0.10409508E+00 0.11036854E+04</pdfrwt>
<pdfrwt beam="2">  1       21 0.34340672E+00 0.11036854E+04</pdfrwt>
<totfact> 0.46271791E+00</totfact>
</mgrwt>
</event>
<event>
 8    1  0.7418332E-006  0.1046681E+04  0.7818608E-02  0.8733919E-01
         21   -1    0    0  503  502  0.00000000000E+00  0.00000000000E+00  0.14556590367E+04  0.14556590367E+04  0.00000000000E+00 0. -1.
         21   -1    0    0  501  503 -0.00000000000E+00 -0.00000000000E+00 -0.11900289788E+04  0.11900289788E+04  0.00000000000E+00 0. -1.
    9000010    2    1    2  501    0 -0.66073292607E+02  0.29969623924E+03  0.94102802383E+03  0.14075068378E+04  0.10006788901E+04 0.  0.
   -9000010    2    1    2    0  502  0.66073292607E+02 -0.29969623924E+03 -0.67539796593E+03  0.12381811777E+04  0.99133581625E+03 0.  0.
        -13    1    3    3    0    0  0.24289033561E+03  0.56681411369E+03  0.70156166329E+03  0.93405713593E+03  0.10566000000E+00 0.  1.
          4    1    3    3  501    0 -0.30896362822E+03 -0.26711787445E+03  0.23946636054E+03  0.47344970192E+03  0.00000000000E+00 0.  1.
         13    1    4    4    0    0 -0.70404516249E+02 -0.15422585199E+03  0.24415411596E+03  0.29724342354E+03  0.10566000000E+00 0. -1.
         -4    1    4    4    0  502  0.13647780886E+03 -0.14547038725E+03 -0.91955208189E+03  0.94093775415E+03  0.00000000000E+00 0. -1.
<mgrwt>
<rscale>  2 0.10444419E+04</rscale>
<asrwt>0</asrwt>
<pdfrwt beam="1">  1       21 0.22394754E+00 0.10466813E+04</pdfrwt>
<pdfrwt beam="2">  1       21 0.18308138E+00 0.10466813E+04</pdfrwt>
<totfact> 0.62107751E+00</totfact>
</mgrwt>
</event>
<event>
 8    1  0.7418332E-006  0.1113089E+04  0.7818608E-02  0.8678296E-01
         21   -1    0    0  501  502  0.00000000000E+00  0.00000000000E+00  0.82239459276E+03  0.82239459276E+03  0.00000000000E+00 0. -1.
         21   -1    0    0  502  503 -0.00000000000E+00 -0.00000000000E+00 -0.18004049294E+04  0.18004049294E+04  0.00000000000E+00 0. -1.
    9000010    2    1    2  501    0 -0.15477828786E+03  0.45386347811E+03  0.62321731196E+02  0.10992317563E+04  0.98715656348E+03 0.  0.
   -9000010    2    1    2    0  503  0.15477828786E+03 -0.45386347811E+03 -0.10403320678E+04  0.15235677658E+04  0.10044996518E+04 0.  0.
        -13    1    3    3    0    0 -0.23914354977E+03  0.38239317865E+03 -0.41280448839E+03  0.61140963133E+03  0.10566000000E+00 0.  1.
          4    1    3    3  501    0  0.84365261905E+02  0.71470299460E+02  0.47512621959E+03  0.48782212502E+03  0.00000000000E+00 0.  1.
         13    1    4    4    0    0 -0.10177327199E+03 -0.69086096408E+03 -0.91817402652E+03  0.11535554710E+04  0.10566000000E+00 0. -1.
         -4    1    4    4    0  503  0.25655155985E+03  0.23699748597E+03 -0.12215804128E+03  0.37001229475E+03  0.00000000000E+00 0. -1.
<mgrwt>
<rscale>  2 0.11091622E+04</rscale>
<asrwt>0</asrwt>
<pdfrwt beam="1">  1       21 0.12652225E+00 0.11130894E+04</pdfrwt>
<pdfrwt beam="2">  1       21 0.27698537E+00 0.11130894E+04</pdfrwt>
<totfact> 0.79382459E+00</totfact>
</mgrwt>
</event>
<event>
 8    1  0.7418332E-006  0.1045308E+04  0.7818608E-02  0.8754318E-01
         21   -1    0    0  501  502  0.00000000000E+00  0.00000000000E+00  0.10574574624E+04  0.10574574624E+04  0.00000000000E+00 0.  1.
         21   -1    0    0  502  503 -0.00000000000E+00 -0.00000000000E+00 -0.10842009661E+04  0.10842009661E+04  0.00000000000E+00 0.  1.
    9000010    2    1    2  501    0  0.24592711591E+03  0.16085612171E+03  0.36967141560E+03  0.10237075775E+04  0.90827606507E+03 0.  0.
   -9000010    2    1    2    0  503 -0.24592711591E+03 -0.16085612171E+03 -0.39641491935E+03  0.11179508511E+04  0.10031522711E+04 0.  0.
        -13    1    3    3    0    0 -0.10109887849E+03  0.13184244921E+03  0.58911568935E+03  0.61209535307E+03  0.10566000000E+00 0.  1.
          4    1    3    3  501    0  0.34702599440E+03  0.29013672493E+02 -0.21944427374E+03  0.41161222438E+03  0.00000000000E+00 0.  1.
         13    1    4    4    0    0 -0.58399488660E+03 -0.97499970048E+00 -0.15581075323E+02  0.58420352556E+03  0.10566000000E+00 0. -1.
         -4    1    4    4    0  503  0.33806777069E+03 -0.15988112201E+03 -0.38083384403E+03  0.53374732553E+03  0.00000000000E+00 0. -1.
<mgrwt>
<rscale>  2 0.10218618E+04</rscale>
<asrwt>0</asrwt>
<pdfrwt beam="1">  1       21 0.16268576E+00 0.10453082E+04</pdfrwt>
<pdfrwt beam="2">  1       21 0.16680015E+00 0.10453082E+04</pdfrwt>
<totfact> 0.26006841E+01</totfact>
</mgrwt>
</event>
<event>
 8    1  0.7418332E-006  0.1033227E+04  0.7818608E-02  0.8745936E-01
         21   -1    0    0  501  502  0.00000000000E+00  0.00000000000E+00  0.10318699413E+04  0.10318699413E+04  0.00000000000E+00 0. -1.
         21   -1    0    0  502  503 -0.00000000000E+00 -0.00000000000E+00 -0.13330489062E+04  0.13330489062E+04  0.00000000000E+00 0. -1.
    9000010    2    1    2  501    0  0.27440461131E+03 -0.33701075173E+02 -0.71858582423E+03  0.12585400055E+04  0.99555196018E+03 0.  0.
   -9000010    2    1    2    0  503 -0.27440461131E+03  0.33701075173E+02  0.41740685935E+03  0.11063788421E+04  0.98661644159E+03 0.  0.
        -13    1    3    3    0    0  0.40027393332E+02  0.51846461840E+02 -0.92951856234E+03  0.93182349012E+03  0.10566000000E+00 0.  1.
          4    1    3    3  501    0  0.23437721798E+03 -0.85547537013E+02  0.21093273812E+03  0.32671651536E+03  0.00000000000E+00 0.  1.
         13    1    4    4    0    0  0.87484414645E+02 -0.46563159229E+02 -0.29069288402E+03  0.30712214929E+03  0.10566000000E+00 0. -1.
         -4    1    4    4    0  503 -0.36188902596E+03  0.80264234402E+02  0.70809974336E+03  0.79925669280E+03  0.00000000000E+00 0. -1.
<mgrwt>
<rscale>  2 0.10310682E+04</rscale>
<asrwt>0</asrwt>
<pdfrwt beam="1">  1       21 0.15874922E+00 0.10332267E+04</pdfrwt>
<pdfrwt beam="2">  1       21 0.20508445E+00 0.10332267E+04</pdfrwt>
<totfact> 0.13855306E+01</totfact>
</mgrwt>
</event>
<event>
 8    1  0.7418332E-006  0.1003312E+04  0.7818608E-02  0.8787879E-01
         21   -1    0    0  503  502  0.00000000000E+00  0.00000000000E+00  0.55394801193E+03  0.55394801193E+03  0.00000000000E+00 0.  1.
         21   -1    0    0  501  503 -0.00000000000E+00 -0.00000000000E+00 -0.18044609457E+04  0.18044609457E+04  0.00000000000E+00 0.  1.
    9000010    2    1    2  501    0  0.10513245741E+03  0.63049556780E+02 -0.93348599095E+03  0.13704127756E+04  0.99579465750E+03 0.  0.
   -9000010    2    1    2    0  502 -0.10513245741E+03 -0.63049556780E+02 -0.31702694286E+03  0.98799618211E+03  0.92768652742E+03 0.  0.
        -13    1    3    3    0    0  0.52394982746E+03  0.36391050191E+02 -0.74213463409E+03  0.90918180608E+03  0.10566000000E+00 0.  1.
          4    1    3    3  501    0 -0.41881737005E+03  0.26658506590E+02 -0.19135135686E+03  0.46123096948E+03  0.00000000000E+00 0.  1.
         13    1    4    4    0    0  0.25463141151E+03  0.69071803146E+01  0.22084246929E+03  0.33712945922E+03  0.10566000000E+00 0. -1.
         -4    1    4    4    0  502 -0.35976386892E+03 -0.69956737095E+02 -0.53786941215E+03  0.65086672289E+03  0.00000000000E+00 0. -1.
<mgrwt>
<rscale>  2 0.98597777E+03</rscale>
<asrwt>0</asrwt>
<pdfrwt beam="1">  1       21 0.85222772E-01 0.10033121E+04</pdfrwt>
<pdfrwt beam="2">  1       21 0.27760937E+00 0.10033121E+04</pdfrwt>
<totfact> 0.23096457E+01</totfact>
</mgrwt>
</event>
<event>
 8    1  0.7418332E-006  0.1000042E+04  0.7818608E-02  0.8775911E-01
         21   -1    0    0  501  502  0.00000000000E+00  0.00000000000E+00  0.63237730993E+03  0.63237730993E+03  0.00000000000E+00 0.  1.
         21   -1    0    0  502  503 -0.00000000000E+00 -0.00000000000E+00 -0.16133062360E+04  0.16133062360E+04  0.00000000000E+00 0.  1.
    9000010    2    1    2  501    0 -0.72306057287E+02 -0.25458022910E+02 -0.67073890102E+03  0.12041489769E+04  0.99709969828E+03 0.  0.
   -9000010    2    1    2    0  503  0.72306057287E+02  0.25458022910E+02 -0.31019002502E+03  0.10415345690E+04  0.99131232718E+03 0.  0.
        -13    1    3    3    0    0 -0.35985531376E+03  0.32994554005E+03 -0.54144541636E+03  0.72905627787E+03  0.10566000000E+00 0.  1.
          4    1    3    3  501    0  0.28754925647E+03 -0.35540356296E+03 -0.12929348466E+03  0.47509269900E+03  0.00000000000E+00 0.  1.
         13    1    4    4    0    0 -0.25390043174E+02  0.11396359612E+03  0.34966348456E+03  0.36864199318E+03  0.10566000000E+00 0. -1.
         -4    1    4    4    0  503  0.97696100462E+02 -0.88505573213E+02 -0.65985350959E+03  0.67289257586E+03  0.00000000000E+00 0. -1.
<mgrwt>
<rscale>  2 0.99859635E+03</rscale>
<asrwt>0</asrwt>
<pdfrwt beam="1">  1       21 0.97288817E-01 0.10000420E+04</pdfrwt>
<pdfrwt beam="2">  1       21 0.24820096E+00 0.10000420E+04</pdfrwt>
<totfact> 0.26826556E+01</totfact>
</mgrwt>
</event>
<event>
 8    1  0.7418332E-006  0.1161421E+04  0.7818608E-02  0.8645586E-01
         21   -1    0    0  501  502  0.00000000000E+00  0.00000000000E+00  0.71552369218E+03  0.71552369218E+03  0.00000000000E+00 0.  1.
         21   -1    0    0  502  503 -0.00000000000E+00 -0.00000000000E+00 -0.19108518160E+04  0.19108518160E+04  0.00000000000E+00 0.  1.
    9000010    2    1    2  501    0 -0.19138650826E+03 -0.45465608008E+03 -0.28406295328E+03  0.11501294817E+04  0.99938236755E+03 0.  0.
   -9000010    2    1    2    0  503  0.19138650826E+03  0.45465608008E+03 -0.91126517049E+03  0.14762460264E+04  0.10514547888E+04 0.  0.
        -13    1    3    3    0    0 -0.23209858128E+03 -0.10160517342E+03 -0.61460723940E+03  0.66478224449E+03  0.10566000000E+00 0.  1.
          4    1    3    3  501    0  0.40712073021E+02 -0.35305090666E+03  0.33054428613E+03  0.48534723722E+03  0.00000000000E+00 0.  1.
         13    1    4    4    0    0 -0.80096111944E+02 -0.28215032924E+03 -0.52449110981E+03  0.60092855721E+03  0.10566000000E+00 0. -1.
         -4    1    4    4    0  503  0.27148262020E+03  0.73680640932E+03 -0.38677406068E+03  0.87531746921E+03  0.00000000000E+00 0. -1.
<mgrwt>
<rscale>  2 0.11495080E+04</rscale>
<asrwt>0</asrwt>
<pdfrwt beam="1">  1       21 0.11008057E+00 0.11614207E+04</pdfrwt>
<pdfrwt beam="2">  1       21 0.29397720E+00 0.11614207E+04</pdfrwt>
<totfact> 0.87675638E+00</totfact>
</mgrwt>
</event>
<event>
 8    1  0.7418332E-006  0.1055997E+04  0.7818608E-02  0.8723858E-01
         21   -1    0    0  503  502  0.00000000000E+00  0.00000000000E+00  0.68293045642E+03  0.68293045642E+03  0.00000000000E+00 0. -1.
         21   -1    0    0  501  503 -0.00000000000E+00 -0.00000000000E+00 -0.17590040330E+04  0.17590040330E+04  0.00000000000E+00 0. -1.
    9000010    2    1    2  501    0 -0.19899962328E+03 -0.23813792290E+03 -0.86639100127E+03  0.13653207965E+04  0.10085420119E+04 0.  0.
   -9000010    2    1    2    0  502  0.19899962328E+03  0.23813792290E+03 -0.20968257532E+03  0.10766136930E+04  0.10093660095E+04 0.  0.
        -13    1    3    3    0    0 -0.16051750030E+03 -0.57731660828E+03 -0.82762099272E+03  0.10217714289E+04  0.10566000000E+00 0.  1.
          4    1    3    3  501    0 -0.38482122985E+02  0.33917868538E+03 -0.38770008551E+02  0.34354936759E+03  0.00000000000E+00 0.  1.
         13    1    4    4    0    0  0.32726011702E+03  0.51821517476E+03  0.12094521447E+03  0.62471906295E+03  0.10566000000E+00 0. -1.
         -4    1    4    4    0  502 -0.12826049374E+03 -0.28007725186E+03 -0.33062778979E+03  0.45189463003E+03  0.00000000000E+00 0. -1.
<mgrwt>
<rscale>  2 0.10558003E+04</rscale>
<asrwt>0</asrwt>
<pdfrwt beam="1">  1       21 0.10506623E+00 0.10559973E+04</pdfrwt>
<pdfrwt beam="2">  1       21 0.27061600E+00 0.10559973E+04</pdfrwt>
<totfact> 0.14911254E+01</totfact>
</mgrwt>
</event>
<event>
 8    1  0.7418332E-006  0.1021921E+04  0.7818608E-02  0.8756571E-01
         21   -1    0    0  503  502  0.00000000000E+00  0.00000000000E+00  0.89659550175E+03  0.89659550175E+03  0.00000000000E+00 0. -1.
         21   -1    0    0  501  503 -0.00000000000E+00 -0.00000000000E+00 -0.18520967483E+04  0.18520967483E+04  0.00000000000E+00 0. -1.
    9000010    2    1    2  501    0  0.10527977249E+03  0.22901824154E+03 -0.13233665581E+04  0.16720110635E+04  0.99034779938E+03 0.  0.
   -9000010    2    1    2    0  502 -0.10527977249E+03 -0.22901824154E+03  0.36786531157E+03  0.10766811866E+04  0.97999199214E+03 0.  0.
        -13    1    3    3    0    0 -0.22170447985E+03 -0.28775747348E+03 -0.26491309032E+03  0.44959559219E+03  0.10566000000E+00 0.  1.
          4    1    3    3  501    0  0.32698425234E+03  0.51677571502E+03 -0.10584534678E+04  0.12224154713E+04  0.00000000000E+00 0.  1.
         13    1    4    4    0    0  0.60443470014E+02  0.14338924173E+03 -0.27471248758E+03  0.31572274183E+03  0.10566000000E+00 0. -1.
         -4    1    4    4    0  502 -0.16572324251E+03 -0.37240748327E+03  0.64257779915E+03  0.76095844477E+03  0.00000000000E+00 0. -1.
<mgrwt>
<rscale>  2 0.10194033E+04</rscale>
<asrwt>0</asrwt>
<pdfrwt beam="1">  1       21 0.13793777E+00 0.10219207E+04</pdfrwt>
<pdfrwt beam="2">  1       21 0.28493796E+00 0.10219207E+04</pdfrwt>
<totfact> 0.55368355E+00</totfact>
</mgrwt>
</event>
<event>
 8    1  0.7418332E-006  0.1010417E+04  0.7818608E-02  0.8767506E-01
         21   -1    0    0  501  502  0.00000000000E+00  0.00000000000E+00  0.13061561228E+04  0.13061561228E+04  0.00000000000E+00 0. -1.
         21   -1    0    0  502  503 -0.00000000000E+00 -0.00000000000E+00 -0.82426414517E+03  0.82426414517E+03  0.00000000000E+00 0. -1.
    9000010    2    1    2  501    0  0.12374446882E+03 -0.96266932549E+02  0.50810219576E+03  0.11309779089E+04  0.99817993026E+03 0.  0.
   -9000010    2    1    2    0  503 -0.12374446882E+03  0.96266932549E+02 -0.26210218084E+02  0.99944235912E+03  0.98672085101E+03 0.  0.
        -13    1    3    3    0    0  0.38757616971E+03 -0.42510647684E+03  0.38341636041E+03  0.69133126688E+03  0.10566000000E+00 0.  1.
          4    1    3    3  501    0 -0.26383170089E+03  0.32883954429E+03  0.12468583535E+03  0.43964664200E+03  0.00000000000E+00 0.  1.
         13    1    4    4    0    0  0.94719667454E+02 -0.63287488717E+02 -0.46785766945E+03  0.48152666765E+03  0.10566000000E+00 0. -1.
         -4    1    4    4    0  503 -0.21846413628E+03  0.15955442127E+03  0.44164745136E+03  0.51791569148E+03  0.00000000000E+00 0. -1.
<mgrwt>
<rscale>  2 0.10075757E+04</rscale>
<asrwt>0</asrwt>
<pdfrwt beam="1">  1       21 0.20094709E+00 0.10104173E+04</pdfrwt>
<pdfrwt beam="2">  1       21 0.12680987E+00 0.10104173E+04</pdfrwt>
<totfact> 0.29443691E+01</totfact>
</mgrwt>
</event>
<event>
 8    1  0.7418332E-006  0.1023525E+04  0.7818608E-02  0.8773030E-01
         21   -1    0    0  501  502  0.00000000000E+00  0.00000000000E+00  0.15488119946E+04  0.15488119946E+04  0.00000000000E+00 0. -1.
         21   -1    0    0  502  503 -0.00000000000E+00 -0.00000000000E+00 -0.66899306984E+03  0.66899306984E+03  0.00000000000E+00 0. -1.
    9000010    2    1    2  501    0 -0.11660410222E+03 -0.19366116390E+03  0.75248239631E+03  0.12703669598E+04  0.99824911363E+03 0.  0.
   -9000010    2    1    2    0  503  0.11660410222E+03  0.19366116390E+03  0.12733652848E+03  0.94743810461E+03  0.91122072383E+03 0.  0.
        -13    1    3    3    0    0 -0.13831728293E+03 -0.25338988833E+03  0.98650074712E+03  0.10278724831E+04  0.10566000000E+00 0.  1.
          4    1    3    3  501    0  0.21713180706E+02  0.59728724424E+02 -0.23401835081E+03  0.24249447675E+03  0.00000000000E+00 0.  1.
         13    1    4    4    0    0  0.48273536314E+03  0.53815126310E+02 -0.97762146034E+02  0.49546639342E+03  0.10566000000E+00 0. -1.
         -4    1    4    4    0  503 -0.36613126092E+03  0.13984603759E+03  0.22509867451E+03  0.45197171119E+03  0.00000000000E+00 0. -1.
<mgrwt>
<rscale>  2 0.10016634E+04</rscale>
<asrwt>0</asrwt>
<pdfrwt beam="1">  1       21 0.23827877E+00 0.10235245E+04</pdfrwt>
<pdfrwt beam="2">  1       21 0.10292201E+00 0.10235245E+04</pdfrwt>
<totfact> 0.27218328E+01</totfact>
</mgrwt>
</event>
<event>
 8    1  0.7418332E-006  0.1283278E+04  0.7818608E-02  0.8552168E-01
         21   -1    0    0  501  502  0.00000000000E+00  0.00000000000E+00  0.10688611587E+04  0.10688611587E+04  0.00000000000E+00 0.  1.
         21   -1    0    0  502  503 -0.00000000000E+00 -0.00000000000E+00 -0.20486581531E+04  0.20486581531E+04  0.00000000000E+00 0. -1.
    9000010    2    1    2  501    0  0.76816059206E+03  0.22824537334E+03  0.32042425616E+03  0.12906701391E+04  0.95968279050E+03 0.  0.
   -9000010    2    1    2    0  503 -0.76816059206E+03 -0.22824537334E+03 -0.13002212506E+04  0.18268491727E+04  0.10023152966E+04 0.  0.
        -13    1    3    3    0    0  0.86778631842E+03  0.45069598860E+03  0.36336643056E+03  0.10431755090E+04  0.10566000000E+00 0.  1.
          4    1    3    3  501    0 -0.99625726358E+02 -0.22245061526E+03 -0.42942174399E+02  0.24749463009E+03  0.00000000000E+00 0.  1.
         13    1    4    4    0    0 -0.10151659927E+04 -0.19852056947E+03 -0.10392441066E+04  0.14662880800E+04  0.10566000000E+00 0. -1.
         -4    1    4    4    0  503  0.24700540067E+03 -0.29724803864E+02 -0.26097714390E+03  0.36056109269E+03  0.00000000000E+00 0. -1.
<mgrwt>
<rscale>  2 0.12749435E+04</rscale>
<asrwt>0</asrwt>
<pdfrwt beam="1">  1       21 0.16444018E+00 0.12832781E+04</pdfrwt>
<pdfrwt beam="2">  1       21 0.31517818E+00 0.12832781E+04</pdfrwt>
<totfact> 0.18512354E+00</totfact>
</mgrwt>
</event>
<event>
 8    1  0.7418332E-006  0.1015478E+04  0.7818608E-02  0.8761362E-01
         21   -1    0    0  503  502  0.00000000000E+00  0.00000000000E+00  0.72777412694E+03  0.72777412694E+03  0.00000000000E+00 0. -1.
         21   -1    0    0  501  503 -0.00000000000E+00 -0.00000000000E+00 -0.14823276771E+04  0.14823276771E+04  0.00000000000E+00 0. -1.
    9000010    2    1    2  501    0  0.15689140325E+03 -0.22492970735E+02 -0.62259416561E+03  0.11911421228E+04  0.10030330082E+04 0.  0.
   -9000010    2    1    2    0  502 -0.15689140325E+03  0.22492970735E+02 -0.13195938452E+03  0.10189596812E+04  0.99787008504E+03 0.  0.
        -13    1    3    3    0    0  0.10496059840E+03  0.40256873579E+03  0.22747945241E+02  0.41664828624E+03  0.10566000000E+00 0.  1.
          4    1    3    3  501    0  0.51930804850E+02 -0.42506170653E+03 -0.64534211085E+03  0.77449383657E+03  0.00000000000E+00 0.  1.
         13    1    4    4    0    0  0.26536832463E+03 -0.28779945672E+03  0.15556997249E+03  0.42124921663E+03  0.10566000000E+00 0. -1.
         -4    1    4    4    0  502 -0.42225972788E+03  0.31029242745E+03 -0.28752935702E+03  0.59771046458E+03  0.00000000000E+00 0. -1.
<mgrwt>
<rscale>  2 0.10142010E+04</rscale>
<asrwt>0</asrwt>
<pdfrwt beam="1">  1       21 0.11196525E+00 0.10154782E+04</pdfrwt>
<pdfrwt beam="2">  1       21 0.22805041E+00 0.10154782E+04</pdfrwt>
<totfact> 0.25896875E+01</totfact>
</mgrwt>
</event>
<event>
 8    1  0.7418332E-006  0.1042309E+04  0.7818608E-02  0.8746620E-01
         21   -1    0    0  501  502  0.00000000000E+00  0.00000000000E+00  0.16964950662E+04  0.16964950662E+04  0.00000000000E+00 0. -1.
         21   -1    0    0  502  503 -0.00000000000E+00 -0.00000000000E+00 -0.61769606267E+03  0.61769606267E+03  0.00000000000E+00 0. -1.
    9000010    2    1    2  501    0  0.21281306506E+03 -0.10099157401E+03  0.43812219952E+03  0.11306458189E+04  0.10153424089E+04 0.  0.
   -9000010    2    1    2    0  503 -0.21281306506E+03  0.10099157401E+03  0.64067680400E+03  0.11835453100E+04  0.96686298661E+03 0.  0.
        -13    1    3    3    0    0 -0.16093683273E+03  0.24224229130E+03  0.53975872667E+03  0.61312436422E+03  0.10566000000E+00 0.  1.
          4    1    3    3  501    0  0.37374989779E+03 -0.34323386531E+03 -0.10163652715E+03  0.51752145467E+03  0.00000000000E+00 0.  1.
         13    1    4    4    0    0  0.30543151117E+03 -0.21915861622E+03  0.16441569559E+03  0.41030651859E+03  0.10566000000E+00 0. -1.
         -4    1    4    4    0  503 -0.51824457623E+03  0.32015019023E+03  0.47626110841E+03  0.77323879137E+03  0.00000000000E+00 0. -1.
<mgrwt>
<rscale>  2 0.10303127E+04</rscale>
<asrwt>0</asrwt>
<pdfrwt beam="1">  1       21 0.26099924E+00 0.10423094E+04</pdfrwt>
<pdfrwt beam="2">  1       21 0.95030164E-01 0.10423094E+04</pdfrwt>
<totfact> 0.22798303E+01</totfact>
</mgrwt>
</event>
<event>
 8    1  0.7418332E-006  0.1026592E+04  0.7818608E-02  0.8752646E-01
         21   -1    0    0  501  502  0.00000000000E+00  0.00000000000E+00  0.80190620718E+03  0.80190620718E+03  0.00000000000E+00 0.  1.
         21   -1    0    0  502  503 -0.00000000000E+00 -0.00000000000E+00 -0.16549783697E+04  0.16549783697E+04  0.00000000000E+00 0.  1.
    9000010    2    1    2  501    0 -0.16887039601E+03  0.83096856718E+02  0.14470461940E+03  0.10252945850E+04  0.99743032887E+03 0.  0.
   -9000010    2    1    2    0  503  0.16887039601E+03 -0.83096856718E+02 -0.99777678195E+03  0.14315899919E+04  0.10091923008E+04 0.  0.
        -13    1    3    3    0    0  0.39823332691E+03 -0.62824384472E+02 -0.54361555481E+02  0.40680692697E+03  0.10566000000E+00 0.  1.
          4    1    3    3  501    0 -0.56710372292E+03  0.14592124119E+03  0.19906617488E+03  0.61848765805E+03  0.00000000000E+00 0.  1.
         13    1    4    4    0    0  0.53686377439E+03  0.15881861433E+03 -0.39544604444E+03  0.68543683132E+03  0.10566000000E+00 0. -1.
         -4    1    4    4    0  503 -0.36799337838E+03 -0.24191547105E+03 -0.60233073752E+03  0.74615316056E+03  0.00000000000E+00 0. -1.
<mgrwt>
<rscale>  2 0.10236898E+04</rscale>
<asrwt>0</asrwt>
<pdfrwt beam="1">  1       21 0.12337019E+00 0.10265921E+04</pdfrwt>
<pdfrwt beam="2">  1       21 0.25461206E+00 0.10265921E+04</pdfrwt>
<totfact> 0.12600366E+01</totfact>
</mgrwt>
</event>
<event>
 8    1  0.7418332E-006  0.1046600E+04  0.7818608E-02  0.8742861E-01
         21   -1    0    0  501  502  0.00000000000E+00  0.00000000000E+00  0.68833914320E+03  0.68833914320E+03  0.00000000000E+00 0.  1.
         21   -1    0    0  502  503 -0.00000000000E+00 -0.00000000000E+00 -0.15667089428E+04  0.15667089428E+04  0.00000000000E+00 0.  1.
    9000010    2    1    2  501    0 -0.10849435007E+02 -0.17346744141E+03 -0.62460091326E+03  0.11781221986E+04  0.98368539208E+03 0.  0.
   -9000010    2    1    2    0  503  0.10849435007E+02  0.17346744141E+03 -0.25376888635E+03  0.10769258874E+04  0.10320668853E+04 0.  0.
        -13    1    3    3    0    0  0.27990340813E+03 -0.47302547559E+03 -0.20609308576E+03  0.58700373900E+03  0.10566000000E+00 0.  1.
          4    1    3    3  501    0 -0.29075284314E+03  0.29955803418E+03 -0.41850782750E+03  0.59111845963E+03  0.00000000000E+00 0.  1.
         13    1    4    4    0    0  0.41924600217E+03  0.31961758175E+03  0.75211716273E+02  0.53252175761E+03  0.10566000000E+00 0. -1.
         -4    1    4    4    0  503 -0.40839656717E+03 -0.14615014034E+03 -0.32898060262E+03  0.54440412976E+03  0.00000000000E+00 0. -1.
<mgrwt>
<rscale>  2 0.10344711E+04</rscale>
<asrwt>0</asrwt>
<pdfrwt beam="1">  1       21 0.10589833E+00 0.10465996E+04</pdfrwt>
<pdfrwt beam="2">  1       21 0.24103214E+00 0.10465996E+04</pdfrwt>
<totfact> 0.23962527E+01</totfact>
</mgrwt>
</event>
<event>
 8    1  0.7418332E-006  0.1005215E+04  0.7818608E-02  0.8770704E-01
         21   -1    0    0  503  502  0.00000000000E+00  0.00000000000E+00  0.13531478926E+04  0.13531478926E+04  0.00000000000E+00 0.  1.
         21   -1    0    0  501  503 -0.00000000000E+00 -0.00000000000E+00 -0.74387516982E+03  0.74387516982E+03  0.00000000000E+00 0.  1.
    9000010    2    1    2  501    0 -0.43640069146E+02  0.69275443922E+02  0.32602416775E+03  0.10567637444E+04  0.10018753968E+04 0.  0.
   -9000010    2    1    2    0  502  0.43640069146E+02 -0.69275443922E+02  0.28324855502E+03  0.10402593180E+04  0.99760020149E+03 0.  0.
        -13    1    3    3    0    0 -0.43620929026E+03 -0.23906861365E+03  0.23171201304E+03  0.54874658550E+03  0.10566000000E+00 0.  1.
          4    1    3    3  501    0  0.39256922112E+03  0.30834405757E+03  0.94312154709E+02  0.50801715890E+03  0.00000000000E+00 0.  1.
         13    1    4    4    0    0  0.39831240631E+03  0.23316330155E+02  0.48004643414E+03  0.62421231514E+03  0.10566000000E+00 0. -1.
         -4    1    4    4    0  502 -0.35467233716E+03 -0.92591774077E+02 -0.19679787912E+03  0.41604700287E+03  0.00000000000E+00 0. -1.
<mgrwt>
<rscale>  2 0.10041484E+04</rscale>
<asrwt>0</asrwt>
<pdfrwt beam="1">  1       21 0.20817660E+00 0.10052153E+04</pdfrwt>
<pdfrwt beam="2">  1       21 0.11444233E+00 0.10052153E+04</pdfrwt>
<totfact> 0.34548628E+01</totfact>
</mgrwt>
</event>
<event>
 8    1  0.7418332E-006  0.1065133E+04  0.7818608E-02  0.8723171E-01
         21   -1    0    0  503  502  0.00000000000E+00  0.00000000000E+00  0.13620203213E+04  0.13620203213E+04  0.00000000000E+00 0. -1.
         21   -1    0    0  501  503 -0.00000000000E+00 -0.00000000000E+00 -0.81129840364E+03  0.81129840364E+03  0.00000000000E+00 0. -1.
    9000010    2    1    2  501    0 -0.55677197673E+02 -0.21036785183E+03  0.36122512783E+03  0.11247185984E+04  0.10426666529E+04 0.  0.
   -9000010    2    1    2    0  502  0.55677197673E+02  0.21036785183E+03  0.18949678986E+03  0.10486001266E+04  0.10081163666E+04 0.  0.
        -13    1    3    3    0    0  0.36665815115E+03 -0.40455316920E+03  0.16910519351E+02  0.54624851793E+03  0.10566000000E+00 0.  1.
          4    1    3    3  501    0 -0.42233534882E+03  0.19418531737E+03  0.34431460848E+03  0.57847008043E+03  0.00000000000E+00 0.  1.
         13    1    4    4    0    0 -0.79146380647E+02  0.37682342523E+03 -0.31694980610E+03  0.49871558440E+03  0.10566000000E+00 0. -1.
         -4    1    4    4    0  502  0.13482357832E+03 -0.16645557339E+03  0.50644659596E+03  0.54988454219E+03  0.00000000000E+00 0. -1.
<mgrwt>
<rscale>  2 0.10565812E+04</rscale>
<asrwt>0</asrwt>
<pdfrwt beam="1">  1       21 0.20954159E+00 0.10651330E+04</pdfrwt>
<pdfrwt beam="2">  1       21 0.12481514E+00 0.10651330E+04</pdfrwt>
<totfact> 0.26119090E+01</totfact>
</mgrwt>
</event>
<event>
 8    1  0.7418332E-006  0.1016354E+04  0.7818608E-02  0.8759450E-01
         21   -1    0    0  503  502  0.00000000000E+00  0.00000000000E+00  0.76833366453E+03  0.76833366453E+03  0.00000000000E+00 0. -1.
         21   -1    0    0  501  503 -0.00000000000E+00 -0.00000000000E+00 -0.14117209647E+04  0.14117209647E+04  0.00000000000E+00 0. -1.
    9000010    2    1    2  501    0 -0.17869600100E+03  0.12350681966E+03 -0.56046787695E+03  0.11606464383E+04  0.99286943677E+03 0.  0.
   -9000010    2    1    2    0  502  0.17869600100E+03 -0.12350681966E+03 -0.82919423225E+02  0.10194081909E+04  0.99253777441E+03 0.  0.
        -13    1    3    3    0    0  0.20974823500E+03 -0.57192675205E+02  0.19507313832E+03  0.29209393119E+03  0.10566000000E+00 0.  1.
          4    1    3    3  501    0 -0.38844423600E+03  0.18069949487E+03 -0.75554101527E+03  0.86855250715E+03  0.00000000000E+00 0.  1.
         13    1    4    4    0    0  0.57026890953E+03  0.30817503006E+02  0.61571473021E+02  0.57441048487E+03  0.10566000000E+00 0. -1.
         -4    1    4    4    0  502 -0.39157290854E+03 -0.15432432267E+03 -0.14449089625E+03  0.44499770602E+03  0.00000000000E+00 0. -1.
<mgrwt>
<rscale>  2 0.10162732E+04</rscale>
<asrwt>0</asrwt>
<pdfrwt beam="1">  1       21 0.11820518E+00 0.10163542E+04</pdfrwt>
<pdfrwt beam="2">  1       21 0.21718784E+00 0.10163542E+04</pdfrwt>
<totfact> 0.26907717E+01</totfact>
</mgrwt>
</event>
<event>
 8    1  0.7418332E-006  0.1086797E+04  0.7818608E-02  0.8710783E-01
         21   -1    0    0  503  502  0.00000000000E+00  0.00000000000E+00  0.16380127763E+04  0.16380127763E+04  0.00000000000E+00 0. -1.
         21   -1    0    0  501  503 -0.00000000000E+00 -0.00000000000E+00 -0.74229690939E+03  0.74229690939E+03  0.00000000000E+00 0. -1.
    9000010    2    1    2  501    0  0.16734702386E+03 -0.17188124394E+03  0.11569989808E+03  0.10929378536E+04  0.10599898571E+04 0.  0.
   -9000010    2    1    2    0  502 -0.16734702386E+03  0.17188124394E+03  0.78001596880E+03  0.12873718320E+04  0.99566718029E+03 0.  0.
        -13    1    3    3    0    0  0.72278578880E+02  0.36303241722E+03 -0.24219693076E+03  0.44235290590E+03  0.10566000000E+00 0.  1.
          4    1    3    3  501    0  0.95068444982E+02 -0.53491366116E+03  0.35789682884E+03  0.65058494774E+03  0.00000000000E+00 0.  1.
         13    1    4    4    0    0 -0.46538563666E+03  0.39192629217E+03  0.29256616422E+03  0.67511849398E+03  0.10566000000E+00 0. -1.
         -4    1    4    4    0  502  0.29803861280E+03 -0.22004504823E+03  0.48744980458E+03  0.61225333805E+03  0.00000000000E+00 0. -1.
<mgrwt>
<rscale>  2 0.10707868E+04</rscale>
<asrwt>0</asrwt>
<pdfrwt beam="1">  1       21 0.25200196E+00 0.10867965E+04</pdfrwt>
<pdfrwt beam="2">  1       21 0.11419953E+00 0.10867965E+04</pdfrwt>
<totfact> 0.16097791E+01</totfact>
</mgrwt>
</event>
<event>
 8    1  0.7418332E-006  0.1061239E+04  0.7818608E-02  0.8719119E-01
         21   -1    0    0  503  502  0.00000000000E+00  0.00000000000E+00  0.10625397354E+04  0.10625397354E+04  0.00000000000E+00 0. -1.
         21   -1    0    0  501  503 -0.00000000000E+00 -0.00000000000E+00 -0.11058992333E+04  0.11058992333E+04  0.00000000000E+00 0. -1.
    9000010    2    1    2  501    0  0.21044220983E+03 -0.26166859798E+03 -0.24306198735E+03  0.10887181216E+04  0.10067132858E+04 0.  0.
   -9000010    2    1    2    0  502 -0.21044220983E+03  0.26166859798E+03  0.19970248946E+03  0.10797208471E+04  0.10065583165E+04 0.  0.
        -13    1    3    3    0    0 -0.28441178573E+03 -0.15514768790E+03 -0.43928110509E+03  0.54582851646E+03  0.10566000000E+00 0.  1.
          4    1    3    3  501    0  0.49485399556E+03 -0.10652091008E+03  0.19621911774E+03  0.54288960514E+03  0.00000000000E+00 0.  1.
         13    1    4    4    0    0 -0.27384228834E+03  0.60868892284E+03  0.27004570947E+03  0.72001145827E+03  0.10566000000E+00 0. -1.
         -4    1    4    4    0  502  0.63400078513E+02 -0.34702032486E+03 -0.70343220013E+02  0.35970938884E+03  0.00000000000E+00 0. -1.
<mgrwt>
<rscale>  2 0.10612022E+04</rscale>
<asrwt>0</asrwt>
<pdfrwt beam="1">  1       21 0.16346765E+00 0.10612389E+04</pdfrwt>
<pdfrwt beam="2">  1       21 0.17013834E+00 0.10612389E+04</pdfrwt>
<totfact> 0.23920716E+01</totfact>
</mgrwt>
</event>
<event>
 8    1  0.7418332E-006  0.1018319E+04  0.7818608E-02  0.8764932E-01
         21   -1    0    0  501  502  0.00000000000E+00  0.00000000000E+00  0.66797669091E+03  0.66797669091E+03  0.00000000000E+00 0. -1.
         21   -1    0    0  502  503 -0.00000000000E+00 -0.00000000000E+00 -0.16022456533E+04  0.16022456533E+04  0.00000000000E+00 0. -1.
    9000010    2    1    2  501    0 -0.96044284180E+02  0.13844937091E+03 -0.18022596659E+03  0.10031176564E+04  0.97230185683E+03 0.  0.
   -9000010    2    1    2    0  503  0.96044284180E+02 -0.13844937091E+03 -0.75404299585E+03  0.12671046878E+04  0.10042811944E+04 0.  0.
        -13    1    3    3    0    0  0.78027851261E+02  0.32062155861E+03  0.30947528607E+03  0.45239528431E+03  0.10566000000E+00 0.  1.
          4    1    3    3  501    0 -0.17407213544E+03 -0.18217218770E+03 -0.48970125266E+03  0.55072237213E+03  0.00000000000E+00 0.  1.
         13    1    4    4    0    0 -0.15080679172E+03  0.38582351210E+03 -0.18077202076E+03  0.45197456297E+03  0.10566000000E+00 0. -1.
         -4    1    4    4    0  503  0.24685107590E+03 -0.52427288302E+03 -0.57327097509E+03  0.81513012484E+03  0.00000000000E+00 0. -1.
<mgrwt>
<rscale>  2 0.10103447E+04</rscale>
<asrwt>0</asrwt>
<pdfrwt beam="1">  1       21 0.10276564E+00 0.10183189E+04</pdfrwt>
<pdfrwt beam="2">  1       21 0.24649933E+00 0.10183189E+04</pdfrwt>
<totfact> 0.23818552E+01</totfact>
</mgrwt>
</event>
<event>
 8    1  0.7418332E-006  0.1017082E+04  0.7818608E-02  0.8759824E-01
         21   -1    0    0  503  502  0.00000000000E+00  0.00000000000E+00  0.37951974406E+03  0.37951974406E+03  0.00000000000E+00 0.  1.
         21   -1    0    0  501  503 -0.00000000000E+00 -0.00000000000E+00 -0.30795381149E+04  0.30795381149E+04  0.00000000000E+00 0.  1.
    9000010    2    1    2  501    0  0.29410462762E+02  0.14188534828E+03 -0.19440825526E+04  0.21918191608E+04  0.10018072843E+04 0.  0.
   -9000010    2    1    2    0  502 -0.29410462762E+02 -0.14188534828E+03 -0.75593581824E+03  0.12672386982E+04  0.10067067743E+04 0.  0.
        -13    1    3    3    0    0 -0.26885164359E+03  0.30628908705E+03 -0.28296620927E+03  0.49614926973E+03  0.10566000000E+00 0.  1.
          4    1    3    3  501    0  0.29826210635E+03 -0.16440373877E+03 -0.16611163433E+04  0.16956698910E+04  0.00000000000E+00 0.  1.
         13    1    4    4    0    0 -0.19433129316E+03  0.11163609128E+03 -0.90338321151E+03  0.93076769733E+03  0.10566000000E+00 0. -1.
         -4    1    4    4    0  502  0.16492083040E+03 -0.25352143956E+03  0.14744739327E+03  0.33647100083E+03  0.00000000000E+00 0. -1.
<mgrwt>
<rscale>  2 0.10158671E+04</rscale>
<asrwt>0</asrwt>
<pdfrwt beam="1">  1       21 0.58387653E-01 0.10170816E+04</pdfrwt>
<pdfrwt beam="2">  1       21 0.47377509E+00 0.10170816E+04</pdfrwt>
<totfact> 0.24030130E+00</totfact>
</mgrwt>
</event>
<event>
 8    1  0.7418332E-006  0.1020375E+04  0.7818608E-02  0.8755729E-01
         21   -1    0    0  503  502  0.00000000000E+00  0.00000000000E+00  0.10733488878E+04  0.10733488878E+04  0.00000000000E+00 0.  1.
         21   -1    0    0  501  503 -0.00000000000E+00 -0.00000000000E+00 -0.10363185704E+04  0.10363185704E+04  0.00000000000E+00 0.  1.
    9000010    2    1    2  501    0 -0.15119840086E+03 -0.13483843896E+03 -0.24870469942E+03  0.10502476190E+04  0.10000618344E+04 0.  0.
   -9000010    2    1    2    0  502  0.15119840086E+03  0.13483843896E+03  0.28573501677E+03  0.10594198391E+04  0.99984175481E+03 0.  0.
        -13    1    3    3    0    0  0.18073839725E+03  0.36676822506E+03 -0.29084143408E+02  0.40991608618E+03  0.10566000000E+00 0.  1.
          4    1    3    3  501    0 -0.33193679810E+03 -0.50160666402E+03 -0.21962055601E+03  0.64033153284E+03  0.00000000000E+00 0.  1.
         13    1    4    4    0    0  0.80104456260E+02  0.13442569633E+03 -0.36901408793E+03  0.40082215508E+03  0.10566000000E+00 0. -1.
         -4    1    4    4    0  502  0.71093944598E+02  0.41274263070E+00  0.65474910470E+03  0.65859768404E+03  0.00000000000E+00 0. -1.
<mgrwt>
<rscale>  2 0.10203215E+04</rscale>
<asrwt>0</asrwt>
<pdfrwt beam="1">  1       21 0.16513060E+00 0.10203754E+04</pdfrwt>
<pdfrwt beam="2">  1       21 0.15943363E+00 0.10203754E+04</pdfrwt>
<totfact> 0.28819191E+01</totfact>
</mgrwt>
</event>
<event>
 8    1  0.7418332E-006  0.1086751E+04  0.7818608E-02  0.8708791E-01
         21   -1    0    0  501  502  0.00000000000E+00  0.00000000000E+00  0.72172700820E+03  0.72172700820E+03  0.00000000000E+00 0. -1.
         21   -1    0    0  502  503 -0.00000000000E+00 -0.00000000000E+00 -0.21030676167E+04  0.21030676167E+04  0.00000000000E+00 0. -1.
    9000010    2    1    2  501    0 -0.24279103086E+03  0.72248549687E+02  0.16157769596E+02  0.10868707292E+04  0.10568157696E+04 0.  0.
   -9000010    2    1    2    0  503  0.24279103086E+03 -0.72248549687E+02 -0.13974983781E+04  0.17379238957E+04  0.10016039201E+04 0.  0.
        -13    1    3    3    0    0 -0.32579597609E+03  0.52885887413E+03  0.37498304869E+02  0.62228679948E+03  0.10566000000E+00 0.  1.
          4    1    3    3  501    0  0.83004945228E+02 -0.45661032444E+03 -0.21340535273E+02  0.46458392973E+03  0.00000000000E+00 0.  1.
         13    1    4    4    0    0 -0.26268476958E+03  0.28937303522E+03 -0.71501156894E+03  0.81485065905E+03  0.10566000000E+00 0. -1.
         -4    1    4    4    0  503  0.50547580044E+03 -0.36162158491E+03 -0.68248680916E+03  0.92307323663E+03  0.00000000000E+00 0. -1.
<mgrwt>
<rscale>  2 0.10730926E+04</rscale>
<asrwt>0</asrwt>
<pdfrwt beam="1">  1       21 0.11103492E+00 0.10867506E+04</pdfrwt>
<pdfrwt beam="2">  1       21 0.32354886E+00 0.10867506E+04</pdfrwt>
<totfact> 0.53839642E+00</totfact>
</mgrwt>
</event>
<event>
 8    1  0.7418332E-006  0.1038019E+04  0.7818608E-02  0.8740917E-01
         21   -1    0    0  503  502  0.00000000000E+00  0.00000000000E+00  0.95723473270E+03  0.95723473270E+03  0.00000000000E+00 0. -1.
         21   -1    0    0  501  503 -0.00000000000E+00 -0.00000000000E+00 -0.11652573342E+04  0.11652573342E+04  0.00000000000E+00 0. -1.
    9000010    2    1    2  501    0 -0.20819105121E+03  0.15038046492E+03  0.10629501486E+03  0.10379282875E+04  0.10000193507E+04 0.  0.
   -9000010    2    1    2    0  502  0.20819105121E+03 -0.15038046492E+03 -0.31431761632E+03  0.10845637794E+04  0.10057461059E+04 0.  0.
        -13    1    3    3    0    0  0.38820173309E+03  0.14745887195E+03  0.14606415065E+03  0.44020387522E+03  0.10566000000E+00 0.  1.
          4    1    3    3  501    0 -0.59639278430E+03  0.29215929735E+01 -0.39769135798E+02  0.59772441228E+03  0.00000000000E+00 0.  1.
         13    1    4    4    0    0  0.13055446626E+03 -0.28843772452E+03 -0.64466066867E+03  0.71821179222E+03  0.10566000000E+00 0. -1.
         -4    1    4    4    0  502  0.77636584958E+02  0.13805725960E+03  0.33034305235E+03  0.36635198715E+03  0.00000000000E+00 0. -1.
<mgrwt>
<rscale>  2 0.10366291E+04</rscale>
<asrwt>0</asrwt>
<pdfrwt beam="1">  1       21 0.14726688E+00 0.10380188E+04</pdfrwt>
<pdfrwt beam="2">  1       21 0.17927036E+00 0.10380188E+04</pdfrwt>
<totfact> 0.28017954E+01</totfact>
</mgrwt>
</event>
<event>
 8    1  0.7418332E-006  0.1217816E+04  0.7818608E-02  0.8595816E-01
         21   -1    0    0  503  502  0.00000000000E+00  0.00000000000E+00  0.15620356932E+04  0.15620356932E+04  0.00000000000E+00 0. -1.
         21   -1    0    0  501  503 -0.00000000000E+00 -0.00000000000E+00 -0.11026449103E+04  0.11026449103E+04  0.00000000000E+00 0.  1.
    9000010    2    1    2  501    0 -0.57328344861E+03 -0.35129761094E+03 -0.28278524567E+03  0.12502169260E+04  0.10153870902E+04 0.  0.
   -9000010    2    1    2    0  502  0.57328344861E+03  0.35129761094E+03  0.74217602864E+03  0.14144636775E+04  0.99890856119E+03 0.  0.
        -13    1    3    3    0    0 -0.24699900510E+03 -0.25324914988E+03 -0.65573805995E+03  0.74507452974E+03  0.10566000000E+00 0.  1.
          4    1    3    3  501    0 -0.32628444352E+03 -0.98048461063E+02  0.37295281428E+03  0.50514239624E+03  0.00000000000E+00 0.  1.
         13    1    4    4    0    0  0.70312063268E+03  0.29992749797E+02  0.13682660134E+03  0.71693773728E+03  0.10566000000E+00 0. -1.
         -4    1    4    4    0  502 -0.12983718407E+03  0.32130486114E+03  0.60534942730E+03  0.69752594023E+03  0.00000000000E+00 0. -1.
<mgrwt>
<rscale>  2 0.12143748E+04</rscale>
<asrwt>0</asrwt>
<pdfrwt beam="1">  1       21 0.24031318E+00 0.12178156E+04</pdfrwt>
<pdfrwt beam="2">  1       21 0.16963768E+00 0.12178156E+04</pdfrwt>
<totfact> 0.58312254E+00</totfact>
</mgrwt>
</event>
<event>
 8    1  0.7418332E-006  0.1086125E+04  0.7818608E-02  0.8697751E-01
         21   -1    0    0  503  502  0.00000000000E+00  0.00000000000E+00  0.28138805095E+04  0.28138805095E+04  0.00000000000E+00 0.  1.
         21   -1    0    0  501  503 -0.00000000000E+00 -0.00000000000E+00 -0.49713698410E+03  0.49713698410E+03  0.00000000000E+00 0.  1.
    9000010    2    1    2  501    0 -0.40691510017E+03  0.70686994284E+02  0.50235374951E+03  0.11966728923E+04  0.10045348036E+04 0.  0.
   -9000010    2    1    2    0  502  0.40691510017E+03 -0.70686994284E+02  0.18143897759E+04  0.21143446013E+04  0.10039254376E+04 0.  0.
        -13    1    3    3    0    0  0.27868141686E+03  0.14269662130E+03 -0.45162337255E+02  0.31633100655E+03  0.10566000000E+00 0.  1.
          4    1    3    3  501    0 -0.68559651703E+03 -0.72009627014E+02  0.54751608677E+03  0.88034188576E+03  0.00000000000E+00 0.  1.
         13    1    4    4    0    0  0.60859541364E+02 -0.46263390454E+03  0.12986224224E+04  0.13799109466E+04  0.10566000000E+00 0. -1.
         -4    1    4    4    0  502  0.34605555880E+03  0.39194691026E+03  0.51576735348E+03  0.73443365470E+03  0.00000000000E+00 0. -1.
<mgrwt>
<rscale>  2 0.10859837E+04</rscale>
<asrwt>0</asrwt>
<pdfrwt beam="1">  1       21 0.43290468E+00 0.10861246E+04</pdfrwt>
<pdfrwt beam="2">  1       21 0.76482615E-01 0.10861246E+04</pdfrwt>
<totfact> 0.24162546E+00</totfact>
</mgrwt>
</event>
<event>
 8    1  0.7418332E-006  0.1006498E+04  0.7818608E-02  0.8778502E-01
         21   -1    0    0  501  502  0.00000000000E+00  0.00000000000E+00  0.13280065841E+04  0.13280065841E+04  0.00000000000E+00 0. -1.
         21   -1    0    0  502  503 -0.00000000000E+00 -0.00000000000E+00 -0.14564631596E+04  0.14564631596E+04  0.00000000000E+00 0. -1.
    9000010    2    1    2  501    0 -0.37531723262E+02  0.13273001879E+03  0.91730245720E+03  0.13617939063E+04  0.99700198452E+03 0.  0.
   -9000010    2    1    2    0  503  0.37531723262E+02 -0.13273001879E+03 -0.10457590327E+04  0.14226758374E+04  0.95465632336E+03 0.  0.
        -13    1    3    3    0    0 -0.81813519285E+02 -0.38449424344E+03  0.12114207362E+03  0.41134497486E+03  0.10566000000E+00 0.  1.
          4    1    3    3  501    0  0.44281796022E+02  0.51722426223E+03  0.79616038358E+03  0.95044893145E+03  0.00000000000E+00 0.  1.
         13    1    4    4    0    0  0.41489945178E+03  0.11214782859E+03 -0.80474670727E+03  0.91232448426E+03  0.10566000000E+00 0. -1.
         -4    1    4    4    0  503 -0.37736772852E+03 -0.24487784738E+03 -0.24101232546E+03  0.51035135317E+03  0.00000000000E+00 0. -1.
<mgrwt>
<rscale>  2 0.99584829E+03</rscale>
<asrwt>0</asrwt>
<pdfrwt beam="1">  1       21 0.20430871E+00 0.10064983E+04</pdfrwt>
<pdfrwt beam="2">  1       21 0.22407125E+00 0.10064983E+04</pdfrwt>
<totfact> 0.42537649E+00</totfact>
</mgrwt>
</event>
<event>
 8    1  0.7418332E-006  0.1286732E+04  0.7818608E-02  0.8549343E-01
         21   -1    0    0  503  502  0.00000000000E+00  0.00000000000E+00  0.14027445843E+04  0.14027445843E+04  0.00000000000E+00 0.  1.
         21   -1    0    0  501  503 -0.00000000000E+00 -0.00000000000E+00 -0.12470006379E+04  0.12470006379E+04  0.00000000000E+00 0.  1.
    9000010    2    1    2  501    0  0.78807206489E+03 -0.17146835676E+03 -0.28628430672E+03  0.13181945862E+04  0.10026062467E+04 0.  0.
   -9000010    2    1    2    0  502 -0.78807206489E+03  0.17146835676E+03  0.44202825316E+03  0.13315506360E+04  0.96290141904E+03 0.  0.
        -13    1    3    3    0    0  0.19422671319E+03 -0.47031013064E+03 -0.39552294439E+03  0.64447967058E+03  0.10566000000E+00 0.  1.
          4    1    3    3  501    0  0.59384535170E+03  0.29884177387E+03  0.10923863767E+03  0.67371491560E+03  0.00000000000E+00 0.  1.
         13    1    4    4    0    0 -0.42381138316E+03 -0.33891380377E+02 -0.27154430242E+03  0.50448095454E+03  0.10566000000E+00 0. -1.
         -4    1    4    4    0  502 -0.36426068173E+03  0.20535973714E+03  0.71357255558E+03  0.82706968145E+03  0.00000000000E+00 0. -1.
<mgrwt>
<rscale>  2 0.12789893E+04</rscale>
<asrwt>0</asrwt>
<pdfrwt beam="1">  1       21 0.21580686E+00 0.12867316E+04</pdfrwt>
<pdfrwt beam="2">  1       21 0.19184625E+00 0.12867316E+04</pdfrwt>
<totfact> 0.57710859E+00</totfact>
</mgrwt>
</event>
<event>
 8    1  0.7418332E-006  0.1036147E+04  0.7818608E-02  0.8752274E-01
         21   -1    0    0  503  502  0.00000000000E+00  0.00000000000E+00  0.13584988378E+04  0.13584988378E+04  0.00000000000E+00 0. -1.
         21   -1    0    0  501  503 -0.00000000000E+00 -0.00000000000E+00 -0.76698733312E+03  0.76698733312E+03  0.00000000000E+00 0. -1.
    9000010    2    1    2  501    0 -0.20213258258E+03  0.55847928256E+02  0.15376447830E+03  0.10006644847E+04  0.96628635724E+03 0.  0.
   -9000010    2    1    2    0  502  0.20213258258E+03 -0.55847928256E+02  0.43774702640E+03  0.11248216862E+04  0.10147042892E+04 0.  0.
        -13    1    3    3    0    0  0.35060091325E+03 -0.16518606168E+03  0.11429272880E+03  0.40406716566E+03  0.10566000000E+00 0.  1.
          4    1    3    3  501    0 -0.55273349583E+03  0.22103398994E+03  0.39471749498E+02  0.59659731907E+03  0.00000000000E+00 0.  1.
         13    1    4    4    0    0  0.45304257859E+03  0.26807381287E+03  0.48066586903E+03  0.71284699338E+03  0.10566000000E+00 0. -1.
         -4    1    4    4    0  502 -0.25090999601E+03 -0.32392174113E+03 -0.42918842629E+02  0.41197469282E+03  0.00000000000E+00 0. -1.
<mgrwt>
<rscale>  2 0.10240969E+04</rscale>
<asrwt>0</asrwt>
<pdfrwt beam="1">  1       21 0.20899982E+00 0.10361474E+04</pdfrwt>
<pdfrwt beam="2">  1       21 0.11799805E+00 0.10361474E+04</pdfrwt>
<totfact> 0.31075951E+01</totfact>
</mgrwt>
</event>
<event>
 8    1  0.7418332E-006  0.1121556E+04  0.7818608E-02  0.8678510E-01
         21   -1    0    0  501  502  0.00000000000E+00  0.00000000000E+00  0.66852136439E+03  0.66852136439E+03  0.00000000000E+00 0.  1.
         21   -1    0    0  502  503 -0.00000000000E+00 -0.00000000000E+00 -0.18965325093E+04  0.18965325093E+04  0.00000000000E+00 0.  1.
    9000010    2    1    2  501    0 -0.17223493291E+03 -0.43413207284E+03 -0.89149777249E+03  0.13941018325E+04  0.96468446253E+03 0.  0.
   -9000010    2    1    2    0  503  0.17223493291E+03  0.43413207284E+03 -0.33651337241E+03  0.11709520412E+04  0.10196822565E+04 0.  0.
        -13    1    3    3    0    0  0.13044892652E+03 -0.22582016924E+03 -0.98170313070E+03  0.10157522923E+04  0.10566000000E+00 0.  1.
          4    1    3    3  501    0 -0.30268385943E+03 -0.20831190361E+03  0.90205358211E+02  0.37834954023E+03  0.00000000000E+00 0.  1.
         13    1    4    4    0    0 -0.26778524034E+03 -0.13852190262E+03 -0.33239218611E+03  0.44875586793E+03  0.10566000000E+00 0. -1.
         -4    1    4    4    0  503  0.44002017325E+03  0.57265397546E+03 -0.41211862965E+01  0.72219617325E+03  0.00000000000E+00 0. -1.
<mgrwt>
<rscale>  2 0.11089040E+04</rscale>
<asrwt>0</asrwt>
<pdfrwt beam="1">  1       21 0.10284944E+00 0.11215558E+04</pdfrwt>
<pdfrwt beam="2">  1       21 0.29177423E+00 0.11215558E+04</pdfrwt>
<totfact> 0.10995106E+01</totfact>
</mgrwt>
</event>
<event>
 8    1  0.7418332E-006  0.1124415E+04  0.7818608E-02  0.8675765E-01
         21   -1    0    0  501  502  0.00000000000E+00  0.00000000000E+00  0.19151969064E+04  0.19151969064E+04  0.00000000000E+00 0. -1.
         21   -1    0    0  502  503 -0.00000000000E+00 -0.00000000000E+00 -0.79569937922E+03  0.79569937922E+03  0.00000000000E+00 0. -1.
    9000010    2    1    2  501    0 -0.38867391637E+03  0.22858001542E+03  0.11836095206E+04  0.16325562575E+04  0.10300447562E+04 0.  0.
   -9000010    2    1    2    0  503  0.38867391637E+03 -0.22858001542E+03 -0.64111993419E+02  0.10783400282E+04  0.97744085855E+03 0.  0.
        -13    1    3    3    0    0 -0.49197464337E+03 -0.23153705087E+03  0.27605676685E+03  0.60979980759E+03  0.10566000000E+00 0.  1.
          4    1    3    3  501    0  0.10330072701E+03  0.46011706629E+03  0.90755275379E+03  0.10227564499E+04  0.00000000000E+00 0.  1.
         13    1    4    4    0    0  0.52344485779E+03  0.21672948115E+03 -0.18791995370E+03  0.59689203991E+03  0.10566000000E+00 0. -1.
         -4    1    4    4    0  503 -0.13477094142E+03 -0.44530949657E+03  0.12380796028E+03  0.48144798827E+03  0.00000000000E+00 0. -1.
<mgrwt>
<rscale>  2 0.11122223E+04</rscale>
<asrwt>0</asrwt>
<pdfrwt beam="1">  1       21 0.29464568E+00 0.11244147E+04</pdfrwt>
<pdfrwt beam="2">  1       21 0.12241529E+00 0.11244147E+04</pdfrwt>
<totfact> 0.65148987E+00</totfact>
</mgrwt>
</event>
<event>
 8    1  0.7418332E-006  0.1091451E+04  0.7818608E-02  0.8698522E-01
         21   -1    0    0  503  502  0.00000000000E+00  0.00000000000E+00  0.11702082018E+04  0.11702082018E+04  0.00000000000E+00 0.  1.
         21   -1    0    0  501  503 -0.00000000000E+00 -0.00000000000E+00 -0.10605105631E+04  0.10605105631E+04  0.00000000000E+00 0.  1.
    9000010    2    1    2  501    0  0.35174960697E+03  0.21022029207E+03  0.33358084569E+03  0.11412896456E+04  0.10116054159E+04 0.  0.
   -9000010    2    1    2    0  502 -0.35174960697E+03 -0.21022029207E+03 -0.22388320693E+03  0.10894291193E+04  0.98428235708E+03 0.  0.
        -13    1    3    3    0    0  0.40567295101E+03  0.56871154257E+03  0.89563086554E+02  0.70429036588E+03  0.10566000000E+00 0.  1.
          4    1    3    3  501    0 -0.53923344041E+02 -0.35849125050E+03  0.24401775914E+03  0.43699927974E+03  0.00000000000E+00 0.  1.
         13    1    4    4    0    0 -0.66818767175E+03  0.23282617505E+02 -0.93412851497E+02  0.67508726617E+03  0.10566000000E+00 0. -1.
         -4    1    4    4    0  502  0.31643806478E+03 -0.23350290957E+03 -0.13047035543E+03  0.41434185314E+03  0.00000000000E+00 0. -1.
<mgrwt>
<rscale>  2 0.10850769E+04</rscale>
<asrwt>0</asrwt>
<pdfrwt beam="1">  1       21 0.18003203E+00 0.10914513E+04</pdfrwt>
<pdfrwt beam="2">  1       21 0.16315547E+00 0.10914513E+04</pdfrwt>
<totfact> 0.19801640E+01</totfact>
</mgrwt>
</event>
<event>
 8    1  0.7418332E-006  0.1256510E+04  0.7818608E-02  0.8565471E-01
         21   -1    0    0  503  502  0.00000000000E+00  0.00000000000E+00  0.19852534261E+04  0.19852534261E+04  0.00000000000E+00 0.  1.
         21   -1    0    0  501  503 -0.00000000000E+00 -0.00000000000E+00 -0.10831736438E+04  0.10831736438E+04  0.00000000000E+00 0.  1.
    9000010    2    1    2  501    0 -0.70107604303E+03  0.30435387336E+03 -0.34154755670E+03  0.13005396546E+04  0.99529380658E+03 0.  0.
   -9000010    2    1    2    0  502  0.70107604303E+03 -0.30435387336E+03  0.12436273390E+04  0.17678874152E+04  0.99733547829E+03 0.  0.
        -13    1    3    3    0    0 -0.14744789083E+03 -0.22471814865E+02  0.33533197939E+03  0.36700600886E+03  0.10566000000E+00 0.  1.
          4    1    3    3  501    0 -0.55362815220E+03  0.32682568823E+03 -0.67687953609E+03  0.93353364577E+03  0.00000000000E+00 0.  1.
         13    1    4    4    0    0  0.54903565773E+03 -0.52281125291E+03  0.34918845393E+03  0.83468817360E+03  0.10566000000E+00 0. -1.
         -4    1    4    4    0  502  0.15204038529E+03  0.21845737955E+03  0.89443888505E+03  0.93319924160E+03  0.00000000000E+00 0. -1.
<mgrwt>
<rscale>  2 0.12561047E+04</rscale>
<asrwt>0</asrwt>
<pdfrwt beam="1">  1       21 0.30542360E+00 0.12565098E+04</pdfrwt>
<pdfrwt beam="2">  1       21 0.16664210E+00 0.12565098E+04</pdfrwt>
<totfact> 0.20886128E+00</totfact>
</mgrwt>
</event>
<event>
 8    1  0.7418332E-006  0.1217027E+04  0.7818608E-02  0.8594512E-01
         21   -1    0    0  501  502  0.00000000000E+00  0.00000000000E+00  0.17304717059E+04  0.17304717059E+04  0.00000000000E+00 0. -1.
         21   -1    0    0  502  503 -0.00000000000E+00 -0.00000000000E+00 -0.14049496815E+04  0.14049496815E+04  0.00000000000E+00 0. -1.
    9000010    2    1    2  501    0 -0.68127667837E+03  0.22707786086E+02  0.11451554513E+04  0.16710885459E+04  0.10082174193E+04 0.  0.
   -9000010    2    1    2    0  503  0.68127667837E+03 -0.22707786086E+02 -0.81963342685E+03  0.14643328414E+04  0.10039014693E+04 0.  0.
        -13    1    3    3    0    0 -0.93609870524E+03 -0.35443963876E+02  0.76343006493E+03  0.12084546064E+04  0.10566000000E+00 0.  1.
          4    1    3    3  501    0  0.25482202687E+03  0.58151749963E+02  0.38172538636E+03  0.46263393952E+03  0.00000000000E+00 0.  1.
         13    1    4    4    0    0  0.22928284070E+03  0.46765407985E+03 -0.51038764208E+03  0.72922322768E+03  0.10566000000E+00 0. -1.
         -4    1    4    4    0  503  0.45199383766E+03 -0.49036186593E+03 -0.30924578477E+03  0.73510961376E+03  0.00000000000E+00 0. -1.
<mgrwt>
<rscale>  2 0.12161332E+04</rscale>
<asrwt>0</asrwt>
<pdfrwt beam="1">  1       21 0.26622642E+00 0.12170275E+04</pdfrwt>
<pdfrwt beam="2">  1       21 0.21614610E+00 0.12170275E+04</pdfrwt>
<totfact> 0.16108647E+00</totfact>
</mgrwt>
</event>
<event>
 8    1  0.7418332E-006  0.1007304E+04  0.7818608E-02  0.8772630E-01
         21   -1    0    0  503  502  0.00000000000E+00  0.00000000000E+00  0.10329270010E+04  0.10329270010E+04  0.00000000000E+00 0.  1.
         21   -1    0    0  501  503 -0.00000000000E+00 -0.00000000000E+00 -0.96415359798E+03  0.96415359798E+03  0.00000000000E+00 0.  1.
    9000010    2    1    2  501    0  0.10933484647E+02 -0.56175476829E+02 -0.97591767332E+01  0.10073515400E+04  0.10056772138E+04 0.  0.
   -9000010    2    1    2    0  502 -0.10933484647E+02  0.56175476829E+02  0.78532579723E+02  0.98972905891E+03  0.98494721619E+03 0.  0.
        -13    1    3    3    0    0 -0.38803447178E+03 -0.25981421144E+03  0.20571481548E+03  0.51028695087E+03  0.10566000000E+00 0.  1.
          4    1    3    3  501    0  0.39896795643E+03  0.20363873461E+03 -0.21547399221E+03  0.49706458917E+03  0.00000000000E+00 0.  1.
         13    1    4    4    0    0  0.31568616157E+03  0.39919560150E+03 -0.39590345492E+01  0.50895045534E+03  0.10566000000E+00 0. -1.
         -4    1    4    4    0  502 -0.32661964622E+03 -0.34302012467E+03  0.82491614272E+02  0.48077860357E+03  0.00000000000E+00 0. -1.
<mgrwt>
<rscale>  2 0.10020900E+04</rscale>
<asrwt>0</asrwt>
<pdfrwt beam="1">  1       21 0.15891185E+00 0.10073043E+04</pdfrwt>
<pdfrwt beam="2">  1       21 0.14833132E+00 0.10073043E+04</pdfrwt>
<totfact> 0.40925343E+01</totfact>
</mgrwt>
</event>
<event>
 8    1  0.7418332E-006  0.1027469E+04  0.7818608E-02  0.8751181E-01
         21   -1    0    0  503  502  0.00000000000E+00  0.00000000000E+00  0.98773164781E+03  0.98773164781E+03  0.00000000000E+00 0. -1.
         21   -1    0    0  501  503 -0.00000000000E+00 -0.00000000000E+00 -0.11016364201E+04  0.11016364201E+04  0.00000000000E+00 0. -1.
    9000010    2    1    2  501    0 -0.48247106643E+02 -0.25905632787E+03  0.14684087361E+03  0.10293301300E+04  0.98413429473E+03 0.  0.
   -9000010    2    1    2    0  502  0.48247106643E+02  0.25905632787E+03 -0.26074564593E+03  0.10600379379E+04  0.99310330464E+03 0.  0.
        -13    1    3    3    0    0 -0.14689886328E+03  0.26291354591E+03  0.34897413709E+03  0.46096178603E+03  0.10566000000E+00 0.  1.
          4    1    3    3  501    0  0.98651756638E+02 -0.52196987379E+03 -0.20213326348E+03  0.56836834398E+03  0.00000000000E+00 0.  1.
         13    1    4    4    0    0 -0.19472741179E+03  0.43105602089E+03  0.19832459657E+03  0.51289444803E+03  0.10566000000E+00 0. -1.
         -4    1    4    4    0  502  0.24297451843E+03 -0.17199969301E+03 -0.45907024250E+03  0.54714348991E+03  0.00000000000E+00 0. -1.
<mgrwt>
<rscale>  2 0.10252953E+04</rscale>
<asrwt>0</asrwt>
<pdfrwt beam="1">  1       21 0.15195872E+00 0.10274688E+04</pdfrwt>
<pdfrwt beam="2">  1       21 0.16948253E+00 0.10274688E+04</pdfrwt>
<totfact> 0.30733617E+01</totfact>
</mgrwt>
</event>
<event>
 8    1  0.7418332E-006  0.1045759E+04  0.7818608E-02  0.8737205E-01
         21   -1    0    0  503  502  0.00000000000E+00  0.00000000000E+00  0.14644872726E+04  0.14644872726E+04  0.00000000000E+00 0. -1.
         21   -1    0    0  501  503 -0.00000000000E+00 -0.00000000000E+00 -0.10686439005E+04  0.10686439005E+04  0.00000000000E+00 0. -1.
    9000010    2    1    2  501    0 -0.26070388667E+03  0.15803427348E+03 -0.51094415009E+03  0.11639055225E+04  0.10003353401E+04 0.  0.
   -9000010    2    1    2    0  502  0.26070388667E+03 -0.15803427348E+03  0.90678752212E+03  0.13692256506E+04  0.97957844186E+03 0.  0.
        -13    1    3    3    0    0  0.22849326330E+03  0.15163470019E+02 -0.60390442547E+03  0.64586350606E+03  0.10566000000E+00 0.  1.
          4    1    3    3  501    0 -0.48919714997E+03  0.14287080346E+03  0.92960275379E+02  0.51804201646E+03  0.00000000000E+00 0.  1.
         13    1    4    4    0    0  0.33042819815E+03  0.78429682951E+02  0.10364548279E+04  0.10906753095E+04  0.10566000000E+00 0. -1.
         -4    1    4    4    0  502 -0.69724311479E+02 -0.23646395643E+03 -0.12966730580E+03  0.27855034105E+03  0.00000000000E+00 0. -1.
<mgrwt>
<rscale>  2 0.10407641E+04</rscale>
<asrwt>0</asrwt>
<pdfrwt beam="1">  1       21 0.22530574E+00 0.10457591E+04</pdfrwt>
<pdfrwt beam="2">  1       21 0.16440675E+00 0.10457591E+04</pdfrwt>
<totfact> 0.86708803E+00</totfact>
</mgrwt>
</event>
<event>
 8    1  0.7418332E-006  0.1208732E+04  0.7818608E-02  0.8603301E-01
         21   -1    0    0  503  502  0.00000000000E+00  0.00000000000E+00  0.23359170854E+04  0.23359170854E+04  0.00000000000E+00 0. -1.
         21   -1    0    0  501  503 -0.00000000000E+00 -0.00000000000E+00 -0.73547396693E+03  0.73547396693E+03  0.00000000000E+00 0.  1.
    9000010    2    1    2  501    0 -0.66714065623E+03 -0.11521173314E+03  0.17758713117E+03  0.12044278706E+04  0.98018309908E+03 0.  0.
   -9000010    2    1    2    0  502  0.66714065623E+03  0.11521173314E+03  0.14228559873E+04  0.18669631817E+04  0.10013400834E+04 0.  0.
        -13    1    3    3    0    0  0.88000675889E+02 -0.31345852288E+03  0.26368646416E+03  0.41896411191E+03  0.10566000000E+00 0.  1.
          4    1    3    3  501    0 -0.75514133212E+03  0.19824678974E+03 -0.86099332988E+02  0.78546375871E+03  0.00000000000E+00 0.  1.
         13    1    4    4    0    0 -0.77824053646E+01 -0.30627792636E+03  0.98283005618E+02  0.32175502229E+03  0.10566000000E+00 0. -1.
         -4    1    4    4    0  502  0.67492306159E+03  0.42148965950E+03  0.13245729817E+04  0.15452081595E+04  0.00000000000E+00 0. -1.
<mgrwt>
<rscale>  2 0.12043409E+04</rscale>
<asrwt>0</asrwt>
<pdfrwt beam="1">  1       21 0.35937186E+00 0.12087317E+04</pdfrwt>
<pdfrwt beam="2">  1       21 0.11314984E+00 0.12087317E+04</pdfrwt>
<totfact> 0.27911867E+00</totfact>
</mgrwt>
</event>
<event>
 8    1  0.7418332E-006  0.1025954E+04  0.7818608E-02  0.8755096E-01
         21   -1    0    0  503  502  0.00000000000E+00  0.00000000000E+00  0.92089339826E+03  0.92089339826E+03  0.00000000000E+00 0.  1.
         21   -1    0    0  501  503 -0.00000000000E+00 -0.00000000000E+00 -0.12182679051E+04  0.12182679051E+04  0.00000000000E+00 0.  1.
    9000010    2    1    2  501    0  0.13292358288E+03 -0.17051705721E+03  0.15446919277E+03  0.10181153402E+04  0.98282926730E+03 0.  0.
   -9000010    2    1    2    0  502 -0.13292358288E+03  0.17051705721E+03 -0.45184369963E+03  0.11210459632E+04  0.10029140427E+04 0.  0.
        -13    1    3    3    0    0  0.25867815057E+03 -0.60206306575E+02 -0.37687711892E+03  0.46105917068E+03  0.10566000000E+00 0.  1.
          4    1    3    3  501    0 -0.12575456770E+03 -0.11031075064E+03  0.53134631169E+03  0.55705616948E+03  0.00000000000E+00 0.  1.
         13    1    4    4    0    0 -0.12232033846E+03 -0.35121166496E+03 -0.46945108824E+03  0.59891254305E+03  0.10566000000E+00 0. -1.
         -4    1    4    4    0  502 -0.10603244418E+02  0.52172872217E+03  0.17607388606E+02  0.52213342018E+03  0.00000000000E+00 0. -1.
<mgrwt>
<rscale>  2 0.10210121E+04</rscale>
<asrwt>0</asrwt>
<pdfrwt beam="1">  1       21 0.14167591E+00 0.10259539E+04</pdfrwt>
<pdfrwt beam="2">  1       21 0.18742583E+00 0.10259539E+04</pdfrwt>
<totfact> 0.27126441E+01</totfact>
</mgrwt>
</event>
<event>
 8    1  0.7418332E-006  0.1073522E+04  0.7818608E-02  0.8708861E-01
         21   -1    0    0  503  502  0.00000000000E+00  0.00000000000E+00  0.16102897001E+04  0.16102897001E+04  0.00000000000E+00 0.  1.
         21   -1    0    0  501  503 -0.00000000000E+00 -0.00000000000E+00 -0.97940616744E+03  0.97940616744E+03  0.00000000000E+00 0.  1.
    9000010    2    1    2  501    0 -0.16599204399E+03  0.32676194062E+03 -0.35842291837E+03  0.11298408506E+04  0.10068498571E+04 0.  0.
   -9000010    2    1    2    0  502  0.16599204399E+03 -0.32676194062E+03  0.98930645107E+03  0.14598550170E+04  0.10090206598E+04 0.  0.
        -13    1    3    3    0    0 -0.49714414807E+03  0.36892124549E+03 -0.47063783076E+03  0.77766005957E+03  0.10566000000E+00 0.  1.
          4    1    3    3  501    0  0.33115210408E+03 -0.42159304870E+02  0.11221491239E+03  0.35218079105E+03  0.00000000000E+00 0.  1.
         13    1    4    4    0    0 -0.21083558510E+03 -0.44065738425E+03  0.11623532098E+03  0.50213666989E+03  0.10566000000E+00 0. -1.
         -4    1    4    4    0  502  0.37682762909E+03  0.11389544364E+03  0.87307113009E+03  0.95771834707E+03  0.00000000000E+00 0. -1.
<mgrwt>
<rscale>  2 0.10730116E+04</rscale>
<asrwt>0</asrwt>
<pdfrwt beam="1">  1       21 0.24773688E+00 0.10735220E+04</pdfrwt>
<pdfrwt beam="2">  1       21 0.15067787E+00 0.10735220E+04</pdfrwt>
<totfact> 0.77472176E+00</totfact>
</mgrwt>
</event>
<event>
 8    1  0.7418332E-006  0.1026169E+04  0.7818608E-02  0.8750689E-01
         21   -1    0    0  503  502  0.00000000000E+00  0.00000000000E+00  0.18000776793E+04  0.18000776793E+04  0.00000000000E+00 0. -1.
         21   -1    0    0  501  503 -0.00000000000E+00 -0.00000000000E+00 -0.12990280172E+04  0.12990280172E+04  0.00000000000E+00 0. -1.
    9000010    2    1    2  501    0 -0.43001231960E+02 -0.19099873712E+03 -0.89899664732E+03  0.13632623818E+04  0.10059620899E+04 0.  0.
   -9000010    2    1    2    0  502  0.43001231960E+02  0.19099873712E+03  0.14000463095E+04  0.17358433147E+04  0.10073195724E+04 0.  0.
        -13    1    3    3    0    0 -0.13260162240E+03 -0.53808000044E+03 -0.83033860144E+03  0.99828627224E+03  0.10566000000E+00 0.  1.
          4    1    3    3  501    0  0.89600390444E+02  0.34708126333E+03 -0.68658045880E+02  0.36497610961E+03  0.00000000000E+00 0.  1.
         13    1    4    4    0    0 -0.38711806331E+03  0.14742370948E+03  0.19939664082E+03  0.45973163540E+03  0.10566000000E+00 0. -1.
         -4    1    4    4    0  502  0.43011929527E+03  0.43575027633E+02  0.12006496686E+04  0.12761116793E+04  0.00000000000E+00 0. -1.
<mgrwt>
<rscale>  2 0.10258355E+04</rscale>
<asrwt>0</asrwt>
<pdfrwt beam="1">  1       21 0.27693503E+00 0.10261688E+04</pdfrwt>
<pdfrwt beam="2">  1       21 0.19985046E+00 0.10261688E+04</pdfrwt>
<totfact> 0.18887529E+00</totfact>
</mgrwt>
</event>
<event>
 8    1  0.7418332E-006  0.1018347E+04  0.7818608E-02  0.8763931E-01
         21   -1    0    0  501  502  0.00000000000E+00  0.00000000000E+00  0.13063312919E+04  0.13063312919E+04  0.00000000000E+00 0.  1.
         21   -1    0    0  502  503 -0.00000000000E+00 -0.00000000000E+00 -0.77411197448E+03  0.77411197448E+03  0.00000000000E+00 0.  1.
    9000010    2    1    2  501    0  0.13719092446E+03  0.13193228303E+03  0.31532071800E+03  0.10660477247E+04  0.10004014790E+04 0.  0.
   -9000010    2    1    2    0  503 -0.13719092446E+03 -0.13193228303E+03  0.21689859947E+03  0.10143955417E+04  0.97248436263E+03 0.  0.
        -13    1    3    3    0    0  0.55776513142E+03  0.19937353932E+03  0.17714627145E+03  0.61824959576E+03  0.10566000000E+00 0.  1.
          4    1    3    3  501    0 -0.42057420695E+03 -0.67441256290E+02  0.13817444655E+03  0.44779812894E+03  0.00000000000E+00 0.  1.
         13    1    4    4    0    0 -0.54196453305E+03 -0.19139343883E+03  0.66901495047E+02  0.57864740967E+03  0.10566000000E+00 0. -1.
         -4    1    4    4    0  503  0.40477360859E+03  0.59461155800E+02  0.14999710442E+03  0.43574813206E+03  0.00000000000E+00 0. -1.
<mgrwt>
<rscale>  2 0.10114239E+04</rscale>
<asrwt>0</asrwt>
<pdfrwt beam="1">  1       21 0.20097405E+00 0.10183470E+04</pdfrwt>
<pdfrwt beam="2">  1       21 0.11909415E+00 0.10183470E+04</pdfrwt>
<totfact> 0.35073418E+01</totfact>
</mgrwt>
</event>
<event>
 8    1  0.7418332E-006  0.1053864E+04  0.7818608E-02  0.8734549E-01
         21   -1    0    0  501  502  0.00000000000E+00  0.00000000000E+00  0.15628106371E+04  0.15628106371E+04  0.00000000000E+00 0.  1.
         21   -1    0    0  502  503 -0.00000000000E+00 -0.00000000000E+00 -0.69137520296E+03  0.69137520296E+03  0.00000000000E+00 0.  1.
    9000010    2    1    2  501    0  0.16038065492E+03 -0.13285294095E+02  0.31090718451E+03  0.10605269488E+04  0.10010772589E+04 0.  0.
   -9000010    2    1    2    0  503 -0.16038065492E+03  0.13285294095E+02  0.56052824966E+03  0.11936588913E+04  0.10415042855E+04 0.  0.
        -13    1    3    3    0    0  0.20499676425E+03 -0.15714063880E+03  0.64459614994E+03  0.69442138605E+03  0.10566000000E+00 0.  1.
          4    1    3    3  501    0 -0.44616109325E+02  0.14385534470E+03 -0.33368896543E+03  0.36610556273E+03  0.00000000000E+00 0.  1.
         13    1    4    4    0    0  0.53919815705E+02  0.29248655619E+02  0.83937575257E+03  0.84161422014E+03  0.10566000000E+00 0. -1.
         -4    1    4    4    0  503 -0.21430047063E+03 -0.15963361524E+02 -0.27884750291E+03  0.35204467117E+03  0.00000000000E+00 0. -1.
<mgrwt>
<rscale>  2 0.10437355E+04</rscale>
<asrwt>0</asrwt>
<pdfrwt beam="1">  1       21 0.24043240E+00 0.10538641E+04</pdfrwt>
<pdfrwt beam="2">  1       21 0.10636542E+00 0.10538641E+04</pdfrwt>
<totfact> 0.23885262E+01</totfact>
</mgrwt>
</event>
<event>
 8    1  0.7418332E-006  0.1044264E+04  0.7818608E-02  0.8736788E-01
         21   -1    0    0  501  502  0.00000000000E+00  0.00000000000E+00  0.19049417894E+04  0.19049417894E+04  0.00000000000E+00 0. -1.
         21   -1    0    0  502  503 -0.00000000000E+00 -0.00000000000E+00 -0.99329301562E+03  0.99329301562E+03  0.00000000000E+00 0. -1.
    9000010    2    1    2  501    0 -0.73521286219E+02 -0.25507039241E+03  0.14049195015E+04  0.17433308657E+04  0.99746549668E+03 0.  0.
   -9000010    2    1    2    0  503  0.73521286219E+02  0.25507039241E+03 -0.49327072764E+03  0.11549039394E+04  0.10099607982E+04 0.  0.
        -13    1    3    3    0    0 -0.56413804438E+02 -0.60049973200E+03  0.53143690185E+03  0.80387041075E+03  0.10566000000E+00 0.  1.
          4    1    3    3  501    0 -0.17107481780E+02  0.34542933958E+03  0.87348259961E+03  0.93946045494E+03  0.00000000000E+00 0.  1.
         13    1    4    4    0    0 -0.65624393379E+02  0.52931969459E+03 -0.62387044801E+03  0.82079245072E+03  0.10566000000E+00 0. -1.
         -4    1    4    4    0  503  0.13914567960E+03 -0.27424930218E+03  0.13059972037E+03  0.33411148867E+03  0.00000000000E+00 0. -1.
<mgrwt>
<rscale>  2 0.10412307E+04</rscale>
<asrwt>0</asrwt>
<pdfrwt beam="1">  1       21 0.29306797E+00 0.10442639E+04</pdfrwt>
<pdfrwt beam="2">  1       21 0.15281431E+00 0.10442639E+04</pdfrwt>
<totfact> 0.35343151E+00</totfact>
</mgrwt>
</event>
<event>
 8    1  0.7418332E-006  0.1082939E+04  0.7818608E-02  0.8700686E-01
         21   -1    0    0  501  502  0.00000000000E+00  0.00000000000E+00  0.16015409297E+04  0.16015409297E+04  0.00000000000E+00 0. -1.
         21   -1    0    0  502  503 -0.00000000000E+00 -0.00000000000E+00 -0.12008268910E+04  0.12008268910E+04  0.00000000000E+00 0. -1.
    9000010    2    1    2  501    0  0.52581861564E+02 -0.37796749552E+03  0.10767201056E+04  0.15271162574E+04  0.10134759977E+04 0.  0.
   -9000010    2    1    2    0  503 -0.52581861564E+02  0.37796749552E+03 -0.67600606697E+03  0.12752515633E+04  0.10117598862E+04 0.  0.
        -13    1    3    3    0    0 -0.13140599855E+03 -0.67374546784E+03  0.48503809245E+03  0.84051320881E+03  0.10566000000E+00 0.  1.
          4    1    3    3  501    0  0.18398786011E+03  0.29577797232E+03  0.59168201320E+03  0.68660304858E+03  0.00000000000E+00 0.  1.
         13    1    4    4    0    0  0.23061197839E+03  0.75590047110E+02 -0.80544972591E+03  0.84121638830E+03  0.10566000000E+00 0. -1.
         -4    1    4    4    0  503 -0.28319383996E+03  0.30237744841E+03  0.12944365894E+03  0.43403517500E+03  0.00000000000E+00 0. -1.
<mgrwt>
<rscale>  2 0.10825378E+04</rscale>
<asrwt>0</asrwt>
<pdfrwt beam="1">  1       21 0.24639091E+00 0.10829395E+04</pdfrwt>
<pdfrwt beam="2">  1       21 0.18474260E+00 0.10829395E+04</pdfrwt>
<totfact> 0.40733721E+00</totfact>
</mgrwt>
</event>
<event>
 8    1  0.7418332E-006  0.1062460E+04  0.7818608E-02  0.8719614E-01
         21   -1    0    0  501  502  0.00000000000E+00  0.00000000000E+00  0.10518310559E+04  0.10518310559E+04  0.00000000000E+00 0.  1.
         21   -1    0    0  502  503 -0.00000000000E+00 -0.00000000000E+00 -0.11957086567E+04  0.11957086567E+04  0.00000000000E+00 0.  1.
    9000010    2    1    2  501    0  0.32112012984E+03  0.11944024626E+03  0.29860531135E+03  0.10966219958E+04  0.99801330625E+03 0.  0.
   -9000010    2    1    2    0  503 -0.32112012984E+03 -0.11944024626E+03 -0.44248291214E+03  0.11509177169E+04  0.10057019207E+04 0.  0.
        -13    1    3    3    0    0 -0.28412478452E+03  0.27253000440E+03  0.25860239374E+03  0.47103577963E+03  0.10566000000E+00 0.  1.
          4    1    3    3  501    0  0.60524491437E+03 -0.15308975815E+03  0.40002917609E+02  0.62558621615E+03  0.00000000000E+00 0.  1.
         13    1    4    4    0    0 -0.20986669710E+02  0.18305812632E+03 -0.65095313867E+03  0.67652843091E+03  0.10566000000E+00 0. -1.
         -4    1    4    4    0  503 -0.30013346013E+03 -0.30249837257E+03  0.20847022654E+03  0.47438928598E+03  0.00000000000E+00 0. -1.
<mgrwt>
<rscale>  2 0.10606362E+04</rscale>
<asrwt>0</asrwt>
<pdfrwt beam="1">  1       21 0.16182016E+00 0.10624596E+04</pdfrwt>
<pdfrwt beam="2">  1       21 0.18395518E+00 0.10624596E+04</pdfrwt>
<totfact> 0.19013372E+01</totfact>
</mgrwt>
</event>
<event>
 8    1  0.7418332E-006  0.1001010E+04  0.7818608E-02  0.8776727E-01
         21   -1    0    0  503  502  0.00000000000E+00  0.00000000000E+00  0.90334251710E+03  0.90334251710E+03  0.00000000000E+00 0.  1.
         21   -1    0    0  501  503 -0.00000000000E+00 -0.00000000000E+00 -0.11332595046E+04  0.11332595046E+04  0.00000000000E+00 0.  1.
    9000010    2    1    2  501    0 -0.13034370057E+02 -0.26209182009E+02 -0.30323489337E+03  0.10459312289E+04  0.10005817902E+04 0.  0.
   -9000010    2    1    2    0  502  0.13034370057E+02  0.26209182009E+02  0.73317905897E+02  0.99067079280E+03  0.98752027238E+03 0.  0.
        -13    1    3    3    0    0 -0.53449047883E+02  0.95603404552E+02 -0.65883604282E+03  0.66787854747E+03  0.10566000000E+00 0.  1.
          4    1    3    3  501    0  0.40414677825E+02 -0.12181258656E+03  0.35560114945E+03  0.37805268140E+03  0.00000000000E+00 0.  1.
         13    1    4    4    0    0  0.15046220497E+03 -0.25985561512E+03  0.42280947398E+03  0.51858623033E+03  0.10566000000E+00 0. -1.
         -4    1    4    4    0  502 -0.13742783491E+03  0.28606479713E+03 -0.34949156808E+03  0.47208456248E+03  0.00000000000E+00 0. -1.
<mgrwt>
<rscale>  2 0.99772981E+03</rscale>
<asrwt>0</asrwt>
<pdfrwt beam="1">  1       21 0.13897577E+00 0.10010099E+04</pdfrwt>
<pdfrwt beam="2">  1       21 0.17434762E+00 0.10010099E+04</pdfrwt>
<totfact> 0.36922268E+01</totfact>
</mgrwt>
</event>
<event>
 8    1  0.7418332E-006  0.1001555E+04  0.7818608E-02  0.8792294E-01
         21   -1    0    0  503  502  0.00000000000E+00  0.00000000000E+00  0.25212229285E+04  0.25212229285E+04  0.00000000000E+00 0. -1.
         21   -1    0    0  501  503 -0.00000000000E+00 -0.00000000000E+00 -0.40143689250E+03  0.40143689250E+03  0.00000000000E+00 0. -1.
    9000010    2    1    2  501    0 -0.59916399058E+01 -0.46588701730E+02  0.59498096214E+03  0.10983399313E+04  0.92203137289E+03 0.  0.
   -9000010    2    1    2    0  502  0.59916399058E+01  0.46588701730E+02  0.15248050738E+04  0.18243198896E+04  0.10004529672E+04 0.  0.
        -13    1    3    3    0    0  0.45502683420E+03 -0.74324891882E+02  0.28282274630E+03  0.54089030902E+03  0.10566000000E+00 0.  1.
          4    1    3    3  501    0 -0.46101847411E+03  0.27736190152E+02  0.31215821584E+03  0.55744962232E+03  0.00000000000E+00 0.  1.
         13    1    4    4    0    0 -0.13520824637E+03 -0.42916347050E+03  0.43043018741E+03  0.62268187037E+03  0.10566000000E+00 0. -1.
         -4    1    4    4    0  502  0.14119988628E+03  0.47575217223E+03  0.10943748864E+04  0.12016380193E+04  0.00000000000E+00 0. -1.
<mgrwt>
<rscale>  2 0.98137109E+03</rscale>
<asrwt>0</asrwt>
<pdfrwt beam="1">  1       21 0.38788044E+00 0.10015551E+04</pdfrwt>
<pdfrwt beam="2">  1       21 0.61759524E-01 0.10015551E+04</pdfrwt>
<totfact> 0.83606268E+00</totfact>
</mgrwt>
</event>
<event>
 8    1  0.7418332E-006  0.1043725E+04  0.7818608E-02  0.8737496E-01
         21   -1    0    0  503  502  0.00000000000E+00  0.00000000000E+00  0.15763134896E+04  0.15763134896E+04  0.00000000000E+00 0.  1.
         21   -1    0    0  501  503 -0.00000000000E+00 -0.00000000000E+00 -0.72155101596E+03  0.72155101596E+03  0.00000000000E+00 0.  1.
    9000010    2    1    2  501    0  0.22037057365E+03  0.20849447223E+03  0.15737166268E+03  0.10425896670E+04  0.98498438511E+03 0.  0.
   -9000010    2    1    2    0  502 -0.22037057365E+03 -0.20849447223E+03  0.69739081097E+03  0.12552748385E+04  0.99866302744E+03 0.  0.
        -13    1    3    3    0    0 -0.88592760801E+02  0.24348231449E+03 -0.35725597763E+03  0.44132092569E+03  0.10566000000E+00 0.  1.
          4    1    3    3  501    0  0.30896333445E+03 -0.34987842256E+02  0.51462764032E+03  0.60126874134E+03  0.00000000000E+00 0.  1.
         13    1    4    4    0    0  0.76098561927E+02 -0.28072828334E+03  0.86116676922E+03  0.90895961174E+03  0.10566000000E+00 0. -1.
         -4    1    4    4    0  502 -0.29646913557E+03  0.72233811109E+02 -0.16377595826E+03  0.34631522681E+03  0.00000000000E+00 0. -1.
<mgrwt>
<rscale>  2 0.10404390E+04</rscale>
<asrwt>0</asrwt>
<pdfrwt beam="1">  1       21 0.24250977E+00 0.10437246E+04</pdfrwt>
<pdfrwt beam="2">  1       21 0.11100785E+00 0.10437246E+04</pdfrwt>
<totfact> 0.20600263E+01</totfact>
</mgrwt>
</event>
<event>
 8    1  0.7418332E-006  0.1111415E+04  0.7818608E-02  0.8686273E-01
         21   -1    0    0  501  502  0.00000000000E+00  0.00000000000E+00  0.81390519911E+03  0.81390519911E+03  0.00000000000E+00 0. -1.
         21   -1    0    0  502  503 -0.00000000000E+00 -0.00000000000E+00 -0.14868877608E+04  0.14868877608E+04  0.00000000000E+00 0. -1.
    9000010    2    1    2  501    0  0.26596557229E+03 -0.13552174026E+03 -0.17444929593E+03  0.11250227040E+04  0.10705791423E+04 0.  0.
   -9000010    2    1    2    0  503 -0.26596557229E+03  0.13552174026E+03 -0.49853326572E+03  0.11757702559E+04  0.10221528506E+04 0.  0.
        -13    1    3    3    0    0  0.59189082668E+03 -0.29338352922E+03 -0.32084997722E+03  0.73440681163E+03  0.10566000000E+00 0.  1.
          4    1    3    3  501    0 -0.32592525439E+03  0.15786178896E+03  0.14640068130E+03  0.39061589234E+03  0.00000000000E+00 0.  1.
         13    1    4    4    0    0 -0.37329459502E+03 -0.34031399812E+03 -0.46541403372E+03  0.68685712192E+03  0.10566000000E+00 0. -1.
         -4    1    4    4    0  503  0.10732902273E+03  0.47583573838E+03 -0.33119231999E+02  0.48891313397E+03  0.00000000000E+00 0. -1.
<mgrwt>
<rscale>  2 0.10995857E+04</rscale>
<asrwt>0</asrwt>
<pdfrwt beam="1">  1       21 0.12521618E+00 0.11114151E+04</pdfrwt>
<pdfrwt beam="2">  1       21 0.22875196E+00 0.11114151E+04</pdfrwt>
<totfact> 0.18346463E+01</totfact>
</mgrwt>
</event>
<event>
 8    1  0.7418332E-006  0.1027625E+04  0.7818608E-02  0.8749685E-01
         21   -1    0    0  501  502  0.00000000000E+00  0.00000000000E+00  0.92920496903E+03  0.92920496903E+03  0.00000000000E+00 0. -1.
         21   -1    0    0  502  503 -0.00000000000E+00 -0.00000000000E+00 -0.13857181510E+04  0.13857181510E+04  0.00000000000E+00 0. -1.
    9000010    2    1    2  501    0  0.19146862629E+03 -0.46037872078E+02  0.26586181116E+03  0.10588026280E+04  0.10057836656E+04 0.  0.
   -9000010    2    1    2    0  503 -0.19146862629E+03  0.46037872078E+02 -0.72237499312E+03  0.12561204920E+04  0.10085798626E+04 0.  0.
        -13    1    3    3    0    0  0.57003405097E+03  0.14672068155E+03  0.23184592939E+03  0.63262810861E+03  0.10566000000E+00 0.  1.
          4    1    3    3  501    0 -0.37856542469E+03 -0.19275855363E+03  0.34015881767E+02  0.42617451939E+03  0.00000000000E+00 0.  1.
         13    1    4    4    0    0 -0.39891367047E+03  0.27775339878E+03 -0.18317326775E+02  0.48643047051E+03  0.10566000000E+00 0. -1.
         -4    1    4    4    0  503  0.20744504418E+03 -0.23171552670E+03 -0.70405766635E+03  0.76969002151E+03  0.00000000000E+00 0. -1.
<mgrwt>
<rscale>  2 0.10269382E+04</rscale>
<asrwt>0</asrwt>
<pdfrwt beam="1">  1       21 0.14295461E+00 0.10276250E+04</pdfrwt>
<pdfrwt beam="2">  1       21 0.21318741E+00 0.10276250E+04</pdfrwt>
<totfact> 0.16614274E+01</totfact>
</mgrwt>
</event>
<event>
 8    1  0.7418332E-006  0.1202576E+04  0.7818608E-02  0.8608057E-01
         21   -1    0    0  503  502  0.00000000000E+00  0.00000000000E+00  0.16913322263E+04  0.16913322263E+04  0.00000000000E+00 0. -1.
         21   -1    0    0  501  503 -0.00000000000E+00 -0.00000000000E+00 -0.10878766663E+04  0.10878766663E+04  0.00000000000E+00 0. -1.
    9000010    2    1    2  501    0  0.36144920792E+03 -0.52719267244E+03 -0.36037493123E+03  0.12380539706E+04  0.99716091948E+03 0.  0.
   -9000010    2    1    2    0  502 -0.36144920792E+03  0.52719267244E+03  0.96383049130E+03  0.15411549220E+04  0.10186322368E+04 0.  0.
        -13    1    3    3    0    0  0.54351678498E+03 -0.55308930429E+03 -0.56760935143E+03  0.96098837718E+03  0.10566000000E+00 0.  1.
          4    1    3    3  501    0 -0.18206757706E+03  0.25896631849E+02  0.20723442020E+03  0.27706559345E+03  0.00000000000E+00 0.  1.
         13    1    4    4    0    0 -0.19007207647E+03 -0.29329708645E+03  0.39891351533E+03  0.53036080082E+03  0.10566000000E+00 0. -1.
         -4    1    4    4    0  502 -0.17137713146E+03  0.82048975889E+03  0.56491697597E+03  0.10107941212E+04  0.00000000000E+00 0. -1.
<mgrwt>
<rscale>  2 0.11980172E+04</rscale>
<asrwt>0</asrwt>
<pdfrwt beam="1">  1       21 0.26020496E+00 0.12025761E+04</pdfrwt>
<pdfrwt beam="2">  1       21 0.16736564E+00 0.12025761E+04</pdfrwt>
<totfact> 0.43783770E+00</totfact>
</mgrwt>
</event>
<event>
 8    1  0.7418332E-006  0.1012851E+04  0.7818608E-02  0.8766684E-01
         21   -1    0    0  501  502  0.00000000000E+00  0.00000000000E+00  0.87063835704E+03  0.87063835704E+03  0.00000000000E+00 0.  1.
         21   -1    0    0  502  503 -0.00000000000E+00 -0.00000000000E+00 -0.13795889620E+04  0.13795889620E+04  0.00000000000E+00 0.  1.
    9000010    2    1    2  501    0 -0.38160650802E+02  0.32270191155E+02  0.19449050062E+03  0.10313553842E+04  0.10116174045E+04 0.  0.
   -9000010    2    1    2    0  503  0.38160650802E+02 -0.32270191155E+02 -0.70344110560E+03  0.12188719349E+04  0.99414375423E+03 0.  0.
        -13    1    3    3    0    0 -0.25938865996E+03  0.17806450015E+03 -0.32242354639E+03  0.45049572424E+03  0.10566000000E+00 0.  1.
          4    1    3    3  501    0  0.22122800916E+03 -0.14579430899E+03  0.51691404700E+03  0.58085965995E+03  0.00000000000E+00 0.  1.
         13    1    4    4    0    0 -0.22161462073E+03 -0.27140483580E+03 -0.78221417427E+03  0.85710714068E+03  0.10566000000E+00 0. -1.
         -4    1    4    4    0  503  0.25977527153E+03  0.23913464465E+03  0.78773068667E+02  0.36176479419E+03  0.00000000000E+00 0. -1.
<mgrwt>
<rscale>  2 0.10084596E+04</rscale>
<asrwt>0</asrwt>
<pdfrwt beam="1">  1       21 0.13394436E+00 0.10128511E+04</pdfrwt>
<pdfrwt beam="2">  1       21 0.21224446E+00 0.10128511E+04</pdfrwt>
<totfact> 0.20562424E+01</totfact>
</mgrwt>
</event>
<event>
 8    1  0.7418332E-006  0.1120084E+04  0.7818608E-02  0.8674311E-01
         21   -1    0    0  503  502  0.00000000000E+00  0.00000000000E+00  0.13914329386E+04  0.13914329386E+04  0.00000000000E+00 0. -1.
         21   -1    0    0  501  503 -0.00000000000E+00 -0.00000000000E+00 -0.12357159589E+04  0.12357159589E+04  0.00000000000E+00 0.  1.
    9000010    2    1    2  501    0  0.38369097514E+03 -0.27646940665E+03 -0.62401481078E+03  0.12821792025E+04  0.10153496570E+04 0.  0.
   -9000010    2    1    2    0  502 -0.38369097514E+03  0.27646940665E+03  0.77973179043E+03  0.13449696950E+04  0.98858875089E+03 0.  0.
        -13    1    3    3    0    0  0.48899878101E+03  0.14244692224E+03 -0.67677892121E+03  0.84701868506E+03  0.10566000000E+00 0.  1.
          4    1    3    3  501    0 -0.10530780587E+03 -0.41891632889E+03  0.52764110433E+02  0.43516051744E+03  0.00000000000E+00 0.  1.
         13    1    4    4    0    0 -0.36412433640E+03  0.51083714178E+03  0.88704708360E+03  0.10864592295E+04  0.10566000000E+00 0. -1.
         -4    1    4    4    0  502 -0.19566638735E+02 -0.23436773514E+03 -0.10731529317E+03  0.25851046550E+03  0.00000000000E+00 0. -1.
<mgrwt>
<rscale>  2 0.11139846E+04</rscale>
<asrwt>0</asrwt>
<pdfrwt beam="1">  1       21 0.21406660E+00 0.11200844E+04</pdfrwt>
<pdfrwt beam="2">  1       21 0.19011015E+00 0.11200844E+04</pdfrwt>
<totfact> 0.63628767E+00</totfact>
</mgrwt>
</event>
<event>
 8    1  0.7418332E-006  0.1020714E+04  0.7818608E-02  0.8768258E-01
         21   -1    0    0  503  502  0.00000000000E+00  0.00000000000E+00  0.80026057843E+03  0.80026057843E+03  0.00000000000E+00 0.  1.
         21   -1    0    0  501  503 -0.00000000000E+00 -0.00000000000E+00 -0.12389840381E+04  0.12389840381E+04  0.00000000000E+00 0.  1.
    9000010    2    1    2  501    0  0.80130837465E+01  0.12738104643E+03 -0.15527628994E+03  0.10324572889E+04  0.10127029113E+04 0.  0.
   -9000010    2    1    2    0  502 -0.80130837465E+01 -0.12738104643E+03 -0.28344716975E+03  0.10067873277E+04  0.95759505254E+03 0.  0.
        -13    1    3    3    0    0 -0.18129232709E+03 -0.25459894289E+03 -0.42531914119E+03  0.52781048929E+03  0.10566000000E+00 0.  1.
          4    1    3    3  501    0  0.18930541083E+03  0.38197998932E+03  0.27004285125E+03  0.50464679958E+03  0.00000000000E+00 0.  1.
         13    1    4    4    0    0 -0.32339375958E+03  0.27213844120E+03 -0.26211633772E+03  0.49734076907E+03  0.10566000000E+00 0. -1.
         -4    1    4    4    0  502  0.31538067583E+03 -0.39951948764E+03 -0.21330832028E+02  0.50944655862E+03  0.00000000000E+00 0. -1.
<mgrwt>
<rscale>  2 0.10067682E+04</rscale>
<asrwt>0</asrwt>
<pdfrwt beam="1">  1       21 0.12311701E+00 0.10207141E+04</pdfrwt>
<pdfrwt beam="2">  1       21 0.19061293E+00 0.10207141E+04</pdfrwt>
<totfact> 0.38533926E+01</totfact>
</mgrwt>
</event>
<event>
 8    1  0.7418332E-006  0.1142334E+04  0.7818608E-02  0.8652838E-01
         21   -1    0    0  503  502  0.00000000000E+00  0.00000000000E+00  0.26810575339E+04  0.26810575339E+04  0.00000000000E+00 0. -1.
         21   -1    0    0  501  503 -0.00000000000E+00 -0.00000000000E+00 -0.70837635785E+03  0.70837635785E+03  0.00000000000E+00 0. -1.
    9000010    2    1    2  501    0 -0.42786164537E+03 -0.32144965028E+03  0.33669379066E+02  0.11428296876E+04  0.10092227715E+04 0.  0.
   -9000010    2    1    2    0  502  0.42786164537E+03  0.32144965028E+03  0.19390117970E+04  0.22466042042E+04  0.10005339755E+04 0.  0.
        -13    1    3    3    0    0  0.31110338266E+03  0.48744761117E+02  0.29890322776E+02  0.31631441478E+03  0.10566000000E+00 0.  1.
          4    1    3    3  501    0 -0.73896502802E+03 -0.37019441139E+03  0.37790562897E+01  0.82651527278E+03  0.00000000000E+00 0.  1.
         13    1    4    4    0    0  0.48788048893E+03 -0.23991114668E+03  0.71109454797E+03  0.89512021377E+03  0.10566000000E+00 0. -1.
         -4    1    4    4    0  502 -0.60018843567E+02  0.56136079696E+03  0.12279172490E+04  0.13514839904E+04  0.00000000000E+00 0. -1.
<mgrwt>
<rscale>  2 0.11404115E+04</rscale>
<asrwt>0</asrwt>
<pdfrwt beam="1">  1       21 0.41247038E+00 0.11423336E+04</pdfrwt>
<pdfrwt beam="2">  1       21 0.10898098E+00 0.11423336E+04</pdfrwt>
<totfact> 0.13355619E+00</totfact>
</mgrwt>
</event>
<event>
 8    1  0.7418332E-006  0.1002020E+04  0.7818608E-02  0.8787223E-01
         21   -1    0    0  503  502  0.00000000000E+00  0.00000000000E+00  0.74997229998E+03  0.74997229998E+03  0.00000000000E+00 0. -1.
         21   -1    0    0  501  503 -0.00000000000E+00 -0.00000000000E+00 -0.13542159018E+04  0.13542159018E+04  0.00000000000E+00 0. -1.
    9000010    2    1    2  501    0 -0.12242716312E+03 -0.88005932039E+02 -0.15734634073E+02  0.94212683176E+03  0.92985049017E+03 0.  0.
   -9000010    2    1    2    0  502  0.12242716312E+03  0.88005932039E+02 -0.58850896778E+03  0.11620613701E+04  0.99061110849E+03 0.  0.
        -13    1    3    3    0    0 -0.40011144626E+02 -0.50862629175E+03  0.29977503128E+02  0.51107754618E+03  0.10566000000E+00 0.  1.
          4    1    3    3  501    0 -0.82416018497E+02  0.42062035971E+03 -0.45712137202E+02  0.43104928558E+03  0.00000000000E+00 0.  1.
         13    1    4    4    0    0 -0.29229599960E+03 -0.30211810214E+03 -0.34067256575E+03  0.54108234793E+03  0.10566000000E+00 0. -1.
         -4    1    4    4    0  502  0.41472316272E+03  0.39012403418E+03 -0.24783640204E+03  0.62097902212E+03  0.00000000000E+00 0. -1.
<mgrwt>
<rscale>  2 0.98666438E+03</rscale>
<asrwt>0</asrwt>
<pdfrwt beam="1">  1       21 0.11538035E+00 0.10020199E+04</pdfrwt>
<pdfrwt beam="2">  1       21 0.20834091E+00 0.10020199E+04</pdfrwt>
<totfact> 0.33708248E+01</totfact>
</mgrwt>
</event>
<event>
 8    1  0.7418332E-006  0.1224247E+04  0.7818608E-02  0.8591658E-01
         21   -1    0    0  501  502  0.00000000000E+00  0.00000000000E+00  0.10266747594E+04  0.10266747594E+04  0.00000000000E+00 0.  1.
         21   -1    0    0  502  503 -0.00000000000E+00 -0.00000000000E+00 -0.16704474738E+04  0.16704474738E+04  0.00000000000E+00 0.  1.
    9000010    2    1    2  501    0  0.16251998658E+03  0.67233080404E+03 -0.82499996524E+03  0.14762814346E+04  0.10101190402E+04 0.  0.
   -9000010    2    1    2    0  503 -0.16251998658E+03 -0.67233080404E+03  0.18122725086E+03  0.12208407985E+04  0.98952891965E+03 0.  0.
        -13    1    3    3    0    0 -0.58368761187E+02 -0.25333295249E+03 -0.26908102208E+03  0.37415117895E+03  0.10566000000E+00 0.  1.
          4    1    3    3  501    0  0.22088874776E+03  0.92566375653E+03 -0.55591894316E+03  0.11021302556E+04  0.00000000000E+00 0.  1.
         13    1    4    4    0    0 -0.21749745474E+03 -0.47512593342E+03  0.57503900972E+03  0.77699399566E+03  0.10566000000E+00 0. -1.
         -4    1    4    4    0  503  0.54977468166E+02 -0.19720487062E+03 -0.39381175887E+03  0.44384680288E+03  0.00000000000E+00 0. -1.
<mgrwt>
<rscale>  2 0.12199922E+04</rscale>
<asrwt>0</asrwt>
<pdfrwt beam="1">  1       21 0.15794996E+00 0.12242475E+04</pdfrwt>
<pdfrwt beam="2">  1       21 0.25699192E+00 0.12242475E+04</pdfrwt>
<totfact> 0.55394191E+00</totfact>
</mgrwt>
</event>
<event>
 8    1  0.7418332E-006  0.1017794E+04  0.7818608E-02  0.8760065E-01
         21   -1    0    0  501  502  0.00000000000E+00  0.00000000000E+00  0.15034269185E+04  0.15034269185E+04  0.00000000000E+00 0.  1.
         21   -1    0    0  502  503 -0.00000000000E+00 -0.00000000000E+00 -0.76239560028E+03  0.76239560028E+03  0.00000000000E+00 0.  1.
    9000010    2    1    2  501    0 -0.29308553312E+01  0.12458164096E+03  0.38044631926E+01  0.10090772879E+04  0.10013457564E+04 0.  0.
   -9000010    2    1    2    0  503  0.29308553312E+01 -0.12458164096E+03  0.73722685499E+03  0.12567452308E+04  0.10101366067E+04 0.  0.
        -13    1    3    3    0    0 -0.18962619953E+03  0.20067841991E+03  0.44517453629E+03  0.52384186802E+03  0.10566000000E+00 0.  1.
          4    1    3    3  501    0  0.18669534420E+03 -0.76096778954E+02 -0.44137007309E+03  0.48523541991E+03  0.00000000000E+00 0.  1.
         13    1    4    4    0    0 -0.42695104430E+03  0.16003154147E+03  0.16100933644E+03  0.48355072752E+03  0.10566000000E+00 0. -1.
         -4    1    4    4    0  503  0.42988189963E+03 -0.28461318243E+03  0.57621751855E+03  0.77319450330E+03  0.00000000000E+00 0. -1.
<mgrwt>
<rscale>  2 0.10156062E+04</rscale>
<asrwt>0</asrwt>
<pdfrwt beam="1">  1       21 0.23129645E+00 0.10177943E+04</pdfrwt>
<pdfrwt beam="2">  1       21 0.11729163E+00 0.10177943E+04</pdfrwt>
<totfact> 0.21548452E+01</totfact>
</mgrwt>
</event>
<event>
 8    1  0.7418332E-006  0.1045265E+04  0.7818608E-02  0.8750131E-01
         21   -1    0    0  503  502  0.00000000000E+00  0.00000000000E+00  0.13473112297E+04  0.13473112297E+04  0.00000000000E+00 0.  1.
         21   -1    0    0  501  503 -0.00000000000E+00 -0.00000000000E+00 -0.91295229547E+03  0.91295229547E+03  0.00000000000E+00 0.  1.
    9000010    2    1    2  501    0  0.27789056655E+03 -0.15485721809E+03 -0.24598171198E+03  0.10738186044E+04  0.99567839568E+03 0.  0.
   -9000010    2    1    2    0  502 -0.27789056655E+03  0.15485721809E+03  0.68034064622E+03  0.11864449207E+04  0.91846841539E+03 0.  0.
        -13    1    3    3    0    0  0.33039263769E+03  0.34196954660E+03 -0.31369842025E+03  0.56965706866E+03  0.10566000000E+00 0.  1.
          4    1    3    3  501    0 -0.52502071140E+02 -0.49682676468E+03  0.67716708270E+02  0.50416153578E+03  0.00000000000E+00 0.  1.
         13    1    4    4    0    0  0.19136282532E+03 -0.25490173747E+03  0.97468231020E+02  0.33330870661E+03  0.10566000000E+00 0. -1.
         -4    1    4    4    0  502 -0.46925339187E+03  0.40975895556E+03  0.58287241520E+03  0.85313621412E+03  0.00000000000E+00 0. -1.
<mgrwt>
<rscale>  2 0.10264474E+04</rscale>
<asrwt>0</asrwt>
<pdfrwt beam="1">  1       21 0.20727865E+00 0.10452652E+04</pdfrwt>
<pdfrwt beam="2">  1       21 0.14045420E+00 0.10452652E+04</pdfrwt>
<totfact> 0.19361141E+01</totfact>
</mgrwt>
</event>
<event>
 8    1  0.7418332E-006  0.1021718E+04  0.7818608E-02  0.8765834E-01
         21   -1    0    0  503  502  0.00000000000E+00  0.00000000000E+00  0.49133580317E+03  0.49133580317E+03  0.00000000000E+00 0. -1.
         21   -1    0    0  501  503 -0.00000000000E+00 -0.00000000000E+00 -0.21954000937E+04  0.21954000937E+04  0.00000000000E+00 0. -1.
    9000010    2    1    2  501    0  0.15116462894E+03  0.92828835556E+02 -0.12070900606E+04  0.15505620722E+04  0.95692653206E+03 0.  0.
   -9000010    2    1    2    0  502 -0.15116462894E+03 -0.92828835556E+02 -0.49697422993E+03  0.11361738246E+04  0.10062005947E+04 0.  0.
        -13    1    3    3    0    0  0.54515101728E+03 -0.63371511961E+02 -0.65431016350E+03  0.85400666355E+03  0.10566000000E+00 0.  1.
          4    1    3    3  501    0 -0.39398638833E+03  0.15620034752E+03 -0.55277989708E+03  0.69655540869E+03  0.00000000000E+00 0.  1.
         13    1    4    4    0    0  0.38107445533E+03  0.13749803530E+03 -0.58914839190E+02  0.40938297432E+03  0.10566000000E+00 0. -1.
         -4    1    4    4    0  502 -0.53223908428E+03 -0.23032687086E+03 -0.43805939074E+03  0.72679085030E+03  0.00000000000E+00 0. -1.
<mgrwt>
<rscale>  2 0.10093740E+04</rscale>
<asrwt>0</asrwt>
<pdfrwt beam="1">  1       21 0.75590126E-01 0.10217180E+04</pdfrwt>
<pdfrwt beam="2">  1       21 0.33775385E+00 0.10217180E+04</pdfrwt>
<totfact> 0.11611612E+01</totfact>
</mgrwt>
</event>
<event>
 8    1  0.7418332E-006  0.1014009E+04  0.7818608E-02  0.8765385E-01
         21   -1    0    0  503  502  0.00000000000E+00  0.00000000000E+00  0.97947323331E+03  0.97947323331E+03  0.00000000000E+00 0.  1.
         21   -1    0    0  501  503 -0.00000000000E+00 -0.00000000000E+00 -0.16123158027E+04  0.16123158027E+04  0.00000000000E+00 0.  1.
    9000010    2    1    2  501    0 -0.77727126324E+02 -0.78396823063E+02 -0.10950280745E+04  0.14924142666E+04  0.10079812951E+04 0.  0.
   -9000010    2    1    2    0  502  0.77727126324E+02  0.78396823063E+02  0.46218550504E+03  0.10993747695E+04  0.99137373105E+03 0.  0.
        -13    1    3    3    0    0  0.38439464025E+03 -0.24421738960E+03 -0.26181849287E+03  0.52530972503E+03  0.10566000000E+00 0.  1.
          4    1    3    3  501    0 -0.46212176658E+03  0.16582056654E+03 -0.83320958159E+03  0.96710454155E+03  0.00000000000E+00 0.  1.
         13    1    4    4    0    0 -0.41685184597E+03  0.20228380640E+03  0.10011279598E+03  0.47403247030E+03  0.10566000000E+00 0. -1.
         -4    1    4    4    0  502  0.49457897229E+03 -0.12388698334E+03  0.36207270906E+03  0.62534229916E+03  0.00000000000E+00 0. -1.
<mgrwt>
<rscale>  2 0.10098566E+04</rscale>
<asrwt>0</asrwt>
<pdfrwt beam="1">  1       21 0.15068819E+00 0.10140088E+04</pdfrwt>
<pdfrwt beam="2">  1       21 0.24804858E+00 0.10140088E+04</pdfrwt>
<totfact> 0.78174342E+00</totfact>
</mgrwt>
</event>
<event>
 8    1  0.7418332E-006  0.1005005E+04  0.7818608E-02  0.8769927E-01
         21   -1    0    0  501  502  0.00000000000E+00  0.00000000000E+00  0.16087084141E+04  0.16087084141E+04  0.00000000000E+00 0. -1.
         21   -1    0    0  502  503 -0.00000000000E+00 -0.00000000000E+00 -0.63402250914E+03  0.63402250914E+03  0.00000000000E+00 0. -1.
    9000010    2    1    2  501    0 -0.69326252341E+02 -0.96005083963E+02  0.59848711920E+03  0.11696233106E+04  0.99790217525E+03 0.  0.
   -9000010    2    1    2    0  503  0.69326252341E+02  0.96005083963E+02  0.37619878578E+03  0.10731076127E+04  0.99800366561E+03 0.  0.
        -13    1    3    3    0    0 -0.11920124508E+03  0.25577965937E+03 -0.16543992968E+03  0.32711244622E+03  0.10566000000E+00 0.  1.
          4    1    3    3  501    0  0.49874992741E+02 -0.35178474333E+03  0.76392704888E+03  0.84251086435E+03  0.00000000000E+00 0.  1.
         13    1    4    4    0    0  0.35319103753E+03  0.41090714076E+03  0.61922207315E+02  0.54536497709E+03  0.10566000000E+00 0. -1.
         -4    1    4    4    0  503 -0.28386478519E+03 -0.31490205680E+03  0.31427657846E+03  0.52774263559E+03  0.00000000000E+00 0. -1.
<mgrwt>
<rscale>  2 0.10049795E+04</rscale>
<asrwt>0</asrwt>
<pdfrwt beam="1">  1       21 0.24749360E+00 0.10050047E+04</pdfrwt>
<pdfrwt beam="2">  1       21 0.97541925E-01 0.10050047E+04</pdfrwt>
<totfact> 0.26934828E+01</totfact>
</mgrwt>
</event>
<event>
 8    1  0.7418332E-006  0.1169719E+04  0.7818608E-02  0.8636241E-01
         21   -1    0    0  503  502  0.00000000000E+00  0.00000000000E+00  0.13351819117E+04  0.13351819117E+04  0.00000000000E+00 0. -1.
         21   -1    0    0  501  503 -0.00000000000E+00 -0.00000000000E+00 -0.11373816813E+04  0.11373816813E+04  0.00000000000E+00 0. -1.
    9000010    2    1    2  501    0  0.43762041307E+03 -0.34208648030E+03 -0.33571137892E+03  0.12169405871E+04  0.10294209424E+04 0.  0.
   -9000010    2    1    2    0  502 -0.43762041307E+03  0.34208648030E+03  0.53351160933E+03  0.12556230060E+04  0.99167520387E+03 0.  0.
        -13    1    3    3    0    0  0.22380232948E+01  0.29251998089E+03  0.12704785153E+03  0.31892650519E+03  0.10566000000E+00 0.  1.
          4    1    3    3  501    0  0.43538238977E+03 -0.63460646118E+03 -0.46275923046E+03  0.89801408189E+03  0.00000000000E+00 0.  1.
         13    1    4    4    0    0 -0.72875884619E+03  0.72804105624E+02  0.41462457685E+03  0.84160765479E+03  0.10566000000E+00 0. -1.
         -4    1    4    4    0  502  0.29113843312E+03  0.26928237467E+03  0.11888703248E+03  0.41401535122E+03  0.00000000000E+00 0. -1.
<mgrwt>
<rscale>  2 0.11613604E+04</rscale>
<asrwt>0</asrwt>
<pdfrwt beam="1">  1       21 0.20541260E+00 0.11697189E+04</pdfrwt>
<pdfrwt beam="2">  1       21 0.17498180E+00 0.11697189E+04</pdfrwt>
<totfact> 0.97344499E+00</totfact>
</mgrwt>
</event>
<event>
 8    1  0.7418332E-006  0.1033410E+04  0.7818608E-02  0.8753908E-01
         21   -1    0    0  503  502  0.00000000000E+00  0.00000000000E+00  0.57013395750E+03  0.57013395750E+03  0.00000000000E+00 0. -1.
         21   -1    0    0  501  503 -0.00000000000E+00 -0.00000000000E+00 -0.29252827658E+04  0.29252827658E+04  0.00000000000E+00 0. -1.
    9000010    2    1    2  501    0 -0.10814920805E+03 -0.16140607382E+03 -0.22795016471E+04  0.25028110253E+04  0.10149813285E+04 0.  0.
   -9000010    2    1    2    0  502  0.10814920805E+03  0.16140607382E+03 -0.75647161129E+02  0.99260569796E+03  0.97046144013E+03 0.  0.
        -13    1    3    3    0    0  0.36295265391E+03  0.13594993761E+03 -0.14693010655E+04  0.15195600175E+04  0.10566000000E+00 0.  1.
          4    1    3    3  501    0 -0.47110186196E+03 -0.29735601143E+03 -0.81020058164E+03  0.98325100781E+03  0.00000000000E+00 0.  1.
         13    1    4    4    0    0  0.15584641026E+03  0.55855911872E+03 -0.11320329230E+03  0.59083956304E+03  0.10566000000E+00 0. -1.
         -4    1    4    4    0  502 -0.47697202219E+02 -0.39715304491E+03  0.37556131174E+02  0.40176613492E+03  0.00000000000E+00 0. -1.
<mgrwt>
<rscale>  2 0.10223093E+04</rscale>
<asrwt>0</asrwt>
<pdfrwt beam="1">  1       21 0.87712918E-01 0.10334095E+04</pdfrwt>
<pdfrwt beam="2">  1       21 0.45004349E+00 0.10334095E+04</pdfrwt>
<totfact> 0.13247417E+00</totfact>
</mgrwt>
</event>
<event>
 8    1  0.7418332E-006  0.1174027E+04  0.7818608E-02  0.8633143E-01
         21   -1    0    0  503  502  0.00000000000E+00  0.00000000000E+00  0.11008782948E+04  0.11008782948E+04  0.00000000000E+00 0.  1.
         21   -1    0    0  501  503 -0.00000000000E+00 -0.00000000000E+00 -0.14570429100E+04  0.14570429100E+04  0.00000000000E+00 0.  1.
    9000010    2    1    2  501    0 -0.62277462116E+03  0.10681307904E+03 -0.69647106229E+03  0.13355677933E+04  0.94837341131E+03 0.  0.
   -9000010    2    1    2    0  502  0.62277462116E+03 -0.10681307904E+03  0.34030644713E+03  0.12223534115E+04  0.98948578667E+03 0.  0.
        -13    1    3    3    0    0 -0.13140381400E+03  0.11965654318E+03  0.22767837771E+03  0.28882885157E+03  0.10566000000E+00 0.  1.
          4    1    3    3  501    0 -0.49137080716E+03 -0.12843464135E+02 -0.92414944000E+03  0.10467389417E+04  0.00000000000E+00 0.  1.
         13    1    4    4    0    0 -0.18638725597E+03 -0.51488082188E+02  0.36266382476E+03  0.41099427338E+03  0.10566000000E+00 0. -1.
         -4    1    4    4    0  502  0.80916187713E+03 -0.55324996855E+02 -0.22357377628E+02  0.81135913812E+03  0.00000000000E+00 0. -1.
<mgrwt>
<rscale>  2 0.11653218E+04</rscale>
<asrwt>0</asrwt>
<pdfrwt beam="1">  1       21 0.16936589E+00 0.11740270E+04</pdfrwt>
<pdfrwt beam="2">  1       21 0.22416045E+00 0.11740270E+04</pdfrwt>
<totfact> 0.77991013E+00</totfact>
</mgrwt>
</event>
<event>
 8    1  0.7418332E-006  0.1016466E+04  0.7818608E-02  0.8762422E-01
         21   -1    0    0  501  502  0.00000000000E+00  0.00000000000E+00  0.97399061622E+03  0.97399061622E+03  0.00000000000E+00 0. -1.
         21   -1    0    0  502  503 -0.00000000000E+00 -0.00000000000E+00 -0.10474920397E+04  0.10474920397E+04  0.00000000000E+00 0. -1.
    9000010    2    1    2  501    0 -0.99939166949E+02 -0.22136546496E+02 -0.65291701079E+02  0.10185609366E+04  0.10112989229E+04 0.  0.
   -9000010    2    1    2    0  503  0.99939166949E+02  0.22136546496E+02 -0.82097223557E+01  0.10029217193E+04  0.99765059600E+03 0.  0.
        -13    1    3    3    0    0 -0.43766165678E+01 -0.45816950563E+03 -0.26526000196E+03  0.52943491618E+03  0.10566000000E+00 0.  1.
          4    1    3    3  501    0 -0.95562550381E+02  0.43603295914E+03  0.19996830088E+03  0.48912602041E+03  0.00000000000E+00 0.  1.
         13    1    4    4    0    0 -0.36668599908E+02  0.38885795421E+03 -0.31811223881E+03  0.50373654068E+03  0.10566000000E+00 0. -1.
         -4    1    4    4    0  503  0.13660776686E+03 -0.36672140771E+03  0.30990251645E+03  0.49918517861E+03  0.00000000000E+00 0. -1.
<mgrwt>
<rscale>  2 0.10130545E+04</rscale>
<asrwt>0</asrwt>
<pdfrwt beam="1">  1       21 0.14984471E+00 0.10164661E+04</pdfrwt>
<pdfrwt beam="2">  1       21 0.16115262E+00 0.10164661E+04</pdfrwt>
<totfact> 0.37861317E+01</totfact>
</mgrwt>
</event>
<event>
 8    1  0.7418332E-006  0.1081392E+04  0.7818608E-02  0.8708088E-01
         21   -1    0    0  501  502  0.00000000000E+00  0.00000000000E+00  0.78884520016E+03  0.78884520016E+03  0.00000000000E+00 0.  1.
         21   -1    0    0  502  503 -0.00000000000E+00 -0.00000000000E+00 -0.15143979573E+04  0.15143979573E+04  0.00000000000E+00 0.  1.
    9000010    2    1    2  501    0  0.78656483663E+02 -0.33483748007E+03 -0.10636768218E+03  0.10571295319E+04  0.99393449632E+03 0.  0.
   -9000010    2    1    2    0  503 -0.78656483663E+02  0.33483748007E+03 -0.61918507499E+03  0.12461136256E+04  0.10252346220E+04 0.  0.
        -13    1    3    3    0    0  0.39326072057E+03  0.11877853460E+03  0.16413338200E+03  0.44238231529E+03  0.10566000000E+00 0.  1.
          4    1    3    3  501    0 -0.31460423691E+03 -0.45361601467E+03 -0.27050106418E+03  0.61474721664E+03  0.00000000000E+00 0.  1.
         13    1    4    4    0    0 -0.35408576180E+03  0.24897822792E+03 -0.79718296668E+03  0.90712048715E+03  0.10566000000E+00 0. -1.
         -4    1    4    4    0  503  0.27542927814E+03  0.85859252156E+02  0.17799789169E+03  0.33899313840E+03  0.00000000000E+00 0. -1.
<mgrwt>
<rscale>  2 0.10739079E+04</rscale>
<asrwt>0</asrwt>
<pdfrwt beam="1">  1       21 0.12136080E+00 0.10813922E+04</pdfrwt>
<pdfrwt beam="2">  1       21 0.23298430E+00 0.10813922E+04</pdfrwt>
<totfact> 0.18766955E+01</totfact>
</mgrwt>
</event>
<event>
 8    1  0.7418332E-006  0.1035137E+04  0.7818608E-02  0.8744287E-01
         21   -1    0    0  501  502  0.00000000000E+00  0.00000000000E+00  0.69283084160E+03  0.69283084160E+03  0.00000000000E+00 0. -1.
         21   -1    0    0  502  503 -0.00000000000E+00 -0.00000000000E+00 -0.16588437514E+04  0.16588437514E+04  0.00000000000E+00 0. -1.
    9000010    2    1    2  501    0 -0.26582487854E+03  0.56108637779E+02 -0.16136435098E+03  0.10476383507E+04  0.99884764339E+03 0.  0.
   -9000010    2    1    2    0  503  0.26582487854E+03 -0.56108637779E+02 -0.80464855888E+03  0.13040362424E+04  0.98956564860E+03 0.  0.
        -13    1    3    3    0    0  0.14372297763E+03 -0.23427354687E+03 -0.40511336809E+03  0.48954799686E+03  0.10566000000E+00 0.  1.
          4    1    3    3  501    0 -0.40954785616E+03  0.29038218465E+03  0.24374901711E+03  0.55809035379E+03  0.00000000000E+00 0.  1.
         13    1    4    4    0    0 -0.10493140646E+03  0.26622294899E+02 -0.90474244210E+03  0.91119605155E+03  0.10566000000E+00 0. -1.
         -4    1    4    4    0  503  0.37075628500E+03 -0.82730932678E+02  0.10009388323E+03  0.39284019085E+03  0.00000000000E+00 0. -1.
<mgrwt>
<rscale>  2 0.10328908E+04</rscale>
<asrwt>0</asrwt>
<pdfrwt beam="1">  1       21 0.10658936E+00 0.10351365E+04</pdfrwt>
<pdfrwt beam="2">  1       21 0.25520673E+00 0.10351365E+04</pdfrwt>
<totfact> 0.18613097E+01</totfact>
</mgrwt>
</event>
<event>
 8    1  0.7418332E-006  0.1040919E+04  0.7818608E-02  0.8737585E-01
         21   -1    0    0  501  502  0.00000000000E+00  0.00000000000E+00  0.91578437152E+03  0.91578437152E+03  0.00000000000E+00 0.  1.
         21   -1    0    0  502  503 -0.00000000000E+00 -0.00000000000E+00 -0.12302652639E+04  0.12302652639E+04  0.00000000000E+00 0.  1.
    9000010    2    1    2  501    0  0.21691719797E+03  0.17895904166E+03  0.58693131747E+02  0.10402595824E+04  0.99980783439E+03 0.  0.
   -9000010    2    1    2    0  503 -0.21691719797E+03 -0.17895904166E+03 -0.37317402414E+03  0.11057900530E+04  0.10022142384E+04 0.  0.
        -13    1    3    3    0    0 -0.10322861828E+03  0.52644506669E+03  0.15426076777E+03  0.55820869888E+03  0.10566000000E+00 0.  1.
          4    1    3    3  501    0  0.32014581625E+03 -0.34748602503E+03 -0.95567636023E+02  0.48205088353E+03  0.00000000000E+00 0.  1.
         13    1    4    4    0    0  0.23221305436E+03 -0.23278573318E+03 -0.53281493071E+03  0.62610211766E+03  0.10566000000E+00 0. -1.
         -4    1    4    4    0  503 -0.44913025234E+03  0.53826691519E+02  0.15964090657E+03  0.47968793536E+03  0.00000000000E+00 0. -1.
<mgrwt>
<rscale>  2 0.10403395E+04</rscale>
<asrwt>0</asrwt>
<pdfrwt beam="1">  1       21 0.14088990E+00 0.10409192E+04</pdfrwt>
<pdfrwt beam="2">  1       21 0.18927158E+00 0.10409192E+04</pdfrwt>
<totfact> 0.26569928E+01</totfact>
</mgrwt>
</event>
<event>
 8    1  0.7418332E-006  0.1074278E+04  0.7818608E-02  0.8708593E-01
         21   -1    0    0  501  502  0.00000000000E+00  0.00000000000E+00  0.98438262755E+03  0.98438262755E+03  0.00000000000E+00 0.  1.
         21   -1    0    0  502  503 -0.00000000000E+00 -0.00000000000E+00 -0.14049620292E+04  0.14049620292E+04  0.00000000000E+00 0.  1.
    9000010    2    1    2  501    0  0.27151993382E+02  0.38434886481E+03  0.27980277359E+03  0.11101188008E+04  0.10028025126E+04 0.  0.
   -9000010    2    1    2    0  503 -0.27151993382E+02 -0.38434886481E+03 -0.70038217526E+03  0.12792258560E+04  0.99871032764E+03 0.  0.
        -13    1    3    3    0    0  0.18840777701E+01  0.27482566172E+03  0.65931950322E+03  0.71430729562E+03  0.10566000000E+00 0.  1.
          4    1    3    3  501    0  0.25267915612E+02  0.10952320309E+03 -0.37951672963E+03  0.39581150519E+03  0.00000000000E+00 0.  1.
         13    1    4    4    0    0  0.41632628192E+02  0.23933106447E+03  0.99578561582E+02  0.26254244465E+03  0.10566000000E+00 0. -1.
         -4    1    4    4    0  503 -0.68784621574E+02 -0.62367992929E+03 -0.79996073684E+03  0.10166834113E+04  0.00000000000E+00 0. -1.
<mgrwt>
<rscale>  2 0.10733224E+04</rscale>
<asrwt>0</asrwt>
<pdfrwt beam="1">  1       21 0.15144348E+00 0.10742784E+04</pdfrwt>
<pdfrwt beam="2">  1       21 0.21614800E+00 0.10742784E+04</pdfrwt>
<totfact> 0.13086144E+01</totfact>
</mgrwt>
</event>
<event>
 8    1  0.7418332E-006  0.1035709E+04  0.7818608E-02  0.8746475E-01
         21   -1    0    0  503  502  0.00000000000E+00  0.00000000000E+00  0.13515232605E+04  0.13515232605E+04  0.00000000000E+00 0. -1.
         21   -1    0    0  501  503 -0.00000000000E+00 -0.00000000000E+00 -0.90349925104E+03  0.90349925104E+03  0.00000000000E+00 0. -1.
    9000010    2    1    2  501    0  0.27858153982E+02  0.71608010548E+02 -0.19449981148E+03  0.10538134273E+04  0.10328546747E+04 0.  0.
   -9000010    2    1    2    0  502 -0.27858153982E+02 -0.71608010548E+02  0.64252382098E+03  0.12012090843E+04  0.10120091994E+04 0.  0.
        -13    1    3    3    0    0  0.10714200305E+03  0.38336818749E+03 -0.48009007052E+03  0.62364818846E+03  0.10566000000E+00 0.  1.
          4    1    3    3  501    0 -0.79283849064E+02 -0.31176017694E+03  0.28559025904E+03  0.43016523884E+03  0.00000000000E+00 0.  1.
         13    1    4    4    0    0  0.28922719095E+03  0.24995289255E+03 -0.38344497892E+02  0.38418631959E+03  0.10566000000E+00 0. -1.
         -4    1    4    4    0  502 -0.31708534493E+03 -0.32156090310E+03  0.68086831887E+03  0.81702276468E+03  0.00000000000E+00 0. -1.
<mgrwt>
<rscale>  2 0.10304724E+04</rscale>
<asrwt>0</asrwt>
<pdfrwt beam="1">  1       21 0.20792666E+00 0.10357087E+04</pdfrwt>
<pdfrwt beam="2">  1       21 0.13899988E+00 0.10357087E+04</pdfrwt>
<totfact> 0.19786248E+01</totfact>
</mgrwt>
</event>
<event>
 8    1  0.7418332E-006  0.1001498E+04  0.7818608E-02  0.8778228E-01
         21   -1    0    0  503  502  0.00000000000E+00  0.00000000000E+00  0.71079317587E+03  0.71079317587E+03  0.00000000000E+00 0.  1.
         21   -1    0    0  501  503 -0.00000000000E+00 -0.00000000000E+00 -0.15686283477E+04  0.15686283477E+04  0.00000000000E+00 0.  1.
    9000010    2    1    2  501    0 -0.31179075322E+02 -0.57024997439E+02 -0.81870919475E+03  0.12771597315E+04  0.97807374421E+03 0.  0.
   -9000010    2    1    2    0  502  0.31179075322E+02  0.57024997439E+02 -0.39125977044E+02  0.10022617920E+04  0.99938674829E+03 0.  0.
        -13    1    3    3    0    0 -0.72146523462E+02  0.30267671162E+03  0.68782981438E+02  0.31866820096E+03  0.10566000000E+00 0.  1.
          4    1    3    3  501    0  0.40967448140E+02 -0.35970170906E+03 -0.88749217619E+03  0.95849153053E+03  0.00000000000E+00 0.  1.
         13    1    4    4    0    0  0.45713663823E+03  0.26088816870E+03 -0.58842587170E+02  0.52962156660E+03  0.10566000000E+00 0. -1.
         -4    1    4    4    0  502 -0.42595756291E+03 -0.20386317126E+03  0.19716610127E+02  0.47264022545E+03  0.00000000000E+00 0. -1.
<mgrwt>
<rscale>  2 0.99613816E+03</rscale>
<asrwt>0</asrwt>
<pdfrwt beam="1">  1       21 0.10935280E+00 0.10014978E+04</pdfrwt>
<pdfrwt beam="2">  1       21 0.24132744E+00 0.10014978E+04</pdfrwt>
<totfact> 0.22101434E+01</totfact>
</mgrwt>
</event>
<event>
 8    1  0.7418332E-006  0.1074163E+04  0.7818608E-02  0.8712736E-01
         21   -1    0    0  501  502  0.00000000000E+00  0.00000000000E+00  0.10258127527E+04  0.10258127527E+04  0.00000000000E+00 0. -1.
         21   -1    0    0  502  503 -0.00000000000E+00 -0.00000000000E+00 -0.17352801313E+04  0.17352801313E+04  0.00000000000E+00 0. -1.
    9000010    2    1    2  501    0 -0.32588422077E+03  0.20538424035E+02  0.48192129864E+03  0.11569630697E+04  0.99984651545E+03 0.  0.
   -9000010    2    1    2    0  503  0.32588422077E+03 -0.20538424035E+02 -0.11913886773E+04  0.16041298142E+04  0.10233294329E+04 0.  0.
        -13    1    3    3    0    0 -0.40876352098E+03  0.36972860574E+03  0.56422422244E+03  0.78875588260E+03  0.10566000000E+00 0.  1.
          4    1    3    3  501    0  0.82879300209E+02 -0.34919018170E+03 -0.82302923797E+02  0.36820718715E+03  0.00000000000E+00 0.  1.
         13    1    4    4    0    0  0.37649021260E+03 -0.23246285592E+03 -0.53649103529E+02  0.44571526453E+03  0.10566000000E+00 0. -1.
         -4    1    4    4    0  503 -0.50605991831E+02  0.21192443188E+03 -0.11377395738E+04  0.11584145497E+04  0.00000000000E+00 0. -1.
<mgrwt>
<rscale>  2 0.10685317E+04</rscale>
<asrwt>0</asrwt>
<pdfrwt beam="1">  1       21 0.15781735E+00 0.10741627E+04</pdfrwt>
<pdfrwt beam="2">  1       21 0.26696617E+00 0.10741627E+04</pdfrwt>
<totfact> 0.48671051E+00</totfact>
</mgrwt>
</event>
<event>
 8    1  0.7418332E-006  0.1102159E+04  0.7818608E-02  0.8687544E-01
         21   -1    0    0  501  502  0.00000000000E+00  0.00000000000E+00  0.62652816891E+03  0.62652816891E+03  0.00000000000E+00 0. -1.
         21   -1    0    0  502  503 -0.00000000000E+00 -0.00000000000E+00 -0.24297006682E+04  0.24297006682E+04  0.00000000000E+00 0. -1.
    9000010    2    1    2  501    0  0.84789716311E+02 -0.42101692860E+03 -0.18984273943E+03  0.11023643185E+04  0.99735764644E+03 0.  0.
   -9000010    2    1    2    0  503 -0.84789716311E+02  0.42101692860E+03 -0.16133297598E+04  0.19538645186E+04  0.10150414241E+04 0.  0.
        -13    1    3    3    0    0 -0.29957471741E+03  0.27369084614E+02  0.22922762650E+03  0.37820549179E+03  0.10566000000E+00 0.  1.
          4    1    3    3  501    0  0.38436443372E+03 -0.44838601322E+03 -0.41907036593E+03  0.72415882675E+03  0.00000000000E+00 0.  1.
         13    1    4    4    0    0 -0.40579306412E+03  0.50451131507E+02 -0.13214875918E+04  0.13833086402E+04  0.10566000000E+00 0. -1.
         -4    1    4    4    0  503  0.32100334781E+03  0.37056579709E+03 -0.29184216800E+03  0.57055587833E+03  0.00000000000E+00 0. -1.
<mgrwt>
<rscale>  2 0.10980699E+04</rscale>
<asrwt>0</asrwt>
<pdfrwt beam="1">  1       21 0.96388947E-01 0.11021586E+04</pdfrwt>
<pdfrwt beam="2">  1       21 0.37380011E+00 0.11021586E+04</pdfrwt>
<totfact> 0.34659434E+00</totfact>
</mgrwt>
</event>
<event>
 8    1  0.7418332E-006  0.1043284E+04  0.7818608E-02  0.8735117E-01
         21   -1    0    0  501  502  0.00000000000E+00  0.00000000000E+00  0.86599088582E+03  0.86599088582E+03  0.00000000000E+00 0.  1.
         21   -1    0    0  502  503 -0.00000000000E+00 -0.00000000000E+00 -0.13799795929E+04  0.13799795929E+04  0.00000000000E+00 0.  1.
    9000010    2    1    2  501    0 -0.27712277293E+03  0.11112394389E+03  0.79539359049E+02  0.10463115182E+04  0.99964779866E+03 0.  0.
   -9000010    2    1    2    0  503  0.27712277293E+03 -0.11112394389E+03 -0.59352806616E+03  0.11996589605E+04  0.99887961939E+03 0.  0.
        -13    1    3    3    0    0 -0.62672249381E+02  0.44223504638E+02  0.53393630676E+03  0.53941776022E+03  0.10566000000E+00 0.  1.
          4    1    3    3  501    0 -0.21445052355E+03  0.66900439250E+02 -0.45439694771E+03  0.50689375801E+03  0.00000000000E+00 0.  1.
         13    1    4    4    0    0  0.57760620377E+02 -0.20906457025E+03  0.24510657541E+03  0.32729425335E+03  0.10566000000E+00 0. -1.
         -4    1    4    4    0  503  0.21936215255E+03  0.97940626360E+02 -0.83863464157E+03  0.87236470717E+03  0.00000000000E+00 0. -1.
<mgrwt>
<rscale>  2 0.10430998E+04</rscale>
<asrwt>0</asrwt>
<pdfrwt beam="1">  1       21 0.13322937E+00 0.10432839E+04</pdfrwt>
<pdfrwt beam="2">  1       21 0.21230455E+00 0.10432839E+04</pdfrwt>
<totfact> 0.20718257E+01</totfact>
</mgrwt>
</event>
<event>
 8    1  0.7418332E-006  0.1093131E+04  0.7818608E-02  0.8705751E-01
         21   -1    0    0  503  502  0.00000000000E+00  0.00000000000E+00  0.14457363810E+04  0.14457363810E+04  0.00000000000E+00 0.  1.
         21   -1    0    0  501  503 -0.00000000000E+00 -0.00000000000E+00 -0.91675245530E+03  0.91675245530E+03  0.00000000000E+00 0.  1.
    9000010    2    1    2  501    0 -0.24835439833E+03  0.10643266029E+03 -0.18732171202E+03  0.11090652251E+04  0.10592112308E+04 0.  0.
   -9000010    2    1    2    0  502  0.24835439833E+03 -0.10643266029E+03  0.71630563773E+03  0.12534236112E+04  0.99245612705E+03 0.  0.
        -13    1    3    3    0    0  0.20661749231E+03  0.46780364339E+03 -0.67802506804E+02  0.51587617506E+03  0.10566000000E+00 0.  1.
          4    1    3    3  501    0 -0.45497189064E+03 -0.36137098310E+03 -0.11951920521E+03  0.59318905006E+03  0.00000000000E+00 0.  1.
         13    1    4    4    0    0  0.45805559660E+03  0.28209513165E+02  0.85342071159E+03  0.96898794024E+03  0.10566000000E+00 0. -1.
         -4    1    4    4    0  502 -0.20970119827E+03 -0.13464217346E+03 -0.13711507386E+03  0.28443567095E+03  0.00000000000E+00 0. -1.
<mgrwt>
<rscale>  2 0.10766234E+04</rscale>
<asrwt>0</asrwt>
<pdfrwt beam="1">  1       21 0.22242098E+00 0.10931314E+04</pdfrwt>
<pdfrwt beam="2">  1       21 0.14103884E+00 0.10931314E+04</pdfrwt>
<totfact> 0.14512412E+01</totfact>
</mgrwt>
</event>
<event>
 8    1  0.7418332E-006  0.1010663E+04  0.7818608E-02  0.8782638E-01
         21   -1    0    0  501  502  0.00000000000E+00  0.00000000000E+00  0.12145961121E+04  0.12145961121E+04  0.00000000000E+00 0.  1.
         21   -1    0    0  502  503 -0.00000000000E+00 -0.00000000000E+00 -0.83485742341E+03  0.83485742341E+03  0.00000000000E+00 0.  1.
    9000010    2    1    2  501    0 -0.14521088982E+03 -0.13758934066E+03  0.45901207909E+03  0.11100138708E+04  0.99066728794E+03 0.  0.
   -9000010    2    1    2    0  503  0.14521088982E+03  0.13758934066E+03 -0.79273390434E+02  0.93943966469E+03  0.91446464337E+03 0.  0.
        -13    1    3    3    0    0 -0.52496182465E+03  0.12606964946E+03  0.17548812786E+03  0.56769231811E+03  0.10566000000E+00 0.  1.
          4    1    3    3  501    0  0.37975093483E+03 -0.26365899012E+03  0.28352395123E+03  0.54232155268E+03  0.00000000000E+00 0.  1.
         13    1    4    4    0    0 -0.21489347079E+03 -0.27304358637E+03  0.10507189496E+03  0.36300429491E+03  0.10566000000E+00 0. -1.
         -4    1    4    4    0  503  0.36010436061E+03  0.41063292703E+03 -0.18434528540E+03  0.57643536978E+03  0.00000000000E+00 0. -1.
<mgrwt>
<rscale>  2 0.99147987E+03</rscale>
<asrwt>0</asrwt>
<pdfrwt beam="1">  1       21 0.18686094E+00 0.10106625E+04</pdfrwt>
<pdfrwt beam="2">  1       21 0.12843960E+00 0.10106625E+04</pdfrwt>
<totfact> 0.36676729E+01</totfact>
</mgrwt>
</event>
<event>
 8    1  0.7418332E-006  0.1058641E+04  0.7818608E-02  0.8731874E-01
         21   -1    0    0  501  502  0.00000000000E+00  0.00000000000E+00  0.98968386328E+03  0.98968386328E+03  0.00000000000E+00 0.  1.
         21   -1    0    0  502  503 -0.00000000000E+00 -0.00000000000E+00 -0.12030638344E+04  0.12030638344E+04  0.00000000000E+00 0.  1.
    9000010    2    1    2  501    0  0.18042575370E+03  0.22899146214E+03  0.23758091839E+03  0.10849728899E+04  0.10177086699E+04 0.  0.
   -9000010    2    1    2    0  503 -0.18042575370E+03 -0.22899146214E+03 -0.45096088956E+03  0.11077748078E+04  0.96892144085E+03 0.  0.
        -13    1    3    3    0    0  0.42679727349E+03  0.46191743141E+02  0.51562595146E+03  0.67093943302E+03  0.10566000000E+00 0.  1.
          4    1    3    3  501    0 -0.24637151978E+03  0.18279971899E+03 -0.27804503307E+03  0.41403345691E+03  0.00000000000E+00 0.  1.
         13    1    4    4    0    0  0.13419648497E+03 -0.46548263187E+03 -0.51720175466E+03  0.70864691020E+03  0.10566000000E+00 0. -1.
         -4    1    4    4    0  503 -0.31462223868E+03  0.23649116973E+03  0.66240865095E+02  0.39912789760E+03  0.00000000000E+00 0. -1.
<mgrwt>
<rscale>  2 0.10467392E+04</rscale>
<asrwt>0</asrwt>
<pdfrwt beam="1">  1       21 0.15225906E+00 0.10586413E+04</pdfrwt>
<pdfrwt beam="2">  1       21 0.18508674E+00 0.10586413E+04</pdfrwt>
<totfact> 0.22573530E+01</totfact>
</mgrwt>
</event>
<event>
 8    1  0.7418332E-006  0.1017691E+04  0.7818608E-02  0.8759765E-01
         21   -1    0    0  501  502  0.00000000000E+00  0.00000000000E+00  0.12383605042E+04  0.12383605042E+04  0.00000000000E+00 0.  1.
         21   -1    0    0  502  503 -0.00000000000E+00 -0.00000000000E+00 -0.96939444787E+03  0.96939444787E+03  0.00000000000E+00 0.  1.
    9000010    2    1    2  501    0 -0.14034328380E+03 -0.21497304232E+02  0.55179547741E+03  0.11514937187E+04  0.10006503705E+04 0.  0.
   -9000010    2    1    2    0  503  0.14034328380E+03  0.21497304232E+02 -0.28282942109E+03  0.10562612334E+04  0.10077385277E+04 0.  0.
        -13    1    3    3    0    0 -0.33981726887E+03 -0.25807431157E+03 -0.92609021843E+02  0.43664009047E+03  0.10566000000E+00 0.  1.
          4    1    3    3  501    0  0.19947398507E+03  0.23657700734E+03  0.64440449925E+03  0.71485362822E+03  0.00000000000E+00 0.  1.
         13    1    4    4    0    0  0.82912802359E+01  0.37494522604E+03 -0.49682894430E+03  0.62248829621E+03  0.10566000000E+00 0. -1.
         -4    1    4    4    0  503  0.13205200356E+03 -0.35344792181E+03  0.21399952321E+03  0.43377293716E+03  0.00000000000E+00 0. -1.
<mgrwt>
<rscale>  2 0.10159320E+04</rscale>
<asrwt>0</asrwt>
<pdfrwt beam="1">  1       21 0.19051700E+00 0.10176912E+04</pdfrwt>
<pdfrwt beam="2">  1       21 0.14913761E+00 0.10176912E+04</pdfrwt>
<totfact> 0.21974573E+01</totfact>
</mgrwt>
</event>
<event>
 8    1  0.7418332E-006  0.1053685E+04  0.7818608E-02  0.8727409E-01
         21   -1    0    0  501  502  0.00000000000E+00  0.00000000000E+00  0.25122110587E+04  0.25122110587E+04  0.00000000000E+00 0. -1.
         21   -1    0    0  502  503 -0.00000000000E+00 -0.00000000000E+00 -0.11908340711E+04  0.11908340711E+04  0.00000000000E+00 0. -1.
    9000010    2    1    2  501    0  0.31618692327E+03 -0.16557638869E+03  0.21312197097E+04  0.23740988839E+04  0.98328955492E+03 0.  0.
   -9000010    2    1    2    0  503 -0.31618692327E+03  0.16557638869E+03 -0.80984272209E+03  0.13289462458E+04  0.99139456264E+03 0.  0.
        -13    1    3    3    0    0 -0.26508726766E+03  0.22166238955E+03  0.63670679147E+03  0.72443151773E+03  0.10566000000E+00 0.  1.
          4    1    3    3  501    0  0.58127419092E+03 -0.38723877824E+03  0.14945129182E+04  0.16496673662E+04  0.00000000000E+00 0.  1.
         13    1    4    4    0    0  0.88930867595E+02 -0.17947600117E+03 -0.76964487918E+03  0.79528207915E+03  0.10566000000E+00 0. -1.
         -4    1    4    4    0  503 -0.40511779086E+03  0.34505238986E+03 -0.40197842913E+02  0.53366416668E+03  0.00000000000E+00 0. -1.
<mgrwt>
<rscale>  2 0.10517746E+04</rscale>
<asrwt>0</asrwt>
<pdfrwt beam="1">  1       21 0.38649401E+00 0.10536854E+04</pdfrwt>
<pdfrwt beam="2">  1       21 0.18320524E+00 0.10536854E+04</pdfrwt>
<totfact> 0.43064642E-01</totfact>
</mgrwt>
</event>
<event>
 8    1  0.7418332E-006  0.1021808E+04  0.7818608E-02  0.8758567E-01
         21   -1    0    0  501  502  0.00000000000E+00  0.00000000000E+00  0.10325642825E+04  0.10325642825E+04  0.00000000000E+00 0. -1.
         21   -1    0    0  502  503 -0.00000000000E+00 -0.00000000000E+00 -0.10684628655E+04  0.10684628655E+04  0.00000000000E+00 0. -1.
    9000010    2    1    2  501    0  0.10679726930E+03 -0.71537627603E+02 -0.29680398257E+03  0.10640411869E+04  0.10136901668E+04 0.  0.
   -9000010    2    1    2    0  503 -0.10679726930E+03  0.71537627603E+02  0.26090539951E+03  0.10369859612E+04  0.99536172684E+03 0.  0.
        -13    1    3    3    0    0  0.92159554866E+02  0.24709058052E+03  0.29257514777E+03  0.39388750525E+03  0.10566000000E+00 0.  1.
          4    1    3    3  501    0  0.14637714434E+02 -0.31862820812E+03 -0.58937913034E+03  0.67015368161E+03  0.00000000000E+00 0.  1.
         13    1    4    4    0    0  0.97886078901E+02 -0.42642883478E+03  0.23809990378E+03  0.49811124351E+03  0.10566000000E+00 0. -1.
         -4    1    4    4    0  503 -0.20468334820E+03  0.49796646238E+03  0.22805495737E+02  0.53887471765E+03  0.00000000000E+00 0. -1.
<mgrwt>
<rscale>  2 0.10172320E+04</rscale>
<asrwt>0</asrwt>
<pdfrwt beam="1">  1       21 0.15885604E+00 0.10218077E+04</pdfrwt>
<pdfrwt beam="2">  1       21 0.16437890E+00 0.10218077E+04</pdfrwt>
<totfact> 0.29575232E+01</totfact>
</mgrwt>
</event>
<event>
 8    1  0.7418332E-006  0.1156757E+04  0.7818608E-02  0.8670229E-01
         21   -1    0    0  503  502  0.00000000000E+00  0.00000000000E+00  0.91141167280E+03  0.91141167280E+03  0.00000000000E+00 0.  1.
         21   -1    0    0  501  503 -0.00000000000E+00 -0.00000000000E+00 -0.17285013979E+04  0.17285013979E+04  0.00000000000E+00 0.  1.
    9000010    2    1    2  501    0  0.19379667611E+03 -0.60419785137E+02 -0.10916980987E+04  0.15905634845E+04  0.11388062862E+04 0.  0.
   -9000010    2    1    2    0  502 -0.19379667611E+03  0.60419785137E+02  0.27460837359E+03  0.10493495862E+04  0.99222834726E+03 0.  0.
        -13    1    3    3    0    0 -0.21883019529E+03 -0.45004584380E+03 -0.21153061269E+03  0.54329837766E+03  0.10566000000E+00 0.  1.
          4    1    3    3  501    0  0.41262687141E+03  0.38962605867E+03 -0.88016748601E+03  0.10472651069E+04  0.00000000000E+00 0.  1.
         13    1    4    4    0    0  0.25373621704E+03  0.22847868589E+01 -0.25077091882E+03  0.35675391095E+03  0.10566000000E+00 0. -1.
         -4    1    4    4    0  502 -0.44753289315E+03  0.58134998278E+02  0.52537929241E+03  0.69259567525E+03  0.00000000000E+00 0. -1.
<mgrwt>
<rscale>  2 0.11189496E+04</rscale>
<asrwt>0</asrwt>
<pdfrwt beam="1">  1       21 0.14021718E+00 0.11567573E+04</pdfrwt>
<pdfrwt beam="2">  1       21 0.26592329E+00 0.11567573E+04</pdfrwt>
<totfact> 0.69874814E+00</totfact>
</mgrwt>
</event>
<event>
 8    1  0.7418332E-006  0.1056723E+04  0.7818608E-02  0.8725298E-01
         21   -1    0    0  501  502  0.00000000000E+00  0.00000000000E+00  0.10149867247E+04  0.10149867247E+04  0.00000000000E+00 0. -1.
         21   -1    0    0  502  503 -0.00000000000E+00 -0.00000000000E+00 -0.11273634992E+04  0.11273634992E+04  0.00000000000E+00 0. -1.
    9000010    2    1    2  501    0 -0.11433749447E+01  0.21414891455E+03  0.14014996617E+03  0.10558731042E+04  0.10243851493E+04 0.  0.
   -9000010    2    1    2    0  503  0.11433749447E+01 -0.21414891455E+03 -0.25252674061E+03  0.10864771197E+04  0.10347954929E+04 0.  0.
        -13    1    3    3    0    0  0.31064964450E+03  0.15208387935E+03  0.47926803219E+03  0.59104193238E+03  0.10566000000E+00 0.  1.
          4    1    3    3  501    0 -0.31179301945E+03  0.62065035191E+02 -0.33911806601E+03  0.46483117179E+03  0.00000000000E+00 0.  1.
         13    1    4    4    0    0 -0.22395525505E+03 -0.57910357834E+03 -0.87540985904E+02  0.62704094451E+03  0.10566000000E+00 0. -1.
         -4    1    4    4    0  503  0.22509863000E+03  0.36495466380E+03 -0.16498575470E+03  0.45943617523E+03  0.00000000000E+00 0. -1.
<mgrwt>
<rscale>  2 0.10541653E+04</rscale>
<asrwt>0</asrwt>
<pdfrwt beam="1">  1       21 0.15615180E+00 0.10567227E+04</pdfrwt>
<pdfrwt beam="2">  1       21 0.17344054E+00 0.10567227E+04</pdfrwt>
<totfact> 0.25993515E+01</totfact>
</mgrwt>
</event>
<event>
 8    1  0.7418332E-006  0.1075507E+04  0.7818608E-02  0.8709380E-01
         21   -1    0    0  501  502  0.00000000000E+00  0.00000000000E+00  0.19863634704E+04  0.19863634704E+04  0.00000000000E+00 0. -1.
         21   -1    0    0  502  503 -0.00000000000E+00 -0.00000000000E+00 -0.67152553714E+03  0.67152553714E+03  0.00000000000E+00 0. -1.
    9000010    2    1    2  501    0  0.16933502214E+03 -0.36899323221E+03  0.11562586714E+04  0.15707536240E+04  0.98259985601E+03 0.  0.
   -9000010    2    1    2    0  503 -0.16933502214E+03  0.36899323221E+03  0.15857926177E+03  0.10871353835E+04  0.99593453828E+03 0.  0.
        -13    1    3    3    0    0 -0.36867468013E+03 -0.30104740640E+03  0.76902027523E+03  0.90440187723E+03  0.10566000000E+00 0.  1.
          4    1    3    3  501    0  0.53800970227E+03 -0.67945825813E+02  0.38723839621E+03  0.66635174681E+03  0.00000000000E+00 0.  1.
         13    1    4    4    0    0 -0.13677657077E+03 -0.12779556219E+03 -0.33647570251E+03  0.38503953767E+03  0.10566000000E+00 0. -1.
         -4    1    4    4    0  503 -0.32558451369E+02  0.49678879441E+03  0.49505496428E+03  0.70209584578E+03  0.00000000000E+00 0. -1.
<mgrwt>
<rscale>  2 0.10724099E+04</rscale>
<asrwt>0</asrwt>
<pdfrwt beam="1">  1       21 0.30559438E+00 0.10755073E+04</pdfrwt>
<pdfrwt beam="2">  1       21 0.10331162E+00 0.10755073E+04</pdfrwt>
<totfact> 0.87598941E+00</totfact>
</mgrwt>
</event>
<event>
 8    1  0.7418332E-006  0.1150511E+04  0.7818608E-02  0.8650960E-01
         21   -1    0    0  501  502  0.00000000000E+00  0.00000000000E+00  0.68220293934E+03  0.68220293934E+03  0.00000000000E+00 0.  1.
         21   -1    0    0  502  503 -0.00000000000E+00 -0.00000000000E+00 -0.24245152730E+04  0.24245152730E+04  0.00000000000E+00 0.  1.
    9000010    2    1    2  501    0 -0.95890964129E+02 -0.12654410017E+03 -0.13190572359E+03  0.11275557575E+04  0.11085009608E+04 0.  0.
   -9000010    2    1    2    0  503  0.95890964129E+02  0.12654410017E+03 -0.16104066101E+04  0.19791624548E+04  0.11395025610E+04 0.  0.
        -13    1    3    3    0    0 -0.56345128669E+03  0.78637301031E+02 -0.21894905281E+03  0.60958992485E+03  0.10566000000E+00 0.  1.
          4    1    3    3  501    0  0.46756032256E+03 -0.20518140120E+03  0.87043329220E+02  0.51796583265E+03  0.00000000000E+00 0.  1.
         13    1    4    4    0    0  0.23365608629E+03 -0.23079163996E+03 -0.15584529430E+04  0.15926818685E+04  0.10566000000E+00 0. -1.
         -4    1    4    4    0  503 -0.13776512216E+03  0.35733574013E+03 -0.51953667082E+02  0.38648058629E+03  0.00000000000E+00 0. -1.
<mgrwt>
<rscale>  2 0.11427584E+04</rscale>
<asrwt>0</asrwt>
<pdfrwt beam="1">  1       21 0.10495430E+00 0.11505106E+04</pdfrwt>
<pdfrwt beam="2">  1       21 0.37300236E+00 0.11505106E+04</pdfrwt>
<totfact> 0.27783470E+00</totfact>
</mgrwt>
</event>
<event>
 8    1  0.7418332E-006  0.1013301E+04  0.7818608E-02  0.8762458E-01
         21   -1    0    0  503  502  0.00000000000E+00  0.00000000000E+00  0.11942207291E+04  0.11942207291E+04  0.00000000000E+00 0. -1.
         21   -1    0    0  501  503 -0.00000000000E+00 -0.00000000000E+00 -0.10210910835E+04  0.10210910835E+04  0.00000000000E+00 0. -1.
    9000010    2    1    2  501    0 -0.89016775862E+02  0.54515883066E+02  0.52808472981E+03  0.11416391454E+04  0.10067623794E+04 0.  0.
   -9000010    2    1    2    0  502  0.89016775862E+02 -0.54515883066E+02 -0.35495508418E+03  0.10736726672E+04  0.10079106690E+04 0.  0.
        -13    1    3    3    0    0  0.17776481211E+03 -0.20427440198E+03  0.68622147071E+03  0.73771829159E+03  0.10566000000E+00 0.  1.
          4    1    3    3  501    0 -0.26678158797E+03  0.25879028504E+03 -0.15813674090E+03  0.40392085380E+03  0.00000000000E+00 0.  1.
         13    1    4    4    0    0  0.37770557367E+03 -0.28244745835E+03 -0.49163050754E+03  0.68127720806E+03  0.10566000000E+00 0. -1.
         -4    1    4    4    0  502 -0.28868879781E+03  0.22793157528E+03  0.13667542336E+03  0.39239545913E+03  0.00000000000E+00 0. -1.
<mgrwt>
<rscale>  2 0.10130158E+04</rscale>
<asrwt>0</asrwt>
<pdfrwt beam="1">  1       21 0.18372627E+00 0.10133015E+04</pdfrwt>
<pdfrwt beam="2">  1       21 0.15709094E+00 0.10133015E+04</pdfrwt>
<totfact> 0.21219474E+01</totfact>
</mgrwt>
</event>
<event>
 8    1  0.7418332E-006  0.1010731E+04  0.7818608E-02  0.8765857E-01
         21   -1    0    0  503  502  0.00000000000E+00  0.00000000000E+00  0.89870232983E+03  0.89870232983E+03  0.00000000000E+00 0.  1.
         21   -1    0    0  501  503 -0.00000000000E+00 -0.00000000000E+00 -0.12511992313E+04  0.12511992313E+04  0.00000000000E+00 0.  1.
    9000010    2    1    2  501    0  0.41010932744E+02  0.72972883397E+02 -0.51051513504E+03  0.11323436892E+04  0.10072584520E+04 0.  0.
   -9000010    2    1    2    0  502 -0.41010932744E+02 -0.72972883397E+02  0.15801823359E+03  0.10175578719E+04  0.10017221782E+04 0.  0.
        -13    1    3    3    0    0 -0.14445218855E+03 -0.43403125579E+03 -0.14302989815E+03  0.47927771564E+03  0.10566000000E+00 0.  1.
          4    1    3    3  501    0  0.18546312129E+03  0.50700413918E+03 -0.36748523689E+03  0.65306597357E+03  0.00000000000E+00 0.  1.
         13    1    4    4    0    0 -0.34456919283E+03 -0.32445974025E+03 -0.17187620770E+03  0.50353102549E+03  0.10566000000E+00 0. -1.
         -4    1    4    4    0  502  0.30355826008E+03  0.25148685685E+03  0.32989444130E+03  0.51402684641E+03  0.00000000000E+00 0. -1.
<mgrwt>
<rscale>  2 0.10093486E+04</rscale>
<asrwt>0</asrwt>
<pdfrwt beam="1">  1       21 0.13826190E+00 0.10107307E+04</pdfrwt>
<pdfrwt beam="2">  1       21 0.19249219E+00 0.10107307E+04</pdfrwt>
<totfact> 0.26676207E+01</totfact>
</mgrwt>
</event>
<event>
 8    1  0.7418332E-006  0.1147165E+04  0.7818608E-02  0.8652699E-01
         21   -1    0    0  501  502  0.00000000000E+00  0.00000000000E+00  0.13409135006E+04  0.13409135006E+04  0.00000000000E+00 0. -1.
         21   -1    0    0  502  503 -0.00000000000E+00 -0.00000000000E+00 -0.10243831698E+04  0.10243831698E+04  0.00000000000E+00 0. -1.
    9000010    2    1    2  501    0  0.26459270913E+03 -0.49134708772E+03  0.45484124838E+03  0.12098243284E+04  0.97229783612E+03 0.  0.
   -9000010    2    1    2    0  503 -0.26459270913E+03  0.49134708772E+03 -0.13831091762E+03  0.11554723419E+04  0.10022749925E+04 0.  0.
        -13    1    3    3    0    0  0.43999954619E+03 -0.61916843205E+03  0.63383040598E+02  0.76222474959E+03  0.10566000000E+00 0.  1.
          4    1    3    3  501    0 -0.17540683706E+03  0.12782134432E+03  0.39145820778E+03  0.44759957885E+03  0.00000000000E+00 0.  1.
         13    1    4    4    0    0  0.21731716467E+03  0.19382504475E+02 -0.38063996923E+03  0.43873594437E+03  0.10566000000E+00 0. -1.
         -4    1    4    4    0  503 -0.48190987380E+03  0.47196458325E+03  0.24232905161E+03  0.71673639754E+03  0.00000000000E+00 0. -1.
<mgrwt>
<rscale>  2 0.11405841E+04</rscale>
<asrwt>0</asrwt>
<pdfrwt beam="1">  1       21 0.20629438E+00 0.11471645E+04</pdfrwt>
<pdfrwt beam="2">  1       21 0.15759741E+00 0.11471645E+04</pdfrwt>
<totfact> 0.13527191E+01</totfact>
</mgrwt>
</event>
<event>
 8    1  0.7418332E-006  0.1034740E+04  0.7818608E-02  0.8752755E-01
         21   -1    0    0  501  502  0.00000000000E+00  0.00000000000E+00  0.12220495325E+04  0.12220495325E+04  0.00000000000E+00 0. -1.
         21   -1    0    0  502  503 -0.00000000000E+00 -0.00000000000E+00 -0.86305348901E+03  0.86305348901E+03  0.00000000000E+00 0. -1.
    9000010    2    1    2  501    0  0.18259581857E+02  0.53362656459E+02  0.35615785112E+03  0.10943193913E+04  0.10332015920E+04 0.  0.
   -9000010    2    1    2    0  503 -0.18259581857E+02 -0.53362656459E+02  0.28381923378E+01  0.99078363022E+03  0.98917296826E+03 0.  0.
        -13    1    3    3    0    0  0.22751227031E+03  0.10616384499E+02  0.67396847159E+03  0.71141271610E+03  0.10566000000E+00 0.  1.
          4    1    3    3  501    0 -0.20925268846E+03  0.42746271961E+02 -0.31781062047E+03  0.38290667516E+03  0.00000000000E+00 0.  1.
         13    1    4    4    0    0 -0.44336704019E+03 -0.26057805853E+03  0.43555442841E+02  0.51611272478E+03  0.10566000000E+00 0. -1.
         -4    1    4    4    0  503  0.42510745833E+03  0.20721540207E+03 -0.40717250503E+02  0.47467090544E+03  0.00000000000E+00 0. -1.
<mgrwt>
<rscale>  2 0.10235702E+04</rscale>
<asrwt>0</asrwt>
<pdfrwt beam="1">  1       21 0.18800762E+00 0.10347398E+04</pdfrwt>
<pdfrwt beam="2">  1       21 0.13277746E+00 0.10347398E+04</pdfrwt>
<totfact> 0.32446720E+01</totfact>
</mgrwt>
</event>
<event>
 8    1  0.7418332E-006  0.1231061E+04  0.7818608E-02  0.8620825E-01
         21   -1    0    0  501  502  0.00000000000E+00  0.00000000000E+00  0.31225610182E+04  0.31225610182E+04  0.00000000000E+00 0. -1.
         21   -1    0    0  502  503 -0.00000000000E+00 -0.00000000000E+00 -0.79426295794E+03  0.79426295794E+03  0.00000000000E+00 0. -1.
    9000010    2    1    2  501    0  0.22613689379E+03  0.16055830921E+03  0.24663597538E+04  0.26780452638E+04  0.10060214383E+04 0.  0.
   -9000010    2    1    2    0  503 -0.22613689379E+03 -0.16055830921E+03 -0.13806169354E+03  0.12387787123E+04  0.11994143577E+04 0.  0.
        -13    1    3    3    0    0  0.24855694412E+03  0.24519768447E+03  0.18523322487E+03  0.39523893748E+03  0.10566000000E+00 0.  1.
          4    1    3    3  501    0 -0.22420050325E+02 -0.84639375261E+02  0.22811265290E+04  0.22828063264E+04  0.00000000000E+00 0.  1.
         13    1    4    4    0    0 -0.17918286628E+03 -0.63234466542E+03 -0.31993437788E+03  0.73097489203E+03  0.10566000000E+00 0. -1.
         -4    1    4    4    0  503 -0.46954027514E+02  0.47178635621E+03  0.18187268434E+03  0.50780382031E+03  0.00000000000E+00 0. -1.
<mgrwt>
<rscale>  2 0.11812397E+04</rscale>
<asrwt>0</asrwt>
<pdfrwt beam="1">  1       21 0.48039400E+00 0.12310612E+04</pdfrwt>
<pdfrwt beam="2">  1       21 0.12219430E+00 0.12310612E+04</pdfrwt>
<totfact> 0.32282834E-01</totfact>
</mgrwt>
</event>
<event>
 8    1  0.7418332E-006  0.1107429E+04  0.7818608E-02  0.8681850E-01
         21   -1    0    0  503  502  0.00000000000E+00  0.00000000000E+00  0.10845015223E+04  0.10845015223E+04  0.00000000000E+00 0. -1.
         21   -1    0    0  501  503 -0.00000000000E+00 -0.00000000000E+00 -0.13032100508E+04  0.13032100508E+04  0.00000000000E+00 0.  1.
    9000010    2    1    2  501    0  0.19992808817E+03  0.42038972740E+03 -0.55679467267E+03  0.12395237013E+04  0.10048382632E+04 0.  0.
   -9000010    2    1    2    0  502 -0.19992808817E+03 -0.42038972740E+03  0.33808614418E+03  0.11481878718E+04  0.99364701208E+03 0.  0.
        -13    1    3    3    0    0  0.12697877960E+03 -0.27281374016E+03 -0.43957095450E+03  0.53270402898E+03  0.10566000000E+00 0.  1.
          4    1    3    3  501    0  0.72949308575E+02  0.69320346756E+03 -0.11722371818E+03  0.70681967231E+03  0.00000000000E+00 0.  1.
         13    1    4    4    0    0  0.15057663213E+03 -0.65280549578E+03  0.14518111014E+03  0.68549682959E+03  0.10566000000E+00 0. -1.
         -4    1    4    4    0  502 -0.35050472030E+03  0.23241576838E+03  0.19290503405E+03  0.46269104217E+03  0.00000000000E+00 0. -1.
<mgrwt>
<rscale>  2 0.11048840E+04</rscale>
<asrwt>0</asrwt>
<pdfrwt beam="1">  1       21 0.16684639E+00 0.11074289E+04</pdfrwt>
<pdfrwt beam="2">  1       21 0.20049385E+00 0.11074289E+04</pdfrwt>
<totfact> 0.12603651E+01</totfact>
</mgrwt>
</event>
<event>
 8    1  0.7418332E-006  0.1025016E+04  0.7818608E-02  0.8754878E-01
         21   -1    0    0  503  502  0.00000000000E+00  0.00000000000E+00  0.29807679446E+04  0.29807679446E+04  0.00000000000E+00 0.  1.
         21   -1    0    0  501  503 -0.00000000000E+00 -0.00000000000E+00 -0.45365013221E+03  0.45365013221E+03  0.00000000000E+00 0.  1.
    9000010    2    1    2  501    0 -0.13774405303E+03  0.13935832214E+03  0.43943612100E+03  0.11152407285E+04  0.10061131209E+04 0.  0.
   -9000010    2    1    2    0  502  0.13774405303E+03 -0.13935832214E+03  0.20876816913E+04  0.23191773483E+04  0.99084537760E+03 0.  0.
        -13    1    3    3    0    0 -0.43847119218E+03  0.10864797495E+03  0.61697516881E+03  0.76466969269E+03  0.10566000000E+00 0.  1.
          4    1    3    3  501    0  0.30072713915E+03  0.30710347186E+02 -0.17753904781E+03  0.35057103580E+03  0.00000000000E+00 0.  1.
         13    1    4    4    0    0  0.11997966336E+03 -0.23195285810E+03  0.34020135402E+02  0.26335266996E+03  0.10566000000E+00 0. -1.
         -4    1    4    4    0  502  0.17764389664E+02  0.92594535956E+02  0.20536615559E+04  0.20558246783E+04  0.00000000000E+00 0. -1.
<mgrwt>
<rscale>  2 0.10212498E+04</rscale>
<asrwt>0</asrwt>
<pdfrwt beam="1">  1       21 0.45857967E+00 0.10250160E+04</pdfrwt>
<pdfrwt beam="2">  1       21 0.69792330E-01 0.10250160E+04</pdfrwt>
<totfact> 0.20214877E+00</totfact>
</mgrwt>
</event>
<event>
 8    1  0.7418332E-006  0.1278993E+04  0.7818608E-02  0.8587502E-01
         21   -1    0    0  501  502  0.00000000000E+00  0.00000000000E+00  0.95169997337E+03  0.95169997337E+03  0.00000000000E+00 0. -1.
         21   -1    0    0  502  503 -0.00000000000E+00 -0.00000000000E+00 -0.27028224657E+04  0.27028224657E+04  0.00000000000E+00 0. -1.
    9000010    2    1    2  501    0 -0.18453670358E+03 -0.32773706300E+03  0.32086083709E+03  0.13186260895E+04  0.12224392458E+04 0.  0.
   -9000010    2    1    2    0  503  0.18453670358E+03  0.32773706300E+03 -0.20719833295E+04  0.23358963496E+04  0.10108567955E+04 0.  0.
        -13    1    3    3    0    0 -0.56710561936E+03 -0.58452004268E+03  0.25360017395E+03  0.85298623858E+03  0.10566000000E+00 0.  1.
          4    1    3    3  501    0  0.38256891578E+03  0.25678297968E+03  0.67260663143E+02  0.46563985094E+03  0.00000000000E+00 0.  1.
         13    1    4    4    0    0 -0.73039276865E+02 -0.26693974007E+01  0.10000873907E+03  0.12386936951E+03  0.10566000000E+00 0. -1.
         -4    1    4    4    0  503  0.25757598045E+03  0.33040646040E+03 -0.21719920685E+04  0.22120269801E+04  0.00000000000E+00 0. -1.
<mgrwt>
<rscale>  2 0.12256386E+04</rscale>
<asrwt>0</asrwt>
<pdfrwt beam="1">  1       21 0.14641538E+00 0.12789930E+04</pdfrwt>
<pdfrwt beam="2">  1       21 0.41581884E+00 0.12789930E+04</pdfrwt>
<totfact> 0.52762142E-01</totfact>
</mgrwt>
</event>
<event>
 8    1  0.7418332E-006  0.1054673E+04  0.7818608E-02  0.8729068E-01
         21   -1    0    0  503  502  0.00000000000E+00  0.00000000000E+00  0.54603314943E+03  0.54603314943E+03  0.00000000000E+00 0.  1.
         21   -1    0    0  501  503 -0.00000000000E+00 -0.00000000000E+00 -0.20379146622E+04  0.20379146622E+04  0.00000000000E+00 0.  1.
    9000010    2    1    2  501    0  0.20756446200E+03  0.76554928773E+02 -0.91397986516E+03  0.13813234580E+04  0.10118061270E+04 0.  0.
   -9000010    2    1    2    0  502 -0.20756446200E+03 -0.76554928773E+02 -0.57790164757E+03  0.12026243536E+04  0.10312086882E+04 0.  0.
        -13    1    3    3    0    0  0.35174342597E+03  0.11390711401E+02 -0.10895510148E+04  0.11449779959E+04  0.10566000000E+00 0.  1.
          4    1    3    3  501    0 -0.14417896397E+03  0.65164217372E+02  0.17557114964E+03  0.23634546212E+03  0.00000000000E+00 0.  1.
         13    1    4    4    0    0 -0.52027423858E+03 -0.30754923663E+03 -0.14648054786E+03  0.62187488963E+03  0.10566000000E+00 0. -1.
         -4    1    4    4    0  502  0.31270977659E+03  0.23099430786E+03 -0.43142109971E+03  0.58074946398E+03  0.00000000000E+00 0. -1.
<mgrwt>
<rscale>  2 0.10498999E+04</rscale>
<asrwt>0</asrwt>
<pdfrwt beam="1">  1       21 0.84005099E-01 0.10546729E+04</pdfrwt>
<pdfrwt beam="2">  1       21 0.31352533E+00 0.10546729E+04</pdfrwt>
<totfact> 0.13179783E+01</totfact>
</mgrwt>
</event>
<event>
 8    1  0.7418332E-006  0.1096899E+04  0.7818608E-02  0.8691000E-01
         21   -1    0    0  503  502  0.00000000000E+00  0.00000000000E+00  0.90621476754E+03  0.90621476754E+03  0.00000000000E+00 0. -1.
         21   -1    0    0  501  503 -0.00000000000E+00 -0.00000000000E+00 -0.15015537280E+04  0.15015537280E+04  0.00000000000E+00 0. -1.
    9000010    2    1    2  501    0 -0.14376386961E+03 -0.43386868265E+03 -0.72223566935E+03  0.13035533919E+04  0.98423421985E+03 0.  0.
   -9000010    2    1    2    0  502  0.14376386961E+03  0.43386868265E+03  0.12689670888E+03  0.11042151036E+04  0.99713496395E+03 0.  0.
        -13    1    3    3    0    0 -0.24008237524E+03 -0.14013458877E+03  0.19241101164E+03  0.33808173337E+03  0.10566000000E+00 0.  1.
          4    1    3    3  501    0  0.96318505627E+02 -0.29373409388E+03 -0.91464668099E+03  0.96547165856E+03  0.00000000000E+00 0.  1.
         13    1    4    4    0    0 -0.60582197943E+02 -0.26142752513E+03  0.25277713636E+03  0.36866088134E+03  0.10566000000E+00 0. -1.
         -4    1    4    4    0  502  0.20434606756E+03  0.69529620778E+03 -0.12588042748E+03  0.73555422227E+03  0.00000000000E+00 0. -1.
<mgrwt>
<rscale>  2 0.10939590E+04</rscale>
<asrwt>0</asrwt>
<pdfrwt beam="1">  1       21 0.13941766E+00 0.10968994E+04</pdfrwt>
<pdfrwt beam="2">  1       21 0.23100826E+00 0.10968994E+04</pdfrwt>
<totfact> 0.12948783E+01</totfact>
</mgrwt>
</event>
<event>
 8    1  0.7418332E-006  0.1015842E+04  0.7818608E-02  0.8760971E-01
         21   -1    0    0  503  502  0.00000000000E+00  0.00000000000E+00  0.11109186691E+04  0.11109186691E+04  0.00000000000E+00 0.  1.
         21   -1    0    0  501  503 -0.00000000000E+00 -0.00000000000E+00 -0.11868884543E+04  0.11868884543E+04  0.00000000000E+00 0.  1.
    9000010    2    1    2  501    0  0.98987551535E+02 -0.41214945274E+02 -0.57814767150E+03  0.11646181852E+04  0.10052778622E+04 0.  0.
   -9000010    2    1    2    0  502 -0.98987551535E+02  0.41214945274E+02  0.50217788627E+03  0.11331889381E+04  0.10101669827E+04 0.  0.
        -13    1    3    3    0    0 -0.40545889909E+03  0.19792922956E+03 -0.29032639135E+03  0.53652802671E+03  0.10566000000E+00 0.  1.
          4    1    3    3  501    0  0.50444645063E+03 -0.23914417483E+03 -0.28782128015E+03  0.62809015851E+03  0.00000000000E+00 0.  1.
         13    1    4    4    0    0 -0.47208351388E+03 -0.76761582817E+02 -0.22322170144E+02  0.47880421377E+03  0.10566000000E+00 0. -1.
         -4    1    4    4    0  502  0.37309596235E+03  0.11797652809E+03  0.52450005641E+03  0.65438472436E+03  0.00000000000E+00 0. -1.
<mgrwt>
<rscale>  2 0.10146242E+04</rscale>
<asrwt>0</asrwt>
<pdfrwt beam="1">  1       21 0.17091057E+00 0.10158418E+04</pdfrwt>
<pdfrwt beam="2">  1       21 0.18259822E+00 0.10158418E+04</pdfrwt>
<totfact> 0.16511806E+01</totfact>
</mgrwt>
</event>
<event>
 8    1  0.7418332E-006  0.1104019E+04  0.7818608E-02  0.8687991E-01
         21   -1    0    0  501  502  0.00000000000E+00  0.00000000000E+00  0.85651767010E+03  0.85651767010E+03  0.00000000000E+00 0. -1.
         21   -1    0    0  502  503 -0.00000000000E+00 -0.00000000000E+00 -0.15016320914E+04  0.15016320914E+04  0.00000000000E+00 0. -1.
    9000010    2    1    2  501    0 -0.19650459232E+03 -0.33998251349E+03  0.22639088136E+01  0.10783227822E+04  0.10042772192E+04 0.  0.
   -9000010    2    1    2    0  503  0.19650459232E+03  0.33998251349E+03 -0.64737833009E+03  0.12798269793E+04  0.10318218017E+04 0.  0.
        -13    1    3    3    0    0 -0.36434704685E+03  0.20506432050E+03  0.21437883041E+03  0.46984938031E+03  0.10566000000E+00 0.  1.
          4    1    3    3  501    0  0.16784245453E+03 -0.54504683399E+03 -0.21211492159E+03  0.60847340184E+03  0.00000000000E+00 0.  1.
         13    1    4    4    0    0  0.19346622837E+02  0.64794450729E+03 -0.14456242030E+03  0.66415712062E+03  0.10566000000E+00 0. -1.
         -4    1    4    4    0  503  0.17715796948E+03 -0.30796199379E+03 -0.50281590978E+03  0.61566985869E+03  0.00000000000E+00 0. -1.
<mgrwt>
<rscale>  2 0.10975376E+04</rscale>
<asrwt>0</asrwt>
<pdfrwt beam="1">  1       21 0.13177195E+00 0.11040192E+04</pdfrwt>
<pdfrwt beam="2">  1       21 0.23102032E+00 0.11040192E+04</pdfrwt>
<totfact> 0.15262048E+01</totfact>
</mgrwt>
</event>
<event>
 8    1  0.7418332E-006  0.1138261E+04  0.7818608E-02  0.8679211E-01
         21   -1    0    0  503  502  0.00000000000E+00  0.00000000000E+00  0.14567476222E+04  0.14567476222E+04  0.00000000000E+00 0. -1.
         21   -1    0    0  501  503 -0.00000000000E+00 -0.00000000000E+00 -0.83879720038E+03  0.83879720038E+03  0.00000000000E+00 0. -1.
    9000010    2    1    2  501    0  0.85540230262E+02  0.26310620861E+03  0.49846026339E+02  0.10233886996E+04  0.98402123765E+03 0.  0.
   -9000010    2    1    2    0  502 -0.85540230262E+02 -0.26310620861E+03  0.56810439548E+03  0.12721561230E+04  0.11041270711E+04 0.  0.
        -13    1    3    3    0    0 -0.46090222778E+02  0.52150138097E+03  0.33106987211E+03  0.61943140893E+03  0.10566000000E+00 0.  1.
          4    1    3    3  501    0  0.13163045304E+03 -0.25839517236E+03 -0.28122384577E+03  0.40395729068E+03  0.00000000000E+00 0.  1.
         13    1    4    4    0    0 -0.20679354972E+03  0.39790419899E+03  0.11928890999E+03  0.46402713174E+03  0.10566000000E+00 0. -1.
         -4    1    4    4    0  502  0.12125331946E+03 -0.66101040760E+03  0.44881548549E+03  0.80812899122E+03  0.00000000000E+00 0. -1.
<mgrwt>
<rscale>  2 0.11080584E+04</rscale>
<asrwt>0</asrwt>
<pdfrwt beam="1">  1       21 0.22411502E+00 0.11382612E+04</pdfrwt>
<pdfrwt beam="2">  1       21 0.12904572E+00 0.11382612E+04</pdfrwt>
<totfact> 0.18123973E+01</totfact>
</mgrwt>
</event>
<event>
 8    1  0.7418332E-006  0.1024370E+04  0.7818608E-02  0.8775232E-01
         21   -1    0    0  501  502  0.00000000000E+00  0.00000000000E+00  0.13102445428E+04  0.13102445428E+04  0.00000000000E+00 0. -1.
         21   -1    0    0  502  503 -0.00000000000E+00 -0.00000000000E+00 -0.77649902440E+03  0.77649902440E+03  0.00000000000E+00 0. -1.
    9000010    2    1    2  501    0 -0.12280496300E+03  0.77504195111E+02  0.51727832590E+03  0.10622415043E+04  0.91634719825E+03 0.  0.
   -9000010    2    1    2    0  503  0.12280496300E+03 -0.77504195111E+02  0.16467192512E+02  0.10245020629E+04  0.10140243337E+04 0.  0.
        -13    1    3    3    0    0 -0.93116709013E+02 -0.32318846810E+03 -0.76853866670E+02  0.34500439910E+03  0.10566000000E+00 0.  1.
          4    1    3    3  501    0 -0.29688253983E+02  0.40069266322E+03  0.59413219257E+03  0.71723710517E+03  0.00000000000E+00 0.  1.
         13    1    4    4    0    0 -0.88097230510E+02 -0.10600166220E+03  0.48804072920E+03  0.50713039638E+03  0.10566000000E+00 0. -1.
         -4    1    4    4    0  503  0.21090219351E+03  0.28497467092E+02 -0.47157353668E+03  0.51737166656E+03  0.00000000000E+00 0. -1.
<mgrwt>
<rscale>  2 0.99931884E+03</rscale>
<asrwt>0</asrwt>
<pdfrwt beam="1">  1       21 0.20157608E+00 0.10243697E+04</pdfrwt>
<pdfrwt beam="2">  1       21 0.11946139E+00 0.10243697E+04</pdfrwt>
<totfact> 0.34354863E+01</totfact>
</mgrwt>
</event>
<event>
 8    1  0.7418332E-006  0.1044611E+04  0.7818608E-02  0.8749480E-01
         21   -1    0    0  501  502  0.00000000000E+00  0.00000000000E+00  0.50632883653E+03  0.50632883653E+03  0.00000000000E+00 0. -1.
         21   -1    0    0  502  503 -0.00000000000E+00 -0.00000000000E+00 -0.25176129875E+04  0.25176129875E+04  0.00000000000E+00 0. -1.
    9000010    2    1    2  501    0 -0.28098647374E+02  0.32503615897E+03 -0.30460642701E+03  0.10229517326E+04  0.92043855480E+03 0.  0.
   -9000010    2    1    2    0  503  0.28098647374E+02 -0.32503615897E+03 -0.17066777240E+04  0.20009900915E+04  0.99235802714E+03 0.  0.
        -13    1    3    3    0    0  0.39321039373E+03  0.63918685878E+02  0.66332131055E+02  0.40385637907E+03  0.10566000000E+00 0.  1.
          4    1    3    3  501    0 -0.42130904110E+03  0.26111747309E+03 -0.37093855806E+03  0.61909535350E+03  0.00000000000E+00 0.  1.
         13    1    4    4    0    0  0.15539291477E+03 -0.32822774619E+03 -0.83246377481E+02  0.37257265312E+03  0.10566000000E+00 0. -1.
         -4    1    4    4    0  503 -0.12729426739E+03  0.31915872182E+01 -0.16234313465E+04  0.16284174383E+04  0.00000000000E+00 0. -1.
<mgrwt>
<rscale>  2 0.10271630E+04</rscale>
<asrwt>0</asrwt>
<pdfrwt beam="1">  1       21 0.77896743E-01 0.10446112E+04</pdfrwt>
<pdfrwt beam="2">  1       21 0.38732508E+00 0.10446112E+04</pdfrwt>
<totfact> 0.48250788E+00</totfact>
</mgrwt>
</event>
<event>
 8    1  0.7418332E-006  0.1036101E+04  0.7818608E-02  0.8746206E-01
         21   -1    0    0  503  502  0.00000000000E+00  0.00000000000E+00  0.68225204717E+03  0.68225204717E+03  0.00000000000E+00 0. -1.
         21   -1    0    0  501  503 -0.00000000000E+00 -0.00000000000E+00 -0.15802250374E+04  0.15802250374E+04  0.00000000000E+00 0. -1.
    9000010    2    1    2  501    0 -0.16934129221E+03  0.12890725972E+03 -0.26739108437E+03  0.10495718817E+04  0.99237572927E+03 0.  0.
   -9000010    2    1    2    0  502  0.16934129221E+03 -0.12890725972E+03 -0.63058190586E+03  0.12129052028E+04  0.10140078581E+04 0.  0.
        -13    1    3    3    0    0 -0.13852866272E+03 -0.43060107060E+03 -0.15421024338E+03  0.47789986684E+03  0.10566000000E+00 0.  1.
          4    1    3    3  501    0 -0.30812629495E+02  0.55950833032E+03 -0.11318084099E+03  0.57167201489E+03  0.00000000000E+00 0.  1.
         13    1    4    4    0    0  0.27066685734E+03  0.38611112193E+03 -0.13367434623E+03  0.49011344416E+03  0.10566000000E+00 0. -1.
         -4    1    4    4    0  502 -0.10132556513E+03 -0.51501838165E+03 -0.49690755963E+03  0.72279175867E+03  0.00000000000E+00 0. -1.
<mgrwt>
<rscale>  2 0.10307698E+04</rscale>
<asrwt>0</asrwt>
<pdfrwt beam="1">  1       21 0.10496186E+00 0.10361011E+04</pdfrwt>
<pdfrwt beam="2">  1       21 0.24311154E+00 0.10361011E+04</pdfrwt>
<totfact> 0.23746298E+01</totfact>
</mgrwt>
</event>
<event>
 8    1  0.7418332E-006  0.1003156E+04  0.7818608E-02  0.8779159E-01
         21   -1    0    0  503  502  0.00000000000E+00  0.00000000000E+00  0.97287644278E+03  0.97287644278E+03  0.00000000000E+00 0. -1.
         21   -1    0    0  501  503 -0.00000000000E+00 -0.00000000000E+00 -0.10027605171E+04  0.10027605171E+04  0.00000000000E+00 0. -1.
    9000010    2    1    2  501    0 -0.60213188341E+02 -0.41652454662E+02 -0.42021277157E+02  0.10040360300E+04  0.10004808878E+04 0.  0.
   -9000010    2    1    2    0  502  0.60213188341E+02  0.41652454662E+02  0.12137202860E+02  0.97160092983E+03  0.96876235482E+03 0.  0.
        -13    1    3    3    0    0 -0.36679051006E+03 -0.38009271290E+03  0.72711218569E+02  0.53319103625E+03  0.10566000000E+00 0.  1.
          4    1    3    3  501    0  0.30657732172E+03  0.33844025824E+03 -0.11473249573E+03  0.47084499378E+03  0.00000000000E+00 0.  1.
         13    1    4    4    0    0 -0.29178365815E+03 -0.19432550774E+03 -0.28684674829E+03  0.45296928625E+03  0.10566000000E+00 0. -1.
         -4    1    4    4    0  502  0.35199684649E+03  0.23597796240E+03  0.29898395115E+03  0.51863164358E+03  0.00000000000E+00 0. -1.
<mgrwt>
<rscale>  2 0.99515324E+03</rscale>
<asrwt>0</asrwt>
<pdfrwt beam="1">  1       21 0.14967330E+00 0.10031563E+04</pdfrwt>
<pdfrwt beam="2">  1       21 0.15427085E+00 0.10031563E+04</pdfrwt>
<totfact> 0.43732826E+01</totfact>
</mgrwt>
</event>
<event>
 8    1  0.7418332E-006  0.1153940E+04  0.7818608E-02  0.8648568E-01
         21   -1    0    0  503  502  0.00000000000E+00  0.00000000000E+00  0.10710958120E+04  0.10710958120E+04  0.00000000000E+00 0. -1.
         21   -1    0    0  501  503 -0.00000000000E+00 -0.00000000000E+00 -0.13147304994E+04  0.13147304994E+04  0.00000000000E+00 0. -1.
    9000010    2    1    2  501    0  0.50891934886E+03 -0.68834738316E+02 -0.45921119368E+03  0.12119221648E+04  0.99706734386E+03 0.  0.
   -9000010    2    1    2    0  502 -0.50891934886E+03  0.68834738316E+02  0.21557650622E+03  0.11739041466E+04  0.10333637262E+04 0.  0.
        -13    1    3    3    0    0  0.81595958300E+02 -0.50139979760E+03 -0.26899137220E+03  0.57481825556E+03  0.10566000000E+00 0.  1.
          4    1    3    3  501    0  0.42732339056E+03  0.43256505928E+03 -0.19021982149E+03  0.63710390920E+03  0.00000000000E+00 0.  1.
         13    1    4    4    0    0 -0.40007007400E+03  0.52780122220E+03  0.23246464229E+03  0.70190456285E+03  0.10566000000E+00 0. -1.
         -4    1    4    4    0  502 -0.10884927486E+03 -0.45896648388E+03 -0.16888136069E+02  0.47199958379E+03  0.00000000000E+00 0. -1.
<mgrwt>
<rscale>  2 0.11457566E+04</rscale>
<asrwt>0</asrwt>
<pdfrwt beam="1">  1       21 0.16478397E+00 0.11539401E+04</pdfrwt>
<pdfrwt beam="2">  1       21 0.20226623E+00 0.11539401E+04</pdfrwt>
<totfact> 0.12584476E+01</totfact>
</mgrwt>
</event>
<event>
 8    1  0.7418332E-006  0.1205324E+04  0.7818608E-02  0.8638665E-01
         21   -1    0    0  503  502  0.00000000000E+00  0.00000000000E+00  0.12732483875E+04  0.12732483875E+04  0.00000000000E+00 0. -1.
         21   -1    0    0  501  503 -0.00000000000E+00 -0.00000000000E+00 -0.12416433717E+04  0.12416433717E+04  0.00000000000E+00 0. -1.
    9000010    2    1    2  501    0 -0.26431664878E+03 -0.15076309424E+03 -0.56184994757E+03  0.11713908955E+04  0.98177821587E+03 0.  0.
   -9000010    2    1    2    0  502  0.26431664878E+03  0.15076309424E+03  0.59345496338E+03  0.13435008636E+04  0.11662816879E+04 0.  0.
        -13    1    3    3    0    0  0.54630229378E+02 -0.34236886481E+03  0.14247024039E+03  0.37483153831E+03  0.10566000000E+00 0.  1.
          4    1    3    3  501    0 -0.31894687816E+03  0.19160577057E+03 -0.70432018796E+03  0.79655935722E+03  0.00000000000E+00 0.  1.
         13    1    4    4    0    0  0.16197100792E+03 -0.18783190674E+03 -0.29606797824E+03  0.38622751261E+03  0.10566000000E+00 0. -1.
         -4    1    4    4    0  502  0.10234564086E+03  0.33859500098E+03  0.88952294162E+03  0.95727335101E+03  0.00000000000E+00 0. -1.
<mgrwt>
<rscale>  2 0.11582720E+04</rscale>
<asrwt>0</asrwt>
<pdfrwt beam="1">  1       21 0.19588437E+00 0.12053239E+04</pdfrwt>
<pdfrwt beam="2">  1       21 0.19102206E+00 0.12053239E+04</pdfrwt>
<totfact> 0.84959220E+00</totfact>
</mgrwt>
</event>
<event>
 8    1  0.7418332E-006  0.1014183E+04  0.7818608E-02  0.8763883E-01
         21   -1    0    0  501  502  0.00000000000E+00  0.00000000000E+00  0.23909261650E+04  0.23909261650E+04  0.00000000000E+00 0.  1.
         21   -1    0    0  502  503 -0.00000000000E+00 -0.00000000000E+00 -0.43524433995E+03  0.43524433995E+03  0.00000000000E+00 0.  1.
    9000010    2    1    2  501    0  0.53842060462E+02  0.53433209810E+02  0.77297191671E+03  0.12751675244E+04  0.10113419579E+04 0.  0.
   -9000010    2    1    2    0  503 -0.53842060462E+02 -0.53433209810E+02  0.11827099083E+04  0.15510029806E+04  0.10005265829E+04 0.  0.
        -13    1    3    3    0    0 -0.68301855225E+02  0.52347802131E+03  0.42470973302E+03  0.67754907623E+03  0.10566000000E+00 0.  1.
          4    1    3    3  501    0  0.12214391569E+03 -0.47004481150E+03  0.34826218370E+03  0.59761844814E+03  0.00000000000E+00 0.  1.
         13    1    4    4    0    0  0.37518527945E+03  0.21431229085E+03  0.27574005542E+03  0.51256837715E+03  0.10566000000E+00 0. -1.
         -4    1    4    4    0  503 -0.42902733991E+03 -0.26774550066E+03  0.90696985291E+03  0.10384346034E+04  0.00000000000E+00 0. -1.
<mgrwt>
<rscale>  2 0.10114757E+04</rscale>
<asrwt>0</asrwt>
<pdfrwt beam="1">  1       21 0.36783479E+00 0.10141827E+04</pdfrwt>
<pdfrwt beam="2">  1       21 0.66960669E-01 0.10141827E+04</pdfrwt>
<totfact> 0.95479824E+00</totfact>
</mgrwt>
</event>
<event>
 8    1  0.7418332E-006  0.1117380E+04  0.7818608E-02  0.8676527E-01
         21   -1    0    0  501  502  0.00000000000E+00  0.00000000000E+00  0.13560880608E+04  0.13560880608E+04  0.00000000000E+00 0.  1.
         21   -1    0    0  502  503 -0.00000000000E+00 -0.00000000000E+00 -0.12313707432E+04  0.12313707432E+04  0.00000000000E+00 0.  1.
    9000010    2    1    2  501    0  0.20346023015E+02 -0.43361481771E+03  0.73202517393E+03  0.13157041640E+04  0.10033846825E+04 0.  0.
   -9000010    2    1    2    0  503 -0.20346023015E+02  0.43361481771E+03 -0.60730785625E+03  0.12717546400E+04  0.10296121898E+04 0.  0.
        -13    1    3    3    0    0 -0.12076866799E+03  0.26299371987E+03  0.48208985594E+03  0.56228232075E+03  0.10566000000E+00 0.  1.
          4    1    3    3  501    0  0.14111469100E+03 -0.69660853758E+03  0.24993531799E+03  0.75342184321E+03  0.00000000000E+00 0.  1.
         13    1    4    4    0    0  0.38552964947E+02 -0.11407606412E+03 -0.70249647461E+03  0.71274188001E+03  0.10566000000E+00 0. -1.
         -4    1    4    4    0  503 -0.58898987962E+02  0.54769088182E+03  0.95188618369E+02  0.55901276003E+03  0.00000000000E+00 0. -1.
<mgrwt>
<rscale>  2 0.11113001E+04</rscale>
<asrwt>0</asrwt>
<pdfrwt beam="1">  1       21 0.20862893E+00 0.11173795E+04</pdfrwt>
<pdfrwt beam="2">  1       21 0.18944165E+00 0.11173795E+04</pdfrwt>
<totfact> 0.70937678E+00</totfact>
</mgrwt>
</event>
<event>
 8    1  0.7418332E-006  0.1311657E+04  0.7818608E-02  0.8583401E-01
         21   -1    0    0  501  502  0.00000000000E+00  0.00000000000E+00  0.27748681077E+04  0.27748681077E+04  0.00000000000E+00 0.  1.
         21   -1    0    0  502  503 -0.00000000000E+00 -0.00000000000E+00 -0.49564820738E+03  0.49564820738E+03  0.00000000000E+00 0.  1.
    9000010    2    1    2  501    0  0.18027552643E+03 -0.14478937425E+03  0.14672138839E+04  0.19680348932E+04  0.12911163895E+04 0.  0.
   -9000010    2    1    2    0  503 -0.18027552643E+03  0.14478937425E+03  0.81200601638E+03  0.13024814219E+04  0.99178669855E+03 0.  0.
        -13    1    3    3    0    0  0.17808315040E+03 -0.58342890365E+03  0.13962518190E+04  0.15236869913E+04  0.10566000000E+00 0.  1.
          4    1    3    3  501    0  0.21923760292E+01  0.43863952940E+03  0.70962064903E+02  0.44434790190E+03  0.00000000000E+00 0.  1.
         13    1    4    4    0    0 -0.45602460434E+03  0.41810081113E+03  0.59170795932E+03  0.85608705651E+03  0.10566000000E+00 0. -1.
         -4    1    4    4    0  503  0.27574907792E+03 -0.27331143688E+03  0.22029805706E+03  0.44639436538E+03  0.00000000000E+00 0. -1.
<mgrwt>
<rscale>  2 0.12312410E+04</rscale>
<asrwt>0</asrwt>
<pdfrwt beam="1">  1       21 0.42690278E+00 0.13116573E+04</pdfrwt>
<pdfrwt beam="2">  1       21 0.76253572E-01 0.13116573E+04</pdfrwt>
<totfact> 0.25659731E+00</totfact>
</mgrwt>
</event>
<event>
 8    1  0.7418332E-006  0.1106948E+04  0.7818608E-02  0.8680354E-01
         21   -1    0    0  501  502  0.00000000000E+00  0.00000000000E+00  0.61878583689E+03  0.61878583689E+03  0.00000000000E+00 0.  1.
         21   -1    0    0  502  503 -0.00000000000E+00 -0.00000000000E+00 -0.28659721461E+04  0.28659721461E+04  0.00000000000E+00 0.  1.
    9000010    2    1    2  501    0 -0.22430905705E+03 -0.41948595595E+03 -0.15428775757E+03  0.11176482136E+04  0.99952478559E+03 0.  0.
   -9000010    2    1    2    0  503  0.22430905705E+03  0.41948595595E+03 -0.20928985516E+04  0.23671097693E+04  0.99834928374E+03 0.  0.
        -13    1    3    3    0    0 -0.10192830390E+03  0.23116740615E+03  0.23883721930E+03  0.34766503604E+03  0.10566000000E+00 0.  1.
          4    1    3    3  501    0 -0.12238075315E+03 -0.65065336210E+03 -0.39312497686E+03  0.76998317760E+03  0.00000000000E+00 0.  1.
         13    1    4    4    0    0 -0.39866075937E+03  0.17983097990E+03 -0.87969108651E+03  0.98240826607E+03  0.10566000000E+00 0. -1.
         -4    1    4    4    0  503  0.62296981642E+03  0.23965497605E+03 -0.12132074651E+04  0.13847015033E+04  0.00000000000E+00 0. -1.
<mgrwt>
<rscale>  2 0.11066821E+04</rscale>
<asrwt>0</asrwt>
<pdfrwt beam="1">  1       21 0.95197821E-01 0.11069475E+04</pdfrwt>
<pdfrwt beam="2">  1       21 0.44091879E+00 0.11069475E+04</pdfrwt>
<totfact> 0.12224902E+00</totfact>
</mgrwt>
</event>
<event>
 8    1  0.7418332E-006  0.1022062E+04  0.7818608E-02  0.8762757E-01
         21   -1    0    0  503  502  0.00000000000E+00  0.00000000000E+00  0.58837011859E+03  0.58837011859E+03  0.00000000000E+00 0.  1.
         21   -1    0    0  501  503 -0.00000000000E+00 -0.00000000000E+00 -0.25071864201E+04  0.25071864201E+04  0.00000000000E+00 0.  1.
    9000010    2    1    2  501    0 -0.17603276900E+03 -0.10613403978E+03 -0.18190208399E+04  0.20686336613E+04  0.96340875975E+03 0.  0.
   -9000010    2    1    2    0  502  0.17603276900E+03  0.10613403978E+03 -0.99795461648E+02  0.10269228775E+04  0.10011790509E+04 0.  0.
        -13    1    3    3    0    0 -0.22516928119E+02 -0.53110398188E+03 -0.10428982919E+04  0.11705619633E+04  0.10566000000E+00 0.  1.
          4    1    3    3  501    0 -0.15351584088E+03  0.42496994210E+03 -0.77612254802E+03  0.89807169793E+03  0.00000000000E+00 0.  1.
         13    1    4    4    0    0 -0.30136242412E+03 -0.27559897208E+03 -0.53158552237E+01  0.40841446297E+03  0.10566000000E+00 0. -1.
         -4    1    4    4    0  502  0.47739519312E+03  0.38173301186E+03 -0.94479606424E+02  0.61850841449E+03  0.00000000000E+00 0. -1.
<mgrwt>
<rscale>  2 0.10126920E+04</rscale>
<asrwt>0</asrwt>
<pdfrwt beam="1">  1       21 0.90518481E-01 0.10220624E+04</pdfrwt>
<pdfrwt beam="2">  1       21 0.38572098E+00 0.10220624E+04</pdfrwt>
<totfact> 0.34190864E+00</totfact>
</mgrwt>
</event>
<event>
 8    1  0.7418332E-006  0.1055055E+04  0.7818608E-02  0.8743188E-01
         21   -1    0    0  503  502  0.00000000000E+00  0.00000000000E+00  0.10422092398E+04  0.10422092398E+04  0.00000000000E+00 0. -1.
         21   -1    0    0  501  503 -0.00000000000E+00 -0.00000000000E+00 -0.15563253794E+04  0.15563253794E+04  0.00000000000E+00 0. -1.
    9000010    2    1    2  501    0  0.25089606758E+03  0.97141323008E+02 -0.10357325823E+04  0.14215784618E+04  0.93581946325E+03 0.  0.
   -9000010    2    1    2    0  502 -0.25089606758E+03 -0.97141323008E+02  0.52161644265E+03  0.11769561574E+04  0.10201748918E+04 0.  0.
        -13    1    3    3    0    0 -0.86874490046E+02 -0.26203564269E+03 -0.85166854194E+03  0.89529278538E+03  0.10566000000E+00 0.  1.
          4    1    3    3  501    0  0.33777055762E+03  0.35917696570E+03 -0.18406404032E+03  0.52628567644E+03  0.00000000000E+00 0.  1.
         13    1    4    4    0    0 -0.33359179160E+03 -0.24823922254E+03  0.76975819712E+03  0.87489078646E+03  0.10566000000E+00 0. -1.
         -4    1    4    4    0  502  0.82695724019E+02  0.15109789953E+03 -0.24814175448E+03  0.30206537095E+03  0.00000000000E+00 0. -1.
<mgrwt>
<rscale>  2 0.10341076E+04</rscale>
<asrwt>0</asrwt>
<pdfrwt beam="1">  1       21 0.16033988E+00 0.10550555E+04</pdfrwt>
<pdfrwt beam="2">  1       21 0.23943467E+00 0.10550555E+04</pdfrwt>
<totfact> 0.73661066E+00</totfact>
</mgrwt>
</event>
<event>
 8    1  0.7418332E-006  0.9949072E+03  0.7818608E-02  0.8779453E-01
         21   -1    0    0  501  502  0.00000000000E+00  0.00000000000E+00  0.25882049919E+04  0.25882049919E+04  0.00000000000E+00 0. -1.
         21   -1    0    0  502  503 -0.00000000000E+00 -0.00000000000E+00 -0.61865998618E+03  0.61865998618E+03  0.00000000000E+00 0. -1.
    9000010    2    1    2  501    0  0.31784043412E+01 -0.28429511575E+02 -0.63057640682E+01  0.99466546667E+03  0.99423402101E+03 0.  0.
   -9000010    2    1    2    0  503 -0.31784043412E+01  0.28429511575E+02  0.19758507698E+04  0.22121995114E+04  0.99449588958E+03 0.  0.
        -13    1    3    3    0    0 -0.46026217428E+03 -0.19815162886E+03 -0.27903438651E+01  0.50111189796E+03  0.10566000000E+00 0.  1.
          4    1    3    3  501    0  0.46344057862E+03  0.16972211728E+03 -0.35154202031E+01  0.49355356871E+03  0.00000000000E+00 0.  1.
         13    1    4    4    0    0  0.21149219922E+03  0.41946416045E+03  0.14415504083E+04  0.15161618393E+04  0.10566000000E+00 0. -1.
         -4    1    4    4    0  503 -0.21467060357E+03 -0.39103464887E+03  0.53430036152E+03  0.69603767209E+03  0.00000000000E+00 0. -1.
<mgrwt>
<rscale>  2 0.99484179E+03</rscale>
<asrwt>0</asrwt>
<pdfrwt beam="1">  1       21 0.39818538E+00 0.99490724E+03</pdfrwt>
<pdfrwt beam="2">  1       21 0.95178461E-01 0.99490724E+03</pdfrwt>
<totfact> 0.24774065E+00</totfact>
</mgrwt>
</event>
<event>
 8    1  0.7418332E-006  0.1061486E+04  0.7818608E-02  0.8726453E-01
         21   -1    0    0  501  502  0.00000000000E+00  0.00000000000E+00  0.14171321341E+04  0.14171321341E+04  0.00000000000E+00 0. -1.
         21   -1    0    0  502  503 -0.00000000000E+00 -0.00000000000E+00 -0.12494805462E+04  0.12494805462E+04  0.00000000000E+00 0. -1.
    9000010    2    1    2  501    0 -0.65230097742E+01 -0.21726006687E+03  0.91075471897E+03  0.13986514388E+04  0.10389933603E+04 0.  0.
   -9000010    2    1    2    0  503  0.65230097742E+01  0.21726006687E+03 -0.74310313109E+03  0.12679612415E+04  0.10041309477E+04 0.  0.
        -13    1    3    3    0    0 -0.57532307870E+02  0.32148889345E+03  0.77458654548E+03  0.84062441236E+03  0.10566000000E+00 0.  1.
          4    1    3    3  501    0  0.51009298095E+02 -0.53874896032E+03  0.13616817350E+03  0.55802702641E+03  0.00000000000E+00 0.  1.
         13    1    4    4    0    0 -0.43830976972E+03  0.25585334771E+03 -0.15718667433E+03  0.53130410456E+03  0.10566000000E+00 0. -1.
         -4    1    4    4    0  503  0.44483277949E+03 -0.38593280842E+02 -0.58591645676E+03  0.73665713690E+03  0.00000000000E+00 0. -1.
<mgrwt>
<rscale>  2 0.10528562E+04</rscale>
<asrwt>0</asrwt>
<pdfrwt beam="1">  1       21 0.21802033E+00 0.10614856E+04</pdfrwt>
<pdfrwt beam="2">  1       21 0.19222778E+00 0.10614856E+04</pdfrwt>
<totfact> 0.57924612E+00</totfact>
</mgrwt>
</event>
<event>
 8    1  0.7418332E-006  0.1037124E+04  0.7818608E-02  0.8741623E-01
         21   -1    0    0  503  502  0.00000000000E+00  0.00000000000E+00  0.18005165136E+04  0.18005165136E+04  0.00000000000E+00 0.  1.
         21   -1    0    0  501  503 -0.00000000000E+00 -0.00000000000E+00 -0.63037364959E+03  0.63037364959E+03  0.00000000000E+00 0.  1.
    9000010    2    1    2  501    0  0.24913155924E+03  0.52986838576E+02  0.29359280663E+03  0.10729631975E+04  0.10000895701E+04 0.  0.
   -9000010    2    1    2    0  502 -0.24913155924E+03 -0.52986838576E+02  0.87655005734E+03  0.13579269657E+04  0.10053613789E+04 0.  0.
        -13    1    3    3    0    0 -0.18740217168E+02 -0.31978714365E+03  0.48036911586E+03  0.57738159965E+03  0.10566000000E+00 0.  1.
          4    1    3    3  501    0  0.26787177641E+03  0.37277398222E+03 -0.18677630923E+03  0.49558159783E+03  0.00000000000E+00 0.  1.
         13    1    4    4    0    0 -0.25977428147E+03  0.32991930355E+03  0.87978474597E+03  0.97485928963E+03  0.10566000000E+00 0. -1.
         -4    1    4    4    0  502  0.10642722230E+02 -0.38290614213E+03 -0.32346886275E+01  0.38306767604E+03  0.00000000000E+00 0. -1.
<mgrwt>
<rscale>  2 0.10358440E+04</rscale>
<asrwt>0</asrwt>
<pdfrwt beam="1">  1       21 0.27700254E+00 0.10371237E+04</pdfrwt>
<pdfrwt beam="2">  1       21 0.96980562E-01 0.10371237E+04</pdfrwt>
<totfact> 0.16636433E+01</totfact>
</mgrwt>
</event>
<event>
 8    1  0.7418332E-006  0.1052466E+04  0.7818608E-02  0.8728409E-01
         21   -1    0    0  501  502  0.00000000000E+00  0.00000000000E+00  0.95962667929E+03  0.95962667929E+03  0.00000000000E+00 0. -1.
         21   -1    0    0  502  503 -0.00000000000E+00 -0.00000000000E+00 -0.16712517308E+04  0.16712517308E+04  0.00000000000E+00 0. -1.
    9000010    2    1    2  501    0  0.70192295646E+02 -0.15091169223E+03  0.38055867182E+03  0.11191556676E+04  0.10392224057E+04 0.  0.
   -9000010    2    1    2    0  503 -0.70192295646E+02  0.15091169223E+03 -0.10921837233E+04  0.15117227425E+04  0.10318619420E+04 0.  0.
        -13    1    3    3    0    0 -0.11626306292E+03  0.12892126424E+03 -0.30761553220E+03  0.35322106249E+03  0.10566000000E+00 0.  1.
          4    1    3    3  501    0  0.18645535857E+03 -0.27983295646E+03  0.68817420401E+03  0.76593460513E+03  0.00000000000E+00 0.  1.
         13    1    4    4    0    0  0.35066404517E+03 -0.95165112108E+02 -0.92914754102E+03  0.99766569315E+03  0.10566000000E+00 0. -1.
         -4    1    4    4    0  503 -0.42085634081E+03  0.24607680433E+03 -0.16303618232E+03  0.51405704934E+03  0.00000000000E+00 0. -1.
<mgrwt>
<rscale>  2 0.10506444E+04</rscale>
<asrwt>0</asrwt>
<pdfrwt beam="1">  1       21 0.14763487E+00 0.10524659E+04</pdfrwt>
<pdfrwt beam="2">  1       21 0.25711565E+00 0.10524659E+04</pdfrwt>
<totfact> 0.70878056E+00</totfact>
</mgrwt>
</event>
<event>
 8    1  0.7418332E-006  0.1283965E+04  0.7818608E-02  0.8546260E-01
         21   -1    0    0  503  502  0.00000000000E+00  0.00000000000E+00  0.17442631709E+04  0.17442631709E+04  0.00000000000E+00 0.  1.
         21   -1    0    0  501  503 -0.00000000000E+00 -0.00000000000E+00 -0.12715582359E+04  0.12715582359E+04  0.00000000000E+00 0.  1.
    9000010    2    1    2  501    0  0.80655429906E+03 -0.80811645625E+02 -0.52937901137E+03  0.13888154976E+04  0.99574393764E+03 0.  0.
   -9000010    2    1    2    0  502 -0.80655429906E+03  0.80811645625E+02  0.10020839463E+04  0.16270059092E+04  0.99293284448E+03 0.  0.
        -13    1    3    3    0    0 -0.22170739122E+03  0.93941737770E+02 -0.90495093594E+02  0.25723256121E+03  0.10566000000E+00 0.  1.
          4    1    3    3  501    0  0.10282616903E+04 -0.17475338339E+03 -0.43888391778E+03  0.11315829364E+04  0.00000000000E+00 0.  1.
         13    1    4    4    0    0  0.69643620301E+02 -0.13593532084E+03 -0.11474455834E+03  0.19103656753E+03  0.10566000000E+00 0. -1.
         -4    1    4    4    0  502 -0.87619791936E+03  0.21674696646E+03  0.11168285047E+04  0.14359693417E+04  0.00000000000E+00 0. -1.
<mgrwt>
<rscale>  2 0.12834200E+04</rscale>
<asrwt>0</asrwt>
<pdfrwt beam="1">  1       21 0.26834818E+00 0.12839651E+04</pdfrwt>
<pdfrwt beam="2">  1       21 0.19562434E+00 0.12839651E+04</pdfrwt>
<totfact> 0.22102296E+00</totfact>
</mgrwt>
</event>
<event>
 8    1  0.7418332E-006  0.1035857E+04  0.7818608E-02  0.8765423E-01
         21   -1    0    0  503  502  0.00000000000E+00  0.00000000000E+00  0.90414927604E+03  0.90414927604E+03  0.00000000000E+00 0. -1.
         21   -1    0    0  501  503 -0.00000000000E+00 -0.00000000000E+00 -0.13123164713E+04  0.13123164713E+04  0.00000000000E+00 0. -1.
    9000010    2    1    2  501    0  0.28511230199E+03  0.47612877980E+02 -0.66673405195E+03  0.11488252369E+04  0.88978037632E+03 0.  0.
   -9000010    2    1    2    0  502 -0.28511230199E+03 -0.47612877980E+02  0.25856685674E+03  0.10676405104E+04  0.99470771037E+03 0.  0.
        -13    1    3    3    0    0 -0.11762593711E+03  0.13430220724E+03 -0.71231656578E+03  0.73434858548E+03  0.10566000000E+00 0.  1.
          4    1    3    3  501    0  0.40273823909E+03 -0.86689329258E+02  0.45582513827E+02  0.41447665145E+03  0.00000000000E+00 0.  1.
         13    1    4    4    0    0  0.27130440663E+03  0.27834544027E+03  0.13183717149E+03  0.41044282930E+03  0.10566000000E+00 0. -1.
         -4    1    4    4    0  502 -0.55641670862E+03 -0.32595831825E+03  0.12672968525E+03  0.65719768106E+03  0.00000000000E+00 0. -1.
<mgrwt>
<rscale>  2 0.10098160E+04</rscale>
<asrwt>0</asrwt>
<pdfrwt beam="1">  1       21 0.13909989E+00 0.10358569E+04</pdfrwt>
<pdfrwt beam="2">  1       21 0.20189484E+00 0.10358569E+04</pdfrwt>
<totfact> 0.21979363E+01</totfact>
</mgrwt>
</event>
<event>
 8    1  0.7418332E-006  0.1090188E+04  0.7818608E-02  0.8695554E-01
         21   -1    0    0  503  502  0.00000000000E+00  0.00000000000E+00  0.12468147742E+04  0.12468147742E+04  0.00000000000E+00 0.  1.
         21   -1    0    0  501  503 -0.00000000000E+00 -0.00000000000E+00 -0.97786644666E+03  0.97786644666E+03  0.00000000000E+00 0.  1.
    9000010    2    1    2  501    0  0.60976071185E+02  0.41140640979E+03 -0.60818724898E+02  0.10918828358E+04  0.10077380089E+04 0.  0.
   -9000010    2    1    2    0  502 -0.60976071185E+02 -0.41140640979E+03  0.32976705244E+03  0.11327983850E+04  0.10007559927E+04 0.  0.
        -13    1    3    3    0    0 -0.19516681622E+02  0.72799733411E+03 -0.16929829866E+03  0.74767836964E+03  0.10566000000E+00 0.  1.
          4    1    3    3  501    0  0.80492752807E+02 -0.31659092432E+03  0.10847957376E+03  0.34420446618E+03  0.00000000000E+00 0.  1.
         13    1    4    4    0    0 -0.32322432694E+03 -0.63290346686E+03  0.34334883219E+03  0.78925863671E+03  0.10566000000E+00 0. -1.
         -4    1    4    4    0  502  0.26224825576E+03  0.22149705706E+03 -0.13581779753E+02  0.34353974832E+03  0.00000000000E+00 0. -1.
<mgrwt>
<rscale>  2 0.10885714E+04</rscale>
<asrwt>0</asrwt>
<pdfrwt beam="1">  1       21 0.19181766E+00 0.10901877E+04</pdfrwt>
<pdfrwt beam="2">  1       21 0.15044099E+00 0.10901877E+04</pdfrwt>
<totfact> 0.20552037E+01</totfact>
</mgrwt>
</event>
<event>
 8    1  0.7418332E-006  0.1088002E+04  0.7818608E-02  0.8697622E-01
         21   -1    0    0  503  502  0.00000000000E+00  0.00000000000E+00  0.13920177977E+04  0.13920177977E+04  0.00000000000E+00 0.  1.
         21   -1    0    0  501  503 -0.00000000000E+00 -0.00000000000E+00 -0.94845324060E+03  0.94845324060E+03  0.00000000000E+00 0.  1.
    9000010    2    1    2  501    0 -0.29705845899E+03 -0.27481633485E+03 -0.16482717158E+03  0.11004161323E+04  0.10099405535E+04 0.  0.
   -9000010    2    1    2    0  502  0.29705845899E+03  0.27481633485E+03  0.60839172867E+03  0.12400549060E+04  0.10019121361E+04 0.  0.
        -13    1    3    3    0    0 -0.52738859477E+03 -0.48985503667E+03 -0.26918332246E+03  0.76847664838E+03  0.10566000000E+00 0.  1.
          4    1    3    3  501    0  0.23033013578E+03  0.21503870182E+03  0.10435615088E+03  0.33193948388E+03  0.00000000000E+00 0.  1.
         13    1    4    4    0    0  0.60923499306E+03  0.66171437684E+02  0.12074718655E+03  0.62460053647E+03  0.10566000000E+00 0. -1.
         -4    1    4    4    0  502 -0.31217653408E+03  0.20864489716E+03  0.48764454213E+03  0.61545436956E+03  0.00000000000E+00 0. -1.
<mgrwt>
<rscale>  2 0.10861348E+04</rscale>
<asrwt>0</asrwt>
<pdfrwt beam="1">  1       21 0.21415659E+00 0.10880017E+04</pdfrwt>
<pdfrwt beam="2">  1       21 0.14591588E+00 0.10880017E+04</pdfrwt>
<totfact> 0.15142342E+01</totfact>
</mgrwt>
</event>
<event>
 8    1  0.7418332E-006  0.1044601E+04  0.7818608E-02  0.8734786E-01
         21   -1    0    0  503  502  0.00000000000E+00  0.00000000000E+00  0.27968686107E+04  0.27968686107E+04  0.00000000000E+00 0.  1.
         21   -1    0    0  501  503 -0.00000000000E+00 -0.00000000000E+00 -0.71759576363E+03  0.71759576363E+03  0.00000000000E+00 0.  1.
    9000010    2    1    2  501    0  0.54652133569E+02 -0.23120944003E+03 -0.15165897286E+03  0.10510827620E+04  0.10125857335E+04 0.  0.
   -9000010    2    1    2    0  502 -0.54652133569E+02  0.23120944003E+03  0.22309318200E+04  0.24633816123E+04  0.10172254037E+04 0.  0.
        -13    1    3    3    0    0 -0.31942549030E+03  0.26044457528E+03 -0.13279233066E+03  0.43301020183E+03  0.10566000000E+00 0.  1.
          4    1    3    3  501    0  0.37407762387E+03 -0.49165401532E+03 -0.18866642202E+02  0.61807256018E+03  0.00000000000E+00 0.  1.
         13    1    4    4    0    0  0.40709229377E+03 -0.46044680301E+02  0.47785436186E+03  0.62943550149E+03  0.10566000000E+00 0. -1.
         -4    1    4    4    0  502 -0.46174442734E+03  0.27725412033E+03  0.17530774581E+04  0.18339461109E+04  0.00000000000E+00 0. -1.
<mgrwt>
<rscale>  2 0.10434702E+04</rscale>
<asrwt>0</asrwt>
<pdfrwt beam="1">  1       21 0.43028747E+00 0.10446014E+04</pdfrwt>
<pdfrwt beam="2">  1       21 0.11039935E+00 0.10446014E+04</pdfrwt>
<totfact> 0.99332291E-01</totfact>
</mgrwt>
</event>
<event>
 8    1  0.7418332E-006  0.1026147E+04  0.7818608E-02  0.8755327E-01
         21   -1    0    0  503  502  0.00000000000E+00  0.00000000000E+00  0.15381080199E+04  0.15381080199E+04  0.00000000000E+00 0.  1.
         21   -1    0    0  501  503 -0.00000000000E+00 -0.00000000000E+00 -0.67365799163E+03  0.67365799163E+03  0.00000000000E+00 0.  1.
    9000010    2    1    2  501    0  0.22773485020E+03 -0.89219730689E+01  0.35989920743E+03  0.10874303720E+04  0.10005171717E+04 0.  0.
   -9000010    2    1    2    0  502 -0.22773485020E+03  0.89219730689E+01  0.50455082081E+03  0.11243356395E+04  0.97857873254E+03 0.  0.
        -13    1    3    3    0    0 -0.27548613176E+03  0.31284478112E+03  0.23028506926E+03  0.47623071106E+03  0.10566000000E+00 0.  1.
          4    1    3    3  501    0  0.50322098195E+03 -0.32176675419E+03  0.12961413817E+03  0.61119966099E+03  0.00000000000E+00 0.  1.
         13    1    4    4    0    0  0.37571459866E+03 -0.55924624031E+02  0.29944940432E+03  0.48369306397E+03  0.10566000000E+00 0. -1.
         -4    1    4    4    0  502 -0.60344944886E+03  0.64846597099E+02  0.20510141649E+03  0.64064257549E+03  0.00000000000E+00 0. -1.
<mgrwt>
<rscale>  2 0.10207599E+04</rscale>
<asrwt>0</asrwt>
<pdfrwt beam="1">  1       21 0.23663200E+00 0.10261469E+04</pdfrwt>
<pdfrwt beam="2">  1       21 0.10363969E+00 0.10261469E+04</pdfrwt>
<totfact> 0.27462423E+01</totfact>
</mgrwt>
</event>
<event>
 8    1  0.7418332E-006  0.1261070E+04  0.7818608E-02  0.8568858E-01
         21   -1    0    0  501  502  0.00000000000E+00  0.00000000000E+00  0.69206396019E+03  0.69206396019E+03  0.00000000000E+00 0. -1.
         21   -1    0    0  502  503 -0.00000000000E+00 -0.00000000000E+00 -0.28071691489E+04  0.28071691489E+04  0.00000000000E+00 0. -1.
    9000010    2    1    2  501    0  0.43406967862E+03  0.55424943774E+03 -0.27622576459E+03  0.12909676980E+04  0.10462733864E+04 0.  0.
   -9000010    2    1    2    0  503 -0.43406967862E+03 -0.55424943774E+03 -0.18388794241E+04  0.22082654112E+04  0.99967477934E+03 0.  0.
        -13    1    3    3    0    0  0.54182393627E+03  0.77305285524E+03 -0.30158473086E+02  0.94450698228E+03  0.10566000000E+00 0.  1.
          4    1    3    3  501    0 -0.10775425765E+03 -0.21880341751E+03 -0.24606729151E+03  0.34646071567E+03  0.00000000000E+00 0.  1.
         13    1    4    4    0    0 -0.47216827599E+03 -0.27375454560E+03 -0.18461135627E+04  0.19251025245E+04  0.10566000000E+00 0. -1.
         -4    1    4    4    0  503  0.38098597373E+02 -0.28049489213E+03  0.72341385791E+01  0.28316288669E+03  0.00000000000E+00 0. -1.
<mgrwt>
<rscale>  2 0.12513620E+04</rscale>
<asrwt>0</asrwt>
<pdfrwt beam="1">  1       21 0.10647138E+00 0.12610698E+04</pdfrwt>
<pdfrwt beam="2">  1       21 0.43187217E+00 0.12610698E+04</pdfrwt>
<totfact> 0.10198406E+00</totfact>
</mgrwt>
</event>
<event>
 8    1  0.7418332E-006  0.1021773E+04  0.7818608E-02  0.8759192E-01
         21   -1    0    0  501  502  0.00000000000E+00  0.00000000000E+00  0.25106006440E+04  0.25106006440E+04  0.00000000000E+00 0. -1.
         21   -1    0    0  502  503 -0.00000000000E+00 -0.00000000000E+00 -0.45846988452E+03  0.45846988452E+03  0.00000000000E+00 0. -1.
    9000010    2    1    2  501    0 -0.22518546743E+03  0.63031039354E+01  0.15119035145E+04  0.18132740038E+04  0.97537795336E+03 0.  0.
   -9000010    2    1    2    0  503  0.22518546743E+03 -0.63031039354E+01  0.54022724497E+03  0.11557965247E+04  0.99663027570E+03 0.  0.
        -13    1    3    3    0    0 -0.34888730140E+03  0.16726192426E+03  0.11776712349E+03  0.40443541749E+03  0.10566000000E+00 0.  1.
          4    1    3    3  501    0  0.12370183397E+03 -0.16095882032E+03  0.13941363910E+04  0.14088385863E+04  0.00000000000E+00 0.  1.
         13    1    4    4    0    0  0.42099627804E+03 -0.20898934811E+03  0.69136750660E+03  0.83600445818E+03  0.10566000000E+00 0. -1.
         -4    1    4    4    0  503 -0.19581081061E+03  0.20268624417E+03 -0.15114026163E+03  0.31979206652E+03  0.00000000000E+00 0. -1.
<mgrwt>
<rscale>  2 0.10165536E+04</rscale>
<asrwt>0</asrwt>
<pdfrwt beam="1">  1       21 0.38624625E+00 0.10217730E+04</pdfrwt>
<pdfrwt beam="2">  1       21 0.70533830E-01 0.10217730E+04</pdfrwt>
<totfact> 0.62598671E+00</totfact>
</mgrwt>
</event>
<event>
 8    1  0.7418332E-006  0.1020470E+04  0.7818608E-02  0.8761130E-01
         21   -1    0    0  503  502  0.00000000000E+00  0.00000000000E+00  0.32368620526E+03  0.32368620526E+03  0.00000000000E+00 0. -1.
         21   -1    0    0  501  503 -0.00000000000E+00 -0.00000000000E+00 -0.32702166521E+04  0.32702166521E+04  0.00000000000E+00 0. -1.
    9000010    2    1    2  501    0 -0.12743042712E+03 -0.80371750853E+02 -0.18452278201E+04  0.21086073027E+04  0.10092873311E+04 0.  0.
   -9000010    2    1    2    0  502  0.12743042712E+03  0.80371750853E+02 -0.11013026267E+04  0.14852955547E+04  0.98515850353E+03 0.  0.
        -13    1    3    3    0    0 -0.28799286507E+03 -0.41606572183E+03 -0.15592293832E+04  0.16392824210E+04  0.10566000000E+00 0.  1.
          4    1    3    3  501    0  0.16056243795E+03  0.33569397098E+03 -0.28599843691E+03  0.46932488166E+03  0.00000000000E+00 0.  1.
         13    1    4    4    0    0  0.24833171454E+03  0.49367241582E+03 -0.73751133638E+03  0.92157695123E+03  0.10566000000E+00 0. -1.
         -4    1    4    4    0  502 -0.12090128742E+03 -0.41330066497E+03 -0.36379129034E+03  0.56371860347E+03  0.00000000000E+00 0. -1.
<mgrwt>
<rscale>  2 0.10144525E+04</rscale>
<asrwt>0</asrwt>
<pdfrwt beam="1">  1       21 0.49797877E-01 0.10204700E+04</pdfrwt>
<pdfrwt beam="2">  1       21 0.50311026E+00 0.10204700E+04</pdfrwt>
<totfact> 0.21479023E+00</totfact>
</mgrwt>
</event>
<event>
 8    1  0.7418332E-006  0.1126395E+04  0.7818608E-02  0.8681464E-01
         21   -1    0    0  501  502  0.00000000000E+00  0.00000000000E+00  0.50372707825E+03  0.50372707825E+03  0.00000000000E+00 0. -1.
         21   -1    0    0  502  503 -0.00000000000E+00 -0.00000000000E+00 -0.28108991858E+04  0.28108991858E+04  0.00000000000E+00 0. -1.
    9000010    2    1    2  501    0  0.32553509335E+03 -0.24139471211E+02 -0.51115258550E+03  0.12369487365E+04  0.10780581617E+04 0.  0.
   -9000010    2    1    2    0  503 -0.32553509335E+03  0.24139471211E+02 -0.17960195220E+04  0.20776775275E+04  0.99222072842E+03 0.  0.
        -13    1    3    3    0    0 -0.22639361574E+03  0.23854991131E+03  0.12767725216E+03  0.35279118656E+03  0.10566000000E+00 0.  1.
          4    1    3    3  501    0  0.55192870908E+03 -0.26268938252E+03 -0.63882983766E+03  0.88415754992E+03  0.00000000000E+00 0.  1.
         13    1    4    4    0    0 -0.55637430247E+03  0.34037411485E+03 -0.11608669803E+04  0.13315476183E+04  0.10566000000E+00 0. -1.
         -4    1    4    4    0  503  0.23083920913E+03 -0.31623464364E+03 -0.63515254168E+03  0.74612990927E+03  0.00000000000E+00 0. -1.
<mgrwt>
<rscale>  2 0.11053478E+04</rscale>
<asrwt>0</asrwt>
<pdfrwt beam="1">  1       21 0.77496474E-01 0.11263948E+04</pdfrwt>
<pdfrwt beam="2">  1       21 0.43244603E+00 0.11263948E+04</pdfrwt>
<totfact> 0.23381594E+00</totfact>
</mgrwt>
</event>
<event>
 8    1  0.7418332E-006  0.1112936E+04  0.7818608E-02  0.8677286E-01
         21   -1    0    0  501  502  0.00000000000E+00  0.00000000000E+00  0.12753172366E+04  0.12753172366E+04  0.00000000000E+00 0.  1.
         21   -1    0    0  502  503 -0.00000000000E+00 -0.00000000000E+00 -0.11234318045E+04  0.11234318045E+04  0.00000000000E+00 0.  1.
    9000010    2    1    2  501    0  0.33887934743E+03  0.34782845721E+03  0.52977422271E+03  0.12234076349E+04  0.99007154602E+03 0.  0.
   -9000010    2    1    2    0  503 -0.33887934743E+03 -0.34782845721E+03 -0.37788879065E+03  0.11753414062E+04  0.10014008365E+04 0.  0.
        -13    1    3    3    0    0 -0.35704939599E+02  0.18647931436E+03 -0.26740265741E+03  0.32795360914E+03  0.10566000000E+00 0.  1.
          4    1    3    3  501    0  0.37458428703E+03  0.16134914284E+03  0.79717688012E+03  0.89545402572E+03  0.00000000000E+00 0.  1.
         13    1    4    4    0    0 -0.23672676055E+03 -0.57363047715E+03 -0.58464713854E+03  0.85258651834E+03  0.10566000000E+00 0. -1.
         -4    1    4    4    0  503 -0.10215258688E+03  0.22580201995E+03  0.20675834790E+03  0.32275488787E+03  0.00000000000E+00 0. -1.
<mgrwt>
<rscale>  2 0.11103819E+04</rscale>
<asrwt>0</asrwt>
<pdfrwt beam="1">  1       21 0.19620265E+00 0.11129364E+04</pdfrwt>
<pdfrwt beam="2">  1       21 0.17283566E+00 0.11129364E+04</pdfrwt>
<totfact> 0.12116021E+01</totfact>
</mgrwt>
</event>
<event>
 8    1  0.7418332E-006  0.1073168E+04  0.7818608E-02  0.8730570E-01
         21   -1    0    0  501  502  0.00000000000E+00  0.00000000000E+00  0.12017573250E+04  0.12017573250E+04  0.00000000000E+00 0. -1.
         21   -1    0    0  502  503 -0.00000000000E+00 -0.00000000000E+00 -0.10814329858E+04  0.10814329858E+04  0.00000000000E+00 0. -1.
    9000010    2    1    2  501    0 -0.18060075174E+03 -0.32782642715E+03  0.56177376299E+03  0.12113133117E+04  0.10057849574E+04 0.  0.
   -9000010    2    1    2    0  503  0.18060075174E+03  0.32782642715E+03 -0.44144942376E+03  0.10718769991E+04  0.90219505079E+03 0.  0.
        -13    1    3    3    0    0 -0.32291123126E+03  0.88274939620E+02 -0.15616503704E+03  0.36939363584E+03  0.10566000000E+00 0.  1.
          4    1    3    3  501    0  0.14231047952E+03 -0.41610136677E+03  0.71793880003E+03  0.84191967586E+03  0.00000000000E+00 0.  1.
         13    1    4    4    0    0  0.19717163691E+02  0.56743317929E+03 -0.29047751283E+02  0.56851821652E+03  0.10566000000E+00 0. -1.
         -4    1    4    4    0  503  0.16088358804E+03 -0.23960675214E+03 -0.41240167247E+03  0.50335878261E+03  0.00000000000E+00 0. -1.
<mgrwt>
<rscale>  2 0.10482065E+04</rscale>
<asrwt>0</asrwt>
<pdfrwt beam="1">  1       21 0.18488574E+00 0.10731683E+04</pdfrwt>
<pdfrwt beam="2">  1       21 0.16637431E+00 0.10731683E+04</pdfrwt>
<totfact> 0.17047162E+01</totfact>
</mgrwt>
</event>
<event>
 8    1  0.7418332E-006  0.1037245E+04  0.7818608E-02  0.8748316E-01
         21   -1    0    0  501  502  0.00000000000E+00  0.00000000000E+00  0.96171342272E+03  0.96171342272E+03  0.00000000000E+00 0. -1.
         21   -1    0    0  502  503 -0.00000000000E+00 -0.00000000000E+00 -0.13175062972E+04  0.13175062972E+04  0.00000000000E+00 0. -1.
    9000010    2    1    2  501    0  0.14506539453E+03  0.37183310534E+02  0.30682956917E+03  0.10483883330E+04  0.99123516132E+03 0.  0.
   -9000010    2    1    2    0  503 -0.14506539453E+03 -0.37183310534E+02 -0.66262244364E+03  0.12308313869E+04  0.10263775294E+04 0.  0.
        -13    1    3    3    0    0  0.22573835568E+02 -0.76565381470E+02 -0.35598234661E+03  0.36482225528E+03  0.10566000000E+00 0.  1.
          4    1    3    3  501    0  0.12249155896E+03  0.11374869200E+03  0.66281191578E+03  0.68356607775E+03  0.00000000000E+00 0.  1.
         13    1    4    4    0    0  0.11358447453E+03 -0.17575806646E+03  0.21825269524E+03  0.30236828690E+03  0.10566000000E+00 0. -1.
         -4    1    4    4    0  503 -0.25864986906E+03  0.13857475593E+03 -0.88087513888E+03  0.92846309999E+03  0.00000000000E+00 0. -1.
<mgrwt>
<rscale>  2 0.10284434E+04</rscale>
<asrwt>0</asrwt>
<pdfrwt beam="1">  1       21 0.14795591E+00 0.10372451E+04</pdfrwt>
<pdfrwt beam="2">  1       21 0.20269328E+00 0.10372451E+04</pdfrwt>
<totfact> 0.17983323E+01</totfact>
</mgrwt>
</event>
<event>
 8    1  0.7418332E-006  0.1162496E+04  0.7818608E-02  0.8639596E-01
         21   -1    0    0  501  502  0.00000000000E+00  0.00000000000E+00  0.28571512283E+04  0.28571512283E+04  0.00000000000E+00 0.  1.
         21   -1    0    0  502  503 -0.00000000000E+00 -0.00000000000E+00 -0.75813268669E+03  0.75813268669E+03  0.00000000000E+00 0.  1.
    9000010    2    1    2  501    0 -0.40558147879E+03 -0.38551737000E+03  0.21808533842E+04  0.24713395577E+04  0.10189591490E+04 0.  0.
   -9000010    2    1    2    0  503  0.40558147879E+03  0.38551737000E+03 -0.81834842562E+02  0.11439443574E+04  0.99438009471E+03 0.  0.
        -13    1    3    3    0    0 -0.37724568452E+03 -0.70408851397E+03  0.12162909856E+04  0.14551352909E+04  0.10566000000E+00 0.  1.
          4    1    3    3  501    0 -0.28335794267E+02  0.31857114397E+03  0.96456239862E+03  0.10162042668E+04  0.00000000000E+00 0.  1.
         13    1    4    4    0    0  0.65246742645E+03  0.50101416391E+03 -0.20042240933E+03  0.84669834554E+03  0.10566000000E+00 0. -1.
         -4    1    4    4    0  503 -0.24688594765E+03 -0.11549679391E+03  0.11858756676E+03  0.29724601182E+03  0.00000000000E+00 0. -1.
<mgrwt>
<rscale>  2 0.11570880E+04</rscale>
<asrwt>0</asrwt>
<pdfrwt beam="1">  1       21 0.43956172E+00 0.11624963E+04</pdfrwt>
<pdfrwt beam="2">  1       21 0.11663580E+00 0.11624963E+04</pdfrwt>
<totfact> 0.71757794E-01</totfact>
</mgrwt>
</event>
<event>
 8    1  0.7418332E-006  0.9979936E+03  0.7818608E-02  0.8800446E-01
         21   -1    0    0  501  502  0.00000000000E+00  0.00000000000E+00  0.52205153102E+03  0.52205153102E+03  0.00000000000E+00 0. -1.
         21   -1    0    0  502  503 -0.00000000000E+00 -0.00000000000E+00 -0.18483050999E+04  0.18483050999E+04  0.00000000000E+00 0. -1.
    9000010    2    1    2  501    0  0.11546509898E+02 -0.81200148921E+02 -0.32933827475E+03  0.95974280691E+03  0.89772811593E+03 0.  0.
   -9000010    2    1    2    0  503 -0.11546509898E+02  0.81200148921E+02 -0.99691529410E+03  0.14106138240E+04  0.99461775106E+03 0.  0.
        -13    1    3    3    0    0  0.34993226677E+03 -0.23433370505E+03 -0.40094290374E+03  0.58148095401E+03  0.10566000000E+00 0.  1.
          4    1    3    3  501    0 -0.33838575688E+03  0.15313355613E+03  0.71604628989E+02  0.37826185290E+03  0.00000000000E+00 0.  1.
         13    1    4    4    0    0 -0.23925917296E+03 -0.25069157134E+01 -0.11152878484E+04  0.11406656971E+04  0.10566000000E+00 0. -1.
         -4    1    4    4    0  503  0.22771266306E+03  0.83707064634E+02  0.11837255435E+03  0.26994812689E+03  0.00000000000E+00 0. -1.
<mgrwt>
<rscale>  2 0.97293375E+03</rscale>
<asrwt>0</asrwt>
<pdfrwt beam="1">  1       21 0.80315622E-01 0.99799362E+03</pdfrwt>
<pdfrwt beam="2">  1       21 0.28435463E+00 0.99799362E+03</pdfrwt>
<totfact> 0.23980433E+01</totfact>
</mgrwt>
</event>
<event>
 8    1  0.7418332E-006  0.9983058E+03  0.7818608E-02  0.8782557E-01
         21   -1    0    0  501  502  0.00000000000E+00  0.00000000000E+00  0.13254264649E+04  0.13254264649E+04  0.00000000000E+00 0. -1.
         21   -1    0    0  502  503 -0.00000000000E+00 -0.00000000000E+00 -0.73646515351E+03  0.73646515351E+03  0.00000000000E+00 0. -1.
    9000010    2    1    2  501    0  0.30191134376E+01 -0.63588108094E+02  0.37913791588E+03  0.10678763878E+04  0.99627398727E+03 0.  0.
   -9000010    2    1    2    0  503 -0.30191134376E+01  0.63588108094E+02  0.20982339553E+03  0.99401523069E+03  0.96952971022E+03 0.  0.
        -13    1    3    3    0    0  0.54639224598E+02  0.45401135119E+03  0.69535930641E+02  0.46254406135E+03  0.10566000000E+00 0.  1.
          4    1    3    3  501    0 -0.51620111160E+02 -0.51759945928E+03  0.30960198524E+03  0.60533232640E+03  0.00000000000E+00 0.  1.
         13    1    4    4    0    0  0.19532484306E+03 -0.30510858116E+03 -0.19518743292E+03  0.41151085739E+03  0.10566000000E+00 0. -1.
         -4    1    4    4    0  503 -0.19834395650E+03  0.36869668926E+03  0.40501082845E+03  0.58250437330E+03  0.00000000000E+00 0. -1.
<mgrwt>
<rscale>  2 0.99156574E+03</rscale>
<asrwt>0</asrwt>
<pdfrwt beam="1">  1       21 0.20391176E+00 0.99830577E+03</pdfrwt>
<pdfrwt beam="2">  1       21 0.11330233E+00 0.99830577E+03</pdfrwt>
<totfact> 0.38361905E+01</totfact>
</mgrwt>
</event>
<event>
 8    1  0.7418332E-006  0.1071154E+04  0.7818608E-02  0.8726093E-01
         21   -1    0    0  501  502  0.00000000000E+00  0.00000000000E+00  0.18448639574E+04  0.18448639574E+04  0.00000000000E+00 0.  1.
         21   -1    0    0  502  503 -0.00000000000E+00 -0.00000000000E+00 -0.61880054035E+03  0.61880054035E+03  0.00000000000E+00 0.  1.
    9000010    2    1    2  501    0  0.62989285448E+02 -0.23117348533E+03  0.89358221883E+03  0.13420968259E+04  0.97227870379E+03 0.  0.
   -9000010    2    1    2    0  503 -0.62989285448E+02  0.23117348533E+03  0.33248119821E+03  0.11215676719E+04  0.10440121958E+04 0.  0.
        -13    1    3    3    0    0  0.50264918215E+03 -0.65504839323E+02  0.31510605991E+03  0.59685754117E+03  0.10566000000E+00 0.  1.
          4    1    3    3  501    0 -0.43965989671E+03 -0.16566864600E+03  0.57847615892E+03  0.74523928471E+03  0.00000000000E+00 0.  1.
         13    1    4    4    0    0 -0.39832870678E+03  0.41881150174E+03 -0.49049005315E+02  0.58006434878E+03  0.10566000000E+00 0. -1.
         -4    1    4    4    0  503  0.33533942133E+03 -0.18763801641E+03  0.38153020353E+03  0.54150332308E+03  0.00000000000E+00 0. -1.
<mgrwt>
<rscale>  2 0.10532637E+04</rscale>
<asrwt>0</asrwt>
<pdfrwt beam="1">  1       21 0.28382522E+00 0.10711537E+04</pdfrwt>
<pdfrwt beam="2">  1       21 0.95200084E-01 0.10711537E+04</pdfrwt>
<totfact> 0.15481597E+01</totfact>
</mgrwt>
</event>
<event>
 8    1  0.7418332E-006  0.9980386E+03  0.7818608E-02  0.8832866E-01
         21   -1    0    0  501  502  0.00000000000E+00  0.00000000000E+00  0.23681983000E+04  0.23681983000E+04  0.00000000000E+00 0. -1.
         21   -1    0    0  502  503 -0.00000000000E+00 -0.00000000000E+00 -0.33753975675E+03  0.33753975675E+03  0.00000000000E+00 0. -1.
    9000010    2    1    2  501    0  0.81464240915E+01  0.48953790281E+02  0.10461200914E+04  0.14458382412E+04  0.99680396074E+03 0.  0.
   -9000010    2    1    2    0  503 -0.81464240915E+01 -0.48953790281E+02  0.98453845182E+03  0.12598998156E+04  0.78458189142E+03 0.  0.
        -13    1    3    3    0    0  0.29315791581E+03 -0.32648623585E+02  0.11049069385E+04  0.11436025752E+04  0.10566000000E+00 0.  1.
          4    1    3    3  501    0 -0.28501149172E+03  0.81602413866E+02 -0.58786847078E+02  0.30223566592E+03  0.00000000000E+00 0.  1.
         13    1    4    4    0    0 -0.10702105982E+02  0.16582156274E+03  0.10275045954E+04  0.10408539910E+04  0.10566000000E+00 0. -1.
         -4    1    4    4    0  503  0.25556818904E+01 -0.21477535303E+03 -0.42966143600E+02  0.21904582460E+03  0.00000000000E+00 0. -1.
<mgrwt>
<rscale>  2 0.94023589E+03</rscale>
<asrwt>0</asrwt>
<pdfrwt beam="1">  1       21 0.36433819E+00 0.99803856E+03</pdfrwt>
<pdfrwt beam="2">  1       21 0.51929195E-01 0.99803856E+03</pdfrwt>
<totfact> 0.18136704E+01</totfact>
</mgrwt>
</event>
<event>
 8    1  0.7418332E-006  0.1015402E+04  0.7818608E-02  0.8769994E-01
         21   -1    0    0  503  502  0.00000000000E+00  0.00000000000E+00  0.21915187261E+04  0.21915187261E+04  0.00000000000E+00 0.  1.
         21   -1    0    0  501  503 -0.00000000000E+00 -0.00000000000E+00 -0.11671156121E+04  0.11671156121E+04  0.00000000000E+00 0.  1.
    9000010    2    1    2  501    0 -0.21020187670E+02 -0.30661663998E+02 -0.79852917534E+03  0.12917778776E+04  0.10147212698E+04 0.  0.
   -9000010    2    1    2    0  502  0.21020187670E+02  0.30661663998E+02  0.18229322894E+04  0.20668564605E+04  0.97336093550E+03 0.  0.
        -13    1    3    3    0    0 -0.40020818073E+02 -0.51339474563E+03 -0.29276664871E+03  0.59235812857E+03  0.10566000000E+00 0.  1.
          4    1    3    3  501    0  0.19000630403E+02  0.48273308163E+03 -0.50576252663E+03  0.69941974907E+03  0.00000000000E+00 0.  1.
         13    1    4    4    0    0  0.95716140740E+02  0.13791589600E+02 -0.10191086154E+03  0.14049064882E+03  0.10566000000E+00 0. -1.
         -4    1    4    4    0  502 -0.74695953070E+02  0.16870074398E+02  0.19248431509E+04  0.19263658117E+04  0.00000000000E+00 0. -1.
<mgrwt>
<rscale>  2 0.10049076E+04</rscale>
<asrwt>0</asrwt>
<pdfrwt beam="1">  1       21 0.33715673E+00 0.10154020E+04</pdfrwt>
<pdfrwt beam="2">  1       21 0.17955625E+00 0.10154020E+04</pdfrwt>
<totfact> 0.10335329E+00</totfact>
</mgrwt>
</event>
<event>
 8    1  0.7418332E-006  0.1270438E+04  0.7818608E-02  0.8609089E-01
         21   -1    0    0  501  502  0.00000000000E+00  0.00000000000E+00  0.18936338128E+04  0.18936338128E+04  0.00000000000E+00 0. -1.
         21   -1    0    0  502  503 -0.00000000000E+00 -0.00000000000E+00 -0.75431549421E+03  0.75431549421E+03  0.00000000000E+00 0. -1.
    9000010    2    1    2  501    0  0.20672857315E+02  0.10846552224E+03  0.91976480758E+03  0.13586794036E+04  0.99390657712E+03 0.  0.
   -9000010    2    1    2    0  503 -0.20672857315E+02 -0.10846552224E+03  0.21955351101E+03  0.12892699034E+04  0.12656306740E+04 0.  0.
        -13    1    3    3    0    0 -0.45971798051E+03  0.21570134112E+03  0.46662985428E+03  0.68964564976E+03  0.10566000000E+00 0.  1.
          4    1    3    3  501    0  0.48039083782E+03 -0.10723581888E+03  0.45313495330E+03  0.66903375387E+03  0.00000000000E+00 0.  1.
         13    1    4    4    0    0  0.22757474624E+03  0.29445692909E+03  0.58362200401E+03  0.69217758050E+03  0.10566000000E+00 0. -1.
         -4    1    4    4    0  503 -0.24824760355E+03 -0.40292245133E+03 -0.36406849299E+03  0.59709232288E+03  0.00000000000E+00 0. -1.
<mgrwt>
<rscale>  2 0.11966508E+04</rscale>
<asrwt>0</asrwt>
<pdfrwt beam="1">  1       21 0.29132828E+00 0.12704382E+04</pdfrwt>
<pdfrwt beam="2">  1       21 0.11604854E+00 0.12704382E+04</pdfrwt>
<totfact> 0.77498576E+00</totfact>
</mgrwt>
</event>
<event>
 8    1  0.7418332E-006  0.1050594E+04  0.7818608E-02  0.8734575E-01
         21   -1    0    0  501  502  0.00000000000E+00  0.00000000000E+00  0.12304767520E+04  0.12304767520E+04  0.00000000000E+00 0. -1.
         21   -1    0    0  502  503 -0.00000000000E+00 -0.00000000000E+00 -0.10542418916E+04  0.10542418916E+04  0.00000000000E+00 0. -1.
    9000010    2    1    2  501    0 -0.13866463843E+03 -0.28495111562E+03  0.56156332714E+03  0.11912601590E+04  0.10016598104E+04 0.  0.
   -9000010    2    1    2    0  503  0.13866463843E+03  0.28495111562E+03 -0.38532846677E+03  0.10934584846E+04  0.97300997423E+03 0.  0.
        -13    1    3    3    0    0  0.37845082722E+03  0.34758683891E+02  0.42117981608E+03  0.56729678597E+03  0.10566000000E+00 0.  1.
          4    1    3    3  501    0 -0.51711546566E+03 -0.31970979951E+03  0.14038351107E+03  0.62396337305E+03  0.00000000000E+00 0.  1.
         13    1    4    4    0    0  0.51574242326E+02 -0.35873029950E+03 -0.61264478446E+02  0.36756044092E+03  0.10566000000E+00 0. -1.
         -4    1    4    4    0  503  0.87090396106E+02  0.64368141512E+03 -0.32406398832E+03  0.72589804366E+03  0.00000000000E+00 0. -1.
<mgrwt>
<rscale>  2 0.10437067E+04</rscale>
<asrwt>0</asrwt>
<pdfrwt beam="1">  1       21 0.18930411E+00 0.10505938E+04</pdfrwt>
<pdfrwt beam="2">  1       21 0.16219106E+00 0.10505938E+04</pdfrwt>
<totfact> 0.17140839E+01</totfact>
</mgrwt>
</event>
<event>
 8    1  0.7418332E-006  0.1302420E+04  0.7818608E-02  0.8586212E-01
         21   -1    0    0  501  502  0.00000000000E+00  0.00000000000E+00  0.65039179479E+03  0.65039179479E+03  0.00000000000E+00 0. -1.
         21   -1    0    0  502  503 -0.00000000000E+00 -0.00000000000E+00 -0.22489939954E+04  0.22489939954E+04  0.00000000000E+00 0. -1.
    9000010    2    1    2  501    0 -0.11460600423E+03 -0.16457640606E+03 -0.32427328305E+03  0.10772405914E+04  0.10075089082E+04 0.  0.
   -9000010    2    1    2    0  503  0.11460600423E+03  0.16457640606E+03 -0.12743289176E+04  0.18221451988E+04  0.12868873321E+04 0.  0.
        -13    1    3    3    0    0 -0.47787930927E+03 -0.17751132896E+02  0.11168691451E+03  0.49107811495E+03  0.10566000000E+00 0.  1.
          4    1    3    3  501    0  0.36327330504E+03 -0.14682527316E+03 -0.43596019756E+03  0.58616247650E+03  0.00000000000E+00 0.  1.
         13    1    4    4    0    0  0.28467087495E+03  0.44505350634E+03 -0.13798911574E+04  0.14775688640E+04  0.10566000000E+00 0. -1.
         -4    1    4    4    0  503 -0.17006487072E+03 -0.28047710028E+03  0.10556223975E+03  0.34457633479E+03  0.00000000000E+00 0. -1.
<mgrwt>
<rscale>  2 0.12273971E+04</rscale>
<asrwt>0</asrwt>
<pdfrwt beam="1">  1       21 0.10006027E+00 0.13024204E+04</pdfrwt>
<pdfrwt beam="2">  1       21 0.34599909E+00 0.13024204E+04</pdfrwt>
<totfact> 0.47338798E+00</totfact>
</mgrwt>
</event>
<event>
 8    1  0.7418332E-006  0.1293758E+04  0.7818608E-02  0.8598475E-01
         21   -1    0    0  501  502  0.00000000000E+00  0.00000000000E+00  0.15217872015E+04  0.15217872015E+04  0.00000000000E+00 0. -1.
         21   -1    0    0  502  503 -0.00000000000E+00 -0.00000000000E+00 -0.89627660066E+03  0.89627660066E+03  0.00000000000E+00 0. -1.
    9000010    2    1    2  501    0 -0.12295194595E+03  0.22639837642E+02  0.10670691261E+03  0.12981505719E+04  0.12877029156E+04 0.  0.
   -9000010    2    1    2    0  503  0.12295194595E+03 -0.22639837642E+02  0.51880368821E+03  0.11199132303E+04  0.98459059168E+03 0.  0.
        -13    1    3    3    0    0 -0.70658607062E+02  0.53588074319E+03 -0.32044478914E+03  0.62836747507E+03  0.10566000000E+00 0.  1.
          4    1    3    3  501    0 -0.52293338892E+02 -0.51324090555E+03  0.42715170175E+03  0.66978309678E+03  0.00000000000E+00 0.  1.
         13    1    4    4    0    0 -0.33990636543E+03 -0.16729232323E+03 -0.38930921659E+02  0.38083944977E+03  0.10566000000E+00 0. -1.
         -4    1    4    4    0  503  0.46285831139E+03  0.14465248559E+03  0.55773460987E+03  0.73907378052E+03  0.00000000000E+00 0. -1.
<mgrwt>
<rscale>  2 0.12107985E+04</rscale>
<asrwt>0</asrwt>
<pdfrwt beam="1">  1       21 0.23412111E+00 0.12937575E+04</pdfrwt>
<pdfrwt beam="2">  1       21 0.13788871E+00 0.12937575E+04</pdfrwt>
<totfact> 0.12192765E+01</totfact>
</mgrwt>
</event>
<event>
 8    1  0.7418332E-006  0.1323887E+04  0.7818608E-02  0.8521033E-01
         21   -1    0    0  501  502  0.00000000000E+00  0.00000000000E+00  0.19545334155E+04  0.19545334155E+04  0.00000000000E+00 0. -1.
         21   -1    0    0  502  503 -0.00000000000E+00 -0.00000000000E+00 -0.11556156752E+04  0.11556156752E+04  0.00000000000E+00 0.  1.
    9000010    2    1    2  501    0 -0.10838222600E+03 -0.84836170446E+03  0.11503864757E+04  0.17538714344E+04  0.10105501850E+04 0.  0.
   -9000010    2    1    2    0  503  0.10838222600E+03  0.84836170446E+03 -0.35146873534E+03  0.13562776564E+04  0.99221697264E+03 0.  0.
        -13    1    3    3    0    0 -0.23129073631E+03 -0.86727453287E+02  0.91428294160E+03  0.94706407614E+03  0.10566000000E+00 0.  1.
          4    1    3    3  501    0  0.12290851032E+03 -0.76163425118E+03  0.23610353408E+03  0.80680735822E+03  0.00000000000E+00 0.  1.
         13    1    4    4    0    0  0.49164390665E+03  0.41862875045E+03 -0.42903501931E+03  0.77526435531E+03  0.10566000000E+00 0. -1.
         -4    1    4    4    0  503 -0.38326168066E+03  0.42973295401E+03  0.77566283971E+02  0.58101330108E+03  0.00000000000E+00 0. -1.
<mgrwt>
<rscale>  2 0.13203877E+04</rscale>
<asrwt>0</asrwt>
<pdfrwt beam="1">  1       21 0.30069745E+00 0.13238867E+04</pdfrwt>
<pdfrwt beam="2">  1       21 0.17778703E+00 0.13238867E+04</pdfrwt>
<totfact> 0.17952519E+00</totfact>
</mgrwt>
</event>
<event>
 8    1  0.7418332E-006  0.1037008E+04  0.7818608E-02  0.8762615E-01
         21   -1    0    0  503  502  0.00000000000E+00  0.00000000000E+00  0.17414401639E+04  0.17414401639E+04  0.00000000000E+00 0. -1.
         21   -1    0    0  501  503 -0.00000000000E+00 -0.00000000000E+00 -0.93899170393E+03  0.93899170393E+03  0.00000000000E+00 0. -1.
    9000010    2    1    2  501    0 -0.26616351390E+03  0.10001000680E+03 -0.45739505962E+03  0.10486867225E+04  0.89982697438E+03 0.  0.
   -9000010    2    1    2    0  502  0.26616351390E+03 -0.10001000680E+03  0.12598435196E+04  0.16317451453E+04  0.99726701931E+03 0.  0.
        -13    1    3    3    0    0  0.20424873917E+03  0.31570534179E+03 -0.29463324569E+02  0.37716774643E+03  0.10566000000E+00 0.  1.
          4    1    3    3  501    0 -0.47041225308E+03 -0.21569533499E+03 -0.42793173505E+03  0.67151897609E+03  0.00000000000E+00 0.  1.
         13    1    4    4    0    0 -0.10766946668E+03 -0.19916804075E+03  0.12223845518E+04  0.12431752194E+04  0.10566000000E+00 0. -1.
         -4    1    4    4    0  502  0.37383298058E+03  0.99158033955E+02  0.37458967817E+02  0.38856992593E+03  0.00000000000E+00 0. -1.
<mgrwt>
<rscale>  2 0.10128451E+04</rscale>
<asrwt>0</asrwt>
<pdfrwt beam="1">  1       21 0.26791387E+00 0.10370085E+04</pdfrwt>
<pdfrwt beam="2">  1       21 0.14446026E+00 0.10370085E+04</pdfrwt>
<totfact> 0.63552203E+00</totfact>
</mgrwt>
</event>
<event>
 8    1  0.7418332E-006  0.1004069E+04  0.7818608E-02  0.8771595E-01
         21   -1    0    0  501  502  0.00000000000E+00  0.00000000000E+00  0.16376712846E+04  0.16376712846E+04  0.00000000000E+00 0.  1.
         21   -1    0    0  502  503 -0.00000000000E+00 -0.00000000000E+00 -0.62011819221E+03  0.62011819221E+03  0.00000000000E+00 0.  1.
    9000010    2    1    2  501    0 -0.24054410497E+01  0.24144575573E+02  0.39096201674E+03  0.10742481745E+04  0.10002845071E+04 0.  0.
   -9000010    2    1    2    0  503  0.24054410497E+01 -0.24144575573E+02  0.62659107562E+03  0.11835413023E+04  0.10037753192E+04 0.  0.
        -13    1    3    3    0    0  0.25829810115E+01  0.41901210761E+03  0.51163491033E+03  0.66132300031E+03  0.10566000000E+00 0.  1.
          4    1    3    3  501    0 -0.49884220612E+01 -0.39486753203E+03 -0.12067289359E+03  0.41292517416E+03  0.00000000000E+00 0.  1.
         13    1    4    4    0    0  0.18719896311E+03  0.15494107226E+02 -0.23535172839E+03  0.30112118220E+03  0.10566000000E+00 0. -1.
         -4    1    4    4    0  503 -0.18479352206E+03 -0.39638682799E+02  0.86194280401E+03  0.88242012010E+03  0.00000000000E+00 0. -1.
<mgrwt>
<rscale>  2 0.10031950E+04</rscale>
<asrwt>0</asrwt>
<pdfrwt beam="1">  1       21 0.25194943E+00 0.10040685E+04</pdfrwt>
<pdfrwt beam="2">  1       21 0.95402800E-01 0.10040685E+04</pdfrwt>
<totfact> 0.26469994E+01</totfact>
</mgrwt>
</event>
<event>
 8    1  0.7418332E-006  0.1040274E+04  0.7818608E-02  0.8738030E-01
         21   -1    0    0  503  502  0.00000000000E+00  0.00000000000E+00  0.16098853424E+04  0.16098853424E+04  0.00000000000E+00 0.  1.
         21   -1    0    0  501  503 -0.00000000000E+00 -0.00000000000E+00 -0.76937803497E+03  0.76937803497E+03  0.00000000000E+00 0.  1.
    9000010    2    1    2  501    0  0.37022514486E+02  0.28641745317E+03 -0.52480434054E+01  0.10385646839E+04  0.99758881136E+03 0.  0.
   -9000010    2    1    2    0  502 -0.37022514486E+02 -0.28641745317E+03  0.84575535089E+03  0.13406986936E+04  0.99938243395E+03 0.  0.
        -13    1    3    3    0    0  0.37323181939E+03  0.13869414840E+03  0.34814867208E+03  0.52890979083E+03  0.10566000000E+00 0.  1.
          4    1    3    3  501    0 -0.33620930490E+03  0.14772330477E+03 -0.35339671549E+03  0.50965489303E+03  0.00000000000E+00 0.  1.
         13    1    4    4    0    0 -0.22373746039E+03 -0.58229781962E+03  0.75478275493E+03  0.97919672192E+03  0.10566000000E+00 0. -1.
         -4    1    4    4    0  502  0.18671494591E+03  0.29588036645E+03  0.90972595953E+02  0.36150197163E+03  0.00000000000E+00 0. -1.
<mgrwt>
<rscale>  2 0.10398434E+04</rscale>
<asrwt>0</asrwt>
<pdfrwt beam="1">  1       21 0.24767467E+00 0.10402744E+04</pdfrwt>
<pdfrwt beam="2">  1       21 0.11836585E+00 0.10402744E+04</pdfrwt>
<totfact> 0.15841133E+01</totfact>
</mgrwt>
</event>
<event>
 8    1  0.7418332E-006  0.9730909E+03  0.7818608E-02  0.8800651E-01
         21   -1    0    0  501  502  0.00000000000E+00  0.00000000000E+00  0.12795352171E+04  0.12795352171E+04  0.00000000000E+00 0.  1.
         21   -1    0    0  502  503 -0.00000000000E+00 -0.00000000000E+00 -0.10614169756E+04  0.10614169756E+04  0.00000000000E+00 0.  1.
    9000010    2    1    2  501    0 -0.56516699815E+02  0.18634403711E+03  0.75418428857E+03  0.12299739271E+04  0.95190529087E+03 0.  0.
   -9000010    2    1    2    0  503  0.56516699815E+02 -0.18634403711E+03 -0.53606604703E+03  0.11109782656E+04  0.95340844460E+03 0.  0.
        -13    1    3    3    0    0  0.17802758223E+02  0.36684483820E+03 -0.77775138960E+02  0.37542117271E+03  0.10566000000E+00 0.  1.
          4    1    3    3  501    0 -0.74319458038E+02 -0.18050080109E+03  0.83195942753E+03  0.85455275443E+03  0.00000000000E+00 0.  1.
         13    1    4    4    0    0 -0.29040168134E+03 -0.31530135741E+03 -0.59795342837E+03  0.73572847993E+03  0.10566000000E+00 0. -1.
         -4    1    4    4    0  503  0.34691838116E+03  0.12895732031E+03  0.61887381339E+02  0.37524978563E+03  0.00000000000E+00 0. -1.
<mgrwt>
<rscale>  2 0.97272252E+03</rscale>
<asrwt>0</asrwt>
<pdfrwt beam="1">  1       21 0.19685157E+00 0.97309090E+03</pdfrwt>
<pdfrwt beam="2">  1       21 0.16329492E+00 0.97309090E+03</pdfrwt>
<totfact> 0.14892844E+01</totfact>
</mgrwt>
</event>
<event>
 8    1  0.7418332E-006  0.1012757E+04  0.7818608E-02  0.8779509E-01
         21   -1    0    0  501  502  0.00000000000E+00  0.00000000000E+00  0.43332925644E+03  0.43332925644E+03  0.00000000000E+00 0. -1.
         21   -1    0    0  502  503 -0.00000000000E+00 -0.00000000000E+00 -0.24177883365E+04  0.24177883365E+04  0.00000000000E+00 0. -1.
    9000010    2    1    2  501    0  0.77112988043E+02  0.20618800658E+02 -0.13813035655E+04  0.16723584533E+04  0.93936771731E+03 0.  0.
   -9000010    2    1    2    0  503 -0.77112988043E+02 -0.20618800658E+02 -0.60315551462E+03  0.11787591397E+04  0.10096063524E+04 0.  0.
        -13    1    3    3    0    0 -0.21321527362E+01 -0.22828933445E+03 -0.13923149796E+04  0.14109080692E+04  0.10566000000E+00 0.  1.
          4    1    3    3  501    0  0.79245140779E+02  0.24890813511E+03  0.11011414115E+02  0.26145038401E+03  0.00000000000E+00 0.  1.
         13    1    4    4    0    0 -0.46846445091E+03  0.96462670051E+02 -0.35776502945E+02  0.47962897933E+03  0.10566000000E+00 0. -1.
         -4    1    4    4    0  503  0.39135146287E+03 -0.11708147071E+03 -0.56737901167E+03  0.69913016039E+03  0.00000000000E+00 0. -1.
<mgrwt>
<rscale>  2 0.99478308E+03</rscale>
<asrwt>0</asrwt>
<pdfrwt beam="1">  1       21 0.66666041E-01 0.10127569E+04</pdfrwt>
<pdfrwt beam="2">  1       21 0.37196743E+00 0.10127569E+04</pdfrwt>
<totfact> 0.90271094E+00</totfact>
</mgrwt>
</event>
<event>
 8    1  0.7418332E-006  0.1058570E+04  0.7818608E-02  0.8758158E-01
         21   -1    0    0  501  502  0.00000000000E+00  0.00000000000E+00  0.47634646669E+03  0.47634646669E+03  0.00000000000E+00 0.  1.
         21   -1    0    0  502  503 -0.00000000000E+00 -0.00000000000E+00 -0.23637392308E+04  0.23637392308E+04  0.00000000000E+00 0.  1.
    9000010    2    1    2  501    0  0.18493767695E+03 -0.26760241546E+03 -0.34166951064E+03  0.96663120324E+03  0.84369712069E+03 0.  0.
   -9000010    2    1    2    0  503 -0.18493767695E+03  0.26760241546E+03 -0.15457232535E+04  0.18734544942E+04  0.10073521572E+04 0.  0.
        -13    1    3    3    0    0  0.45671928609E+03  0.53274645758E+02 -0.28836704264E+03  0.54275800926E+03  0.10566000000E+00 0.  1.
          4    1    3    3  501    0 -0.27178160914E+03 -0.32087706121E+03 -0.53302468000E+02  0.42387319398E+03  0.00000000000E+00 0.  1.
         13    1    4    4    0    0  0.91575160645E+01 -0.22027997890E+03  0.20632646737E+02  0.22143361642E+03  0.10566000000E+00 0. -1.
         -4    1    4    4    0  503 -0.19409519301E+03  0.48788239436E+03 -0.15663559002E+04  0.16520208778E+04  0.00000000000E+00 0. -1.
<mgrwt>
<rscale>  2 0.10176770E+04</rscale>
<asrwt>0</asrwt>
<pdfrwt beam="1">  1       21 0.73284070E-01 0.10585704E+04</pdfrwt>
<pdfrwt beam="2">  1       21 0.36365220E+00 0.10585704E+04</pdfrwt>
<totfact> 0.81649241E+00</totfact>
</mgrwt>
</event>
<event>
 8    1  0.7418332E-006  0.1309154E+04  0.7818608E-02  0.8582028E-01
         21   -1    0    0  501  502  0.00000000000E+00  0.00000000000E+00  0.13291838843E+04  0.13291838843E+04  0.00000000000E+00 0.  1.
         21   -1    0    0  502  503 -0.00000000000E+00 -0.00000000000E+00 -0.10501737374E+04  0.10501737374E+04  0.00000000000E+00 0.  1.
    9000010    2    1    2  501    0  0.11998170084E+03  0.24186705542E+03  0.32118155101E+03  0.13479768544E+04  0.12810108236E+04 0.  0.
   -9000010    2    1    2    0  503 -0.11998170084E+03 -0.24186705542E+03 -0.42171404110E+02  0.10313807673E+04  0.99452128124E+03 0.  0.
        -13    1    3    3    0    0  0.36043984951E+03  0.15859496666E+03 -0.41317906044E+03  0.57077683530E+03  0.10566000000E+00 0.  1.
          4    1    3    3  501    0 -0.24045814867E+03  0.83272088761E+02  0.73436061146E+03  0.77720001910E+03  0.00000000000E+00 0.  1.
         13    1    4    4    0    0 -0.77935625137E+02 -0.47831523510E+03 -0.38073156413E+03  0.61629210678E+03  0.10566000000E+00 0. -1.
         -4    1    4    4    0  503 -0.42046075705E+02  0.23644817968E+03  0.33856016002E+03  0.41508866054E+03  0.00000000000E+00 0. -1.
<mgrwt>
<rscale>  2 0.12331246E+04</rscale>
<asrwt>0</asrwt>
<pdfrwt beam="1">  1       21 0.20448983E+00 0.13091539E+04</pdfrwt>
<pdfrwt beam="2">  1       21 0.16156519E+00 0.13091539E+04</pdfrwt>
<totfact> 0.12501039E+01</totfact>
</mgrwt>
</event>
<event>
 8    1  0.7418332E-006  0.1131545E+04  0.7818608E-02  0.8660173E-01
         21   -1    0    0  503  502  0.00000000000E+00  0.00000000000E+00  0.22726412494E+04  0.22726412494E+04  0.00000000000E+00 0.  1.
         21   -1    0    0  501  503 -0.00000000000E+00 -0.00000000000E+00 -0.64149804358E+03  0.64149804358E+03  0.00000000000E+00 0.  1.
    9000010    2    1    2  501    0 -0.12300488188E+03  0.51629388423E+03  0.30525525208E+03  0.11710463945E+04  0.99823810449E+03 0.  0.
   -9000010    2    1    2    0  502  0.12300488188E+03 -0.51629388423E+03  0.13258879538E+04  0.17430928985E+04  0.99935199558E+03 0.  0.
        -13    1    3    3    0    0  0.28869824684E+03  0.63786681780E+03  0.16379737027E+03  0.71906212850E+03  0.10566000000E+00 0.  1.
          4    1    3    3  501    0 -0.41170312872E+03 -0.12157293357E+03  0.14145788182E+03  0.45198426599E+03  0.00000000000E+00 0.  1.
         13    1    4    4    0    0  0.13390907303E+03  0.25956654108E+03  0.13509573058E+03  0.32180319556E+03  0.10566000000E+00 0. -1.
         -4    1    4    4    0  502 -0.10904191144E+02 -0.77586042531E+03  0.11907922232E+04  0.14212897030E+04  0.00000000000E+00 0. -1.
<mgrwt>
<rscale>  2 0.11312990E+04</rscale>
<asrwt>0</asrwt>
<pdfrwt beam="1">  1       21 0.34963711E+00 0.11315450E+04</pdfrwt>
<pdfrwt beam="2">  1       21 0.98692008E-01 0.11315450E+04</pdfrwt>
<totfact> 0.47868402E+00</totfact>
</mgrwt>
</event>
<event>
 8    1  0.7418332E-006  0.1340841E+04  0.7818608E-02  0.8531929E-01
         21   -1    0    0  501  502  0.00000000000E+00  0.00000000000E+00  0.16350119435E+04  0.16350119435E+04  0.00000000000E+00 0. -1.
         21   -1    0    0  502  503 -0.00000000000E+00 -0.00000000000E+00 -0.13941707304E+04  0.13941707304E+04  0.00000000000E+00 0. -1.
    9000010    2    1    2  501    0 -0.68184502117E+02 -0.75496100703E+03  0.93288010093E+03  0.15202845603E+04  0.93079783682E+03 0.  0.
   -9000010    2    1    2    0  503  0.68184502117E+02  0.75496100703E+03 -0.69203888776E+03  0.15088981136E+04  0.11060020102E+04 0.  0.
        -13    1    3    3    0    0 -0.44900648701E+02  0.11542357033E+02  0.72400802940E+03  0.72549082149E+03  0.10566000000E+00 0.  1.
          4    1    3    3  501    0 -0.23283853416E+02 -0.76650336406E+03  0.20887207153E+03  0.79479373878E+03  0.00000000000E+00 0.  1.
         13    1    4    4    0    0 -0.43940510096E+03  0.38280869347E+03 -0.12841461824E+02  0.58291015847E+03  0.10566000000E+00 0. -1.
         -4    1    4    4    0  503  0.50758960308E+03  0.37215231356E+03 -0.67919742594E+03  0.92598795513E+03  0.00000000000E+00 0. -1.
<mgrwt>
<rscale>  2 0.13042656E+04</rscale>
<asrwt>0</asrwt>
<pdfrwt beam="1">  1       21 0.25154030E+00 0.13408414E+04</pdfrwt>
<pdfrwt beam="2">  1       21 0.21448780E+00 0.13408414E+04</pdfrwt>
<totfact> 0.20634666E+00</totfact>
</mgrwt>
</event>
<event>
 8    1  0.7418332E-006  0.1096329E+04  0.7818608E-02  0.8692233E-01
         21   -1    0    0  501  502  0.00000000000E+00  0.00000000000E+00  0.27913476199E+04  0.27913476199E+04  0.00000000000E+00 0. -1.
         21   -1    0    0  502  503 -0.00000000000E+00 -0.00000000000E+00 -0.44472765947E+03  0.44472765947E+03  0.00000000000E+00 0. -1.
    9000010    2    1    2  501    0  0.11929007010E+03 -0.44444311662E+03  0.15251481558E+04  0.18783009897E+04  0.99507683422E+03 0.  0.
   -9000010    2    1    2    0  503 -0.11929007010E+03  0.44444311662E+03  0.82147180460E+03  0.13577742897E+04  0.97825113911E+03 0.  0.
        -13    1    3    3    0    0  0.12198252011E+03 -0.14480771523E+03  0.15646470615E+04  0.15760613719E+04  0.10566000000E+00 0.  1.
          4    1    3    3  501    0 -0.26924500135E+01 -0.29963540139E+03 -0.39498905679E+02  0.30223961786E+03  0.00000000000E+00 0.  1.
         13    1    4    4    0    0  0.27461801642E+03  0.24590304166E+03 -0.58684696514E+02  0.37326567697E+03  0.10566000000E+00 0. -1.
         -4    1    4    4    0  503 -0.39390808652E+03  0.19854007496E+03  0.88015650112E+03  0.98450861268E+03  0.00000000000E+00 0. -1.
<mgrwt>
<rscale>  2 0.10924970E+04</rscale>
<asrwt>0</asrwt>
<pdfrwt beam="1">  1       21 0.42943809E+00 0.10963292E+04</pdfrwt>
<pdfrwt beam="2">  1       21 0.68419642E-01 0.10963292E+04</pdfrwt>
<totfact> 0.33250606E+00</totfact>
</mgrwt>
</event>
<event>
 8    1  0.7418332E-006  0.1056829E+04  0.7818608E-02  0.8738892E-01
         21   -1    0    0  501  502  0.00000000000E+00  0.00000000000E+00  0.11226538158E+04  0.11226538158E+04  0.00000000000E+00 0. -1.
         21   -1    0    0  502  503 -0.00000000000E+00 -0.00000000000E+00 -0.11325675863E+04  0.11325675863E+04  0.00000000000E+00 0. -1.
    9000010    2    1    2  501    0 -0.41630615055E+02  0.23900537192E+03  0.47174353813E+03  0.10938076816E+04  0.95656500181E+03 0.  0.
   -9000010    2    1    2    0  503  0.41630615055E+02 -0.23900537192E+03 -0.48165730856E+03  0.11614137205E+04  0.10286065289E+04 0.  0.
        -13    1    3    3    0    0 -0.43879674657E+03  0.27079983167E+02  0.47009494903E+03  0.64363435470E+03  0.10566000000E+00 0.  1.
          4    1    3    3  501    0  0.39716613152E+03  0.21192538875E+03  0.16485891009E+01  0.45017332692E+03  0.00000000000E+00 0.  1.
         13    1    4    4    0    0 -0.41230498363E+03  0.22362493475E+02 -0.48582858445E+03  0.63759305617E+03  0.10566000000E+00 0. -1.
         -4    1    4    4    0  503  0.45393559869E+03 -0.26136786540E+03  0.41712758880E+01  0.52382066431E+03  0.00000000000E+00 0. -1.
<mgrwt>
<rscale>  2 0.10388825E+04</rscale>
<asrwt>0</asrwt>
<pdfrwt beam="1">  1       21 0.17271597E+00 0.10568293E+04</pdfrwt>
<pdfrwt beam="2">  1       21 0.17424117E+00 0.10568293E+04</pdfrwt>
<totfact> 0.18494371E+01</totfact>
</mgrwt>
</event>
<event>
 8    1  0.7418332E-006  0.1002606E+04  0.7818608E-02  0.8772179E-01
         21   -1    0    0  501  502  0.00000000000E+00  0.00000000000E+00  0.13677544979E+04  0.13677544979E+04  0.00000000000E+00 0. -1.
         21   -1    0    0  502  503 -0.00000000000E+00 -0.00000000000E+00 -0.77841005850E+03  0.77841005850E+03  0.00000000000E+00 0. -1.
    9000010    2    1    2  501    0  0.82105662619E+02  0.19755668258E+02  0.54856508961E+03  0.11428656838E+04  0.99904288564E+03 0.  0.
   -9000010    2    1    2    0  503 -0.82105662619E+02 -0.19755668258E+02  0.40779349840E+02  0.10032988727E+04  0.99890642518E+03 0.  0.
        -13    1    3    3    0    0 -0.14128252827E+03  0.44753384042E+03  0.91419780901E+02  0.47812642535E+03  0.10566000000E+00 0.  1.
          4    1    3    3  501    0  0.22338819089E+03 -0.42777817217E+03  0.45714530871E+03  0.66473925842E+03  0.00000000000E+00 0.  1.
         13    1    4    4    0    0 -0.13697443302E+03 -0.34244124648E+03 -0.33968557458E+03  0.50141230872E+03  0.10566000000E+00 0. -1.
         -4    1    4    4    0  503  0.54868770399E+02  0.32268557822E+03  0.38046492442E+03  0.50188656395E+03  0.00000000000E+00 0. -1.
<mgrwt>
<rscale>  2 0.10025718E+04</rscale>
<asrwt>0</asrwt>
<pdfrwt beam="1">  1       21 0.21042377E+00 0.10026058E+04</pdfrwt>
<pdfrwt beam="2">  1       21 0.11975539E+00 0.10026058E+04</pdfrwt>
<totfact> 0.29304099E+01</totfact>
</mgrwt>
</event>
<event>
 8    1  0.7418332E-006  0.1061314E+04  0.7818608E-02  0.8769821E-01
         21   -1    0    0  503  502  0.00000000000E+00  0.00000000000E+00  0.97108209208E+03  0.97108209208E+03  0.00000000000E+00 0.  1.
         21   -1    0    0  501  503 -0.00000000000E+00 -0.00000000000E+00 -0.94856983716E+03  0.94856983716E+03  0.00000000000E+00 0.  1.
    9000010    2    1    2  501    0  0.26224262632E+02 -0.19981817031E+03  0.75548028689E+02  0.85701312672E+03  0.82954745590E+03 0.  0.
   -9000010    2    1    2    0  502 -0.26224262632E+02  0.19981817031E+03 -0.53035773772E+02  0.10626388025E+04  0.10420045193E+04 0.  0.
        -13    1    3    3    0    0  0.16039075669E+03 -0.36990200247E+03 -0.24377187984E+03  0.47114480452E+03  0.10566000000E+00 0.  1.
          4    1    3    3  501    0 -0.13416649406E+03  0.17008383216E+03  0.31931990853E+03  0.38586832219E+03  0.00000000000E+00 0.  1.
         13    1    4    4    0    0  0.18368134609E+03 -0.97077121627E+02  0.41847858230E+03  0.46721209257E+03  0.10566000000E+00 0. -1.
         -4    1    4    4    0  502 -0.20990560872E+03  0.29689529194E+03 -0.47151435607E+03  0.59542670995E+03  0.00000000000E+00 0. -1.
<mgrwt>
<rscale>  2 0.10050934E+04</rscale>
<asrwt>0</asrwt>
<pdfrwt beam="1">  1       21 0.14939724E+00 0.10613145E+04</pdfrwt>
<pdfrwt beam="2">  1       21 0.14593382E+00 0.10613145E+04</pdfrwt>
<totfact> 0.51542768E+01</totfact>
</mgrwt>
</event>
<event>
 8    1  0.7418332E-006  0.1099087E+04  0.7818608E-02  0.8687136E-01
         21   -1    0    0  501  502  0.00000000000E+00  0.00000000000E+00  0.60627325686E+03  0.60627325686E+03  0.00000000000E+00 0.  1.
         21   -1    0    0  502  503 -0.00000000000E+00 -0.00000000000E+00 -0.25897439694E+04  0.25897439694E+04  0.00000000000E+00 0.  1.
    9000010    2    1    2  501    0 -0.44008007957E+03 -0.12228392793E+03 -0.22259124036E+03  0.11214007257E+04  0.99968439607E+03 0.  0.
   -9000010    2    1    2    0  503  0.44008007957E+03  0.12228392793E+03 -0.17608794722E+04  0.20746165007E+04  0.99735313384E+03 0.  0.
        -13    1    3    3    0    0  0.23110329682E+03 -0.31453712486E+03 -0.15500135605E+03  0.41996162713E+03  0.10566000000E+00 0.  1.
          4    1    3    3  501    0 -0.67118337639E+03  0.19225319693E+03 -0.67589884308E+02  0.70143909852E+03  0.00000000000E+00 0.  1.
         13    1    4    4    0    0  0.45172492425E+03  0.14232272891E+02 -0.17441862106E+03  0.48443764440E+03  0.10566000000E+00 0. -1.
         -4    1    4    4    0  503 -0.11644844675E+02  0.10805165504E+03 -0.15864608512E+04  0.15901788563E+04  0.00000000000E+00 0. -1.
<mgrwt>
<rscale>  2 0.10985568E+04</rscale>
<asrwt>0</asrwt>
<pdfrwt beam="1">  1       21 0.93272808E-01 0.10990872E+04</pdfrwt>
<pdfrwt beam="2">  1       21 0.39842215E+00 0.10990872E+04</pdfrwt>
<totfact> 0.25374973E+00</totfact>
</mgrwt>
</event>
<event>
 8    1  0.7418332E-006  0.1035192E+04  0.7818608E-02  0.8748419E-01
         21   -1    0    0  501  502  0.00000000000E+00  0.00000000000E+00  0.28550777512E+04  0.28550777512E+04  0.00000000000E+00 0.  1.
         21   -1    0    0  502  503 -0.00000000000E+00 -0.00000000000E+00 -0.40802547836E+03  0.40802547836E+03  0.00000000000E+00 0.  1.
    9000010    2    1    2  501    0  0.73407175844E+01 -0.13275919301E+03  0.17644727156E+04  0.20457240352E+04  0.10266177354E+04 0.  0.
   -9000010    2    1    2    0  503 -0.73407175844E+01  0.13275919301E+03  0.68257955720E+03  0.12173791943E+04  0.99920886775E+03 0.  0.
        -13    1    3    3    0    0  0.74978683352E+02 -0.41391436484E+03  0.22056728200E+03  0.47497035847E+03  0.10566000000E+00 0.  1.
          4    1    3    3  501    0 -0.67637965767E+02  0.28115517183E+03  0.15439054336E+04  0.15707536768E+04  0.00000000000E+00 0.  1.
         13    1    4    4    0    0  0.18225762082E+03  0.43264689413E+03  0.24932021843E+02  0.47013061187E+03  0.10566000000E+00 0. -1.
         -4    1    4    4    0  503 -0.18959833840E+03 -0.29988770112E+03  0.65764753536E+03  0.74724858245E+03  0.00000000000E+00 0. -1.
<mgrwt>
<rscale>  2 0.10283303E+04</rscale>
<asrwt>0</asrwt>
<pdfrwt beam="1">  1       21 0.43924272E+00 0.10351922E+04</pdfrwt>
<pdfrwt beam="2">  1       21 0.62773152E-01 0.10351922E+04</pdfrwt>
<totfact> 0.35243627E+00</totfact>
</mgrwt>
</event>
<event>
 8    1  0.7418332E-006  0.1097435E+04  0.7818608E-02  0.8692869E-01
         21   -1    0    0  501  502  0.00000000000E+00  0.00000000000E+00  0.11003838485E+04  0.11003838485E+04  0.00000000000E+00 0.  1.
         21   -1    0    0  502  503 -0.00000000000E+00 -0.00000000000E+00 -0.13972084471E+04  0.13972084471E+04  0.00000000000E+00 0.  1.
    9000010    2    1    2  501    0 -0.16571945143E+03  0.38410966986E+03  0.45515104527E+03  0.11672422937E+04  0.99009541110E+03 0.  0.
   -9000010    2    1    2    0  503  0.16571945143E+03 -0.38410966986E+03 -0.75197564394E+03  0.13303500019E+04  0.10145740897E+04 0.  0.
        -13    1    3    3    0    0  0.29710818984E+00 -0.28432910331E+03  0.37972536322E+03  0.47437800318E+03  0.10566000000E+00 0.  1.
          4    1    3    3  501    0 -0.16601655962E+03  0.66843877317E+03  0.75425682053E+02  0.69286429050E+03  0.00000000000E+00 0.  1.
         13    1    4    4    0    0  0.40196317977E+03 -0.22527815132E+03  0.64860841792E+02  0.46532954271E+03  0.10566000000E+00 0. -1.
         -4    1    4    4    0  503 -0.23624372835E+03 -0.15883151854E+03 -0.81683648574E+03  0.86502045924E+03  0.00000000000E+00 0. -1.
<mgrwt>
<rscale>  2 0.10917435E+04</rscale>
<asrwt>0</asrwt>
<pdfrwt beam="1">  1       21 0.16928982E+00 0.10974351E+04</pdfrwt>
<pdfrwt beam="2">  1       21 0.21495515E+00 0.10974351E+04</pdfrwt>
<totfact> 0.93229035E+00</totfact>
</mgrwt>
</event>
<event>
 8    1  0.7418332E-006  0.1007106E+04  0.7818608E-02  0.8771054E-01
         21   -1    0    0  503  502  0.00000000000E+00  0.00000000000E+00  0.10155376406E+04  0.10155376406E+04  0.00000000000E+00 0. -1.
         21   -1    0    0  501  503 -0.00000000000E+00 -0.00000000000E+00 -0.10018672727E+04  0.10018672727E+04  0.00000000000E+00 0. -1.
    9000010    2    1    2  501    0 -0.82224993542E+02 -0.47162963019E+02  0.13527157791E+03  0.10161500696E+04  0.10026351627E+04 0.  0.
   -9000010    2    1    2    0  502  0.82224993542E+02  0.47162963019E+02 -0.12160121005E+03  0.10012548437E+04  0.98931244466E+03 0.  0.
        -13    1    3    3    0    0 -0.19760632750E+03 -0.45255305886E+03 -0.13933663931E+03  0.51309574347E+03  0.10566000000E+00 0.  1.
          4    1    3    3  501    0  0.11538133396E+03  0.40539009584E+03  0.27460821722E+03  0.50305432609E+03  0.00000000000E+00 0.  1.
         13    1    4    4    0    0  0.33251314215E+03  0.32241397265E+03  0.20472292564E+03  0.50638646004E+03  0.10566000000E+00 0. -1.
         -4    1    4    4    0  502 -0.25028814861E+03 -0.27525100963E+03 -0.32632413569E+03  0.49486838369E+03  0.00000000000E+00 0. -1.
<mgrwt>
<rscale>  2 0.10037738E+04</rscale>
<asrwt>0</asrwt>
<pdfrwt beam="1">  1       21 0.15623656E+00 0.10071060E+04</pdfrwt>
<pdfrwt beam="2">  1       21 0.15413343E+00 0.10071060E+04</pdfrwt>
<totfact> 0.38348158E+01</totfact>
</mgrwt>
</event>
<event>
 8    1  0.7418332E-006  0.1181566E+04  0.7818608E-02  0.8631362E-01
         21   -1    0    0  501  502  0.00000000000E+00  0.00000000000E+00  0.13829077785E+04  0.13829077785E+04  0.00000000000E+00 0. -1.
         21   -1    0    0  502  503 -0.00000000000E+00 -0.00000000000E+00 -0.11609267685E+04  0.11609267685E+04  0.00000000000E+00 0. -1.
    9000010    2    1    2  501    0 -0.41724553100E+03  0.37482278066E+03  0.63357477494E+03  0.12926318767E+04  0.97718689265E+03 0.  0.
   -9000010    2    1    2    0  503  0.41724553100E+03 -0.37482278066E+03 -0.41159376489E+03  0.12512026703E+04  0.10399580495E+04 0.  0.
        -13    1    3    3    0    0 -0.14776378537E+03  0.11146868862E+03 -0.26213471350E+03  0.32089565905E+03  0.10566000000E+00 0.  1.
          4    1    3    3  501    0 -0.26948174563E+03  0.26335409204E+03  0.89570948843E+03  0.97173621765E+03  0.00000000000E+00 0.  1.
         13    1    4    4    0    0 -0.32860001065E+03 -0.27538450424E+03 -0.13407370747E+03  0.44921082175E+03  0.10566000000E+00 0. -1.
         -4    1    4    4    0  503  0.74584554165E+03 -0.99438276421E+02 -0.27752005742E+03  0.80199184852E+03  0.00000000000E+00 0. -1.
<mgrwt>
<rscale>  2 0.11676073E+04</rscale>
<asrwt>0</asrwt>
<pdfrwt beam="1">  1       21 0.21275504E+00 0.11815662E+04</pdfrwt>
<pdfrwt beam="2">  1       21 0.17860412E+00 0.11815662E+04</pdfrwt>
<totfact> 0.79595545E+00</totfact>
</mgrwt>
</event>
<event>
 8    1  0.7418332E-006  0.1004886E+04  0.7818608E-02  0.8770853E-01
         21   -1    0    0  503  502  0.00000000000E+00  0.00000000000E+00  0.12699315048E+04  0.12699315048E+04  0.00000000000E+00 0. -1.
         21   -1    0    0  501  503 -0.00000000000E+00 -0.00000000000E+00 -0.80052364710E+03  0.80052364710E+03  0.00000000000E+00 0. -1.
    9000010    2    1    2  501    0  0.25120239070E+02  0.16135106841E+03  0.13033825311E+03  0.10133032163E+04  0.99152919987E+03 0.  0.
   -9000010    2    1    2    0  502 -0.25120239070E+02 -0.16135106841E+03  0.33906960462E+03  0.10571519356E+04  0.98789514858E+03 0.  0.
        -13    1    3    3    0    0 -0.15497952716E+03  0.46638054685E+03  0.34375807710E+03  0.59974919346E+03  0.10566000000E+00 0.  1.
          4    1    3    3  501    0  0.18009976623E+03 -0.30502947844E+03 -0.21341982398E+03  0.41355402281E+03  0.00000000000E+00 0.  1.
         13    1    4    4    0    0 -0.30844575073E+03  0.23368802969E+03  0.41238480781E+03  0.56551756581E+03  0.10566000000E+00 0. -1.
         -4    1    4    4    0  502  0.28332551166E+03 -0.39503909810E+03 -0.73315203192E+02  0.49163436984E+03  0.00000000000E+00 0. -1.
<mgrwt>
<rscale>  2 0.10039881E+04</rscale>
<asrwt>0</asrwt>
<pdfrwt beam="1">  1       21 0.19537408E+00 0.10048857E+04</pdfrwt>
<pdfrwt beam="2">  1       21 0.12315748E+00 0.10048857E+04</pdfrwt>
<totfact> 0.35425203E+01</totfact>
</mgrwt>
</event>
<event>
 8    1  0.7418332E-006  0.1204739E+04  0.7818608E-02  0.8625120E-01
         21   -1    0    0  503  502  0.00000000000E+00  0.00000000000E+00  0.12354239701E+04  0.12354239701E+04  0.00000000000E+00 0. -1.
         21   -1    0    0  501  503 -0.00000000000E+00 -0.00000000000E+00 -0.11982179187E+04  0.11982179187E+04  0.00000000000E+00 0. -1.
    9000010    2    1    2  501    0  0.39137557732E+03  0.25026324108E+03 -0.38295290422E+03  0.11577385365E+04  0.98888778917E+03 0.  0.
   -9000010    2    1    2    0  502 -0.39137557732E+03 -0.25026324108E+03  0.42015895560E+03  0.12759033523E+04  0.11115706384E+04 0.  0.
        -13    1    3    3    0    0  0.57674117355E+03 -0.11181022237E+03 -0.45698738445E+03  0.74429119826E+03  0.10566000000E+00 0.  1.
          4    1    3    3  501    0 -0.18536559623E+03  0.36207346345E+03  0.74034480225E+02  0.41344733820E+03  0.00000000000E+00 0.  1.
         13    1    4    4    0    0 -0.57002805888E+03  0.28536735658E+03  0.18068726902E+03  0.66258163004E+03  0.10566000000E+00 0. -1.
         -4    1    4    4    0  502  0.17865248157E+03 -0.53563059766E+03  0.23947168659E+03  0.61332172226E+03  0.00000000000E+00 0. -1.
<mgrwt>
<rscale>  2 0.11756603E+04</rscale>
<asrwt>0</asrwt>
<pdfrwt beam="1">  1       21 0.19006522E+00 0.12047389E+04</pdfrwt>
<pdfrwt beam="2">  1       21 0.18434122E+00 0.12047389E+04</pdfrwt>
<totfact> 0.10693932E+01</totfact>
</mgrwt>
</event>
<event>
 8    1  0.7418332E-006  0.1015948E+04  0.7818608E-02  0.8761084E-01
         21   -1    0    0  501  502  0.00000000000E+00  0.00000000000E+00  0.77653700608E+03  0.77653700608E+03  0.00000000000E+00 0. -1.
         21   -1    0    0  502  503 -0.00000000000E+00 -0.00000000000E+00 -0.14634069715E+04  0.14634069715E+04  0.00000000000E+00 0. -1.
    9000010    2    1    2  501    0  0.13667028636E+03 -0.26512081245E+02  0.60495907289E+01  0.10101927309E+04  0.10005354059E+04 0.  0.
   -9000010    2    1    2    0  503 -0.13667028636E+03  0.26512081245E+02 -0.69291955619E+03  0.12297512467E+04  0.10063642282E+04 0.  0.
        -13    1    3    3    0    0  0.61301259474E+02  0.46951913768E+03  0.13459656407E+03  0.49226244147E+03  0.10566000000E+00 0.  1.
          4    1    3    3  501    0  0.75369026887E+02 -0.49603121892E+03 -0.12854697334E+03  0.51793028944E+03  0.00000000000E+00 0.  1.
         13    1    4    4    0    0 -0.46484446736E+03  0.22695642600E+03 -0.10594539532E+03  0.52802844251E+03  0.10566000000E+00 0. -1.
         -4    1    4    4    0  503  0.32817418100E+03 -0.20044434475E+03 -0.58697416086E+03  0.70172280420E+03  0.00000000000E+00 0. -1.
<mgrwt>
<rscale>  2 0.10145017E+04</rscale>
<asrwt>0</asrwt>
<pdfrwt beam="1">  1       21 0.11946723E+00 0.10159481E+04</pdfrwt>
<pdfrwt beam="2">  1       21 0.22513954E+00 0.10159481E+04</pdfrwt>
<totfact> 0.22764777E+01</totfact>
</mgrwt>
</event>
<event>
 8    1  0.7418332E-006  0.1011160E+04  0.7818608E-02  0.8776928E-01
         21   -1    0    0  503  502  0.00000000000E+00  0.00000000000E+00  0.67588215687E+03  0.67588215687E+03  0.00000000000E+00 0. -1.
         21   -1    0    0  501  503 -0.00000000000E+00 -0.00000000000E+00 -0.15658120878E+04  0.15658120878E+04  0.00000000000E+00 0. -1.
    9000010    2    1    2  501    0  0.10680135733E+03 -0.28453413393E+02 -0.10856659698E+03  0.96381608364E+03  0.95128261334E+03 0.  0.
   -9000010    2    1    2    0  502 -0.10680135733E+03  0.28453413393E+02 -0.78136333397E+03  0.12778781610E+04  0.10051008945E+04 0.  0.
        -13    1    3    3    0    0  0.23429763045E+03 -0.31294528983E+03  0.26872553358E+03  0.47438756057E+03  0.10566000000E+00 0.  1.
          4    1    3    3  501    0 -0.12749627312E+03  0.28449187644E+03 -0.37729213056E+03  0.48942852307E+03  0.00000000000E+00 0.  1.
         13    1    4    4    0    0  0.33287817965E+03 -0.28500920370E+03 -0.51362902547E+03  0.67516880530E+03  0.10566000000E+00 0. -1.
         -4    1    4    4    0  502 -0.43967953698E+03  0.31346261709E+03 -0.26773430850E+03  0.60270935575E+03  0.00000000000E+00 0. -1.
<mgrwt>
<rscale>  2 0.99751662E+03</rscale>
<asrwt>0</asrwt>
<pdfrwt beam="1">  1       21 0.10398187E+00 0.10111597E+04</pdfrwt>
<pdfrwt beam="2">  1       21 0.24089416E+00 0.10111597E+04</pdfrwt>
<totfact> 0.25415836E+01</totfact>
</mgrwt>
</event>
<event>
 8    1  0.7418332E-006  0.9893798E+03  0.7818608E-02  0.8792854E-01
         21   -1    0    0  503  502  0.00000000000E+00  0.00000000000E+00  0.83644034553E+03  0.83644034553E+03  0.00000000000E+00 0. -1.
         21   -1    0    0  501  503 -0.00000000000E+00 -0.00000000000E+00 -0.15590081222E+04  0.15590081222E+04  0.00000000000E+00 0. -1.
    9000010    2    1    2  501    0  0.10770613061E+03  0.32221349864E+02 -0.99371125769E+03  0.14022604920E+04  0.98297181939E+03 0.  0.
   -9000010    2    1    2    0  502 -0.10770613061E+03 -0.32221349864E+02  0.27114348099E+03  0.99318797579E+03  0.94882281908E+03 0.  0.
        -13    1    3    3    0    0 -0.30087252861E+03  0.27723132467E+03 -0.77858423753E+03  0.87953107504E+03  0.10566000000E+00 0.  1.
          4    1    3    3  501    0  0.40857865922E+03 -0.24500997481E+03 -0.21512702016E+03  0.52272941694E+03  0.00000000000E+00 0.  1.
         13    1    4    4    0    0  0.36642790341E+02  0.41834143215E+03 -0.47721360941E+02  0.42264593620E+03  0.10566000000E+00 0. -1.
         -4    1    4    4    0  502 -0.14434892095E+03 -0.45056278201E+03  0.31886484193E+03  0.57054203959E+03  0.00000000000E+00 0. -1.
<mgrwt>
<rscale>  2 0.98078858E+03</rscale>
<asrwt>0</asrwt>
<pdfrwt beam="1">  1       21 0.12868313E+00 0.98937982E+03</pdfrwt>
<pdfrwt beam="2">  1       21 0.23984740E+00 0.98937982E+03</pdfrwt>
<totfact> 0.14443714E+01</totfact>
</mgrwt>
</event>
<event>
 8    1  0.7418332E-006  0.1031280E+04  0.7818608E-02  0.8761162E-01
         21   -1    0    0  503  502  0.00000000000E+00  0.00000000000E+00  0.52859693139E+03  0.52859693139E+03  0.00000000000E+00 0.  1.
         21   -1    0    0  501  503 -0.00000000000E+00 -0.00000000000E+00 -0.19554763955E+04  0.19554763955E+04  0.00000000000E+00 0.  1.
    9000010    2    1    2  501    0 -0.80394165756E+02  0.12808711215E+03 -0.92533634495E+03  0.13373026491E+04  0.95355204045E+03 0.  0.
   -9000010    2    1    2    0  502  0.80394165756E+02 -0.12808711215E+03 -0.50154311916E+03  0.11467706778E+04  0.10201313429E+04 0.  0.
        -13    1    3    3    0    0 -0.30619142078E+02  0.54486707407E+03 -0.52213823139E+03  0.75527875920E+03  0.10566000000E+00 0.  1.
          4    1    3    3  501    0 -0.49775023679E+02 -0.41677996192E+03 -0.40319811357E+03  0.58202388991E+03  0.00000000000E+00 0.  1.
         13    1    4    4    0    0  0.12869290226E+02 -0.50965693928E+03  0.39588121159E+01  0.50983477495E+03  0.10566000000E+00 0. -1.
         -4    1    4    4    0  502  0.67524875530E+02  0.38156982713E+03 -0.50550193127E+03  0.63693590283E+03  0.00000000000E+00 0. -1.
<mgrwt>
<rscale>  2 0.10144179E+04</rscale>
<asrwt>0</asrwt>
<pdfrwt beam="1">  1       21 0.81322605E-01 0.10312795E+04</pdfrwt>
<pdfrwt beam="2">  1       21 0.30084252E+00 0.10312795E+04</pdfrwt>
<totfact> 0.17640883E+01</totfact>
</mgrwt>
</event>
<event>
 8    1  0.7418332E-006  0.1074684E+04  0.7818608E-02  0.8715629E-01
         21   -1    0    0  501  502  0.00000000000E+00  0.00000000000E+00  0.13107086526E+04  0.13107086526E+04  0.00000000000E+00 0. -1.
         21   -1    0    0  502  503 -0.00000000000E+00 -0.00000000000E+00 -0.97136346740E+03  0.97136346740E+03  0.00000000000E+00 0. -1.
    9000010    2    1    2  501    0  0.22352648304E+03 -0.16342585665E+03  0.56907183908E+03  0.11831091871E+04  0.99961617201E+03 0.  0.
   -9000010    2    1    2    0  503 -0.22352648304E+03  0.16342585665E+03 -0.22972665388E+03  0.10989629329E+04  0.10383992937E+04 0.  0.
        -13    1    3    3    0    0  0.60874199599E+03 -0.92478957328E+02  0.48176288123E+03  0.78180218734E+03  0.10566000000E+00 0.  1.
          4    1    3    3  501    0 -0.38521551295E+03 -0.70946899322E+02  0.87308957847E+02  0.40130699976E+03  0.00000000000E+00 0.  1.
         13    1    4    4    0    0 -0.54587607520E+02 -0.90574396945E+02  0.39222367394E+03  0.40623016855E+03  0.10566000000E+00 0. -1.
         -4    1    4    4    0  503 -0.16893887552E+03  0.25400025359E+03 -0.62195032783E+03  0.69273276433E+03  0.00000000000E+00 0. -1.
<mgrwt>
<rscale>  2 0.10652026E+04</rscale>
<asrwt>0</asrwt>
<pdfrwt beam="1">  1       21 0.20164749E+00 0.10746838E+04</pdfrwt>
<pdfrwt beam="2">  1       21 0.14944053E+00 0.10746838E+04</pdfrwt>
<totfact> 0.17618524E+01</totfact>
</mgrwt>
</event>
<event>
 8    1  0.7418332E-006  0.1074394E+04  0.7818608E-02  0.8715038E-01
         21   -1    0    0  503  502  0.00000000000E+00  0.00000000000E+00  0.12763287732E+04  0.12763287732E+04  0.00000000000E+00 0.  1.
         21   -1    0    0  501  503 -0.00000000000E+00 -0.00000000000E+00 -0.89273654682E+03  0.89273654682E+03  0.00000000000E+00 0.  1.
    9000010    2    1    2  501    0 -0.27019542430E+03 -0.10971608884E+02  0.33592034607E+03  0.10936141728E+04  0.10049992719E+04 0.  0.
   -9000010    2    1    2    0  502  0.27019542430E+03  0.10971608884E+02  0.47671880310E+02  0.10754511472E+04  0.10398060484E+04 0.  0.
        -13    1    3    3    0    0 -0.13101437918E+03  0.41624921396E+03 -0.12093559269E+03  0.45282844921E+03  0.10566000000E+00 0.  1.
          4    1    3    3  501    0 -0.13918104512E+03 -0.42722082284E+03  0.45685593876E+03  0.64078572360E+03  0.00000000000E+00 0.  1.
         13    1    4    4    0    0  0.28715471827E+02 -0.30895004215E+03  0.42416163072E+03  0.52553573333E+03  0.10566000000E+00 0. -1.
         -4    1    4    4    0  502  0.24147995247E+03  0.31992165104E+03 -0.37648975041E+03  0.54991541387E+03  0.00000000000E+00 0. -1.
<mgrwt>
<rscale>  2 0.10658811E+04</rscale>
<asrwt>0</asrwt>
<pdfrwt beam="1">  1       21 0.19635827E+00 0.10743940E+04</pdfrwt>
<pdfrwt beam="2">  1       21 0.13734409E+00 0.10743940E+04</pdfrwt>
<totfact> 0.25002818E+01</totfact>
</mgrwt>
</event>
<event>
 8    1  0.7418332E-006  0.1009006E+04  0.7818608E-02  0.8803338E-01
         21   -1    0    0  501  502  0.00000000000E+00  0.00000000000E+00  0.11767483080E+04  0.11767483080E+04  0.00000000000E+00 0. -1.
         21   -1    0    0  502  503 -0.00000000000E+00 -0.00000000000E+00 -0.91515087946E+03  0.91515087946E+03  0.00000000000E+00 0. -1.
    9000010    2    1    2  501    0  0.19379992012E+03 -0.49569959636E+02  0.59108337206E+03  0.11693901387E+04  0.98897833845E+03 0.  0.
   -9000010    2    1    2    0  503 -0.19379992012E+03  0.49569959636E+02 -0.32948594350E+03  0.92250904873E+03  0.83812073598E+03 0.  0.
        -13    1    3    3    0    0 -0.32544939008E+03  0.68476803049E+02  0.54032966674E+03  0.63447816194E+03  0.10566000000E+00 0.  1.
          4    1    3    3  501    0  0.51924931019E+03 -0.11804676269E+03  0.50753705315E+02  0.53491197680E+03  0.00000000000E+00 0.  1.
         13    1    4    4    0    0  0.11091829643E+03 -0.34219404935E+03 -0.86857709464E+02  0.37005933139E+03  0.10566000000E+00 0. -1.
         -4    1    4    4    0  503 -0.30471821655E+03  0.39176400899E+03 -0.24262823404E+03  0.55244971734E+03  0.00000000000E+00 0. -1.
<mgrwt>
<rscale>  2 0.96996193E+03</rscale>
<asrwt>0</asrwt>
<pdfrwt beam="1">  1       21 0.18103820E+00 0.10090063E+04</pdfrwt>
<pdfrwt beam="2">  1       21 0.14079244E+00 0.10090063E+04</pdfrwt>
<totfact> 0.31247558E+01</totfact>
</mgrwt>
</event>
<event>
 8    1  0.7418332E-006  0.1237847E+04  0.7818608E-02  0.8585859E-01
         21   -1    0    0  501  502  0.00000000000E+00  0.00000000000E+00  0.10362164209E+04  0.10362164209E+04  0.00000000000E+00 0.  1.
         21   -1    0    0  502  503 -0.00000000000E+00 -0.00000000000E+00 -0.17581953081E+04  0.17581953081E+04  0.00000000000E+00 0.  1.
    9000010    2    1    2  501    0  0.10833974708E+03  0.64397447801E+03  0.24548993973E+03  0.12233418044E+04  0.10049175243E+04 0.  0.
   -9000010    2    1    2    0  503 -0.10833974708E+03 -0.64397447801E+03 -0.96746882692E+03  0.15710699246E+04  0.10515817362E+04 0.  0.
        -13    1    3    3    0    0  0.10597572874E+03  0.21500303009E+03 -0.38931038060E+03  0.45718676888E+03  0.10566000000E+00 0.  1.
          4    1    3    3  501    0  0.23640183427E+01  0.42897144791E+03  0.63480032033E+03  0.76615503548E+03  0.00000000000E+00 0.  1.
         13    1    4    4    0    0 -0.61727153555E+02  0.49064914831E+02  0.19866421621E+03  0.21374070581E+03  0.10566000000E+00 0. -1.
         -4    1    4    4    0  503 -0.46612593530E+02 -0.69303939284E+03 -0.11661330431E+04  0.13573292188E+04  0.00000000000E+00 0. -1.
<mgrwt>
<rscale>  2 0.12278797E+04</rscale>
<asrwt>0</asrwt>
<pdfrwt beam="1">  1       21 0.15941791E+00 0.12378468E+04</pdfrwt>
<pdfrwt beam="2">  1       21 0.27049158E+00 0.12378468E+04</pdfrwt>
<totfact> 0.42870982E+00</totfact>
</mgrwt>
</event>
<event>
 8    1  0.7418332E-006  0.1030688E+04  0.7818608E-02  0.8754772E-01
         21   -1    0    0  503  502  0.00000000000E+00  0.00000000000E+00  0.14974792044E+04  0.14974792044E+04  0.00000000000E+00 0. -1.
         21   -1    0    0  501  503 -0.00000000000E+00 -0.00000000000E+00 -0.71051910462E+03  0.71051910462E+03  0.00000000000E+00 0. -1.
    9000010    2    1    2  501    0  0.65979004148E+02 -0.17449018681E+03  0.17459640696E+03  0.10091205440E+04  0.97623783619E+03 0.  0.
   -9000010    2    1    2    0  502 -0.65979004148E+02  0.17449018681E+03  0.61236369278E+03  0.11988777649E+04  0.10136658960E+04 0.  0.
        -13    1    3    3    0    0 -0.48326961247E+02 -0.26556882262E+03  0.54650043388E+03  0.60952853102E+03  0.10566000000E+00 0.  1.
          4    1    3    3  501    0  0.11430596540E+03  0.91078635809E+02 -0.37190402693E+03  0.39959201302E+03  0.00000000000E+00 0.  1.
         13    1    4    4    0    0 -0.14412576035E+03 -0.28605130438E+03  0.65569377777E+03  0.72974785022E+03  0.10566000000E+00 0. -1.
         -4    1    4    4    0  502  0.78146756202E+02  0.46054149119E+03 -0.43330084990E+02  0.46912991471E+03  0.00000000000E+00 0. -1.
<mgrwt>
<rscale>  2 0.10213660E+04</rscale>
<asrwt>0</asrwt>
<pdfrwt beam="1">  1       21 0.23038142E+00 0.10306884E+04</pdfrwt>
<pdfrwt beam="2">  1       21 0.10931063E+00 0.10306884E+04</pdfrwt>
<totfact> 0.26468194E+01</totfact>
</mgrwt>
</event>
<event>
 8    1  0.7418332E-006  0.1065322E+04  0.7818608E-02  0.8731655E-01
         21   -1    0    0  503  502  0.00000000000E+00  0.00000000000E+00  0.16544354149E+04  0.16544354149E+04  0.00000000000E+00 0. -1.
         21   -1    0    0  501  503 -0.00000000000E+00 -0.00000000000E+00 -0.93584558590E+03  0.93584558590E+03  0.00000000000E+00 0. -1.
    9000010    2    1    2  501    0 -0.10426794297E+03 -0.12183662367E+03 -0.37624092924E+03  0.10626798267E+04  0.98082374071E+03 0.  0.
   -9000010    2    1    2    0  502  0.10426794297E+03  0.12183662367E+03  0.10948307582E+04  0.15276011741E+04  0.10531832657E+04 0.  0.
        -13    1    3    3    0    0 -0.26914505869E+03  0.17607747113E+03 -0.58191898086E+03  0.66488498998E+03  0.10566000000E+00 0.  1.
          4    1    3    3  501    0  0.16487711572E+03 -0.29791409480E+03  0.20567805161E+03  0.39779483667E+03  0.00000000000E+00 0.  1.
         13    1    4    4    0    0  0.28410350404E+03  0.48308687729E+03  0.29876455119E+03  0.63509684319E+03  0.10566000000E+00 0. -1.
         -4    1    4    4    0  502 -0.17983556107E+03 -0.36125025361E+03  0.79606620701E+03  0.89250433091E+03  0.00000000000E+00 0. -1.
<mgrwt>
<rscale>  2 0.10469851E+04</rscale>
<asrwt>0</asrwt>
<pdfrwt beam="1">  1       21 0.25452852E+00 0.10653220E+04</pdfrwt>
<pdfrwt beam="2">  1       21 0.14397624E+00 0.10653220E+04</pdfrwt>
<totfact> 0.79621480E+00</totfact>
</mgrwt>
</event>
<event>
 8    1  0.7418332E-006  0.1032982E+04  0.7818608E-02  0.8750415E-01
         21   -1    0    0  501  502  0.00000000000E+00  0.00000000000E+00  0.82997841370E+03  0.82997841370E+03  0.00000000000E+00 0. -1.
         21   -1    0    0  502  503 -0.00000000000E+00 -0.00000000000E+00 -0.18983491522E+04  0.18983491522E+04  0.00000000000E+00 0. -1.
    9000010    2    1    2  501    0 -0.94000734753E+01  0.24900820747E+03  0.25701102472E+03  0.10644751310E+04  0.10024765279E+04 0.  0.
   -9000010    2    1    2    0  503  0.94000734753E+01 -0.24900820747E+03 -0.13253817632E+04  0.16638524349E+04  0.97451252330E+03 0.  0.
        -13    1    3    3    0    0 -0.15344210683E+02  0.53278667963E+03 -0.16315520028E+03  0.55741969945E+03  0.10566000000E+00 0.  1.
          4    1    3    3  501    0  0.59441372080E+01 -0.28377847216E+03  0.42016622500E+03  0.50705543154E+03  0.00000000000E+00 0.  1.
         13    1    4    4    0    0  0.29914759816E+02 -0.33413562219E+03 -0.14628725023E+04  0.15008455870E+04  0.10566000000E+00 0. -1.
         -4    1    4    4    0  503 -0.20514686340E+02  0.85127414726E+02  0.13749073914E+03  0.16300684784E+03  0.00000000000E+00 0. -1.
<mgrwt>
<rscale>  2 0.10261357E+04</rscale>
<asrwt>0</asrwt>
<pdfrwt beam="1">  1       21 0.12768899E+00 0.10329824E+04</pdfrwt>
<pdfrwt beam="2">  1       21 0.29205371E+00 0.10329824E+04</pdfrwt>
<totfact> 0.61567025E+00</totfact>
</mgrwt>
</event>
<event>
 8    1  0.7418332E-006  0.1149187E+04  0.7818608E-02  0.8677886E-01
         21   -1    0    0  503  502  0.00000000000E+00  0.00000000000E+00  0.86703531936E+03  0.86703531936E+03  0.00000000000E+00 0.  1.
         21   -1    0    0  501  503 -0.00000000000E+00 -0.00000000000E+00 -0.13438881549E+04  0.13438881549E+04  0.00000000000E+00 0.  1.
    9000010    2    1    2  501    0 -0.49791400273E+02  0.14384683813E+03 -0.14547884092E+03  0.11583591353E+04  0.11390613226E+04 0.  0.
   -9000010    2    1    2    0  502  0.49791400273E+02 -0.14384683813E+03 -0.33137399462E+03  0.10525643390E+04  0.98737625403E+03 0.  0.
        -13    1    3    3    0    0  0.37626236181E+03 -0.30526172249E+03  0.95897414698E+02  0.49391741157E+03  0.10566000000E+00 0.  1.
          4    1    3    3  501    0 -0.42605376209E+03  0.44910856063E+03 -0.24137625562E+03  0.66444172370E+03  0.00000000000E+00 0.  1.
         13    1    4    4    0    0 -0.21609671663E+03 -0.11179433934E+03  0.28844900966E+03  0.37735740033E+03  0.10566000000E+00 0. -1.
         -4    1    4    4    0  502  0.26588811690E+03 -0.32052498792E+02 -0.61982300428E+03  0.67520693867E+03  0.00000000000E+00 0. -1.
<mgrwt>
<rscale>  2 0.11096576E+04</rscale>
<asrwt>0</asrwt>
<pdfrwt beam="1">  1       21 0.13339005E+00 0.11491874E+04</pdfrwt>
<pdfrwt beam="2">  1       21 0.20675202E+00 0.11491874E+04</pdfrwt>
<totfact> 0.22264005E+01</totfact>
</mgrwt>
</event>
<event>
 8    1  0.7418332E-006  0.1041895E+04  0.7818608E-02  0.8740554E-01
         21   -1    0    0  503  502  0.00000000000E+00  0.00000000000E+00  0.15848054967E+04  0.15848054967E+04  0.00000000000E+00 0.  1.
         21   -1    0    0  501  503 -0.00000000000E+00 -0.00000000000E+00 -0.70172518303E+03  0.70172518303E+03  0.00000000000E+00 0.  1.
    9000010    2    1    2  501    0  0.16037789202E+03  0.10649972201E+03  0.67155915612E+03  0.12233809292E+04  0.10042937512E+04 0.  0.
   -9000010    2    1    2    0  502 -0.16037789202E+03 -0.10649972201E+03  0.21152115754E+03  0.10631497505E+04  0.10239545561E+04 0.  0.
        -13    1    3    3    0    0 -0.73117064205E+02  0.46084350559E+03  0.64780737361E+03  0.79835909601E+03  0.10566000000E+00 0.  1.
          4    1    3    3  501    0  0.23349495622E+03 -0.35434378357E+03  0.23751782515E+02  0.42502183322E+03  0.00000000000E+00 0.  1.
         13    1    4    4    0    0  0.22344376812E+03 -0.37933637199E+03  0.36072813488E+03  0.56916429884E+03  0.10566000000E+00 0. -1.
         -4    1    4    4    0  502 -0.38382166014E+03  0.27283664997E+03 -0.14920697734E+03  0.49398545165E+03  0.00000000000E+00 0. -1.
<mgrwt>
<rscale>  2 0.10370326E+04</rscale>
<asrwt>0</asrwt>
<pdfrwt beam="1">  1       21 0.24381623E+00 0.10418955E+04</pdfrwt>
<pdfrwt beam="2">  1       21 0.10795772E+00 0.10418955E+04</pdfrwt>
<totfact> 0.21737156E+01</totfact>
</mgrwt>
</event>
<event>
 8    1  0.7418332E-006  0.1091811E+04  0.7818608E-02  0.8692841E-01
         21   -1    0    0  501  502  0.00000000000E+00  0.00000000000E+00  0.76215861827E+03  0.76215861827E+03  0.00000000000E+00 0. -1.
         21   -1    0    0  502  503 -0.00000000000E+00 -0.00000000000E+00 -0.19600633436E+04  0.19600633436E+04  0.00000000000E+00 0. -1.
    9000010    2    1    2  501    0  0.42103107964E+03  0.14540244367E+03  0.13035695880E+02  0.10917535210E+04  0.99666783861E+03 0.  0.
   -9000010    2    1    2    0  503 -0.42103107964E+03 -0.14540244367E+03 -0.12109404212E+04  0.16304684409E+04  0.99681572643E+03 0.  0.
        -13    1    3    3    0    0  0.49235963242E+03  0.27262221243E+03  0.39188738754E+03  0.68579633568E+03  0.10566000000E+00 0.  1.
          4    1    3    3  501    0 -0.71328552778E+02 -0.12721976876E+03 -0.37885169166E+03  0.40595718528E+03  0.00000000000E+00 0.  1.
         13    1    4    4    0    0 -0.30190313861E+03 -0.36462803355E+03 -0.12856388653E+04  0.13700242374E+04  0.10566000000E+00 0. -1.
         -4    1    4    4    0  503 -0.11912794103E+03  0.21922558988E+03  0.74698444087E+02  0.26044420351E+03  0.00000000000E+00 0. -1.
<mgrwt>
<rscale>  2 0.10917770E+04</rscale>
<asrwt>0</asrwt>
<pdfrwt beam="1">  1       21 0.11725517E+00 0.10918107E+04</pdfrwt>
<pdfrwt beam="2">  1       21 0.30154820E+00 0.10918107E+04</pdfrwt>
<totfact> 0.66137136E+00</totfact>
</mgrwt>
</event>
<event>
 8    1  0.7418332E-006  0.1132445E+04  0.7818608E-02  0.8664907E-01
         21   -1    0    0  501  502  0.00000000000E+00  0.00000000000E+00  0.11480221195E+04  0.11480221195E+04  0.00000000000E+00 0.  1.
         21   -1    0    0  502  503 -0.00000000000E+00 -0.00000000000E+00 -0.12956147536E+04  0.12956147536E+04  0.00000000000E+00 0.  1.
    9000010    2    1    2  501    0  0.48094249702E+03 -0.59930684177E+02  0.41372974944E+03  0.11797090017E+04  0.99279587569E+03 0.  0.
   -9000010    2    1    2    0  503 -0.48094249702E+03  0.59930684177E+02 -0.56132238355E+03  0.12639278713E+04  0.10234908271E+04 0.  0.
        -13    1    3    3    0    0  0.59510489063E+03 -0.41893483528E+03  0.25982597016E+03  0.77276501797E+03  0.10566000000E+00 0.  1.
          4    1    3    3  501    0 -0.11416239361E+03  0.35900415110E+03  0.15390377928E+03  0.40694398374E+03  0.00000000000E+00 0.  1.
         13    1    4    4    0    0  0.28276418027E+03  0.10387188328E+03  0.21833095333E+02  0.30202921216E+03  0.10566000000E+00 0. -1.
         -4    1    4    4    0  503 -0.76370667729E+03 -0.43941199103E+02 -0.58315547888E+03  0.96189865915E+03  0.00000000000E+00 0. -1.
<mgrwt>
<rscale>  2 0.11254644E+04</rscale>
<asrwt>0</asrwt>
<pdfrwt beam="1">  1       21 0.17661879E+00 0.11324446E+04</pdfrwt>
<pdfrwt beam="2">  1       21 0.19932535E+00 0.11324446E+04</pdfrwt>
<totfact> 0.10607002E+01</totfact>
</mgrwt>
</event>
<event>
 8    1  0.7418332E-006  0.1025485E+04  0.7818608E-02  0.8755130E-01
         21   -1    0    0  503  502  0.00000000000E+00  0.00000000000E+00  0.28730317964E+04  0.28730317964E+04  0.00000000000E+00 0. -1.
         21   -1    0    0  501  503 -0.00000000000E+00 -0.00000000000E+00 -0.36358272357E+03  0.36358272357E+03  0.00000000000E+00 0. -1.
    9000010    2    1    2  501    0  0.15288706569E+03 -0.50725033184E+02  0.14118123120E+04  0.17344742786E+04  0.99460521563E+03 0.  0.
   -9000010    2    1    2    0  502 -0.15288706569E+03  0.50725033184E+02  0.10976367608E+04  0.15021402413E+04  0.10127543444E+04 0.  0.
        -13    1    3    3    0    0 -0.23897468068E+03 -0.54892896210E+02  0.13056372252E+04  0.13284617808E+04  0.10566000000E+00 0.  1.
          4    1    3    3  501    0  0.39186174637E+03  0.41678630258E+01  0.10617508687E+03  0.40601249786E+03  0.00000000000E+00 0.  1.
         13    1    4    4    0    0  0.41536017777E+03  0.41538442566E+01  0.67443552502E+03  0.79208877045E+03  0.10566000000E+00 0. -1.
         -4    1    4    4    0  502 -0.56824724346E+03  0.46571188928E+02  0.42320123578E+03  0.71005147088E+03  0.00000000000E+00 0. -1.
<mgrwt>
<rscale>  2 0.10209751E+04</rscale>
<asrwt>0</asrwt>
<pdfrwt beam="1">  1       21 0.44200488E+00 0.10254847E+04</pdfrwt>
<pdfrwt beam="2">  1       21 0.55935805E-01 0.10254847E+04</pdfrwt>
<totfact> 0.43990249E+00</totfact>
</mgrwt>
</event>
<event>
 8    1  0.7418332E-006  0.1017826E+04  0.7818608E-02  0.8758693E-01
         21   -1    0    0  501  502  0.00000000000E+00  0.00000000000E+00  0.19610203790E+04  0.19610203790E+04  0.00000000000E+00 0. -1.
         21   -1    0    0  502  503 -0.00000000000E+00 -0.00000000000E+00 -0.13616024843E+04  0.13616024843E+04  0.00000000000E+00 0. -1.
    9000010    2    1    2  501    0 -0.99981775693E+02  0.60508076773E+02  0.16007212234E+04  0.18969126458E+04  0.10110942428E+04 0.  0.
   -9000010    2    1    2    0  503  0.99981775693E+02 -0.60508076773E+02 -0.10013033287E+04  0.14257102175E+04  0.10081585616E+04 0.  0.
        -13    1    3    3    0    0 -0.51589704360E+03  0.19201995454E+03  0.11188019014E+04  0.12468917869E+04  0.10566000000E+00 0.  1.
          4    1    3    3  501    0  0.41591526791E+03 -0.13151187777E+03  0.48191932203E+03  0.65002085891E+03  0.00000000000E+00 0.  1.
         13    1    4    4    0    0  0.33604806692E+03 -0.43775900544E+03 -0.41944799681E+03  0.69317954623E+03  0.10566000000E+00 0. -1.
         -4    1    4    4    0  503 -0.23606629123E+03  0.37725092867E+03 -0.58185533189E+03  0.73253067122E+03  0.00000000000E+00 0. -1.
<mgrwt>
<rscale>  2 0.10170959E+04</rscale>
<asrwt>0</asrwt>
<pdfrwt beam="1">  1       21 0.30169544E+00 0.10178257E+04</pdfrwt>
<pdfrwt beam="2">  1       21 0.20947731E+00 0.10178257E+04</pdfrwt>
<totfact> 0.10643075E+00</totfact>
</mgrwt>
</event>
<event>
 8    1  0.7418332E-006  0.1172582E+04  0.7818608E-02  0.8630377E-01
         21   -1    0    0  501  502  0.00000000000E+00  0.00000000000E+00  0.11289460730E+04  0.11289460730E+04  0.00000000000E+00 0.  1.
         21   -1    0    0  502  503 -0.00000000000E+00 -0.00000000000E+00 -0.16593491118E+04  0.16593491118E+04  0.00000000000E+00 0.  1.
    9000010    2    1    2  501    0  0.46635613267E+03 -0.39085600189E+03  0.46743133873E+03  0.12486126261E+04  0.98503044463E+03 0.  0.
   -9000010    2    1    2    0  503 -0.46635613267E+03  0.39085600189E+03 -0.99783437757E+03  0.15396825587E+04  0.10023434940E+04 0.  0.
        -13    1    3    3    0    0  0.44637907548E+03 -0.59107050119E+03  0.64355122725E+03  0.98121190864E+03  0.10566000000E+00 0.  1.
          4    1    3    3  501    0  0.19977057191E+02  0.20021449930E+03 -0.17611988852E+03  0.26740071742E+03  0.00000000000E+00 0.  1.
         13    1    4    4    0    0 -0.53665371183E+03  0.67534148758E+03 -0.85171802320E+03  0.12122322110E+04  0.10566000000E+00 0. -1.
         -4    1    4    4    0  503  0.70297579161E+02 -0.28448548569E+03 -0.14611635437E+03  0.32745034771E+03  0.00000000000E+00 0. -1.
<mgrwt>
<rscale>  2 0.11688734E+04</rscale>
<asrwt>0</asrwt>
<pdfrwt beam="1">  1       21 0.17368401E+00 0.11725822E+04</pdfrwt>
<pdfrwt beam="2">  1       21 0.25528448E+00 0.11725822E+04</pdfrwt>
<totfact> 0.42342653E+00</totfact>
</mgrwt>
</event>
<event>
 8    1  0.7418332E-006  0.1014540E+04  0.7818608E-02  0.8784705E-01
         21   -1    0    0  503  502  0.00000000000E+00  0.00000000000E+00  0.67627034914E+03  0.67627034914E+03  0.00000000000E+00 0.  1.
         21   -1    0    0  501  503 -0.00000000000E+00 -0.00000000000E+00 -0.20231307004E+04  0.20231307004E+04  0.00000000000E+00 0.  1.
    9000010    2    1    2  501    0  0.14758611095E+03  0.32944753537E+02 -0.14570852055E+04  0.17754969885E+04  0.10032074775E+04 0.  0.
   -9000010    2    1    2    0  502 -0.14758611095E+03 -0.32944753537E+02  0.11022485426E+03  0.92390406107E+03  0.90475531423E+03 0.  0.
        -13    1    3    3    0    0  0.44353215291E+03 -0.32498930380E+03 -0.80953784381E+03  0.97861654900E+03  0.10566000000E+00 0.  1.
          4    1    3    3  501    0 -0.29594604196E+03  0.35793405734E+03 -0.64754736173E+03  0.79688043949E+03  0.00000000000E+00 0.  1.
         13    1    4    4    0    0  0.17851116566E+03  0.19141574744E+03 -0.26929304222E+03  0.37553292584E+03  0.10566000000E+00 0. -1.
         -4    1    4    4    0  502 -0.32609727661E+03 -0.22436050098E+03  0.37951789648E+03  0.54837113523E+03  0.00000000000E+00 0. -1.
<mgrwt>
<rscale>  2 0.98930568E+03</rscale>
<asrwt>0</asrwt>
<pdfrwt beam="1">  1       21 0.10404159E+00 0.10145404E+04</pdfrwt>
<pdfrwt beam="2">  1       21 0.31125087E+00 0.10145404E+04</pdfrwt>
<totfact> 0.79561525E+00</totfact>
</mgrwt>
</event>
<event>
 8    1  0.7418332E-006  0.1008822E+04  0.7818608E-02  0.8766389E-01
         21   -1    0    0  503  502  0.00000000000E+00  0.00000000000E+00  0.22455817349E+04  0.22455817349E+04  0.00000000000E+00 0. -1.
         21   -1    0    0  501  503 -0.00000000000E+00 -0.00000000000E+00 -0.52858253776E+03  0.52858253776E+03  0.00000000000E+00 0. -1.
    9000010    2    1    2  501    0  0.81275665522E+02  0.13514236124E+03  0.13826323420E+04  0.17115470298E+04  0.99641951526E+03 0.  0.
   -9000010    2    1    2    0  502 -0.81275665522E+02 -0.13514236124E+03  0.33436685511E+03  0.10626172429E+04  0.99623542369E+03 0.  0.
        -13    1    3    3    0    0  0.65037596991E+02  0.30770084756E+03 -0.36017880244E+01  0.31451976830E+03  0.10566000000E+00 0.  1.
          4    1    3    3  501    0  0.16238068532E+02 -0.17255848632E+03  0.13862341300E+04  0.13970272615E+04  0.00000000000E+00 0.  1.
         13    1    4    4    0    0  0.30236099610E+03  0.29858497344E+03  0.19212100262E+03  0.46635356667E+03  0.10566000000E+00 0. -1.
         -4    1    4    4    0  502 -0.38363666163E+03 -0.43372733469E+03  0.14224585249E+03  0.59626367619E+03  0.00000000000E+00 0. -1.
<mgrwt>
<rscale>  2 0.10087762E+04</rscale>
<asrwt>0</asrwt>
<pdfrwt beam="1">  1       21 0.34547411E+00 0.10088216E+04</pdfrwt>
<pdfrwt beam="2">  1       21 0.81320392E-01 0.10088216E+04</pdfrwt>
<totfact> 0.86101717E+00</totfact>
</mgrwt>
</event>
<event>
 8    1  0.7418332E-006  0.1037725E+04  0.7818608E-02  0.8742183E-01
         21   -1    0    0  501  502  0.00000000000E+00  0.00000000000E+00  0.99967125227E+03  0.99967125227E+03  0.00000000000E+00 0. -1.
         21   -1    0    0  502  503 -0.00000000000E+00 -0.00000000000E+00 -0.10777446834E+04  0.10777446834E+04  0.00000000000E+00 0. -1.
    9000010    2    1    2  501    0 -0.13884222751E+03 -0.21244318359E+03  0.65357914597E+02  0.10298254956E+04  0.99592149486E+03 0.  0.
   -9000010    2    1    2    0  503  0.13884222751E+03  0.21244318359E+03 -0.14343134570E+03  0.10475904401E+04  0.10062126559E+04 0.  0.
        -13    1    3    3    0    0 -0.40879100863E+03 -0.84607853206E+02 -0.33154122843E+03  0.53309302647E+03  0.10566000000E+00 0.  1.
          4    1    3    3  501    0  0.26994878112E+03 -0.12783533039E+03  0.39689914302E+03  0.49673246910E+03  0.00000000000E+00 0.  1.
         13    1    4    4    0    0  0.93883760001E+02 -0.23583816458E+03 -0.44016983234E+03  0.50811740054E+03  0.10566000000E+00 0. -1.
         -4    1    4    4    0  503  0.44958467507E+02  0.44828134818E+03  0.29673848665E+03  0.53947303953E+03  0.00000000000E+00 0. -1.
<mgrwt>
<rscale>  2 0.10352221E+04</rscale>
<asrwt>0</asrwt>
<pdfrwt beam="1">  1       21 0.15379558E+00 0.10377250E+04</pdfrwt>
<pdfrwt beam="2">  1       21 0.16580687E+00 0.10377250E+04</pdfrwt>
<totfact> 0.31724298E+01</totfact>
</mgrwt>
</event>
<event>
 8    1  0.7418332E-006  0.1016833E+04  0.7818608E-02  0.8761234E-01
         21   -1    0    0  503  502  0.00000000000E+00  0.00000000000E+00  0.65206356905E+03  0.65206356905E+03  0.00000000000E+00 0.  1.
         21   -1    0    0  501  503 -0.00000000000E+00 -0.00000000000E+00 -0.19196776612E+04  0.19196776612E+04  0.00000000000E+00 0.  1.
    9000010    2    1    2  501    0 -0.18882263358E+03  0.29217805304E+02 -0.11849949338E+04  0.15614614545E+04  0.99871978737E+03 0.  0.
   -9000010    2    1    2    0  502  0.18882263358E+03 -0.29217805304E+02 -0.82619158382E+02  0.10102797758E+04  0.98860084609E+03 0.  0.
        -13    1    3    3    0    0 -0.36174422335E+03  0.39182299975E+03 -0.35870939985E+03  0.64269478835E+03  0.10566000000E+00 0.  1.
          4    1    3    3  501    0  0.17292158977E+03 -0.36260519445E+03 -0.82628553392E+03  0.91876666614E+03  0.00000000000E+00 0.  1.
         13    1    4    4    0    0 -0.77308002347E+02 -0.37214057869E+03  0.25726756262E+03  0.45896813340E+03  0.10566000000E+00 0. -1.
         -4    1    4    4    0  502  0.26613063593E+03  0.34292277339E+03 -0.33988672100E+03  0.55131164236E+03  0.00000000000E+00 0. -1.
<mgrwt>
<rscale>  2 0.10143394E+04</rscale>
<asrwt>0</asrwt>
<pdfrwt beam="1">  1       21 0.10031747E+00 0.10168328E+04</pdfrwt>
<pdfrwt beam="2">  1       21 0.29533502E+00 0.10168328E+04</pdfrwt>
<totfact> 0.11342757E+01</totfact>
</mgrwt>
</event>
<event>
 8    1  0.7418332E-006  0.1010272E+04  0.7818608E-02  0.8783253E-01
         21   -1    0    0  501  502  0.00000000000E+00  0.00000000000E+00  0.61443349972E+03  0.61443349972E+03  0.00000000000E+00 0.  1.
         21   -1    0    0  502  503 -0.00000000000E+00 -0.00000000000E+00 -0.18214883543E+04  0.18214883543E+04  0.00000000000E+00 0.  1.
    9000010    2    1    2  501    0 -0.42817466129E+02 -0.56391315258E+01 -0.11024785593E+04  0.14953623216E+04  0.10093484849E+04 0.  0.
   -9000010    2    1    2    0  503  0.42817466129E+02  0.56391315258E+01 -0.10457629533E+03  0.94055953244E+03  0.93372956327E+03 0.  0.
        -13    1    3    3    0    0 -0.38526706107E+02 -0.34192314376E+03 -0.14231076967E+01  0.34408978439E+03  0.10566000000E+00 0.  1.
          4    1    3    3  501    0 -0.42907600219E+01  0.33628401223E+03 -0.11010554516E+04  0.11512725372E+04  0.00000000000E+00 0.  1.
         13    1    4    4    0    0 -0.39443371970E+03  0.27072045229E+02 -0.26317039720E+03  0.47494160061E+03  0.10566000000E+00 0. -1.
         -4    1    4    4    0  503  0.43725118583E+03 -0.21432913703E+02  0.15859410186E+03  0.46561793183E+03  0.00000000000E+00 0. -1.
<mgrwt>
<rscale>  2 0.99083200E+03</rscale>
<asrwt>0</asrwt>
<pdfrwt beam="1">  1       21 0.94528231E-01 0.10102720E+04</pdfrwt>
<pdfrwt beam="2">  1       21 0.28022898E+00 0.10102720E+04</pdfrwt>
<totfact> 0.16953777E+01</totfact>
</mgrwt>
</event>
<event>
 8    1  0.7418332E-006  0.1022631E+04  0.7818608E-02  0.8757560E-01
         21   -1    0    0  501  502  0.00000000000E+00  0.00000000000E+00  0.14598176069E+04  0.14598176069E+04  0.00000000000E+00 0.  1.
         21   -1    0    0  502  503 -0.00000000000E+00 -0.00000000000E+00 -0.72061793124E+03  0.72061793124E+03  0.00000000000E+00 0.  1.
    9000010    2    1    2  501    0 -0.94058528533E+02 -0.17575296659E+03  0.53599508277E+03  0.11545843750E+04  0.10030145753E+04 0.  0.
   -9000010    2    1    2    0  503  0.94058528533E+02  0.17575296659E+03  0.20320459290E+03  0.10258511631E+04  0.98556703997E+03 0.  0.
        -13    1    3    3    0    0 -0.45679827870E+03  0.20042592510E+03  0.23364010027E+03  0.55083838509E+03  0.10566000000E+00 0.  1.
          4    1    3    3  501    0  0.36273975017E+03 -0.37617889169E+03  0.30235498250E+03  0.60374598992E+03  0.00000000000E+00 0.  1.
         13    1    4    4    0    0 -0.42553685109E+03  0.54212525853E+01 -0.39910918705E+02  0.42743876077E+03  0.10566000000E+00 0. -1.
         -4    1    4    4    0  503  0.51959537962E+03  0.17033171400E+03  0.24311551161E+03  0.59841240236E+03  0.00000000000E+00 0. -1.
<mgrwt>
<rscale>  2 0.10183272E+04</rscale>
<asrwt>0</asrwt>
<pdfrwt beam="1">  1       21 0.22458732E+00 0.10226311E+04</pdfrwt>
<pdfrwt beam="2">  1       21 0.11086430E+00 0.10226311E+04</pdfrwt>
<totfact> 0.28188994E+01</totfact>
</mgrwt>
</event>
<event>
 8    1  0.7418332E-006  0.1065027E+04  0.7818608E-02  0.8716969E-01
         21   -1    0    0  503  502  0.00000000000E+00  0.00000000000E+00  0.77696696570E+03  0.77696696570E+03  0.00000000000E+00 0.  1.
         21   -1    0    0  501  503 -0.00000000000E+00 -0.00000000000E+00 -0.15315861186E+04  0.15315861186E+04  0.00000000000E+00 0.  1.
    9000010    2    1    2  501    0  0.26947819331E+03  0.25956889845E+03 -0.11582884929E+03  0.10713075402E+04  0.99714041825E+03 0.  0.
   -9000010    2    1    2    0  502 -0.26947819331E+03 -0.25956889845E+03 -0.63879030363E+03  0.12372455441E+04  0.99132687578E+03 0.  0.
        -13    1    3    3    0    0 -0.31390979404E+03  0.32831605503E+03 -0.16154308738E+03  0.48210680459E+03  0.10566000000E+00 0.  1.
          4    1    3    3  501    0  0.58338798735E+03 -0.68747156583E+02  0.45714238090E+02  0.58920073564E+03  0.00000000000E+00 0.  1.
         13    1    4    4    0    0 -0.49762091615E+03 -0.50674897062E+03 -0.34035699132E+03  0.78756840218E+03  0.10566000000E+00 0. -1.
         -4    1    4    4    0  502  0.22814272284E+03  0.24718007216E+03 -0.29843331230E+03  0.44967714191E+03  0.00000000000E+00 0. -1.
<mgrwt>
<rscale>  2 0.10636646E+04</rscale>
<asrwt>0</asrwt>
<pdfrwt beam="1">  1       21 0.11953338E+00 0.10650275E+04</pdfrwt>
<pdfrwt beam="2">  1       21 0.23562863E+00 0.10650275E+04</pdfrwt>
<totfact> 0.18785721E+01</totfact>
</mgrwt>
</event>
<event>
 8    1  0.7418332E-006  0.1048949E+04  0.7818608E-02  0.8746015E-01
         21   -1    0    0  501  502  0.00000000000E+00  0.00000000000E+00  0.44563260991E+03  0.44563260991E+03  0.00000000000E+00 0. -1.
         21   -1    0    0  502  503 -0.00000000000E+00 -0.00000000000E+00 -0.24208128849E+04  0.24208128849E+04  0.00000000000E+00 0. -1.
    9000010    2    1    2  501    0  0.27959305222E+03  0.85392416417E+02 -0.13307834557E+04  0.16944850172E+04  0.10073880722E+04 0.  0.
   -9000010    2    1    2    0  503 -0.27959305222E+03 -0.85392416417E+02 -0.64439681928E+03  0.11719604776E+04  0.93422693210E+03 0.  0.
        -13    1    3    3    0    0 -0.89575057931E+02  0.33689183295E+02  0.14423231226E+03  0.17309426085E+03  0.10566000000E+00 0.  1.
          4    1    3    3  501    0  0.36916811015E+03  0.51703233122E+02 -0.14750157680E+04  0.15213907564E+04  0.00000000000E+00 0.  1.
         13    1    4    4    0    0  0.11330980207E+02 -0.37918343291E+03  0.30400020882E+02  0.38056883653E+03  0.10566000000E+00 0. -1.
         -4    1    4    4    0  503 -0.29092403243E+03  0.29379101649E+03 -0.67479684017E+03  0.79139164104E+03  0.00000000000E+00 0. -1.
<mgrwt>
<rscale>  2 0.10309804E+04</rscale>
<asrwt>0</asrwt>
<pdfrwt beam="1">  1       21 0.68558864E-01 0.10489494E+04</pdfrwt>
<pdfrwt beam="2">  1       21 0.37243274E+00 0.10489494E+04</pdfrwt>
<totfact> 0.83204655E+00</totfact>
</mgrwt>
</event>
<event>
 8    1  0.7418332E-006  0.1104747E+04  0.7818608E-02  0.8686135E-01
         21   -1    0    0  501  502  0.00000000000E+00  0.00000000000E+00  0.14447273644E+04  0.14447273644E+04  0.00000000000E+00 0.  1.
         21   -1    0    0  502  503 -0.00000000000E+00 -0.00000000000E+00 -0.18521371820E+04  0.18521371820E+04  0.00000000000E+00 0.  1.
    9000010    2    1    2  501    0 -0.48390658341E+03  0.25049656705E+02  0.10218867342E+04  0.14903888095E+04  0.97067669144E+03 0.  0.
   -9000010    2    1    2    0  503  0.48390658341E+03 -0.25049656705E+02 -0.14292965517E+04  0.18064757369E+04  0.99281060048E+03 0.  0.
        -13    1    3    3    0    0  0.20707805238E+03 -0.24442328589E+03  0.45698540463E+03  0.55808577627E+03  0.10566000000E+00 0.  1.
          4    1    3    3  501    0 -0.69098463579E+03  0.26947294260E+03  0.56490132955E+03  0.93230303325E+03  0.00000000000E+00 0.  1.
         13    1    4    4    0    0  0.52571522292E+03 -0.77084377041E+02 -0.15663581261E+04  0.16540242704E+04  0.10566000000E+00 0. -1.
         -4    1    4    4    0  503 -0.41808639517E+02  0.52034720336E+02  0.13706157437E+03  0.15245146647E+03  0.00000000000E+00 0. -1.
<mgrwt>
<rscale>  2 0.10997513E+04</rscale>
<asrwt>0</asrwt>
<pdfrwt beam="1">  1       21 0.22226575E+00 0.11047470E+04</pdfrwt>
<pdfrwt beam="2">  1       21 0.28494418E+00 0.11047470E+04</pdfrwt>
<totfact> 0.10930315E+00</totfact>
</mgrwt>
</event>
<event>
 8    1  0.7418332E-006  0.1049075E+04  0.7818608E-02  0.8737512E-01
         21   -1    0    0  501  502  0.00000000000E+00  0.00000000000E+00  0.13432063633E+04  0.13432063633E+04  0.00000000000E+00 0. -1.
         21   -1    0    0  502  503 -0.00000000000E+00 -0.00000000000E+00 -0.87490657172E+03  0.87490657172E+03  0.00000000000E+00 0. -1.
    9000010    2    1    2  501    0  0.17116916302E+01  0.26547327875E+03  0.57723421523E+03  0.11973960808E+04  0.10149280977E+04 0.  0.
   -9000010    2    1    2    0  503 -0.17116916302E+01 -0.26547327875E+03 -0.10893442362E+03  0.10207168543E+04  0.97954948641E+03 0.  0.
        -13    1    3    3    0    0  0.16241201012E+03 -0.18980673326E+03 -0.17396961728E+03  0.30441697706E+03  0.10566000000E+00 0.  1.
          4    1    3    3  501    0 -0.16070031849E+03  0.45528001201E+03  0.75120383252E+03  0.89297910372E+03  0.00000000000E+00 0.  1.
         13    1    4    4    0    0  0.17897991328E+03 -0.42977619552E+03 -0.41877967323E+03  0.62619311196E+03  0.10566000000E+00 0. -1.
         -4    1    4    4    0  503 -0.18069160491E+03  0.16430291677E+03  0.30984524961E+03  0.39452374231E+03  0.00000000000E+00 0. -1.
<mgrwt>
<rscale>  2 0.10404215E+04</rscale>
<asrwt>0</asrwt>
<pdfrwt beam="1">  1       21 0.20664713E+00 0.10490748E+04</pdfrwt>
<pdfrwt beam="2">  1       21 0.13460101E+00 0.10490748E+04</pdfrwt>
<totfact> 0.22191160E+01</totfact>
</mgrwt>
</event>
<event>
 8    1  0.7418332E-006  0.1136533E+04  0.7818608E-02  0.8657817E-01
         21   -1    0    0  503  502  0.00000000000E+00  0.00000000000E+00  0.14659376084E+04  0.14659376084E+04  0.00000000000E+00 0.  1.
         21   -1    0    0  501  503 -0.00000000000E+00 -0.00000000000E+00 -0.98679299088E+03  0.98679299088E+03  0.00000000000E+00 0.  1.
    9000010    2    1    2  501    0 -0.37169040723E+03  0.31688595786E+03 -0.17417749262E+03  0.11498019253E+04  0.10262242442E+04 0.  0.
   -9000010    2    1    2    0  502  0.37169040723E+03 -0.31688595786E+03  0.65332211009E+03  0.13029286739E+04  0.10159837010E+04 0.  0.
        -13    1    3    3    0    0  0.52292758280E+01  0.59656862306E+02  0.40671838104E+03  0.41110356260E+03  0.10566000000E+00 0.  1.
          4    1    3    3  501    0 -0.37691968306E+03  0.25722909555E+03 -0.58089587365E+03  0.73869836273E+03  0.00000000000E+00 0.  1.
         13    1    4    4    0    0  0.48786725589E+03  0.21823682412E+03  0.50572124064E+03  0.73579600106E+03  0.10566000000E+00 0. -1.
         -4    1    4    4    0  502 -0.11617684866E+03 -0.53512278198E+03  0.14760086945E+03  0.56713267285E+03  0.00000000000E+00 0. -1.
<mgrwt>
<rscale>  2 0.11342162E+04</rscale>
<asrwt>0</asrwt>
<pdfrwt beam="1">  1       21 0.22552886E+00 0.11365327E+04</pdfrwt>
<pdfrwt beam="2">  1       21 0.15181431E+00 0.11365327E+04</pdfrwt>
<totfact> 0.10884909E+01</totfact>
</mgrwt>
</event>
<event>
 8    1  0.7418332E-006  0.1023607E+04  0.7818608E-02  0.8759428E-01
         21   -1    0    0  501  502  0.00000000000E+00  0.00000000000E+00  0.13712614306E+04  0.13712614306E+04  0.00000000000E+00 0. -1.
         21   -1    0    0  502  503 -0.00000000000E+00 -0.00000000000E+00 -0.81871609580E+03  0.81871609580E+03  0.00000000000E+00 0. -1.
    9000010    2    1    2  501    0 -0.17984641076E+03  0.22428298347E+03 -0.61045910973E+02  0.99655192467E+03  0.95222977646E+03 0.  0.
   -9000010    2    1    2    0  503  0.17984641076E+03 -0.22428298347E+03  0.61359124577E+03  0.11934256017E+04  0.98240666826E+03 0.  0.
        -13    1    3    3    0    0  0.26579934177E+03  0.67420304106E+02  0.29664664908E+03  0.40397281228E+03  0.10566000000E+00 0.  1.
          4    1    3    3  501    0 -0.44564575252E+03  0.15686267936E+03 -0.35769256005E+03  0.59257911239E+03  0.00000000000E+00 0.  1.
         13    1    4    4    0    0 -0.28575964259E+03  0.16781317624E+03  0.45769248163E+03  0.56506836255E+03  0.10566000000E+00 0. -1.
         -4    1    4    4    0  503  0.46560605335E+03 -0.39209615971E+03  0.15589876414E+03  0.62835723918E+03  0.00000000000E+00 0. -1.
<mgrwt>
<rscale>  2 0.10162971E+04</rscale>
<asrwt>0</asrwt>
<pdfrwt beam="1">  1       21 0.21096330E+00 0.10236066E+04</pdfrwt>
<pdfrwt beam="2">  1       21 0.12595632E+00 0.10236066E+04</pdfrwt>
<totfact> 0.25050186E+01</totfact>
</mgrwt>
</event>
<event>
 8    1  0.7418332E-006  0.1202623E+04  0.7818608E-02  0.8608803E-01
         21   -1    0    0  503  502  0.00000000000E+00  0.00000000000E+00  0.27499266160E+04  0.27499266160E+04  0.00000000000E+00 0. -1.
         21   -1    0    0  501  503 -0.00000000000E+00 -0.00000000000E+00 -0.60613954471E+03  0.60613954471E+03  0.00000000000E+00 0. -1.
    9000010    2    1    2  501    0  0.52815459439E+03 -0.34090340299E+03  0.17094906967E+04  0.20774283361E+04  0.99909341088E+03 0.  0.
   -9000010    2    1    2    0  502 -0.52815459439E+03  0.34090340299E+03  0.43429637462E+03  0.12786378247E+04  0.10252506717E+04 0.  0.
        -13    1    3    3    0    0  0.18062379064E+02 -0.33470368017E+03  0.47046124902E+02  0.33847622086E+03  0.10566000000E+00 0.  1.
          4    1    3    3  501    0  0.51009221533E+03 -0.61997228186E+01  0.16624445718E+04  0.17389521152E+04  0.00000000000E+00 0.  1.
         13    1    4    4    0    0 -0.64552397030E+02  0.16488598502E+03 -0.32595911744E+03  0.37094980445E+03  0.10566000000E+00 0. -1.
         -4    1    4    4    0  502 -0.46360219736E+03  0.17601741796E+03  0.76025549205E+03  0.90768802020E+03  0.00000000000E+00 0. -1.
<mgrwt>
<rscale>  2 0.11970287E+04</rscale>
<asrwt>0</asrwt>
<pdfrwt beam="1">  1       21 0.42306563E+00 0.12026227E+04</pdfrwt>
<pdfrwt beam="2">  1       21 0.93252239E-01 0.12026227E+04</pdfrwt>
<totfact> 0.16792856E+00</totfact>
</mgrwt>
</event>
<event>
 8    1  0.7418332E-006  0.9930854E+03  0.7818608E-02  0.8783319E-01
         21   -1    0    0  501  502  0.00000000000E+00  0.00000000000E+00  0.26987429173E+03  0.26987429173E+03  0.00000000000E+00 0.  1.
         21   -1    0    0  502  503 -0.00000000000E+00 -0.00000000000E+00 -0.37148405383E+04  0.37148405383E+04  0.00000000000E+00 0.  1.
    9000010    2    1    2  501    0 -0.12384531368E+03  0.14589927484E+03 -0.20323182917E+04  0.22579279445E+04  0.96503715137E+03 0.  0.
   -9000010    2    1    2    0  503  0.12384531368E+03 -0.14589927484E+03 -0.14126479548E+04  0.17267868855E+04  0.97447136623E+03 0.  0.
        -13    1    3    3    0    0  0.80323746112E+02 -0.30434594306E+02  0.86559346492E+02  0.12194548105E+03  0.10566000000E+00 0.  1.
          4    1    3    3  501    0 -0.20416905979E+03  0.17633386914E+03 -0.21188776382E+04  0.21359824635E+04  0.00000000000E+00 0.  1.
         13    1    4    4    0    0  0.51008046928E+02 -0.76944732547E+02 -0.15521929511E+04  0.15549357805E+04  0.10566000000E+00 0. -1.
         -4    1    4    4    0  503  0.72837266752E+02 -0.68954542290E+02  0.13954499627E+03  0.17185110507E+03  0.00000000000E+00 0. -1.
<mgrwt>
<rscale>  2 0.99076339E+03</rscale>
<asrwt>0</asrwt>
<pdfrwt beam="1">  1       21 0.41519124E-01 0.99308545E+03</pdfrwt>
<pdfrwt beam="2">  1       21 0.57151390E+00 0.99308545E+03</pdfrwt>
<totfact> 0.10366274E+00</totfact>
</mgrwt>
</event>
<event>
 8    1  0.7418332E-006  0.1013389E+04  0.7818608E-02  0.8770532E-01
         21   -1    0    0  501  502  0.00000000000E+00  0.00000000000E+00  0.24096492721E+04  0.24096492721E+04  0.00000000000E+00 0. -1.
         21   -1    0    0  502  503 -0.00000000000E+00 -0.00000000000E+00 -0.73495482232E+03  0.73495482232E+03  0.00000000000E+00 0. -1.
    9000010    2    1    2  501    0  0.43848897684E+02  0.12783998429E+03  0.18722541822E+04  0.21121376676E+04  0.96825823868E+03 0.  0.
   -9000010    2    1    2    0  503 -0.43848897684E+02 -0.12783998429E+03 -0.19755973243E+03  0.10324664268E+04  0.10043362421E+04 0.  0.
        -13    1    3    3    0    0 -0.17566360692E+03  0.49436423549E+03  0.78727784001E+03  0.94607616430E+03  0.10566000000E+00 0.  1.
          4    1    3    3  501    0  0.21951250460E+03 -0.36652425120E+03  0.10849763422E+04  0.11660615033E+04  0.00000000000E+00 0.  1.
         13    1    4    4    0    0 -0.48602749714E+03 -0.25767607615E+03 -0.71842447751E+02  0.55478016967E+03  0.10566000000E+00 0. -1.
         -4    1    4    4    0  503  0.44217859946E+03  0.12983609186E+03 -0.12571728468E+03  0.47768625711E+03  0.00000000000E+00 0. -1.
<mgrwt>
<rscale>  2 0.10043322E+04</rscale>
<asrwt>0</asrwt>
<pdfrwt beam="1">  1       21 0.37071527E+00 0.10133889E+04</pdfrwt>
<pdfrwt beam="2">  1       21 0.11306997E+00 0.10133889E+04</pdfrwt>
<totfact> 0.24329663E+00</totfact>
</mgrwt>
</event>
<event>
 8    1  0.7418332E-006  0.1058146E+04  0.7818608E-02  0.8733630E-01
         21   -1    0    0  501  502  0.00000000000E+00  0.00000000000E+00  0.15726664790E+04  0.15726664790E+04  0.00000000000E+00 0. -1.
         21   -1    0    0  502  503 -0.00000000000E+00 -0.00000000000E+00 -0.69080491181E+03  0.69080491181E+03  0.00000000000E+00 0. -1.
    9000010    2    1    2  501    0  0.17111672277E+03 -0.24485966808E+03  0.29236364863E+03  0.10977927740E+04  0.10151035818E+04 0.  0.
   -9000010    2    1    2    0  503 -0.17111672277E+03  0.24485966808E+03  0.58949791853E+03  0.11656786168E+04  0.96024041352E+03 0.  0.
        -13    1    3    3    0    0 -0.16628853257E+03  0.21760473771E+03 -0.20288695013E+03  0.34083254486E+03  0.10566000000E+00 0.  1.
          4    1    3    3  501    0  0.33740525533E+03 -0.46246440579E+03  0.49525059876E+03  0.75696022915E+03  0.00000000000E+00 0.  1.
         13    1    4    4    0    0  0.37609773389E+03 -0.15288604996E+01  0.94606873429E+02  0.38781737264E+03  0.10566000000E+00 0. -1.
         -4    1    4    4    0  503 -0.54721445666E+03  0.24638852858E+03  0.49489104510E+03  0.77786124412E+03  0.00000000000E+00 0. -1.
<mgrwt>
<rscale>  2 0.10447661E+04</rscale>
<asrwt>0</asrwt>
<pdfrwt beam="1">  1       21 0.24194869E+00 0.10581458E+04</pdfrwt>
<pdfrwt beam="2">  1       21 0.10627768E+00 0.10581458E+04</pdfrwt>
<totfact> 0.23311182E+01</totfact>
</mgrwt>
</event>
<event>
 8    1  0.7418332E-006  0.9718290E+03  0.7818608E-02  0.8823271E-01
         21   -1    0    0  501  502  0.00000000000E+00  0.00000000000E+00  0.13982859413E+04  0.13982859413E+04  0.00000000000E+00 0.  1.
         21   -1    0    0  502  503 -0.00000000000E+00 -0.00000000000E+00 -0.74586523166E+03  0.74586523166E+03  0.00000000000E+00 0.  1.
    9000010    2    1    2  501    0 -0.96628484261E+02  0.16069427995E+03  0.78301612139E+03  0.12480248029E+04  0.95356800841E+03 0.  0.
   -9000010    2    1    2    0  503  0.96628484261E+02 -0.16069427995E+03 -0.13059541175E+03  0.89612637007E+03  0.86650308366E+03 0.  0.
        -13    1    3    3    0    0  0.34108329842E+03 -0.14764418874E+03  0.10917505196E+03  0.38737039906E+03  0.10566000000E+00 0.  1.
          4    1    3    3  501    0 -0.43771178268E+03  0.30833846869E+03  0.67384106942E+03  0.86065440382E+03  0.00000000000E+00 0.  1.
         13    1    4    4    0    0  0.81319230942E+02  0.35577417555E+03 -0.77657069634E+01  0.36503205158E+03  0.10566000000E+00 0. -1.
         -4    1    4    4    0  503  0.15309253319E+02 -0.51646845550E+03 -0.12282970478E+03  0.53109431850E+03  0.00000000000E+00 0. -1.
<mgrwt>
<rscale>  2 0.94977196E+03</rscale>
<asrwt>0</asrwt>
<pdfrwt beam="1">  1       21 0.21512091E+00 0.97182903E+03</pdfrwt>
<pdfrwt beam="2">  1       21 0.11474850E+00 0.97182903E+03</pdfrwt>
<totfact> 0.30591504E+01</totfact>
</mgrwt>
</event>
<event>
 8    1  0.7418332E-006  0.9899408E+03  0.7818608E-02  0.8787664E-01
         21   -1    0    0  501  502  0.00000000000E+00  0.00000000000E+00  0.14167830621E+04  0.14167830621E+04  0.00000000000E+00 0.  1.
         21   -1    0    0  502  503 -0.00000000000E+00 -0.00000000000E+00 -0.72423193907E+03  0.72423193907E+03  0.00000000000E+00 0.  1.
    9000010    2    1    2  501    0 -0.80867189195E+02 -0.38762709798E+02  0.60923582826E+03  0.11623902468E+04  0.98587055005E+03 0.  0.
   -9000010    2    1    2    0  503  0.80867189195E+02  0.38762709798E+02  0.83315294766E+02  0.97862475436E+03  0.97093919560E+03 0.  0.
        -13    1    3    3    0    0  0.64010885131E+02 -0.14189570623E+03 -0.24476368871E+03  0.29007078332E+03  0.10566000000E+00 0.  1.
          4    1    3    3  501    0 -0.14487807433E+03  0.10313299644E+03  0.85399951697E+03  0.87231946348E+03  0.00000000000E+00 0.  1.
         13    1    4    4    0    0  0.19557684141E+03  0.24406595244E+03 -0.35994370727E+03  0.47684166513E+03  0.10566000000E+00 0. -1.
         -4    1    4    4    0  503 -0.11470965222E+03 -0.20530324264E+03  0.44325900204E+03  0.50178308923E+03  0.00000000000E+00 0. -1.
<mgrwt>
<rscale>  2 0.98620242E+03</rscale>
<asrwt>0</asrwt>
<pdfrwt beam="1">  1       21 0.21796662E+00 0.98994080E+03</pdfrwt>
<pdfrwt beam="2">  1       21 0.11142030E+00 0.98994080E+03</pdfrwt>
<totfact> 0.31420772E+01</totfact>
</mgrwt>
</event>
<event>
 8    1  0.7418332E-006  0.1010693E+04  0.7818608E-02  0.8765281E-01
         21   -1    0    0  501  502  0.00000000000E+00  0.00000000000E+00  0.14343375557E+04  0.14343375557E+04  0.00000000000E+00 0. -1.
         21   -1    0    0  502  503 -0.00000000000E+00 -0.00000000000E+00 -0.10377566577E+04  0.10377566577E+04  0.00000000000E+00 0. -1.
    9000010    2    1    2  501    0  0.27301121252E+02  0.11356689259E+03  0.89259469452E+03  0.13462482038E+04  0.10010075661E+04 0.  0.
   -9000010    2    1    2    0  503 -0.27301121252E+02 -0.11356689259E+03 -0.49601379649E+03  0.11258460096E+04  0.10039206945E+04 0.  0.
        -13    1    3    3    0    0  0.33658592828E+03 -0.19954538093E+03  0.80845327932E+03  0.89816766930E+03  0.10566000000E+00 0.  1.
          4    1    3    3  501    0 -0.30928480703E+03  0.31311227351E+03  0.84141415195E+02  0.44808053454E+03  0.00000000000E+00 0.  1.
         13    1    4    4    0    0 -0.33774502494E+03  0.21570884213E+03  0.64007144104E+02  0.40583116206E+03  0.10566000000E+00 0. -1.
         -4    1    4    4    0  503  0.31044390369E+03 -0.32927573471E+03 -0.56002094060E+03  0.72001484757E+03  0.00000000000E+00 0. -1.
<mgrwt>
<rscale>  2 0.10099684E+04</rscale>
<asrwt>0</asrwt>
<pdfrwt beam="1">  1       21 0.22066732E+00 0.10106926E+04</pdfrwt>
<pdfrwt beam="2">  1       21 0.15965487E+00 0.10106926E+04</pdfrwt>
<totfact> 0.10408821E+01</totfact>
</mgrwt>
</event>
<event>
 8    1  0.7418332E-006  0.1165046E+04  0.7818608E-02  0.8637301E-01
         21   -1    0    0  501  502  0.00000000000E+00  0.00000000000E+00  0.16888878273E+04  0.16888878273E+04  0.00000000000E+00 0.  1.
         21   -1    0    0  502  503 -0.00000000000E+00 -0.00000000000E+00 -0.11867847690E+04  0.11867847690E+04  0.00000000000E+00 0.  1.
    9000010    2    1    2  501    0  0.35114713651E+01  0.58858817877E+03  0.10810362355E+04  0.15747132256E+04  0.98215784151E+03 0.  0.
   -9000010    2    1    2    0  503 -0.35114713651E+01 -0.58858817877E+03 -0.57893317724E+03  0.13009593708E+04  0.10054269173E+04 0.  0.
        -13    1    3    3    0    0 -0.41109120210E+03 -0.52344969065E+01  0.49213886239E+03  0.64126753188E+03  0.10566000000E+00 0.  1.
          4    1    3    3  501    0  0.41460267346E+03  0.59382267568E+03  0.58889737311E+03  0.93344569368E+03  0.00000000000E+00 0.  1.
         13    1    4    4    0    0  0.46875572896E+03 -0.31741574918E+03 -0.49089066046E+03  0.74930524017E+03  0.10566000000E+00 0. -1.
         -4    1    4    4    0  503 -0.47226720032E+03 -0.27117242959E+03 -0.88042516781E+02  0.55165413062E+03  0.00000000000E+00 0. -1.
<mgrwt>
<rscale>  2 0.11600080E+04</rscale>
<asrwt>0</asrwt>
<pdfrwt beam="1">  1       21 0.25982890E+00 0.11650458E+04</pdfrwt>
<pdfrwt beam="2">  1       21 0.18258227E+00 0.11650458E+04</pdfrwt>
<totfact> 0.33226206E+00</totfact>
</mgrwt>
</event>
<event>
 8    1  0.7418332E-006  0.1024274E+04  0.7818608E-02  0.8752200E-01
         21   -1    0    0  503  502  0.00000000000E+00  0.00000000000E+00  0.10438036790E+04  0.10438036790E+04  0.00000000000E+00 0.  1.
         21   -1    0    0  501  503 -0.00000000000E+00 -0.00000000000E+00 -0.14327175403E+04  0.14327175403E+04  0.00000000000E+00 0.  1.
    9000010    2    1    2  501    0  0.17522543577E+03  0.17583806481E+03 -0.87120876141E+03  0.13443789047E+04  0.99334130848E+03 0.  0.
   -9000010    2    1    2    0  502 -0.17522543577E+03 -0.17583806481E+03  0.48229490010E+03  0.11321423147E+04  0.99373782841E+03 0.  0.
        -13    1    3    3    0    0 -0.81847486311E+02 -0.33501907780E+03 -0.57241413914E+02  0.34959030898E+03  0.10566000000E+00 0.  1.
          4    1    3    3  501    0  0.25707292208E+03  0.51085714261E+03 -0.81396734749E+03  0.99478859574E+03  0.00000000000E+00 0.  1.
         13    1    4    4    0    0 -0.21258080673E+02 -0.53350975345E+03  0.29235274692E+02  0.53473290106E+03  0.10566000000E+00 0. -1.
         -4    1    4    4    0  502 -0.15396735510E+03  0.35767168864E+03  0.45305962541E+03  0.59740941361E+03  0.00000000000E+00 0. -1.
<mgrwt>
<rscale>  2 0.10241781E+04</rscale>
<asrwt>0</asrwt>
<pdfrwt beam="1">  1       21 0.16058518E+00 0.10242743E+04</pdfrwt>
<pdfrwt beam="2">  1       21 0.22041808E+00 0.10242743E+04</pdfrwt>
<totfact> 0.10228043E+01</totfact>
</mgrwt>
</event>
<event>
 8    1  0.7418332E-006  0.1046349E+04  0.7818608E-02  0.8735582E-01
         21   -1    0    0  503  502  0.00000000000E+00  0.00000000000E+00  0.71246807884E+03  0.71246807884E+03  0.00000000000E+00 0.  1.
         21   -1    0    0  501  503 -0.00000000000E+00 -0.00000000000E+00 -0.16327045668E+04  0.16327045668E+04  0.00000000000E+00 0.  1.
    9000010    2    1    2  501    0  0.25611950021E+03 -0.29034396448E+02 -0.77220910667E+03  0.12884042956E+04  0.99861831038E+03 0.  0.
   -9000010    2    1    2    0  502 -0.25611950021E+03  0.29034396448E+02 -0.14802738124E+03  0.10567683500E+04  0.10141040605E+04 0.  0.
        -13    1    3    3    0    0  0.69129507603E+02  0.21143945468E+03  0.18157923987E+03  0.28715250884E+03  0.10566000000E+00 0.  1.
          4    1    3    3  501    0  0.18698999261E+03 -0.24047385112E+03 -0.95378834655E+03  0.10012517867E+04  0.00000000000E+00 0.  1.
         13    1    4    4    0    0  0.31339061534E+03 -0.14973495401E+03 -0.27918297189E+03  0.44562021632E+03  0.10566000000E+00 0. -1.
         -4    1    4    4    0  502 -0.56951011555E+03  0.17876935046E+03  0.13115559065E+03  0.61114813371E+03  0.00000000000E+00 0. -1.
<mgrwt>
<rscale>  2 0.10425788E+04</rscale>
<asrwt>0</asrwt>
<pdfrwt beam="1">  1       21 0.10961047E+00 0.10463495E+04</pdfrwt>
<pdfrwt beam="2">  1       21 0.25118532E+00 0.10463495E+04</pdfrwt>
<totfact> 0.18417433E+01</totfact>
</mgrwt>
</event>
<event>
 8    1  0.7418332E-006  0.1075820E+04  0.7818608E-02  0.8713268E-01
         21   -1    0    0  501  502  0.00000000000E+00  0.00000000000E+00  0.45342200315E+03  0.45342200315E+03  0.00000000000E+00 0.  1.
         21   -1    0    0  502  503 -0.00000000000E+00 -0.00000000000E+00 -0.25276053442E+04  0.25276053442E+04  0.00000000000E+00 0.  1.
    9000010    2    1    2  501    0 -0.27149793282E+03 -0.11471550933E+03 -0.84527711503E+03  0.13681677399E+04  0.10346587783E+04 0.  0.
   -9000010    2    1    2    0  503  0.27149793282E+03  0.11471550933E+03 -0.12289062260E+04  0.16128596075E+04  0.10021151758E+04 0.  0.
        -13    1    3    3    0    0  0.35847851879E+03 -0.14730051981E+03 -0.11734972521E+03  0.40493858885E+03  0.10566000000E+00 0.  1.
          4    1    3    3  501    0 -0.62997645161E+03  0.32585010473E+02 -0.72792738982E+03  0.96322915100E+03  0.00000000000E+00 0.  1.
         13    1    4    4    0    0  0.21491373353E+03 -0.43172910187E+03 -0.44923633839E+03  0.65908362835E+03  0.10566000000E+00 0. -1.
         -4    1    4    4    0  503  0.56584199298E+02  0.54644461120E+03 -0.77966988758E+03  0.95377597911E+03  0.00000000000E+00 0. -1.
<mgrwt>
<rscale>  2 0.10679187E+04</rscale>
<asrwt>0</asrwt>
<pdfrwt beam="1">  1       21 0.69757232E-01 0.10758204E+04</pdfrwt>
<pdfrwt beam="2">  1       21 0.38886236E+00 0.10758204E+04</pdfrwt>
<totfact> 0.60899537E+00</totfact>
</mgrwt>
</event>
<event>
 8    1  0.7418332E-006  0.1062428E+04  0.7818608E-02  0.8722170E-01
         21   -1    0    0  501  502  0.00000000000E+00  0.00000000000E+00  0.25039380600E+04  0.25039380600E+04  0.00000000000E+00 0. -1.
         21   -1    0    0  502  503 -0.00000000000E+00 -0.00000000000E+00 -0.10099153393E+04  0.10099153393E+04  0.00000000000E+00 0. -1.
    9000010    2    1    2  501    0  0.23532120193E+03  0.23518640060E+03  0.20605538733E+04  0.23098139676E+04  0.98927730651E+03 0.  0.
   -9000010    2    1    2    0  503 -0.23532120193E+03 -0.23518640060E+03 -0.56653115252E+03  0.12040394317E+04  0.10089919203E+04 0.  0.
        -13    1    3    3    0    0  0.54135051316E+03  0.32064318564E+03  0.17728053054E+04  0.18811462178E+04  0.10566000000E+00 0.  1.
          4    1    3    3  501    0 -0.30602931123E+03 -0.85456785040E+02  0.28774856790E+03  0.42866774986E+03  0.00000000000E+00 0.  1.
         13    1    4    4    0    0 -0.61044548354E+03 -0.29577183055E+03 -0.31167840476E+03  0.74650392047E+03  0.10566000000E+00 0. -1.
         -4    1    4    4    0  503  0.37512428160E+03  0.60585429953E+02 -0.25485274776E+03  0.45753551121E+03  0.00000000000E+00 0. -1.
<mgrwt>
<rscale>  2 0.10577207E+04</rscale>
<asrwt>0</asrwt>
<pdfrwt beam="1">  1       21 0.38522124E+00 0.10624281E+04</pdfrwt>
<pdfrwt beam="2">  1       21 0.15537159E+00 0.10624281E+04</pdfrwt>
<totfact> 0.75185442E-01</totfact>
</mgrwt>
</event>
<event>
 8    1  0.7418332E-006  0.1122579E+04  0.7818608E-02  0.8691082E-01
         21   -1    0    0  503  502  0.00000000000E+00  0.00000000000E+00  0.10216044631E+04  0.10216044631E+04  0.00000000000E+00 0.  1.
         21   -1    0    0  501  503 -0.00000000000E+00 -0.00000000000E+00 -0.13005085038E+04  0.13005085038E+04  0.00000000000E+00 0.  1.
    9000010    2    1    2  501    0 -0.23893433310E+03  0.25069883501E+03 -0.57118838210E+03  0.11621073512E+04  0.95094574312E+03 0.  0.
   -9000010    2    1    2    0  502  0.23893433310E+03 -0.25069883501E+03  0.29228434146E+03  0.11600056158E+04  0.10678217880E+04 0.  0.
        -13    1    3    3    0    0  0.36142193657E+03  0.52510085033E+02 -0.30621043384E+03  0.47660042616E+03  0.10566000000E+00 0.  1.
          4    1    3    3  501    0 -0.60035626967E+03  0.19818874997E+03 -0.26497794826E+03  0.68550692499E+03  0.00000000000E+00 0.  1.
         13    1    4    4    0    0 -0.29018194375E+03 -0.10253010791E+03  0.48781173592E+03  0.57678270117E+03  0.10566000000E+00 0. -1.
         -4    1    4    4    0  502  0.52911627685E+03 -0.14816872709E+03 -0.19552739446E+03  0.58322291459E+03  0.00000000000E+00 0. -1.
<mgrwt>
<rscale>  2 0.10938623E+04</rscale>
<asrwt>0</asrwt>
<pdfrwt beam="1">  1       21 0.15716992E+00 0.11225787E+04</pdfrwt>
<pdfrwt beam="2">  1       21 0.20007823E+00 0.11225787E+04</pdfrwt>
<totfact> 0.15326664E+01</totfact>
</mgrwt>
</event>
<event>
 8    1  0.7418332E-006  0.1132676E+04  0.7818608E-02  0.8684142E-01
         21   -1    0    0  503  502  0.00000000000E+00  0.00000000000E+00  0.16476088874E+04  0.16476088874E+04  0.00000000000E+00 0. -1.
         21   -1    0    0  501  503 -0.00000000000E+00 -0.00000000000E+00 -0.10437200512E+04  0.10437200512E+04  0.00000000000E+00 0. -1.
    9000010    2    1    2  501    0  0.58590196915E+02 -0.12150663307E+03 -0.45832224278E+03  0.12218893567E+04  0.11246144444E+04 0.  0.
   -9000010    2    1    2    0  502 -0.58590196915E+02  0.12150663307E+03  0.10622110790E+04  0.14694395819E+04  0.10063615828E+04 0.  0.
        -13    1    3    3    0    0  0.59220308146E+03 -0.70343326343E+02 -0.22855673265E+03  0.63866334203E+03  0.10566000000E+00 0.  1.
          4    1    3    3  501    0 -0.53361288454E+03 -0.51163306728E+02 -0.22976551012E+03  0.58322601464E+03  0.00000000000E+00 0.  1.
         13    1    4    4    0    0  0.33873050096E+03 -0.64710142434E+02  0.95836698214E+03  0.10185249327E+04  0.10566000000E+00 0. -1.
         -4    1    4    4    0  502 -0.39732069787E+03  0.18621677550E+03  0.10384409684E+03  0.45091464923E+03  0.00000000000E+00 0. -1.
<mgrwt>
<rscale>  2 0.11021341E+04</rscale>
<asrwt>0</asrwt>
<pdfrwt beam="1">  1       21 0.25347829E+00 0.11326757E+04</pdfrwt>
<pdfrwt beam="2">  1       21 0.16057232E+00 0.11326757E+04</pdfrwt>
<totfact> 0.56858428E+00</totfact>
</mgrwt>
</event>
<event>
 8    1  0.7418332E-006  0.1077500E+04  0.7818608E-02  0.8723627E-01
         21   -1    0    0  501  502  0.00000000000E+00  0.00000000000E+00  0.15493468352E+04  0.15493468352E+04  0.00000000000E+00 0.  1.
         21   -1    0    0  502  503 -0.00000000000E+00 -0.00000000000E+00 -0.82909024634E+03  0.82909024634E+03  0.00000000000E+00 0.  1.
    9000010    2    1    2  501    0 -0.34300372561E+03 -0.19511062826E+03  0.83024700524E+03  0.12953382556E+04  0.91261787938E+03 0.  0.
   -9000010    2    1    2    0  503  0.34300372561E+03  0.19511062826E+03 -0.10999041637E+03  0.10830988259E+04  0.10026392482E+04 0.  0.
        -13    1    3    3    0    0 -0.22090809969E+03  0.13645472461E+03  0.89868182102E+03  0.93544070201E+03  0.10566000000E+00 0.  1.
          4    1    3    3  501    0 -0.12209562592E+03 -0.33156535287E+03 -0.68434815785E+02  0.35989755363E+03  0.00000000000E+00 0.  1.
         13    1    4    4    0    0  0.53429234918E+03  0.48229422930E+03  0.37260604075E+01  0.71978464328E+03  0.10566000000E+00 0. -1.
         -4    1    4    4    0  503 -0.19128862358E+03 -0.28718360103E+03 -0.11371647678E+03  0.36331418263E+03  0.00000000000E+00 0. -1.
<mgrwt>
<rscale>  2 0.10560632E+04</rscale>
<asrwt>0</asrwt>
<pdfrwt beam="1">  1       21 0.23836105E+00 0.10774995E+04</pdfrwt>
<pdfrwt beam="2">  1       21 0.12755235E+00 0.10774995E+04</pdfrwt>
<totfact> 0.14880539E+01</totfact>
</mgrwt>
</event>
<event>
 8    1  0.7418332E-006  0.9970348E+03  0.7818608E-02  0.8786871E-01
         21   -1    0    0  503  502  0.00000000000E+00  0.00000000000E+00  0.72204473313E+03  0.72204473313E+03  0.00000000000E+00 0.  1.
         21   -1    0    0  501  503 -0.00000000000E+00 -0.00000000000E+00 -0.13231771762E+04  0.13231771762E+04  0.00000000000E+00 0.  1.
    9000010    2    1    2  501    0  0.74120181770E+02 -0.47536739305E+02 -0.27906802974E+03  0.99746058631E+03  0.95356966871E+03 0.  0.
   -9000010    2    1    2    0  502 -0.74120181770E+02  0.47536739305E+02 -0.32206441331E+03  0.10477613230E+04  0.99313884262E+03 0.  0.
        -13    1    3    3    0    0  0.31180872478E+03  0.19394875245E+02  0.25875826648E+03  0.40565588085E+03  0.10566000000E+00 0.  1.
          4    1    3    3  501    0 -0.23768854301E+03 -0.66931614550E+02 -0.53782629622E+03  0.59180470546E+03  0.00000000000E+00 0.  1.
         13    1    4    4    0    0  0.33638548078E+03  0.75859491817E+02  0.18772967907E+03  0.39262233475E+03  0.10566000000E+00 0. -1.
         -4    1    4    4    0  502 -0.41050566255E+03 -0.28322752512E+02 -0.50979409238E+03  0.65513898825E+03  0.00000000000E+00 0. -1.
<mgrwt>
<rscale>  2 0.98703322E+03</rscale>
<asrwt>0</asrwt>
<pdfrwt beam="1">  1       21 0.11108381E+00 0.99703476E+03</pdfrwt>
<pdfrwt beam="2">  1       21 0.20356572E+00 0.99703476E+03</pdfrwt>
<totfact> 0.40752790E+01</totfact>
</mgrwt>
</event>
<event>
 8    1  0.7418332E-006  0.9959975E+03  0.7818608E-02  0.8778429E-01
         21   -1    0    0  503  502  0.00000000000E+00  0.00000000000E+00  0.17327080732E+04  0.17327080732E+04  0.00000000000E+00 0.  1.
         21   -1    0    0  501  503 -0.00000000000E+00 -0.00000000000E+00 -0.57517264681E+03  0.57517264681E+03  0.00000000000E+00 0.  1.
    9000010    2    1    2  501    0 -0.54771119071E+02 -0.38326698287E+02  0.65961504009E+03  0.11946141931E+04  0.99375160779E+03 0.  0.
   -9000010    2    1    2    0  502  0.54771119071E+02  0.38326698287E+02  0.49792038629E+03  0.11132665269E+04  0.99346305294E+03 0.  0.
        -13    1    3    3    0    0  0.45507853743E+02  0.41464143947E+03  0.59433612435E+03  0.72610875766E+03  0.10566000000E+00 0.  1.
          4    1    3    3  501    0 -0.10027897281E+03 -0.45296813775E+03  0.65278915739E+02  0.46850543545E+03  0.00000000000E+00 0.  1.
         13    1    4    4    0    0 -0.28606700530E+03  0.40451127895E+03  0.24951303947E+03  0.55472558472E+03  0.10566000000E+00 0. -1.
         -4    1    4    4    0  502  0.34083812437E+03 -0.36618458066E+03  0.24840734683E+03  0.55854094218E+03  0.00000000000E+00 0. -1.
<mgrwt>
<rscale>  2 0.99592554E+03</rscale>
<asrwt>0</asrwt>
<pdfrwt beam="1">  1       21 0.26657047E+00 0.99599752E+03</pdfrwt>
<pdfrwt beam="2">  1       21 0.88488100E-01 0.99599752E+03</pdfrwt>
<totfact> 0.25214750E+01</totfact>
</mgrwt>
</event>
<event>
 8    1  0.7418332E-006  0.1029093E+04  0.7818608E-02  0.8747781E-01
         21   -1    0    0  501  502  0.00000000000E+00  0.00000000000E+00  0.53712457935E+03  0.53712457935E+03  0.00000000000E+00 0.  1.
         21   -1    0    0  502  503 -0.00000000000E+00 -0.00000000000E+00 -0.26943184406E+04  0.26943184406E+04  0.00000000000E+00 0.  1.
    9000010    2    1    2  501    0 -0.17263851434E+03 -0.27105120317E+03 -0.24165218391E+03  0.10570846468E+04  0.97762946001E+03 0.  0.
   -9000010    2    1    2    0  503  0.17263851434E+03  0.27105120317E+03 -0.19155416773E+04  0.21743583732E+04  0.97737485439E+03 0.  0.
        -13    1    3    3    0    0 -0.36360505472E+03 -0.46027790704E+03 -0.43131327288E+03  0.72807660178E+03  0.10566000000E+00 0.  1.
          4    1    3    3  501    0  0.19096654038E+03  0.18922670387E+03  0.18966108897E+03  0.32900804500E+03  0.00000000000E+00 0.  1.
         13    1    4    4    0    0  0.28192862663E+03  0.51747651389E+03 -0.17751726518E+04  0.18704287337E+04  0.10566000000E+00 0. -1.
         -4    1    4    4    0  503 -0.10929011229E+03 -0.24642531072E+03 -0.14036902547E+03  0.30392963942E+03  0.00000000000E+00 0. -1.
<mgrwt>
<rscale>  2 0.10290324E+04</rscale>
<asrwt>0</asrwt>
<pdfrwt beam="1">  1       21 0.82634550E-01 0.10290929E+04</pdfrwt>
<pdfrwt beam="2">  1       21 0.41451053E+00 0.10290929E+04</pdfrwt>
<totfact> 0.27137688E+00</totfact>
</mgrwt>
</event>
<event>
 8    1  0.7418332E-006  0.1062074E+04  0.7818608E-02  0.8722835E-01
         21   -1    0    0  503  502  0.00000000000E+00  0.00000000000E+00  0.13131078505E+04  0.13131078505E+04  0.00000000000E+00 0.  1.
         21   -1    0    0  501  503 -0.00000000000E+00 -0.00000000000E+00 -0.11330678704E+04  0.11330678704E+04  0.00000000000E+00 0.  1.
    9000010    2    1    2  501    0  0.85521638268E+02  0.34662303128E+03 -0.52977127331E+03  0.11687431821E+04  0.97869379652E+03 0.  0.
   -9000010    2    1    2    0  502 -0.85521638268E+02 -0.34662303128E+03  0.70981125343E+03  0.12774325387E+04  0.10002701630E+04 0.  0.
        -13    1    3    3    0    0  0.44135640392E+02  0.65913913090E+03 -0.54014475420E+03  0.85332802327E+03  0.10566000000E+00 0.  1.
          4    1    3    3  501    0  0.41385997876E+02 -0.31251609962E+03  0.10373480889E+02  0.31541515887E+03  0.00000000000E+00 0.  1.
         13    1    4    4    0    0 -0.54943180687E+02  0.97349086261E+02 -0.21991055028E+03  0.24669061391E+03  0.10566000000E+00 0. -1.
         -4    1    4    4    0  502 -0.30578457581E+02 -0.44397211755E+03  0.92972180371E+03  0.10307419248E+04  0.00000000000E+00 0. -1.
<mgrwt>
<rscale>  2 0.10569637E+04</rscale>
<asrwt>0</asrwt>
<pdfrwt beam="1">  1       21 0.20201659E+00 0.10620743E+04</pdfrwt>
<pdfrwt beam="2">  1       21 0.17431813E+00 0.10620743E+04</pdfrwt>
<totfact> 0.10728549E+01</totfact>
</mgrwt>
</event>
<event>
 8    1  0.7418332E-006  0.1023128E+04  0.7818608E-02  0.8755330E-01
         21   -1    0    0  503  502  0.00000000000E+00  0.00000000000E+00  0.22964746368E+04  0.22964746368E+04  0.00000000000E+00 0.  1.
         21   -1    0    0  501  503 -0.00000000000E+00 -0.00000000000E+00 -0.47392399058E+03  0.47392399058E+03  0.00000000000E+00 0.  1.
    9000010    2    1    2  501    0  0.68105161961E+02  0.15679241960E+03  0.61483107326E+03  0.11936530630E+04  0.10087458600E+04 0.  0.
   -9000010    2    1    2    0  502 -0.68105161961E+02 -0.15679241960E+03  0.12077195730E+04  0.15767455644E+04  0.99915856204E+03 0.  0.
        -13    1    3    3    0    0  0.30340133873E+03  0.51068431460E+03  0.41090072090E+03  0.72228128532E+03  0.10566000000E+00 0.  1.
          4    1    3    3  501    0 -0.23529617677E+03 -0.35389189499E+03  0.20393035236E+03  0.47137177764E+03  0.00000000000E+00 0.  1.
         13    1    4    4    0    0 -0.50938605597E+03  0.52724698203E+02  0.74392728328E+03  0.90315107362E+03  0.10566000000E+00 0. -1.
         -4    1    4    4    0  502  0.44128089401E+03 -0.20951711781E+03  0.46379228969E+03  0.67359449081E+03  0.00000000000E+00 0. -1.
<mgrwt>
<rscale>  2 0.10207567E+04</rscale>
<asrwt>0</asrwt>
<pdfrwt beam="1">  1       21 0.35330378E+00 0.10231277E+04</pdfrwt>
<pdfrwt beam="2">  1       21 0.72911384E-01 0.10231277E+04</pdfrwt>
<totfact> 0.98459674E+00</totfact>
</mgrwt>
</event>
<event>
 8    1  0.7418332E-006  0.1057977E+04  0.7818608E-02  0.8726963E-01
         21   -1    0    0  501  502  0.00000000000E+00  0.00000000000E+00  0.65471158303E+03  0.65471158303E+03  0.00000000000E+00 0.  1.
         21   -1    0    0  502  503 -0.00000000000E+00 -0.00000000000E+00 -0.17524696018E+04  0.17524696018E+04  0.00000000000E+00 0.  1.
    9000010    2    1    2  501    0  0.24761385278E+03 -0.25332266800E+03 -0.28739928164E+03  0.10745159865E+04  0.97288296524E+03 0.  0.
   -9000010    2    1    2    0  503 -0.24761385278E+03  0.25332266800E+03 -0.81035873711E+03  0.13326651983E+04  0.99691035386E+03 0.  0.
        -13    1    3    3    0    0  0.15303201281E+03 -0.61896671548E+03 -0.28101277880E+03  0.69678316917E+03  0.10566000000E+00 0.  1.
          4    1    3    3  501    0  0.94581839969E+02  0.36564404748E+03 -0.63865028316E+01  0.37773281738E+03  0.00000000000E+00 0.  1.
         13    1    4    4    0    0 -0.44758316718E+03 -0.25228829987E+03 -0.37390902799E+03  0.63544319193E+03  0.10566000000E+00 0. -1.
         -4    1    4    4    0  503  0.19996931440E+03  0.50561096786E+03 -0.43644970912E+03  0.69722200633E+03  0.00000000000E+00 0. -1.
<mgrwt>
<rscale>  2 0.10522788E+04</rscale>
<asrwt>0</asrwt>
<pdfrwt beam="1">  1       21 0.10072486E+00 0.10579770E+04</pdfrwt>
<pdfrwt beam="2">  1       21 0.26961071E+00 0.10579770E+04</pdfrwt>
<totfact> 0.16944549E+01</totfact>
</mgrwt>
</event>
<event>
 8    1  0.7418332E-006  0.1030766E+04  0.7818608E-02  0.8750426E-01
         21   -1    0    0  501  502  0.00000000000E+00  0.00000000000E+00  0.41795986738E+03  0.41795986738E+03  0.00000000000E+00 0.  1.
         21   -1    0    0  502  503 -0.00000000000E+00 -0.00000000000E+00 -0.26015090137E+04  0.26015090137E+04  0.00000000000E+00 0.  1.
    9000010    2    1    2  501    0 -0.15723914861E+03  0.43794364340E+02 -0.77941675558E+03  0.12776118939E+04  0.99907936434E+03 0.  0.
   -9000010    2    1    2    0  503  0.15723914861E+03 -0.43794364340E+02 -0.14041323908E+04  0.17418569872E+04  0.10177602355E+04 0.  0.
        -13    1    3    3    0    0  0.17045665844E+03 -0.24901232069E+03  0.80145383414E+02  0.31222732409E+03  0.10566000000E+00 0.  1.
          4    1    3    3  501    0 -0.32769580705E+03  0.29280668503E+03 -0.85956213900E+03  0.96538456977E+03  0.00000000000E+00 0.  1.
         13    1    4    4    0    0 -0.41354521542E+03 -0.10753877079E+03 -0.40125037733E+03  0.58616218651E+03  0.10566000000E+00 0. -1.
         -4    1    4    4    0  503  0.57078436403E+03  0.63744406453E+02 -0.10028820134E+04  0.11556948007E+04  0.00000000000E+00 0. -1.
<mgrwt>
<rscale>  2 0.10261243E+04</rscale>
<asrwt>0</asrwt>
<pdfrwt beam="1">  1       21 0.64301519E-01 0.10307657E+04</pdfrwt>
<pdfrwt beam="2">  1       21 0.40023215E+00 0.10307657E+04</pdfrwt>
<totfact> 0.62054146E+00</totfact>
</mgrwt>
</event>
<event>
 8    1  0.7418332E-006  0.1080299E+04  0.7818608E-02  0.8705702E-01
         21   -1    0    0  503  502  0.00000000000E+00  0.00000000000E+00  0.83493160632E+03  0.83493160632E+03  0.00000000000E+00 0.  1.
         21   -1    0    0  501  503 -0.00000000000E+00 -0.00000000000E+00 -0.16497417537E+04  0.16497417537E+04  0.00000000000E+00 0.  1.
    9000010    2    1    2  501    0 -0.34743653819E+03 -0.11927972337E+03 -0.91276777250E+03  0.14142807661E+04  0.10159258233E+04 0.  0.
   -9000010    2    1    2    0  502  0.34743653819E+03  0.11927972337E+03  0.97957625126E+02  0.10703925939E+04  0.10006022228E+04 0.  0.
        -13    1    3    3    0    0 -0.66552291220E+03 -0.58457344510E+02 -0.32441214516E+03  0.74268516808E+03  0.10566000000E+00 0.  1.
          4    1    3    3  501    0  0.31808637401E+03 -0.60822378859E+02 -0.58835562734E+03  0.67159559805E+03  0.00000000000E+00 0.  1.
         13    1    4    4    0    0  0.43278664786E+03  0.35109012362E+03  0.39572770876E+03  0.68349761383E+03  0.10566000000E+00 0. -1.
         -4    1    4    4    0  502 -0.85350109669E+02 -0.23181040025E+03 -0.29777008363E+03  0.38689498005E+03  0.00000000000E+00 0. -1.
<mgrwt>
<rscale>  2 0.10766810E+04</rscale>
<asrwt>0</asrwt>
<pdfrwt beam="1">  1       21 0.12845102E+00 0.10802986E+04</pdfrwt>
<pdfrwt beam="2">  1       21 0.25380642E+00 0.10802986E+04</pdfrwt>
<totfact> 0.11240408E+01</totfact>
</mgrwt>
</event>
<event>
 8    1  0.7418332E-006  0.1033694E+04  0.7818608E-02  0.8745569E-01
         21   -1    0    0  501  502  0.00000000000E+00  0.00000000000E+00  0.19319633054E+04  0.19319633054E+04  0.00000000000E+00 0. -1.
         21   -1    0    0  502  503 -0.00000000000E+00 -0.00000000000E+00 -0.90204553222E+03  0.90204553222E+03  0.00000000000E+00 0. -1.
    9000010    2    1    2  501    0  0.23806264855E+03  0.80759704146E+02  0.14009102611E+04  0.17357562469E+04  0.99353119442E+03 0.  0.
   -9000010    2    1    2    0  503 -0.23806264855E+03 -0.80759704146E+02 -0.37099248798E+03  0.10982525907E+04  0.10026601481E+04 0.  0.
        -13    1    3    3    0    0  0.52744583897E+03  0.23466406593E+03  0.12459803885E+04  0.13732201122E+04  0.10566000000E+00 0.  1.
          4    1    3    3  501    0 -0.28938319042E+03 -0.15390436178E+03  0.15492987260E+03  0.36253613461E+03  0.00000000000E+00 0.  1.
         13    1    4    4    0    0  0.93766857482E+02 -0.48762020030E+03 -0.96637070382E+02  0.50586996139E+03  0.10566000000E+00 0. -1.
         -4    1    4    4    0  503 -0.33182950603E+03  0.40686049615E+03 -0.27435541760E+03  0.59238262936E+03  0.00000000000E+00 0. -1.
<mgrwt>
<rscale>  2 0.10314738E+04</rscale>
<asrwt>0</asrwt>
<pdfrwt beam="1">  1       21 0.29722512E+00 0.10336940E+04</pdfrwt>
<pdfrwt beam="2">  1       21 0.13877624E+00 0.10336940E+04</pdfrwt>
<totfact> 0.44371637E+00</totfact>
</mgrwt>
</event>
<event>
 8    1  0.7418332E-006  0.1050158E+04  0.7818608E-02  0.8737074E-01
         21   -1    0    0  503  502  0.00000000000E+00  0.00000000000E+00  0.10201834338E+04  0.10201834338E+04  0.00000000000E+00 0.  1.
         21   -1    0    0  501  503 -0.00000000000E+00 -0.00000000000E+00 -0.10487365019E+04  0.10487365019E+04  0.00000000000E+00 0.  1.
    9000010    2    1    2  501    0  0.14104127259E+03  0.10000258734E+03  0.57195246785E+02  0.10152671825E+04  0.99880077970E+03 0.  0.
   -9000010    2    1    2    0  502 -0.14104127259E+03 -0.10000258734E+03 -0.85748314928E+02  0.10536527532E+04  0.10358272987E+04 0.  0.
        -13    1    3    3    0    0  0.49152753853E+03 -0.26336761880E+02  0.29444535884E+03  0.57357739379E+03  0.10566000000E+00 0.  1.
          4    1    3    3  501    0 -0.35048626594E+03  0.12633934922E+03 -0.23725011206E+03  0.44168978870E+03  0.00000000000E+00 0.  1.
         13    1    4    4    0    0 -0.36097706951E+03  0.53177648562E+02 -0.46386916831E+03  0.59017533284E+03  0.10566000000E+00 0. -1.
         -4    1    4    4    0  502  0.21993579691E+03 -0.15318023590E+03  0.37812085338E+03  0.46347742037E+03  0.00000000000E+00 0. -1.
<mgrwt>
<rscale>  2 0.10409106E+04</rscale>
<asrwt>0</asrwt>
<pdfrwt beam="1">  1       21 0.15695130E+00 0.10501578E+04</pdfrwt>
<pdfrwt beam="2">  1       21 0.16134408E+00 0.10501578E+04</pdfrwt>
<totfact> 0.32411406E+01</totfact>
</mgrwt>
</event>
<event>
 8    1  0.7418332E-006  0.1034475E+04  0.7818608E-02  0.8747826E-01
         21   -1    0    0  503  502  0.00000000000E+00  0.00000000000E+00  0.16850311498E+04  0.16850311498E+04  0.00000000000E+00 0.  1.
         21   -1    0    0  501  503 -0.00000000000E+00 -0.00000000000E+00 -0.63139974195E+03  0.63139974195E+03  0.00000000000E+00 0.  1.
    9000010    2    1    2  501    0  0.16389983892E+02  0.29281072212E+02  0.37832653541E+03  0.10810463394E+04  0.10121285530E+04 0.  0.
   -9000010    2    1    2    0  502 -0.16389983892E+02 -0.29281072212E+02  0.67530487246E+03  0.12353845524E+04  0.10339305144E+04 0.  0.
        -13    1    3    3    0    0  0.53469547597E+02 -0.46953815177E+03  0.34002141898E+02  0.47379449691E+03  0.10566000000E+00 0.  1.
          4    1    3    3  501    0 -0.37079563704E+02  0.49881922398E+03  0.34432439352E+03  0.60725184251E+03  0.00000000000E+00 0.  1.
         13    1    4    4    0    0  0.36721860239E+03  0.29116697919E+03  0.54510065455E+03  0.71886191057E+03  0.10566000000E+00 0. -1.
         -4    1    4    4    0  502 -0.38360858629E+03 -0.32044805140E+03  0.13020421790E+03  0.51652264179E+03  0.00000000000E+00 0. -1.
<mgrwt>
<rscale>  2 0.10289838E+04</rscale>
<asrwt>0</asrwt>
<pdfrwt beam="1">  1       21 0.25923556E+00 0.10344749E+04</pdfrwt>
<pdfrwt beam="2">  1       21 0.97138422E-01 0.10344749E+04</pdfrwt>
<totfact> 0.22228962E+01</totfact>
</mgrwt>
</event>
<event>
 8    1  0.7418332E-006  0.1045580E+04  0.7818608E-02  0.8736848E-01
         21   -1    0    0  501  502  0.00000000000E+00  0.00000000000E+00  0.77999411280E+03  0.77999411280E+03  0.00000000000E+00 0.  1.
         21   -1    0    0  502  503 -0.00000000000E+00 -0.00000000000E+00 -0.23678605875E+04  0.23678605875E+04  0.00000000000E+00 0.  1.
    9000010    2    1    2  501    0  0.25063416629E+03 -0.16025457157E+03 -0.18075554935E+04  0.20794444248E+04  0.98403924747E+03 0.  0.
   -9000010    2    1    2    0  503 -0.25063416629E+03  0.16025457157E+03  0.21968901881E+03  0.10684102755E+04  0.10023663197E+04 0.  0.
        -13    1    3    3    0    0 -0.35920889932E+03 -0.20994946004E+03 -0.71783306040E+03  0.82969519879E+03  0.10566000000E+00 0.  1.
          4    1    3    3  501    0  0.60984306561E+03  0.49694888469E+02 -0.10897224331E+04  0.12497492260E+04  0.00000000000E+00 0.  1.
         13    1    4    4    0    0  0.43475569614E+02  0.55256550228E+03  0.93335354593E+02  0.56207673768E+03  0.10566000000E+00 0. -1.
         -4    1    4    4    0  503 -0.29410973590E+03 -0.39231093070E+03  0.12635366421E+03  0.50633353786E+03  0.00000000000E+00 0. -1.
<mgrwt>
<rscale>  2 0.10411629E+04</rscale>
<asrwt>0</asrwt>
<pdfrwt beam="1">  1       21 0.11999909E+00 0.10455799E+04</pdfrwt>
<pdfrwt beam="2">  1       21 0.36428625E+00 0.10455799E+04</pdfrwt>
<totfact> 0.22722294E+00</totfact>
</mgrwt>
</event>
<event>
 8    1  0.7418332E-006  0.1006104E+04  0.7818608E-02  0.8771010E-01
         21   -1    0    0  503  502  0.00000000000E+00  0.00000000000E+00  0.15576270505E+04  0.15576270505E+04  0.00000000000E+00 0. -1.
         21   -1    0    0  501  503 -0.00000000000E+00 -0.00000000000E+00 -0.78105333501E+03  0.78105333501E+03  0.00000000000E+00 0. -1.
    9000010    2    1    2  501    0  0.25373384498E+02 -0.11819628445E+03 -0.10008805761E+03  0.10110699562E+04  0.99881463087E+03 0.  0.
   -9000010    2    1    2    0  502 -0.25373384498E+02  0.11819628445E+03  0.87666177305E+03  0.13276104292E+04  0.98964610703E+03 0.  0.
        -13    1    3    3    0    0 -0.41419945116E+02 -0.24409765818E+03 -0.51550847783E+03  0.57188135174E+03  0.10566000000E+00 0.  1.
          4    1    3    3  501    0  0.66793329614E+02  0.12590137373E+03  0.41542042022E+03  0.43918860450E+03  0.00000000000E+00 0.  1.
         13    1    4    4    0    0 -0.14956087458E+03  0.43433429633E+03  0.87465923267E+03  0.98794914881E+03  0.10566000000E+00 0. -1.
         -4    1    4    4    0  502  0.12418749009E+03 -0.31613801188E+03  0.20025403829E+01  0.33966128042E+03  0.00000000000E+00 0. -1.
<mgrwt>
<rscale>  2 0.10038207E+04</rscale>
<asrwt>0</asrwt>
<pdfrwt beam="1">  1       21 0.23963493E+00 0.10061038E+04</pdfrwt>
<pdfrwt beam="2">  1       21 0.12016205E+00 0.10061038E+04</pdfrwt>
<totfact> 0.17533203E+01</totfact>
</mgrwt>
</event>
<event>
 8    1  0.7418332E-006  0.1068824E+04  0.7818608E-02  0.8722581E-01
         21   -1    0    0  503  502  0.00000000000E+00  0.00000000000E+00  0.10866041025E+04  0.10866041025E+04  0.00000000000E+00 0. -1.
         21   -1    0    0  501  503 -0.00000000000E+00 -0.00000000000E+00 -0.11490267901E+04  0.11490267901E+04  0.00000000000E+00 0. -1.
    9000010    2    1    2  501    0  0.19319831225E+03  0.17909424311E+03 -0.42469764059E+03  0.11501102257E+04  0.10358499455E+04 0.  0.
   -9000010    2    1    2    0  502 -0.19319831225E+03 -0.17909424311E+03  0.36227495295E+03  0.10855206668E+04  0.98879302224E+03 0.  0.
        -13    1    3    3    0    0  0.12054538135E+02 -0.40090408486E+03 -0.36017066804E+03  0.53906615404E+03  0.10566000000E+00 0.  1.
          4    1    3    3  501    0  0.18114377411E+03  0.57999832797E+03 -0.64526972548E+02  0.61104407168E+03  0.00000000000E+00 0.  1.
         13    1    4    4    0    0  0.20572354078E+03 -0.28554988763E+03 -0.18687106215E+03  0.39847423830E+03  0.10566000000E+00 0. -1.
         -4    1    4    4    0  502 -0.39892185303E+03  0.10645564452E+03  0.54914601510E+03  0.68704642854E+03  0.00000000000E+00 0. -1.
<mgrwt>
<rscale>  2 0.10572529E+04</rscale>
<asrwt>0</asrwt>
<pdfrwt beam="1">  1       21 0.16716986E+00 0.10688243E+04</pdfrwt>
<pdfrwt beam="2">  1       21 0.17677335E+00 0.10688243E+04</pdfrwt>
<totfact> 0.19563803E+01</totfact>
</mgrwt>
</event>
<event>
 8    1  0.7418332E-006  0.1025248E+04  0.7818608E-02  0.8755514E-01
         21   -1    0    0  503  502  0.00000000000E+00  0.00000000000E+00  0.18187314233E+04  0.18187314233E+04  0.00000000000E+00 0.  1.
         21   -1    0    0  501  503 -0.00000000000E+00 -0.00000000000E+00 -0.66998423582E+03  0.66998423582E+03  0.00000000000E+00 0.  1.
    9000010    2    1    2  501    0 -0.18490370064E+03 -0.38017831753E+02  0.92150642809E+02  0.10293806437E+04  0.10077192241E+04 0.  0.
   -9000010    2    1    2    0  502  0.18490370064E+03  0.38017831753E+02  0.10565965447E+04  0.14593350154E+04  0.98875057266E+03 0.  0.
        -13    1    3    3    0    0 -0.28945069808E+03  0.36417405571E+02 -0.41442011596E+03  0.50680566071E+03  0.10566000000E+00 0.  1.
          4    1    3    3  501    0  0.10454699744E+03 -0.74435237324E+02  0.50657075877E+03  0.52257498302E+03  0.00000000000E+00 0.  1.
         13    1    4    4    0    0  0.16898047885E+02  0.25565718013E+03  0.11428211566E+04  0.11711901404E+04  0.10566000000E+00 0. -1.
         -4    1    4    4    0  502  0.16800565275E+03 -0.21763934838E+03 -0.86224611905E+02  0.28814487505E+03  0.00000000000E+00 0. -1.
<mgrwt>
<rscale>  2 0.10205560E+04</rscale>
<asrwt>0</asrwt>
<pdfrwt beam="1">  1       21 0.27980483E+00 0.10252477E+04</pdfrwt>
<pdfrwt beam="2">  1       21 0.10307450E+00 0.10252477E+04</pdfrwt>
<totfact> 0.13583355E+01</totfact>
</mgrwt>
</event>
<event>
 8    1  0.7418332E-006  0.1263526E+04  0.7818608E-02  0.8564323E-01
         21   -1    0    0  501  502  0.00000000000E+00  0.00000000000E+00  0.95888664928E+03  0.95888664928E+03  0.00000000000E+00 0. -1.
         21   -1    0    0  502  503 -0.00000000000E+00 -0.00000000000E+00 -0.17735069786E+04  0.17735069786E+04  0.00000000000E+00 0. -1.
    9000010    2    1    2  501    0  0.74387326229E+03 -0.19778219840E+03 -0.28547683516E+02  0.12638482483E+04  0.10020140699E+04 0.  0.
   -9000010    2    1    2    0  503 -0.74387326229E+03  0.19778219840E+03 -0.78607264580E+03  0.14685453795E+04  0.97275387375E+03 0.  0.
        -13    1    3    3    0    0  0.10587733440E+03  0.60519979405E+02  0.42327929961E+03  0.44049750792E+03  0.10566000000E+00 0.  1.
          4    1    3    3  501    0  0.63799592789E+03 -0.25830217781E+03 -0.45182698312E+03  0.82335074042E+03  0.00000000000E+00 0.  1.
         13    1    4    4    0    0 -0.22671491449E+03 -0.39084299996E+03 -0.22444411648E+03  0.50451271110E+03  0.10566000000E+00 0. -1.
         -4    1    4    4    0  503 -0.51715834780E+03  0.58862519837E+03 -0.56162852932E+03  0.96403266843E+03  0.00000000000E+00 0. -1.
<mgrwt>
<rscale>  2 0.12577168E+04</rscale>
<asrwt>0</asrwt>
<pdfrwt beam="1">  1       21 0.14752102E+00 0.12635258E+04</pdfrwt>
<pdfrwt beam="2">  1       21 0.27284723E+00 0.12635258E+04</pdfrwt>
<totfact> 0.52267375E+00</totfact>
</mgrwt>
</event>
<event>
 8    1  0.7418332E-006  0.1038985E+04  0.7818608E-02  0.8744482E-01
         21   -1    0    0  503  502  0.00000000000E+00  0.00000000000E+00  0.20556968689E+04  0.20556968689E+04  0.00000000000E+00 0.  1.
         21   -1    0    0  501  503 -0.00000000000E+00 -0.00000000000E+00 -0.51877527489E+03  0.51877527489E+03  0.00000000000E+00 0.  1.
    9000010    2    1    2  501    0 -0.24348336264E+02  0.14775890216E+03  0.91864188176E+03  0.13868641951E+04  0.10281361068E+04 0.  0.
   -9000010    2    1    2    0  502  0.24348336264E+02 -0.14775890216E+03  0.61827971228E+03  0.11876079487E+04  0.10028545770E+04 0.  0.
        -13    1    3    3    0    0  0.25863876099E+03 -0.99024017691E+02  0.96920518955E+03  0.10079972596E+04  0.10566000000E+00 0.  1.
          4    1    3    3  501    0 -0.28298709725E+03  0.24678291985E+03 -0.50563307786E+02  0.37886693552E+03  0.00000000000E+00 0.  1.
         13    1    4    4    0    0 -0.11808616370E+03  0.29999882023E+03  0.64065959646E+03  0.71720873105E+03  0.10566000000E+00 0. -1.
         -4    1    4    4    0  502  0.14243449996E+03 -0.44775772239E+03 -0.22379884186E+02  0.47039921764E+03  0.00000000000E+00 0. -1.
<mgrwt>
<rscale>  2 0.10326748E+04</rscale>
<asrwt>0</asrwt>
<pdfrwt beam="1">  1       21 0.31626105E+00 0.10389848E+04</pdfrwt>
<pdfrwt beam="2">  1       21 0.79811582E-01 0.10389848E+04</pdfrwt>
<totfact> 0.14358092E+01</totfact>
</mgrwt>
</event>
<event>
 8    1  0.7418332E-006  0.1065525E+04  0.7818608E-02  0.8728692E-01
         21   -1    0    0  503  502  0.00000000000E+00  0.00000000000E+00  0.13829782763E+04  0.13829782763E+04  0.00000000000E+00 0.  1.
         21   -1    0    0  501  503 -0.00000000000E+00 -0.00000000000E+00 -0.83724122859E+03  0.83724122859E+03  0.00000000000E+00 0.  1.
    9000010    2    1    2  501    0  0.14404424214E+03 -0.17537179041E+02 -0.20651004225E+02  0.10657251970E+04  0.10555981410E+04 0.  0.
   -9000010    2    1    2    0  502 -0.14404424214E+03  0.17537179041E+02  0.56638805190E+03  0.11544943079E+04  0.99549253398E+03 0.  0.
        -13    1    3    3    0    0 -0.40065637801E+03 -0.12985513337E+03  0.20143076582E+03  0.46686427737E+03  0.10566000000E+00 0.  1.
          4    1    3    3  501    0  0.54470062015E+03  0.11231795433E+03 -0.22208177005E+03  0.59886091962E+03  0.00000000000E+00 0.  1.
         13    1    4    4    0    0 -0.35853700306E+03  0.25162178082E+03  0.68708655651E+03  0.81483142456E+03  0.10566000000E+00 0. -1.
         -4    1    4    4    0  502  0.21449276092E+03 -0.23408460178E+03 -0.12069850461E+03  0.33966288330E+03  0.00000000000E+00 0. -1.
<mgrwt>
<rscale>  2 0.10503248E+04</rscale>
<asrwt>0</asrwt>
<pdfrwt beam="1">  1       21 0.21276589E+00 0.10655251E+04</pdfrwt>
<pdfrwt beam="2">  1       21 0.12880634E+00 0.10655251E+04</pdfrwt>
<totfact> 0.22549358E+01</totfact>
</mgrwt>
</event>
<event>
 8    1  0.7418332E-006  0.1110207E+04  0.7818608E-02  0.8681104E-01
         21   -1    0    0  503  502  0.00000000000E+00  0.00000000000E+00  0.14155893400E+04  0.14155893400E+04  0.00000000000E+00 0.  1.
         21   -1    0    0  501  503 -0.00000000000E+00 -0.00000000000E+00 -0.94258490057E+03  0.94258490057E+03  0.00000000000E+00 0.  1.
    9000010    2    1    2  501    0 -0.21328787321E+03 -0.37749512612E+03 -0.11715841183E+03  0.11163720418E+04  0.10220401926E+04 0.  0.
   -9000010    2    1    2    0  502  0.21328787321E+03  0.37749512612E+03  0.59016285124E+03  0.12418021987E+04  0.10028889384E+04 0.  0.
        -13    1    3    3    0    0 -0.93501576056E+02  0.13924214371E+03 -0.45672880401E+03  0.48655126235E+03  0.10566000000E+00 0.  1.
          4    1    3    3  501    0 -0.11978629716E+03 -0.51673726982E+03  0.33957039219E+03  0.62982077948E+03  0.00000000000E+00 0.  1.
         13    1    4    4    0    0  0.33506179061E+03 -0.12018131403E+03  0.63449915291E+03  0.72752947567E+03  0.10566000000E+00 0. -1.
         -4    1    4    4    0  502 -0.12177391740E+03  0.49767644015E+03 -0.44336301669E+02  0.51427272306E+03  0.00000000000E+00 0. -1.
<mgrwt>
<rscale>  2 0.11057798E+04</rscale>
<asrwt>0</asrwt>
<pdfrwt beam="1">  1       21 0.21778298E+00 0.11102074E+04</pdfrwt>
<pdfrwt beam="2">  1       21 0.14501306E+00 0.11102074E+04</pdfrwt>
<totfact> 0.14413268E+01</totfact>
</mgrwt>
</event>
<event>
 8    1  0.7418332E-006  0.1079914E+04  0.7818608E-02  0.8709388E-01
         21   -1    0    0  503  502  0.00000000000E+00  0.00000000000E+00  0.10206840484E+04  0.10206840484E+04  0.00000000000E+00 0.  1.
         21   -1    0    0  501  503 -0.00000000000E+00 -0.00000000000E+00 -0.12485285313E+04  0.12485285313E+04  0.00000000000E+00 0.  1.
    9000010    2    1    2  501    0 -0.35759563980E+03 -0.16302420633E+03 -0.48858765163E+03  0.11582661794E+04  0.97386401291E+03 0.  0.
   -9000010    2    1    2    0  502  0.35759563980E+03  0.16302420633E+03  0.26074316869E+03  0.11109464002E+04  0.10058644892E+04 0.  0.
        -13    1    3    3    0    0 -0.41570164994E+03  0.12781652721E+03  0.14520732787E+03  0.45850856658E+03  0.10566000000E+00 0.  1.
          4    1    3    3  501    0  0.58106010146E+02 -0.29084073354E+03 -0.63379497951E+03  0.69975761285E+03  0.00000000000E+00 0.  1.
         13    1    4    4    0    0 -0.99064270434E+02  0.42470951005E+03  0.37173815639E+03  0.57304551799E+03  0.10566000000E+00 0. -1.
         -4    1    4    4    0  502  0.45665991023E+03 -0.26168530372E+03 -0.11099498770E+03  0.53790088222E+03  0.00000000000E+00 0. -1.
<mgrwt>
<rscale>  2 0.10724008E+04</rscale>
<asrwt>0</asrwt>
<pdfrwt beam="1">  1       21 0.15702831E+00 0.10799143E+04</pdfrwt>
<pdfrwt beam="2">  1       21 0.19208131E+00 0.10799143E+04</pdfrwt>
<totfact> 0.17935930E+01</totfact>
</mgrwt>
</event>
<event>
 8    1  0.7418332E-006  0.1057068E+04  0.7818608E-02  0.8724012E-01
         21   -1    0    0  501  502  0.00000000000E+00  0.00000000000E+00  0.13658222836E+04  0.13658222836E+04  0.00000000000E+00 0. -1.
         21   -1    0    0  502  503 -0.00000000000E+00 -0.00000000000E+00 -0.83347679162E+03  0.83347679162E+03  0.00000000000E+00 0. -1.
    9000010    2    1    2  501    0 -0.37251994504E+02  0.31189311114E+03  0.43644520545E+03  0.11436243680E+04  0.10093201940E+04 0.  0.
   -9000010    2    1    2    0  503  0.37251994504E+02 -0.31189311114E+03  0.95900286537E+02  0.10556747072E+04  0.10032881932E+04 0.  0.
        -13    1    3    3    0    0 -0.10912416486E+03  0.65624563391E+03  0.42935892429E+03  0.79177996465E+03  0.10566000000E+00 0.  1.
          4    1    3    3  501    0  0.71872170356E+02 -0.34435252277E+03  0.70862811571E+01  0.35184440338E+03  0.00000000000E+00 0.  1.
         13    1    4    4    0    0 -0.23584007795E+03 -0.35517787269E+03 -0.33601048329E+03  0.54283968136E+03  0.10566000000E+00 0. -1.
         -4    1    4    4    0  503  0.27309207245E+03  0.43284761552E+02  0.43191076983E+03  0.51283502583E+03  0.00000000000E+00 0. -1.
<mgrwt>
<rscale>  2 0.10556253E+04</rscale>
<asrwt>0</asrwt>
<pdfrwt beam="1">  1       21 0.21012651E+00 0.10570678E+04</pdfrwt>
<pdfrwt beam="2">  1       21 0.12822720E+00 0.10570678E+04</pdfrwt>
<totfact> 0.23974372E+01</totfact>
</mgrwt>
</event>
<event>
 8    1  0.7418332E-006  0.1261842E+04  0.7818608E-02  0.8619940E-01
         21   -1    0    0  501  502  0.00000000000E+00  0.00000000000E+00  0.11091142146E+04  0.11091142146E+04  0.00000000000E+00 0. -1.
         21   -1    0    0  502  503 -0.00000000000E+00 -0.00000000000E+00 -0.13272580592E+04  0.13272580592E+04  0.00000000000E+00 0. -1.
    9000010    2    1    2  501    0  0.52616801962E+01 -0.76704261845E+02  0.35041160179E+03  0.13095924289E+04  0.12594970465E+04 0.  0.
   -9000010    2    1    2    0  503 -0.52616801962E+01  0.76704261845E+02 -0.56855544635E+03  0.11267798449E+04  0.96977641457E+03 0.  0.
        -13    1    3    3    0    0 -0.55730330819E+03 -0.27896708305E+03  0.34373875314E+03  0.71173446757E+03  0.10566000000E+00 0.  1.
          4    1    3    3  501    0  0.56256498839E+03  0.20226282121E+03  0.66728486471E+01  0.59785796132E+03  0.00000000000E+00 0.  1.
         13    1    4    4    0    0 -0.30730438006E+03 -0.33925543912E+03 -0.29358807192E+03  0.54380529798E+03  0.10566000000E+00 0. -1.
         -4    1    4    4    0  503  0.30204269986E+03  0.41595970096E+03 -0.27496737444E+03  0.58297454693E+03  0.00000000000E+00 0. -1.
<mgrwt>
<rscale>  2 0.11823925E+04</rscale>
<asrwt>0</asrwt>
<pdfrwt beam="1">  1       21 0.17063296E+00 0.12618415E+04</pdfrwt>
<pdfrwt beam="2">  1       21 0.20419355E+00 0.12618415E+04</pdfrwt>
<totfact> 0.10616518E+01</totfact>
</mgrwt>
</event>
<event>
 8    1  0.7418332E-006  0.1039790E+04  0.7818608E-02  0.8738602E-01
         21   -1    0    0  503  502  0.00000000000E+00  0.00000000000E+00  0.21904227896E+04  0.21904227896E+04  0.00000000000E+00 0. -1.
         21   -1    0    0  501  503 -0.00000000000E+00 -0.00000000000E+00 -0.79150212797E+03  0.79150212797E+03  0.00000000000E+00 0. -1.
    9000010    2    1    2  501    0  0.30187635583E+03  0.37200982267E+02 -0.21744880801E+03  0.10599950393E+04  0.99186302081E+03 0.  0.
   -9000010    2    1    2    0  502 -0.30187635583E+03 -0.37200982267E+02  0.16163694696E+04  0.19219298782E+04  0.99430928141E+03 0.  0.
        -13    1    3    3    0    0  0.43513971619E+03  0.13454121620E+03  0.28084100562E+03  0.53508839743E+03  0.10566000000E+00 0.  1.
          4    1    3    3  501    0 -0.13326336036E+03 -0.97340233937E+02 -0.49828981363E+03  0.52490664191E+03  0.00000000000E+00 0.  1.
         13    1    4    4    0    0 -0.46939032578E+03  0.28119922261E+03  0.47295007403E+03  0.72324412505E+03  0.10566000000E+00 0. -1.
         -4    1    4    4    0  502  0.16751396995E+03 -0.31840020488E+03  0.11434193956E+04  0.11986857531E+04  0.00000000000E+00 0. -1.
<mgrwt>
<rscale>  2 0.10392052E+04</rscale>
<asrwt>0</asrwt>
<pdfrwt beam="1">  1       21 0.33698812E+00 0.10397905E+04</pdfrwt>
<pdfrwt beam="2">  1       21 0.12176956E+00 0.10397905E+04</pdfrwt>
<totfact> 0.33938289E+00</totfact>
</mgrwt>
</event>
<event>
 8    1  0.7418332E-006  0.1032306E+04  0.7818608E-02  0.8767239E-01
         21   -1    0    0  503  502  0.00000000000E+00  0.00000000000E+00  0.22723337184E+04  0.22723337184E+04  0.00000000000E+00 0. -1.
         21   -1    0    0  501  503 -0.00000000000E+00 -0.00000000000E+00 -0.14767948693E+04  0.14767948693E+04  0.00000000000E+00 0. -1.
    9000010    2    1    2  501    0  0.98783350746E+02  0.21870283798E+03 -0.11876450434E+04  0.15133570465E+04  0.90673023521E+03 0.  0.
   -9000010    2    1    2    0  502 -0.98783350746E+02 -0.21870283798E+03  0.19831838925E+04  0.22357715413E+04  0.10040253739E+04 0.  0.
        -13    1    3    3    0    0  0.39311995106E+03  0.35636025304E+03 -0.40998089791E+03  0.67053730223E+03  0.10566000000E+00 0.  1.
          4    1    3    3  501    0 -0.29433660031E+03 -0.13765741506E+03 -0.77766414549E+03  0.84281974430E+03  0.00000000000E+00 0.  1.
         13    1    4    4    0    0  0.11971372787E+03 -0.17575912176E+03  0.20011065427E+04  0.20123742326E+04  0.10566000000E+00 0. -1.
         -4    1    4    4    0  502 -0.21849707862E+03 -0.42943716219E+02 -0.17922650230E+02  0.22339730866E+03  0.00000000000E+00 0. -1.
<mgrwt>
<rscale>  2 0.10078624E+04</rscale>
<asrwt>0</asrwt>
<pdfrwt beam="1">  1       21 0.34958980E+00 0.10323062E+04</pdfrwt>
<pdfrwt beam="2">  1       21 0.22719921E+00 0.10323062E+04</pdfrwt>
<totfact> 0.35877518E-01</totfact>
</mgrwt>
</event>
<event>
 8    1  0.7418332E-006  0.1043499E+04  0.7818608E-02  0.8735943E-01
         21   -1    0    0  501  502  0.00000000000E+00  0.00000000000E+00  0.88216513823E+03  0.88216513823E+03  0.00000000000E+00 0.  1.
         21   -1    0    0  502  503 -0.00000000000E+00 -0.00000000000E+00 -0.13473168493E+04  0.13473168493E+04  0.00000000000E+00 0.  1.
    9000010    2    1    2  501    0  0.28809489247E+03  0.86607673071E+01  0.99563317578E+02  0.10429774976E+04  0.99740439659E+03 0.  0.
   -9000010    2    1    2    0  503 -0.28809489247E+03 -0.86607673071E+01 -0.56471502864E+03  0.11865044899E+04  0.10029038663E+04 0.  0.
        -13    1    3    3    0    0  0.88836798899E+02 -0.51129056305E+01 -0.44975550735E+03  0.45847371375E+03  0.10566000000E+00 0.  1.
          4    1    3    3  501    0  0.19925809357E+03  0.13773672938E+02  0.54931882493E+03  0.58450378385E+03  0.00000000000E+00 0.  1.
         13    1    4    4    0    0  0.17670873315E+03  0.33407792515E+03 -0.46703628327E+03  0.60079691869E+03  0.10566000000E+00 0. -1.
         -4    1    4    4    0  503 -0.46480362562E+03 -0.34273869246E+03 -0.97678745364E+02  0.58570757123E+03  0.00000000000E+00 0. -1.
<mgrwt>
<rscale>  2 0.10421752E+04</rscale>
<asrwt>0</asrwt>
<pdfrwt beam="1">  1       21 0.13571771E+00 0.10434988E+04</pdfrwt>
<pdfrwt beam="2">  1       21 0.20727951E+00 0.10434988E+04</pdfrwt>
<totfact> 0.21444067E+01</totfact>
</mgrwt>
</event>
<event>
 8    1  0.7418332E-006  0.1081812E+04  0.7818608E-02  0.8701693E-01
         21   -1    0    0  501  502  0.00000000000E+00  0.00000000000E+00  0.57049924897E+03  0.57049924897E+03  0.00000000000E+00 0. -1.
         21   -1    0    0  502  503 -0.00000000000E+00 -0.00000000000E+00 -0.23561573884E+04  0.23561573884E+04  0.00000000000E+00 0. -1.
    9000010    2    1    2  501    0 -0.22103821009E+03 -0.35519941623E+03 -0.14214242198E+04  0.17851734849E+04  0.99567717794E+03 0.  0.
   -9000010    2    1    2    0  503  0.22103821009E+03  0.35519941623E+03 -0.36423391954E+03  0.11414831525E+04  0.99764368571E+03 0.  0.
        -13    1    3    3    0    0  0.22021316103E+03  0.14851912188E+03 -0.66523713434E+02  0.27381961484E+03  0.10566000000E+00 0.  1.
          4    1    3    3  501    0 -0.44125137112E+03 -0.50371853812E+03 -0.13549005064E+04  0.15113538700E+04  0.00000000000E+00 0.  1.
         13    1    4    4    0    0  0.36349223442E+03 -0.12716884555E+03  0.15816624880E+03  0.41631129360E+03  0.10566000000E+00 0. -1.
         -4    1    4    4    0  503 -0.14245402432E+03  0.48236826178E+03 -0.52240016834E+03  0.72517185887E+03  0.00000000000E+00 0. -1.
<mgrwt>
<rscale>  2 0.10813585E+04</rscale>
<asrwt>0</asrwt>
<pdfrwt beam="1">  1       21 0.87769116E-01 0.10818121E+04</pdfrwt>
<pdfrwt beam="2">  1       21 0.36248575E+00 0.10818121E+04</pdfrwt>
<totfact> 0.53143445E+00</totfact>
</mgrwt>
</event>
<event>
 8    1  0.7418332E-006  0.1101085E+04  0.7818608E-02  0.8686306E-01
         21   -1    0    0  503  502  0.00000000000E+00  0.00000000000E+00  0.15554786921E+04  0.15554786921E+04  0.00000000000E+00 0.  1.
         21   -1    0    0  501  503 -0.00000000000E+00 -0.00000000000E+00 -0.13064604504E+04  0.13064604504E+04  0.00000000000E+00 0. -1.
    9000010    2    1    2  501    0  0.11872956262E+03  0.41607075597E+03 -0.78788363000E+03  0.13539384494E+04  0.10125103097E+04 0.  0.
   -9000010    2    1    2    0  502 -0.11872956262E+03 -0.41607075597E+03  0.10369018717E+04  0.15080006930E+04  0.10058275278E+04 0.  0.
        -13    1    3    3    0    0  0.54825109742E+03  0.37763605577E+03 -0.42032994447E+03  0.78731539412E+03  0.10566000000E+00 0.  1.
          4    1    3    3  501    0 -0.42952153480E+03  0.38434700208E+02 -0.36755368553E+03  0.56662305529E+03  0.00000000000E+00 0.  1.
         13    1    4    4    0    0  0.36607023327E+03 -0.34243837461E+03  0.84283790351E+03  0.98063611949E+03  0.10566000000E+00 0. -1.
         -4    1    4    4    0  502 -0.48479979589E+03 -0.73632381370E+02  0.19406396820E+03  0.52736457355E+03  0.00000000000E+00 0. -1.
<mgrwt>
<rscale>  2 0.10995465E+04</rscale>
<asrwt>0</asrwt>
<pdfrwt beam="1">  1       21 0.23930441E+00 0.11010852E+04</pdfrwt>
<pdfrwt beam="2">  1       21 0.20099391E+00 0.11010852E+04</pdfrwt>
<totfact> 0.33967104E+00</totfact>
</mgrwt>
</event>
<event>
 8    1  0.7418332E-006  0.1034626E+04  0.7818608E-02  0.8749985E-01
         21   -1    0    0  503  502  0.00000000000E+00  0.00000000000E+00  0.22502030411E+04  0.22502030411E+04  0.00000000000E+00 0.  1.
         21   -1    0    0  501  503 -0.00000000000E+00 -0.00000000000E+00 -0.79663730380E+03  0.79663730380E+03  0.00000000000E+00 0.  1.
    9000010    2    1    2  501    0  0.67101022606E+02  0.42983225614E+02 -0.26816240542E+03  0.10381596267E+04  0.99975708549E+03 0.  0.
   -9000010    2    1    2    0  502 -0.67101022606E+02 -0.42983225614E+02  0.17217281427E+04  0.20086807182E+04  0.10315523861E+04 0.  0.
        -13    1    3    3    0    0 -0.43266943867E+03 -0.13598607694E+03 -0.22299478724E+03  0.50539266178E+03  0.10566000000E+00 0.  1.
          4    1    3    3  501    0  0.49977046127E+03  0.17896930256E+03 -0.45167618179E+02  0.53276696496E+03  0.00000000000E+00 0.  1.
         13    1    4    4    0    0 -0.39232262472E+03  0.31185167939E+03  0.56181603478E+03  0.75286504761E+03  0.10566000000E+00 0. -1.
         -4    1    4    4    0  502  0.32522160211E+03 -0.35483490501E+03  0.11599121080E+04  0.12558156706E+04  0.00000000000E+00 0. -1.
<mgrwt>
<rscale>  2 0.10266086E+04</rscale>
<asrwt>0</asrwt>
<pdfrwt beam="1">  1       21 0.34618508E+00 0.10346257E+04</pdfrwt>
<pdfrwt beam="2">  1       21 0.12255959E+00 0.10346257E+04</pdfrwt>
<totfact> 0.28761614E+00</totfact>
</mgrwt>
</event>
<event>
 8    1  0.7418332E-006  0.1024942E+04  0.7818608E-02  0.8752720E-01
         21   -1    0    0  503  502  0.00000000000E+00  0.00000000000E+00  0.97424725231E+03  0.97424725231E+03  0.00000000000E+00 0. -1.
         21   -1    0    0  501  503 -0.00000000000E+00 -0.00000000000E+00 -0.10883427489E+04  0.10883427489E+04  0.00000000000E+00 0. -1.
    9000010    2    1    2  501    0 -0.52793586519E+02 -0.47894005368E+02 -0.18060536727E+03  0.10354924797E+04  0.10171260385E+04 0.  0.
   -9000010    2    1    2    0  502  0.52793586519E+02  0.47894005368E+02  0.66509870731E+02  0.10270975215E+04  0.10224601494E+04 0.  0.
        -13    1    3    3    0    0  0.34710702322E+03 -0.12864913828E+03  0.24658237135E+03  0.44478844789E+03  0.10566000000E+00 0.  1.
          4    1    3    3  501    0 -0.39990060974E+03  0.80755132912E+02 -0.42718773862E+03  0.59070403181E+03  0.00000000000E+00 0.  1.
         13    1    4    4    0    0  0.20210500249E+03  0.49935500127E+03  0.10924679221E+03  0.54966964815E+03  0.10566000000E+00 0. -1.
         -4    1    4    4    0  502 -0.14931141597E+03 -0.45146099591E+03 -0.42736921479E+02  0.47742787332E+03  0.00000000000E+00 0. -1.
<mgrwt>
<rscale>  2 0.10236090E+04</rscale>
<asrwt>0</asrwt>
<pdfrwt beam="1">  1       21 0.14988419E+00 0.10249418E+04</pdfrwt>
<pdfrwt beam="2">  1       21 0.16743735E+00 0.10249418E+04</pdfrwt>
<totfact> 0.33381013E+01</totfact>
</mgrwt>
</event>
<event>
 8    1  0.7418332E-006  0.9939454E+03  0.7818608E-02  0.8780863E-01
         21   -1    0    0  503  502  0.00000000000E+00  0.00000000000E+00  0.80404518093E+03  0.80404518093E+03  0.00000000000E+00 0. -1.
         21   -1    0    0  501  503 -0.00000000000E+00 -0.00000000000E+00 -0.34429845429E+04  0.34429845429E+04  0.00000000000E+00 0. -1.
    9000010    2    1    2  501    0 -0.58926888053E+02  0.16159112856E+02 -0.30229965236E+04  0.31814654144E+04  0.98968717604E+03 0.  0.
   -9000010    2    1    2    0  502  0.58926888053E+02 -0.16159112856E+02  0.38405716162E+03  0.10655643094E+04  0.99206547114E+03 0.  0.
        -13    1    3    3    0    0 -0.35978707271E+03 -0.14955056087E+02 -0.38871758461E+03  0.52987900802E+03  0.10566000000E+00 0.  1.
          4    1    3    3  501    0  0.30086018466E+03  0.31114168943E+02 -0.26342789390E+04  0.26515864064E+04  0.00000000000E+00 0.  1.
         13    1    4    4    0    0  0.19614163353E+03 -0.82123417063E+02 -0.29835439726E+03  0.36637570002E+03  0.10566000000E+00 0. -1.
         -4    1    4    4    0  502 -0.13721474547E+03  0.65964304208E+02  0.68241155889E+03  0.69918860939E+03  0.00000000000E+00 0. -1.
<mgrwt>
<rscale>  2 0.99335139E+03</rscale>
<asrwt>0</asrwt>
<pdfrwt beam="1">  1       21 0.12369926E+00 0.99394537E+03</pdfrwt>
<pdfrwt beam="2">  1       21 0.52968993E+00 0.99394537E+03</pdfrwt>
<totfact> 0.14880315E-01</totfact>
</mgrwt>
</event>
<event>
 8    1  0.7418332E-006  0.1113746E+04  0.7818608E-02  0.8680906E-01
         21   -1    0    0  503  502  0.00000000000E+00  0.00000000000E+00  0.15214772489E+04  0.15214772489E+04  0.00000000000E+00 0. -1.
         21   -1    0    0  501  503 -0.00000000000E+00 -0.00000000000E+00 -0.83794494804E+03  0.83794494804E+03  0.00000000000E+00 0. -1.
    9000010    2    1    2  501    0 -0.10960798274E+03  0.46792177046E+03  0.61934062176E+03  0.12743677210E+04  0.10047216477E+04 0.  0.
   -9000010    2    1    2    0  502  0.10960798274E+03 -0.46792177046E+03  0.64191679069E+02  0.10850544759E+04  0.97069972234E+03 0.  0.
        -13    1    3    3    0    0 -0.29279202051E+03  0.64268790471E+03  0.71380702020E+03  0.10041391255E+04  0.10566000000E+00 0.  1.
          4    1    3    3  501    0  0.18318403776E+03 -0.17476613425E+03 -0.94466398432E+02  0.27022859546E+03  0.00000000000E+00 0.  1.
         13    1    4    4    0    0  0.21041490028E+03 -0.71374841664E+03  0.22137409253E+03  0.77634897599E+03  0.10566000000E+00 0. -1.
         -4    1    4    4    0  502 -0.10080691753E+03  0.24582664619E+03 -0.15718241346E+03  0.30870549995E+03  0.00000000000E+00 0. -1.
<mgrwt>
<rscale>  2 0.11060180E+04</rscale>
<asrwt>0</asrwt>
<pdfrwt beam="1">  1       21 0.23407342E+00 0.11137461E+04</pdfrwt>
<pdfrwt beam="2">  1       21 0.12891461E+00 0.11137461E+04</pdfrwt>
<totfact> 0.15401878E+01</totfact>
</mgrwt>
</event>
<event>
 8    1  0.7418332E-006  0.1008224E+04  0.7818608E-02  0.8768524E-01
         21   -1    0    0  503  502  0.00000000000E+00  0.00000000000E+00  0.51090512049E+03  0.51090512049E+03  0.00000000000E+00 0. -1.
         21   -1    0    0  501  503 -0.00000000000E+00 -0.00000000000E+00 -0.20020422251E+04  0.20020422251E+04  0.00000000000E+00 0. -1.
    9000010    2    1    2  501    0 -0.29431289436E+02  0.56379101391E+02 -0.89153803450E+03  0.13458664923E+04  0.10062165494E+04 0.  0.
   -9000010    2    1    2    0  502  0.29431289436E+02 -0.56379101391E+02 -0.59959907009E+03  0.11670808533E+04  0.99925665837E+03 0.  0.
        -13    1    3    3    0    0 -0.12551238157E+03 -0.17917829290E+03 -0.10322284973E+04  0.10551558654E+04  0.10566000000E+00 0.  1.
          4    1    3    3  501    0  0.96081092130E+02  0.23555739429E+03  0.14069046279E+03  0.29071062689E+03  0.00000000000E+00 0.  1.
         13    1    4    4    0    0  0.49516503118E+03  0.10792779121E+03 -0.28312379269E+03  0.58051348767E+03  0.10566000000E+00 0. -1.
         -4    1    4    4    0  502 -0.46573374174E+03 -0.16430689260E+03 -0.31647527740E+03  0.58656736558E+03  0.00000000000E+00 0. -1.
<mgrwt>
<rscale>  2 0.10064835E+04</rscale>
<asrwt>0</asrwt>
<pdfrwt beam="1">  1       21 0.78600787E-01 0.10082245E+04</pdfrwt>
<pdfrwt beam="2">  1       21 0.30800650E+00 0.10082245E+04</pdfrwt>
<totfact> 0.17149044E+01</totfact>
</mgrwt>
</event>
<event>
 8    1  0.7418332E-006  0.9988794E+03  0.7818608E-02  0.8776485E-01
         21   -1    0    0  503  502  0.00000000000E+00  0.00000000000E+00  0.20798632994E+04  0.20798632994E+04  0.00000000000E+00 0.  1.
         21   -1    0    0  501  503 -0.00000000000E+00 -0.00000000000E+00 -0.57420740934E+03  0.57420740934E+03  0.00000000000E+00 0.  1.
    9000010    2    1    2  501    0  0.64572942029E+02  0.76875916630E+02  0.20855532848E+03  0.10169299351E+04  0.99023815141E+03 0.  0.
   -9000010    2    1    2    0  502 -0.64572942029E+02 -0.76875916630E+02  0.12971005616E+04  0.16371407736E+04  0.99382114807E+03 0.  0.
        -13    1    3    3    0    0 -0.26284239554E+03  0.26829739127E+03 -0.22741687019E+03  0.43907637043E+03  0.10566000000E+00 0.  1.
          4    1    3    3  501    0  0.32741533757E+03 -0.19142147464E+03  0.43597219866E+03  0.57785356470E+03  0.00000000000E+00 0.  1.
         13    1    4    4    0    0 -0.26022084581E+03 -0.46175447684E+03  0.49005096545E+03  0.72186012868E+03  0.10566000000E+00 0. -1.
         -4    1    4    4    0  502  0.19564790378E+03  0.38487856021E+03  0.80704959611E+03  0.91528064491E+03  0.00000000000E+00 0. -1.
<mgrwt>
<rscale>  2 0.99798700E+03</rscale>
<asrwt>0</asrwt>
<pdfrwt beam="1">  1       21 0.31997897E+00 0.99887939E+03</pdfrwt>
<pdfrwt beam="2">  1       21 0.88339602E-01 0.99887939E+03</pdfrwt>
<totfact> 0.10586521E+01</totfact>
</mgrwt>
</event>
<event>
 8    1  0.7418332E-006  0.1166253E+04  0.7818608E-02  0.8636518E-01
         21   -1    0    0  501  502  0.00000000000E+00  0.00000000000E+00  0.24253487183E+04  0.24253487183E+04  0.00000000000E+00 0. -1.
         21   -1    0    0  502  503 -0.00000000000E+00 -0.00000000000E+00 -0.70676236522E+03  0.70676236522E+03  0.00000000000E+00 0.  1.
    9000010    2    1    2  501    0  0.54538798738E+03  0.15713195807E+03  0.15888355106E+04  0.19586626597E+04  0.99489829908E+03 0.  0.
   -9000010    2    1    2    0  503 -0.54538798738E+03 -0.15713195807E+03  0.12975084243E+03  0.11734484238E+04  0.10188264883E+04 0.  0.
        -13    1    3    3    0    0  0.25866765828E+03  0.28724684513E+03  0.15975794165E+04  0.16436787127E+04  0.10566000000E+00 0.  1.
          4    1    3    3  501    0  0.28672032910E+03 -0.13011488706E+03 -0.87439058565E+01  0.31498394696E+03  0.00000000000E+00 0.  1.
         13    1    4    4    0    0 -0.31466364186E+03 -0.57920519144E+03  0.19648659710E+03  0.68782181945E+03  0.10566000000E+00 0. -1.
         -4    1    4    4    0  503 -0.23072434551E+03  0.42207323337E+03 -0.66735754665E+02  0.48562660439E+03  0.00000000000E+00 0. -1.
<mgrwt>
<rscale>  2 0.11610066E+04</rscale>
<asrwt>0</asrwt>
<pdfrwt beam="1">  1       21 0.37313057E+00 0.11662529E+04</pdfrwt>
<pdfrwt beam="2">  1       21 0.10873267E+00 0.11662529E+04</pdfrwt>
<totfact> 0.25132582E+00</totfact>
</mgrwt>
</event>
<event>
 8    1  0.7418332E-006  0.1036446E+04  0.7818608E-02  0.8752296E-01
         21   -1    0    0  501  502  0.00000000000E+00  0.00000000000E+00  0.84663628471E+03  0.84663628471E+03  0.00000000000E+00 0. -1.
         21   -1    0    0  502  503 -0.00000000000E+00 -0.00000000000E+00 -0.15764748151E+04  0.15764748151E+04  0.00000000000E+00 0. -1.
    9000010    2    1    2  501    0  0.27406880236E+01 -0.26994687843E+03  0.22582584757E+03  0.10133187371E+04  0.95023087768E+03 0.  0.
   -9000010    2    1    2    0  503 -0.27406880236E+01  0.26994687843E+03 -0.95566437802E+03  0.14097923628E+04  0.10006704124E+04 0.  0.
        -13    1    3    3    0    0  0.28434330774E+03  0.10882238953E+03  0.40655582842E+03  0.50791838115E+03  0.10566000000E+00 0.  1.
          4    1    3    3  501    0 -0.28160261971E+03 -0.37876926796E+03 -0.18072998085E+03  0.50540035592E+03  0.00000000000E+00 0.  1.
         13    1    4    4    0    0  0.40447461912E+03  0.42611290263E+03 -0.43750788507E+03  0.73251968162E+03  0.10566000000E+00 0. -1.
         -4    1    4    4    0  503 -0.40721530714E+03 -0.15616602420E+03 -0.51815649294E+03  0.67727268117E+03  0.00000000000E+00 0. -1.
<mgrwt>
<rscale>  2 0.10240733E+04</rscale>
<asrwt>0</asrwt>
<pdfrwt beam="1">  1       21 0.13025174E+00 0.10364459E+04</pdfrwt>
<pdfrwt beam="2">  1       21 0.24253459E+00 0.10364459E+04</pdfrwt>
<totfact> 0.13180169E+01</totfact>
</mgrwt>
</event>
<event>
 8    1  0.7418332E-006  0.1061028E+04  0.7818608E-02  0.8723386E-01
         21   -1    0    0  503  502  0.00000000000E+00  0.00000000000E+00  0.11477497440E+04  0.11477497440E+04  0.00000000000E+00 0. -1.
         21   -1    0    0  501  503 -0.00000000000E+00 -0.00000000000E+00 -0.10828094437E+04  0.10828094437E+04  0.00000000000E+00 0. -1.
    9000010    2    1    2  501    0 -0.29321444527E+03  0.47977999832E+02 -0.33715831371E+03  0.11133091140E+04  0.10185798228E+04 0.  0.
   -9000010    2    1    2    0  502  0.29321444527E+03 -0.47977999832E+02  0.40209861393E+03  0.11172500737E+04  0.99914354945E+03 0.  0.
        -13    1    3    3    0    0 -0.39698582600E+03  0.15086294648E+03 -0.64516496716E+03  0.77239576687E+03  0.10566000000E+00 0.  1.
          4    1    3    3  501    0  0.10377138073E+03 -0.10288494665E+03  0.30800665345E+03  0.34091334716E+03  0.00000000000E+00 0.  1.
         13    1    4    4    0    0  0.46638482707E+03  0.36233289318E+03  0.16752195968E+03  0.61389213266E+03  0.10566000000E+00 0. -1.
         -4    1    4    4    0  502 -0.17317038180E+03 -0.41031089302E+03  0.23457665424E+03  0.50335794101E+03  0.00000000000E+00 0. -1.
<mgrwt>
<rscale>  2 0.10563363E+04</rscale>
<asrwt>0</asrwt>
<pdfrwt beam="1">  1       21 0.17657688E+00 0.10610285E+04</pdfrwt>
<pdfrwt beam="2">  1       21 0.16658607E+00 0.10610285E+04</pdfrwt>
<totfact> 0.19895841E+01</totfact>
</mgrwt>
</event>
<event>
 8    1  0.7418332E-006  0.1081292E+04  0.7818608E-02  0.8718882E-01
         21   -1    0    0  501  502  0.00000000000E+00  0.00000000000E+00  0.17989267257E+04  0.17989267257E+04  0.00000000000E+00 0.  1.
         21   -1    0    0  502  503 -0.00000000000E+00 -0.00000000000E+00 -0.60782970461E+03  0.60782970461E+03  0.00000000000E+00 0.  1.
    9000010    2    1    2  501    0  0.77565082946E+02 -0.97122494655E+02  0.70764092312E+03  0.12922645142E+04  0.10741241910E+04 0.  0.
   -9000010    2    1    2    0  503 -0.77565082946E+02  0.97122494655E+02  0.48345609799E+03  0.11144919161E+04  0.99645035567E+03 0.  0.
        -13    1    3    3    0    0 -0.28498716898E+03  0.37092412043E+03  0.18663888502E+03  0.50362334553E+03  0.10566000000E+00 0.  1.
          4    1    3    3  501    0  0.36255225192E+03 -0.46804661509E+03  0.52100203811E+03  0.78864116871E+03  0.00000000000E+00 0.  1.
         13    1    4    4    0    0 -0.43069857764E+03 -0.10775191766E+03 -0.45509731300E+02  0.44629910077E+03  0.10566000000E+00 0. -1.
         -4    1    4    4    0  503  0.35313349470E+03  0.20487441231E+03  0.52896582929E+03  0.66819281533E+03  0.00000000000E+00 0. -1.
<mgrwt>
<rscale>  2 0.10614737E+04</rscale>
<asrwt>0</asrwt>
<pdfrwt beam="1">  1       21 0.27675795E+00 0.10812918E+04</pdfrwt>
<pdfrwt beam="2">  1       21 0.93512263E-01 0.10812918E+04</pdfrwt>
<totfact> 0.18159199E+01</totfact>
</mgrwt>
</event>
<event>
 8    1  0.7418332E-006  0.1234594E+04  0.7818608E-02  0.8587924E-01
         21   -1    0    0  501  502  0.00000000000E+00  0.00000000000E+00  0.16231642827E+04  0.16231642827E+04  0.00000000000E+00 0. -1.
         21   -1    0    0  502  503 -0.00000000000E+00 -0.00000000000E+00 -0.10005635840E+04  0.10005635840E+04  0.00000000000E+00 0. -1.
    9000010    2    1    2  501    0  0.40613202560E+03 -0.58450328822E+03  0.70901392022E+03  0.14237009130E+04  0.10087795767E+04 0.  0.
   -9000010    2    1    2    0  503 -0.40613202560E+03  0.58450328822E+03 -0.86413221547E+02  0.12000269537E+04  0.96229420070E+03 0.  0.
        -13    1    3    3    0    0  0.18716683848E+03 -0.20368613305E+03  0.90231959106E+03  0.94376910407E+03  0.10566000000E+00 0.  1.
          4    1    3    3  501    0  0.21896518712E+03 -0.38081715517E+03 -0.19330567084E+03  0.47993180893E+03  0.00000000000E+00 0.  1.
         13    1    4    4    0    0 -0.42207848787E+03  0.68447205444E+03 -0.38004798703E+03  0.88943168756E+03  0.10566000000E+00 0. -1.
         -4    1    4    4    0  503  0.15946462266E+02 -0.99968766214E+02  0.29363476548E+03  0.31059526618E+03  0.00000000000E+00 0. -1.
<mgrwt>
<rscale>  2 0.12250640E+04</rscale>
<asrwt>0</asrwt>
<pdfrwt beam="1">  1       21 0.24971758E+00 0.12345945E+04</pdfrwt>
<pdfrwt beam="2">  1       21 0.15393286E+00 0.12345945E+04</pdfrwt>
<totfact> 0.67701769E+00</totfact>
</mgrwt>
</event>
<event>
 8    1  0.7418332E-006  0.1052076E+04  0.7818608E-02  0.8728867E-01
         21   -1    0    0  501  502  0.00000000000E+00  0.00000000000E+00  0.60178789155E+03  0.60178789155E+03  0.00000000000E+00 0.  1.
         21   -1    0    0  502  503 -0.00000000000E+00 -0.00000000000E+00 -0.23667942506E+04  0.23667942506E+04  0.00000000000E+00 0.  1.
    9000010    2    1    2  501    0  0.24292509635E+03  0.12472436158E+03 -0.17029395584E+03  0.10580921698E+04  0.10079634118E+04 0.  0.
   -9000010    2    1    2    0  503 -0.24292509635E+03 -0.12472436158E+03 -0.15947124032E+04  0.19104899724E+04  0.10160194471E+04 0.  0.
        -13    1    3    3    0    0 -0.20326986831E+03 -0.30013483869E+03 -0.24491990045E+03  0.43747609027E+03  0.10566000000E+00 0.  1.
          4    1    3    3  501    0  0.44619496465E+03  0.42485920026E+03  0.74625944605E+02  0.62061607950E+03  0.00000000000E+00 0.  1.
         13    1    4    4    0    0  0.16603012140E+03  0.31043203931E+03 -0.10303767198E+04  0.10888573130E+04  0.10566000000E+00 0. -1.
         -4    1    4    4    0  503 -0.40895521775E+03 -0.43515640089E+03 -0.56433568343E+03  0.82163265937E+03  0.00000000000E+00 0. -1.
<mgrwt>
<rscale>  2 0.10501263E+04</rscale>
<asrwt>0</asrwt>
<pdfrwt beam="1">  1       21 0.92582753E-01 0.10520762E+04</pdfrwt>
<pdfrwt beam="2">  1       21 0.36412219E+00 0.10520762E+04</pdfrwt>
<totfact> 0.45434589E+00</totfact>
</mgrwt>
</event>
<event>
 8    1  0.7418332E-006  0.1003630E+04  0.7818608E-02  0.8771561E-01
         21   -1    0    0  503  502  0.00000000000E+00  0.00000000000E+00  0.29855561539E+04  0.29855561539E+04  0.00000000000E+00 0.  1.
         21   -1    0    0  501  503 -0.00000000000E+00 -0.00000000000E+00 -0.39089997832E+03  0.39089997832E+03  0.00000000000E+00 0.  1.
    9000010    2    1    2  501    0  0.41727298936E+02  0.23648651716E+02  0.66866323802E+03  0.12046547231E+04  0.10008906282E+04 0.  0.
   -9000010    2    1    2    0  502 -0.41727298936E+02 -0.23648651716E+02  0.19259929375E+04  0.21718014091E+04  0.10024829869E+04 0.  0.
        -13    1    3    3    0    0 -0.15449808955E+03 -0.14510806013E+03  0.85812041995E+03  0.88390987951E+03  0.10566000000E+00 0.  1.
          4    1    3    3  501    0  0.19622538849E+03  0.16875671184E+03 -0.18945718193E+03  0.32074484355E+03  0.00000000000E+00 0.  1.
         13    1    4    4    0    0 -0.22813302728E+03 -0.39970575972E+03  0.15188748657E+04  0.15870697028E+04  0.10566000000E+00 0. -1.
         -4    1    4    4    0  502  0.18640572835E+03  0.37605710800E+03  0.40711807179E+03  0.58473170635E+03  0.00000000000E+00 0. -1.
<mgrwt>
<rscale>  2 0.10032318E+04</rscale>
<asrwt>0</asrwt>
<pdfrwt beam="1">  1       21 0.45931632E+00 0.10036297E+04</pdfrwt>
<pdfrwt beam="2">  1       21 0.60138460E-01 0.10036297E+04</pdfrwt>
<totfact> 0.28405502E+00</totfact>
</mgrwt>
</event>
<event>
 8    1  0.7418332E-006  0.1023038E+04  0.7818608E-02  0.8754061E-01
         21   -1    0    0  503  502  0.00000000000E+00  0.00000000000E+00  0.79088277369E+03  0.79088277369E+03  0.00000000000E+00 0.  1.
         21   -1    0    0  501  503 -0.00000000000E+00 -0.00000000000E+00 -0.15983553791E+04  0.15983553791E+04  0.00000000000E+00 0.  1.
    9000010    2    1    2  501    0 -0.69555417118E+02 -0.18732522818E+03 -0.90400112805E+03  0.13652199395E+04  0.10033338161E+04 0.  0.
   -9000010    2    1    2    0  502  0.69555417118E+02  0.18732522818E+03  0.96528522624E+02  0.10240182133E+04  0.99968337403E+03 0.  0.
        -13    1    3    3    0    0 -0.30742241440E+03  0.21214925460E+03 -0.80845903720E+03  0.89057390097E+03  0.10566000000E+00 0.  1.
          4    1    3    3  501    0  0.23786699728E+03 -0.39947448278E+03 -0.95542090852E+02  0.47464603855E+03  0.00000000000E+00 0.  1.
         13    1    4    4    0    0  0.10338767751E+03  0.54612036590E+03 -0.16378425263E+03  0.57944953057E+03  0.10566000000E+00 0. -1.
         -4    1    4    4    0  502 -0.33832260389E+02 -0.35879513772E+03  0.26031277526E+03  0.44456868272E+03  0.00000000000E+00 0. -1.
<mgrwt>
<rscale>  2 0.10221422E+04</rscale>
<asrwt>0</asrwt>
<pdfrwt beam="1">  1       21 0.12167427E+00 0.10230383E+04</pdfrwt>
<pdfrwt beam="2">  1       21 0.24590083E+00 0.10230383E+04</pdfrwt>
<totfact> 0.15171791E+01</totfact>
</mgrwt>
</event>
<event>
 8    1  0.7418332E-006  0.1153569E+04  0.7818608E-02  0.8655176E-01
         21   -1    0    0  503  502  0.00000000000E+00  0.00000000000E+00  0.18417167312E+04  0.18417167312E+04  0.00000000000E+00 0. -1.
         21   -1    0    0  501  503 -0.00000000000E+00 -0.00000000000E+00 -0.75966733568E+03  0.75966733568E+03  0.00000000000E+00 0. -1.
    9000010    2    1    2  501    0  0.29914423256E+03  0.36118777329E+03  0.93867671998E+03  0.14389395008E+04  0.98462633668E+03 0.  0.
   -9000010    2    1    2    0  502 -0.29914423256E+03 -0.36118777329E+03  0.14337267555E+03  0.11624445661E+04  0.10539344219E+04 0.  0.
        -13    1    3    3    0    0 -0.24850909053E+01  0.66335784838E+03  0.55463322313E+03  0.86467787878E+03  0.10566000000E+00 0.  1.
          4    1    3    3  501    0  0.30162932346E+03 -0.30217007509E+03  0.38404349685E+03  0.57426162202E+03  0.00000000000E+00 0.  1.
         13    1    4    4    0    0 -0.21887236667E+03  0.30185768686E+03  0.29750476083E+03  0.47700342755E+03  0.10566000000E+00 0. -1.
         -4    1    4    4    0  502 -0.80271865885E+02 -0.66304546015E+03 -0.15413208528E+03  0.68544113853E+03  0.00000000000E+00 0. -1.
<mgrwt>
<rscale>  2 0.11374968E+04</rscale>
<asrwt>0</asrwt>
<pdfrwt beam="1">  1       21 0.28334103E+00 0.11535691E+04</pdfrwt>
<pdfrwt beam="2">  1       21 0.11687190E+00 0.11535691E+04</pdfrwt>
<totfact> 0.88644385E+00</totfact>
</mgrwt>
</event>
<event>
 8    1  0.7418332E-006  0.1045161E+04  0.7818608E-02  0.8734649E-01
         21   -1    0    0  501  502  0.00000000000E+00  0.00000000000E+00  0.21287500164E+04  0.21287500164E+04  0.00000000000E+00 0.  1.
         21   -1    0    0  502  503 -0.00000000000E+00 -0.00000000000E+00 -0.58755167015E+03  0.58755167015E+03  0.00000000000E+00 0.  1.
    9000010    2    1    2  501    0 -0.23739856794E+02  0.28319456462E+03  0.12655525595E+04  0.16413365843E+04  0.10057831575E+04 0.  0.
   -9000010    2    1    2    0  503  0.23739856794E+02 -0.28319456462E+03  0.27564578677E+03  0.10749651023E+04  0.99940313644E+03 0.  0.
        -13    1    3    3    0    0  0.89512856330E+02  0.65076312347E+03  0.86320748770E+03  0.10847268653E+04  0.10566000000E+00 0.  1.
          4    1    3    3  501    0 -0.11325271312E+03 -0.36756855885E+03  0.40234507183E+03  0.55660971902E+03  0.00000000000E+00 0.  1.
         13    1    4    4    0    0  0.12326230034E+03 -0.51552860156E+03 -0.17506503994E+03  0.55822138358E+03  0.10566000000E+00 0. -1.
         -4    1    4    4    0  503 -0.99522443550E+02  0.23233403695E+03  0.45071082671E+03  0.51674371869E+03  0.00000000000E+00 0. -1.
<mgrwt>
<rscale>  2 0.10436235E+04</rscale>
<asrwt>0</asrwt>
<pdfrwt beam="1">  1       21 0.32750000E+00 0.10451615E+04</pdfrwt>
<pdfrwt beam="2">  1       21 0.90392566E-01 0.10451615E+04</pdfrwt>
<totfact> 0.87416980E+00</totfact>
</mgrwt>
</event>
<event>
 8    1  0.7418332E-006  0.1006318E+04  0.7818608E-02  0.8846204E-01
         21   -1    0    0  503  502  0.00000000000E+00  0.00000000000E+00  0.72603026204E+03  0.72603026204E+03  0.00000000000E+00 0. -1.
         21   -1    0    0  501  503 -0.00000000000E+00 -0.00000000000E+00 -0.10455390844E+04  0.10455390844E+04  0.00000000000E+00 0. -1.
    9000010    2    1    2  501    0 -0.44345018331E+02 -0.12290406017E+03 -0.35885808492E+02  0.72604656839E+03  0.71329092211E+03 0.  0.
   -9000010    2    1    2    0  502  0.44345018331E+02  0.12290406017E+03 -0.28362301389E+03  0.10455227781E+04  0.99779956746E+03 0.  0.
        -13    1    3    3    0    0  0.23368869330E+03 -0.24556052230E+03  0.14905454260E+03  0.37030749833E+03  0.10566000000E+00 0.  1.
          4    1    3    3  501    0 -0.27803371163E+03  0.12265646214E+03 -0.18494035109E+03  0.35573907006E+03  0.00000000000E+00 0.  1.
         13    1    4    4    0    0  0.33452603874E+03 -0.32898947124E+03 -0.12549039130E+03  0.48568466339E+03  0.10566000000E+00 0. -1.
         -4    1    4    4    0  502 -0.29018102041E+03  0.45189353140E+03 -0.15813262259E+03  0.55983811469E+03  0.00000000000E+00 0. -1.
<mgrwt>
<rscale>  2 0.92717083E+03</rscale>
<asrwt>0</asrwt>
<pdfrwt beam="1">  1       21 0.11169696E+00 0.10063180E+04</pdfrwt>
<pdfrwt beam="2">  1       21 0.16085217E+00 0.10063180E+04</pdfrwt>
<totfact> 0.89159121E+01</totfact>
</mgrwt>
</event>
<event>
 8    1  0.7418332E-006  0.1035764E+04  0.7818608E-02  0.8742330E-01
         21   -1    0    0  503  502  0.00000000000E+00  0.00000000000E+00  0.10598789738E+04  0.10598789738E+04  0.00000000000E+00 0.  1.
         21   -1    0    0  501  503 -0.00000000000E+00 -0.00000000000E+00 -0.14916643978E+04  0.14916643978E+04  0.00000000000E+00 0.  1.
    9000010    2    1    2  501    0  0.14969274792E+03  0.23457287380E+03 -0.94106094631E+03  0.13973469810E+04  0.99476154362E+03 0.  0.
   -9000010    2    1    2    0  502 -0.14969274792E+03 -0.23457287380E+03  0.50927552225E+03  0.11541963906E+04  0.99768501972E+03 0.  0.
        -13    1    3    3    0    0 -0.32195336411E+03  0.17646706886E+03 -0.83254254785E+03  0.90990202780E+03  0.10566000000E+00 0.  1.
          4    1    3    3  501    0  0.47164611204E+03  0.58105804937E+02 -0.10851839846E+03  0.48744495317E+03  0.00000000000E+00 0.  1.
         13    1    4    4    0    0 -0.52901241518E+03 -0.17050248129E+03  0.53126695027E+03  0.76887568251E+03  0.10566000000E+00 0. -1.
         -4    1    4    4    0  502  0.37931966726E+03 -0.64070392509E+02 -0.21991428022E+02  0.38532070807E+03  0.00000000000E+00 0. -1.
<mgrwt>
<rscale>  2 0.10350597E+04</rscale>
<asrwt>0</asrwt>
<pdfrwt beam="1">  1       21 0.16305830E+00 0.10357643E+04</pdfrwt>
<pdfrwt beam="2">  1       21 0.22948683E+00 0.10357643E+04</pdfrwt>
<totfact> 0.83073504E+00</totfact>
</mgrwt>
</event>
<event>
 8    1  0.7418332E-006  0.1047062E+04  0.7818608E-02  0.8733041E-01
         21   -1    0    0  501  502  0.00000000000E+00  0.00000000000E+00  0.23989691292E+04  0.23989691292E+04  0.00000000000E+00 0. -1.
         21   -1    0    0  502  503 -0.00000000000E+00 -0.00000000000E+00 -0.47830893729E+03  0.47830893729E+03  0.00000000000E+00 0. -1.
    9000010    2    1    2  501    0  0.31995588150E+03  0.14394810560E+01  0.63993438643E+03  0.12271326028E+04  0.99697771670E+03 0.  0.
   -9000010    2    1    2    0  503 -0.31995588150E+03 -0.14394810560E+01  0.12807258055E+04  0.16501454638E+04  0.99012505496E+03 0.  0.
        -13    1    3    3    0    0 -0.95335078025E+01 -0.43333984924E+03  0.71542601984E+02  0.43930930763E+03  0.10566000000E+00 0.  1.
          4    1    3    3  501    0  0.32948938930E+03  0.43477933029E+03  0.56839178444E+03  0.78782329512E+03  0.00000000000E+00 0.  1.
         13    1    4    4    0    0  0.16840368650E+03  0.38168042673E+03  0.57316511049E+03  0.70891325621E+03  0.10566000000E+00 0. -1.
         -4    1    4    4    0  503 -0.48835956800E+03 -0.38311990778E+03  0.70756069501E+03  0.94123220755E+03  0.00000000000E+00 0. -1.
<mgrwt>
<rscale>  2 0.10454273E+04</rscale>
<asrwt>0</asrwt>
<pdfrwt beam="1">  1       21 0.36907217E+00 0.10470618E+04</pdfrwt>
<pdfrwt beam="2">  1       21 0.73585992E-01 0.10470618E+04</pdfrwt>
<totfact> 0.74251912E+00</totfact>
</mgrwt>
</event>
<event>
 8    1  0.7418332E-006  0.1035918E+04  0.7818608E-02  0.8764358E-01
         21   -1    0    0  501  502  0.00000000000E+00  0.00000000000E+00  0.20274649628E+04  0.20274649628E+04  0.00000000000E+00 0. -1.
         21   -1    0    0  502  503 -0.00000000000E+00 -0.00000000000E+00 -0.52593320967E+03  0.52593320967E+03  0.00000000000E+00 0. -1.
    9000010    2    1    2  501    0  0.12804089948E+03  0.26864159571E+03  0.11559641818E+04  0.15522175159E+04  0.99225160529E+03 0.  0.
   -9000010    2    1    2    0  503 -0.12804089948E+03 -0.26864159571E+03  0.34556757132E+03  0.10011806565E+04  0.89128165123E+03 0.  0.
        -13    1    3    3    0    0  0.17939699001E+03  0.61404025595E+03  0.51084044700E+03  0.81864930795E+03  0.10566000000E+00 0.  1.
          4    1    3    3  501    0 -0.51356090531E+02 -0.34539866024E+03  0.64512373477E+03  0.73356820793E+03  0.00000000000E+00 0.  1.
         13    1    4    4    0    0 -0.36996707340E+02 -0.34746789603E+03 -0.22660223082E+03  0.41647482193E+03  0.10566000000E+00 0. -1.
         -4    1    4    4    0  503 -0.91044192143E+02  0.78826300323E+02  0.57216980215E+03  0.58470583462E+03  0.00000000000E+00 0. -1.
<mgrwt>
<rscale>  2 0.10109642E+04</rscale>
<asrwt>0</asrwt>
<pdfrwt beam="1">  1       21 0.31191768E+00 0.10359180E+04</pdfrwt>
<pdfrwt beam="2">  1       21 0.80912803E-01 0.10359180E+04</pdfrwt>
<totfact> 0.14904091E+01</totfact>
</mgrwt>
</event>
<event>
 8    1  0.7418332E-006  0.1030430E+04  0.7818608E-02  0.8751747E-01
         21   -1    0    0  503  502  0.00000000000E+00  0.00000000000E+00  0.76215584656E+03  0.76215584656E+03  0.00000000000E+00 0.  1.
         21   -1    0    0  501  503 -0.00000000000E+00 -0.00000000000E+00 -0.18245856233E+04  0.18245856233E+04  0.00000000000E+00 0.  1.
    9000010    2    1    2  501    0  0.33196148817E+02  0.17794976741E+03 -0.11865506271E+04  0.15715240059E+04  0.10144048532E+04 0.  0.
   -9000010    2    1    2    0  502 -0.33196148817E+02 -0.17794976741E+03  0.12412085034E+03  0.10152174640E+04  0.99120755130E+03 0.  0.
        -13    1    3    3    0    0  0.42103658291E+03  0.24657481153E+03 -0.10444668579E+04  0.11528148031E+04  0.10566000000E+00 0.  1.
          4    1    3    3  501    0 -0.38784043410E+03 -0.68625044116E+02 -0.14208376920E+03  0.41870920275E+03  0.00000000000E+00 0.  1.
         13    1    4    4    0    0  0.83239689493E+02  0.11143548624E+02 -0.41958663376E+03  0.42790884424E+03  0.10566000000E+00 0. -1.
         -4    1    4    4    0  502 -0.11643583831E+03 -0.18909331604E+03  0.54370748410E+03  0.58730861979E+03  0.00000000000E+00 0. -1.
<mgrwt>
<rscale>  2 0.10246746E+04</rscale>
<asrwt>0</asrwt>
<pdfrwt beam="1">  1       21 0.11725475E+00 0.10304297E+04</pdfrwt>
<pdfrwt beam="2">  1       21 0.28070548E+00 0.10304297E+04</pdfrwt>
<totfact> 0.94298057E+00</totfact>
</mgrwt>
</event>
<event>
 8    1  0.7418332E-006  0.1066727E+04  0.7818608E-02  0.8717816E-01
         21   -1    0    0  503  502  0.00000000000E+00  0.00000000000E+00  0.15326471411E+04  0.15326471411E+04  0.00000000000E+00 0.  1.
         21   -1    0    0  501  503 -0.00000000000E+00 -0.00000000000E+00 -0.86151787131E+03  0.86151787131E+03  0.00000000000E+00 0.  1.
    9000010    2    1    2  501    0 -0.19464438852E+03 -0.30290201991E+03 -0.12762570484E+03  0.10743344942E+04  0.10041265923E+04 0.  0.
   -9000010    2    1    2    0  502  0.19464438852E+03  0.30290201991E+03  0.79875497466E+03  0.13198305182E+04  0.98706991423E+03 0.  0.
        -13    1    3    3    0    0  0.31727109017E+03  0.74202256930E+02 -0.26954150847E+03  0.42287061324E+03  0.10566000000E+00 0.  1.
          4    1    3    3  501    0 -0.51191547868E+03 -0.37710427684E+03  0.14191580364E+03  0.65146388100E+03  0.00000000000E+00 0.  1.
         13    1    4    4    0    0  0.59875259586E+03  0.22184551081E+03  0.48521024862E+03  0.80196577125E+03  0.10566000000E+00 0. -1.
         -4    1    4    4    0  502 -0.40410820734E+03  0.81056509098E+02  0.31354472604E+03  0.51786474695E+03  0.00000000000E+00 0. -1.
<mgrwt>
<rscale>  2 0.10626941E+04</rscale>
<asrwt>0</asrwt>
<pdfrwt beam="1">  1       21 0.23579187E+00 0.10667269E+04</pdfrwt>
<pdfrwt beam="2">  1       21 0.13254121E+00 0.10667269E+04</pdfrwt>
<totfact> 0.13947320E+01</totfact>
</mgrwt>
</event>
<event>
 8    1  0.7418332E-006  0.1007049E+04  0.7818608E-02  0.8777739E-01
         21   -1    0    0  503  502  0.00000000000E+00  0.00000000000E+00  0.15785976525E+04  0.15785976525E+04  0.00000000000E+00 0. -1.
         21   -1    0    0  501  503 -0.00000000000E+00 -0.00000000000E+00 -0.69429342083E+03  0.69429342083E+03  0.00000000000E+00 0. -1.
    9000010    2    1    2  501    0  0.28653993296E+02 -0.14348646060E+03  0.53889610493E+02  0.96761850985E+03  0.95497229006E+03 0.  0.
   -9000010    2    1    2    0  502 -0.28653993296E+02  0.14348646060E+03  0.83041462118E+03  0.13052725635E+04  0.99636268807E+03 0.  0.
        -13    1    3    3    0    0 -0.14073792018E+03 -0.31562997028E+03  0.41070313044E+03  0.53675554290E+03  0.10566000000E+00 0.  1.
          4    1    3    3  501    0  0.16939191348E+03  0.17214350968E+03 -0.35681351995E+03  0.43086296695E+03  0.00000000000E+00 0.  1.
         13    1    4    4    0    0  0.18322427914E+03  0.14079588376E+03 -0.16731674268E+03  0.28528848715E+03  0.10566000000E+00 0. -1.
         -4    1    4    4    0  502 -0.21187827244E+03  0.26905768381E+01  0.99773136386E+03  0.10199840763E+04  0.00000000000E+00 0. -1.
<mgrwt>
<rscale>  2 0.99665627E+03</rscale>
<asrwt>0</asrwt>
<pdfrwt beam="1">  1       21 0.24286118E+00 0.10070492E+04</pdfrwt>
<pdfrwt beam="2">  1       21 0.10681437E+00 0.10070492E+04</pdfrwt>
<totfact> 0.22910644E+01</totfact>
</mgrwt>
</event>
<event>
 8    1  0.7418332E-006  0.1060944E+04  0.7818608E-02  0.8735092E-01
         21   -1    0    0  503  502  0.00000000000E+00  0.00000000000E+00  0.94839855540E+03  0.94839855540E+03  0.00000000000E+00 0. -1.
         21   -1    0    0  501  503 -0.00000000000E+00 -0.00000000000E+00 -0.13112235329E+04  0.13112235329E+04  0.00000000000E+00 0. -1.
    9000010    2    1    2  501    0  0.78649151784E+02 -0.87562013496E+02 -0.62857666995E+03  0.12331710988E+04  0.10543953403E+04 0.  0.
   -9000010    2    1    2    0  502 -0.78649151784E+02  0.87562013496E+02  0.26575169244E+03  0.10264509895E+04  0.98444140333E+03 0.  0.
        -13    1    3    3    0    0  0.20381086281E+03 -0.52219922983E+03 -0.16234838387E+03  0.58359910241E+03  0.10566000000E+00 0.  1.
          4    1    3    3  501    0 -0.12516171102E+03  0.43463721633E+03 -0.46622828608E+03  0.64957199637E+03  0.00000000000E+00 0.  1.
         13    1    4    4    0    0 -0.19151149477E+03 -0.27135284468E+03 -0.23007554080E+03  0.40403438540E+03  0.10566000000E+00 0. -1.
         -4    1    4    4    0  502  0.11286234299E+03  0.35891485817E+03  0.49582723324E+03  0.62241660414E+03  0.00000000000E+00 0. -1.
<mgrwt>
<rscale>  2 0.10431273E+04</rscale>
<asrwt>0</asrwt>
<pdfrwt beam="1">  1       21 0.14590747E+00 0.10609441E+04</pdfrwt>
<pdfrwt beam="2">  1       21 0.20172670E+00 0.10609441E+04</pdfrwt>
<totfact> 0.18989096E+01</totfact>
</mgrwt>
</event>
<event>
 8    1  0.7418332E-006  0.1138461E+04  0.7818608E-02  0.8669130E-01
         21   -1    0    0  503  502  0.00000000000E+00  0.00000000000E+00  0.10653037356E+04  0.10653037356E+04  0.00000000000E+00 0.  1.
         21   -1    0    0  501  503 -0.00000000000E+00 -0.00000000000E+00 -0.13663376170E+04  0.13663376170E+04  0.00000000000E+00 0.  1.
    9000010    2    1    2  501    0 -0.23467532310E+03  0.29351648857E+03  0.33788429921E+03  0.11875431817E+04  0.10746481156E+04 0.  0.
   -9000010    2    1    2    0  502  0.23467532310E+03 -0.29351648857E+03 -0.63891818058E+03  0.12440981709E+04  0.99916934554E+03 0.  0.
        -13    1    3    3    0    0 -0.45551805745E+03  0.46151747231E+03 -0.11289114463E+03  0.65820931292E+03  0.10566000000E+00 0.  1.
          4    1    3    3  501    0  0.22084273436E+03 -0.16800098374E+03  0.45077544385E+03  0.52933386877E+03  0.00000000000E+00 0.  1.
         13    1    4    4    0    0 -0.90440975060E+02  0.33278270708E+03 -0.31724921128E+03  0.46858400882E+03  0.10566000000E+00 0. -1.
         -4    1    4    4    0  502  0.32511629816E+03 -0.62629919565E+03 -0.32166896930E+03  0.77551416210E+03  0.00000000000E+00 0. -1.
<mgrwt>
<rscale>  2 0.11202911E+04</rscale>
<asrwt>0</asrwt>
<pdfrwt beam="1">  1       21 0.16389288E+00 0.11384608E+04</pdfrwt>
<pdfrwt beam="2">  1       21 0.21020579E+00 0.11384608E+04</pdfrwt>
<totfact> 0.11157070E+01</totfact>
</mgrwt>
</event>
<event>
 8    1  0.7418332E-006  0.1063899E+04  0.7818608E-02  0.8738565E-01
         21   -1    0    0  503  502  0.00000000000E+00  0.00000000000E+00  0.15046966448E+04  0.15046966448E+04  0.00000000000E+00 0. -1.
         21   -1    0    0  501  503 -0.00000000000E+00 -0.00000000000E+00 -0.14300979883E+04  0.14300979883E+04  0.00000000000E+00 0. -1.
    9000010    2    1    2  501    0 -0.11377848433E+03  0.10236578270E+03 -0.10211672120E+04  0.14075147134E+04  0.95649929247E+03 0.  0.
   -9000010    2    1    2    0  502  0.11377848433E+03 -0.10236578270E+03  0.10957658685E+04  0.15272799197E+04  0.10528327586E+04 0.  0.
        -13    1    3    3    0    0 -0.29671771849E+03 -0.19715077764E+03 -0.31705543887E+02  0.35765218617E+03  0.10566000000E+00 0.  1.
          4    1    3    3  501    0  0.18293923416E+03  0.29951656034E+03 -0.98946166815E+03  0.10498625272E+04  0.00000000000E+00 0.  1.
         13    1    4    4    0    0  0.42170285643E+03  0.32804026378E+03  0.57184639044E+03  0.78259313772E+03  0.10566000000E+00 0. -1.
         -4    1    4    4    0  502 -0.30792437210E+03 -0.43040604648E+03  0.52391947808E+03  0.74468678200E+03  0.00000000000E+00 0. -1.
<mgrwt>
<rscale>  2 0.10392473E+04</rscale>
<asrwt>0</asrwt>
<pdfrwt beam="1">  1       21 0.23149179E+00 0.10638990E+04</pdfrwt>
<pdfrwt beam="2">  1       21 0.22001507E+00 0.10638990E+04</pdfrwt>
<totfact> 0.27998992E+00</totfact>
</mgrwt>
</event>
<event>
 8    1  0.7418332E-006  0.1021087E+04  0.7818608E-02  0.8763770E-01
         21   -1    0    0  503  502  0.00000000000E+00  0.00000000000E+00  0.13010987190E+04  0.13010987190E+04  0.00000000000E+00 0. -1.
         21   -1    0    0  501  503 -0.00000000000E+00 -0.00000000000E+00 -0.95407155940E+03  0.95407155940E+03  0.00000000000E+00 0. -1.
    9000010    2    1    2  501    0 -0.21536533259E+03 -0.34997257139E+02 -0.32130770946E+03  0.10348057929E+04  0.95915449767E+03 0.  0.
   -9000010    2    1    2    0  502  0.21536533259E+03  0.34997257139E+02  0.66833486904E+03  0.12203644855E+04  0.99750235374E+03 0.  0.
        -13    1    3    3    0    0 -0.54339127472E+02  0.40657523662E+03  0.78634422327E+02  0.41765960703E+03  0.10566000000E+00 0.  1.
          4    1    3    3  501    0 -0.16102620512E+03 -0.44157249376E+03 -0.39994213179E+03  0.61714618589E+03  0.00000000000E+00 0.  1.
         13    1    4    4    0    0 -0.24295698109E+03 -0.18338929277E+03  0.64373314903E+03  0.71207591287E+03  0.10566000000E+00 0. -1.
         -4    1    4    4    0  502  0.45832231369E+03  0.21838654990E+03  0.24601720009E+02  0.50828857259E+03  0.00000000000E+00 0. -1.
<mgrwt>
<rscale>  2 0.10115982E+04</rscale>
<asrwt>0</asrwt>
<pdfrwt beam="1">  1       21 0.20016903E+00 0.10210867E+04</pdfrwt>
<pdfrwt beam="2">  1       21 0.14678024E+00 0.10210867E+04</pdfrwt>
<totfact> 0.19351806E+01</totfact>
</mgrwt>
</event>
<event>
 8    1  0.7418332E-006  0.1003133E+04  0.7818608E-02  0.8774217E-01
         21   -1    0    0  501  502  0.00000000000E+00  0.00000000000E+00  0.45306430198E+03  0.45306430198E+03  0.00000000000E+00 0.  1.
         21   -1    0    0  502  503 -0.00000000000E+00 -0.00000000000E+00 -0.22149500579E+04  0.22149500579E+04  0.00000000000E+00 0.  1.
    9000010    2    1    2  501    0  0.99737627244E+02  0.39692972318E+02 -0.75605662211E+03  0.12474620369E+04  0.98641613503E+03 0.  0.
   -9000010    2    1    2    0  503 -0.99737627244E+02 -0.39692972318E+02 -0.10058291338E+04  0.14205523229E+04  0.99737331497E+03 0.  0.
        -13    1    3    3    0    0  0.48755579383E+03  0.19632734841E+03 -0.22566232486E+03  0.57199525859E+03  0.10566000000E+00 0.  1.
          4    1    3    3  501    0 -0.38781816658E+03 -0.15663437609E+03 -0.53039429725E+03  0.67546677835E+03  0.00000000000E+00 0.  1.
         13    1    4    4    0    0 -0.17966579649E+01 -0.22802424976E+03  0.13173719462E+03  0.26334955111E+03  0.10566000000E+00 0. -1.
         -4    1    4    4    0  503 -0.97940969279E+02  0.18833127744E+03 -0.11375663284E+04  0.11572027718E+04  0.00000000000E+00 0. -1.
<mgrwt>
<rscale>  2 0.10003989E+04</rscale>
<asrwt>0</asrwt>
<pdfrwt beam="1">  1       21 0.69702200E-01 0.10031334E+04</pdfrwt>
<pdfrwt beam="2">  1       21 0.34076155E+00 0.10031334E+04</pdfrwt>
<totfact> 0.13479519E+01</totfact>
</mgrwt>
</event>
<event>
 8    1  0.7418332E-006  0.1077602E+04  0.7818608E-02  0.8707680E-01
         21   -1    0    0  501  502  0.00000000000E+00  0.00000000000E+00  0.77418515297E+03  0.77418515297E+03  0.00000000000E+00 0.  1.
         21   -1    0    0  502  503 -0.00000000000E+00 -0.00000000000E+00 -0.15290496037E+04  0.15290496037E+04  0.00000000000E+00 0.  1.
    9000010    2    1    2  501    0  0.60922605841E+02 -0.37224080078E+03 -0.58132705523E+03  0.12244044434E+04  0.10094306902E+04 0.  0.
   -9000010    2    1    2    0  503 -0.60922605841E+02  0.37224080078E+03 -0.17353739548E+03  0.10788303132E+04  0.99573331742E+03 0.  0.
        -13    1    3    3    0    0 -0.28309733863E+03  0.14514908409E+02  0.15597464818E+03  0.32354735008E+03  0.10566000000E+00 0.  1.
          4    1    3    3  501    0  0.34401994447E+03 -0.38675570919E+03 -0.73730170341E+03  0.90085709335E+03  0.00000000000E+00 0.  1.
         13    1    4    4    0    0 -0.51406176840E+03  0.31368605397E+03 -0.15358781138E+03  0.62148826952E+03  0.10566000000E+00 0. -1.
         -4    1    4    4    0  503  0.45313916256E+03  0.58554746816E+02 -0.19949584092E+02  0.45734204369E+03  0.00000000000E+00 0. -1.
<mgrwt>
<rscale>  2 0.10743821E+04</rscale>
<asrwt>0</asrwt>
<pdfrwt beam="1">  1       21 0.11910541E+00 0.10776015E+04</pdfrwt>
<pdfrwt beam="2">  1       21 0.23523840E+00 0.10776015E+04</pdfrwt>
<totfact> 0.19048108E+01</totfact>
</mgrwt>
</event>
<event>
 8    1  0.7418332E-006  0.1005182E+04  0.7818608E-02  0.8773972E-01
         21   -1    0    0  501  502  0.00000000000E+00  0.00000000000E+00  0.74893294744E+03  0.74893294744E+03  0.00000000000E+00 0.  1.
         21   -1    0    0  502  503 -0.00000000000E+00 -0.00000000000E+00 -0.14032325977E+04  0.14032325977E+04  0.00000000000E+00 0.  1.
    9000010    2    1    2  501    0 -0.25666576638E+01  0.28351231443E+02 -0.76021582952E+02  0.10080529337E+04  0.10047791080E+04 0.  0.
   -9000010    2    1    2    0  503  0.25666576638E+01 -0.28351231443E+02 -0.57827806736E+03  0.11441126115E+04  0.98680178586E+03 0.  0.
        -13    1    3    3    0    0 -0.22751054807E+03 -0.35119299655E+03  0.22388540645E+03  0.47457587032E+03  0.10566000000E+00 0.  1.
          4    1    3    3  501    0  0.22494389040E+03  0.37954422799E+03 -0.29990698940E+03  0.53347706335E+03  0.00000000000E+00 0.  1.
         13    1    4    4    0    0  0.63372528557E+02 -0.48939095973E+03 -0.16034406838E+03  0.51887360722E+03  0.10566000000E+00 0. -1.
         -4    1    4    4    0  503 -0.60805870893E+02  0.46103972829E+03 -0.41793399897E+03  0.62523900429E+03  0.00000000000E+00 0. -1.
<mgrwt>
<rscale>  2 0.10006594E+04</rscale>
<asrwt>0</asrwt>
<pdfrwt beam="1">  1       21 0.11522045E+00 0.10051823E+04</pdfrwt>
<pdfrwt beam="2">  1       21 0.21588194E+00 0.10051823E+04</pdfrwt>
<totfact> 0.29618003E+01</totfact>
</mgrwt>
</event>
<event>
 8    1  0.7418332E-006  0.1023977E+04  0.7818608E-02  0.8757216E-01
         21   -1    0    0  503  502  0.00000000000E+00  0.00000000000E+00  0.16335797800E+04  0.16335797800E+04  0.00000000000E+00 0.  1.
         21   -1    0    0  501  503 -0.00000000000E+00 -0.00000000000E+00 -0.63567677927E+03  0.63567677927E+03  0.00000000000E+00 0.  1.
    9000010    2    1    2  501    0 -0.47269210616E+02 -0.92915986541E+02  0.38605037998E+03  0.10943329988E+04  0.10186569872E+04 0.  0.
   -9000010    2    1    2    0  502  0.47269210616E+02  0.92915986541E+02  0.61185262077E+03  0.11749235605E+04  0.99760412216E+03 0.  0.
        -13    1    3    3    0    0 -0.36813141559E+03 -0.30884540628E+02 -0.20239139701E+03  0.42123257559E+03  0.10566000000E+00 0.  1.
          4    1    3    3  501    0  0.32086220497E+03 -0.62031445913E+02  0.58844177699E+03  0.67310042324E+03  0.00000000000E+00 0.  1.
         13    1    4    4    0    0  0.26339295038E+03 -0.67583436078E+02 -0.18826222261E+03  0.33073560855E+03  0.10566000000E+00 0. -1.
         -4    1    4    4    0  502 -0.21612373976E+03  0.16049942262E+03  0.80011484338E+03  0.84418795191E+03  0.00000000000E+00 0. -1.
<mgrwt>
<rscale>  2 0.10187015E+04</rscale>
<asrwt>0</asrwt>
<pdfrwt beam="1">  1       21 0.25131996E+00 0.10239774E+04</pdfrwt>
<pdfrwt beam="2">  1       21 0.97796428E-01 0.10239774E+04</pdfrwt>
<totfact> 0.24985425E+01</totfact>
</mgrwt>
</event>
<event>
 8    1  0.7418332E-006  0.1066232E+04  0.7818608E-02  0.8718388E-01
         21   -1    0    0  503  502  0.00000000000E+00  0.00000000000E+00  0.10003698695E+04  0.10003698695E+04  0.00000000000E+00 0. -1.
         21   -1    0    0  501  503 -0.00000000000E+00 -0.00000000000E+00 -0.11377021053E+04  0.11377021053E+04  0.00000000000E+00 0. -1.
    9000010    2    1    2  501    0 -0.13058786991E+03  0.32587835896E+03  0.68855966790E+02  0.10684534174E+04  0.10067778625E+04 0.  0.
   -9000010    2    1    2    0  502  0.13058786991E+03 -0.32587835896E+03 -0.20618820249E+03  0.10696185574E+04  0.98910079714E+03 0.  0.
        -13    1    3    3    0    0 -0.41794373678E+02 -0.35710425015E+03  0.11684930628E+03  0.37805288874E+03  0.10566000000E+00 0.  1.
          4    1    3    3  501    0 -0.88793496237E+02  0.68298260911E+03 -0.47993339493E+02  0.69040052864E+03  0.00000000000E+00 0.  1.
         13    1    4    4    0    0 -0.21753612626E+03  0.13614086639E+03  0.23039364456E+03  0.34487322939E+03  0.10566000000E+00 0. -1.
         -4    1    4    4    0  502  0.34812399618E+03 -0.46201922535E+03 -0.43658184706E+03  0.72474532802E+03  0.00000000000E+00 0. -1.
<mgrwt>
<rscale>  2 0.10620389E+04</rscale>
<asrwt>0</asrwt>
<pdfrwt beam="1">  1       21 0.15390306E+00 0.10662324E+04</pdfrwt>
<pdfrwt beam="2">  1       21 0.17503109E+00 0.10662324E+04</pdfrwt>
<totfact> 0.26330908E+01</totfact>
</mgrwt>
</event>
<event>
 8    1  0.7418332E-006  0.1290268E+04  0.7818608E-02  0.8542252E-01
         21   -1    0    0  501  502  0.00000000000E+00  0.00000000000E+00  0.22672424346E+04  0.22672424346E+04  0.00000000000E+00 0.  1.
         21   -1    0    0  502  503 -0.00000000000E+00 -0.00000000000E+00 -0.11779507526E+04  0.11779507526E+04  0.00000000000E+00 0.  1.
    9000010    2    1    2  501    0  0.21334263105E+03  0.76829340274E+03  0.16052465657E+04  0.20595165316E+04  0.10143973464E+04 0.  0.
   -9000010    2    1    2    0  503 -0.21334263105E+03 -0.76829340274E+03 -0.51595488371E+03  0.13856766556E+04  0.10090096733E+04 0.  0.
        -13    1    3    3    0    0  0.55334038621E+03  0.29654829399E+03  0.11884362660E+04  0.13440637050E+04  0.10566000000E+00 0.  1.
          4    1    3    3  501    0 -0.33999775515E+03  0.47174510874E+03  0.41681029972E+03  0.71545282659E+03  0.00000000000E+00 0.  1.
         13    1    4    4    0    0 -0.86960889240E+02 -0.34436753311E+03  0.29513589996E+03  0.46179693018E+03  0.10566000000E+00 0. -1.
         -4    1    4    4    0  503 -0.12638174181E+03 -0.42392586962E+03 -0.81109078367E+03  0.92387972538E+03  0.00000000000E+00 0. -1.
<mgrwt>
<rscale>  2 0.12892090E+04</rscale>
<asrwt>0</asrwt>
<pdfrwt beam="1">  1       21 0.34880653E+00 0.12902681E+04</pdfrwt>
<pdfrwt beam="2">  1       21 0.18122319E+00 0.12902681E+04</pdfrwt>
<totfact> 0.77692257E-01</totfact>
</mgrwt>
</event>
<event>
 8    1  0.7418332E-006  0.1040769E+04  0.7818608E-02  0.8740207E-01
         21   -1    0    0  501  502  0.00000000000E+00  0.00000000000E+00  0.14461903283E+04  0.14461903283E+04  0.00000000000E+00 0.  1.
         21   -1    0    0  502  503 -0.00000000000E+00 -0.00000000000E+00 -0.76340827111E+03  0.76340827111E+03  0.00000000000E+00 0.  1.
    9000010    2    1    2  501    0  0.23703487517E+03 -0.51661742210E+02  0.14347578213E+03  0.10373996442E+04  0.99837781131E+03 0.  0.
   -9000010    2    1    2    0  503 -0.23703487517E+03  0.51661742210E+02  0.53930627506E+03  0.11721989552E+04  0.10120991377E+04 0.  0.
        -13    1    3    3    0    0  0.10018334576E+03  0.31409640497E+03  0.43803786083E+03  0.54824304196E+03  0.10566000000E+00 0.  1.
          4    1    3    3  501    0  0.13685152941E+03 -0.36575814718E+03 -0.29456207870E+03  0.48915660226E+03  0.00000000000E+00 0.  1.
         13    1    4    4    0    0  0.23539400752E+03  0.38032848059E+03  0.34464608074E+03  0.56466009604E+03  0.10566000000E+00 0. -1.
         -4    1    4    4    0  503 -0.47242888269E+03 -0.32866673838E+03  0.19466019431E+03  0.60753885914E+03  0.00000000000E+00 0. -1.
<mgrwt>
<rscale>  2 0.10374178E+04</rscale>
<asrwt>0</asrwt>
<pdfrwt beam="1">  1       21 0.22249082E+00 0.10407685E+04</pdfrwt>
<pdfrwt beam="2">  1       21 0.11744743E+00 0.10407685E+04</pdfrwt>
<totfact> 0.24845305E+01</totfact>
</mgrwt>
</event>
<event>
 8    1  0.7418332E-006  0.1029245E+04  0.7818608E-02  0.8749759E-01
         21   -1    0    0  503  502  0.00000000000E+00  0.00000000000E+00  0.10567294343E+04  0.10567294343E+04  0.00000000000E+00 0. -1.
         21   -1    0    0  501  503 -0.00000000000E+00 -0.00000000000E+00 -0.17501388204E+04  0.17501388204E+04  0.00000000000E+00 0. -1.
    9000010    2    1    2  501    0 -0.11681662477E+03  0.17118553327E+03 -0.12705662571E+04  0.16351402333E+04  0.10081638549E+04 0.  0.
   -9000010    2    1    2    0  502  0.11681662477E+03 -0.17118553327E+03  0.57715687108E+03  0.11717280214E+04  0.99844173176E+03 0.  0.
        -13    1    3    3    0    0  0.41980143125E+03  0.16619021185E+03 -0.35687537488E+03  0.57551061897E+03  0.10566000000E+00 0.  1.
          4    1    3    3  501    0 -0.53661805602E+03  0.49953214269E+01 -0.91369088225E+03  0.10596296143E+04  0.00000000000E+00 0.  1.
         13    1    4    4    0    0  0.47005373244E+03  0.17681579399E+03  0.17025516999E+03  0.53028404696E+03  0.10566000000E+00 0. -1.
         -4    1    4    4    0  502 -0.35323710767E+03 -0.34800132727E+03  0.40690170108E+03  0.64144397445E+03  0.00000000000E+00 0. -1.
<mgrwt>
<rscale>  2 0.10268563E+04</rscale>
<asrwt>0</asrwt>
<pdfrwt beam="1">  1       21 0.16257376E+00 0.10292449E+04</pdfrwt>
<pdfrwt beam="2">  1       21 0.26925212E+00 0.10292449E+04</pdfrwt>
<totfact> 0.43117845E+00</totfact>
</mgrwt>
</event>
<event>
 8    1  0.7418332E-006  0.1087398E+04  0.7818608E-02  0.8699000E-01
         21   -1    0    0  503  502  0.00000000000E+00  0.00000000000E+00  0.70161780262E+03  0.70161780262E+03  0.00000000000E+00 0.  1.
         21   -1    0    0  501  503 -0.00000000000E+00 -0.00000000000E+00 -0.17979799190E+04  0.17979799190E+04  0.00000000000E+00 0.  1.
    9000010    2    1    2  501    0 -0.37024187405E+03 -0.21475446993E+03 -0.88749878572E+03  0.14035985538E+04  0.99961806600E+03 0.  0.
   -9000010    2    1    2    0  502  0.37024187405E+03  0.21475446993E+03 -0.20886333061E+03  0.10959991678E+04  0.98711283917E+03 0.  0.
        -13    1    3    3    0    0  0.14358849388E+03  0.15270285055E+03  0.99288113760E+02  0.23193524277E+03  0.10566000000E+00 0.  1.
          4    1    3    3  501    0 -0.51383036793E+03 -0.36745732049E+03 -0.98678689948E+03  0.11716633110E+04  0.00000000000E+00 0.  1.
         13    1    4    4    0    0  0.14431159316E+03  0.20356139403E+03 -0.59683587042E+03  0.64689732141E+03  0.10566000000E+00 0. -1.
         -4    1    4    4    0  502  0.22593028089E+03  0.11193075901E+02  0.38797253981E+03  0.44910184638E+03  0.00000000000E+00 0. -1.
<mgrwt>
<rscale>  2 0.10845156E+04</rscale>
<asrwt>0</asrwt>
<pdfrwt beam="1">  1       21 0.10794120E+00 0.10873982E+04</pdfrwt>
<pdfrwt beam="2">  1       21 0.27661229E+00 0.10873982E+04</pdfrwt>
<totfact> 0.12480394E+01</totfact>
</mgrwt>
</event>
<event>
 8    1  0.7418332E-006  0.1018096E+04  0.7818608E-02  0.8762841E-01
         21   -1    0    0  503  502  0.00000000000E+00  0.00000000000E+00  0.53394677555E+03  0.53394677555E+03  0.00000000000E+00 0.  1.
         21   -1    0    0  501  503 -0.00000000000E+00 -0.00000000000E+00 -0.19490499371E+04  0.19490499371E+04  0.00000000000E+00 0.  1.
    9000010    2    1    2  501    0 -0.15067457373E+03 -0.10357496309E+03 -0.50293591867E+03  0.11160411349E+04  0.97937361427E+03 0.  0.
   -9000010    2    1    2    0  502  0.15067457373E+03  0.10357496309E+03 -0.91216724292E+03  0.13669555778E+04  0.10015427462E+04 0.  0.
        -13    1    3    3    0    0 -0.52970675638E+03  0.13350169514E+03 -0.23370122068E+03  0.59416178106E+03  0.10566000000E+00 0.  1.
          4    1    3    3  501    0  0.37903218264E+03 -0.23707665822E+03 -0.26923469799E+03  0.52187935383E+03  0.00000000000E+00 0.  1.
         13    1    4    4    0    0  0.27130825566E+03 -0.32743298036E+03 -0.79929786600E+03  0.90537153477E+03  0.10566000000E+00 0. -1.
         -4    1    4    4    0  502 -0.12063368192E+03  0.43100794345E+03 -0.11286937691E+03  0.46158404302E+03  0.00000000000E+00 0. -1.
<mgrwt>
<rscale>  2 0.10126010E+04</rscale>
<asrwt>0</asrwt>
<pdfrwt beam="1">  1       21 0.82145658E-01 0.10180955E+04</pdfrwt>
<pdfrwt beam="2">  1       21 0.29985384E+00 0.10180955E+04</pdfrwt>
<totfact> 0.17540222E+01</totfact>
</mgrwt>
</event>
<event>
 8    1  0.7418332E-006  0.1025617E+04  0.7818608E-02  0.8752230E-01
         21   -1    0    0  501  502  0.00000000000E+00  0.00000000000E+00  0.90676079223E+03  0.90676079223E+03  0.00000000000E+00 0. -1.
         21   -1    0    0  502  503 -0.00000000000E+00 -0.00000000000E+00 -0.15484229275E+04  0.15484229275E+04  0.00000000000E+00 0. -1.
    9000010    2    1    2  501    0  0.54421091075E+02  0.26880408084E+03  0.29850883773E+03  0.10681753918E+04  0.98826810760E+03 0.  0.
   -9000010    2    1    2    0  503 -0.54421091075E+02 -0.26880408084E+03 -0.94017097297E+03  0.13870083279E+04  0.98216768126E+03 0.  0.
        -13    1    3    3    0    0 -0.24813244644E+03 -0.17333568978E+03  0.42108629635E+03  0.51858331294E+03  0.10566000000E+00 0.  1.
          4    1    3    3  501    0  0.30255353751E+03  0.44213977062E+03 -0.12257745862E+03  0.54959207890E+03  0.00000000000E+00 0.  1.
         13    1    4    4    0    0  0.30650713683E+03 -0.19684691785E+03  0.13771800425E+02  0.36453395952E+03  0.10566000000E+00 0. -1.
         -4    1    4    4    0  503 -0.36092822790E+03 -0.71957162996E+02 -0.95394277339E+03  0.10224743683E+04  0.00000000000E+00 0. -1.
<mgrwt>
<rscale>  2 0.10241450E+04</rscale>
<asrwt>0</asrwt>
<pdfrwt beam="1">  1       21 0.13950166E+00 0.10256174E+04</pdfrwt>
<pdfrwt beam="2">  1       21 0.23821891E+00 0.10256174E+04</pdfrwt>
<totfact> 0.11621822E+01</totfact>
</mgrwt>
</event>
<event>
 8    1  0.7418332E-006  0.9947166E+03  0.7818608E-02  0.8796546E-01
         21   -1    0    0  503  502  0.00000000000E+00  0.00000000000E+00  0.14036702908E+04  0.14036702908E+04  0.00000000000E+00 0.  1.
         21   -1    0    0  501  503 -0.00000000000E+00 -0.00000000000E+00 -0.12878565535E+04  0.12878565535E+04  0.00000000000E+00 0.  1.
    9000010    2    1    2  501    0 -0.88400854583E+02 -0.80485094278E+02 -0.88491526271E+03  0.12805273134E+04  0.91781404260E+03 0.  0.
   -9000010    2    1    2    0  502  0.88400854583E+02  0.80485094278E+02  0.10007290000E+04  0.14109995308E+04  0.98750624447E+03 0.  0.
        -13    1    3    3    0    0 -0.40483352198E+03 -0.25711049561E+03 -0.22964843168E+03  0.53172775064E+03  0.10566000000E+00 0.  1.
          4    1    3    3  501    0  0.31643266739E+03  0.17662540133E+03 -0.65526683103E+03  0.74879956280E+03  0.00000000000E+00 0.  1.
         13    1    4    4    0    0 -0.22553169915E+03  0.35884344315E+03  0.12813757800E+03  0.44277806413E+03  0.10566000000E+00 0. -1.
         -4    1    4    4    0  502  0.31393255374E+03 -0.27835834887E+03  0.87259142203E+03  0.96822146665E+03  0.00000000000E+00 0. -1.
<mgrwt>
<rscale>  2 0.97695948E+03</rscale>
<asrwt>0</asrwt>
<pdfrwt beam="1">  1       21 0.21594927E+00 0.99471662E+03</pdfrwt>
<pdfrwt beam="2">  1       21 0.19813178E+00 0.99471662E+03</pdfrwt>
<totfact> 0.54872699E+00</totfact>
</mgrwt>
</event>
<event>
 8    1  0.7418332E-006  0.1064327E+04  0.7818608E-02  0.8717990E-01
         21   -1    0    0  501  502  0.00000000000E+00  0.00000000000E+00  0.27983816644E+04  0.27983816644E+04  0.00000000000E+00 0.  1.
         21   -1    0    0  502  503 -0.00000000000E+00 -0.00000000000E+00 -0.50703815757E+03  0.50703815757E+03  0.00000000000E+00 0.  1.
    9000010    2    1    2  501    0 -0.15324255747E+03 -0.34287627116E+03  0.19009348578E+04  0.21786108830E+04  0.99586375936E+03 0.  0.
   -9000010    2    1    2    0  503  0.15324255747E+03  0.34287627116E+03  0.39040864909E+03  0.11268089390E+04  0.98804456025E+03 0.  0.
        -13    1    3    3    0    0  0.24061730348E+03  0.24956751337E+03  0.51601263924E+03  0.62165077454E+03  0.10566000000E+00 0.  1.
          4    1    3    3  501    0 -0.39385986095E+03 -0.59244378454E+03  0.13849222185E+04  0.15569601085E+04  0.00000000000E+00 0.  1.
         13    1    4    4    0    0 -0.23419645101E+03  0.55093517649E+03  0.32805632089E+03  0.68264083323E+03  0.10566000000E+00 0. -1.
         -4    1    4    4    0  503  0.38743900847E+03 -0.20805890532E+03  0.62352328194E+02  0.44416810579E+03  0.00000000000E+00 0. -1.
<mgrwt>
<rscale>  2 0.10624942E+04</rscale>
<asrwt>0</asrwt>
<pdfrwt beam="1">  1       21 0.43052025E+00 0.10643270E+04</pdfrwt>
<pdfrwt beam="2">  1       21 0.78005872E-01 0.10643270E+04</pdfrwt>
<totfact> 0.24040667E+00</totfact>
</mgrwt>
</event>
<event>
 8    1  0.7418332E-006  0.1029812E+04  0.7818608E-02  0.8757745E-01
         21   -1    0    0  501  502  0.00000000000E+00  0.00000000000E+00  0.78913542499E+03  0.78913542499E+03  0.00000000000E+00 0.  1.
         21   -1    0    0  502  503 -0.00000000000E+00 -0.00000000000E+00 -0.12871234680E+04  0.12871234680E+04  0.00000000000E+00 0.  1.
    9000010    2    1    2  501    0 -0.20332718013E+03 -0.13690438116E+03 -0.19729783388E+03  0.10034458065E+04  0.95283382580E+03 0.  0.
   -9000010    2    1    2    0  503  0.20332718013E+03  0.13690438116E+03 -0.30069020915E+03  0.10728130865E+04  0.10002142595E+04 0.  0.
        -13    1    3    3    0    0 -0.48504473069E+03  0.14628731238E+03  0.85811788794E+02  0.51384048380E+03  0.10566000000E+00 0.  1.
          4    1    3    3  501    0  0.28171755055E+03 -0.28319169354E+03 -0.28310962268E+03  0.48960532272E+03  0.00000000000E+00 0.  1.
         13    1    4    4    0    0  0.29018017669E+03 -0.39396066668E+03 -0.18127244535E+03  0.52179426256E+03  0.10566000000E+00 0. -1.
         -4    1    4    4    0  503 -0.86852996557E+02  0.53086504784E+03 -0.11941776380E+03  0.55101882394E+03  0.00000000000E+00 0. -1.
<mgrwt>
<rscale>  2 0.10181264E+04</rscale>
<asrwt>0</asrwt>
<pdfrwt beam="1">  1       21 0.12140545E+00 0.10298123E+04</pdfrwt>
<pdfrwt beam="2">  1       21 0.19801899E+00 0.10298123E+04</pdfrwt>
<totfact> 0.34964030E+01</totfact>
</mgrwt>
</event>
<event>
 8    1  0.7418332E-006  0.1009068E+04  0.7818608E-02  0.8774794E-01
         21   -1    0    0  501  502  0.00000000000E+00  0.00000000000E+00  0.14148670180E+04  0.14148670180E+04  0.00000000000E+00 0.  1.
         21   -1    0    0  502  503 -0.00000000000E+00 -0.00000000000E+00 -0.78003935419E+03  0.78003935419E+03  0.00000000000E+00 0.  1.
    9000010    2    1    2  501    0  0.10539975732E+03 -0.49349516133E+02 -0.52712353566E+02  0.97387011859E+03  0.96545322625E+03 0.  0.
   -9000010    2    1    2    0  503 -0.10539975732E+03  0.49349516133E+02  0.68754001741E+03  0.12210362536E+04  0.10023341626E+04 0.  0.
        -13    1    3    3    0    0 -0.26308505299E+03 -0.18031767692E+03  0.30687794383E+03  0.44260851019E+03  0.10566000000E+00 0.  1.
          4    1    3    3  501    0  0.36848481032E+03  0.13096816079E+03 -0.35959029740E+03  0.53126160840E+03  0.00000000000E+00 0.  1.
         13    1    4    4    0    0  0.17694572735E+03 -0.39002033206E+03  0.10961573219E+03  0.44208740059E+03  0.10566000000E+00 0. -1.
         -4    1    4    4    0  503 -0.28234548467E+03  0.43936984820E+03  0.57792428522E+03  0.77894885305E+03  0.00000000000E+00 0. -1.
<mgrwt>
<rscale>  2 0.99978430E+03</rscale>
<asrwt>0</asrwt>
<pdfrwt beam="1">  1       21 0.21767185E+00 0.10090680E+04</pdfrwt>
<pdfrwt beam="2">  1       21 0.12000605E+00 0.10090680E+04</pdfrwt>
<totfact> 0.25625212E+01</totfact>
</mgrwt>
</event>
<event>
 8    1  0.7418332E-006  0.1150389E+04  0.7818608E-02  0.8645189E-01
         21   -1    0    0  503  502  0.00000000000E+00  0.00000000000E+00  0.10439294762E+04  0.10439294762E+04  0.00000000000E+00 0. -1.
         21   -1    0    0  501  503 -0.00000000000E+00 -0.00000000000E+00 -0.20035349778E+04  0.20035349778E+04  0.00000000000E+00 0. -1.
    9000010    2    1    2  501    0 -0.24774833821E+03 -0.50251429875E+03 -0.14040732391E+04  0.18141980043E+04  0.10029919635E+04 0.  0.
   -9000010    2    1    2    0  502  0.24774833821E+03  0.50251429875E+03  0.44446773743E+03  0.12332664497E+04  0.10047361379E+04 0.  0.
        -13    1    3    3    0    0 -0.54617633315E+03 -0.51386503994E+03 -0.61281326539E+03  0.96845545874E+03  0.10566000000E+00 0.  1.
          4    1    3    3  501    0  0.29842799494E+03  0.11350741194E+02 -0.79125997367E+03  0.84574254559E+03  0.00000000000E+00 0.  1.
         13    1    4    4    0    0  0.57315147144E+03  0.66815326698E+02  0.89672962692E+02  0.58395902981E+03  0.10566000000E+00 0. -1.
         -4    1    4    4    0  502 -0.32540313323E+03  0.43569897205E+03  0.35479477474E+03  0.64930741990E+03  0.00000000000E+00 0. -1.
<mgrwt>
<rscale>  2 0.11500079E+04</rscale>
<asrwt>0</asrwt>
<pdfrwt beam="1">  1       21 0.16060454E+00 0.11503889E+04</pdfrwt>
<pdfrwt beam="2">  1       21 0.30823615E+00 0.11503889E+04</pdfrwt>
<totfact> 0.23003620E+00</totfact>
</mgrwt>
</event>
<event>
 8    1  0.7418332E-006  0.1212521E+04  0.7818608E-02  0.8597872E-01
         21   -1    0    0  501  502  0.00000000000E+00  0.00000000000E+00  0.19433826588E+04  0.19433826588E+04  0.00000000000E+00 0.  1.
         21   -1    0    0  502  503 -0.00000000000E+00 -0.00000000000E+00 -0.10207882833E+04  0.10207882833E+04  0.00000000000E+00 0.  1.
    9000010    2    1    2  501    0 -0.48909436172E+03 -0.48473552045E+03  0.12191457855E+04  0.17194543158E+04  0.99801046005E+03 0.  0.
   -9000010    2    1    2    0  503  0.48909436172E+03  0.48473552045E+03 -0.29655141001E+03  0.12447166263E+04  0.99357683229E+03 0.  0.
        -13    1    3    3    0    0 -0.27869935487E+03 -0.21674319526E+03 -0.91929124140E+02  0.36483135573E+03  0.10566000000E+00 0.  1.
          4    1    3    3  501    0 -0.21039500686E+03 -0.26799232519E+03  0.13110749096E+04  0.13546229601E+04  0.00000000000E+00 0.  1.
         13    1    4    4    0    0  0.26865233531E+03  0.69539461228E+03 -0.48209679849E+03  0.88778661757E+03  0.10566000000E+00 0. -1.
         -4    1    4    4    0  503  0.22044202641E+03 -0.21065909182E+03  0.18554538848E+03  0.35693000878E+03  0.00000000000E+00 0. -1.
<mgrwt>
<rscale>  2 0.12116081E+04</rscale>
<asrwt>0</asrwt>
<pdfrwt beam="1">  1       21 0.29898195E+00 0.12125208E+04</pdfrwt>
<pdfrwt beam="2">  1       21 0.15704435E+00 0.12125208E+04</pdfrwt>
<totfact> 0.28328314E+00</totfact>
</mgrwt>
</event>
<event>
 8    1  0.7418332E-006  0.1029231E+04  0.7818608E-02  0.8754835E-01
         21   -1    0    0  503  502  0.00000000000E+00  0.00000000000E+00  0.84777644032E+03  0.84777644032E+03  0.00000000000E+00 0. -1.
         21   -1    0    0  501  503 -0.00000000000E+00 -0.00000000000E+00 -0.12180054468E+04  0.12180054468E+04  0.00000000000E+00 0. -1.
    9000010    2    1    2  501    0  0.15369161804E+03 -0.34915414371E+02 -0.11383516375E+03  0.10355066714E+04  0.10170916490E+04 0.  0.
   -9000010    2    1    2    0  502 -0.15369161804E+03  0.34915414371E+02 -0.25639384270E+03  0.10302752156E+04  0.98533700720E+03 0.  0.
        -13    1    3    3    0    0 -0.15120147873E+02 -0.40695769968E+03 -0.37254266386E+03  0.55193408643E+03  0.10566000000E+00 0.  1.
          4    1    3    3  501    0  0.16881176591E+03  0.37204228531E+03  0.25870750012E+03  0.48357258502E+03  0.00000000000E+00 0.  1.
         13    1    4    4    0    0  0.10494112251E+03 -0.35587659408E+03 -0.39465836273E+03  0.54167889366E+03  0.10566000000E+00 0. -1.
         -4    1    4    4    0  502 -0.25863274055E+03  0.39079200845E+03  0.13826452003E+03  0.48859632197E+03  0.00000000000E+00 0. -1.
<mgrwt>
<rscale>  2 0.10212973E+04</rscale>
<asrwt>0</asrwt>
<pdfrwt beam="1">  1       21 0.13042715E+00 0.10292306E+04</pdfrwt>
<pdfrwt beam="2">  1       21 0.18738545E+00 0.10292306E+04</pdfrwt>
<totfact> 0.34608162E+01</totfact>
</mgrwt>
</event>
<event>
 8    1  0.7418332E-006  0.1129366E+04  0.7818608E-02  0.8667849E-01
         21   -1    0    0  501  502  0.00000000000E+00  0.00000000000E+00  0.60506316816E+03  0.60506316816E+03  0.00000000000E+00 0. -1.
         21   -1    0    0  502  503 -0.00000000000E+00 -0.00000000000E+00 -0.23841002180E+04  0.23841002180E+04  0.00000000000E+00 0. -1.
    9000010    2    1    2  501    0 -0.34125056439E+03  0.29959967649E+03 -0.14363540403E+04  0.18089516658E+04  0.10014895338E+04 0.  0.
   -9000010    2    1    2    0  503  0.34125056439E+03 -0.29959967649E+03 -0.34268300954E+03  0.11802117203E+04  0.10340484253E+04 0.  0.
        -13    1    3    3    0    0 -0.66177107968E+03  0.33098992442E+03 -0.76470257550E+03  0.10640795704E+04  0.10566000000E+00 0.  1.
          4    1    3    3  501    0  0.32052051529E+03 -0.31390247933E+02 -0.67165146477E+03  0.74487209541E+03  0.00000000000E+00 0.  1.
         13    1    4    4    0    0  0.64772792733E+03  0.75496899874E+01 -0.35810506897E+02  0.64876102628E+03  0.10566000000E+00 0. -1.
         -4    1    4    4    0  503 -0.30647736294E+03 -0.30714936648E+03 -0.30687250265E+03  0.53145069405E+03  0.00000000000E+00 0. -1.
<mgrwt>
<rscale>  2 0.11218584E+04</rscale>
<asrwt>0</asrwt>
<pdfrwt beam="1">  1       21 0.93086641E-01 0.11293662E+04</pdfrwt>
<pdfrwt beam="2">  1       21 0.36678465E+00 0.11293662E+04</pdfrwt>
<totfact> 0.42197166E+00</totfact>
</mgrwt>
</event>
<event>
 8    1  0.7418332E-006  0.1046912E+04  0.7818608E-02  0.8735525E-01
         21   -1    0    0  503  502  0.00000000000E+00  0.00000000000E+00  0.96372947726E+03  0.96372947726E+03  0.00000000000E+00 0.  1.
         21   -1    0    0  501  503 -0.00000000000E+00 -0.00000000000E+00 -0.13964657327E+04  0.13964657327E+04  0.00000000000E+00 0.  1.
    9000010    2    1    2  501    0  0.29672598982E+03 -0.49562409789E+02 -0.74104824820E+03  0.12688289825E+04  0.98502372318E+03 0.  0.
   -9000010    2    1    2    0  502 -0.29672598982E+03  0.49562409789E+02  0.30831199281E+03  0.10913662274E+04  0.10027568060E+04 0.  0.
        -13    1    3    3    0    0  0.50350319097E+03  0.11583208154E+03 -0.38556917550E+02  0.51809186587E+03  0.10566000000E+00 0.  1.
          4    1    3    3  501    0 -0.20677720115E+03 -0.16539449133E+03 -0.70249133065E+03  0.75073711665E+03  0.00000000000E+00 0.  1.
         13    1    4    4    0    0 -0.23157517991E+03  0.45503048743E+03  0.42514595915E+03  0.66440116359E+03  0.10566000000E+00 0. -1.
         -4    1    4    4    0  502 -0.65150809910E+02 -0.40546807764E+03 -0.11683396635E+03  0.42696506380E+03  0.00000000000E+00 0. -1.
<mgrwt>
<rscale>  2 0.10426424E+04</rscale>
<asrwt>0</asrwt>
<pdfrwt beam="1">  1       21 0.14826607E+00 0.10469116E+04</pdfrwt>
<pdfrwt beam="2">  1       21 0.21484088E+00 0.10469116E+04</pdfrwt>
<totfact> 0.14383090E+01</totfact>
</mgrwt>
</event>
<event>
 8    1  0.7418332E-006  0.1053167E+04  0.7818608E-02  0.8733770E-01
         21   -1    0    0  501  502  0.00000000000E+00  0.00000000000E+00  0.10533627522E+04  0.10533627522E+04  0.00000000000E+00 0. -1.
         21   -1    0    0  502  503 -0.00000000000E+00 -0.00000000000E+00 -0.12480981384E+04  0.12480981384E+04  0.00000000000E+00 0. -1.
    9000010    2    1    2  501    0 -0.21193164936E+03 -0.17365503766E+03  0.39382972827E+03  0.11243945580E+04  0.10169022426E+04 0.  0.
   -9000010    2    1    2    0  503  0.21193164936E+03  0.17365503766E+03 -0.58856511447E+03  0.11770663327E+04  0.98183764519E+03 0.  0.
        -13    1    3    3    0    0 -0.28155335379E+03  0.18096449851E+03  0.61537340246E+03  0.70050330218E+03  0.10566000000E+00 0.  1.
          4    1    3    3  501    0  0.69621704431E+02 -0.35461953617E+03 -0.22154367419E+03  0.42389125579E+03  0.00000000000E+00 0.  1.
         13    1    4    4    0    0 -0.20114151087E+01  0.51064740278E+03 -0.59200787361E+02  0.51407155158E+03  0.10566000000E+00 0. -1.
         -4    1    4    4    0  503  0.21394306447E+03 -0.33699236512E+03 -0.52936432711E+03  0.66299478113E+03  0.00000000000E+00 0. -1.
<mgrwt>
<rscale>  2 0.10446094E+04</rscale>
<asrwt>0</asrwt>
<pdfrwt beam="1">  1       21 0.16205581E+00 0.10531673E+04</pdfrwt>
<pdfrwt beam="2">  1       21 0.19201510E+00 0.10531673E+04</pdfrwt>
<totfact> 0.16344411E+01</totfact>
</mgrwt>
</event>
<event>
 8    1  0.7418332E-006  0.1378758E+04  0.7818608E-02  0.8496503E-01
         21   -1    0    0  503  502  0.00000000000E+00  0.00000000000E+00  0.15777393879E+04  0.15777393879E+04  0.00000000000E+00 0. -1.
         21   -1    0    0  501  503 -0.00000000000E+00 -0.00000000000E+00 -0.13560367130E+04  0.13560367130E+04  0.00000000000E+00 0. -1.
    9000010    2    1    2  501    0  0.86347613029E+03 -0.33782073560E+03 -0.48590292571E+03  0.13840404791E+04  0.90540185422E+03 0.  0.
   -9000010    2    1    2    0  502 -0.86347613029E+03  0.33782073560E+03  0.70760560055E+03  0.15497356217E+04  0.10204219394E+04 0.  0.
        -13    1    3    3    0    0 -0.98804842756E+02 -0.17390713622E+03 -0.34360616205E+03  0.39758180887E+03  0.10566000000E+00 0.  1.
          4    1    3    3  501    0  0.96228097305E+03 -0.16391359938E+03 -0.14229676366E+03  0.98645867025E+03  0.00000000000E+00 0.  1.
         13    1    4    4    0    0  0.15348714659E+03  0.31215952042E+03  0.88742696696E+02  0.35899463469E+03  0.10566000000E+00 0. -1.
         -4    1    4    4    0  502 -0.10169632769E+04  0.25661215180E+02  0.61886290385E+03  0.11907409871E+04  0.00000000000E+00 0. -1.
<mgrwt>
<rscale>  2 0.13575710E+04</rscale>
<asrwt>0</asrwt>
<pdfrwt beam="1">  1       21 0.24272914E+00 0.13787584E+04</pdfrwt>
<pdfrwt beam="2">  1       21 0.20862103E+00 0.13787584E+04</pdfrwt>
<totfact> 0.26359529E+00</totfact>
</mgrwt>
</event>
<event>
 8    1  0.7418332E-006  0.1150516E+04  0.7818608E-02  0.8655616E-01
         21   -1    0    0  501  502  0.00000000000E+00  0.00000000000E+00  0.90677337721E+03  0.90677337721E+03  0.00000000000E+00 0. -1.
         21   -1    0    0  502  503 -0.00000000000E+00 -0.00000000000E+00 -0.16160976870E+04  0.16160976870E+04  0.00000000000E+00 0. -1.
    9000010    2    1    2  501    0  0.42299788647E+03  0.10058252210E+03  0.10674364869E+03  0.11554573825E+04  0.10651964610E+04 0.  0.
   -9000010    2    1    2    0  503 -0.42299788647E+03 -0.10058252210E+03 -0.81606795845E+03  0.13674136817E+04  0.10073773912E+04 0.  0.
        -13    1    3    3    0    0  0.22786186437E+03  0.57454011638E+03 -0.48313096380E+02  0.61996091894E+03  0.10566000000E+00 0.  1.
          4    1    3    3  501    0  0.19513602210E+03 -0.47395759428E+03  0.15505674506E+03  0.53549646356E+03  0.00000000000E+00 0.  1.
         13    1    4    4    0    0  0.47153586040E+02 -0.45115880152E+03 -0.14508223444E+03  0.47625265436E+03  0.10566000000E+00 0. -1.
         -4    1    4    4    0  503 -0.47015147251E+03  0.35057627942E+03 -0.67098572401E+03  0.89116102732E+03  0.00000000000E+00 0. -1.
<mgrwt>
<rscale>  2 0.11369497E+04</rscale>
<asrwt>0</asrwt>
<pdfrwt beam="1">  1       21 0.13950360E+00 0.11505162E+04</pdfrwt>
<pdfrwt beam="2">  1       21 0.24863041E+00 0.11505162E+04</pdfrwt>
<totfact> 0.94774036E+00</totfact>
</mgrwt>
</event>
<event>
 8    1  0.7418332E-006  0.1192426E+04  0.7818608E-02  0.8613225E-01
         21   -1    0    0  501  502  0.00000000000E+00  0.00000000000E+00  0.20278867600E+04  0.20278867600E+04  0.00000000000E+00 0.  1.
         21   -1    0    0  502  503 -0.00000000000E+00 -0.00000000000E+00 -0.92291504767E+03  0.92291504767E+03  0.00000000000E+00 0. -1.
    9000010    2    1    2  501    0  0.38143803985E+03 -0.53297929093E+03  0.12795350704E+04  0.17456656528E+04  0.99024071428E+03 0.  0.
   -9000010    2    1    2    0  503 -0.38143803985E+03  0.53297929093E+03 -0.17456335811E+03  0.12051361548E+04  0.99615203802E+03 0.  0.
        -13    1    3    3    0    0  0.41139085259E+03  0.57698476219E+02  0.10171146203E+03  0.42768771367E+03  0.10566000000E+00 0.  1.
          4    1    3    3  501    0 -0.29952812742E+02 -0.59067776715E+03  0.11778236084E+04  0.13179779392E+04  0.00000000000E+00 0.  1.
         13    1    4    4    0    0  0.13954046267E+03  0.62077622719E+03 -0.22390315243E+03  0.67451263724E+03  0.10566000000E+00 0. -1.
         -4    1    4    4    0  503 -0.52097850252E+03 -0.87796936253E+02  0.49339794316E+02  0.53062351758E+03  0.00000000000E+00 0. -1.
<mgrwt>
<rscale>  2 0.11911910E+04</rscale>
<asrwt>0</asrwt>
<pdfrwt beam="1">  1       21 0.31198258E+00 0.11924264E+04</pdfrwt>
<pdfrwt beam="2">  1       21 0.14198693E+00 0.11924264E+04</pdfrwt>
<totfact> 0.31413841E+00</totfact>
</mgrwt>
</event>
<event>
 8    1  0.7418332E-006  0.1020767E+04  0.7818608E-02  0.8755635E-01
         21   -1    0    0  503  502  0.00000000000E+00  0.00000000000E+00  0.10217013860E+04  0.10217013860E+04  0.00000000000E+00 0. -1.
         21   -1    0    0  501  503 -0.00000000000E+00 -0.00000000000E+00 -0.28548270399E+04  0.28548270399E+04  0.00000000000E+00 0. -1.
    9000010    2    1    2  501    0 -0.68846151237E+02 -0.15466905450E+03 -0.24708843369E+04  0.26729086675E+04  0.10052407819E+04 0.  0.
   -9000010    2    1    2    0  502  0.68846151237E+02  0.15466905450E+03  0.63775868306E+03  0.12036197584E+04  0.10066290658E+04 0.  0.
        -13    1    3    3    0    0  0.28378430993E+03  0.27207496812E+03 -0.56546733670E+03  0.68870286980E+03  0.10566000000E+00 0.  1.
          4    1    3    3  501    0 -0.35263046117E+03 -0.42674402262E+03 -0.19054170002E+04  0.19842057977E+04  0.00000000000E+00 0.  1.
         13    1    4    4    0    0  0.49322010037E+03 -0.90043694437E+02  0.46603994698E+03  0.68451966930E+03  0.10566000000E+00 0. -1.
         -4    1    4    4    0  502 -0.42437394913E+03  0.24471274894E+03  0.17171873608E+03  0.51910008912E+03  0.00000000000E+00 0. -1.
<mgrwt>
<rscale>  2 0.10204241E+04</rscale>
<asrwt>0</asrwt>
<pdfrwt beam="1">  1       21 0.15718483E+00 0.10207666E+04</pdfrwt>
<pdfrwt beam="2">  1       21 0.43920416E+00 0.10207666E+04</pdfrwt>
<totfact> 0.30973477E-01</totfact>
</mgrwt>
</event>
<event>
 8    1  0.7418332E-006  0.1018656E+04  0.7818608E-02  0.8758636E-01
         21   -1    0    0  503  502  0.00000000000E+00  0.00000000000E+00  0.71830180794E+03  0.71830180794E+03  0.00000000000E+00 0.  1.
         21   -1    0    0  501  503 -0.00000000000E+00 -0.00000000000E+00 -0.18849887651E+04  0.18849887651E+04  0.00000000000E+00 0.  1.
    9000010    2    1    2  501    0  0.10322641269E+03  0.90669861103E+02  0.50519173278E+02  0.10199077246E+04  0.10093477417E+04 0.  0.
   -9000010    2    1    2    0  502 -0.10322641269E+03 -0.90669861103E+02 -0.12172061304E+04  0.15833828485E+04  0.10033113998E+04 0.  0.
        -13    1    3    3    0    0 -0.12840434143E+03 -0.24958905182E+03 -0.34792753964E+03  0.44703014853E+03  0.10566000000E+00 0.  1.
          4    1    3    3  501    0  0.23163075412E+03  0.34025891292E+03  0.39844671292E+03  0.57287757603E+03  0.00000000000E+00 0.  1.
         13    1    4    4    0    0 -0.26666144796E+03  0.40603274454E+03 -0.65668193164E+03  0.81682439237E+03  0.10566000000E+00 0. -1.
         -4    1    4    4    0  502  0.16343503527E+03 -0.49670260564E+03 -0.56052419878E+03  0.76655845610E+03  0.00000000000E+00 0. -1.
<mgrwt>
<rscale>  2 0.10171573E+04</rscale>
<asrwt>0</asrwt>
<pdfrwt beam="1">  1       21 0.11050797E+00 0.10186558E+04</pdfrwt>
<pdfrwt beam="2">  1       21 0.28999826E+00 0.10186558E+04</pdfrwt>
<totfact> 0.95578709E+00</totfact>
</mgrwt>
</event>
<event>
 8    1  0.7418332E-006  0.1192578E+04  0.7818608E-02  0.8633908E-01
         21   -1    0    0  501  502  0.00000000000E+00  0.00000000000E+00  0.23152339288E+04  0.23152339288E+04  0.00000000000E+00 0.  1.
         21   -1    0    0  502  503 -0.00000000000E+00 -0.00000000000E+00 -0.57708885543E+03  0.57708885543E+03  0.00000000000E+00 0.  1.
    9000010    2    1    2  501    0  0.11757421826E+03  0.40279070428E+03  0.65677421974E+03  0.13614682445E+04  0.11163240375E+04 0.  0.
   -9000010    2    1    2    0  503 -0.11757421826E+03 -0.40279070428E+03  0.10813708536E+04  0.15308545398E+04  0.99904386822E+03 0.  0.
        -13    1    3    3    0    0  0.61014948693E+03  0.13105454269E+03  0.41309514469E+03  0.74840183009E+03  0.10566000000E+00 0.  1.
          4    1    3    3  501    0 -0.49257526867E+03  0.27173616159E+03  0.24367907505E+03  0.61306641438E+03  0.00000000000E+00 0.  1.
         13    1    4    4    0    0  0.34933202103E+02 -0.12434486197E+03  0.11887237109E+04  0.11957198858E+04  0.10566000000E+00 0. -1.
         -4    1    4    4    0  503 -0.15250742036E+03 -0.27844584231E+03 -0.10735285722E+03  0.33513465401E+03  0.00000000000E+00 0. -1.
<mgrwt>
<rscale>  2 0.11643426E+04</rscale>
<asrwt>0</asrwt>
<pdfrwt beam="1">  1       21 0.35618983E+00 0.11925785E+04</pdfrwt>
<pdfrwt beam="2">  1       21 0.88782902E-01 0.11925785E+04</pdfrwt>
<totfact> 0.55817319E+00</totfact>
</mgrwt>
</event>
<event>
 8    1  0.7418332E-006  0.1135553E+04  0.7818608E-02  0.8673921E-01
         21   -1    0    0  501  502  0.00000000000E+00  0.00000000000E+00  0.16476584210E+04  0.16476584210E+04  0.00000000000E+00 0. -1.
         21   -1    0    0  502  503 -0.00000000000E+00 -0.00000000000E+00 -0.14879537798E+04  0.14879537798E+04  0.00000000000E+00 0. -1.
    9000010    2    1    2  501    0  0.54544647196E+03  0.14091823663E+01  0.11991270952E+04  0.15961711234E+04  0.90130051867E+03 0.  0.
   -9000010    2    1    2    0  503 -0.54544647196E+03 -0.14091823663E+01 -0.10394224540E+04  0.15394410774E+04  0.99597487591E+03 0.  0.
        -13    1    3    3    0    0  0.46833578616E+03  0.41754530152E+03  0.77288523103E+03  0.99550694570E+03  0.10566000000E+00 0.  1.
          4    1    3    3  501    0  0.77110685797E+02 -0.41613611915E+03  0.42624186420E+03  0.60066417766E+03  0.00000000000E+00 0.  1.
         13    1    4    4    0    0  0.28416058174E+03 -0.91400087362E+02 -0.32069123746E+03  0.43811424667E+03  0.10566000000E+00 0. -1.
         -4    1    4    4    0  503 -0.82960705370E+03  0.89990904995E+02 -0.71873121651E+03  0.11013268307E+04  0.00000000000E+00 0. -1.
<mgrwt>
<rscale>  2 0.11144583E+04</rscale>
<asrwt>0</asrwt>
<pdfrwt beam="1">  1       21 0.25348591E+00 0.11355526E+04</pdfrwt>
<pdfrwt beam="2">  1       21 0.22891597E+00 0.11355526E+04</pdfrwt>
<totfact> 0.16267367E+00</totfact>
</mgrwt>
</event>
<event>
 8    1  0.7418332E-006  0.1023933E+04  0.7818608E-02  0.8756027E-01
         21   -1    0    0  503  502  0.00000000000E+00  0.00000000000E+00  0.25214698825E+04  0.25214698825E+04  0.00000000000E+00 0.  1.
         21   -1    0    0  501  503 -0.00000000000E+00 -0.00000000000E+00 -0.41677367895E+03  0.41677367895E+03  0.00000000000E+00 0.  1.
    9000010    2    1    2  501    0  0.21104890092E+03 -0.17184106855E+03  0.84993254299E+03  0.13187158817E+04  0.97085285063E+03 0.  0.
   -9000010    2    1    2    0  502 -0.21104890092E+03  0.17184106855E+03  0.12547636606E+04  0.16195276798E+04  0.98710033443E+03 0.  0.
        -13    1    3    3    0    0  0.50856744175E+03  0.18678998907E+03  0.43583627169E+03  0.69533057585E+03  0.10566000000E+00 0.  1.
          4    1    3    3  501    0 -0.29751854084E+03 -0.35863105762E+03  0.41409627130E+03  0.62338530584E+03  0.00000000000E+00 0.  1.
         13    1    4    4    0    0  0.15474144148E+03  0.42346205667E+03  0.23745613677E+03  0.50955907920E+03  0.10566000000E+00 0. -1.
         -4    1    4    4    0  502 -0.36579034239E+03 -0.25162098812E+03  0.10173075238E+04  0.11099686006E+04  0.00000000000E+00 0. -1.
<mgrwt>
<rscale>  2 0.10199966E+04</rscale>
<asrwt>0</asrwt>
<pdfrwt beam="1">  1       21 0.38791844E+00 0.10239326E+04</pdfrwt>
<pdfrwt beam="2">  1       21 0.64119029E-01 0.10239326E+04</pdfrwt>
<totfact> 0.76236606E+00</totfact>
</mgrwt>
</event>
<event>
 8    1  0.7418332E-006  0.1046362E+04  0.7818608E-02  0.8738823E-01
         21   -1    0    0  503  502  0.00000000000E+00  0.00000000000E+00  0.22314340313E+04  0.22314340313E+04  0.00000000000E+00 0.  1.
         21   -1    0    0  501  503 -0.00000000000E+00 -0.00000000000E+00 -0.71700097074E+03  0.71700097074E+03  0.00000000000E+00 0.  1.
    9000010    2    1    2  501    0 -0.55577397685E+02 -0.12049167448E+03 -0.88464019815E+02  0.10500951293E+04  0.10379146434E+04 0.  0.
   -9000010    2    1    2    0  502  0.55577397685E+02  0.12049167448E+03  0.16028970803E+04  0.18983398727E+04  0.10083690452E+04 0.  0.
        -13    1    3    3    0    0 -0.68383029500E+02 -0.58638009181E+02 -0.56361279982E+03  0.57076619918E+03  0.10566000000E+00 0.  1.
          4    1    3    3  501    0  0.12805631815E+02 -0.61853665303E+02  0.47514878000E+03  0.47932893012E+03  0.00000000000E+00 0.  1.
         13    1    4    4    0    0  0.67183824327E+02  0.34488581251E+03  0.81836778534E+02  0.36077300260E+03  0.10566000000E+00 0. -1.
         -4    1    4    4    0  502 -0.11606426642E+02 -0.22439413802E+03  0.15210603018E+04  0.15375668701E+04  0.00000000000E+00 0. -1.
<mgrwt>
<rscale>  2 0.10389590E+04</rscale>
<asrwt>0</asrwt>
<pdfrwt beam="1">  1       21 0.34329754E+00 0.10463622E+04</pdfrwt>
<pdfrwt beam="2">  1       21 0.11030784E+00 0.10463622E+04</pdfrwt>
<totfact> 0.40204957E+00</totfact>
</mgrwt>
</event>
<event>
 8    1  0.7418332E-006  0.9950905E+03  0.7818608E-02  0.8779238E-01
         21   -1    0    0  501  502  0.00000000000E+00  0.00000000000E+00  0.82275118455E+03  0.82275118455E+03  0.00000000000E+00 0. -1.
         21   -1    0    0  502  503 -0.00000000000E+00 -0.00000000000E+00 -0.16668617159E+04  0.16668617159E+04  0.00000000000E+00 0. -1.
    9000010    2    1    2  501    0 -0.11724069386E+02  0.42536634305E+02  0.23432531944E+03  0.10222244111E+04  0.99402594146E+03 0.  0.
   -9000010    2    1    2    0  503  0.11724069386E+02 -0.42536634305E+02 -0.10784358508E+04  0.14673884893E+04  0.99411180220E+03 0.  0.
        -13    1    3    3    0    0  0.42815650668E+03  0.39842368589E+02  0.36425443248E+03  0.56354832206E+03  0.10566000000E+00 0.  1.
          4    1    3    3  501    0 -0.43988057606E+03  0.26942657164E+01 -0.12992911304E+03  0.45867608907E+03  0.00000000000E+00 0.  1.
         13    1    4    4    0    0 -0.24791848124E+03  0.37759713570E+03 -0.74579524037E+03  0.87192529609E+03  0.10566000000E+00 0. -1.
         -4    1    4    4    0  503  0.25964255063E+03 -0.42013377001E+03 -0.33264061039E+03  0.59546319322E+03  0.00000000000E+00 0. -1.
<mgrwt>
<rscale>  2 0.99506905E+03</rscale>
<asrwt>0</asrwt>
<pdfrwt beam="1">  1       21 0.12657711E+00 0.99509050E+03</pdfrwt>
<pdfrwt beam="2">  1       21 0.25644026E+00 0.99509050E+03</pdfrwt>
<totfact> 0.11448888E+01</totfact>
</mgrwt>
</event>
<event>
 8    1  0.7418332E-006  0.1012193E+04  0.7818608E-02  0.8764647E-01
         21   -1    0    0  501  502  0.00000000000E+00  0.00000000000E+00  0.14688957382E+04  0.14688957382E+04  0.00000000000E+00 0.  1.
         21   -1    0    0  502  503 -0.00000000000E+00 -0.00000000000E+00 -0.10812290677E+04  0.10812290677E+04  0.00000000000E+00 0.  1.
    9000010    2    1    2  501    0 -0.17466818225E+03 -0.44282255225E+02  0.95724217360E+03  0.13886816592E+04  0.98977486306E+03 0.  0.
   -9000010    2    1    2    0  503  0.17466818225E+03  0.44282255225E+02 -0.56957550312E+03  0.11614431467E+04  0.99602411481E+03 0.  0.
        -13    1    3    3    0    0 -0.29061268174E+03 -0.19178635653E+03  0.10994441903E+04  0.11532628825E+04  0.10566000000E+00 0.  1.
          4    1    3    3  501    0  0.11594449949E+03  0.14750410131E+03 -0.14220201670E+03  0.23541877669E+03  0.00000000000E+00 0.  1.
         13    1    4    4    0    0 -0.16013303373E+03  0.41534891811E+03 -0.47829447837E+03  0.65339339717E+03  0.10566000000E+00 0. -1.
         -4    1    4    4    0  503  0.33480121598E+03 -0.37106666289E+03 -0.91281024750E+02  0.50804974954E+03  0.00000000000E+00 0. -1.
<mgrwt>
<rscale>  2 0.10106519E+04</rscale>
<asrwt>0</asrwt>
<pdfrwt beam="1">  1       21 0.22598396E+00 0.10121926E+04</pdfrwt>
<pdfrwt beam="2">  1       21 0.16634293E+00 0.10121926E+04</pdfrwt>
<totfact> 0.83208015E+00</totfact>
</mgrwt>
</event>
<event>
 8    1  0.7418332E-006  0.1091580E+04  0.7818608E-02  0.8694792E-01
         21   -1    0    0  501  502  0.00000000000E+00  0.00000000000E+00  0.12719980552E+04  0.12719980552E+04  0.00000000000E+00 0. -1.
         21   -1    0    0  502  503 -0.00000000000E+00 -0.00000000000E+00 -0.94748212176E+03  0.94748212176E+03  0.00000000000E+00 0. -1.
    9000010    2    1    2  501    0  0.18338239114E+03 -0.39936693708E+03  0.31433082002E+03  0.11278529272E+04  0.99001278227E+03 0.  0.
   -9000010    2    1    2    0  503 -0.18338239114E+03  0.39936693708E+03  0.10185113374E+02  0.10916272498E+04  0.99921132104E+03 0.  0.
        -13    1    3    3    0    0  0.53755135626E+02 -0.79341938812E+02 -0.35877463909E+03  0.37135429267E+03  0.10566000000E+00 0.  1.
          4    1    3    3  501    0  0.12962725552E+03 -0.32002499826E+03  0.67310545912E+03  0.75649863449E+03  0.00000000000E+00 0.  1.
         13    1    4    4    0    0 -0.14427175161E+03 -0.32562814755E+03  0.70533061689E+02  0.36307430747E+03  0.10566000000E+00 0. -1.
         -4    1    4    4    0  503 -0.39110639539E+02  0.72499508463E+03 -0.60347948315E+02  0.72855294230E+03  0.00000000000E+00 0. -1.
<mgrwt>
<rscale>  2 0.10894702E+04</rscale>
<asrwt>0</asrwt>
<pdfrwt beam="1">  1       21 0.19569201E+00 0.10915797E+04</pdfrwt>
<pdfrwt beam="2">  1       21 0.14576648E+00 0.10915797E+04</pdfrwt>
<totfact> 0.21092268E+01</totfact>
</mgrwt>
</event>
<event>
 8    1  0.7418332E-006  0.1053547E+04  0.7818608E-02  0.8737870E-01
         21   -1    0    0  503  502  0.00000000000E+00  0.00000000000E+00  0.15745488921E+04  0.15745488921E+04  0.00000000000E+00 0. -1.
         21   -1    0    0  501  503 -0.00000000000E+00 -0.00000000000E+00 -0.68062372058E+03  0.68062372058E+03  0.00000000000E+00 0. -1.
    9000010    2    1    2  501    0 -0.10012444125E+03  0.13352425110E+03  0.59994874595E+03  0.12123940921E+04  0.10402438692E+04 0.  0.
   -9000010    2    1    2    0  502  0.10012444125E+03 -0.13352425110E+03  0.29397642558E+03  0.10427785206E+04  0.98646402618E+03 0.  0.
        -13    1    3    3    0    0 -0.49268239637E+02 -0.45211187480E+03  0.34883284617E+03  0.57316391417E+03  0.10566000000E+00 0.  1.
          4    1    3    3  501    0 -0.50856201609E+02  0.58563612590E+03  0.25111589978E+03  0.63923017789E+03  0.00000000000E+00 0.  1.
         13    1    4    4    0    0 -0.41004005398E+03  0.12381443484E+03  0.10583870017E+03  0.44120822948E+03  0.10566000000E+00 0. -1.
         -4    1    4    4    0  502  0.51016449523E+03 -0.25733868595E+03  0.18813772542E+03  0.60157029116E+03  0.00000000000E+00 0. -1.
<mgrwt>
<rscale>  2 0.10400225E+04</rscale>
<asrwt>0</asrwt>
<pdfrwt beam="1">  1       21 0.24223829E+00 0.10535468E+04</pdfrwt>
<pdfrwt beam="2">  1       21 0.10471134E+00 0.10535468E+04</pdfrwt>
<totfact> 0.24158480E+01</totfact>
</mgrwt>
</event>
<event>
 8    1  0.7418332E-006  0.1042379E+04  0.7818608E-02  0.8741141E-01
         21   -1    0    0  503  502  0.00000000000E+00  0.00000000000E+00  0.68069107894E+03  0.68069107894E+03  0.00000000000E+00 0. -1.
         21   -1    0    0  501  503 -0.00000000000E+00 -0.00000000000E+00 -0.15611416412E+04  0.15611416412E+04  0.00000000000E+00 0. -1.
    9000010    2    1    2  501    0  0.24208915806E+03 -0.39220357251E+00 -0.47530594727E+03  0.11456310216E+04  0.10138773989E+04 0.  0.
   -9000010    2    1    2    0  502 -0.24208915806E+03  0.39220357251E+00 -0.40514461495E+03  0.10962016985E+04  0.98939814555E+03 0.  0.
        -13    1    3    3    0    0  0.33919872457E+03 -0.46050567163E+03 -0.25010595930E+03  0.62423893694E+03  0.10566000000E+00 0.  1.
          4    1    3    3  501    0 -0.97109566516E+02  0.46011346806E+03 -0.22519998797E+03  0.52139208469E+03  0.00000000000E+00 0.  1.
         13    1    4    4    0    0 -0.47996518006E+03  0.34120077081E+03 -0.32607001478E+03  0.67313164075E+03  0.10566000000E+00 0. -1.
         -4    1    4    4    0  502  0.23787602201E+03 -0.34080856723E+03 -0.79074600173E+02  0.42307005772E+03  0.00000000000E+00 0. -1.
<mgrwt>
<rscale>  2 0.10363792E+04</rscale>
<asrwt>0</asrwt>
<pdfrwt beam="1">  1       21 0.10472171E+00 0.10423793E+04</pdfrwt>
<pdfrwt beam="2">  1       21 0.24017563E+00 0.10423793E+04</pdfrwt>
<totfact> 0.25069409E+01</totfact>
</mgrwt>
</event>
<event>
 8    1  0.7418332E-006  0.1056233E+04  0.7818608E-02  0.8735653E-01
         21   -1    0    0  501  502  0.00000000000E+00  0.00000000000E+00  0.92526157980E+03  0.92526157980E+03  0.00000000000E+00 0.  1.
         21   -1    0    0  502  503 -0.00000000000E+00 -0.00000000000E+00 -0.14159929273E+04  0.14159929273E+04  0.00000000000E+00 0.  1.
    9000010    2    1    2  501    0  0.56317468734E+02 -0.14030809787E+03  0.27177316345E+03  0.10385490574E+04  0.99089125165E+03 0.  0.
   -9000010    2    1    2    0  503 -0.56317468734E+02  0.14030809787E+03 -0.76250451098E+03  0.13027054497E+04  0.10453565611E+04 0.  0.
        -13    1    3    3    0    0  0.26670408100E+03  0.18460543605E+03  0.49493057632E+03  0.59174869698E+03  0.10566000000E+00 0.  1.
          4    1    3    3  501    0 -0.21038661226E+03 -0.32491353392E+03 -0.22315741286E+03  0.44680036041E+03  0.00000000000E+00 0.  1.
         13    1    4    4    0    0 -0.50060223992E+03  0.26281206335E+03 -0.26460236088E+03  0.62424931221E+03  0.10566000000E+00 0. -1.
         -4    1    4    4    0  503  0.44428477119E+03 -0.12250396548E+03 -0.49790215010E+03  0.67845613752E+03  0.00000000000E+00 0. -1.
<mgrwt>
<rscale>  2 0.10424990E+04</rscale>
<asrwt>0</asrwt>
<pdfrwt beam="1">  1       21 0.14234794E+00 0.10562331E+04</pdfrwt>
<pdfrwt beam="2">  1       21 0.21784506E+00 0.10562331E+04</pdfrwt>
<totfact> 0.15411065E+01</totfact>
</mgrwt>
</event>
<event>
 8    1  0.7418332E-006  0.1083298E+04  0.7818608E-02  0.8704086E-01
         21   -1    0    0  503  502  0.00000000000E+00  0.00000000000E+00  0.86273586346E+03  0.86273586346E+03  0.00000000000E+00 0.  1.
         21   -1    0    0  501  503 -0.00000000000E+00 -0.00000000000E+00 -0.13989292497E+04  0.13989292497E+04  0.00000000000E+00 0.  1.
    9000010    2    1    2  501    0  0.36125512107E+03 -0.12964825644E+03 -0.31897020001E+02  0.10837678697E+04  0.10130258844E+04 0.  0.
   -9000010    2    1    2    0  502 -0.36125512107E+03  0.12964825644E+03 -0.50429636622E+03  0.11778972435E+04  0.99288124079E+03 0.  0.
        -13    1    3    3    0    0  0.36260034492E+03 -0.55103186627E+03 -0.53727354725E+02  0.66181701972E+03  0.10566000000E+00 0.  1.
          4    1    3    3  501    0 -0.13452238486E+01  0.42138360983E+03  0.21830334724E+02  0.42195084995E+03  0.00000000000E+00 0.  1.
         13    1    4    4    0    0 -0.15210397827E+03  0.10602465751E+03 -0.79649081564E+03  0.81778632830E+03  0.10566000000E+00 0. -1.
         -4    1    4    4    0  502 -0.20915114280E+03  0.23623598934E+02  0.29219444941E+03  0.36011091518E+03  0.00000000000E+00 0. -1.
<mgrwt>
<rscale>  2 0.10785639E+04</rscale>
<asrwt>0</asrwt>
<pdfrwt beam="1">  1       21 0.13272860E+00 0.10832984E+04</pdfrwt>
<pdfrwt beam="2">  1       21 0.21521988E+00 0.10832984E+04</pdfrwt>
<totfact> 0.19727634E+01</totfact>
</mgrwt>
</event>
<event>
 8    1  0.7418332E-006  0.1158207E+04  0.7818608E-02  0.8661816E-01
         21   -1    0    0  503  502  0.00000000000E+00  0.00000000000E+00  0.23104775846E+04  0.23104775846E+04  0.00000000000E+00 0. -1.
         21   -1    0    0  501  503 -0.00000000000E+00 -0.00000000000E+00 -0.64996732878E+03  0.64996732878E+03  0.00000000000E+00 0. -1.
    9000010    2    1    2  501    0  0.11129720596E+03 -0.32920352744E+03  0.15063767016E+03  0.10575107980E+04  0.98735776174E+03 0.  0.
   -9000010    2    1    2    0  502 -0.11129720596E+03  0.32920352744E+03  0.15098725857E+04  0.19029341154E+04  0.11048443293E+04 0.  0.
        -13    1    3    3    0    0  0.13025176435E+03  0.33170517762E+03 -0.64617909810E+02  0.36217306969E+03  0.10566000000E+00 0.  1.
          4    1    3    3  501    0 -0.18954558392E+02 -0.66090870506E+03  0.21525557997E+03  0.69533772831E+03  0.00000000000E+00 0.  1.
         13    1    4    4    0    0  0.36524671223E+03  0.52109370638E+03  0.72241700946E+03  0.96272018694E+03  0.10566000000E+00 0. -1.
         -4    1    4    4    0  502 -0.47654391819E+03 -0.19189017894E+03  0.78745557623E+03  0.94021392846E+03  0.00000000000E+00 0. -1.
<mgrwt>
<rscale>  2 0.11292704E+04</rscale>
<asrwt>0</asrwt>
<pdfrwt beam="1">  1       21 0.35545809E+00 0.11582068E+04</pdfrwt>
<pdfrwt beam="2">  1       21 0.99994975E-01 0.11582068E+04</pdfrwt>
<totfact> 0.41867043E+00</totfact>
</mgrwt>
</event>
<event>
 8    1  0.7418332E-006  0.1022878E+04  0.7818608E-02  0.8754960E-01
         21   -1    0    0  503  502  0.00000000000E+00  0.00000000000E+00  0.21508419738E+04  0.21508419738E+04  0.00000000000E+00 0.  1.
         21   -1    0    0  501  503 -0.00000000000E+00 -0.00000000000E+00 -0.53671326040E+03  0.53671326040E+03  0.00000000000E+00 0.  1.
    9000010    2    1    2  501    0 -0.17201929031E+03 -0.28341151607E+02  0.38518134781E+03  0.10929978519E+04  0.10079115915E+04 0.  0.
   -9000010    2    1    2    0  502  0.17201929031E+03  0.28341151607E+02  0.12289473655E+04  0.15945573823E+04  0.10009534260E+04 0.  0.
        -13    1    3    3    0    0  0.59846967820E+02 -0.49189689796E+03  0.26082964295E+03  0.55997886708E+03  0.10566000000E+00 0.  1.
          4    1    3    3  501    0 -0.23186625813E+03  0.46355574635E+03  0.12435170486E+03  0.53301898478E+03  0.00000000000E+00 0.  1.
         13    1    4    4    0    0  0.54662126342E+03  0.87428686073E+02  0.10226009475E+04  0.11628204031E+04  0.10566000000E+00 0. -1.
         -4    1    4    4    0  502 -0.37460197312E+03 -0.59087534466E+02  0.20634641803E+03  0.43173697922E+03  0.00000000000E+00 0. -1.
<mgrwt>
<rscale>  2 0.10211599E+04</rscale>
<asrwt>0</asrwt>
<pdfrwt beam="1">  1       21 0.33089876E+00 0.10228781E+04</pdfrwt>
<pdfrwt beam="2">  1       21 0.82571272E-01 0.10228781E+04</pdfrwt>
<totfact> 0.10459958E+01</totfact>
</mgrwt>
</event>
<event>
 8    1  0.7418332E-006  0.1079327E+04  0.7818608E-02  0.8717905E-01
         21   -1    0    0  503  502  0.00000000000E+00  0.00000000000E+00  0.21033107313E+04  0.21033107313E+04  0.00000000000E+00 0.  1.
         21   -1    0    0  501  503 -0.00000000000E+00 -0.00000000000E+00 -0.52310529917E+03  0.52310529917E+03  0.00000000000E+00 0.  1.
    9000010    2    1    2  501    0 -0.24049439484E+02 -0.13043605788E+03  0.67859903573E+03  0.12200588020E+04  0.10052138520E+04 0.  0.
   -9000010    2    1    2    0  502  0.24049439484E+02  0.13043605788E+03  0.90160639644E+03  0.14063572285E+04  0.10711464043E+04 0.  0.
        -13    1    3    3    0    0  0.31860756308E+03 -0.26721300172E+03 -0.34408851410E+02  0.41724998234E+03  0.10566000000E+00 0.  1.
          4    1    3    3  501    0 -0.34265700257E+03  0.13677694384E+03  0.71300788714E+03  0.80280881965E+03  0.00000000000E+00 0.  1.
         13    1    4    4    0    0 -0.41852223095E+02 -0.43286146093E+03  0.65888322505E+03  0.78946042861E+03  0.10566000000E+00 0. -1.
         -4    1    4    4    0  502  0.65901662579E+02  0.56329751880E+03  0.24272317139E+03  0.61689679992E+03  0.00000000000E+00 0. -1.
<mgrwt>
<rscale>  2 0.10625916E+04</rscale>
<asrwt>0</asrwt>
<pdfrwt beam="1">  1       21 0.32358626E+00 0.10793269E+04</pdfrwt>
<pdfrwt beam="2">  1       21 0.80477739E-01 0.10793269E+04</pdfrwt>
<totfact> 0.12386298E+01</totfact>
</mgrwt>
</event>
<event>
 8    1  0.7418332E-006  0.1205985E+04  0.7818608E-02  0.8610332E-01
         21   -1    0    0  503  502  0.00000000000E+00  0.00000000000E+00  0.10596117402E+04  0.10596117402E+04  0.00000000000E+00 0.  1.
         21   -1    0    0  501  503 -0.00000000000E+00 -0.00000000000E+00 -0.21775932018E+04  0.21775932018E+04  0.00000000000E+00 0.  1.
    9000010    2    1    2  501    0 -0.45440586659E+03 -0.38692083067E+03 -0.15786617402E+04  0.19865983026E+04  0.10479539614E+04 0.  0.
   -9000010    2    1    2    0  502  0.45440586659E+03  0.38692083067E+03  0.46068027861E+03  0.12506066393E+04  0.99779668592E+03 0.  0.
        -13    1    3    3    0    0 -0.49986399286E+03 -0.21900284629E+03 -0.16927602416E+04  0.17785565790E+04  0.10566000000E+00 0.  1.
          4    1    3    3  501    0  0.45458126264E+02 -0.16791798437E+03  0.11409850143E+03  0.20804172357E+03  0.00000000000E+00 0.  1.
         13    1    4    4    0    0  0.43915442967E+03  0.10881008526E+03 -0.22879728214E+03  0.50699551796E+03  0.10566000000E+00 0. -1.
         -4    1    4    4    0  502  0.15251436920E+02  0.27811074541E+03  0.68947756075E+03  0.74361112137E+03  0.00000000000E+00 0. -1.
<mgrwt>
<rscale>  2 0.11950061E+04</rscale>
<asrwt>0</asrwt>
<pdfrwt beam="1">  1       21 0.16301719E+00 0.12059850E+04</pdfrwt>
<pdfrwt beam="2">  1       21 0.33501434E+00 0.12059850E+04</pdfrwt>
<totfact> 0.14037165E+00</totfact>
</mgrwt>
</event>
<event>
 8    1  0.7418332E-006  0.1041088E+04  0.7818608E-02  0.8749604E-01
         21   -1    0    0  501  502  0.00000000000E+00  0.00000000000E+00  0.15549937422E+04  0.15549937422E+04  0.00000000000E+00 0. -1.
         21   -1    0    0  502  503 -0.00000000000E+00 -0.00000000000E+00 -0.10610190490E+04  0.10610190490E+04  0.00000000000E+00 0. -1.
    9000010    2    1    2  501    0 -0.10129361666E+03 -0.24031354852E+03  0.10545093108E+04  0.14818413842E+04  0.10078953334E+04 0.  0.
   -9000010    2    1    2    0  503  0.10129361666E+03  0.24031354852E+03 -0.56053461750E+03  0.11341714070E+04  0.95085999218E+03 0.  0.
        -13    1    3    3    0    0 -0.63252213601E+02  0.16928502470E+03  0.10551153153E+04  0.10704796130E+04  0.10566000000E+00 0.  1.
          4    1    3    3  501    0 -0.38041403060E+02 -0.40959857322E+03 -0.60600457082E+00  0.41136177116E+03  0.00000000000E+00 0.  1.
         13    1    4    4    0    0  0.38142400430E+03  0.25543173729E+03 -0.68715284458E+03  0.82638289337E+03  0.10566000000E+00 0. -1.
         -4    1    4    4    0  503 -0.28013038764E+03 -0.15118188765E+02  0.12661822708E+03  0.30778851366E+03  0.00000000000E+00 0. -1.
<mgrwt>
<rscale>  2 0.10270273E+04</rscale>
<asrwt>0</asrwt>
<pdfrwt beam="1">  1       21 0.23922981E+00 0.10410879E+04</pdfrwt>
<pdfrwt beam="2">  1       21 0.16323370E+00 0.10410879E+04</pdfrwt>
<totfact> 0.70040959E+00</totfact>
</mgrwt>
</event>
<event>
 8    1  0.7418332E-006  0.1026432E+04  0.7818608E-02  0.8753947E-01
         21   -1    0    0  501  502  0.00000000000E+00  0.00000000000E+00  0.10483904697E+04  0.10483904697E+04  0.00000000000E+00 0. -1.
         21   -1    0    0  502  503 -0.00000000000E+00 -0.00000000000E+00 -0.10377090592E+04  0.10377090592E+04  0.00000000000E+00 0. -1.
    9000010    2    1    2  501    0  0.15558503433E+03  0.18627157417E+03 -0.22117113267E+03  0.10338080210E+04  0.98027473302E+03 0.  0.
   -9000010    2    1    2    0  503 -0.15558503433E+03 -0.18627157417E+03  0.23185254317E+03  0.10522915078E+04  0.99732543007E+03 0.  0.
        -13    1    3    3    0    0 -0.48939342479E+02  0.22634408622E+03  0.35345160920E+03  0.42255739944E+03  0.10566000000E+00 0.  1.
          4    1    3    3  501    0  0.20452437681E+03 -0.40072512052E+02 -0.57462274187E+03  0.61125062160E+03  0.00000000000E+00 0.  1.
         13    1    4    4    0    0  0.46330417933E+02 -0.52798877216E+03  0.35357880556E+03  0.63713156731E+03  0.10566000000E+00 0. -1.
         -4    1    4    4    0  503 -0.20191545226E+03  0.34171719799E+03 -0.12172626240E+03  0.41515994053E+03  0.00000000000E+00 0. -1.
<mgrwt>
<rscale>  2 0.10222665E+04</rscale>
<asrwt>0</asrwt>
<pdfrwt beam="1">  1       21 0.16129084E+00 0.10264316E+04</pdfrwt>
<pdfrwt beam="2">  1       21 0.15964755E+00 0.10264316E+04</pdfrwt>
<totfact> 0.30906688E+01</totfact>
</mgrwt>
</event>
<event>
 8    1  0.7418332E-006  0.1039062E+04  0.7818608E-02  0.8738992E-01
         21   -1    0    0  503  502  0.00000000000E+00  0.00000000000E+00  0.11677193801E+04  0.11677193801E+04  0.00000000000E+00 0.  1.
         21   -1    0    0  501  503 -0.00000000000E+00 -0.00000000000E+00 -0.10135821324E+04  0.10135821324E+04  0.00000000000E+00 0.  1.
    9000010    2    1    2  501    0  0.23242601339E+03  0.19128622093E+03  0.40209531449E+03  0.11130632764E+04  0.99328593333E+03 0.  0.
   -9000010    2    1    2    0  502 -0.23242601339E+03 -0.19128622093E+03 -0.24795806680E+03  0.10682382361E+04  0.99450362303E+03 0.  0.
        -13    1    3    3    0    0  0.37805968546E+03 -0.21513281072E+03  0.50775245552E+03  0.66859839909E+03  0.10566000000E+00 0.  1.
          4    1    3    3  501    0 -0.14563367206E+03  0.40641903165E+03 -0.10565714103E+03  0.44446487732E+03  0.00000000000E+00 0.  1.
         13    1    4    4    0    0 -0.48238056457E+03 -0.34743829847E+03  0.10999308759E+03  0.60456833426E+03  0.10566000000E+00 0. -1.
         -4    1    4    4    0  502  0.24995455117E+03  0.15615207754E+03 -0.35795115439E+03  0.46366990187E+03  0.00000000000E+00 0. -1.
<mgrwt>
<rscale>  2 0.10387705E+04</rscale>
<asrwt>0</asrwt>
<pdfrwt beam="1">  1       21 0.17964914E+00 0.10390619E+04</pdfrwt>
<pdfrwt beam="2">  1       21 0.15593571E+00 0.10390619E+04</pdfrwt>
<totfact> 0.23299185E+01</totfact>
</mgrwt>
</event>
<event>
 8    1  0.7418332E-006  0.1015032E+04  0.7818608E-02  0.8761083E-01
         21   -1    0    0  503  502  0.00000000000E+00  0.00000000000E+00  0.73550880075E+03  0.73550880075E+03  0.00000000000E+00 0.  1.
         21   -1    0    0  501  503 -0.00000000000E+00 -0.00000000000E+00 -0.16670580986E+04  0.16670580986E+04  0.00000000000E+00 0.  1.
    9000010    2    1    2  501    0  0.16861273578E+03 -0.65402022902E+02 -0.94890384350E+03  0.13894991938E+04  0.99879018127E+03 0.  0.
   -9000010    2    1    2    0  502 -0.16861273578E+03  0.65402022902E+02  0.17354545616E+02  0.10130677055E+04  0.99664302361E+03 0.  0.
        -13    1    3    3    0    0 -0.33852606461E+03  0.86712294757E+02 -0.59578314262E+02  0.35449753903E+03  0.10566000000E+00 0.  1.
          4    1    3    3  501    0  0.50713880039E+03 -0.15211431766E+03 -0.88932552924E+03  0.10350016548E+04  0.00000000000E+00 0.  1.
         13    1    4    4    0    0 -0.46673567204E+03  0.21281533684E+03  0.28441505739E+03  0.58653601013E+03  0.10566000000E+00 0. -1.
         -4    1    4    4    0  502  0.29812293626E+03 -0.14741331394E+03 -0.26706051177E+03  0.42653169542E+03  0.00000000000E+00 0. -1.
<mgrwt>
<rscale>  2 0.10145032E+04</rscale>
<asrwt>0</asrwt>
<pdfrwt beam="1">  1       21 0.11315520E+00 0.10150318E+04</pdfrwt>
<pdfrwt beam="2">  1       21 0.25647048E+00 0.10150318E+04</pdfrwt>
<totfact> 0.15574685E+01</totfact>
</mgrwt>
</event>
<event>
 8    1  0.7418332E-006  0.1009809E+04  0.7818608E-02  0.8766846E-01
         21   -1    0    0  503  502  0.00000000000E+00  0.00000000000E+00  0.15038832066E+04  0.15038832066E+04  0.00000000000E+00 0.  1.
         21   -1    0    0  501  503 -0.00000000000E+00 -0.00000000000E+00 -0.97399069078E+03  0.97399069078E+03  0.00000000000E+00 0.  1.
    9000010    2    1    2  501    0  0.75362448478E+02  0.12175008534E+03 -0.42210967494E+03  0.10944823466E+04  0.99960614613E+03 0.  0.
   -9000010    2    1    2    0  502 -0.75362448478E+02 -0.12175008534E+03  0.95200219078E+03  0.13833915508E+04  0.99345932462E+03 0.  0.
        -13    1    3    3    0    0  0.21788623699E+03 -0.37666743616E+03 -0.37413477071E+03  0.57387246628E+03  0.10566000000E+00 0.  1.
          4    1    3    3  501    0 -0.14252378852E+03  0.49841752150E+03 -0.47974904232E+02  0.52060988030E+03  0.00000000000E+00 0.  1.
         13    1    4    4    0    0 -0.37901772334E+03  0.10182882244E+02  0.98033639294E+03  0.10511030302E+04  0.10566000000E+00 0. -1.
         -4    1    4    4    0  502  0.30365527486E+03 -0.13193296759E+03 -0.28334202160E+02  0.33228852057E+03  0.00000000000E+00 0. -1.
<mgrwt>
<rscale>  2 0.10082849E+04</rscale>
<asrwt>0</asrwt>
<pdfrwt beam="1">  1       21 0.23136665E+00 0.10098094E+04</pdfrwt>
<pdfrwt beam="2">  1       21 0.14984472E+00 0.10098094E+04</pdfrwt>
<totfact> 0.10558579E+01</totfact>
</mgrwt>
</event>
<event>
 8    1  0.7418332E-006  0.1028232E+04  0.7818608E-02  0.8751511E-01
         21   -1    0    0  503  502  0.00000000000E+00  0.00000000000E+00  0.84333415694E+03  0.84333415694E+03  0.00000000000E+00 0.  1.
         21   -1    0    0  501  503 -0.00000000000E+00 -0.00000000000E+00 -0.12926475356E+04  0.12926475356E+04  0.00000000000E+00 0.  1.
    9000010    2    1    2  501    0  0.29158824304E+02 -0.15915202830E+03 -0.44344659075E+03  0.11077329673E+04  0.10021216707E+04 0.  0.
   -9000010    2    1    2    0  502 -0.29158824304E+02  0.15915202830E+03 -0.58667879051E+01  0.10282487253E+04  0.10154217925E+04 0.  0.
        -13    1    3    3    0    0 -0.11758712427E+03  0.32452706485E+02  0.30119406252E+03  0.32495812717E+03  0.10566000000E+00 0.  1.
          4    1    3    3  501    0  0.14674594857E+03 -0.19160473478E+03 -0.74464065327E+03  0.78277484011E+03  0.00000000000E+00 0.  1.
         13    1    4    4    0    0  0.28794163981E+03 -0.29762582820E+03 -0.17123775791E+03  0.44812264220E+03  0.10566000000E+00 0. -1.
         -4    1    4    4    0  502 -0.31710046412E+03  0.45677785650E+03  0.16537097000E+03  0.58012608306E+03  0.00000000000E+00 0. -1.
<mgrwt>
<rscale>  2 0.10249331E+04</rscale>
<asrwt>0</asrwt>
<pdfrwt beam="1">  1       21 0.12974372E+00 0.10282320E+04</pdfrwt>
<pdfrwt beam="2">  1       21 0.19886885E+00 0.10282320E+04</pdfrwt>
<totfact> 0.28506680E+01</totfact>
</mgrwt>
</event>
<event>
 8    1  0.7418332E-006  0.1054943E+04  0.7818608E-02  0.8726612E-01
         21   -1    0    0  501  502  0.00000000000E+00  0.00000000000E+00  0.12514544549E+04  0.12514544549E+04  0.00000000000E+00 0. -1.
         21   -1    0    0  502  503 -0.00000000000E+00 -0.00000000000E+00 -0.96754162245E+03  0.96754162245E+03  0.00000000000E+00 0.  1.
    9000010    2    1    2  501    0 -0.21220009612E+02  0.34329932681E+03 -0.18910184493E+03  0.10628612485E+04  0.98772962357E+03 0.  0.
   -9000010    2    1    2    0  503  0.21220009612E+02 -0.34329932681E+03  0.47301467736E+03  0.11561348288E+04  0.99729641569E+03 0.  0.
        -13    1    3    3    0    0  0.14339360178E+03  0.89795471103E+02 -0.55965237471E+03  0.58466720734E+03  0.10566000000E+00 0.  1.
          4    1    3    3  501    0 -0.16461361139E+03  0.25350385571E+03  0.37055052977E+03  0.47819404119E+03  0.00000000000E+00 0.  1.
         13    1    4    4    0    0  0.46818853225E+03 -0.10333580303E+03  0.43503406157E+03  0.64740515584E+03  0.10566000000E+00 0. -1.
         -4    1    4    4    0  503 -0.44696852264E+03 -0.23996352378E+03  0.37980615792E+02  0.50872967296E+03  0.00000000000E+00 0. -1.
<mgrwt>
<rscale>  2 0.10526759E+04</rscale>
<asrwt>0</asrwt>
<pdfrwt beam="1">  1       21 0.19253146E+00 0.10549431E+04</pdfrwt>
<pdfrwt beam="2">  1       21 0.14885256E+00 0.10549431E+04</pdfrwt>
<totfact> 0.21124267E+01</totfact>
</mgrwt>
</event>
<event>
 8    1  0.7418332E-006  0.1036305E+04  0.7818608E-02  0.8744878E-01
         21   -1    0    0  501  502  0.00000000000E+00  0.00000000000E+00  0.11992157370E+04  0.11992157370E+04  0.00000000000E+00 0.  1.
         21   -1    0    0  502  503 -0.00000000000E+00 -0.00000000000E+00 -0.10690360200E+04  0.10690360200E+04  0.00000000000E+00 0.  1.
    9000010    2    1    2  501    0  0.23166450619E+03  0.40175674836E+02  0.54038861575E+03  0.11687376428E+04  0.10092795913E+04 0.  0.
   -9000010    2    1    2    0  503 -0.23166450619E+03 -0.40175674836E+02 -0.41020889872E+03  0.10995141142E+04  0.99266178448E+03 0.  0.
        -13    1    3    3    0    0 -0.16244683501E+03 -0.40336114890E+03  0.15702506792E+03  0.46232680407E+03  0.10566000000E+00 0.  1.
          4    1    3    3  501    0  0.39411134120E+03  0.44353682373E+03  0.38336354783E+03  0.70641083873E+03  0.00000000000E+00 0.  1.
         13    1    4    4    0    0 -0.51520892012E+03 -0.30390410376E+03 -0.38522573888E+03  0.71147509915E+03  0.10566000000E+00 0. -1.
         -4    1    4    4    0  503  0.28354441393E+03  0.26372842892E+03 -0.24983159839E+02  0.38803901500E+03  0.00000000000E+00 0. -1.
<mgrwt>
<rscale>  2 0.10322366E+04</rscale>
<asrwt>0</asrwt>
<pdfrwt beam="1">  1       21 0.18449473E+00 0.10363049E+04</pdfrwt>
<pdfrwt beam="2">  1       21 0.16446708E+00 0.10363049E+04</pdfrwt>
<totfact> 0.17974470E+01</totfact>
</mgrwt>
</event>
<event>
 8    1  0.7418332E-006  0.1189498E+04  0.7818608E-02  0.8615050E-01
         21   -1    0    0  501  502  0.00000000000E+00  0.00000000000E+00  0.22439530259E+04  0.22439530259E+04  0.00000000000E+00 0. -1.
         21   -1    0    0  502  503 -0.00000000000E+00 -0.00000000000E+00 -0.72186249204E+03  0.72186249204E+03  0.00000000000E+00 0. -1.
    9000010    2    1    2  501    0 -0.32203369372E+03 -0.54945292247E+03  0.12935727064E+04  0.17573379836E+04  0.10046403477E+04 0.  0.
   -9000010    2    1    2    0  503  0.32203369372E+03  0.54945292247E+03  0.22851782747E+03  0.12084775343E+04  0.10012958302E+04 0.  0.
        -13    1    3    3    0    0 -0.57459265899E+03 -0.36302869552E+03  0.12726020206E+04  0.14427274419E+04  0.10566000000E+00 0.  1.
          4    1    3    3  501    0  0.25255896527E+03 -0.18642422694E+03  0.20970685784E+02  0.31461054177E+03  0.00000000000E+00 0.  1.
         13    1    4    4    0    0  0.26258606987E+03  0.67315390449E+03  0.51736614578E+03  0.88868181212E+03  0.10566000000E+00 0. -1.
         -4    1    4    4    0  503  0.59447623846E+02 -0.12370098203E+03 -0.28884831831E+03  0.31979572218E+03  0.00000000000E+00 0. -1.
<mgrwt>
<rscale>  2 0.11887919E+04</rscale>
<asrwt>0</asrwt>
<pdfrwt beam="1">  1       21 0.34522354E+00 0.11894984E+04</pdfrwt>
<pdfrwt beam="2">  1       21 0.11105577E+00 0.11894984E+04</pdfrwt>
<totfact> 0.37065302E+00</totfact>
</mgrwt>
</event>
<event>
 8    1  0.7418332E-006  0.1030031E+04  0.7818608E-02  0.8749580E-01
         21   -1    0    0  501  502  0.00000000000E+00  0.00000000000E+00  0.12572666756E+04  0.12572666756E+04  0.00000000000E+00 0.  1.
         21   -1    0    0  502  503 -0.00000000000E+00 -0.00000000000E+00 -0.13918975043E+04  0.13918975043E+04  0.00000000000E+00 0.  1.
    9000010    2    1    2  501    0  0.13399306739E+03 -0.21143339316E+03 -0.90600195345E+03  0.13717881774E+04  0.99915216172E+03 0.  0.
   -9000010    2    1    2    0  503 -0.13399306739E+03  0.21143339316E+03  0.77137112475E+03  0.12773760025E+04  0.98692341032E+03 0.  0.
        -13    1    3    3    0    0 -0.20492026362E+03 -0.31228906159E+03  0.26536305264E+02  0.37446089127E+03  0.10566000000E+00 0.  1.
          4    1    3    3  501    0  0.33891333101E+03  0.10085566842E+03 -0.93253825872E+03  0.99732728618E+03  0.00000000000E+00 0.  1.
         13    1    4    4    0    0  0.36463621586E+02 -0.38832145192E+03  0.35690301410E+03  0.52868035556E+03  0.10566000000E+00 0. -1.
         -4    1    4    4    0  503 -0.17045668898E+03  0.59975484508E+03  0.41446811065E+03  0.74869564695E+03  0.00000000000E+00 0. -1.
<mgrwt>
<rscale>  2 0.10270534E+04</rscale>
<asrwt>0</asrwt>
<pdfrwt beam="1">  1       21 0.19342564E+00 0.10300307E+04</pdfrwt>
<pdfrwt beam="2">  1       21 0.21413808E+00 0.10300307E+04</pdfrwt>
<totfact> 0.61120207E+00</totfact>
</mgrwt>
</event>
<event>
 8    1  0.7418332E-006  0.1146539E+04  0.7818608E-02  0.8648319E-01
         21   -1    0    0  501  502  0.00000000000E+00  0.00000000000E+00  0.84822017154E+03  0.84822017154E+03  0.00000000000E+00 0. -1.
         21   -1    0    0  502  503 -0.00000000000E+00 -0.00000000000E+00 -0.18031059210E+04  0.18031059210E+04  0.00000000000E+00 0.  1.
    9000010    2    1    2  501    0  0.20959313950E+03  0.52275773162E+03  0.21597027542E+02  0.11467423690E+04  0.99867246845E+03 0.  0.
   -9000010    2    1    2    0  503 -0.20959313950E+03 -0.52275773162E+03 -0.97648277704E+03  0.15045837235E+04  0.99651825733E+03 0.  0.
        -13    1    3    3    0    0  0.51859661621E+03  0.13784001418E+03  0.26263795872E+03  0.59742868058E+03  0.10566000000E+00 0.  1.
          4    1    3    3  501    0 -0.30900347671E+03  0.38491771744E+03 -0.24104093117E+03  0.54931368845E+03  0.00000000000E+00 0.  1.
         13    1    4    4    0    0 -0.11849446165E+03 -0.53910903776E+03 -0.29156989828E+02  0.55274735029E+03  0.10566000000E+00 0. -1.
         -4    1    4    4    0  503 -0.91098677858E+02  0.16351306138E+02 -0.94732578721E+03  0.95183637325E+03  0.00000000000E+00 0. -1.
<mgrwt>
<rscale>  2 0.11460697E+04</rscale>
<asrwt>0</asrwt>
<pdfrwt beam="1">  1       21 0.13049541E+00 0.11465390E+04</pdfrwt>
<pdfrwt beam="2">  1       21 0.27740091E+00 0.11465390E+04</pdfrwt>
<totfact> 0.71602602E+00</totfact>
</mgrwt>
</event>
<event>
 8    1  0.7418332E-006  0.1043785E+04  0.7818608E-02  0.8737330E-01
         21   -1    0    0  501  502  0.00000000000E+00  0.00000000000E+00  0.14110326901E+04  0.14110326901E+04  0.00000000000E+00 0.  1.
         21   -1    0    0  502  503 -0.00000000000E+00 -0.00000000000E+00 -0.89683100961E+03  0.89683100961E+03  0.00000000000E+00 0.  1.
    9000010    2    1    2  501    0  0.25476675684E+03  0.25565417884E+02  0.70179654882E+03  0.12473546572E+04  0.99890717979E+03 0.  0.
   -9000010    2    1    2    0  503 -0.25476675684E+03 -0.25565417884E+02 -0.18759486829E+03  0.10605090426E+04  0.10118932275E+04 0.  0.
        -13    1    3    3    0    0  0.48030870862E+02  0.50028520632E+03  0.43593542106E+03  0.66530591063E+03  0.10566000000E+00 0.  1.
          4    1    3    3  501    0  0.20673588598E+03 -0.47471978844E+03  0.26586112776E+03  0.58204874654E+03  0.00000000000E+00 0.  1.
         13    1    4    4    0    0 -0.39931252749E+03  0.11892030436E+03 -0.52243157009E+03  0.66822697490E+03  0.10566000000E+00 0. -1.
         -4    1    4    4    0  503  0.14454577064E+03 -0.14448572224E+03  0.33483670181E+03  0.39228206768E+03  0.00000000000E+00 0. -1.
<mgrwt>
<rscale>  2 0.10406248E+04</rscale>
<asrwt>0</asrwt>
<pdfrwt beam="1">  1       21 0.21708195E+00 0.10437852E+04</pdfrwt>
<pdfrwt beam="2">  1       21 0.13797400E+00 0.10437852E+04</pdfrwt>
<totfact> 0.17190346E+01</totfact>
</mgrwt>
</event>
<event>
 8    1  0.7418332E-006  0.1013060E+04  0.7818608E-02  0.8762462E-01
         21   -1    0    0  501  502  0.00000000000E+00  0.00000000000E+00  0.28647516421E+04  0.28647516421E+04  0.00000000000E+00 0.  1.
         21   -1    0    0  502  503 -0.00000000000E+00 -0.00000000000E+00 -0.54313407119E+03  0.54313407119E+03  0.00000000000E+00 0.  1.
    9000010    2    1    2  501    0 -0.61447976682E+01  0.16928769386E+03  0.21552225519E+04  0.23814438657E+04  0.99879655359E+03 0.  0.
   -9000010    2    1    2    0  503  0.61447976682E+01 -0.16928769386E+03  0.16639501893E+03  0.10264418475E+04  0.99859875934E+03 0.  0.
        -13    1    3    3    0    0 -0.34482420512E+03 -0.12439616413E+03  0.17128755675E+04  0.17516623130E+04  0.10566000000E+00 0.  1.
          4    1    3    3  501    0  0.33867940745E+03  0.29368385798E+03  0.44234698448E+03  0.62978155272E+03  0.00000000000E+00 0.  1.
         13    1    4    4    0    0  0.32919095696E+03 -0.19495008759E+03  0.45361614986E+03  0.59341372193E+03  0.10566000000E+00 0. -1.
         -4    1    4    4    0  503 -0.32304615930E+03  0.25662393739E+02 -0.28722113092E+03  0.43302812557E+03  0.00000000000E+00 0. -1.
<mgrwt>
<rscale>  2 0.10130113E+04</rscale>
<asrwt>0</asrwt>
<pdfrwt beam="1">  1       21 0.44073102E+00 0.10130600E+04</pdfrwt>
<pdfrwt beam="2">  1       21 0.83559089E-01 0.10130600E+04</pdfrwt>
<totfact> 0.17458940E+00</totfact>
</mgrwt>
</event>
<event>
 8    1  0.7418332E-006  0.1109181E+04  0.7818608E-02  0.8680715E-01
         21   -1    0    0  501  502  0.00000000000E+00  0.00000000000E+00  0.20912599738E+04  0.20912599738E+04  0.00000000000E+00 0.  1.
         21   -1    0    0  502  503 -0.00000000000E+00 -0.00000000000E+00 -0.61862732436E+03  0.61862732436E+03  0.00000000000E+00 0.  1.
    9000010    2    1    2  501    0 -0.13751606260E+03 -0.46153137029E+03  0.41081925625E+03  0.11828161356E+04  0.99917950140E+03 0.  0.
   -9000010    2    1    2    0  503  0.13751606260E+03  0.46153137029E+03  0.10618133932E+04  0.15270711626E+04  0.98619307464E+03 0.  0.
        -13    1    3    3    0    0  0.39608626349E+02  0.23801705346E+03 -0.13639796437E+03  0.27717391087E+03  0.10566000000E+00 0.  1.
          4    1    3    3  501    0 -0.17712468895E+03 -0.69954842375E+03  0.54721722062E+03  0.90564222469E+03  0.00000000000E+00 0.  1.
         13    1    4    4    0    0  0.10847781671E+02  0.72847408675E+03  0.97876045028E+03  0.12201492530E+04  0.10566000000E+00 0. -1.
         -4    1    4    4    0  503  0.12666828093E+03 -0.26694271646E+03  0.83052942926E+02  0.30692190960E+03  0.00000000000E+00 0. -1.
<mgrwt>
<rscale>  2 0.11062480E+04</rscale>
<asrwt>0</asrwt>
<pdfrwt beam="1">  1       21 0.32173230E+00 0.11091806E+04</pdfrwt>
<pdfrwt beam="2">  1       21 0.95173435E-01 0.11091806E+04</pdfrwt>
<totfact> 0.82934986E+00</totfact>
</mgrwt>
</event>
<event>
 8    1  0.7418332E-006  0.1023915E+04  0.7818608E-02  0.8786534E-01
         21   -1    0    0  503  502  0.00000000000E+00  0.00000000000E+00  0.14310395920E+04  0.14310395920E+04  0.00000000000E+00 0.  1.
         21   -1    0    0  501  503 -0.00000000000E+00 -0.00000000000E+00 -0.10342783431E+04  0.10342783431E+04  0.00000000000E+00 0.  1.
    9000010    2    1    2  501    0 -0.44841259511E+02 -0.22844249859E+03 -0.55559676732E+03  0.11649419016E+04  0.99709836647E+03 0.  0.
   -9000010    2    1    2    0  502  0.44841259511E+02  0.22844249859E+03  0.95235801620E+03  0.13003760335E+04  0.85428058850E+03 0.  0.
        -13    1    3    3    0    0 -0.46288156880E+03 -0.35395138411E+03 -0.26188680579E+03  0.63884711728E+03  0.10566000000E+00 0.  1.
          4    1    3    3  501    0  0.41804030929E+03  0.12550888552E+03 -0.29370996153E+03  0.52609478427E+03  0.00000000000E+00 0.  1.
         13    1    4    4    0    0  0.44733520573E+03  0.70828161251E+02  0.50337407035E+03  0.67713431502E+03  0.10566000000E+00 0. -1.
         -4    1    4    4    0  502 -0.40249394622E+03  0.15761433733E+03  0.44898394584E+03  0.62324171852E+03  0.00000000000E+00 0. -1.
<mgrwt>
<rscale>  2 0.98738580E+03</rscale>
<asrwt>0</asrwt>
<pdfrwt beam="1">  1       21 0.22015994E+00 0.10239150E+04</pdfrwt>
<pdfrwt beam="2">  1       21 0.15911974E+00 0.10239150E+04</pdfrwt>
<totfact> 0.10578853E+01</totfact>
</mgrwt>
</event>
<event>
 8    1  0.7418332E-006  0.1046884E+04  0.7818608E-02  0.8732281E-01
         21   -1    0    0  501  502  0.00000000000E+00  0.00000000000E+00  0.14716405649E+04  0.14716405649E+04  0.00000000000E+00 0. -1.
         21   -1    0    0  502  503 -0.00000000000E+00 -0.00000000000E+00 -0.92053372399E+03  0.92053372399E+03  0.00000000000E+00 0. -1.
    9000010    2    1    2  501    0 -0.19571156667E+03 -0.25616091836E+03 -0.24995871495E+03  0.10739664033E+04  0.99348026794E+03 0.  0.
   -9000010    2    1    2    0  503  0.19571156667E+03  0.25616091836E+03  0.80106555582E+03  0.13182078856E+04  0.99601434297E+03 0.  0.
        -13    1    3    3    0    0  0.32705328221E+03 -0.38418765800E+03 -0.15171210785E+03  0.52685916600E+03  0.10566000000E+00 0.  1.
          4    1    3    3  501    0 -0.52276484888E+03  0.12802673964E+03 -0.98246607093E+02  0.54710723729E+03  0.00000000000E+00 0.  1.
         13    1    4    4    0    0 -0.12945276041E+03  0.50758761822E+03  0.73398034949E+03  0.90173741851E+03  0.10566000000E+00 0. -1.
         -4    1    4    4    0  503  0.32516432709E+03 -0.25142669986E+03  0.67085206332E+02  0.41647046704E+03  0.00000000000E+00 0. -1.
<mgrwt>
<rscale>  2 0.10462808E+04</rscale>
<asrwt>0</asrwt>
<pdfrwt beam="1">  1       21 0.22640624E+00 0.10468840E+04</pdfrwt>
<pdfrwt beam="2">  1       21 0.14162057E+00 0.10468840E+04</pdfrwt>
<totfact> 0.13523460E+01</totfact>
</mgrwt>
</event>
<event>
 8    1  0.7418332E-006  0.1020260E+04  0.7818608E-02  0.8758163E-01
         21   -1    0    0  501  502  0.00000000000E+00  0.00000000000E+00  0.18086732685E+04  0.18086732685E+04  0.00000000000E+00 0. -1.
         21   -1    0    0  502  503 -0.00000000000E+00 -0.00000000000E+00 -0.65945200401E+03  0.65945200401E+03  0.00000000000E+00 0. -1.
    9000010    2    1    2  501    0 -0.17799169342E+03 -0.31761584608E+02  0.10323498945E+04  0.14514396916E+04  0.10041120617E+04 0.  0.
   -9000010    2    1    2    0  503  0.17799169342E+03  0.31761584608E+02  0.11687136997E+03  0.10166855809E+04  0.99363011837E+03 0.  0.
        -13    1    3    3    0    0 -0.43368492804E+03  0.21407105815E+03  0.15948585125E+03  0.50925905260E+03  0.10566000000E+00 0.  1.
          4    1    3    3  501    0  0.25569323462E+03 -0.24583264276E+03  0.87286404330E+03  0.94218063903E+03  0.00000000000E+00 0.  1.
         13    1    4    4    0    0  0.55818466634E+03  0.11516506342E+03  0.22494587199E+03  0.61272650511E+03  0.10566000000E+00 0. -1.
         -4    1    4    4    0  503 -0.38019297292E+03 -0.83403478811E+02 -0.10807450202E+03  0.40395907580E+03  0.00000000000E+00 0. -1.
<mgrwt>
<rscale>  2 0.10176718E+04</rscale>
<asrwt>0</asrwt>
<pdfrwt beam="1">  1       21 0.27825742E+00 0.10202602E+04</pdfrwt>
<pdfrwt beam="2">  1       21 0.10145415E+00 0.10202602E+04</pdfrwt>
<totfact> 0.14544672E+01</totfact>
</mgrwt>
</event>
<event>
 8    1  0.7418332E-006  0.1071010E+04  0.7818608E-02  0.8724759E-01
         21   -1    0    0  501  502  0.00000000000E+00  0.00000000000E+00  0.69604783610E+03  0.69604783610E+03  0.00000000000E+00 0.  1.
         21   -1    0    0  502  503 -0.00000000000E+00 -0.00000000000E+00 -0.15640455586E+04  0.15640455586E+04  0.00000000000E+00 0.  1.
    9000010    2    1    2  501    0 -0.14655832795E+03 -0.37002550891E+03 -0.34700497300E+03  0.11258217622E+04  0.99431582926E+03 0.  0.
   -9000010    2    1    2    0  503  0.14655832795E+03  0.37002550891E+03 -0.52099274953E+03  0.11342716325E+04  0.92560276061E+03 0.  0.
        -13    1    3    3    0    0  0.34469918198E+03 -0.39571558757E+03 -0.35541637002E+03  0.63382107850E+03  0.10566000000E+00 0.  1.
          4    1    3    3  501    0 -0.49125750993E+03  0.25690078660E+02  0.84113970208E+01  0.49200068374E+03  0.00000000000E+00 0.  1.
         13    1    4    4    0    0  0.33854090492E+03 -0.18047376674E+03 -0.36779656407E+03  0.53146500213E+03  0.10566000000E+00 0. -1.
         -4    1    4    4    0  503 -0.19198257697E+03  0.55049927565E+03 -0.15319618545E+03  0.60280663035E+03  0.00000000000E+00 0. -1.
<mgrwt>
<rscale>  2 0.10547773E+04</rscale>
<asrwt>0</asrwt>
<pdfrwt beam="1">  1       21 0.10708428E+00 0.10710099E+04</pdfrwt>
<pdfrwt beam="2">  1       21 0.24062239E+00 0.10710099E+04</pdfrwt>
<totfact> 0.23296093E+01</totfact>
</mgrwt>
</event>
<event>
 8    1  0.7418332E-006  0.1012470E+04  0.7818608E-02  0.8764926E-01
         21   -1    0    0  501  502  0.00000000000E+00  0.00000000000E+00  0.10743690312E+04  0.10743690312E+04  0.00000000000E+00 0.  1.
         21   -1    0    0  502  503 -0.00000000000E+00 -0.00000000000E+00 -0.10185922910E+04  0.10185922910E+04  0.00000000000E+00 0.  1.
    9000010    2    1    2  501    0  0.13619865497E+03 -0.22970228210E+01  0.30699521614E+03  0.10579897780E+04  0.10032651482E+04 0.  0.
   -9000010    2    1    2    0  503 -0.13619865497E+03  0.22970228210E+01 -0.25121847588E+03  0.10349715442E+04  0.99473615838E+03 0.  0.
        -13    1    3    3    0    0  0.39313002263E+03 -0.24610958331E+03  0.47681167617E+03  0.66518458144E+03  0.10566000000E+00 0.  1.
          4    1    3    3  501    0 -0.25693136766E+03  0.24381256049E+03 -0.16981646003E+03  0.39280519655E+03  0.00000000000E+00 0.  1.
         13    1    4    4    0    0 -0.74616408777E+02 -0.31250934305E+03 -0.52349082478E+03  0.61422500173E+03  0.10566000000E+00 0. -1.
         -4    1    4    4    0  503 -0.61582246194E+02  0.31480636587E+03  0.27227234891E+03  0.42074654249E+03  0.00000000000E+00 0. -1.
<mgrwt>
<rscale>  2 0.10103511E+04</rscale>
<asrwt>0</asrwt>
<pdfrwt beam="1">  1       21 0.16528754E+00 0.10124704E+04</pdfrwt>
<pdfrwt beam="2">  1       21 0.15670651E+00 0.10124704E+04</pdfrwt>
<totfact> 0.30394725E+01</totfact>
</mgrwt>
</event>
<event>
 8    1  0.7418332E-006  0.1004870E+04  0.7818608E-02  0.8775159E-01
         21   -1    0    0  501  502  0.00000000000E+00  0.00000000000E+00  0.11531511492E+04  0.11531511492E+04  0.00000000000E+00 0. -1.
         21   -1    0    0  502  503 -0.00000000000E+00 -0.00000000000E+00 -0.11828843530E+04  0.11828843530E+04  0.00000000000E+00 0. -1.
    9000010    2    1    2  501    0  0.15949300565E+02 -0.61867220755E+02  0.59844919999E+03  0.11509716860E+04  0.98107718547E+03 0.  0.
   -9000010    2    1    2    0  503 -0.15949300565E+02  0.61867220755E+02 -0.62818240372E+03  0.11850638162E+04  0.10028365684E+04 0.  0.
        -13    1    3    3    0    0 -0.22828052182E+03  0.38492238514E+03  0.41328437873E+03  0.60916436869E+03  0.10566000000E+00 0.  1.
          4    1    3    3  501    0  0.24422982238E+03 -0.44678960589E+03  0.18516482127E+03  0.54180731733E+03  0.00000000000E+00 0.  1.
         13    1    4    4    0    0 -0.11566497354E+03  0.42686750241E+03 -0.67166858316E+03  0.80419708249E+03  0.10566000000E+00 0. -1.
         -4    1    4    4    0  503  0.99715672976E+02 -0.36500028165E+03  0.43486179443E+02  0.38086673371E+03  0.00000000000E+00 0. -1.
<mgrwt>
<rscale>  2 0.99939655E+03</rscale>
<asrwt>0</asrwt>
<pdfrwt beam="1">  1       21 0.17740787E+00 0.10048697E+04</pdfrwt>
<pdfrwt beam="2">  1       21 0.18198221E+00 0.10048697E+04</pdfrwt>
<totfact> 0.14794294E+01</totfact>
</mgrwt>
</event>
<event>
 8    1  0.7418332E-006  0.1074987E+04  0.7818608E-02  0.8715560E-01
         21   -1    0    0  501  502  0.00000000000E+00  0.00000000000E+00  0.11416349535E+04  0.11416349535E+04  0.00000000000E+00 0. -1.
         21   -1    0    0  502  503 -0.00000000000E+00 -0.00000000000E+00 -0.12004233553E+04  0.12004233553E+04  0.00000000000E+00 0. -1.
    9000010    2    1    2  501    0 -0.25147114729E+03  0.46784735255E+02  0.47675421886E+03  0.11410572428E+04  0.10046345091E+04 0.  0.
   -9000010    2    1    2    0  503  0.25147114729E+03 -0.46784735255E+02 -0.53554262067E+03  0.12010010660E+04  0.10441125957E+04 0.  0.
        -13    1    3    3    0    0 -0.32424849827E+03 -0.57875849554E+02  0.76117153665E+03  0.82937857577E+03  0.10566000000E+00 0.  1.
          4    1    3    3  501    0  0.72777350983E+02  0.10466058481E+03 -0.28441731779E+03  0.31167866704E+03  0.00000000000E+00 0.  1.
         13    1    4    4    0    0 -0.11141179787E+03  0.65211613177E+02 -0.75258923547E+03  0.76358084818E+03  0.10566000000E+00 0. -1.
         -4    1    4    4    0  503  0.36288294516E+03 -0.11199634843E+03  0.21704661480E+03  0.43742021780E+03  0.00000000000E+00 0. -1.
<mgrwt>
<rscale>  2 0.10652812E+04</rscale>
<asrwt>0</asrwt>
<pdfrwt beam="1">  1       21 0.17563615E+00 0.10749873E+04</pdfrwt>
<pdfrwt beam="2">  1       21 0.18468052E+00 0.10749873E+04</pdfrwt>
<totfact> 0.14310524E+01</totfact>
</mgrwt>
</event>
<event>
 8    1  0.7418332E-006  0.1121977E+04  0.7818608E-02  0.8667851E-01
         21   -1    0    0  503  502  0.00000000000E+00  0.00000000000E+00  0.82917253773E+03  0.82917253773E+03  0.00000000000E+00 0.  1.
         21   -1    0    0  501  503 -0.00000000000E+00 -0.00000000000E+00 -0.23241123623E+04  0.23241123623E+04  0.00000000000E+00 0.  1.
    9000010    2    1    2  501    0 -0.50307617445E+03 -0.92581566996E+02 -0.16763962502E+04  0.20172101176E+04  0.99858664459E+03 0.  0.
   -9000010    2    1    2    0  502  0.50307617445E+03  0.92581566996E+02  0.18145642572E+03  0.11360747824E+04  0.99803932436E+03 0.  0.
        -13    1    3    3    0    0 -0.18685092011E+03  0.43656040701E+03 -0.96769904157E+03  0.10779330691E+04  0.10566000000E+00 0.  1.
          4    1    3    3  501    0 -0.31622525434E+03 -0.52914197400E+03 -0.70869720867E+03  0.93927704844E+03  0.00000000000E+00 0.  1.
         13    1    4    4    0    0  0.35073949990E+03 -0.17220354966E+03 -0.34902873174E+03  0.52392110670E+03  0.10566000000E+00 0. -1.
         -4    1    4    4    0  502  0.15233667455E+03  0.26478511666E+03  0.53048515745E+03  0.61215367572E+03  0.00000000000E+00 0. -1.
<mgrwt>
<rscale>  2 0.11218552E+04</rscale>
<asrwt>0</asrwt>
<pdfrwt beam="1">  1       21 0.12756501E+00 0.11219769E+04</pdfrwt>
<pdfrwt beam="2">  1       21 0.35755574E+00 0.11219769E+04</pdfrwt>
<totfact> 0.20919677E+00</totfact>
</mgrwt>
</event>
<event>
 8    1  0.7418332E-006  0.1033497E+04  0.7818608E-02  0.8748652E-01
         21   -1    0    0  503  502  0.00000000000E+00  0.00000000000E+00  0.12494648968E+04  0.12494648968E+04  0.00000000000E+00 0.  1.
         21   -1    0    0  501  503 -0.00000000000E+00 -0.00000000000E+00 -0.89392757205E+03  0.89392757205E+03  0.00000000000E+00 0.  1.
    9000010    2    1    2  501    0 -0.45277309649E+02  0.13283128301E+03 -0.90558098207E+02  0.10374565609E+04  0.10239243927E+04 0.  0.
   -9000010    2    1    2    0  502  0.45277309649E+02 -0.13283128301E+03  0.44609542291E+03  0.11059359080E+04  0.10021970473E+04 0.  0.
        -13    1    3    3    0    0  0.35549227743E+03  0.24141615534E+03  0.25288537767E+03  0.49860560043E+03  0.10566000000E+00 0.  1.
          4    1    3    3  501    0 -0.40076958708E+03 -0.10858487234E+03 -0.34344347588E+03  0.53885096043E+03  0.00000000000E+00 0.  1.
         13    1    4    4    0    0 -0.17898316507E+03 -0.45722937042E+03  0.50825954166E+03  0.70669756148E+03  0.10566000000E+00 0. -1.
         -4    1    4    4    0  502  0.22426047472E+03  0.32439808741E+03 -0.62164118750E+02  0.39923834648E+03  0.00000000000E+00 0. -1.
<mgrwt>
<rscale>  2 0.10280737E+04</rscale>
<asrwt>0</asrwt>
<pdfrwt beam="1">  1       21 0.19222537E+00 0.10334967E+04</pdfrwt>
<pdfrwt beam="2">  1       21 0.13752732E+00 0.10334967E+04</pdfrwt>
<totfact> 0.27091971E+01</totfact>
</mgrwt>
</event>
<event>
 8    1  0.7418332E-006  0.1312190E+04  0.7818608E-02  0.8527425E-01
         21   -1    0    0  501  502  0.00000000000E+00  0.00000000000E+00  0.11309016045E+04  0.11309016045E+04  0.00000000000E+00 0.  1.
         21   -1    0    0  502  503 -0.00000000000E+00 -0.00000000000E+00 -0.16314008685E+04  0.16314008685E+04  0.00000000000E+00 0.  1.
    9000010    2    1    2  501    0 -0.38290073323E+03  0.74251362624E+03  0.11663285217E+03  0.13122353164E+04  0.10051959245E+04 0.  0.
   -9000010    2    1    2    0  503  0.38290073323E+03 -0.74251362624E+03 -0.61713211618E+03  0.14500671566E+04  0.10118810470E+04 0.  0.
        -13    1    3    3    0    0 -0.28644250337E+03  0.96754218297E+03  0.24128355367E+03  0.10374993725E+04  0.10566000000E+00 0.  1.
          4    1    3    3  501    0 -0.96458229861E+02 -0.22502855673E+03 -0.12465070150E+03  0.27473594384E+03  0.00000000000E+00 0.  1.
         13    1    4    4    0    0 -0.24129021142E+03 -0.13146441590E+03 -0.49760412686E+03  0.56843094304E+03  0.10566000000E+00 0. -1.
         -4    1    4    4    0  503  0.62419094465E+03 -0.61104921034E+03 -0.11952798932E+03  0.88163621357E+03  0.00000000000E+00 0. -1.
<mgrwt>
<rscale>  2 0.13109011E+04</rscale>
<asrwt>0</asrwt>
<pdfrwt beam="1">  1       21 0.17398486E+00 0.13121900E+04</pdfrwt>
<pdfrwt beam="2">  1       21 0.25098475E+00 0.13121900E+04</pdfrwt>
<totfact> 0.43947387E+00</totfact>
</mgrwt>
</event>
<event>
 8    1  0.7418332E-006  0.1022994E+04  0.7818608E-02  0.8754900E-01
         21   -1    0    0  503  502  0.00000000000E+00  0.00000000000E+00  0.11410049365E+04  0.11410049365E+04  0.00000000000E+00 0. -1.
         21   -1    0    0  501  503 -0.00000000000E+00 -0.00000000000E+00 -0.11014138497E+04  0.11014138497E+04  0.00000000000E+00 0. -1.
    9000010    2    1    2  501    0 -0.17885002060E+03 -0.39821765890E+02 -0.44648317400E+03  0.11161823524E+04  0.10064505533E+04 0.  0.
   -9000010    2    1    2    0  502  0.17885002060E+03  0.39821765890E+02  0.48607426080E+03  0.11262364338E+04  0.99928335060E+03 0.  0.
        -13    1    3    3    0    0  0.32299916607E+03 -0.24135952405E+03  0.17530196117E+02  0.40359658085E+03  0.10566000000E+00 0.  1.
          4    1    3    3  501    0 -0.50184918667E+03  0.20153775816E+03 -0.46401337012E+03  0.71258577152E+03  0.00000000000E+00 0.  1.
         13    1    4    4    0    0  0.10703300916E+03  0.43131141924E+03  0.56666679716E+03  0.72013670618E+03  0.10566000000E+00 0. -1.
         -4    1    4    4    0  502  0.71817011437E+02 -0.39148965335E+03 -0.80592536360E+02  0.40609972757E+03  0.00000000000E+00 0. -1.
<mgrwt>
<rscale>  2 0.10212264E+04</rscale>
<asrwt>0</asrwt>
<pdfrwt beam="1">  1       21 0.17553922E+00 0.10229936E+04</pdfrwt>
<pdfrwt beam="2">  1       21 0.16944828E+00 0.10229936E+04</pdfrwt>
<totfact> 0.19364522E+01</totfact>
</mgrwt>
</event>
<event>
 8    1  0.7418332E-006  0.9999334E+03  0.7818608E-02  0.8775813E-01
         21   -1    0    0  501  502  0.00000000000E+00  0.00000000000E+00  0.11376525589E+04  0.11376525589E+04  0.00000000000E+00 0.  1.
         21   -1    0    0  502  503 -0.00000000000E+00 -0.00000000000E+00 -0.94483419059E+03  0.94483419059E+03  0.00000000000E+00 0.  1.
    9000010    2    1    2  501    0  0.42933844213E+02  0.91681589695E+02  0.38014801197E+03  0.10651572696E+04  0.98984780100E+03 0.  0.
   -9000010    2    1    2    0  503 -0.42933844213E+02 -0.91681589695E+02 -0.18732964361E+03  0.10173294799E+04  0.99479547971E+03 0.  0.
        -13    1    3    3    0    0  0.43677555284E+03 -0.19524620814E+03  0.60134936013E+02  0.48219310141E+03  0.10566000000E+00 0.  1.
          4    1    3    3  501    0 -0.39384170863E+03  0.28692779784E+03  0.32001307596E+03  0.58296416821E+03  0.00000000000E+00 0.  1.
         13    1    4    4    0    0  0.20475085452E+03  0.18053127080E+03 -0.47658924989E+03  0.54922834636E+03  0.10566000000E+00 0. -1.
         -4    1    4    4    0  503 -0.24768469874E+03 -0.27221286050E+03  0.28925960628E+03  0.46810113356E+03  0.00000000000E+00 0. -1.
<mgrwt>
<rscale>  2 0.99870062E+03</rscale>
<asrwt>0</asrwt>
<pdfrwt beam="1">  1       21 0.17502347E+00 0.99993344E+03</pdfrwt>
<pdfrwt beam="2">  1       21 0.14535911E+00 0.99993344E+03</pdfrwt>
<totfact> 0.31865444E+01</totfact>
</mgrwt>
</event>
<event>
 8    1  0.7418332E-006  0.1222929E+04  0.7818608E-02  0.8594209E-01
         21   -1    0    0  501  502  0.00000000000E+00  0.00000000000E+00  0.14132400474E+04  0.14132400474E+04  0.00000000000E+00 0.  1.
         21   -1    0    0  502  503 -0.00000000000E+00 -0.00000000000E+00 -0.20621026476E+04  0.20621026476E+04  0.00000000000E+00 0. -1.
    9000010    2    1    2  501    0  0.68545013816E+03  0.17157317322E+03  0.89934120451E+03  0.15180152143E+04  0.99813643506E+03 0.  0.
   -9000010    2    1    2    0  503 -0.68545013816E+03 -0.17157317322E+03 -0.15482038047E+04  0.19573274806E+04  0.96691085413E+03 0.  0.
        -13    1    3    3    0    0  0.44247206248E+03 -0.40179857843E+03  0.48913628215E+03  0.77231984137E+03  0.10566000000E+00 0.  1.
          4    1    3    3  501    0  0.24297807569E+03  0.57337175165E+03  0.41020492236E+03  0.74569537291E+03  0.00000000000E+00 0.  1.
         13    1    4    4    0    0 -0.22408254752E+02  0.24723414464E+03 -0.91883077239E+03  0.95177563092E+03  0.10566000000E+00 0. -1.
         -4    1    4    4    0  503 -0.66304188341E+03 -0.41880731786E+03 -0.62937303234E+03  0.10055518497E+04  0.00000000000E+00 0. -1.
<mgrwt>
<rscale>  2 0.12165417E+04</rscale>
<asrwt>0</asrwt>
<pdfrwt beam="1">  1       21 0.21742155E+00 0.12229291E+04</pdfrwt>
<pdfrwt beam="2">  1       21 0.31724656E+00 0.12229291E+04</pdfrwt>
<totfact> 0.68289884E-01</totfact>
</mgrwt>
</event>
<event>
 8    1  0.7418332E-006  0.1203222E+04  0.7818608E-02  0.8607594E-01
         21   -1    0    0  501  502  0.00000000000E+00  0.00000000000E+00  0.16284665071E+04  0.16284665071E+04  0.00000000000E+00 0. -1.
         21   -1    0    0  502  503 -0.00000000000E+00 -0.00000000000E+00 -0.97868452515E+03  0.97868452515E+03  0.00000000000E+00 0. -1.
    9000010    2    1    2  501    0 -0.21323487897E+03 -0.61390210946E+03  0.75020614812E+03  0.14179391421E+04  0.10126189967E+04 0.  0.
   -9000010    2    1    2    0  503  0.21323487897E+03  0.61390210946E+03 -0.10042416613E+03  0.11892118902E+04  0.99085568728E+03 0.  0.
        -13    1    3    3    0    0 -0.27163903212E+03 -0.86666142340E+03  0.71548974808E+03  0.11562073246E+04  0.10566000000E+00 0.  1.
          4    1    3    3  501    0  0.58404153150E+02  0.25275931394E+03  0.34716400041E+02  0.26173181755E+03  0.00000000000E+00 0.  1.
         13    1    4    4    0    0 -0.16078723095E+03  0.75902493524E+03 -0.13103742367E+03  0.78685589756E+03  0.10566000000E+00 0. -1.
         -4    1    4    4    0  503  0.37402210992E+03 -0.14512282578E+03  0.30613257545E+02  0.40235599263E+03  0.00000000000E+00 0. -1.
<mgrwt>
<rscale>  2 0.11986310E+04</rscale>
<asrwt>0</asrwt>
<pdfrwt beam="1">  1       21 0.25053331E+00 0.12032216E+04</pdfrwt>
<pdfrwt beam="2">  1       21 0.15056685E+00 0.12032216E+04</pdfrwt>
<totfact> 0.71996942E+00</totfact>
</mgrwt>
</event>
<event>
 8    1  0.7418332E-006  0.1011568E+04  0.7818608E-02  0.8767867E-01
         21   -1    0    0  503  502  0.00000000000E+00  0.00000000000E+00  0.23268476428E+04  0.23268476428E+04  0.00000000000E+00 0.  1.
         21   -1    0    0  501  503 -0.00000000000E+00 -0.00000000000E+00 -0.46918419886E+03  0.46918419886E+03  0.00000000000E+00 0.  1.
    9000010    2    1    2  501    0 -0.22767800784E+03 -0.76979342709E+02  0.52908787212E+03  0.11261867370E+04  0.96467585005E+03 0.  0.
   -9000010    2    1    2    0  502  0.22767800784E+03  0.76979342709E+02  0.13285755719E+04  0.16698451047E+04  0.98260191794E+03 0.  0.
        -13    1    3    3    0    0 -0.12372442876E+03  0.44084173570E+03  0.17427883771E+03  0.48992070241E+03  0.10566000000E+00 0.  1.
          4    1    3    3  501    0 -0.10395357909E+03 -0.51782107841E+03  0.35480903441E+03  0.63626603458E+03  0.00000000000E+00 0.  1.
         13    1    4    4    0    0  0.11593464618E+03 -0.21352517029E+03  0.13365830979E+04  0.13584874785E+04  0.10566000000E+00 0. -1.
         -4    1    4    4    0  502  0.11174336166E+03  0.29050451300E+03 -0.80075259928E+01  0.31135762624E+03  0.00000000000E+00 0. -1.
<mgrwt>
<rscale>  2 0.10071886E+04</rscale>
<asrwt>0</asrwt>
<pdfrwt beam="1">  1       21 0.35797655E+00 0.10115679E+04</pdfrwt>
<pdfrwt beam="2">  1       21 0.72182186E-01 0.10115679E+04</pdfrwt>
<totfact> 0.93755986E+00</totfact>
</mgrwt>
</event>
<event>
 8    1  0.7418332E-006  0.1029833E+04  0.7818608E-02  0.8751322E-01
         21   -1    0    0  501  502  0.00000000000E+00  0.00000000000E+00  0.20215529503E+04  0.20215529503E+04  0.00000000000E+00 0. -1.
         21   -1    0    0  502  503 -0.00000000000E+00 -0.00000000000E+00 -0.67146767553E+03  0.67146767553E+03  0.00000000000E+00 0. -1.
    9000010    2    1    2  501    0 -0.33486416829E+02  0.18370017442E+03  0.20694062979E+02  0.10114033245E+04  0.99380146222E+03 0.  0.
   -9000010    2    1    2    0  503  0.33486416829E+02 -0.18370017442E+03  0.13293912118E+04  0.16816173014E+04  0.10127628844E+04 0.  0.
        -13    1    3    3    0    0 -0.17641440767E+03  0.87662465011E+02 -0.46021001433E+03  0.50059965987E+03  0.10566000000E+00 0.  1.
          4    1    3    3  501    0  0.14292799085E+03  0.96037709414E+02  0.48090407731E+03  0.51080366460E+03  0.00000000000E+00 0.  1.
         13    1    4    4    0    0  0.48031505147E+03 -0.30229952979E+03  0.73002965673E+03  0.92467879031E+03  0.10566000000E+00 0. -1.
         -4    1    4    4    0  503 -0.44682863464E+03  0.11859935537E+03  0.59936155509E+03  0.75693851107E+03  0.00000000000E+00 0. -1.
<mgrwt>
<rscale>  2 0.10251406E+04</rscale>
<asrwt>0</asrwt>
<pdfrwt beam="1">  1       21 0.31100814E+00 0.10298329E+04</pdfrwt>
<pdfrwt beam="2">  1       21 0.10330272E+00 0.10298329E+04</pdfrwt>
<totfact> 0.81099830E+00</totfact>
</mgrwt>
</event>
<event>
 8    1  0.7418332E-006  0.1023726E+04  0.7818608E-02  0.8752858E-01
         21   -1    0    0  501  502  0.00000000000E+00  0.00000000000E+00  0.10494822355E+04  0.10494822355E+04  0.00000000000E+00 0. -1.
         21   -1    0    0  502  503 -0.00000000000E+00 -0.00000000000E+00 -0.12800784635E+04  0.12800784635E+04  0.00000000000E+00 0. -1.
    9000010    2    1    2  501    0 -0.20729992174E+03 -0.14109749204E+02  0.43195702377E+03  0.11101383775E+04  0.10013231268E+04 0.  0.
   -9000010    2    1    2    0  503  0.20729992174E+03  0.14109749204E+02 -0.66255325176E+03  0.12194223215E+04  0.10024178990E+04 0.  0.
        -13    1    3    3    0    0 -0.46363353446E+02  0.28245207140E+03  0.64874399756E+03  0.70908216641E+03  0.10566000000E+00 0.  1.
          4    1    3    3  501    0 -0.16093656829E+03 -0.29656182061E+03 -0.21678697379E+03  0.40105621110E+03  0.00000000000E+00 0.  1.
         13    1    4    4    0    0 -0.35134345823E+03 -0.38500030233E+01 -0.54471063426E+03  0.64820269546E+03  0.10566000000E+00 0. -1.
         -4    1    4    4    0  503  0.55864337997E+03  0.17959752228E+02 -0.11784261750E+03  0.57121962604E+03  0.00000000000E+00 0. -1.
<mgrwt>
<rscale>  2 0.10234574E+04</rscale>
<asrwt>0</asrwt>
<pdfrwt beam="1">  1       21 0.16145881E+00 0.10237255E+04</pdfrwt>
<pdfrwt beam="2">  1       21 0.19693515E+00 0.10237255E+04</pdfrwt>
<totfact> 0.15228356E+01</totfact>
</mgrwt>
</event>
<event>
 8    1  0.7418332E-006  0.1305438E+04  0.7818608E-02  0.8531537E-01
         21   -1    0    0  503  502  0.00000000000E+00  0.00000000000E+00  0.16416938650E+04  0.16416938650E+04  0.00000000000E+00 0.  1.
         21   -1    0    0  501  503 -0.00000000000E+00 -0.00000000000E+00 -0.15545646484E+04  0.15545646484E+04  0.00000000000E+00 0.  1.
    9000010    2    1    2  501    0 -0.19131172402E+03  0.82312459358E+03 -0.87928142717E+03  0.15739453543E+04  0.99500446119E+03 0.  0.
   -9000010    2    1    2    0  502  0.19131172402E+03 -0.82312459358E+03  0.96641064381E+03  0.16223131591E+04  0.99187508351E+03 0.  0.
        -13    1    3    3    0    0 -0.39815464311E+03 -0.41424090866E+02 -0.39167923777E+03  0.56004974029E+03  0.10566000000E+00 0.  1.
          4    1    3    3  501    0  0.20684291909E+03  0.86454868445E+03 -0.48760218941E+03  0.10138956140E+04  0.00000000000E+00 0.  1.
         13    1    4    4    0    0 -0.14336073331E+03 -0.62536603269E+03  0.10445012771E+04  0.12258131602E+04  0.10566000000E+00 0. -1.
         -4    1    4    4    0  502  0.33467245733E+03 -0.19775856089E+03 -0.78090633275E+02  0.39649999887E+03  0.00000000000E+00 0. -1.
<mgrwt>
<rscale>  2 0.13048416E+04</rscale>
<asrwt>0</asrwt>
<pdfrwt beam="1">  1       21 0.25256828E+00 0.13054379E+04</pdfrwt>
<pdfrwt beam="2">  1       21 0.23916379E+00 0.13054379E+04</pdfrwt>
<totfact> 0.13344408E+00</totfact>
</mgrwt>
</event>
<event>
 8    1  0.7418332E-006  0.1084031E+04  0.7818608E-02  0.8704425E-01
         21   -1    0    0  503  502  0.00000000000E+00  0.00000000000E+00  0.15791790827E+04  0.15791790827E+04  0.00000000000E+00 0. -1.
         21   -1    0    0  501  503 -0.00000000000E+00 -0.00000000000E+00 -0.83168759140E+03  0.83168759140E+03  0.00000000000E+00 0. -1.
    9000010    2    1    2  501    0 -0.25863477594E+03  0.23149751892E+03 -0.47787759743E+02  0.10850835768E+04  0.10269564986E+04 0.  0.
   -9000010    2    1    2    0  502  0.25863477594E+03 -0.23149751892E+03  0.79527925107E+03  0.13257830974E+04  0.10023715307E+04 0.  0.
        -13    1    3    3    0    0 -0.51527473187E+03  0.43368593268E+03  0.16725229433E+03  0.69394875793E+03  0.10566000000E+00 0.  1.
          4    1    3    3  501    0  0.25663995593E+03 -0.20218841376E+03 -0.21504005408E+03  0.39113481882E+03  0.00000000000E+00 0.  1.
         13    1    4    4    0    0  0.71570340044E+01 -0.32927059651E+03 -0.13591178880E+03  0.35628973373E+03  0.10566000000E+00 0. -1.
         -4    1    4    4    0  502  0.25147774194E+03  0.97773077593E+02  0.93119103987E+03  0.96949336363E+03  0.00000000000E+00 0. -1.
<mgrwt>
<rscale>  2 0.10781680E+04</rscale>
<asrwt>0</asrwt>
<pdfrwt beam="1">  1       21 0.24295063E+00 0.10840308E+04</pdfrwt>
<pdfrwt beam="2">  1       21 0.12795194E+00 0.10840308E+04</pdfrwt>
<totfact> 0.13627325E+01</totfact>
</mgrwt>
</event>
<event>
 8    1  0.7418332E-006  0.1052642E+04  0.7818608E-02  0.8727108E-01
         21   -1    0    0  501  502  0.00000000000E+00  0.00000000000E+00  0.39791068839E+04  0.39791068839E+04  0.00000000000E+00 0. -1.
         21   -1    0    0  502  503 -0.00000000000E+00 -0.00000000000E+00 -0.29794758990E+03  0.29794758990E+03  0.00000000000E+00 0. -1.
    9000010    2    1    2  501    0 -0.64913679246E+02 -0.31166089613E+03  0.23934287701E+04  0.26138333518E+04  0.10011379592E+04 0.  0.
   -9000010    2    1    2    0  503  0.64913679246E+02  0.31166089613E+03  0.12877305239E+04  0.16632211220E+04  0.10033485429E+04 0.  0.
        -13    1    3    3    0    0  0.29702955774E+03 -0.53590467528E+03  0.16013693713E+04  0.17145857382E+04  0.10566000000E+00 0.  1.
          4    1    3    3  501    0 -0.36194323698E+03  0.22424377915E+03  0.79205939881E+03  0.89924761358E+03  0.00000000000E+00 0.  1.
         13    1    4    4    0    0 -0.19095577606E+03  0.52714726305E+03  0.11887990524E+04  0.13143787672E+04  0.10566000000E+00 0. -1.
         -4    1    4    4    0  503  0.25586945530E+03 -0.21548636692E+03  0.98931471457E+02  0.34884235484E+03  0.00000000000E+00 0. -1.
<mgrwt>
<rscale>  2 0.10521146E+04</rscale>
<asrwt>0</asrwt>
<pdfrwt beam="1">  1       21 0.61217025E+00 0.10526417E+04</pdfrwt>
<pdfrwt beam="2">  1       21 0.45838094E-01 0.10526417E+04</pdfrwt>
<totfact> 0.40408199E-01</totfact>
</mgrwt>
</event>
<event>
 8    1  0.7418332E-006  0.9988676E+03  0.7818608E-02  0.8782780E-01
         21   -1    0    0  503  502  0.00000000000E+00  0.00000000000E+00  0.54555042438E+03  0.54555042438E+03  0.00000000000E+00 0.  1.
         21   -1    0    0  501  503 -0.00000000000E+00 -0.00000000000E+00 -0.18313416363E+04  0.18313416363E+04  0.00000000000E+00 0.  1.
    9000010    2    1    2  501    0 -0.87024755305E+02  0.30302469728E+02 -0.86133084220E+03  0.13189492837E+04  0.99460788533E+03 0.  0.
   -9000010    2    1    2    0  502  0.87024755305E+02 -0.30302469728E+02 -0.42446036971E+03  0.10579427770E+04  0.96466821559E+03 0.  0.
        -13    1    3    3    0    0  0.31786187571E+03  0.24759490606E+03 -0.77414692184E+02  0.41028338410E+03  0.10566000000E+00 0.  1.
          4    1    3    3  501    0 -0.40488663102E+03 -0.21729243633E+03 -0.78391615001E+03  0.90866589961E+03  0.00000000000E+00 0.  1.
         13    1    4    4    0    0  0.22688503109E+03  0.16442908756E+03  0.22900742197E+03  0.36188140689E+03  0.10566000000E+00 0. -1.
         -4    1    4    4    0  502 -0.13986027579E+03 -0.19473155729E+03 -0.65346779168E+03  0.69606137008E+03  0.00000000000E+00 0. -1.
<mgrwt>
<rscale>  2 0.99133067E+03</rscale>
<asrwt>0</asrwt>
<pdfrwt beam="1">  1       21 0.83930833E-01 0.99886756E+03</pdfrwt>
<pdfrwt beam="2">  1       21 0.28174487E+00 0.99886756E+03</pdfrwt>
<totfact> 0.22446548E+01</totfact>
</mgrwt>
</event>
<event>
 8    1  0.7418332E-006  0.1094595E+04  0.7818608E-02  0.8692370E-01
         21   -1    0    0  501  502  0.00000000000E+00  0.00000000000E+00  0.54180498719E+03  0.54180498719E+03  0.00000000000E+00 0. -1.
         21   -1    0    0  502  503 -0.00000000000E+00 -0.00000000000E+00 -0.23072551229E+04  0.23072551229E+04  0.00000000000E+00 0. -1.
    9000010    2    1    2  501    0  0.32588943412E+03  0.30558253878E+03 -0.56255903852E+03  0.12226884568E+04  0.98939869578E+03 0.  0.
   -9000010    2    1    2    0  503 -0.32588943412E+03 -0.30558253878E+03 -0.12028910972E+04  0.16263716533E+04  0.99927631402E+03 0.  0.
        -13    1    3    3    0    0  0.57096062940E+03  0.49341170454E+03 -0.28230477674E+03  0.80569668526E+03  0.10566000000E+00 0.  1.
          4    1    3    3  501    0 -0.24507119527E+03 -0.18782916576E+03 -0.28025426178E+03  0.41699177151E+03  0.00000000000E+00 0.  1.
         13    1    4    4    0    0  0.10573692818E+03 -0.63217414204E+02  0.14511102042E+03  0.19035219687E+03  0.10566000000E+00 0. -1.
         -4    1    4    4    0  503 -0.43162636230E+03 -0.24236512458E+03 -0.13480021176E+04  0.14360194565E+04  0.00000000000E+00 0. -1.
<mgrwt>
<rscale>  2 0.10923353E+04</rscale>
<asrwt>0</asrwt>
<pdfrwt beam="1">  1       21 0.83354615E-01 0.10945948E+04</pdfrwt>
<pdfrwt beam="2">  1       21 0.35496232E+00 0.10945948E+04</pdfrwt>
<totfact> 0.68182605E+00</totfact>
</mgrwt>
</event>
<event>
 8    1  0.7418332E-006  0.1090277E+04  0.7818608E-02  0.8697857E-01
         21   -1    0    0  501  502  0.00000000000E+00  0.00000000000E+00  0.14649034714E+04  0.14649034714E+04  0.00000000000E+00 0. -1.
         21   -1    0    0  502  503 -0.00000000000E+00 -0.00000000000E+00 -0.10211023506E+04  0.10211023506E+04  0.00000000000E+00 0. -1.
    9000010    2    1    2  501    0 -0.40871750653E+03  0.13155814034E+02  0.80092909946E+03  0.13387288179E+04  0.99170779463E+03 0.  0.
   -9000010    2    1    2    0  503  0.40871750653E+03 -0.13155814034E+02 -0.35712797869E+03  0.11472770041E+04  0.10106834596E+04 0.  0.
        -13    1    3    3    0    0  0.45716214852E+02 -0.37969232686E+03  0.58796072885E+03  0.70139437210E+03  0.10566000000E+00 0.  1.
          4    1    3    3  501    0 -0.45443372139E+03  0.39284814089E+03  0.21296837061E+03  0.63733444581E+03  0.00000000000E+00 0.  1.
         13    1    4    4    0    0  0.11673549095E+03 -0.18435487068E+03  0.32171364344E+03  0.38873329255E+03  0.10566000000E+00 0. -1.
         -4    1    4    4    0  503  0.29198201558E+03  0.17119905665E+03 -0.67884162214E+03  0.75854371157E+03  0.00000000000E+00 0. -1.
<mgrwt>
<rscale>  2 0.10858586E+04</rscale>
<asrwt>0</asrwt>
<pdfrwt beam="1">  1       21 0.22536976E+00 0.10902771E+04</pdfrwt>
<pdfrwt beam="2">  1       21 0.15709267E+00 0.10902771E+04</pdfrwt>
<totfact> 0.99103383E+00</totfact>
</mgrwt>
</event>
<event>
 8    1  0.7418332E-006  0.1102424E+04  0.7818608E-02  0.8702376E-01
         21   -1    0    0  503  502  0.00000000000E+00  0.00000000000E+00  0.14558683036E+04  0.14558683036E+04  0.00000000000E+00 0.  1.
         21   -1    0    0  501  503 -0.00000000000E+00 -0.00000000000E+00 -0.84269630451E+03  0.84269630451E+03  0.00000000000E+00 0.  1.
    9000010    2    1    2  501    0 -0.10920489776E+03  0.39956054266E+03  0.65106145462E+03  0.12803198052E+04  0.10216474191E+04 0.  0.
   -9000010    2    1    2    0  502  0.10920489776E+03 -0.39956054266E+03 -0.37889455539E+02  0.10182448029E+04  0.92941515526E+03 0.  0.
        -13    1    3    3    0    0 -0.12602263175E+03  0.62724148529E+03  0.55122016311E+02  0.64214642600E+03  0.10566000000E+00 0.  1.
          4    1    3    3  501    0  0.16817733995E+02 -0.22768094262E+03  0.59593943831E+03  0.63817337922E+03  0.00000000000E+00 0.  1.
         13    1    4    4    0    0  0.39563963375E+03  0.62972289644E+02  0.17085395782E+03  0.43553107252E+03  0.10566000000E+00 0. -1.
         -4    1    4    4    0  502 -0.28643473599E+03 -0.46253283231E+03 -0.20874341336E+03  0.58271373038E+03  0.00000000000E+00 0. -1.
<mgrwt>
<rscale>  2 0.10805608E+04</rscale>
<asrwt>0</asrwt>
<pdfrwt beam="1">  1       21 0.22397974E+00 0.11024236E+04</pdfrwt>
<pdfrwt beam="2">  1       21 0.12964559E+00 0.11024236E+04</pdfrwt>
<totfact> 0.18061112E+01</totfact>
</mgrwt>
</event>
<event>
 8    1  0.7418332E-006  0.1066701E+04  0.7818608E-02  0.8716928E-01
         21   -1    0    0  503  502  0.00000000000E+00  0.00000000000E+00  0.13856206618E+04  0.13856206618E+04  0.00000000000E+00 0. -1.
         21   -1    0    0  501  503 -0.00000000000E+00 -0.00000000000E+00 -0.10761804761E+04  0.10761804761E+04  0.00000000000E+00 0. -1.
    9000010    2    1    2  501    0 -0.15199633996E+03  0.33194230229E+03 -0.45442873118E+03  0.11594641717E+04  0.10022789603E+04 0.  0.
   -9000010    2    1    2    0  502  0.15199633996E+03 -0.33194230229E+03  0.76386891684E+03  0.13023369662E+04  0.98959449877E+03 0.  0.
        -13    1    3    3    0    0  0.14602885245E+03  0.59640397039E+03 -0.44953443346E+03  0.76098839655E+03  0.10566000000E+00 0.  1.
          4    1    3    3  501    0 -0.29802519242E+03 -0.26446166810E+03 -0.48942977195E+01  0.39847577512E+03  0.00000000000E+00 0.  1.
         13    1    4    4    0    0 -0.19721729025E+03 -0.34427241885E+02 -0.16949963675E+03  0.26231666470E+03  0.10566000000E+00 0. -1.
         -4    1    4    4    0  502  0.34921363021E+03 -0.29751506041E+03  0.93336855359E+03  0.10400203015E+04  0.00000000000E+00 0. -1.
<mgrwt>
<rscale>  2 0.10637114E+04</rscale>
<asrwt>0</asrwt>
<pdfrwt beam="1">  1       21 0.21317241E+00 0.10667013E+04</pdfrwt>
<pdfrwt beam="2">  1       21 0.16556623E+00 0.10667013E+04</pdfrwt>
<totfact> 0.10414097E+01</totfact>
</mgrwt>
</event>
<event>
 8    1  0.7418332E-006  0.1049406E+04  0.7818608E-02  0.8741557E-01
         21   -1    0    0  501  502  0.00000000000E+00  0.00000000000E+00  0.11925424157E+04  0.11925424157E+04  0.00000000000E+00 0. -1.
         21   -1    0    0  502  503 -0.00000000000E+00 -0.00000000000E+00 -0.10183700627E+04  0.10183700627E+04  0.00000000000E+00 0. -1.
    9000010    2    1    2  501    0 -0.22532068524E+02 -0.19135256884E+03  0.49622529972E+03  0.11132009857E+04  0.97767754746E+03 0.  0.
   -9000010    2    1    2    0  503  0.22532068524E+02  0.19135256884E+03 -0.32205294665E+03  0.10977114927E+04  0.10315662466E+04 0.  0.
        -13    1    3    3    0    0  0.15306109407E+03 -0.47258792147E+03 -0.22841788169E+02  0.49728140976E+03  0.10566000000E+00 0.  1.
          4    1    3    3  501    0 -0.17559316260E+03  0.28123535263E+03  0.51906708789E+03  0.61591957596E+03  0.00000000000E+00 0.  1.
         13    1    4    4    0    0  0.38816806020E+03  0.43401575505E+03 -0.57034394327E+02  0.58506157957E+03  0.10566000000E+00 0. -1.
         -4    1    4    4    0  503 -0.36563599168E+03 -0.24266318621E+03 -0.26501855232E+03  0.51264991312E+03  0.00000000000E+00 0. -1.
<mgrwt>
<rscale>  2 0.10359170E+04</rscale>
<asrwt>0</asrwt>
<pdfrwt beam="1">  1       21 0.18346806E+00 0.10494057E+04</pdfrwt>
<pdfrwt beam="2">  1       21 0.15667232E+00 0.10494057E+04</pdfrwt>
<totfact> 0.21323212E+01</totfact>
</mgrwt>
</event>
<event>
 8    1  0.7418332E-006  0.1030301E+04  0.7818608E-02  0.8748895E-01
         21   -1    0    0  503  502  0.00000000000E+00  0.00000000000E+00  0.45803295256E+03  0.45803295256E+03  0.00000000000E+00 0.  1.
         21   -1    0    0  501  503 -0.00000000000E+00 -0.00000000000E+00 -0.22970969278E+04  0.22970969278E+04  0.00000000000E+00 0.  1.
    9000010    2    1    2  501    0  0.98626490644E+02 -0.11881075116E+03 -0.88501872358E+03  0.13582259317E+04  0.10186640081E+04 0.  0.
   -9000010    2    1    2    0  502 -0.98626490644E+02  0.11881075116E+03 -0.95404525164E+03  0.13969039486E+04  0.10086104898E+04 0.  0.
        -13    1    3    3    0    0  0.51823322205E+03  0.16176189714E+02 -0.72066259328E+03  0.88779610613E+03  0.10566000000E+00 0.  1.
          4    1    3    3  501    0 -0.41960673141E+03 -0.13498694088E+03 -0.16435613030E+03  0.47042982560E+03  0.00000000000E+00 0.  1.
         13    1    4    4    0    0 -0.96838728309E+01 -0.29807907102E+02 -0.11413576207E+04  0.11417878604E+04  0.10566000000E+00 0. -1.
         -4    1    4    4    0  502 -0.88942617813E+02  0.14861865827E+03  0.18731236905E+03  0.25511608818E+03  0.00000000000E+00 0. -1.
<mgrwt>
<rscale>  2 0.10278070E+04</rscale>
<asrwt>0</asrwt>
<pdfrwt beam="1">  1       21 0.70466609E-01 0.10303007E+04</pdfrwt>
<pdfrwt beam="2">  1       21 0.35339952E+00 0.10303007E+04</pdfrwt>
<totfact> 0.10645801E+01</totfact>
</mgrwt>
</event>
<event>
 8    1  0.7418332E-006  0.1015938E+04  0.7818608E-02  0.8760281E-01
         21   -1    0    0  501  502  0.00000000000E+00  0.00000000000E+00  0.13998232016E+04  0.13998232016E+04  0.00000000000E+00 0.  1.
         21   -1    0    0  502  503 -0.00000000000E+00 -0.00000000000E+00 -0.73708681994E+03  0.73708681994E+03  0.00000000000E+00 0.  1.
    9000010    2    1    2  501    0  0.18755334519E+03 -0.77303931610E+02  0.37827583703E+03  0.10840771798E+04  0.99547906449E+03 0.  0.
   -9000010    2    1    2    0  503 -0.18755334519E+03  0.77303931610E+02  0.28446054465E+03  0.10528328417E+04  0.99317019489E+03 0.  0.
        -13    1    3    3    0    0 -0.29921950019E+03  0.27553695009E+03  0.21975999895E+03  0.46232822590E+03  0.10566000000E+00 0.  1.
          4    1    3    3  501    0  0.48677284538E+03 -0.35284088170E+03  0.15851583808E+03  0.62174895394E+03  0.00000000000E+00 0.  1.
         13    1    4    4    0    0 -0.11152310266E+03  0.15540395614E+03 -0.35548052154E+03  0.40367586548E+03  0.10566000000E+00 0. -1.
         -4    1    4    4    0  503 -0.76030242532E+02 -0.78100024529E+02  0.63994106620E+03  0.64915697625E+03  0.00000000000E+00 0. -1.
<mgrwt>
<rscale>  2 0.10153723E+04</rscale>
<asrwt>0</asrwt>
<pdfrwt beam="1">  1       21 0.21535742E+00 0.10159383E+04</pdfrwt>
<pdfrwt beam="2">  1       21 0.11339797E+00 0.10159383E+04</pdfrwt>
<totfact> 0.31151692E+01</totfact>
</mgrwt>
</event>
<event>
 8    1  0.7418332E-006  0.1184556E+04  0.7818608E-02  0.8649388E-01
         21   -1    0    0  501  502  0.00000000000E+00  0.00000000000E+00  0.12848959269E+04  0.12848959269E+04  0.00000000000E+00 0. -1.
         21   -1    0    0  502  503 -0.00000000000E+00 -0.00000000000E+00 -0.10036041948E+04  0.10036041948E+04  0.00000000000E+00 0. -1.
    9000010    2    1    2  501    0 -0.23352598175E+03 -0.12302451477E+03  0.37781552121E+03  0.11000179506E+04  0.99881204849E+03 0.  0.
   -9000010    2    1    2    0  503  0.23352598175E+03  0.12302451477E+03 -0.96523789065E+02  0.11884821710E+04  0.11547742696E+04 0.  0.
        -13    1    3    3    0    0  0.14659590485E+02  0.40977871433E+03  0.29791601463E+03  0.50684066653E+03  0.10566000000E+00 0.  1.
          4    1    3    3  501    0 -0.24818557224E+03 -0.53280322910E+03  0.79899506588E+02  0.59317728409E+03  0.00000000000E+00 0.  1.
         13    1    4    4    0    0  0.13038831420E+03  0.48503695030E+03  0.34420658548E+03  0.60888434065E+03  0.10566000000E+00 0. -1.
         -4    1    4    4    0  503  0.10313766755E+03 -0.36201243553E+03 -0.44073037455E+03  0.57959783039E+03  0.00000000000E+00 0. -1.
<mgrwt>
<rscale>  2 0.11447279E+04</rscale>
<asrwt>0</asrwt>
<pdfrwt beam="1">  1       21 0.19767630E+00 0.11845560E+04</pdfrwt>
<pdfrwt beam="2">  1       21 0.15440065E+00 0.11845560E+04</pdfrwt>
<totfact> 0.16708792E+01</totfact>
</mgrwt>
</event>
<event>
 8    1  0.7418332E-006  0.1031842E+04  0.7818608E-02  0.8753344E-01
         21   -1    0    0  503  502  0.00000000000E+00  0.00000000000E+00  0.97218965759E+03  0.97218965759E+03  0.00000000000E+00 0.  1.
         21   -1    0    0  501  503 -0.00000000000E+00 -0.00000000000E+00 -0.12033823463E+04  0.12033823463E+04  0.00000000000E+00 0.  1.
    9000010    2    1    2  501    0 -0.28704396748E+01  0.10456716082E+02 -0.49525979560E+03  0.11445440967E+04  0.10317855116E+04 0.  0.
   -9000010    2    1    2    0  502  0.28704396748E+01 -0.10456716082E+02  0.26406710686E+03  0.10310279072E+04  0.99657891113E+03 0.  0.
        -13    1    3    3    0    0  0.15271440548E+03 -0.39306477060E+01 -0.79338308961E+03  0.80795660631E+03  0.10566000000E+00 0.  1.
          4    1    3    3  501    0 -0.15558484515E+03  0.14387363788E+02  0.29812329401E+03  0.33658749043E+03  0.00000000000E+00 0.  1.
         13    1    4    4    0    0  0.12170723643E+03 -0.35734205630E+03  0.47599150053E+03  0.60751454002E+03  0.10566000000E+00 0. -1.
         -4    1    4    4    0  502 -0.11883679675E+03  0.34688534022E+03 -0.21192439366E+03  0.42351336715E+03  0.00000000000E+00 0. -1.
<mgrwt>
<rscale>  2 0.10229264E+04</rscale>
<asrwt>0</asrwt>
<pdfrwt beam="1">  1       21 0.14956764E+00 0.10318425E+04</pdfrwt>
<pdfrwt beam="2">  1       21 0.18513574E+00 0.10318425E+04</pdfrwt>
<totfact> 0.23975326E+01</totfact>
</mgrwt>
</event>
<event>
 8    1  0.7418332E-006  0.1041113E+04  0.7818608E-02  0.8738061E-01
         21   -1    0    0  501  502  0.00000000000E+00  0.00000000000E+00  0.24093080577E+04  0.24093080577E+04  0.00000000000E+00 0.  1.
         21   -1    0    0  502  503 -0.00000000000E+00 -0.00000000000E+00 -0.10482311638E+04  0.10482311638E+04  0.00000000000E+00 0.  1.
    9000010    2    1    2  501    0  0.22831844771E+03 -0.14825272133E+03  0.19898396708E+04  0.22457465961E+04  0.10048918726E+04 0.  0.
   -9000010    2    1    2    0  503 -0.22831844771E+03  0.14825272133E+03 -0.62876277689E+03  0.12117926253E+04  0.99949514965E+03 0.  0.
        -13    1    3    3    0    0  0.34636582755E+03 -0.48129677907E+03  0.16586296787E+04  0.17614392690E+04  0.10566000000E+00 0.  1.
          4    1    3    3  501    0 -0.11804737983E+03  0.33304405775E+03  0.33120999210E+03  0.48430732717E+03  0.00000000000E+00 0.  1.
         13    1    4    4    0    0  0.29005875475E+03 -0.21457115645E+03 -0.40072522493E+03  0.53921756226E+03  0.10566000000E+00 0. -1.
         -4    1    4    4    0  503 -0.51837720246E+03  0.36282387777E+03 -0.22803755196E+03  0.67257506304E+03  0.00000000000E+00 0. -1.
<mgrwt>
<rscale>  2 0.10398083E+04</rscale>
<asrwt>0</asrwt>
<pdfrwt beam="1">  1       21 0.37066278E+00 0.10411128E+04</pdfrwt>
<pdfrwt beam="2">  1       21 0.16126633E+00 0.10411128E+04</pdfrwt>
<totfact> 0.85004240E-01</totfact>
</mgrwt>
</event>
<event>
 8    1  0.7418332E-006  0.9982360E+03  0.7818608E-02  0.8782836E-01
         21   -1    0    0  503  502  0.00000000000E+00  0.00000000000E+00  0.11685047839E+04  0.11685047839E+04  0.00000000000E+00 0. -1.
         21   -1    0    0  501  503 -0.00000000000E+00 -0.00000000000E+00 -0.83824978175E+03  0.83824978175E+03  0.00000000000E+00 0. -1.
    9000010    2    1    2  501    0 -0.10300282436E+03 -0.16978477569E+03  0.64272139545E+02  0.10003029157E+04  0.97828347806E+03 0.  0.
   -9000010    2    1    2    0  502  0.10300282436E+03  0.16978477569E+03  0.26598286263E+03  0.10064516499E+04  0.95013766822E+03 0.  0.
        -13    1    3    3    0    0 -0.28117408552E+03 -0.56887928653E+02  0.46562348298E+03  0.54690066910E+03  0.10566000000E+00 0.  1.
          4    1    3    3  501    0  0.17817126116E+03 -0.11289684703E+03 -0.40135134344E+03  0.45340224664E+03  0.00000000000E+00 0.  1.
         13    1    4    4    0    0  0.52989766187E+02  0.47540499265E+03 -0.13759702686E+03  0.49774569342E+03  0.10566000000E+00 0. -1.
         -4    1    4    4    0  502  0.50013058168E+02 -0.30562021696E+03  0.40357988948E+03  0.50870595652E+03  0.00000000000E+00 0. -1.
<mgrwt>
<rscale>  2 0.99127164E+03</rscale>
<asrwt>0</asrwt>
<pdfrwt beam="1">  1       21 0.17976997E+00 0.99823595E+03</pdfrwt>
<pdfrwt beam="2">  1       21 0.12896151E+00 0.99823595E+03</pdfrwt>
<totfact> 0.41491002E+01</totfact>
</mgrwt>
</event>
<event>
 8    1  0.7418332E-006  0.9987094E+03  0.7818608E-02  0.8777319E-01
         21   -1    0    0  501  502  0.00000000000E+00  0.00000000000E+00  0.11035275788E+04  0.11035275788E+04  0.00000000000E+00 0.  1.
         21   -1    0    0  502  503 -0.00000000000E+00 -0.00000000000E+00 -0.11089950610E+04  0.11089950610E+04  0.00000000000E+00 0.  1.
    9000010    2    1    2  501    0  0.20263510744E+02 -0.40880849896E+02  0.47974778715E+03  0.11021828705E+04  0.99124532128E+03 0.  0.
   -9000010    2    1    2    0  503 -0.20263510744E+02  0.40880849896E+02 -0.48521526933E+03  0.11103397694E+04  0.99766662375E+03 0.  0.
        -13    1    3    3    0    0  0.10412988952E+03  0.36470562408E+03  0.56386893774E+03  0.67955972235E+03  0.10566000000E+00 0.  1.
          4    1    3    3  501    0 -0.83866378776E+02 -0.40558647398E+03 -0.84121150586E+02  0.42262314813E+03  0.00000000000E+00 0.  1.
         13    1    4    4    0    0 -0.48481024137E+02  0.44000862119E+03  0.46262263727E+02  0.44508224480E+03  0.10566000000E+00 0. -1.
         -4    1    4    4    0  503  0.28217513393E+02 -0.39912777129E+03 -0.53147753306E+03  0.66525752459E+03  0.00000000000E+00 0. -1.
<mgrwt>
<rscale>  2 0.99710192E+03</rscale>
<asrwt>0</asrwt>
<pdfrwt beam="1">  1       21 0.16977347E+00 0.99870944E+03</pdfrwt>
<pdfrwt beam="2">  1       21 0.17061463E+00 0.99870944E+03</pdfrwt>
<totfact> 0.21267948E+01</totfact>
</mgrwt>
</event>
<event>
 8    1  0.7418332E-006  0.1007248E+04  0.7818608E-02  0.8770095E-01
         21   -1    0    0  501  502  0.00000000000E+00  0.00000000000E+00  0.12397664124E+04  0.12397664124E+04  0.00000000000E+00 0.  1.
         21   -1    0    0  502  503 -0.00000000000E+00 -0.00000000000E+00 -0.81044533039E+03  0.81044533039E+03  0.00000000000E+00 0.  1.
    9000010    2    1    2  501    0  0.32900254875E+02 -0.18311135858E+01  0.21114388123E+03  0.10291402303E+04  0.10067085454E+04 0.  0.
   -9000010    2    1    2    0  503 -0.32900254875E+02  0.18311135858E+01  0.21817720078E+03  0.10210715125E+04  0.99694531589E+03 0.  0.
        -13    1    3    3    0    0 -0.42425533932E+03  0.12294484004E+03  0.31686847368E+03  0.54361168807E+03  0.10566000000E+00 0.  1.
          4    1    3    3  501    0  0.45715559419E+03 -0.12477595363E+03 -0.10572459245E+03  0.48552854226E+03  0.00000000000E+00 0.  1.
         13    1    4    4    0    0  0.34644626423E+03 -0.84917012223E+02  0.44526136920E+03  0.57052047380E+03  0.10566000000E+00 0. -1.
         -4    1    4    4    0  503 -0.37934651910E+03  0.86748125809E+02 -0.22708416842E+03  0.45055103866E+03  0.00000000000E+00 0. -1.
<mgrwt>
<rscale>  2 0.10047993E+04</rscale>
<asrwt>0</asrwt>
<pdfrwt beam="1">  1       21 0.19073329E+00 0.10072477E+04</pdfrwt>
<pdfrwt beam="2">  1       21 0.12468390E+00 0.10072477E+04</pdfrwt>
<totfact> 0.37206038E+01</totfact>
</mgrwt>
</event>
<event>
 8    1  0.7418332E-006  0.1021317E+04  0.7818608E-02  0.8758734E-01
         21   -1    0    0  501  502  0.00000000000E+00  0.00000000000E+00  0.85705744323E+03  0.85705744323E+03  0.00000000000E+00 0.  1.
         21   -1    0    0  502  503 -0.00000000000E+00 -0.00000000000E+00 -0.14661441199E+04  0.14661441199E+04  0.00000000000E+00 0.  1.
    9000010    2    1    2  501    0  0.33845950609E+02  0.17159164413E+03  0.19527747495E+03  0.10231668417E+04  0.98901357579E+03 0.  0.
   -9000010    2    1    2    0  503 -0.33845950609E+02 -0.17159164413E+03 -0.80436415157E+03  0.13000347213E+04  0.10062302657E+04 0.  0.
        -13    1    3    3    0    0  0.70592206337E+02 -0.36958100057E+03 -0.12104226523E+03  0.39525259862E+03  0.10566000000E+00 0.  1.
          4    1    3    3  501    0 -0.36746255729E+02  0.54117264471E+03  0.31631974018E+03  0.62791424312E+03  0.00000000000E+00 0.  1.
         13    1    4    4    0    0  0.44544760734E+03 -0.28303609005E+03 -0.45111831229E+03  0.69429153963E+03  0.10566000000E+00 0. -1.
         -4    1    4    4    0  503 -0.47929355795E+03  0.11144444592E+03 -0.35324583928E+03  0.60574318171E+03  0.00000000000E+00 0. -1.
<mgrwt>
<rscale>  2 0.10170509E+04</rscale>
<asrwt>0</asrwt>
<pdfrwt beam="1">  1       21 0.13185499E+00 0.10213171E+04</pdfrwt>
<pdfrwt beam="2">  1       21 0.22556063E+00 0.10213171E+04</pdfrwt>
<totfact> 0.17045177E+01</totfact>
</mgrwt>
</event>
<event>
 8    1  0.7418332E-006  0.1017540E+04  0.7818608E-02  0.8758678E-01
         21   -1    0    0  501  502  0.00000000000E+00  0.00000000000E+00  0.54310793372E+03  0.54310793372E+03  0.00000000000E+00 0.  1.
         21   -1    0    0  502  503 -0.00000000000E+00 -0.00000000000E+00 -0.19598802675E+04  0.19598802675E+04  0.00000000000E+00 0.  1.
    9000010    2    1    2  501    0  0.58907787621E+02 -0.12736416973E+03 -0.49499897961E+03  0.11300158761E+04  0.10060915123E+04 0.  0.
   -9000010    2    1    2    0  503 -0.58907787621E+02  0.12736416973E+03 -0.92177335414E+03  0.13729723251E+04  0.10078170121E+04 0.  0.
        -13    1    3    3    0    0  0.49519275295E+03 -0.22546615401E+03 -0.14765081944E+03  0.56378331372E+03  0.10566000000E+00 0.  1.
          4    1    3    3  501    0 -0.43628496533E+03  0.98101984274E+02 -0.34734816016E+03  0.56623256235E+03  0.00000000000E+00 0.  1.
         13    1    4    4    0    0  0.16990274256E+03  0.21003991763E+03  0.12544905916E+03  0.29786101883E+03  0.10566000000E+00 0. -1.
         -4    1    4    4    0  503 -0.22881053019E+03 -0.82675747896E+02 -0.10472224133E+04  0.10751113063E+04  0.00000000000E+00 0. -1.
<mgrwt>
<rscale>  2 0.10171121E+04</rscale>
<asrwt>0</asrwt>
<pdfrwt beam="1">  1       21 0.83555066E-01 0.10175396E+04</pdfrwt>
<pdfrwt beam="2">  1       21 0.30152004E+00 0.10175396E+04</pdfrwt>
<totfact> 0.16367616E+01</totfact>
</mgrwt>
</event>
<event>
 8    1  0.7418332E-006  0.1025965E+04  0.7818608E-02  0.8753379E-01
         21   -1    0    0  501  502  0.00000000000E+00  0.00000000000E+00  0.68933808139E+03  0.68933808139E+03  0.00000000000E+00 0. -1.
         21   -1    0    0  502  503 -0.00000000000E+00 -0.00000000000E+00 -0.15536704466E+04  0.15536704466E+04  0.00000000000E+00 0. -1.
    9000010    2    1    2  501    0  0.17673078088E+03 -0.12171791529E+01 -0.62024188838E+03  0.11884070651E+04  0.99818640632E+03 0.  0.
   -9000010    2    1    2    0  503 -0.17673078088E+03  0.12171791529E+01 -0.24409047684E+03  0.10546014629E+04  0.10106279406E+04 0.  0.
        -13    1    3    3    0    0 -0.16587593785E+03 -0.40091197553E+03 -0.93772480564E+02  0.44389022084E+03  0.10566000000E+00 0.  1.
          4    1    3    3  501    0  0.34260671873E+03  0.39969479638E+03 -0.52646940782E+03  0.74451684423E+03  0.00000000000E+00 0.  1.
         13    1    4    4    0    0 -0.45756623121E+03 -0.33810487203E+02 -0.49603524259E+03  0.67569296137E+03  0.10566000000E+00 0. -1.
         -4    1    4    4    0  503  0.28083545033E+03  0.35027666356E+02  0.25194476575E+03  0.37890850157E+03  0.00000000000E+00 0. -1.
<mgrwt>
<rscale>  2 0.10228878E+04</rscale>
<asrwt>0</asrwt>
<pdfrwt beam="1">  1       21 0.10605201E+00 0.10259650E+04</pdfrwt>
<pdfrwt beam="2">  1       21 0.23902622E+00 0.10259650E+04</pdfrwt>
<totfact> 0.24806975E+01</totfact>
</mgrwt>
</event>
<event>
 8    1  0.7418332E-006  0.1020577E+04  0.7818608E-02  0.8758987E-01
         21   -1    0    0  503  502  0.00000000000E+00  0.00000000000E+00  0.12027754439E+04  0.12027754439E+04  0.00000000000E+00 0. -1.
         21   -1    0    0  501  503 -0.00000000000E+00 -0.00000000000E+00 -0.14539557672E+04  0.14539557672E+04  0.00000000000E+00 0. -1.
    9000010    2    1    2  501    0  0.20479925967E+03  0.22224072629E+03 -0.97889685575E+03  0.14032766154E+04  0.95896429957E+03 0.  0.
   -9000010    2    1    2    0  502 -0.20479925967E+03 -0.22224072629E+03  0.72771653244E+03  0.12534545958E+04  0.97480428547E+03 0.  0.
        -13    1    3    3    0    0 -0.63440536820E+02  0.55490862148E+03 -0.41539966330E+03  0.69606405692E+03  0.10566000000E+00 0.  1.
          4    1    3    3  501    0  0.26823979649E+03 -0.33266789519E+03 -0.56349719245E+03  0.70721255844E+03  0.00000000000E+00 0.  1.
         13    1    4    4    0    0 -0.43671725737E+03 -0.45007643492E+03  0.24894190745E+03  0.67473168342E+03  0.10566000000E+00 0. -1.
         -4    1    4    4    0  502  0.23191799770E+03  0.22783570864E+03  0.47877462499E+03  0.57872291239E+03  0.00000000000E+00 0. -1.
<mgrwt>
<rscale>  2 0.10167760E+04</rscale>
<asrwt>0</asrwt>
<pdfrwt beam="1">  1       21 0.18504238E+00 0.10205768E+04</pdfrwt>
<pdfrwt beam="2">  1       21 0.22368550E+00 0.10205768E+04</pdfrwt>
<totfact> 0.60547344E+00</totfact>
</mgrwt>
</event>
<event>
 8    1  0.7418332E-006  0.1037760E+04  0.7818608E-02  0.8754663E-01
         21   -1    0    0  501  502  0.00000000000E+00  0.00000000000E+00  0.64782544692E+03  0.64782544692E+03  0.00000000000E+00 0. -1.
         21   -1    0    0  502  503 -0.00000000000E+00 -0.00000000000E+00 -0.15786665489E+04  0.15786665489E+04  0.00000000000E+00 0. -1.
    9000010    2    1    2  501    0  0.40552397776E+02  0.16015672718E+03 -0.33688185865E+03  0.10307771801E+04  0.96006121375E+03 0.  0.
   -9000010    2    1    2    0  503 -0.40552397776E+02 -0.16015672718E+03 -0.59395924337E+03  0.11957148157E+04  0.10245250917E+04 0.  0.
        -13    1    3    3    0    0  0.39593010017E+03 -0.33153652108E+02  0.12524814133E+03  0.41658962654E+03  0.10566000000E+00 0.  1.
          4    1    3    3  501    0 -0.35537770239E+03  0.19331037929E+03 -0.46212999999E+03  0.61418755359E+03  0.00000000000E+00 0.  1.
         13    1    4    4    0    0  0.37771428290E+03 -0.94326622379E+02 -0.66089787993E+03  0.76704081381E+03  0.10566000000E+00 0. -1.
         -4    1    4    4    0  503 -0.41826668067E+03 -0.65830104802E+02  0.66938636559E+02  0.42867400192E+03  0.00000000000E+00 0. -1.
<mgrwt>
<rscale>  2 0.10214844E+04</rscale>
<asrwt>0</asrwt>
<pdfrwt beam="1">  1       21 0.99665453E-01 0.10377603E+04</pdfrwt>
<pdfrwt beam="2">  1       21 0.24287178E+00 0.10377603E+04</pdfrwt>
<totfact> 0.27326584E+01</totfact>
</mgrwt>
</event>
<event>
 8    1  0.7418332E-006  0.1127122E+04  0.7818608E-02  0.8670073E-01
         21   -1    0    0  503  502  0.00000000000E+00  0.00000000000E+00  0.71212943348E+03  0.71212943348E+03  0.00000000000E+00 0. -1.
         21   -1    0    0  501  503 -0.00000000000E+00 -0.00000000000E+00 -0.23562177616E+04  0.23562177616E+04  0.00000000000E+00 0. -1.
    9000010    2    1    2  501    0  0.17607897145E+01  0.52066999840E+03 -0.16187737311E+04  0.19725190364E+04  0.99965124362E+03 0.  0.
   -9000010    2    1    2    0  502 -0.17607897145E+01 -0.52066999840E+03 -0.25314596988E+02  0.10958281586E+04  0.96389738916E+03 0.  0.
        -13    1    3    3    0    0  0.26838244878E+02  0.30999760405E+02  0.14041506178E+03  0.14627944924E+03  0.10566000000E+00 0.  1.
          4    1    3    3  501    0 -0.25077455164E+02  0.48967023800E+03 -0.17591887929E+04  0.18262395872E+04  0.00000000000E+00 0.  1.
         13    1    4    4    0    0 -0.26415332631E+03 -0.46316296036E+03  0.34741324967E+03  0.63639051286E+03  0.10566000000E+00 0. -1.
         -4    1    4    4    0  502  0.26239253659E+03 -0.57507038045E+02 -0.37272784666E+03  0.45943764578E+03  0.00000000000E+00 0. -1.
<mgrwt>
<rscale>  2 0.11191407E+04</rscale>
<asrwt>0</asrwt>
<pdfrwt beam="1">  1       21 0.10955838E+00 0.11271215E+04</pdfrwt>
<pdfrwt beam="2">  1       21 0.36249504E+00 0.11271215E+04</pdfrwt>
<totfact> 0.29487654E+00</totfact>
</mgrwt>
</event>
<event>
 8    1  0.7418332E-006  0.1042395E+04  0.7818608E-02  0.8746375E-01
         21   -1    0    0  501  502  0.00000000000E+00  0.00000000000E+00  0.13999946090E+04  0.13999946090E+04  0.00000000000E+00 0. -1.
         21   -1    0    0  502  503 -0.00000000000E+00 -0.00000000000E+00 -0.11641884280E+04  0.11641884280E+04  0.00000000000E+00 0. -1.
    9000010    2    1    2  501    0  0.21826045978E+03 -0.27978936170E+02  0.89162243254E+03  0.13717059500E+04  0.10189044125E+04 0.  0.
   -9000010    2    1    2    0  503 -0.21826045978E+03  0.27978936170E+02 -0.65581625152E+03  0.11924770870E+04  0.97133217703E+03 0.  0.
        -13    1    3    3    0    0 -0.16077258912E+03  0.42193410980E+03  0.43523328235E+03  0.62713972897E+03  0.10566000000E+00 0.  1.
          4    1    3    3  501    0  0.37903304890E+03 -0.44991304597E+03  0.45638915019E+03  0.74456622103E+03  0.00000000000E+00 0.  1.
         13    1    4    4    0    0 -0.53190272076E+03 -0.17824611279E+03 -0.18575099181E+03  0.59092776479E+03  0.10566000000E+00 0. -1.
         -4    1    4    4    0  503  0.31364226098E+03  0.20622504896E+03 -0.47006525971E+03  0.60154932223E+03  0.00000000000E+00 0. -1.
<mgrwt>
<rscale>  2 0.10305830E+04</rscale>
<asrwt>0</asrwt>
<pdfrwt beam="1">  1       21 0.21538378E+00 0.10423947E+04</pdfrwt>
<pdfrwt beam="2">  1       21 0.17910591E+00 0.10423947E+04</pdfrwt>
<totfact> 0.77721604E+00</totfact>
</mgrwt>
</event>
<event>
 8    1  0.7418332E-006  0.1073491E+04  0.7818608E-02  0.8710391E-01
         21   -1    0    0  501  502  0.00000000000E+00  0.00000000000E+00  0.21342224027E+04  0.21342224027E+04  0.00000000000E+00 0. -1.
         21   -1    0    0  502  503 -0.00000000000E+00 -0.00000000000E+00 -0.65141257073E+03  0.65141257073E+03  0.00000000000E+00 0. -1.
    9000010    2    1    2  501    0  0.34829858305E+01 -0.39478504282E+03  0.13316151218E+04  0.17104331864E+04  0.99825622527E+03 0.  0.
   -9000010    2    1    2    0  503 -0.34829858305E+01  0.39478504282E+03  0.15119471017E+03  0.10752017870E+04  0.98860087055E+03 0.  0.
        -13    1    3    3    0    0  0.16293810983E+03 -0.33478686173E+03  0.14538369745E+04  0.15007574854E+04  0.10566000000E+00 0.  1.
          4    1    3    3  501    0 -0.15945512400E+03 -0.59998181091E+02 -0.12222185270E+03  0.20967570098E+03  0.00000000000E+00 0.  1.
         13    1    4    4    0    0 -0.48315092646E+03  0.11965613671E+03  0.15789209376E+03  0.52218993980E+03  0.10566000000E+00 0. -1.
         -4    1    4    4    0  503  0.47966794063E+03  0.27512890611E+03 -0.66973835902E+01  0.55301184725E+03  0.00000000000E+00 0. -1.
<mgrwt>
<rscale>  2 0.10712407E+04</rscale>
<asrwt>0</asrwt>
<pdfrwt beam="1">  1       21 0.32834190E+00 0.10734910E+04</pdfrwt>
<pdfrwt beam="2">  1       21 0.10021732E+00 0.10734910E+04</pdfrwt>
<totfact> 0.65704838E+00</totfact>
</mgrwt>
</event>
<event>
 8    1  0.7418332E-006  0.1054511E+04  0.7818608E-02  0.8729284E-01
         21   -1    0    0  501  502  0.00000000000E+00  0.00000000000E+00  0.12264834193E+04  0.12264834193E+04  0.00000000000E+00 0.  1.
         21   -1    0    0  502  503 -0.00000000000E+00 -0.00000000000E+00 -0.11849812420E+04  0.11849812420E+04  0.00000000000E+00 0.  1.
    9000010    2    1    2  501    0  0.30437295206E+03 -0.35138826115E+02 -0.58051680867E+03  0.12037412359E+04  0.10090171290E+04 0.  0.
   -9000010    2    1    2    0  503 -0.30437295206E+03  0.35138826115E+02  0.62201898599E+03  0.12077234255E+04  0.98884307274E+03 0.  0.
        -13    1    3    3    0    0  0.15784100612E+03 -0.38461239924E+03 -0.69327099299E+03  0.80837192043E+03  0.10566000000E+00 0.  1.
          4    1    3    3  501    0  0.14653194595E+03  0.34947357313E+03  0.11275418432E+03  0.39536931543E+03  0.00000000000E+00 0.  1.
         13    1    4    4    0    0  0.28774116458E+03  0.24817948444E+03  0.36843844273E+03  0.52927774517E+03  0.10566000000E+00 0. -1.
         -4    1    4    4    0  503 -0.59211411664E+03 -0.21304065833E+03  0.25358054326E+03  0.67844568032E+03  0.00000000000E+00 0. -1.
<mgrwt>
<rscale>  2 0.10496557E+04</rscale>
<asrwt>0</asrwt>
<pdfrwt beam="1">  1       21 0.18868976E+00 0.10545109E+04</pdfrwt>
<pdfrwt beam="2">  1       21 0.18230481E+00 0.10545109E+04</pdfrwt>
<totfact> 0.11773328E+01</totfact>
</mgrwt>
</event>
<event>
 8    1  0.7418332E-006  0.1079194E+04  0.7818608E-02  0.8707956E-01
         21   -1    0    0  501  502  0.00000000000E+00  0.00000000000E+00  0.30658409956E+04  0.30658409956E+04  0.00000000000E+00 0.  1.
         21   -1    0    0  502  503 -0.00000000000E+00 -0.00000000000E+00 -0.51373810347E+03  0.51373810347E+03  0.00000000000E+00 0.  1.
    9000010    2    1    2  501    0  0.38273771428E+03  0.99915851565E+01  0.32961116500E+03  0.11089253289E+04  0.98715949845E+03 0.  0.
   -9000010    2    1    2    0  503 -0.38273771428E+03 -0.99915851565E+01  0.22224917271E+04  0.24706537701E+04  0.10089958300E+04 0.  0.
        -13    1    3    3    0    0  0.39470360637E+03  0.42490865412E+03  0.37612647012E+03  0.69123761031E+03  0.10566000000E+00 0.  1.
          4    1    3    3  501    0 -0.11965892091E+02 -0.41491706896E+03 -0.46515305114E+02  0.41768771863E+03  0.00000000000E+00 0.  1.
         13    1    4    4    0    0  0.54091341015E+02 -0.44014629167E+03  0.69153231200E+03  0.82150567919E+03  0.10566000000E+00 0. -1.
         -4    1    4    4    0  503 -0.43682905529E+03  0.43015470651E+03  0.15309594151E+04  0.16491480909E+04  0.00000000000E+00 0. -1.
<mgrwt>
<rscale>  2 0.10740610E+04</rscale>
<asrwt>0</asrwt>
<pdfrwt beam="1">  1       21 0.47166784E+00 0.10791944E+04</pdfrwt>
<pdfrwt beam="2">  1       21 0.79036633E-01 0.10791944E+04</pdfrwt>
<totfact> 0.12017679E+00</totfact>
</mgrwt>
</event>
<event>
 8    1  0.7418332E-006  0.1044693E+04  0.7818608E-02  0.8743082E-01
         21   -1    0    0  503  502  0.00000000000E+00  0.00000000000E+00  0.15527126617E+04  0.15527126617E+04  0.00000000000E+00 0.  1.
         21   -1    0    0  501  503 -0.00000000000E+00 -0.00000000000E+00 -0.81535751938E+03  0.81535751938E+03  0.00000000000E+00 0.  1.
    9000010    2    1    2  501    0 -0.17603984840E+03 -0.16113193463E+02  0.86528237647E+03  0.13565015786E+04  0.10296277378E+04 0.  0.
   -9000010    2    1    2    0  502  0.17603984840E+03  0.16113193463E+02 -0.12792723411E+03  0.10115686025E+04  0.98775300413E+03 0.  0.
        -13    1    3    3    0    0  0.33652530709E+03  0.15368803072E+03  0.42538018623E+02  0.37239600869E+03  0.10566000000E+00 0.  1.
          4    1    3    3  501    0 -0.51256515549E+03 -0.16980122418E+03  0.82274435785E+03  0.98410556991E+03  0.00000000000E+00 0.  1.
         13    1    4    4    0    0 -0.29440756787E+03 -0.30139861882E+03  0.30127076314E+02  0.42240335622E+03  0.10566000000E+00 0. -1.
         -4    1    4    4    0  502  0.47044741627E+03  0.31751181229E+03 -0.15805431042E+03  0.58916524631E+03  0.00000000000E+00 0. -1.
<mgrwt>
<rscale>  2 0.10342250E+04</rscale>
<asrwt>0</asrwt>
<pdfrwt beam="1">  1       21 0.23887887E+00 0.10446927E+04</pdfrwt>
<pdfrwt beam="2">  1       21 0.12543962E+00 0.10446927E+04</pdfrwt>
<totfact> 0.15587629E+01</totfact>
</mgrwt>
</event>
<event>
 8    1  0.7418332E-006  0.1025223E+04  0.7818608E-02  0.8784721E-01
         21   -1    0    0  503  502  0.00000000000E+00  0.00000000000E+00  0.48219323666E+03  0.48219323666E+03  0.00000000000E+00 0.  1.
         21   -1    0    0  501  503 -0.00000000000E+00 -0.00000000000E+00 -0.22004767854E+04  0.22004767854E+04  0.00000000000E+00 0.  1.
    9000010    2    1    2  501    0  0.74154220819E+01 -0.21485557604E+03 -0.41700837874E+03  0.11067871845E+04  0.10024290383E+04 0.  0.
   -9000010    2    1    2    0  502 -0.74154220819E+01  0.21485557604E+03 -0.13012751700E+04  0.15758828376E+04  0.86247999552E+03 0.  0.
        -13    1    3    3    0    0 -0.17921777740E+03  0.35984012938E+03 -0.27204866340E+03  0.48540129467E+03  0.10566000000E+00 0.  1.
          4    1    3    3  501    0  0.18663319948E+03 -0.57469570542E+03 -0.14495971534E+03  0.62138588980E+03  0.00000000000E+00 0.  1.
         13    1    4    4    0    0 -0.14795823202E+03 -0.27572338088E+03 -0.22706079640E+03  0.38661561999E+03  0.10566000000E+00 0. -1.
         -4    1    4    4    0  502  0.14054280994E+03  0.49057895692E+03 -0.10742143736E+04  0.11892672176E+04  0.00000000000E+00 0. -1.
<mgrwt>
<rscale>  2 0.98928917E+03</rscale>
<asrwt>0</asrwt>
<pdfrwt beam="1">  1       21 0.74183576E-01 0.10252228E+04</pdfrwt>
<pdfrwt beam="2">  1       21 0.33853489E+00 0.10252228E+04</pdfrwt>
<totfact> 0.11984854E+01</totfact>
</mgrwt>
</event>
<event>
 8    1  0.7418332E-006  0.1039748E+04  0.7818608E-02  0.8740823E-01
         21   -1    0    0  503  502  0.00000000000E+00  0.00000000000E+00  0.12724931012E+04  0.12724931012E+04  0.00000000000E+00 0.  1.
         21   -1    0    0  501  503 -0.00000000000E+00 -0.00000000000E+00 -0.10217990344E+04  0.10217990344E+04  0.00000000000E+00 0.  1.
    9000010    2    1    2  501    0 -0.13810335505E+02  0.20793028994E+03 -0.35939490042E+03  0.10887698222E+04  0.10063942073E+04 0.  0.
   -9000010    2    1    2    0  502  0.13810335505E+02 -0.20793028994E+03  0.61008896719E+03  0.12055223133E+04  0.10186509555E+04 0.  0.
        -13    1    3    3    0    0 -0.26426514571E+03 -0.22692175289E+02 -0.61056296648E+03  0.66568622432E+03  0.10566000000E+00 0.  1.
          4    1    3    3  501    0  0.25045481020E+03  0.23062246523E+03  0.25116806606E+03  0.42308359792E+03  0.00000000000E+00 0.  1.
         13    1    4    4    0    0 -0.30026836310E+03 -0.19990506390E+03 -0.14415098132E+03  0.38846189135E+03  0.10566000000E+00 0. -1.
         -4    1    4    4    0  502  0.31407869861E+03 -0.80252260395E+01  0.75423994851E+03  0.81706042194E+03  0.00000000000E+00 0. -1.
<mgrwt>
<rscale>  2 0.10367334E+04</rscale>
<asrwt>0</asrwt>
<pdfrwt beam="1">  1       21 0.19576817E+00 0.10397478E+04</pdfrwt>
<pdfrwt beam="2">  1       21 0.15719985E+00 0.10397478E+04</pdfrwt>
<totfact> 0.16867499E+01</totfact>
</mgrwt>
</event>
<event>
 8    1  0.7418332E-006  0.1004323E+04  0.7818608E-02  0.8772769E-01
         21   -1    0    0  501  502  0.00000000000E+00  0.00000000000E+00  0.79676656165E+03  0.79676656165E+03  0.00000000000E+00 0.  1.
         21   -1    0    0  502  503 -0.00000000000E+00 -0.00000000000E+00 -0.16378843327E+04  0.16378843327E+04  0.00000000000E+00 0.  1.
    9000010    2    1    2  501    0 -0.98138622367E+02 -0.43702949098E+02  0.17029311395E+03  0.10093030447E+04  0.98901554816E+03 0.  0.
   -9000010    2    1    2    0  503  0.98138622367E+02  0.43702949098E+02 -0.10114108850E+04  0.14253478497E+04  0.99856065273E+03 0.  0.
        -13    1    3    3    0    0 -0.24632625730E+03 -0.41095338021E+03  0.33055096128E+03  0.58208526430E+03  0.10566000000E+00 0.  1.
          4    1    3    3  501    0  0.14818763493E+03  0.36725043111E+03 -0.16025784733E+03  0.42721778045E+03  0.00000000000E+00 0.  1.
         13    1    4    4    0    0  0.51516229961E+03  0.15158871638E+03 -0.36776763508E+03  0.65086433183E+03  0.10566000000E+00 0. -1.
         -4    1    4    4    0  503 -0.41702367724E+03 -0.10788576728E+03 -0.64364324996E+03  0.77448351782E+03  0.00000000000E+00 0. -1.
<mgrwt>
<rscale>  2 0.10019420E+04</rscale>
<asrwt>0</asrwt>
<pdfrwt beam="1">  1       21 0.12257947E+00 0.10043229E+04</pdfrwt>
<pdfrwt beam="2">  1       21 0.25198220E+00 0.10043229E+04</pdfrwt>
<totfact> 0.13478790E+01</totfact>
</mgrwt>
</event>
<event>
 8    1  0.7418332E-006  0.1092918E+04  0.7818608E-02  0.8692665E-01
         21   -1    0    0  501  502  0.00000000000E+00  0.00000000000E+00  0.10867328269E+04  0.10867328269E+04  0.00000000000E+00 0.  1.
         21   -1    0    0  502  503 -0.00000000000E+00 -0.00000000000E+00 -0.15518264625E+04  0.15518264625E+04  0.00000000000E+00 0.  1.
    9000010    2    1    2  501    0  0.10015387340E+03  0.41986844151E+03  0.48265958430E+03  0.11947508388E+04  0.10040662258E+04 0.  0.
   -9000010    2    1    2    0  503 -0.10015387340E+03 -0.41986844151E+03 -0.94775321991E+03  0.14438084506E+04  0.10000131847E+04 0.  0.
        -13    1    3    3    0    0  0.34524717871E+03  0.49664956645E+03 -0.46405988001E+02  0.60663822263E+03  0.10566000000E+00 0.  1.
          4    1    3    3  501    0 -0.24509330531E+03 -0.76781124940E+02  0.52906557230E+03  0.58811261613E+03  0.00000000000E+00 0.  1.
         13    1    4    4    0    0 -0.45610842716E+03 -0.44186519630E+03 -0.29551171752E+03  0.70043339111E+03  0.10566000000E+00 0. -1.
         -4    1    4    4    0  503  0.35595455376E+03  0.21996754789E+02 -0.65224150240E+03  0.74337505945E+03  0.00000000000E+00 0. -1.
<mgrwt>
<rscale>  2 0.10919860E+04</rscale>
<asrwt>0</asrwt>
<pdfrwt beam="1">  1       21 0.16718967E+00 0.10929178E+04</pdfrwt>
<pdfrwt beam="2">  1       21 0.23874253E+00 0.10929178E+04</pdfrwt>
<totfact> 0.64553341E+00</totfact>
</mgrwt>
</event>
<event>
 8    1  0.7418332E-006  0.1055509E+04  0.7818608E-02  0.8728635E-01
         21   -1    0    0  501  502  0.00000000000E+00  0.00000000000E+00  0.14867407773E+04  0.14867407773E+04  0.00000000000E+00 0.  1.
         21   -1    0    0  502  503 -0.00000000000E+00 -0.00000000000E+00 -0.86363518471E+03  0.86363518471E+03  0.00000000000E+00 0.  1.
    9000010    2    1    2  501    0  0.10028772880E+03  0.26474574435E+03  0.76251706441E+03  0.12857003726E+04  0.99571343108E+03 0.  0.
   -9000010    2    1    2    0  503 -0.10028772880E+03 -0.26474574435E+03 -0.13941147181E+03  0.10646755894E+04  0.10168336219E+04 0.  0.
        -13    1    3    3    0    0 -0.25023304409E+03 -0.58539939498E+02 -0.11921032634E+03  0.28329245302E+03  0.10566000000E+00 0.  1.
          4    1    3    3  501    0  0.35052077289E+03  0.32328568385E+03  0.88172739074E+03  0.10024079196E+04  0.00000000000E+00 0.  1.
         13    1    4    4    0    0  0.17433731581E+03 -0.89858621959E+02  0.39378930322E+03  0.43992965133E+03  0.10566000000E+00 0. -1.
         -4    1    4    4    0  503 -0.27462504461E+03 -0.17488712239E+03 -0.53320077502E+03  0.62474593812E+03  0.00000000000E+00 0. -1.
<mgrwt>
<rscale>  2 0.10503888E+04</rscale>
<asrwt>0</asrwt>
<pdfrwt beam="1">  1       21 0.22872935E+00 0.10555087E+04</pdfrwt>
<pdfrwt beam="2">  1       21 0.13286695E+00 0.10555087E+04</pdfrwt>
<totfact> 0.15663163E+01</totfact>
</mgrwt>
</event>
<event>
 8    1  0.7418332E-006  0.1037636E+04  0.7818608E-02  0.8743985E-01
         21   -1    0    0  501  502  0.00000000000E+00  0.00000000000E+00  0.21190171404E+04  0.21190171404E+04  0.00000000000E+00 0.  1.
         21   -1    0    0  502  503 -0.00000000000E+00 -0.00000000000E+00 -0.51045721428E+03  0.51045721428E+03  0.00000000000E+00 0.  1.
    9000010    2    1    2  501    0  0.15111619188E+03  0.10168266616E+03  0.98966734141E+03  0.14212873666E+04  0.10037135368E+04 0.  0.
   -9000010    2    1    2    0  503 -0.15111619188E+03 -0.10168266616E+03  0.61889258476E+03  0.12081869881E+04  0.10215244973E+04 0.  0.
        -13    1    3    3    0    0  0.34268454184E+03 -0.35081461492E+03  0.30144360144E+03  0.57564906433E+03  0.10566000000E+00 0.  1.
          4    1    3    3  501    0 -0.19156834995E+03  0.45249728108E+03  0.68822373997E+03  0.84563830231E+03  0.00000000000E+00 0.  1.
         13    1    4    4    0    0  0.69248908019E+02 -0.16695246088E+03 -0.25051685789E+03  0.30891300184E+03  0.10566000000E+00 0. -1.
         -4    1    4    4    0  503 -0.22036509990E+03  0.65269794721E+02  0.86940944265E+03  0.89927398624E+03  0.00000000000E+00 0. -1.
<mgrwt>
<rscale>  2 0.10332252E+04</rscale>
<asrwt>0</asrwt>
<pdfrwt beam="1">  1       21 0.32600263E+00 0.10376357E+04</pdfrwt>
<pdfrwt beam="2">  1       21 0.78531880E-01 0.10376357E+04</pdfrwt>
<totfact> 0.12759724E+01</totfact>
</mgrwt>
</event>
<event>
 8    1  0.7418332E-006  0.1001603E+04  0.7818608E-02  0.8774038E-01
         21   -1    0    0  501  502  0.00000000000E+00  0.00000000000E+00  0.11018644218E+04  0.11018644218E+04  0.00000000000E+00 0. -1.
         21   -1    0    0  502  503 -0.00000000000E+00 -0.00000000000E+00 -0.11172558162E+04  0.11172558162E+04  0.00000000000E+00 0. -1.
    9000010    2    1    2  501    0  0.23894977066E+02 -0.65063999276E+01  0.47386945652E+03  0.11080437621E+04  0.10012968659E+04 0.  0.
   -9000010    2    1    2    0  503 -0.23894977066E+02  0.65063999276E+01 -0.48926085086E+03  0.11110764759E+04  0.99724693626E+03 0.  0.
        -13    1    3    3    0    0  0.48403580293E+03 -0.13963861949E+03  0.34952804063E+03  0.61315533507E+03  0.10566000000E+00 0.  1.
          4    1    3    3  501    0 -0.46014082586E+03  0.13313221956E+03  0.12434141589E+03  0.49488842704E+03  0.00000000000E+00 0.  1.
         13    1    4    4    0    0  0.37990437135E+03  0.29908440937E+03 -0.33818044612E+03  0.59003799928E+03  0.10566000000E+00 0. -1.
         -4    1    4    4    0  503 -0.40379934841E+03 -0.29257800944E+03 -0.15108040474E+03  0.52103847659E+03  0.00000000000E+00 0. -1.
<mgrwt>
<rscale>  2 0.10005894E+04</rscale>
<asrwt>0</asrwt>
<pdfrwt beam="1">  1       21 0.16951760E+00 0.10016031E+04</pdfrwt>
<pdfrwt beam="2">  1       21 0.17188551E+00 0.10016031E+04</pdfrwt>
<totfact> 0.20842847E+01</totfact>
</mgrwt>
</event>
<event>
 8    1  0.7418332E-006  0.1045673E+04  0.7818608E-02  0.8741437E-01
         21   -1    0    0  501  502  0.00000000000E+00  0.00000000000E+00  0.18791298989E+04  0.18791298989E+04  0.00000000000E+00 0.  1.
         21   -1    0    0  502  503 -0.00000000000E+00 -0.00000000000E+00 -0.58414496234E+03  0.58414496234E+03  0.00000000000E+00 0.  1.
    9000010    2    1    2  501    0  0.12206466500E+03 -0.29756600727E+02  0.41360160751E+03  0.11244992332E+04  0.10380977787E+04 0.  0.
   -9000010    2    1    2    0  503 -0.12206466500E+03  0.29756600727E+02  0.88138332908E+03  0.13387756280E+04  0.99984917448E+03 0.  0.
        -13    1    3    3    0    0  0.27564929727E+03  0.23128814491E+03  0.64821191336E+03  0.74138750789E+03  0.10566000000E+00 0.  1.
          4    1    3    3  501    0 -0.15358463227E+03 -0.26104474564E+03 -0.23461030585E+03  0.38311172536E+03  0.00000000000E+00 0.  1.
         13    1    4    4    0    0  0.16480859578E+03  0.24242533643E+03  0.93299214600E+03  0.97796026128E+03  0.10566000000E+00 0. -1.
         -4    1    4    4    0  503 -0.28687326078E+03 -0.21266873571E+03 -0.51608816925E+02  0.36081536675E+03  0.00000000000E+00 0. -1.
<mgrwt>
<rscale>  2 0.10360508E+04</rscale>
<asrwt>0</asrwt>
<pdfrwt beam="1">  1       21 0.28909690E+00 0.10456731E+04</pdfrwt>
<pdfrwt beam="2">  1       21 0.89868457E-01 0.10456731E+04</pdfrwt>
<totfact> 0.16552459E+01</totfact>
</mgrwt>
</event>
<event>
 8    1  0.7418332E-006  0.1007923E+04  0.7818608E-02  0.8767647E-01
         21   -1    0    0  503  502  0.00000000000E+00  0.00000000000E+00  0.55029748556E+03  0.55029748556E+03  0.00000000000E+00 0.  1.
         21   -1    0    0  501  503 -0.00000000000E+00 -0.00000000000E+00 -0.21360580225E+04  0.21360580225E+04  0.00000000000E+00 0.  1.
    9000010    2    1    2  501    0 -0.99916422322E+02  0.52495462813E+02 -0.12915309114E+04  0.16382800667E+04  0.10015839539E+04 0.  0.
   -9000010    2    1    2    0  502  0.99916422322E+02 -0.52495462813E+02 -0.29422962553E+03  0.10480754414E+04  0.99957590669E+03 0.  0.
        -13    1    3    3    0    0  0.31563111061E+03  0.11425271764E+03 -0.11452501875E+04  0.11934297988E+04  0.10566000000E+00 0.  1.
          4    1    3    3  501    0 -0.41554753293E+03 -0.61757254824E+02 -0.14628072390E+03  0.44485026788E+03  0.00000000000E+00 0.  1.
         13    1    4    4    0    0 -0.35514103315E+03  0.26704939667E+03 -0.18545132069E+03  0.48149012160E+03  0.10566000000E+00 0. -1.
         -4    1    4    4    0  502  0.45505745547E+03 -0.31954485948E+03 -0.10877830485E+03  0.56658531979E+03  0.00000000000E+00 0. -1.
<mgrwt>
<rscale>  2 0.10074241E+04</rscale>
<asrwt>0</asrwt>
<pdfrwt beam="1">  1       21 0.84661150E-01 0.10079234E+04</pdfrwt>
<pdfrwt beam="2">  1       21 0.32862432E+00 0.10079234E+04</pdfrwt>
<totfact> 0.10232800E+01</totfact>
</mgrwt>
</event>
<event>
 8    1  0.7418332E-006  0.1015385E+04  0.7818608E-02  0.8761577E-01
         21   -1    0    0  501  502  0.00000000000E+00  0.00000000000E+00  0.13656767745E+04  0.13656767745E+04  0.00000000000E+00 0. -1.
         21   -1    0    0  502  503 -0.00000000000E+00 -0.00000000000E+00 -0.95479547412E+03  0.95479547412E+03  0.00000000000E+00 0. -1.
    9000010    2    1    2  501    0  0.14844769131E+02 -0.17521241273E+03  0.74135400596E+03  0.12526615371E+04  0.99430146721E+03 0.  0.
   -9000010    2    1    2    0  503 -0.14844769131E+02  0.17521241273E+03 -0.33047270555E+03  0.10678107115E+04  0.10000438739E+04 0.  0.
        -13    1    3    3    0    0  0.38766116559E+03  0.17163414189E+03  0.10336733686E+03  0.43637630030E+03  0.10566000000E+00 0.  1.
          4    1    3    3  501    0 -0.37281639646E+03 -0.34684655461E+03  0.63798666910E+03  0.81628523683E+03  0.00000000000E+00 0.  1.
         13    1    4    4    0    0  0.77922262886E+02 -0.11291984725E+03  0.32119694659E+03  0.34927104177E+03  0.10566000000E+00 0. -1.
         -4    1    4    4    0  503 -0.92767032017E+02  0.28813225998E+03 -0.65166965214E+03  0.71853966974E+03  0.00000000000E+00 0. -1.
<mgrwt>
<rscale>  2 0.10139686E+04</rscale>
<asrwt>0</asrwt>
<pdfrwt beam="1">  1       21 0.21010412E+00 0.10153854E+04</pdfrwt>
<pdfrwt beam="2">  1       21 0.14689161E+00 0.10153854E+04</pdfrwt>
<totfact> 0.16202095E+01</totfact>
</mgrwt>
</event>
<event>
 8    1  0.7418332E-006  0.1023790E+04  0.7818608E-02  0.8753751E-01
         21   -1    0    0  503  502  0.00000000000E+00  0.00000000000E+00  0.12056753293E+04  0.12056753293E+04  0.00000000000E+00 0. -1.
         21   -1    0    0  501  503 -0.00000000000E+00 -0.00000000000E+00 -0.89806509893E+03  0.89806509893E+03  0.00000000000E+00 0. -1.
    9000010    2    1    2  501    0  0.22863137071E+03  0.65871771379E+01 -0.48679360606E+02  0.10197256138E+04  0.99254972304E+03 0.  0.
   -9000010    2    1    2    0  502 -0.22863137071E+03 -0.65871771379E+01  0.35628959099E+03  0.10840148145E+04  0.99791289737E+03 0.  0.
        -13    1    3    3    0    0 -0.46997441021E+02 -0.19280408815E+02  0.44812477690E+03  0.45099481201E+03  0.10566000000E+00 0.  1.
          4    1    3    3  501    0  0.27562881173E+03  0.25867585953E+02 -0.49680413750E+03  0.56873080179E+03  0.00000000000E+00 0.  1.
         13    1    4    4    0    0  0.20278221133E+03 -0.37954855375E+03  0.26796993511E+03  0.50693749829E+03  0.10566000000E+00 0. -1.
         -4    1    4    4    0  502 -0.43141358204E+03  0.37296137662E+03  0.88319655872E+02  0.57707731616E+03  0.00000000000E+00 0. -1.
<mgrwt>
<rscale>  2 0.10224807E+04</rscale>
<asrwt>0</asrwt>
<pdfrwt beam="1">  1       21 0.18548851E+00 0.10237899E+04</pdfrwt>
<pdfrwt beam="2">  1       21 0.13816386E+00 0.10237899E+04</pdfrwt>
<totfact> 0.30316184E+01</totfact>
</mgrwt>
</event>
<event>
 8    1  0.7418332E-006  0.9917174E+03  0.7818608E-02  0.8793324E-01
         21   -1    0    0  503  502  0.00000000000E+00  0.00000000000E+00  0.44976428719E+03  0.44976428719E+03  0.00000000000E+00 0.  1.
         21   -1    0    0  501  503 -0.00000000000E+00 -0.00000000000E+00 -0.21050065648E+04  0.21050065648E+04  0.00000000000E+00 0.  1.
    9000010    2    1    2  501    0  0.38217808820E+02 -0.45819656799E+01 -0.95850795198E+03  0.13792175110E+04  0.99097015763E+03 0.  0.
   -9000010    2    1    2    0  502 -0.38217808820E+02  0.45819656799E+01 -0.69673432563E+03  0.11755533410E+04  0.94604721959E+03 0.  0.
        -13    1    3    3    0    0  0.25393866164E+03  0.20252605800E+03 -0.10229727764E+04  0.10733009645E+04  0.10566000000E+00 0.  1.
          4    1    3    3  501    0 -0.21572085282E+03 -0.20710802368E+03  0.64464824421E+02  0.30591654646E+03  0.00000000000E+00 0.  1.
         13    1    4    4    0    0 -0.39906687508E+03  0.16034545713E+03 -0.69940102396E+02  0.43572544738E+03  0.10566000000E+00 0. -1.
         -4    1    4    4    0  502  0.36084906626E+03 -0.15576349145E+03 -0.62679422323E+03  0.73982789361E+03  0.00000000000E+00 0. -1.
<mgrwt>
<rscale>  2 0.98029989E+03</rscale>
<asrwt>0</asrwt>
<pdfrwt beam="1">  1       21 0.69194506E-01 0.99171742E+03</pdfrwt>
<pdfrwt beam="2">  1       21 0.32384716E+00 0.99171742E+03</pdfrwt>
<totfact> 0.18075074E+01</totfact>
</mgrwt>
</event>
<event>
 8    1  0.7418332E-006  0.1018048E+04  0.7818608E-02  0.8760742E-01
         21   -1    0    0  503  502  0.00000000000E+00  0.00000000000E+00  0.10037837516E+04  0.10037837516E+04  0.00000000000E+00 0. -1.
         21   -1    0    0  501  503 -0.00000000000E+00 -0.00000000000E+00 -0.11662100612E+04  0.11662100612E+04  0.00000000000E+00 0. -1.
    9000010    2    1    2  501    0  0.20388572653E+03  0.22995300163E+01 -0.46528693826E+03  0.11078517847E+04  0.98451458324E+03 0.  0.
   -9000010    2    1    2    0  502 -0.20388572653E+03 -0.22995300163E+01  0.30286062861E+03  0.10621420281E+04  0.99741989662E+03 0.  0.
        -13    1    3    3    0    0 -0.26948684533E+03 -0.18654628000E+03 -0.49908256545E+03  0.59708131162E+03  0.10566000000E+00 0.  1.
          4    1    3    3  501    0  0.47337257185E+03  0.18884581002E+03  0.33795627197E+02  0.51077047307E+03  0.00000000000E+00 0.  1.
         13    1    4    4    0    0  0.36738968911E+03  0.19115018628E+03  0.14356860795E+03  0.43832126771E+03  0.10566000000E+00 0. -1.
         -4    1    4    4    0  502 -0.57127541563E+03 -0.19344971629E+03  0.15929202066E+03  0.62382076039E+03  0.00000000000E+00 0. -1.
<mgrwt>
<rscale>  2 0.10148728E+04</rscale>
<asrwt>0</asrwt>
<pdfrwt beam="1">  1       21 0.15442827E+00 0.10180477E+04</pdfrwt>
<pdfrwt beam="2">  1       21 0.17941693E+00 0.10180477E+04</pdfrwt>
<totfact> 0.24239487E+01</totfact>
</mgrwt>
</event>
<event>
 8    1  0.7418332E-006  0.1047091E+04  0.7818608E-02  0.8734458E-01
         21   -1    0    0  501  502  0.00000000000E+00  0.00000000000E+00  0.18396586194E+04  0.18396586194E+04  0.00000000000E+00 0. -1.
         21   -1    0    0  502  503 -0.00000000000E+00 -0.00000000000E+00 -0.59623049406E+03  0.59623049406E+03  0.00000000000E+00 0. -1.
    9000010    2    1    2  501    0 -0.26034951639E+03  0.85512666433E+02  0.76302906636E+03  0.12956129347E+04  0.10105964742E+04 0.  0.
   -9000010    2    1    2    0  503  0.26034951639E+03 -0.85512666433E+02  0.48039905902E+03  0.11402761788E+04  0.99717211211E+03 0.  0.
        -13    1    3    3    0    0  0.27453507635E+03  0.87907465478E+01  0.69954394504E+03  0.75153744257E+03  0.10566000000E+00 0.  1.
          4    1    3    3  501    0 -0.53488459274E+03  0.76721919885E+02  0.63485121314E+02  0.54407549216E+03  0.00000000000E+00 0.  1.
         13    1    4    4    0    0 -0.14402977836E+03  0.20884534337E+03 -0.18056807543E+03  0.31139331324E+03  0.10566000000E+00 0. -1.
         -4    1    4    4    0  503  0.40437929476E+03 -0.29435800980E+03  0.66096713445E+03  0.82888286554E+03  0.00000000000E+00 0. -1.
<mgrwt>
<rscale>  2 0.10438382E+04</rscale>
<asrwt>0</asrwt>
<pdfrwt beam="1">  1       21 0.28302440E+00 0.10470910E+04</pdfrwt>
<pdfrwt beam="2">  1       21 0.91727769E-01 0.10470910E+04</pdfrwt>
<totfact> 0.17340158E+01</totfact>
</mgrwt>
</event>
<event>
 8    1  0.7418332E-006  0.1022788E+04  0.7818608E-02  0.8757107E-01
         21   -1    0    0  501  502  0.00000000000E+00  0.00000000000E+00  0.63560631466E+03  0.63560631466E+03  0.00000000000E+00 0. -1.
         21   -1    0    0  502  503 -0.00000000000E+00 -0.00000000000E+00 -0.18075101902E+04  0.18075101902E+04  0.00000000000E+00 0. -1.
    9000010    2    1    2  501    0  0.12997902993E+03 -0.13737605311E+03 -0.18898318968E+03  0.10245860052E+04  0.98908801822E+03 0.  0.
   -9000010    2    1    2    0  503 -0.12997902993E+03  0.13737605311E+03 -0.98292068581E+03  0.14185304997E+04  0.10051512203E+04 0.  0.
        -13    1    3    3    0    0  0.37869208469E+03 -0.45892598463E+03 -0.59569868139E+02  0.59797101496E+03  0.10566000000E+00 0.  1.
          4    1    3    3  501    0 -0.24871305476E+03  0.32154993152E+03 -0.12941332154E+03  0.42661499019E+03  0.00000000000E+00 0.  1.
         13    1    4    4    0    0  0.42681669486E+03 -0.58176109392E+02 -0.37247594412E+03  0.56946930631E+03  0.10566000000E+00 0. -1.
         -4    1    4    4    0  503 -0.55679572479E+03  0.19555216251E+03 -0.61044474169E+03  0.84906119335E+03  0.00000000000E+00 0. -1.
<mgrwt>
<rscale>  2 0.10188197E+04</rscale>
<asrwt>0</asrwt>
<pdfrwt beam="1">  1       21 0.97785589E-01 0.10227882E+04</pdfrwt>
<pdfrwt beam="2">  1       21 0.27807848E+00 0.10227882E+04</pdfrwt>
<totfact> 0.16052759E+01</totfact>
</mgrwt>
</event>
<event>
 8    1  0.7418332E-006  0.1146431E+04  0.7818608E-02  0.8649737E-01
         21   -1    0    0  501  502  0.00000000000E+00  0.00000000000E+00  0.86523830510E+03  0.86523830510E+03  0.00000000000E+00 0. -1.
         21   -1    0    0  502  503 -0.00000000000E+00 -0.00000000000E+00 -0.16936399384E+04  0.16936399384E+04  0.00000000000E+00 0. -1.
    9000010    2    1    2  501    0 -0.17251673968E+03 -0.52215603847E+03  0.11092963872E+02  0.11379439000E+04  0.99618487826E+03 0.  0.
   -9000010    2    1    2    0  503  0.17251673968E+03  0.52215603847E+03 -0.83949459722E+03  0.14209343436E+04  0.10059295582E+04 0.  0.
        -13    1    3    3    0    0  0.25265190182E+03 -0.34287894443E+01  0.31313462227E+03  0.40236555881E+03  0.10566000000E+00 0.  1.
          4    1    3    3  501    0 -0.42516864149E+03 -0.51872724903E+03 -0.30204165839E+03  0.73557834117E+03  0.00000000000E+00 0.  1.
         13    1    4    4    0    0 -0.31916519233E+03  0.31016378290E+03 -0.24414152651E+02  0.44571746009E+03  0.10566000000E+00 0. -1.
         -4    1    4    4    0  503  0.49168193200E+03  0.21199225557E+03 -0.81508044457E+03  0.97521688347E+03  0.00000000000E+00 0. -1.
<mgrwt>
<rscale>  2 0.11442895E+04</rscale>
<asrwt>0</asrwt>
<pdfrwt beam="1">  1       21 0.13311359E+00 0.11464306E+04</pdfrwt>
<pdfrwt beam="2">  1       21 0.26055999E+00 0.11464306E+04</pdfrwt>
<totfact> 0.89270265E+00</totfact>
</mgrwt>
</event>
<event>
 8    1  0.7418332E-006  0.1121602E+04  0.7818608E-02  0.8671440E-01
         21   -1    0    0  501  502  0.00000000000E+00  0.00000000000E+00  0.33776126179E+04  0.33776126179E+04  0.00000000000E+00 0. -1.
         21   -1    0    0  502  503 -0.00000000000E+00 -0.00000000000E+00 -0.38800676635E+03  0.38800676635E+03  0.00000000000E+00 0. -1.
    9000010    2    1    2  501    0 -0.31976213427E+03  0.33719742035E+03  0.19222853665E+04  0.22173413419E+04  0.10027321046E+04 0.  0.
   -9000010    2    1    2    0  503  0.31976213427E+03 -0.33719742035E+03  0.10673204851E+04  0.15482780423E+04  0.10208045629E+04 0.  0.
        -13    1    3    3    0    0 -0.21451519200E+03  0.65145437563E+03  0.83446898692E+03  0.10801611326E+04  0.10566000000E+00 0.  1.
          4    1    3    3  501    0 -0.10524694228E+03 -0.31425695528E+03  0.10878163796E+04  0.11371802093E+04  0.00000000000E+00 0.  1.
         13    1    4    4    0    0 -0.28766180259E+03 -0.36714419800E+02  0.72285469053E+01  0.29008537424E+03  0.10566000000E+00 0. -1.
         -4    1    4    4    0  503  0.60742393687E+03 -0.30048300055E+03  0.10600919382E+04  0.12581926681E+04  0.00000000000E+00 0. -1.
<mgrwt>
<rscale>  2 0.11174739E+04</rscale>
<asrwt>0</asrwt>
<pdfrwt beam="1">  1       21 0.51963269E+00 0.11216024E+04</pdfrwt>
<pdfrwt beam="2">  1       21 0.59693351E-01 0.11216024E+04</pdfrwt>
<totfact> 0.10702778E+00</totfact>
</mgrwt>
</event>
<event>
 8    1  0.7418332E-006  0.1085406E+04  0.7818608E-02  0.8698528E-01
         21   -1    0    0  503  502  0.00000000000E+00  0.00000000000E+00  0.11028178718E+04  0.11028178718E+04  0.00000000000E+00 0.  1.
         21   -1    0    0  501  503 -0.00000000000E+00 -0.00000000000E+00 -0.12865380255E+04  0.12865380255E+04  0.00000000000E+00 0.  1.
    9000010    2    1    2  501    0  0.10540501956E+03  0.40690795299E+03 -0.58537956919E+03  0.12320157994E+04  0.99925441686E+03 0.  0.
   -9000010    2    1    2    0  502 -0.10540501956E+03 -0.40690795299E+03  0.40165941553E+03  0.11573400979E+04  0.10007105054E+04 0.  0.
        -13    1    3    3    0    0  0.17025372557E+00 -0.26058424696E+03  0.90911670831E+02  0.27598753923E+03  0.10566000000E+00 0.  1.
          4    1    3    3  501    0  0.10523476583E+03  0.66749219996E+03 -0.67629124002E+03  0.95602826018E+03  0.00000000000E+00 0.  1.
         13    1    4    4    0    0 -0.36506833155E+03 -0.35400202955E+03 -0.16265698066E+03  0.53390039160E+03  0.10566000000E+00 0. -1.
         -4    1    4    4    0  502  0.25966331199E+03 -0.52905923444E+02  0.56431639620E+03  0.62343970626E+03  0.00000000000E+00 0. -1.
<mgrwt>
<rscale>  2 0.10850701E+04</rscale>
<asrwt>0</asrwt>
<pdfrwt beam="1">  1       21 0.16966429E+00 0.10854058E+04</pdfrwt>
<pdfrwt beam="2">  1       21 0.19792893E+00 0.10854058E+04</pdfrwt>
<totfact> 0.12559562E+01</totfact>
</mgrwt>
</event>
<event>
 8    1  0.7418332E-006  0.1020712E+04  0.7818608E-02  0.8768983E-01
         21   -1    0    0  501  502  0.00000000000E+00  0.00000000000E+00  0.20821849241E+04  0.20821849241E+04  0.00000000000E+00 0. -1.
         21   -1    0    0  502  503 -0.00000000000E+00 -0.00000000000E+00 -0.11201777507E+04  0.11201777507E+04  0.00000000000E+00 0. -1.
    9000010    2    1    2  501    0  0.83398777908E+02  0.14848671805E+03  0.16923985263E+04  0.19472432419E+04  0.94791339782E+03 0.  0.
   -9000010    2    1    2    0  503 -0.83398777908E+02 -0.14848671805E+03 -0.73039135295E+03  0.12551194329E+04  0.10064042930E+04 0.  0.
        -13    1    3    3    0    0  0.40058677338E+03 -0.18521839366E+03  0.11724088089E+04  0.12527242485E+04  0.10566000000E+00 0.  1.
          4    1    3    3  501    0 -0.31718799547E+03  0.33370511171E+03  0.51998971741E+03  0.69451899345E+03  0.00000000000E+00 0.  1.
         13    1    4    4    0    0 -0.31873260931E+03  0.32569557021E+03 -0.17580937566E+03  0.48844347516E+03  0.10566000000E+00 0. -1.
         -4    1    4    4    0  503  0.23533383140E+03 -0.47418228826E+03 -0.55458197729E+03  0.76667595778E+03  0.00000000000E+00 0. -1.
<mgrwt>
<rscale>  2 0.10059913E+04</rscale>
<asrwt>0</asrwt>
<pdfrwt beam="1">  1       21 0.32033614E+00 0.10207121E+04</pdfrwt>
<pdfrwt beam="2">  1       21 0.17233504E+00 0.10207121E+04</pdfrwt>
<totfact> 0.15538070E+00</totfact>
</mgrwt>
</event>
<event>
 8    1  0.7418332E-006  0.1025035E+04  0.7818608E-02  0.8753435E-01
         21   -1    0    0  503  502  0.00000000000E+00  0.00000000000E+00  0.13282671370E+04  0.13282671370E+04  0.00000000000E+00 0. -1.
         21   -1    0    0  501  503 -0.00000000000E+00 -0.00000000000E+00 -0.11032651334E+04  0.11032651334E+04  0.00000000000E+00 0. -1.
    9000010    2    1    2  501    0  0.10786611174E+02 -0.14777165065E+03 -0.54090930477E+03  0.11589997589E+04  0.10142705524E+04 0.  0.
   -9000010    2    1    2    0  502 -0.10786611174E+02  0.14777165065E+03  0.76591130839E+03  0.12725325116E+04  0.10053686135E+04 0.  0.
        -13    1    3    3    0    0 -0.32328466612E+02 -0.34062631592E+03 -0.77825919315E+03  0.85015222151E+03  0.10566000000E+00 0.  1.
          4    1    3    3  501    0  0.43115077786E+02  0.19285466526E+03  0.23734988838E+03  0.30884753740E+03  0.00000000000E+00 0.  1.
         13    1    4    4    0    0 -0.12391346236E+02  0.30494257093E+03  0.96888488206E+03  0.10158156540E+04  0.10566000000E+00 0. -1.
         -4    1    4    4    0  502  0.16047350622E+01 -0.15717092027E+03 -0.20297357367E+03  0.25671685758E+03  0.00000000000E+00 0. -1.
<mgrwt>
<rscale>  2 0.10228264E+04</rscale>
<asrwt>0</asrwt>
<pdfrwt beam="1">  1       21 0.20434879E+00 0.10250354E+04</pdfrwt>
<pdfrwt beam="2">  1       21 0.16973310E+00 0.10250354E+04</pdfrwt>
<totfact> 0.11338682E+01</totfact>
</mgrwt>
</event>
<event>
 8    1  0.7418332E-006  0.1084685E+04  0.7818608E-02  0.8706065E-01
         21   -1    0    0  501  502  0.00000000000E+00  0.00000000000E+00  0.27372937375E+04  0.27372937375E+04  0.00000000000E+00 0.  1.
         21   -1    0    0  502  503 -0.00000000000E+00 -0.00000000000E+00 -0.43583874449E+03  0.43583874449E+03  0.00000000000E+00 0.  1.
    9000010    2    1    2  501    0  0.25787916636E+03  0.25163186234E+03  0.80130022736E+03  0.13219150983E+04  0.98770299890E+03 0.  0.
   -9000010    2    1    2    0  503 -0.25787916636E+03 -0.25163186234E+03  0.15001547656E+04  0.18512173837E+04  0.10230939460E+04 0.  0.
        -13    1    3    3    0    0 -0.97828087328E+02  0.51468334907E+03  0.68885436575E+03  0.86544187145E+03  0.10566000000E+00 0.  1.
          4    1    3    3  501    0  0.35570725369E+03 -0.26305148673E+03  0.11244586162E+03  0.45647322681E+03  0.00000000000E+00 0.  1.
         13    1    4    4    0    0 -0.24367151161E+03 -0.30636832477E+02  0.15924691767E+04  0.16112952898E+04  0.10566000000E+00 0. -1.
         -4    1    4    4    0  503 -0.14207654749E+02 -0.22099502987E+03 -0.92314411035E+02  0.23992209395E+03  0.00000000000E+00 0. -1.
<mgrwt>
<rscale>  2 0.10762584E+04</rscale>
<asrwt>0</asrwt>
<pdfrwt beam="1">  1       21 0.42112210E+00 0.10846850E+04</pdfrwt>
<pdfrwt beam="2">  1       21 0.67052116E-01 0.10846850E+04</pdfrwt>
<totfact> 0.39898200E+00</totfact>
</mgrwt>
</event>
<event>
 8    1  0.7418332E-006  0.1161805E+04  0.7818608E-02  0.8640477E-01
         21   -1    0    0  501  502  0.00000000000E+00  0.00000000000E+00  0.18644049814E+04  0.18644049814E+04  0.00000000000E+00 0. -1.
         21   -1    0    0  502  503 -0.00000000000E+00 -0.00000000000E+00 -0.95869377426E+03  0.95869377426E+03  0.00000000000E+00 0. -1.
    9000010    2    1    2  501    0  0.44254646971E+03 -0.31310326584E+03  0.11689417624E+04  0.16318467078E+04  0.10013080449E+04 0.  0.
   -9000010    2    1    2    0  503 -0.44254646971E+03  0.31310326584E+03 -0.26323055529E+03  0.11912520479E+04  0.10275748554E+04 0.  0.
        -13    1    3    3    0    0  0.65704758912E+03 -0.66659211805E+02  0.11217718979E+04  0.13017400612E+04  0.10566000000E+00 0.  1.
          4    1    3    3  501    0 -0.21450111941E+03 -0.24644405403E+03  0.47169864546E+02  0.33010664658E+03  0.00000000000E+00 0.  1.
         13    1    4    4    0    0 -0.19196529073E+03  0.59472908644E+03 -0.45044164173E+03  0.77035773694E+03  0.10566000000E+00 0. -1.
         -4    1    4    4    0  503 -0.25058117899E+03 -0.28162582060E+03  0.18721108644E+03  0.42089431093E+03  0.00000000000E+00 0. -1.
<mgrwt>
<rscale>  2 0.11559698E+04</rscale>
<asrwt>0</asrwt>
<pdfrwt beam="1">  1       21 0.28683153E+00 0.11618051E+04</pdfrwt>
<pdfrwt beam="2">  1       21 0.14749135E+00 0.11618051E+04</pdfrwt>
<totfact> 0.42459637E+00</totfact>
</mgrwt>
</event>
<event>
 8    1  0.7418332E-006  0.1059006E+04  0.7818608E-02  0.8728405E-01
         21   -1    0    0  501  502  0.00000000000E+00  0.00000000000E+00  0.89141711680E+03  0.89141711680E+03  0.00000000000E+00 0.  1.
         21   -1    0    0  502  503 -0.00000000000E+00 -0.00000000000E+00 -0.12213598774E+04  0.12213598774E+04  0.00000000000E+00 0.  1.
    9000010    2    1    2  501    0  0.17185119411E+03 -0.89390315240E+02 -0.12274979496E+03  0.10660959822E+04  0.10411386409E+04 0.  0.
   -9000010    2    1    2    0  503 -0.17185119411E+03  0.89390315240E+02 -0.20719296561E+03  0.10466810120E+04  0.10075161312E+04 0.  0.
        -13    1    3    3    0    0  0.57879013002E+03  0.12883059949E+03 -0.11653095612E+03  0.60429695753E+03  0.10566000000E+00 0.  1.
          4    1    3    3  501    0 -0.40693893591E+03 -0.21822091473E+03 -0.62188388308E+01  0.46179902463E+03  0.00000000000E+00 0.  1.
         13    1    4    4    0    0  0.40186087864E+03 -0.55106781513E+02  0.35578240079E+02  0.40717900914E+03  0.10566000000E+00 0. -1.
         -4    1    4    4    0  503 -0.57371207275E+03  0.14449709675E+03 -0.24277120569E+03  0.63950200289E+03  0.00000000000E+00 0. -1.
<mgrwt>
<rscale>  2 0.10506481E+04</rscale>
<asrwt>0</asrwt>
<pdfrwt beam="1">  1       21 0.13714110E+00 0.10590057E+04</pdfrwt>
<pdfrwt beam="2">  1       21 0.18790152E+00 0.10590057E+04</pdfrwt>
<totfact> 0.29407074E+01</totfact>
</mgrwt>
</event>
<event>
 8    1  0.7418332E-006  0.1030394E+04  0.7818608E-02  0.8750282E-01
         21   -1    0    0  503  502  0.00000000000E+00  0.00000000000E+00  0.61232645060E+03  0.61232645060E+03  0.00000000000E+00 0. -1.
         21   -1    0    0  501  503 -0.00000000000E+00 -0.00000000000E+00 -0.18604445266E+04  0.18604445266E+04  0.00000000000E+00 0. -1.
    9000010    2    1    2  501    0  0.13684807820E+03  0.19205323641E+03 -0.98428954281E+03  0.14249695001E+04  0.10030455273E+04 0.  0.
   -9000010    2    1    2    0  502 -0.13684807820E+03 -0.19205323641E+03 -0.26382853321E+03  0.10478014772E+04  0.98624063923E+03 0.  0.
        -13    1    3    3    0    0 -0.23319089591E+03 -0.30979920548E+03 -0.24865086847E+03  0.46063087957E+03  0.10566000000E+00 0.  1.
          4    1    3    3  501    0  0.37003897411E+03  0.50185244189E+03 -0.73563867434E+03  0.96433862049E+03  0.00000000000E+00 0.  1.
         13    1    4    4    0    0  0.41906622683E+03  0.15533507823E+02 -0.83369441580E+02  0.42756083461E+03  0.10566000000E+00 0. -1.
         -4    1    4    4    0  502 -0.55591430503E+03 -0.20758674424E+03 -0.18045909163E+03  0.62024064255E+03  0.00000000000E+00 0. -1.
<mgrwt>
<rscale>  2 0.10262817E+04</rscale>
<asrwt>0</asrwt>
<pdfrwt beam="1">  1       21 0.94204069E-01 0.10303942E+04</pdfrwt>
<pdfrwt beam="2">  1       21 0.28622223E+00 0.10303942E+04</pdfrwt>
<totfact> 0.15432560E+01</totfact>
</mgrwt>
</event>
<event>
 8    1  0.7418332E-006  0.9935137E+03  0.7818608E-02  0.8783709E-01
         21   -1    0    0  503  502  0.00000000000E+00  0.00000000000E+00  0.12610367768E+04  0.12610367768E+04  0.00000000000E+00 0. -1.
         21   -1    0    0  501  503 -0.00000000000E+00 -0.00000000000E+00 -0.10336677603E+04  0.10336677603E+04  0.00000000000E+00 0. -1.
    9000010    2    1    2  501    0 -0.33965373375E+02 -0.17778568374E+02 -0.46208809589E+03  0.10957166450E+04  0.99277380789E+03 0.  0.
   -9000010    2    1    2    0  502  0.33965373375E+02  0.17778568374E+02  0.68945711234E+03  0.11989878921E+04  0.98017913237E+03 0.  0.
        -13    1    3    3    0    0  0.26692337124E+03  0.36799161675E+03 -0.52435023655E+02  0.45761922925E+03  0.10566000000E+00 0.  1.
          4    1    3    3  501    0 -0.30088874461E+03 -0.38577018512E+03 -0.40965307224E+03  0.63809741573E+03  0.00000000000E+00 0.  1.
         13    1    4    4    0    0  0.13453853102E+03  0.85561698501E+02 -0.22541931579E+03  0.27610740605E+03  0.10566000000E+00 0. -1.
         -4    1    4    4    0  502 -0.10057315765E+03 -0.67783130127E+02  0.91487642813E+03  0.92288048604E+03  0.00000000000E+00 0. -1.
<mgrwt>
<rscale>  2 0.99035239E+03</rscale>
<asrwt>0</asrwt>
<pdfrwt beam="1">  1       21 0.19400566E+00 0.99351374E+03</pdfrwt>
<pdfrwt beam="2">  1       21 0.15902581E+00 0.99351374E+03</pdfrwt>
<totfact> 0.16978263E+01</totfact>
</mgrwt>
</event>
<event>
 8    1  0.7418332E-006  0.1047581E+04  0.7818608E-02  0.8735163E-01
         21   -1    0    0  501  502  0.00000000000E+00  0.00000000000E+00  0.10313871310E+04  0.10313871310E+04  0.00000000000E+00 0.  1.
         21   -1    0    0  502  503 -0.00000000000E+00 -0.00000000000E+00 -0.11376110775E+04  0.11376110775E+04  0.00000000000E+00 0. -1.
    9000010    2    1    2  501    0  0.31450689855E+03  0.48943274599E+02 -0.36075563111E+03  0.10909384171E+04  0.97912816888E+03 0.  0.
   -9000010    2    1    2    0  503 -0.31450689855E+03 -0.48943274599E+02  0.25453168465E+03  0.10780597914E+04  0.99805636215E+03 0.  0.
        -13    1    3    3    0    0  0.62656883837E+03  0.21635392809E+03 -0.15276872767E+03  0.68024688660E+03  0.10566000000E+00 0.  1.
          4    1    3    3  501    0 -0.31206193982E+03 -0.16741065349E+03 -0.20798690344E+03  0.41069153046E+03  0.00000000000E+00 0.  1.
         13    1    4    4    0    0 -0.13459313302E+03  0.22056504236E+03 -0.32432848287E+03  0.41467243137E+03  0.10566000000E+00 0. -1.
         -4    1    4    4    0  503 -0.17991376553E+03 -0.26950831696E+03  0.57886016752E+03  0.66338736006E+03  0.00000000000E+00 0. -1.
<mgrwt>
<rscale>  2 0.10430476E+04</rscale>
<asrwt>0</asrwt>
<pdfrwt beam="1">  1       21 0.15867494E+00 0.10475813E+04</pdfrwt>
<pdfrwt beam="2">  1       21 0.17501709E+00 0.10475813E+04</pdfrwt>
<totfact> 0.24028480E+01</totfact>
</mgrwt>
</event>
<event>
 8    1  0.7418332E-006  0.1258027E+04  0.7818608E-02  0.8566348E-01
         21   -1    0    0  501  502  0.00000000000E+00  0.00000000000E+00  0.43246462292E+03  0.43246462292E+03  0.00000000000E+00 0. -1.
         21   -1    0    0  502  503 -0.00000000000E+00 -0.00000000000E+00 -0.41096447191E+04  0.41096447191E+04  0.00000000000E+00 0. -1.
    9000010    2    1    2  501    0  0.36395830954E+03  0.65755461438E+03 -0.26281315152E+04  0.29137103772E+04  0.10088553807E+04 0.  0.
   -9000010    2    1    2    0  503 -0.36395830954E+03 -0.65755461438E+03 -0.10490485809E+04  0.16283989648E+04  0.99314477359E+03 0.  0.
        -13    1    3    3    0    0  0.38288351449E+03 -0.55788917034E+02 -0.16971823535E+04  0.17407297726E+04  0.10566000000E+00 0.  1.
          4    1    3    3  501    0 -0.18925204944E+02  0.71334353142E+03 -0.93094916171E+03  0.11729806046E+04  0.00000000000E+00 0.  1.
         13    1    4    4    0    0 -0.67577013988E+03 -0.22502253237E+03 -0.59747740934E+03  0.92966643903E+03  0.10566000000E+00 0. -1.
         -4    1    4    4    0  503  0.31181183033E+03 -0.43253208201E+03 -0.45157117160E+03  0.69873252574E+03  0.00000000000E+00 0. -1.
<mgrwt>
<rscale>  2 0.12548747E+04</rscale>
<asrwt>0</asrwt>
<pdfrwt beam="1">  1       21 0.66533017E-01 0.12580274E+04</pdfrwt>
<pdfrwt beam="2">  1       21 0.63225305E+00 0.12580274E+04</pdfrwt>
<totfact> 0.11531517E-01</totfact>
</mgrwt>
</event>
<event>
 8    1  0.7418332E-006  0.1033348E+04  0.7818608E-02  0.8747766E-01
         21   -1    0    0  503  502  0.00000000000E+00  0.00000000000E+00  0.10021680020E+04  0.10021680020E+04  0.00000000000E+00 0. -1.
         21   -1    0    0  501  503 -0.00000000000E+00 -0.00000000000E+00 -0.10514975639E+04  0.10514975639E+04  0.00000000000E+00 0. -1.
    9000010    2    1    2  501    0 -0.11637748448E+03 -0.15555684999E+03  0.34743512597E+02  0.10339314146E+04  0.10149213792E+04 0.  0.
   -9000010    2    1    2    0  502  0.11637748448E+03  0.15555684999E+03 -0.84073074540E+02  0.10197341514E+04  0.99752082940E+03 0.  0.
        -13    1    3    3    0    0 -0.28769634331E+03  0.11102875027E+02  0.46199920446E+03  0.54436728031E+03  0.10566000000E+00 0.  1.
          4    1    3    3  501    0  0.17131885883E+03 -0.16665972502E+03 -0.42725569186E+03  0.48956413427E+03  0.00000000000E+00 0.  1.
         13    1    4    4    0    0 -0.27540073643E+03  0.11237731997E+03 -0.41120922540E+03  0.50751085298E+03  0.10566000000E+00 0. -1.
         -4    1    4    4    0  502  0.39177822091E+03  0.43179530021E+02  0.32713615086E+03  0.51222329837E+03  0.00000000000E+00 0. -1.
<mgrwt>
<rscale>  2 0.10290495E+04</rscale>
<asrwt>0</asrwt>
<pdfrwt beam="1">  1       21 0.15417969E+00 0.10333475E+04</pdfrwt>
<pdfrwt beam="2">  1       21 0.16176885E+00 0.10333475E+04</pdfrwt>
<totfact> 0.34110452E+01</totfact>
</mgrwt>
</event>
<event>
 8    1  0.7418332E-006  0.1069656E+04  0.7818608E-02  0.8712294E-01
         21   -1    0    0  501  502  0.00000000000E+00  0.00000000000E+00  0.72814688489E+03  0.72814688489E+03  0.00000000000E+00 0.  1.
         21   -1    0    0  502  503 -0.00000000000E+00 -0.00000000000E+00 -0.16824549620E+04  0.16824549620E+04  0.00000000000E+00 0.  1.
    9000010    2    1    2  501    0 -0.31271950186E+03  0.18298458380E+03 -0.79138144633E+03  0.13286085177E+04  0.10038123106E+04 0.  0.
   -9000010    2    1    2    0  503  0.31271950186E+03 -0.18298458380E+03 -0.16292663079E+03  0.10819933292E+04  0.10064231877E+04 0.  0.
        -13    1    3    3    0    0 -0.28505130406E+03  0.59061373814E+03 -0.44009381137E+03  0.78978567194E+03  0.10566000000E+00 0.  1.
          4    1    3    3  501    0 -0.27668197803E+02 -0.40762915434E+03 -0.35128763497E+03  0.53882284577E+03  0.00000000000E+00 0.  1.
         13    1    4    4    0    0  0.48880192855E+03 -0.45421010268E+03  0.87528323366E+02  0.67297500792E+03  0.10566000000E+00 0. -1.
         -4    1    4    4    0  503 -0.17608242669E+03  0.27122551888E+03 -0.25045495415E+03  0.40901832128E+03  0.00000000000E+00 0. -1.
<mgrwt>
<rscale>  2 0.10690417E+04</rscale>
<asrwt>0</asrwt>
<pdfrwt beam="1">  1       21 0.11202260E+00 0.10696562E+04</pdfrwt>
<pdfrwt beam="2">  1       21 0.25883923E+00 0.10696562E+04</pdfrwt>
<totfact> 0.15198454E+01</totfact>
</mgrwt>
</event>
<event>
 8    1  0.7418332E-006  0.1045521E+04  0.7818608E-02  0.8734669E-01
         21   -1    0    0  503  502  0.00000000000E+00  0.00000000000E+00  0.61042886030E+03  0.61042886030E+03  0.00000000000E+00 0. -1.
         21   -1    0    0  501  503 -0.00000000000E+00 -0.00000000000E+00 -0.20231979661E+04  0.20231979661E+04  0.00000000000E+00 0. -1.
    9000010    2    1    2  501    0 -0.21992430753E+03 -0.94843849041E+02 -0.11674185262E+04  0.15671565306E+04  0.10177187820E+04 0.  0.
   -9000010    2    1    2    0  502  0.21992430753E+03  0.94843849041E+02 -0.24535057962E+03  0.10664702958E+04  0.10098514387E+04 0.  0.
        -13    1    3    3    0    0 -0.33563954858E+03 -0.26640833932E+03 -0.12669992614E+04  0.13375030652E+04  0.10566000000E+00 0.  1.
          4    1    3    3  501    0  0.11571524105E+03  0.17156449028E+03  0.99580735207E+02  0.22965346538E+03  0.00000000000E+00 0.  1.
         13    1    4    4    0    0 -0.26944032295E+03  0.19827574661E+03 -0.41975991745E+03  0.53675856657E+03  0.10566000000E+00 0. -1.
         -4    1    4    4    0  502  0.48936463048E+03 -0.10343189757E+03  0.17440933783E+03  0.52971172927E+03  0.00000000000E+00 0. -1.
<mgrwt>
<rscale>  2 0.10436013E+04</rscale>
<asrwt>0</asrwt>
<pdfrwt beam="1">  1       21 0.93912132E-01 0.10455207E+04</pdfrwt>
<pdfrwt beam="2">  1       21 0.31126123E+00 0.10455207E+04</pdfrwt>
<totfact> 0.10309935E+01</totfact>
</mgrwt>
</event>
<event>
 8    1  0.7418332E-006  0.1031272E+04  0.7818608E-02  0.8751038E-01
         21   -1    0    0  501  502  0.00000000000E+00  0.00000000000E+00  0.93613067948E+03  0.93613067948E+03  0.00000000000E+00 0. -1.
         21   -1    0    0  502  503 -0.00000000000E+00 -0.00000000000E+00 -0.11369978440E+04  0.11369978440E+04  0.00000000000E+00 0. -1.
    9000010    2    1    2  501    0 -0.12611718596E+03 -0.17196193746E+03 -0.25888628661E+03  0.10632702462E+04  0.10089821875E+04 0.  0.
   -9000010    2    1    2    0  503  0.12611718596E+03  0.17196193746E+03  0.58019122084E+02  0.10098582773E+04  0.98537864250E+03 0.  0.
        -13    1    3    3    0    0  0.18658200785E+03  0.48779655646E+02  0.31743267323E+03  0.37142403484E+03  0.10566000000E+00 0.  1.
          4    1    3    3  501    0 -0.31269919381E+03 -0.22074159311E+03 -0.57631895985E+03  0.69184621139E+03  0.00000000000E+00 0.  1.
         13    1    4    4    0    0 -0.15530260809E+03 -0.19772123722E+03  0.37207754210E+03  0.44905934599E+03  0.10566000000E+00 0. -1.
         -4    1    4    4    0  503  0.28141979405E+03  0.36968317469E+03 -0.31405842001E+03  0.56079893126E+03  0.00000000000E+00 0. -1.
<mgrwt>
<rscale>  2 0.10254523E+04</rscale>
<asrwt>0</asrwt>
<pdfrwt beam="1">  1       21 0.14402010E+00 0.10312718E+04</pdfrwt>
<pdfrwt beam="2">  1       21 0.17492275E+00 0.10312718E+04</pdfrwt>
<totfact> 0.32599967E+01</totfact>
</mgrwt>
</event>
<event>
 8    1  0.7418332E-006  0.1078698E+04  0.7818608E-02  0.8707014E-01
         21   -1    0    0  501  502  0.00000000000E+00  0.00000000000E+00  0.12244359215E+04  0.12244359215E+04  0.00000000000E+00 0. -1.
         21   -1    0    0  502  503 -0.00000000000E+00 -0.00000000000E+00 -0.95483798010E+03  0.95483798010E+03  0.00000000000E+00 0. -1.
    9000010    2    1    2  501    0 -0.26714445588E+03 -0.29505624977E+03  0.28069043902E+03  0.11146197516E+04  0.10025795316E+04 0.  0.
   -9000010    2    1    2    0  503  0.26714445588E+03  0.29505624977E+03 -0.11092497571E+02  0.10646541501E+04  0.98739103954E+03 0.  0.
        -13    1    3    3    0    0  0.26645816094E+03  0.19700158647E+03  0.19303542114E+03  0.38350001510E+03  0.10566000000E+00 0.  1.
          4    1    3    3  501    0 -0.53360261682E+03 -0.49205783623E+03  0.87655017886E+02  0.73111973646E+03  0.00000000000E+00 0.  1.
         13    1    4    4    0    0 -0.16972328292E+02 -0.55955863908E+02  0.42966407879E+03  0.43362466535E+03  0.10566000000E+00 0. -1.
         -4    1    4    4    0  503  0.28411678417E+03  0.35101211367E+03 -0.44075657637E+03  0.63102948473E+03  0.00000000000E+00 0. -1.
<mgrwt>
<rscale>  2 0.10751554E+04</rscale>
<asrwt>0</asrwt>
<pdfrwt beam="1">  1       21 0.18837476E+00 0.10786983E+04</pdfrwt>
<pdfrwt beam="2">  1       21 0.14689815E+00 0.10786983E+04</pdfrwt>
<totfact> 0.23615030E+01</totfact>
</mgrwt>
</event>
<event>
 8    1  0.7418332E-006  0.1130976E+04  0.7818608E-02  0.8665953E-01
         21   -1    0    0  501  502  0.00000000000E+00  0.00000000000E+00  0.14066098244E+04  0.14066098244E+04  0.00000000000E+00 0. -1.
         21   -1    0    0  502  503 -0.00000000000E+00 -0.00000000000E+00 -0.10784173659E+04  0.10784173659E+04  0.00000000000E+00 0. -1.
    9000010    2    1    2  501    0 -0.36648253319E+03 -0.34500277339E+03  0.68804172344E+03  0.13238229612E+04  0.10128027738E+04 0.  0.
   -9000010    2    1    2    0  503  0.36648253319E+03  0.34500277339E+03 -0.35984926498E+03  0.11612042291E+04  0.98263289554E+03 0.  0.
        -13    1    3    3    0    0 -0.14473714501E+03 -0.33623593210E+03  0.92763153973E+03  0.99724807738E+03  0.10566000000E+00 0.  1.
          4    1    3    3  501    0 -0.22174538818E+03 -0.87668412944E+01 -0.23958981628E+03  0.32657488384E+03  0.00000000000E+00 0.  1.
         13    1    4    4    0    0  0.41629768457E+03  0.16656269634E+03  0.25722098952E+03  0.51692314961E+03  0.10566000000E+00 0. -1.
         -4    1    4    4    0  503 -0.49815151377E+02  0.17844007705E+03 -0.61707025450E+03  0.64428107949E+03  0.00000000000E+00 0. -1.
<mgrwt>
<rscale>  2 0.11241806E+04</rscale>
<asrwt>0</asrwt>
<pdfrwt beam="1">  1       21 0.21640151E+00 0.11309756E+04</pdfrwt>
<pdfrwt beam="2">  1       21 0.16591036E+00 0.11309756E+04</pdfrwt>
<totfact> 0.96348279E+00</totfact>
</mgrwt>
</event>
<event>
 8    1  0.7418332E-006  0.1138752E+04  0.7818608E-02  0.8655509E-01
         21   -1    0    0  501  502  0.00000000000E+00  0.00000000000E+00  0.10402238445E+04  0.10402238445E+04  0.00000000000E+00 0.  1.
         21   -1    0    0  502  503 -0.00000000000E+00 -0.00000000000E+00 -0.18768416454E+04  0.18768416454E+04  0.00000000000E+00 0.  1.
    9000010    2    1    2  501    0  0.47009004745E+03  0.24232648304E+03 -0.12675502959E+04  0.16995027406E+04  0.10009590580E+04 0.  0.
   -9000010    2    1    2    0  503 -0.47009004745E+03 -0.24232648304E+03  0.43093249498E+03  0.12175627493E+04  0.10084886990E+04 0.  0.
        -13    1    3    3    0    0 -0.25974350103E+03 -0.15358767473E+03 -0.33238805349E+03  0.44892949271E+03  0.10566000000E+00 0.  1.
          4    1    3    3  501    0  0.72983354849E+03  0.39591415777E+03 -0.93516224241E+03  0.12505732479E+04  0.00000000000E+00 0.  1.
         13    1    4    4    0    0  0.26759837498E+03 -0.22302720880E+03  0.31677053672E+03  0.47084350931E+03  0.10566000000E+00 0. -1.
         -4    1    4    4    0  503 -0.73768842244E+03 -0.19299274244E+02  0.11416195826E+03  0.74671923994E+03  0.00000000000E+00 0. -1.
<mgrwt>
<rscale>  2 0.11370827E+04</rscale>
<asrwt>0</asrwt>
<pdfrwt beam="1">  1       21 0.16003444E+00 0.11387521E+04</pdfrwt>
<pdfrwt beam="2">  1       21 0.28874487E+00 0.11387521E+04</pdfrwt>
<totfact> 0.32061506E+00</totfact>
</mgrwt>
</event>
<event>
 8    1  0.7418332E-006  0.1070322E+04  0.7818608E-02  0.8712226E-01
         21   -1    0    0  501  502  0.00000000000E+00  0.00000000000E+00  0.23372585675E+04  0.23372585675E+04  0.00000000000E+00 0.  1.
         21   -1    0    0  502  503 -0.00000000000E+00 -0.00000000000E+00 -0.51980889007E+03  0.51980889007E+03  0.00000000000E+00 0.  1.
    9000010    2    1    2  501    0  0.10664618494E+03 -0.33212717364E+03  0.12604829020E+04  0.16505019538E+04  0.10068056838E+04 0.  0.
   -9000010    2    1    2    0  503 -0.10664618494E+03  0.33212717364E+03  0.55696677537E+03  0.12065655038E+04  0.10118826304E+04 0.  0.
        -13    1    3    3    0    0  0.87718763736E+02  0.35947013201E+03  0.37548035766E+03  0.52716113995E+03  0.10566000000E+00 0.  1.
          4    1    3    3  501    0  0.18927421209E+02 -0.69159730566E+03  0.88500254439E+03  0.11233408138E+04  0.00000000000E+00 0.  1.
         13    1    4    4    0    0  0.38813104221E+03  0.41540973946E+03  0.28908701315E+03  0.63779484938E+03  0.10566000000E+00 0. -1.
         -4    1    4    4    0  503 -0.49477722716E+03 -0.83282565812E+02  0.26787976222E+03  0.56877065438E+03  0.00000000000E+00 0. -1.
<mgrwt>
<rscale>  2 0.10691200E+04</rscale>
<asrwt>0</asrwt>
<pdfrwt beam="1">  1       21 0.35957824E+00 0.10703216E+04</pdfrwt>
<pdfrwt beam="2">  1       21 0.79970599E-01 0.10703216E+04</pdfrwt>
<totfact> 0.70455911E+00</totfact>
</mgrwt>
</event>
<event>
 8    1  0.7418332E-006  0.1050723E+04  0.7818608E-02  0.8736165E-01
         21   -1    0    0  503  502  0.00000000000E+00  0.00000000000E+00  0.11957826959E+04  0.11957826959E+04  0.00000000000E+00 0. -1.
         21   -1    0    0  501  503 -0.00000000000E+00 -0.00000000000E+00 -0.10324226179E+04  0.10324226179E+04  0.00000000000E+00 0. -1.
    9000010    2    1    2  501    0 -0.23772854597E+03 -0.82446267669E+02 -0.32890064520E+03  0.10678865487E+04  0.98432403088E+03 0.  0.
   -9000010    2    1    2    0  502  0.23772854597E+03  0.82446267669E+02  0.49226072324E+03  0.11603187651E+04  0.10201503656E+04 0.  0.
        -13    1    3    3    0    0  0.10446002210E+02 -0.46565749674E+03 -0.38970398310E+03  0.60730159628E+03  0.10566000000E+00 0.  1.
          4    1    3    3  501    0 -0.24817454818E+03  0.38321122907E+03  0.60803337904E+02  0.46058495237E+03  0.00000000000E+00 0.  1.
         13    1    4    4    0    0  0.35606198054E+03  0.30458826392E+03  0.69426272090E+03  0.83758873041E+03  0.10566000000E+00 0. -1.
         -4    1    4    4    0  502 -0.11833343457E+03 -0.22214199625E+03 -0.20200199766E+03  0.32273003470E+03  0.00000000000E+00 0. -1.
<mgrwt>
<rscale>  2 0.10419263E+04</rscale>
<asrwt>0</asrwt>
<pdfrwt beam="1">  1       21 0.18396657E+00 0.10507231E+04</pdfrwt>
<pdfrwt beam="2">  1       21 0.15883425E+00 0.10507231E+04</pdfrwt>
<totfact> 0.20225582E+01</totfact>
</mgrwt>
</event>
<event>
 8    1  0.7418332E-006  0.1040856E+04  0.7818608E-02  0.8771721E-01
         21   -1    0    0  501  502  0.00000000000E+00  0.00000000000E+00  0.19051590849E+04  0.19051590849E+04  0.00000000000E+00 0.  1.
         21   -1    0    0  502  503 -0.00000000000E+00 -0.00000000000E+00 -0.12940765442E+04  0.12940765442E+04  0.00000000000E+00 0.  1.
    9000010    2    1    2  501    0 -0.36231171466E+03 -0.25749651695E+02  0.15540835083E+04  0.17947317173E+04  0.82094674814E+03 0.  0.
   -9000010    2    1    2    0  503  0.36231171466E+03  0.25749651695E+02 -0.94300096761E+03  0.14045039118E+04  0.97542174987E+03 0.  0.
        -13    1    3    3    0    0  0.13000028704E+01  0.12879531267E+03  0.13384355286E+04  0.13446187556E+04  0.10566000000E+00 0.  1.
          4    1    3    3  501    0 -0.36361171753E+03 -0.15454496436E+03  0.21564797966E+03  0.45011296167E+03  0.00000000000E+00 0.  1.
         13    1    4    4    0    0  0.43689354975E+03  0.43016634368E+03 -0.43933550952E+03  0.75427763996E+03  0.10566000000E+00 0. -1.
         -4    1    4    4    0  503 -0.74581835088E+02 -0.40441669199E+03 -0.50366545809E+03  0.65022627181E+03  0.00000000000E+00 0. -1.
<mgrwt>
<rscale>  2 0.10030604E+04</rscale>
<asrwt>0</asrwt>
<pdfrwt beam="1">  1       21 0.29310140E+00 0.10408556E+04</pdfrwt>
<pdfrwt beam="2">  1       21 0.19908870E+00 0.10408556E+04</pdfrwt>
<totfact> 0.14641578E+00</totfact>
</mgrwt>
</event>
<event>
 8    1  0.7418332E-006  0.1015874E+04  0.7818608E-02  0.8762064E-01
         21   -1    0    0  501  502  0.00000000000E+00  0.00000000000E+00  0.89291945586E+03  0.89291945586E+03  0.00000000000E+00 0. -1.
         21   -1    0    0  502  503 -0.00000000000E+00 -0.00000000000E+00 -0.13008478098E+04  0.13008478098E+04  0.00000000000E+00 0. -1.
    9000010    2    1    2  501    0  0.14172370057E+03  0.11831862008E+03  0.17512888282E+03  0.10308585925E+04  0.99895666025E+03 0.  0.
   -9000010    2    1    2    0  503 -0.14172370057E+03 -0.11831862008E+03 -0.58305723677E+03  0.11629086731E+04  0.98909854793E+03 0.  0.
        -13    1    3    3    0    0 -0.33448611157E+03  0.17333753842E+03  0.35616080712E+03  0.51843745307E+03  0.10566000000E+00 0.  1.
          4    1    3    3  501    0  0.47620981214E+03 -0.55018918342E+02 -0.18103192430E+03  0.51242113947E+03  0.00000000000E+00 0.  1.
         13    1    4    4    0    0 -0.22430751713E+03 -0.51692270138E+03 -0.18376708220E+03  0.59270000262E+03  0.10566000000E+00 0. -1.
         -4    1    4    4    0  503  0.82583816554E+02  0.39860408130E+03 -0.39929015457E+03  0.57020867051E+03  0.00000000000E+00 0. -1.
<mgrwt>
<rscale>  2 0.10134419E+04</rscale>
<asrwt>0</asrwt>
<pdfrwt beam="1">  1       21 0.13737222E+00 0.10158737E+04</pdfrwt>
<pdfrwt beam="2">  1       21 0.20013043E+00 0.10158737E+04</pdfrwt>
<totfact> 0.23651056E+01</totfact>
</mgrwt>
</event>
<event>
 8    1  0.7418332E-006  0.1082836E+04  0.7818608E-02  0.8710820E-01
         21   -1    0    0  503  502  0.00000000000E+00  0.00000000000E+00  0.96703066801E+03  0.96703066801E+03  0.00000000000E+00 0.  1.
         21   -1    0    0  501  503 -0.00000000000E+00 -0.00000000000E+00 -0.13154405218E+04  0.13154405218E+04  0.00000000000E+00 0.  1.
    9000010    2    1    2  501    0 -0.96400388116E+02  0.32499625303E+03 -0.57007701171E+03  0.12237326730E+04  0.10284056867E+04 0.  0.
   -9000010    2    1    2    0  502  0.96400388116E+02 -0.32499625303E+03  0.22166715789E+03  0.10587385169E+04  0.97820004032E+03 0.  0.
        -13    1    3    3    0    0  0.46577299280E+03  0.14002937852E+03 -0.20103332125E+03  0.52627665262E+03  0.10566000000E+00 0.  1.
          4    1    3    3  501    0 -0.56217338092E+03  0.18496687450E+03 -0.36904369046E+03  0.69745602037E+03  0.00000000000E+00 0.  1.
         13    1    4    4    0    0  0.38428462996E+03  0.91500954354E+02 -0.15845086084E+03  0.42562164881E+03  0.10566000000E+00 0. -1.
         -4    1    4    4    0  502 -0.28788424184E+03 -0.41649720738E+03  0.38011801872E+03  0.63311686805E+03  0.00000000000E+00 0. -1.
<mgrwt>
<rscale>  2 0.10707443E+04</rscale>
<asrwt>0</asrwt>
<pdfrwt beam="1">  1       21 0.14877395E+00 0.10828360E+04</pdfrwt>
<pdfrwt beam="2">  1       21 0.20237546E+00 0.10828360E+04</pdfrwt>
<totfact> 0.17599639E+01</totfact>
</mgrwt>
</event>
<event>
 8    1  0.7418332E-006  0.1122757E+04  0.7818608E-02  0.8721460E-01
         21   -1    0    0  503  502  0.00000000000E+00  0.00000000000E+00  0.13990677224E+04  0.13990677224E+04  0.00000000000E+00 0. -1.
         21   -1    0    0  501  503 -0.00000000000E+00 -0.00000000000E+00 -0.98981884044E+03  0.98981884044E+03  0.00000000000E+00 0. -1.
    9000010    2    1    2  501    0  0.39893821232E+03  0.28741909169E+03 -0.43129281946E+03  0.98635521677E+03  0.73832356458E+03 0.  0.
   -9000010    2    1    2    0  502 -0.39893821232E+03 -0.28741909169E+03  0.84054170140E+03  0.14025313461E+04  0.10093673233E+04 0.  0.
        -13    1    3    3    0    0  0.58462038767E+03  0.14265634457E+03 -0.15125282821E+03  0.62049114379E+03  0.10566000000E+00 0.  1.
          4    1    3    3  501    0 -0.18568217534E+03  0.14476274711E+03 -0.28003999125E+03  0.36586407297E+03  0.00000000000E+00 0.  1.
         13    1    4    4    0    0  0.18416201567E+03 -0.47286937288E+03  0.43569329363E+03  0.66884209579E+03  0.10566000000E+00 0. -1.
         -4    1    4    4    0  502 -0.58310022799E+03  0.18545028119E+03  0.40484840777E+03  0.73368925026E+03  0.00000000000E+00 0. -1.
<mgrwt>
<rscale>  2 0.10585300E+04</rscale>
<asrwt>0</asrwt>
<pdfrwt beam="1">  1       21 0.21524119E+00 0.11227572E+04</pdfrwt>
<pdfrwt beam="2">  1       21 0.15227982E+00 0.11227572E+04</pdfrwt>
<totfact> 0.12929961E+01</totfact>
</mgrwt>
</event>
<event>
 8    1  0.7418332E-006  0.1011068E+04  0.7818608E-02  0.8764326E-01
         21   -1    0    0  503  502  0.00000000000E+00  0.00000000000E+00  0.63735835840E+03  0.63735835840E+03  0.00000000000E+00 0.  1.
         21   -1    0    0  501  503 -0.00000000000E+00 -0.00000000000E+00 -0.18285528767E+04  0.18285528767E+04  0.00000000000E+00 0.  1.
    9000010    2    1    2  501    0  0.27810978654E+02  0.29212778423E+02 -0.16293526241E+03  0.10238376537E+04  0.10099845566E+04 0.  0.
   -9000010    2    1    2    0  502 -0.27810978654E+02 -0.29212778423E+02 -0.10282592559E+04  0.14420735814E+04  0.10102634705E+04 0.  0.
        -13    1    3    3    0    0  0.25159465510E+03 -0.31753924627E+03 -0.38180953439E+03  0.55669522641E+03  0.10566000000E+00 0.  1.
          4    1    3    3  501    0 -0.22378367644E+03  0.34675202469E+03  0.21887427198E+03  0.46714242732E+03  0.00000000000E+00 0.  1.
         13    1    4    4    0    0  0.14219211306E+03 -0.47295807050E+03 -0.72886123059E+03  0.88042412398E+03  0.10566000000E+00 0. -1.
         -4    1    4    4    0  502 -0.17000309172E+03  0.44374529208E+03 -0.29939802531E+03  0.56164945740E+03  0.00000000000E+00 0. -1.
<mgrwt>
<rscale>  2 0.10109986E+04</rscale>
<asrwt>0</asrwt>
<pdfrwt beam="1">  1       21 0.98055133E-01 0.10110683E+04</pdfrwt>
<pdfrwt beam="2">  1       21 0.28131582E+00 0.10110683E+04</pdfrwt>
<totfact> 0.15155860E+01</totfact>
</mgrwt>
</event>
<event>
 8    1  0.7418332E-006  0.1170430E+04  0.7818608E-02  0.8632017E-01
         21   -1    0    0  503  502  0.00000000000E+00  0.00000000000E+00  0.18879884628E+04  0.18879884628E+04  0.00000000000E+00 0.  1.
         21   -1    0    0  501  503 -0.00000000000E+00 -0.00000000000E+00 -0.82686722823E+03  0.82686722823E+03  0.00000000000E+00 0.  1.
    9000010    2    1    2  501    0  0.17170414524E+03 -0.55680021057E+03  0.31931369098E+02  0.11562865311E+04  0.99823351058E+03 0.  0.
   -9000010    2    1    2    0  502 -0.17170414524E+03  0.55680021057E+03  0.10291898654E+04  0.15585691599E+04  0.10150848532E+04 0.  0.
        -13    1    3    3    0    0 -0.32880236254E+03 -0.56639794750E+03  0.31766160385E+02  0.65568798117E+03  0.10566000000E+00 0.  1.
          4    1    3    3  501    0  0.50050650778E+03  0.95977369278E+01  0.16520871327E+00  0.50059854991E+03  0.00000000000E+00 0.  1.
         13    1    4    4    0    0 -0.26812074738E+03 -0.22917703424E+03  0.47673269169E+03  0.59303028480E+03  0.10566000000E+00 0. -1.
         -4    1    4    4    0  502  0.96416602143E+02  0.78597724481E+03  0.55245717375E+03  0.96553887511E+03  0.00000000000E+00 0. -1.
<mgrwt>
<rscale>  2 0.11667666E+04</rscale>
<asrwt>0</asrwt>
<pdfrwt beam="1">  1       21 0.29045976E+00 0.11704299E+04</pdfrwt>
<pdfrwt beam="2">  1       21 0.12721034E+00 0.11704299E+04</pdfrwt>
<totfact> 0.61901808E+00</totfact>
</mgrwt>
</event>
<event>
 8    1  0.7418332E-006  0.1024332E+04  0.7818608E-02  0.8752089E-01
         21   -1    0    0  503  502  0.00000000000E+00  0.00000000000E+00  0.55936169895E+03  0.55936169895E+03  0.00000000000E+00 0.  1.
         21   -1    0    0  501  503 -0.00000000000E+00 -0.00000000000E+00 -0.18943747062E+04  0.18943747062E+04  0.00000000000E+00 0.  1.
    9000010    2    1    2  501    0  0.11275646879E+03  0.73461847346E+02 -0.78967848978E+03  0.12932858943E+04  0.10153253778E+04 0.  0.
   -9000010    2    1    2    0  502 -0.11275646879E+03 -0.73461847346E+02 -0.54533451751E+03  0.11604505109E+04  0.10154530950E+04 0.  0.
        -13    1    3    3    0    0 -0.44538582896E+03  0.29796198450E+02 -0.47174220264E+03  0.64945905721E+03  0.10566000000E+00 0.  1.
          4    1    3    3  501    0  0.55814229775E+03  0.43665648897E+02 -0.31793628714E+03  0.64382683705E+03  0.00000000000E+00 0.  1.
         13    1    4    4    0    0 -0.43111686657E+03 -0.16892438149E+03 -0.66229741173E+03  0.80810585448E+03  0.10566000000E+00 0. -1.
         -4    1    4    4    0  502  0.31836039778E+03  0.95462534141E+02  0.11696289422E+03  0.35234465644E+03  0.00000000000E+00 0. -1.
<mgrwt>
<rscale>  2 0.10243002E+04</rscale>
<asrwt>0</asrwt>
<pdfrwt beam="1">  1       21 0.86055644E-01 0.10243318E+04</pdfrwt>
<pdfrwt beam="2">  1       21 0.29144227E+00 0.10243318E+04</pdfrwt>
<totfact> 0.17888204E+01</totfact>
</mgrwt>
</event>
<event>
 8    1  0.7418332E-006  0.1034918E+04  0.7818608E-02  0.8744139E-01
         21   -1    0    0  503  502  0.00000000000E+00  0.00000000000E+00  0.23208629699E+04  0.23208629699E+04  0.00000000000E+00 0. -1.
         21   -1    0    0  501  503 -0.00000000000E+00 -0.00000000000E+00 -0.46548439011E+03  0.46548439011E+03  0.00000000000E+00 0.  1.
    9000010    2    1    2  501    0  0.23713904037E+03  0.14058612616E+03  0.11054690809E+04  0.15143041357E+04  0.99752480829E+03 0.  0.
   -9000010    2    1    2    0  502 -0.23713904037E+03 -0.14058612616E+03  0.74990949891E+03  0.12720432244E+04  0.98981327772E+03 0.  0.
        -13    1    3    3    0    0  0.58645503666E+03  0.26564593570E+03  0.55243850986E+03  0.84834285022E+03  0.10566000000E+00 0.  1.
          4    1    3    3  501    0 -0.34931599629E+03 -0.12505980954E+03  0.55303057105E+03  0.66596128547E+03  0.00000000000E+00 0.  1.
         13    1    4    4    0    0 -0.25665342252E+03 -0.49693352986E+03  0.15854310410E+03  0.58133453313E+03  0.10566000000E+00 0. -1.
         -4    1    4    4    0  502  0.19514382144E+02  0.35634740370E+03  0.59136639481E+03  0.69070869123E+03  0.00000000000E+00 0. -1.
<mgrwt>
<rscale>  2 0.10330552E+04</rscale>
<asrwt>0</asrwt>
<pdfrwt beam="1">  1       21 0.35705583E+00 0.10349179E+04</pdfrwt>
<pdfrwt beam="2">  1       21 0.71612985E-01 0.10349179E+04</pdfrwt>
<totfact> 0.96467500E+00</totfact>
</mgrwt>
</event>
<event>
 8    1  0.7418332E-006  0.1108867E+04  0.7818608E-02  0.8683302E-01
         21   -1    0    0  501  502  0.00000000000E+00  0.00000000000E+00  0.82320893435E+03  0.82320893435E+03  0.00000000000E+00 0.  1.
         21   -1    0    0  502  503 -0.00000000000E+00 -0.00000000000E+00 -0.14871385764E+04  0.14871385764E+04  0.00000000000E+00 0.  1.
    9000010    2    1    2  501    0  0.35276246161E+03 -0.19328331449E+03 -0.48192344638E+03  0.12090645906E+04  0.10333378838E+04 0.  0.
   -9000010    2    1    2    0  503 -0.35276246161E+03  0.19328331449E+03 -0.18200619572E+03  0.11012829202E+04  0.10089093225E+04 0.  0.
        -13    1    3    3    0    0 -0.68993679524E+02  0.27418518019E+03  0.14741514250E+03  0.31885557272E+03  0.10566000000E+00 0.  1.
          4    1    3    3  501    0  0.42175614113E+03 -0.46746849468E+03 -0.62933858888E+03  0.89020901790E+03  0.00000000000E+00 0.  1.
         13    1    4    4    0    0  0.10146929807E+03  0.29796905175E+03 -0.46086321336E+03  0.55810078556E+03  0.10566000000E+00 0. -1.
         -4    1    4    4    0  503 -0.45423175968E+03 -0.10468573727E+03  0.27885701764E+03  0.54318213462E+03  0.00000000000E+00 0. -1.
<mgrwt>
<rscale>  2 0.11031411E+04</rscale>
<asrwt>0</asrwt>
<pdfrwt beam="1">  1       21 0.12664753E+00 0.11088674E+04</pdfrwt>
<pdfrwt beam="2">  1       21 0.22879055E+00 0.11088674E+04</pdfrwt>
<totfact> 0.17758018E+01</totfact>
</mgrwt>
</event>
<event>
 8    1  0.7418332E-006  0.9997153E+03  0.7818608E-02  0.8775865E-01
         21   -1    0    0  503  502  0.00000000000E+00  0.00000000000E+00  0.15092206407E+04  0.15092206407E+04  0.00000000000E+00 0.  1.
         21   -1    0    0  501  503 -0.00000000000E+00 -0.00000000000E+00 -0.71368811544E+03  0.71368811544E+03  0.00000000000E+00 0.  1.
    9000010    2    1    2  501    0  0.10008363693E+03 -0.10222319612E+03  0.91981034558E+02  0.10039378322E+04  0.98942627015E+03 0.  0.
   -9000010    2    1    2    0  502 -0.10008363693E+03  0.10222319612E+03  0.70355149070E+03  0.12189709239E+04  0.98510867272E+03 0.  0.
        -13    1    3    3    0    0  0.23009813220E+03 -0.51277464368E+03 -0.69346687876E+01  0.56207747370E+03  0.10566000000E+00 0.  1.
          4    1    3    3  501    0 -0.13001449527E+03  0.41055144756E+03  0.98915703346E+02  0.44186035854E+03  0.00000000000E+00 0.  1.
         13    1    4    4    0    0  0.15709694948E+03 -0.37411120424E+03  0.49210095959E+03  0.63781032468E+03  0.10566000000E+00 0. -1.
         -4    1    4    4    0  502 -0.25718058641E+03  0.47633440036E+03  0.21145053111E+03  0.58116059923E+03  0.00000000000E+00 0. -1.
<mgrwt>
<rscale>  2 0.99864533E+03</rscale>
<asrwt>0</asrwt>
<pdfrwt beam="1">  1       21 0.23218779E+00 0.99971529E+03</pdfrwt>
<pdfrwt beam="2">  1       21 0.10979817E+00 0.99971529E+03</pdfrwt>
<totfact> 0.25537087E+01</totfact>
</mgrwt>
</event>
<event>
 8    1  0.7418332E-006  0.1008581E+04  0.7818608E-02  0.8775228E-01
         21   -1    0    0  503  502  0.00000000000E+00  0.00000000000E+00  0.14147318536E+04  0.14147318536E+04  0.00000000000E+00 0. -1.
         21   -1    0    0  501  503 -0.00000000000E+00 -0.00000000000E+00 -0.70398510827E+03  0.70398510827E+03  0.00000000000E+00 0. -1.
    9000010    2    1    2  501    0 -0.35461706306E+02  0.81545664540E+02  0.21797299095E+03  0.99619208156E+03  0.96797686468E+03 0.  0.
   -9000010    2    1    2    0  502  0.35461706306E+02 -0.81545664540E+02  0.49277375437E+03  0.11225248803E+04  0.10046536248E+04 0.  0.
        -13    1    3    3    0    0 -0.50199343531E+03  0.40063167578E+02  0.11973657624E+03  0.51762855924E+03  0.10566000000E+00 0.  1.
          4    1    3    3  501    0  0.46653172900E+03  0.41482496962E+02  0.98236414706E+02  0.47856352232E+03  0.00000000000E+00 0.  1.
         13    1    4    4    0    0  0.37262509081E+03 -0.15838371235E+02  0.64636128343E+03  0.74624609358E+03  0.10566000000E+00 0. -1.
         -4    1    4    4    0  502 -0.33716338451E+03 -0.65707293305E+02 -0.15358752906E+03  0.37627878671E+03  0.00000000000E+00 0. -1.
<mgrwt>
<rscale>  2 0.99932239E+03</rscale>
<asrwt>0</asrwt>
<pdfrwt beam="1">  1       21 0.21765105E+00 0.10085812E+04</pdfrwt>
<pdfrwt beam="2">  1       21 0.10830540E+00 0.10085812E+04</pdfrwt>
<totfact> 0.33967583E+01</totfact>
</mgrwt>
</event>
<event>
 8    1  0.7418332E-006  0.1073031E+04  0.7818608E-02  0.8711063E-01
         21   -1    0    0  501  502  0.00000000000E+00  0.00000000000E+00  0.14812958550E+04  0.14812958550E+04  0.00000000000E+00 0.  1.
         21   -1    0    0  502  503 -0.00000000000E+00 -0.00000000000E+00 -0.79684034666E+03  0.79684034666E+03  0.00000000000E+00 0.  1.
    9000010    2    1    2  501    0 -0.37019960449E+03  0.36182599838E+02  0.13434525620E+03  0.10814081549E+04  0.10064978996E+04 0.  0.
   -9000010    2    1    2    0  503  0.37019960449E+03 -0.36182599838E+02  0.55011025211E+03  0.11967280467E+04  0.99558013269E+03 0.  0.
        -13    1    3    3    0    0 -0.49198124551E+03 -0.24861849380E+03  0.39372411874E+03  0.67740342059E+03  0.10566000000E+00 0.  1.
          4    1    3    3  501    0  0.12178164102E+03  0.28480109364E+03 -0.25937886254E+03  0.40400473433E+03  0.00000000000E+00 0.  1.
         13    1    4    4    0    0 -0.10822550018E+03 -0.46626539786E+02  0.68855387233E+03  0.69856512894E+03  0.10566000000E+00 0. -1.
         -4    1    4    4    0  503  0.47842510466E+03  0.10443939948E+02 -0.13844362023E+03  0.49816291776E+03  0.00000000000E+00 0. -1.
<mgrwt>
<rscale>  2 0.10704630E+04</rscale>
<asrwt>0</asrwt>
<pdfrwt beam="1">  1       21 0.22789167E+00 0.10730307E+04</pdfrwt>
<pdfrwt beam="2">  1       21 0.12259082E+00 0.10730307E+04</pdfrwt>
<totfact> 0.19938787E+01</totfact>
</mgrwt>
</event>
<event>
 8    1  0.7418332E-006  0.1093144E+04  0.7818608E-02  0.8699720E-01
         21   -1    0    0  503  502  0.00000000000E+00  0.00000000000E+00  0.12502355533E+04  0.12502355533E+04  0.00000000000E+00 0. -1.
         21   -1    0    0  501  503 -0.00000000000E+00 -0.00000000000E+00 -0.10227019029E+04  0.10227019029E+04  0.00000000000E+00 0. -1.
    9000010    2    1    2  501    0  0.37860504701E+03 -0.23089371048E+02 -0.23858366510E+03  0.11188769518E+04  0.10252261054E+04 0.  0.
   -9000010    2    1    2    0  502 -0.37860504701E+03  0.23089371048E+02  0.46611731550E+03  0.11540605045E+04  0.98524890027E+03 0.  0.
        -13    1    3    3    0    0  0.23670053435E+02 -0.49683196042E+03 -0.62618646970E+02  0.50132162774E+03  0.10566000000E+00 0.  1.
          4    1    3    3  501    0  0.35493499358E+03  0.47374258937E+03 -0.17596501813E+03  0.61755532404E+03  0.00000000000E+00 0.  1.
         13    1    4    4    0    0 -0.10159845799E+03  0.35221256622E+03  0.60035582502E+03  0.70342239534E+03  0.10566000000E+00 0. -1.
         -4    1    4    4    0  502 -0.27700658903E+03 -0.32912319517E+03 -0.13423850952E+03  0.45063810913E+03  0.00000000000E+00 0. -1.
<mgrwt>
<rscale>  2 0.10836709E+04</rscale>
<asrwt>0</asrwt>
<pdfrwt beam="1">  1       21 0.19234393E+00 0.10931438E+04</pdfrwt>
<pdfrwt beam="2">  1       21 0.15733875E+00 0.10931438E+04</pdfrwt>
<totfact> 0.17687722E+01</totfact>
</mgrwt>
</event>
<event>
 8    1  0.7418332E-006  0.1054396E+04  0.7818608E-02  0.8727430E-01
         21   -1    0    0  501  502  0.00000000000E+00  0.00000000000E+00  0.89425346056E+03  0.89425346056E+03  0.00000000000E+00 0. -1.
         21   -1    0    0  502  503 -0.00000000000E+00 -0.00000000000E+00 -0.13667836269E+04  0.13667836269E+04  0.00000000000E+00 0. -1.
    9000010    2    1    2  501    0 -0.32143244185E+03  0.14765727693E+03  0.11923038218E+03  0.10611159795E+04  0.99329237979E+03 0.  0.
   -9000010    2    1    2    0  503  0.32143244185E+03 -0.14765727693E+03 -0.59176054852E+03  0.11999211080E+04  0.98209400390E+03 0.  0.
        -13    1    3    3    0    0 -0.53490760246E+03  0.35296057551E+03 -0.15295528124E+03  0.65886466005E+03  0.10566000000E+00 0.  1.
          4    1    3    3  501    0  0.21347516061E+03 -0.20530329858E+03  0.27218566342E+03  0.40225131942E+03  0.00000000000E+00 0.  1.
         13    1    4    4    0    0 -0.14798758238E+03  0.27153865773E+03  0.35603496807E+02  0.31128955545E+03  0.10566000000E+00 0. -1.
         -4    1    4    4    0  503  0.46942002423E+03 -0.41919593466E+03 -0.62736404533E+03  0.88863155254E+03  0.00000000000E+00 0. -1.
<mgrwt>
<rscale>  2 0.10517505E+04</rscale>
<asrwt>0</asrwt>
<pdfrwt beam="1">  1       21 0.13757746E+00 0.10543961E+04</pdfrwt>
<pdfrwt beam="2">  1       21 0.21027440E+00 0.10543961E+04</pdfrwt>
<totfact> 0.19486945E+01</totfact>
</mgrwt>
</event>
<event>
 8    1  0.7418332E-006  0.1045286E+04  0.7818608E-02  0.8740341E-01
         21   -1    0    0  501  502  0.00000000000E+00  0.00000000000E+00  0.14721575840E+04  0.14721575840E+04  0.00000000000E+00 0.  1.
         21   -1    0    0  502  503 -0.00000000000E+00 -0.00000000000E+00 -0.83001676965E+03  0.83001676965E+03  0.00000000000E+00 0.  1.
    9000010    2    1    2  501    0 -0.36315849910E+02  0.18919575280E+03  0.73609455246E+03  0.12526744073E+04  0.99511009780E+03 0.  0.
   -9000010    2    1    2    0  503  0.36315849910E+02 -0.18919575280E+03 -0.93953738118E+02  0.10494999463E+04  0.10273796565E+04 0.  0.
        -13    1    3    3    0    0 -0.77982821713E+01  0.51493910424E+03  0.82115419029E+02  0.52150364091E+03  0.10566000000E+00 0.  1.
          4    1    3    3  501    0 -0.28517567739E+02 -0.32574335144E+03  0.65397913343E+03  0.73117076640E+03  0.00000000000E+00 0.  1.
         13    1    4    4    0    0  0.49585500955E+03 -0.15596387296E+03 -0.23098414749E+03  0.56881509097E+03  0.10566000000E+00 0. -1.
         -4    1    4    4    0  503 -0.45953915964E+03 -0.33231879834E+02  0.13703040937E+03  0.48068485536E+03  0.00000000000E+00 0. -1.
<mgrwt>
<rscale>  2 0.10372694E+04</rscale>
<asrwt>0</asrwt>
<pdfrwt beam="1">  1       21 0.22648578E+00 0.10452860E+04</pdfrwt>
<pdfrwt beam="2">  1       21 0.12769489E+00 0.10452860E+04</pdfrwt>
<totfact> 0.18298771E+01</totfact>
</mgrwt>
</event>
<event>
 8    1  0.7418332E-006  0.1000819E+04  0.7818608E-02  0.8775310E-01
         21   -1    0    0  503  502  0.00000000000E+00  0.00000000000E+00  0.12531728159E+04  0.12531728159E+04  0.00000000000E+00 0.  1.
         21   -1    0    0  501  503 -0.00000000000E+00 -0.00000000000E+00 -0.83531063758E+03  0.83531063758E+03  0.00000000000E+00 0.  1.
    9000010    2    1    2  501    0  0.41787702002E+02 -0.79510717956E+02  0.44109153640E+03  0.10937091189E+04  0.99677967820E+03 0.  0.
   -9000010    2    1    2    0  502 -0.41787702002E+02  0.79510717956E+02 -0.23229358091E+02  0.99477433462E+03  0.99043839154E+03 0.  0.
        -13    1    3    3    0    0  0.24661291375E+03 -0.38098649934E+03  0.55022873324E+03  0.71324631927E+03  0.10566000000E+00 0.  1.
          4    1    3    3  501    0 -0.20482521174E+03  0.30147578139E+03 -0.10913719684E+03  0.38046279958E+03  0.00000000000E+00 0.  1.
         13    1    4    4    0    0 -0.11742038476E+03  0.52737687394E+03 -0.14198847821E+02  0.54047713399E+03  0.10566000000E+00 0. -1.
         -4    1    4    4    0  502  0.75632682756E+02 -0.44786615599E+03 -0.90305102700E+01  0.45429720062E+03  0.00000000000E+00 0. -1.
<mgrwt>
<rscale>  2 0.99923598E+03</rscale>
<asrwt>0</asrwt>
<pdfrwt beam="1">  1       21 0.19279582E+00 0.10008186E+04</pdfrwt>
<pdfrwt beam="2">  1       21 0.12850933E+00 0.10008186E+04</pdfrwt>
<totfact> 0.32915790E+01</totfact>
</mgrwt>
</event>
<event>
 8    1  0.7418332E-006  0.1175373E+04  0.7818608E-02  0.8626323E-01
         21   -1    0    0  501  502  0.00000000000E+00  0.00000000000E+00  0.26096156862E+04  0.26096156862E+04  0.00000000000E+00 0. -1.
         21   -1    0    0  502  503 -0.00000000000E+00 -0.00000000000E+00 -0.61129250265E+03  0.61129250265E+03  0.00000000000E+00 0. -1.
    9000010    2    1    2  501    0 -0.52260664826E+03 -0.26558919469E+03  0.15986661666E+04  0.19842466774E+04  0.10187472874E+04 0.  0.
   -9000010    2    1    2    0  503  0.52260664826E+03  0.26558919469E+03  0.39965701698E+03  0.12366615114E+04  0.10128922122E+04 0.  0.
        -13    1    3    3    0    0 -0.20557000376E+03 -0.53904668844E+03  0.36794926860E+03  0.68426386299E+03  0.10566000000E+00 0.  1.
          4    1    3    3  501    0 -0.31703664450E+03  0.27345749375E+03  0.12307168980E+04  0.12999828144E+04  0.00000000000E+00 0.  1.
         13    1    4    4    0    0  0.48542890986E+03 -0.26327247287E+02 -0.23286446676E+03  0.53903638237E+03  0.10566000000E+00 0. -1.
         -4    1    4    4    0  503  0.37177738403E+02  0.29191644198E+03  0.63252148373E+03  0.69762512907E+03  0.00000000000E+00 0. -1.
<mgrwt>
<rscale>  2 0.11741030E+04</rscale>
<asrwt>0</asrwt>
<pdfrwt beam="1">  1       21 0.40147933E+00 0.11753729E+04</pdfrwt>
<pdfrwt beam="2">  1       21 0.94045001E-01 0.11753729E+04</pdfrwt>
<totfact> 0.23287197E+00</totfact>
</mgrwt>
</event>
<event>
 8    1  0.7418332E-006  0.1049784E+04  0.7818608E-02  0.8735578E-01
         21   -1    0    0  503  502  0.00000000000E+00  0.00000000000E+00  0.16576467626E+04  0.16576467626E+04  0.00000000000E+00 0.  1.
         21   -1    0    0  501  503 -0.00000000000E+00 -0.00000000000E+00 -0.91595801075E+03  0.91595801075E+03  0.00000000000E+00 0.  1.
    9000010    2    1    2  501    0  0.13884066554E+03  0.15411349553E+03 -0.32293618453E+03  0.10983323590E+04  0.10290862411E+04 0.  0.
   -9000010    2    1    2    0  502 -0.13884066554E+03 -0.15411349553E+03  0.10646249364E+04  0.14752724144E+04  0.99998737065E+03 0.  0.
        -13    1    3    3    0    0 -0.10006162312E+03  0.52508611522E+03  0.26932694134E+02  0.53521317061E+03  0.10566000000E+00 0.  1.
          4    1    3    3  501    0  0.23890228866E+03 -0.37097261969E+03 -0.34986887866E+03  0.56311918840E+03  0.00000000000E+00 0.  1.
         13    1    4    4    0    0 -0.39907055176E+03 -0.40106699272E+03  0.32314713590E+03  0.65156436408E+03  0.10566000000E+00 0. -1.
         -4    1    4    4    0  502  0.26022988622E+03  0.24695349719E+03  0.74147780052E+03  0.82370805029E+03  0.00000000000E+00 0. -1.
<mgrwt>
<rscale>  2 0.10425829E+04</rscale>
<asrwt>0</asrwt>
<pdfrwt beam="1">  1       21 0.25502258E+00 0.10497839E+04</pdfrwt>
<pdfrwt beam="2">  1       21 0.14091662E+00 0.10497839E+04</pdfrwt>
<totfact> 0.84543351E+00</totfact>
</mgrwt>
</event>
<event>
 8    1  0.7418332E-006  0.1018336E+04  0.7818608E-02  0.8771145E-01
         21   -1    0    0  503  502  0.00000000000E+00  0.00000000000E+00  0.12576170279E+04  0.12576170279E+04  0.00000000000E+00 0.  1.
         21   -1    0    0  501  503 -0.00000000000E+00 -0.00000000000E+00 -0.10210788257E+04  0.10210788257E+04  0.00000000000E+00 0.  1.
    9000010    2    1    2  501    0  0.13120016966E+03  0.58969649438E+02 -0.43396167117E+03  0.11069463628E+04  0.10081252968E+04 0.  0.
   -9000010    2    1    2    0  502 -0.13120016966E+03 -0.58969649438E+02  0.67049987341E+03  0.11717494908E+04  0.95012414184E+03 0.  0.
        -13    1    3    3    0    0  0.20943670284E+03 -0.19660910908E+03  0.24482157947E+03  0.37743408856E+03  0.10566000000E+00 0.  1.
          4    1    3    3  501    0 -0.78236533177E+02  0.25557875851E+03 -0.67878325065E+03  0.72951227425E+03  0.00000000000E+00 0.  1.
         13    1    4    4    0    0 -0.68150083040E+02  0.92418167785E+02 -0.22966338249E+03  0.25676999820E+03  0.10566000000E+00 0. -1.
         -4    1    4    4    0  502 -0.63050086622E+02 -0.15138781722E+03  0.90016325590E+03  0.91497949261E+03  0.00000000000E+00 0. -1.
<mgrwt>
<rscale>  2 0.10036760E+04</rscale>
<asrwt>0</asrwt>
<pdfrwt beam="1">  1       21 0.19347954E+00 0.10183357E+04</pdfrwt>
<pdfrwt beam="2">  1       21 0.15708905E+00 0.10183357E+04</pdfrwt>
<totfact> 0.17711477E+01</totfact>
</mgrwt>
</event>
<event>
 8    1  0.7418332E-006  0.1032478E+04  0.7818608E-02  0.8748364E-01
         21   -1    0    0  503  502  0.00000000000E+00  0.00000000000E+00  0.74761556832E+03  0.74761556832E+03  0.00000000000E+00 0. -1.
         21   -1    0    0  501  503 -0.00000000000E+00 -0.00000000000E+00 -0.16399034076E+04  0.16399034076E+04  0.00000000000E+00 0. -1.
    9000010    2    1    2  501    0  0.18857754164E+03  0.15291014038E+03 -0.89632510419E+03  0.13550334340E+04  0.98679983515E+03 0.  0.
   -9000010    2    1    2    0  502 -0.18857754164E+03 -0.15291014038E+03  0.40372649542E+01  0.10324855419E+04  0.10035273262E+04 0.  0.
        -13    1    3    3    0    0  0.19501948159E+03 -0.25818473405E+03  0.46099469614E+02  0.32682889615E+03  0.10566000000E+00 0.  1.
          4    1    3    3  501    0 -0.64419399460E+01  0.41109487443E+03 -0.94242457381E+03  0.10282045379E+04  0.00000000000E+00 0.  1.
         13    1    4    4    0    0  0.63916094150E+01 -0.14119610953E+03  0.48934436384E+03  0.50934773151E+03  0.10566000000E+00 0. -1.
         -4    1    4    4    0  502 -0.19496915106E+03 -0.11714030850E+02 -0.48530709888E+03  0.52313781034E+03  0.00000000000E+00 0. -1.
<mgrwt>
<rscale>  2 0.10283907E+04</rscale>
<asrwt>0</asrwt>
<pdfrwt beam="1">  1       21 0.11501778E+00 0.10324776E+04</pdfrwt>
<pdfrwt beam="2">  1       21 0.25229283E+00 0.10324776E+04</pdfrwt>
<totfact> 0.15901413E+01</totfact>
</mgrwt>
</event>
<event>
 8    1  0.7418332E-006  0.1097734E+04  0.7818608E-02  0.8693344E-01
         21   -1    0    0  503  502  0.00000000000E+00  0.00000000000E+00  0.54417448247E+03  0.54417448247E+03  0.00000000000E+00 0. -1.
         21   -1    0    0  501  503 -0.00000000000E+00 -0.00000000000E+00 -0.23469674864E+04  0.23469674864E+04  0.00000000000E+00 0. -1.
    9000010    2    1    2  501    0  0.10377732815E+03 -0.38681096389E+03 -0.13167937399E+04  0.17143410282E+04  0.10220699350E+04 0.  0.
   -9000010    2    1    2    0  502 -0.10377732815E+03  0.38681096389E+03 -0.48599926399E+03  0.11768009406E+04  0.99411906407E+03 0.  0.
        -13    1    3    3    0    0 -0.14720679339E+03 -0.68073826216E+03 -0.97618083355E+03  0.11991678167E+04  0.10566000000E+00 0.  1.
          4    1    3    3  501    0  0.25098412155E+03  0.29392729828E+03 -0.34061290635E+03  0.51517321156E+03  0.00000000000E+00 0.  1.
         13    1    4    4    0    0 -0.24652216019E+02  0.14621481251E+03  0.30883654647E+03  0.34258798396E+03  0.10566000000E+00 0. -1.
         -4    1    4    4    0  502 -0.79125112134E+02  0.24059615138E+03 -0.79483581046E+03  0.83421295663E+03  0.00000000000E+00 0. -1.
<mgrwt>
<rscale>  2 0.10911814E+04</rscale>
<asrwt>0</asrwt>
<pdfrwt beam="1">  1       21 0.83719151E-01 0.10977338E+04</pdfrwt>
<pdfrwt beam="2">  1       21 0.36107192E+00 0.10977338E+04</pdfrwt>
<totfact> 0.61062463E+00</totfact>
</mgrwt>
</event>
<event>
 8    1  0.7418332E-006  0.1099192E+04  0.7818608E-02  0.8688827E-01
         21   -1    0    0  501  502  0.00000000000E+00  0.00000000000E+00  0.75500895706E+03  0.75500895706E+03  0.00000000000E+00 0.  1.
         21   -1    0    0  502  503 -0.00000000000E+00 -0.00000000000E+00 -0.17590450631E+04  0.17590450631E+04  0.00000000000E+00 0.  1.
    9000010    2    1    2  501    0  0.39319619000E+03  0.20625368694E+03 -0.89967540811E+03  0.14204363367E+04  0.10055245991E+04 0.  0.
   -9000010    2    1    2    0  503 -0.39319619000E+03 -0.20625368694E+03 -0.10436069789E+03  0.10936176835E+04  0.99396411158E+03 0.  0.
        -13    1    3    3    0    0  0.49977419270E+03  0.36714522850E+03 -0.10194853999E+04  0.11932813391E+04  0.10566000000E+00 0.  1.
          4    1    3    3  501    0 -0.10657800269E+03 -0.16089154156E+03  0.11980999175E+03  0.22715499758E+03  0.00000000000E+00 0.  1.
         13    1    4    4    0    0 -0.46147827313E+03  0.31501679547E+03 -0.60410162109E+01  0.55877927936E+03  0.10566000000E+00 0. -1.
         -4    1    4    4    0  503  0.68282083129E+02 -0.52127048240E+03 -0.98319681674E+02  0.53483840410E+03  0.00000000000E+00 0. -1.
<mgrwt>
<rscale>  2 0.10965413E+04</rscale>
<asrwt>0</asrwt>
<pdfrwt beam="1">  1       21 0.11615522E+00 0.10991922E+04</pdfrwt>
<pdfrwt beam="2">  1       21 0.27062232E+00 0.10991922E+04</pdfrwt>
<totfact> 0.11245575E+01</totfact>
</mgrwt>
</event>
<event>
 8    1  0.7418332E-006  0.9944331E+03  0.7818608E-02  0.8784446E-01
         21   -1    0    0  503  502  0.00000000000E+00  0.00000000000E+00  0.63136364998E+03  0.63136364998E+03  0.00000000000E+00 0.  1.
         21   -1    0    0  501  503 -0.00000000000E+00 -0.00000000000E+00 -0.16778952059E+04  0.16778952059E+04  0.00000000000E+00 0.  1.
    9000010    2    1    2  501    0  0.13049291630E+03  0.21325133411E+01 -0.85425371201E+03  0.12964074872E+04  0.96637985263E+03 0.  0.
   -9000010    2    1    2    0  502 -0.13049291630E+03 -0.21325133411E+01 -0.19227784393E+03  0.10128513687E+04  0.98583171839E+03 0.  0.
        -13    1    3    3    0    0 -0.28773515082E+02 -0.17227591297E+03 -0.10024664522E+04  0.10175686239E+04  0.10566000000E+00 0.  1.
          4    1    3    3  501    0  0.15926643138E+03  0.17440842631E+03  0.14821274020E+03  0.27883886331E+03  0.00000000000E+00 0.  1.
         13    1    4    4    0    0 -0.49969468323E+03 -0.24012903809E+03 -0.12707908563E+03  0.56877573485E+03  0.10566000000E+00 0. -1.
         -4    1    4    4    0  502  0.36920176692E+03  0.23799652475E+03 -0.65198758301E+02  0.44407563385E+03  0.00000000000E+00 0. -1.
<mgrwt>
<rscale>  2 0.98957755E+03</rscale>
<asrwt>0</asrwt>
<pdfrwt beam="1">  1       21 0.97132871E-01 0.99443307E+03</pdfrwt>
<pdfrwt beam="2">  1       21 0.25813772E+00 0.99443307E+03</pdfrwt>
<totfact> 0.22850497E+01</totfact>
</mgrwt>
</event>
<event>
 8    1  0.7418332E-006  0.1077477E+04  0.7818608E-02  0.8705596E-01
         21   -1    0    0  501  502  0.00000000000E+00  0.00000000000E+00  0.13279784960E+04  0.13279784960E+04  0.00000000000E+00 0.  1.
         21   -1    0    0  502  503 -0.00000000000E+00 -0.00000000000E+00 -0.16140269495E+04  0.16140269495E+04  0.00000000000E+00 0.  1.
    9000010    2    1    2  501    0  0.27984897750E+03  0.30286367197E+03  0.85424213758E+03  0.13750221226E+04  0.99544681123E+03 0.  0.
   -9000010    2    1    2    0  503 -0.27984897750E+03 -0.30286367197E+03 -0.11402905911E+04  0.15669833229E+04  0.99253828539E+03 0.  0.
        -13    1    3    3    0    0  0.17196256016E+03 -0.31804262722E+03  0.58932763769E+03  0.69139663764E+03  0.10566000000E+00 0.  1.
          4    1    3    3  501    0  0.10788641734E+03  0.62090629919E+03  0.26491449988E+03  0.68362548494E+03  0.00000000000E+00 0.  1.
         13    1    4    4    0    0  0.31881920229E+03 -0.39814761104E+01 -0.69098248773E+03  0.76099825585E+03  0.10566000000E+00 0. -1.
         -4    1    4    4    0  503 -0.59866817979E+03 -0.29888219586E+03 -0.44930810338E+03  0.80598506702E+03  0.00000000000E+00 0. -1.
<mgrwt>
<rscale>  2 0.10768045E+04</rscale>
<asrwt>0</asrwt>
<pdfrwt beam="1">  1       21 0.20430438E+00 0.10774768E+04</pdfrwt>
<pdfrwt beam="2">  1       21 0.24831184E+00 0.10774768E+04</pdfrwt>
<totfact> 0.27665550E+00</totfact>
</mgrwt>
</event>
<event>
 8    1  0.7418332E-006  0.1056194E+04  0.7818608E-02  0.8724624E-01
         21   -1    0    0  501  502  0.00000000000E+00  0.00000000000E+00  0.24364796911E+04  0.24364796911E+04  0.00000000000E+00 0. -1.
         21   -1    0    0  502  503 -0.00000000000E+00 -0.00000000000E+00 -0.53906551548E+03  0.53906551548E+03  0.00000000000E+00 0. -1.
    9000010    2    1    2  501    0  0.24497659373E+03 -0.25141706429E+03  0.15358135348E+04  0.18639390555E+04  0.99615336032E+03 0.  0.
   -9000010    2    1    2    0  503 -0.24497659373E+03  0.25141706429E+03  0.36160064074E+03  0.11116061510E+04  0.99080227083E+03 0.  0.
        -13    1    3    3    0    0 -0.32351733122E+03 -0.35161139698E+03  0.65263852826E+03  0.80884553397E+03  0.10566000000E+00 0.  1.
          4    1    3    3  501    0  0.56849392495E+03  0.10019433269E+03  0.88317500657E+03  0.10550935216E+04  0.00000000000E+00 0.  1.
         13    1    4    4    0    0  0.23109066481E+03  0.46789636725E+03  0.24146827027E+03  0.57501029779E+03  0.10566000000E+00 0. -1.
         -4    1    4    4    0  503 -0.47606725854E+03 -0.21647930296E+03  0.12013237048E+03  0.53659585323E+03  0.00000000000E+00 0. -1.
<mgrwt>
<rscale>  2 0.10549303E+04</rscale>
<asrwt>0</asrwt>
<pdfrwt beam="1">  1       21 0.37484302E+00 0.10561939E+04</pdfrwt>
<pdfrwt beam="2">  1       21 0.82933158E-01 0.10561939E+04</pdfrwt>
<totfact> 0.50498726E+00</totfact>
</mgrwt>
</event>
<event>
 8    1  0.7418332E-006  0.1104161E+04  0.7818608E-02  0.8691553E-01
         21   -1    0    0  503  502  0.00000000000E+00  0.00000000000E+00  0.89984699256E+03  0.89984699256E+03  0.00000000000E+00 0.  1.
         21   -1    0    0  501  503 -0.00000000000E+00 -0.00000000000E+00 -0.16745096980E+04  0.16745096980E+04  0.00000000000E+00 0.  1.
    9000010    2    1    2  501    0  0.16224589715E+03  0.35184394775E+03 -0.99959407003E+03  0.14894159095E+04  0.10339504591E+04 0.  0.
   -9000010    2    1    2    0  502 -0.16224589715E+03 -0.35184394775E+03  0.22493136462E+03  0.10849407811E+04  0.98812169540E+03 0.  0.
        -13    1    3    3    0    0  0.28890336351E+03 -0.60217611607E+02 -0.10160237857E+04  0.10580149613E+04  0.10566000000E+00 0.  1.
          4    1    3    3  501    0 -0.12665746636E+03  0.41206155936E+03  0.16429715645E+02  0.43140094812E+03  0.00000000000E+00 0.  1.
         13    1    4    4    0    0  0.32043786042E+03 -0.41239937066E+03  0.28469668618E+03  0.59481583503E+03  0.10566000000E+00 0. -1.
         -4    1    4    4    0  502 -0.48268375757E+03  0.60555422908E+02 -0.59765321559E+02  0.49012494604E+03  0.00000000000E+00 0. -1.
<mgrwt>
<rscale>  2 0.10933037E+04</rscale>
<asrwt>0</asrwt>
<pdfrwt beam="1">  1       21 0.13843800E+00 0.11041610E+04</pdfrwt>
<pdfrwt beam="2">  1       21 0.25761687E+00 0.11041610E+04</pdfrwt>
<totfact> 0.84291422E+00</totfact>
</mgrwt>
</event>
<event>
 8    1  0.7418332E-006  0.1088254E+04  0.7818608E-02  0.8700749E-01
         21   -1    0    0  501  502  0.00000000000E+00  0.00000000000E+00  0.14189685898E+04  0.14189685898E+04  0.00000000000E+00 0. -1.
         21   -1    0    0  502  503 -0.00000000000E+00 -0.00000000000E+00 -0.11932465288E+04  0.11932465288E+04  0.00000000000E+00 0. -1.
    9000010    2    1    2  501    0 -0.39954494855E+03  0.14540237808E+03  0.84533486715E+03  0.13599305933E+04  0.97675081961E+03 0.  0.
   -9000010    2    1    2    0  503  0.39954494855E+03 -0.14540237808E+03 -0.61961280621E+03  0.12522845253E+04  0.10017576979E+04 0.  0.
        -13    1    3    3    0    0  0.12073417926E+03  0.20718416507E+03 -0.11501844342E+03  0.26595351810E+03  0.10566000000E+00 0.  1.
          4    1    3    3  501    0 -0.52027912780E+03 -0.61781786994E+02  0.96035331057E+03  0.10939770752E+04  0.00000000000E+00 0.  1.
         13    1    4    4    0    0 -0.27036963658E+03 -0.16876149259E+03 -0.46603253353E+03  0.56459411548E+03  0.10566000000E+00 0. -1.
         -4    1    4    4    0  503  0.66991458513E+03  0.23359114505E+02 -0.15358027268E+03  0.68769040982E+03  0.00000000000E+00 0. -1.
<mgrwt>
<rscale>  2 0.10824642E+04</rscale>
<asrwt>0</asrwt>
<pdfrwt beam="1">  1       21 0.21830286E+00 0.10882539E+04</pdfrwt>
<pdfrwt beam="2">  1       21 0.18357639E+00 0.10882539E+04</pdfrwt>
<totfact> 0.67188181E+00</totfact>
</mgrwt>
</event>
<event>
 8    1  0.7418332E-006  0.9977999E+03  0.7818608E-02  0.8848832E-01
         21   -1    0    0  501  502  0.00000000000E+00  0.00000000000E+00  0.15452754902E+04  0.15452754902E+04  0.00000000000E+00 0. -1.
         21   -1    0    0  502  503 -0.00000000000E+00 -0.00000000000E+00 -0.65678983943E+03  0.65678983943E+03  0.00000000000E+00 0. -1.
    9000010    2    1    2  501    0 -0.23425348497E+02  0.10733006600E+03  0.10503375866E+04  0.14487283177E+04  0.99173393755E+03 0.  0.
   -9000010    2    1    2    0  503  0.23425348497E+02 -0.10733006600E+03 -0.16185193574E+03  0.75333701194E+03  0.72749715768E+03 0.  0.
        -13    1    3    3    0    0 -0.40609354024E+03  0.32510694387E+03  0.76123500674E+03  0.92200066976E+03  0.10566000000E+00 0.  1.
          4    1    3    3  501    0  0.38266819174E+03 -0.21777687787E+03  0.28910257981E+03  0.52672764799E+03  0.00000000000E+00 0.  1.
         13    1    4    4    0    0 -0.29368172226E+03  0.16782758169E+01  0.11807326508E+03  0.31653290143E+03  0.10566000000E+00 0. -1.
         -4    1    4    4    0  503  0.31710707075E+03 -0.10900834182E+03 -0.27992520082E+03  0.43680411051E+03  0.00000000000E+00 0. -1.
<mgrwt>
<rscale>  2 0.92462242E+03</rscale>
<asrwt>0</asrwt>
<pdfrwt beam="1">  1       21 0.23773469E+00 0.99779993E+03</pdfrwt>
<pdfrwt beam="2">  1       21 0.10104459E+00 0.99779993E+03</pdfrwt>
<totfact> 0.29006120E+01</totfact>
</mgrwt>
</event>
<event>
 8    1  0.7418332E-006  0.1169674E+04  0.7818608E-02  0.8649610E-01
         21   -1    0    0  503  502  0.00000000000E+00  0.00000000000E+00  0.14697934317E+04  0.14697934317E+04  0.00000000000E+00 0. -1.
         21   -1    0    0  501  503 -0.00000000000E+00 -0.00000000000E+00 -0.10673463557E+04  0.10673463557E+04  0.00000000000E+00 0. -1.
    9000010    2    1    2  501    0 -0.41568312803E+03  0.77539884209E+02  0.75997001877E+03  0.13140450182E+04  0.98506597943E+03 0.  0.
   -9000010    2    1    2    0  502  0.41568312803E+03 -0.77539884209E+02 -0.35752294281E+03  0.12230947692E+04  0.10905655704E+04 0.  0.
        -13    1    3    3    0    0  0.12400034522E+03 -0.35207258074E+03  0.34951596556E+03  0.51136348039E+03  0.10566000000E+00 0.  1.
          4    1    3    3  501    0 -0.53968347325E+03  0.42961246495E+03  0.41045405320E+03  0.80268153780E+03  0.00000000000E+00 0.  1.
         13    1    4    4    0    0  0.48880990250E+03  0.24207923765E+01  0.28879736282E+03  0.56775426811E+03  0.10566000000E+00 0. -1.
         -4    1    4    4    0  502 -0.73126774470E+02 -0.79960676585E+02 -0.64632030563E+03  0.65534050112E+03  0.00000000000E+00 0. -1.
<mgrwt>
<rscale>  2 0.11444486E+04</rscale>
<asrwt>0</asrwt>
<pdfrwt beam="1">  1       21 0.22612207E+00 0.11696744E+04</pdfrwt>
<pdfrwt beam="2">  1       21 0.16420713E+00 0.11696744E+04</pdfrwt>
<totfact> 0.83452926E+00</totfact>
</mgrwt>
</event>
<event>
 8    1  0.7418332E-006  0.1003461E+04  0.7818608E-02  0.8774561E-01
         21   -1    0    0  501  502  0.00000000000E+00  0.00000000000E+00  0.13188648987E+04  0.13188648987E+04  0.00000000000E+00 0.  1.
         21   -1    0    0  502  503 -0.00000000000E+00 -0.00000000000E+00 -0.81039992673E+03  0.81039992673E+03  0.00000000000E+00 0.  1.
    9000010    2    1    2  501    0 -0.33547710393E+02  0.18165579743E+02  0.53884123534E+03  0.11389836855E+04  0.10027355193E+04 0.  0.
   -9000010    2    1    2    0  503  0.33547710393E+02 -0.18165579743E+02 -0.30376263383E+02  0.99028113995E+03  0.98907966393E+03 0.  0.
        -13    1    3    3    0    0  0.56707235116E+02  0.21991201483E+03 -0.23939034876E+03  0.32997690074E+03  0.10566000000E+00 0.  1.
          4    1    3    3  501    0 -0.90254945508E+02 -0.20174643509E+03  0.77823158409E+03  0.80900678473E+03  0.00000000000E+00 0.  1.
         13    1    4    4    0    0 -0.96345793205E+02  0.27727580561E+03 -0.40220247711E+03  0.49792693039E+03  0.10566000000E+00 0. -1.
         -4    1    4    4    0  503  0.12989350360E+03 -0.29544138535E+03  0.37182621373E+03  0.49235420956E+03  0.00000000000E+00 0. -1.
<mgrwt>
<rscale>  2 0.10000320E+04</rscale>
<asrwt>0</asrwt>
<pdfrwt beam="1">  1       21 0.20290229E+00 0.10034610E+04</pdfrwt>
<pdfrwt beam="2">  1       21 0.12467691E+00 0.10034610E+04</pdfrwt>
<totfact> 0.29888777E+01</totfact>
</mgrwt>
</event>
<event>
 8    1  0.7418332E-006  0.1115357E+04  0.7818608E-02  0.8700102E-01
         21   -1    0    0  503  502  0.00000000000E+00  0.00000000000E+00  0.13400221998E+04  0.13400221998E+04  0.00000000000E+00 0.  1.
         21   -1    0    0  501  503 -0.00000000000E+00 -0.00000000000E+00 -0.90958789269E+03  0.90958789269E+03  0.00000000000E+00 0.  1.
    9000010    2    1    2  501    0 -0.39175517674E+03 -0.21148597199E+03 -0.13107057062E+03  0.10008873513E+04  0.88679059572E+03 0.  0.
   -9000010    2    1    2    0  502  0.39175517674E+03  0.21148597199E+03  0.56150487777E+03  0.12487227412E+04  0.10226545467E+04 0.  0.
        -13    1    3    3    0    0 -0.56571898825E+03 -0.37115511080E+03 -0.26820501554E+03  0.72782417621E+03  0.10566000000E+00 0.  1.
          4    1    3    3  501    0  0.17396381151E+03  0.15966913881E+03  0.13713444493E+03  0.27306317509E+03  0.00000000000E+00 0.  1.
         13    1    4    4    0    0  0.27082748261E+03  0.16941735975E+03  0.86350565227E+03  0.92070179200E+03  0.10566000000E+00 0. -1.
         -4    1    4    4    0  502  0.12092769413E+03  0.42068612239E+02 -0.30200077450E+03  0.32802094924E+03  0.00000000000E+00 0. -1.
<mgrwt>
<rscale>  2 0.10832224E+04</rscale>
<asrwt>0</asrwt>
<pdfrwt beam="1">  1       21 0.20615726E+00 0.11153568E+04</pdfrwt>
<pdfrwt beam="2">  1       21 0.13993660E+00 0.11153568E+04</pdfrwt>
<totfact> 0.19664176E+01</totfact>
</mgrwt>
</event>
<event>
 8    1  0.7418332E-006  0.1042496E+04  0.7818608E-02  0.8767746E-01
         21   -1    0    0  503  502  0.00000000000E+00  0.00000000000E+00  0.10921725653E+04  0.10921725653E+04  0.00000000000E+00 0. -1.
         21   -1    0    0  501  503 -0.00000000000E+00 -0.00000000000E+00 -0.10150381129E+04  0.10150381129E+04  0.00000000000E+00 0. -1.
    9000010    2    1    2  501    0 -0.13030460268E+02 -0.28355967699E+03 -0.35455644442E+03  0.11011395489E+04  0.10031062509E+04 0.  0.
   -9000010    2    1    2    0  502  0.13030460268E+02  0.28355967699E+03  0.43169089685E+03  0.10060711292E+04  0.86327643506E+03 0.  0.
        -13    1    3    3    0    0 -0.29515154055E+03  0.26608970061E+03 -0.26307792657E+03  0.47657965470E+03  0.10566000000E+00 0.  1.
          4    1    3    3  501    0  0.28212108028E+03 -0.54964937760E+03 -0.91478517850E+02  0.62455989421E+03  0.00000000000E+00 0.  1.
         13    1    4    4    0    0 -0.29100013643E+03  0.22086300818E+03 -0.11018212599E+03  0.38157785553E+03  0.10566000000E+00 0. -1.
         -4    1    4    4    0  502  0.30403059669E+03  0.62696668810E+02  0.54187302284E+03  0.62449327369E+03  0.00000000000E+00 0. -1.
<mgrwt>
<rscale>  2 0.10073181E+04</rscale>
<asrwt>0</asrwt>
<pdfrwt beam="1">  1       21 0.16802655E+00 0.10424961E+04</pdfrwt>
<pdfrwt beam="2">  1       21 0.15615971E+00 0.10424961E+04</pdfrwt>
<totfact> 0.28938269E+01</totfact>
</mgrwt>
</event>
<event>
 8    1  0.7418332E-006  0.1111010E+04  0.7818608E-02  0.8678508E-01
         21   -1    0    0  501  502  0.00000000000E+00  0.00000000000E+00  0.13714413132E+04  0.13714413132E+04  0.00000000000E+00 0. -1.
         21   -1    0    0  502  503 -0.00000000000E+00 -0.00000000000E+00 -0.10761078632E+04  0.10761078632E+04  0.00000000000E+00 0.  1.
    9000010    2    1    2  501    0  0.48972539098E+03  0.18276510809E+03  0.65166267241E+03  0.12807952983E+04  0.97084412454E+03 0.  0.
   -9000010    2    1    2    0  503 -0.48972539098E+03 -0.18276510809E+03 -0.35632922248E+03  0.11667538782E+04  0.98036220557E+03 0.  0.
        -13    1    3    3    0    0  0.24561740310E+03  0.50777710831E+03  0.66016413641E+02  0.56791168193E+03  0.10566000000E+00 0.  1.
          4    1    3    3  501    0  0.24410798788E+03 -0.32501200022E+03  0.58564625877E+03  0.71288361634E+03  0.00000000000E+00 0.  1.
         13    1    4    4    0    0 -0.76966949428E+03 -0.40489556272E+02 -0.13474781029E+03  0.78242412932E+03  0.10566000000E+00 0. -1.
         -4    1    4    4    0  503  0.27994410330E+03 -0.14227555182E+03 -0.22158141219E+03  0.38432974885E+03  0.00000000000E+00 0. -1.
<mgrwt>
<rscale>  2 0.11089070E+04</rscale>
<asrwt>0</asrwt>
<pdfrwt beam="1">  1       21 0.21099097E+00 0.11110104E+04</pdfrwt>
<pdfrwt beam="2">  1       21 0.16555505E+00 0.11110104E+04</pdfrwt>
<totfact> 0.10714886E+01</totfact>
</mgrwt>
</event>
<event>
 8    1  0.7418332E-006  0.1033077E+04  0.7818608E-02  0.8749265E-01
         21   -1    0    0  501  502  0.00000000000E+00  0.00000000000E+00  0.66365537552E+03  0.66365537552E+03  0.00000000000E+00 0.  1.
         21   -1    0    0  502  503 -0.00000000000E+00 -0.00000000000E+00 -0.20730820681E+04  0.20730820681E+04  0.00000000000E+00 0.  1.
    9000010    2    1    2  501    0 -0.52370983882E+02 -0.37901623047E+01 -0.38744777613E+02  0.10338035645E+04  0.10317420060E+04 0.  0.
   -9000010    2    1    2    0  503  0.52370983882E+02  0.37901623047E+01 -0.13706819150E+04  0.17029338791E+04  0.10091867019E+04 0.  0.
        -13    1    3    3    0    0 -0.54748959815E+02 -0.36645902770E+03  0.34465792942E+03  0.50604225818E+03  0.10566000000E+00 0.  1.
          4    1    3    3  501    0  0.23779759334E+01  0.36266886540E+03 -0.38340270703E+03  0.52776130633E+03  0.00000000000E+00 0.  1.
         13    1    4    4    0    0  0.22200169501E+03  0.45432254636E+03 -0.51897299753E+03  0.72458727014E+03  0.10566000000E+00 0. -1.
         -4    1    4    4    0  503 -0.16963071113E+03 -0.45053238406E+03 -0.85170891746E+03  0.97834660899E+03  0.00000000000E+00 0. -1.
<mgrwt>
<rscale>  2 0.10273993E+04</rscale>
<asrwt>0</asrwt>
<pdfrwt beam="1">  1       21 0.10210083E+00 0.10330773E+04</pdfrwt>
<pdfrwt beam="2">  1       21 0.31893570E+00 0.10330773E+04</pdfrwt>
<totfact> 0.73530259E+00</totfact>
</mgrwt>
</event>
<event>
 8    1  0.7418332E-006  0.1062191E+04  0.7818608E-02  0.8726633E-01
         21   -1    0    0  503  502  0.00000000000E+00  0.00000000000E+00  0.93270753500E+03  0.93270753500E+03  0.00000000000E+00 0.  1.
         21   -1    0    0  501  503 -0.00000000000E+00 -0.00000000000E+00 -0.14365390892E+04  0.14365390892E+04  0.00000000000E+00 0.  1.
    9000010    2    1    2  501    0  0.34143665016E+03 -0.42715178431E+02 -0.76852325470E+03  0.13110599670E+04  0.10049112754E+04 0.  0.
   -9000010    2    1    2    0  502 -0.34143665016E+03  0.42715178431E+02  0.26469170051E+03  0.10581866572E+04  0.96503561213E+03 0.  0.
        -13    1    3    3    0    0 -0.11009195367E+03 -0.44425530867E+03 -0.34541692666E+03  0.57340725660E+03  0.10566000000E+00 0.  1.
          4    1    3    3  501    0  0.45152860382E+03  0.40154013024E+03 -0.42310632804E+03  0.73765271035E+03  0.00000000000E+00 0.  1.
         13    1    4    4    0    0 -0.26475559502E+03 -0.28657552248E+03  0.50880172290E+03  0.64117100650E+03  0.10566000000E+00 0. -1.
         -4    1    4    4    0  502 -0.76681055139E+02  0.32929070091E+03 -0.24411002239E+03  0.41701565073E+03  0.00000000000E+00 0. -1.
<mgrwt>
<rscale>  2 0.10526526E+04</rscale>
<asrwt>0</asrwt>
<pdfrwt beam="1">  1       21 0.14349347E+00 0.10621912E+04</pdfrwt>
<pdfrwt beam="2">  1       21 0.22100601E+00 0.10621912E+04</pdfrwt>
<totfact> 0.14220537E+01</totfact>
</mgrwt>
</event>
<event>
 8    1  0.7418332E-006  0.1086580E+04  0.7818608E-02  0.8714856E-01
         21   -1    0    0  501  502  0.00000000000E+00  0.00000000000E+00  0.11103055015E+04  0.11103055015E+04  0.00000000000E+00 0. -1.
         21   -1    0    0  502  503 -0.00000000000E+00 -0.00000000000E+00 -0.10963977762E+04  0.10963977762E+04  0.00000000000E+00 0. -1.
    9000010    2    1    2  501    0 -0.78845912621E+02 -0.15161621940E+03  0.35529452894E+03  0.10677559382E+04  0.99230256745E+03 0.  0.
   -9000010    2    1    2    0  503  0.78845912621E+02  0.15161621940E+03 -0.34138680364E+03  0.11389473394E+04  0.10730572848E+04 0.  0.
        -13    1    3    3    0    0  0.27735823600E+03 -0.42174718294E+03  0.13395729207E+02  0.50495319993E+03  0.10566000000E+00 0.  1.
          4    1    3    3  501    0 -0.35620414862E+03  0.27013096353E+03  0.34189879974E+03  0.56280273828E+03  0.00000000000E+00 0.  1.
         13    1    4    4    0    0 -0.11413714961E+03 -0.38090031169E+03  0.11236128038E+03  0.41320382968E+03  0.10566000000E+00 0. -1.
         -4    1    4    4    0  503  0.19298306223E+03  0.53251653110E+03 -0.45374808402E+03  0.72574350975E+03  0.00000000000E+00 0. -1.
<mgrwt>
<rscale>  2 0.10660903E+04</rscale>
<asrwt>0</asrwt>
<pdfrwt beam="1">  1       21 0.17081623E+00 0.10865800E+04</pdfrwt>
<pdfrwt beam="2">  1       21 0.16867658E+00 0.10865800E+04</pdfrwt>
<totfact> 0.21209900E+01</totfact>
</mgrwt>
</event>
<event>
 8    1  0.7418332E-006  0.1086016E+04  0.7818608E-02  0.8700824E-01
         21   -1    0    0  503  502  0.00000000000E+00  0.00000000000E+00  0.31877562812E+04  0.31877562812E+04  0.00000000000E+00 0. -1.
         21   -1    0    0  501  503 -0.00000000000E+00 -0.00000000000E+00 -0.40801258789E+03  0.40801258789E+03  0.00000000000E+00 0. -1.
    9000010    2    1    2  501    0  0.39927736878E+03  0.40146708848E+02  0.79826675217E+03  0.13361933350E+04  0.99355354435E+03 0.  0.
   -9000010    2    1    2    0  502 -0.39927736878E+03 -0.40146708848E+02  0.19814769411E+04  0.22595755340E+04  0.10091563558E+04 0.  0.
        -13    1    3    3    0    0  0.59495575354E+03 -0.17432093157E+03  0.83881056910E+03  0.10430548010E+04  0.10566000000E+00 0.  1.
          4    1    3    3  501    0 -0.19567838476E+03  0.21446764042E+03 -0.40543816927E+02  0.29313853405E+03  0.00000000000E+00 0.  1.
         13    1    4    4    0    0 -0.45339732737E+03 -0.13157203124E+03  0.26811657512E+03  0.54292434546E+03  0.10566000000E+00 0. -1.
         -4    1    4    4    0  502  0.54119958590E+02  0.91425322391E+02  0.17133603660E+04  0.17166511886E+04  0.00000000000E+00 0. -1.
<mgrwt>
<rscale>  2 0.10823770E+04</rscale>
<asrwt>0</asrwt>
<pdfrwt beam="1">  1       21 0.49042403E+00 0.10860160E+04</pdfrwt>
<pdfrwt beam="2">  1       21 0.62771170E-01 0.10860160E+04</pdfrwt>
<totfact> 0.15364079E+00</totfact>
</mgrwt>
</event>
<event>
 8    1  0.7418332E-006  0.1010696E+04  0.7818608E-02  0.8808449E-01
         21   -1    0    0  501  502  0.00000000000E+00  0.00000000000E+00  0.20353404393E+04  0.20353404393E+04  0.00000000000E+00 0. -1.
         21   -1    0    0  502  503 -0.00000000000E+00 -0.00000000000E+00 -0.48950948257E+03  0.48950948257E+03  0.00000000000E+00 0. -1.
    9000010    2    1    2  501    0  0.31092313223E+02  0.21297617476E+03  0.11844110810E+04  0.14514763584E+04  0.81094292479E+03 0.  0.
   -9000010    2    1    2    0  503 -0.31092313223E+02 -0.21297617476E+03  0.36141987573E+03  0.10733735635E+04  0.98751247952E+03 0.  0.
        -13    1    3    3    0    0  0.69742852584E+02 -0.29770295874E+03  0.29337796510E+03  0.42374728164E+03  0.10566000000E+00 0.  1.
          4    1    3    3  501    0 -0.38650539361E+02  0.51067913351E+03  0.89103311587E+03  0.10277290767E+04  0.00000000000E+00 0.  1.
         13    1    4    4    0    0  0.45604530486E+03 -0.10447469733E+03  0.19230336868E+02  0.46825431070E+03  0.10566000000E+00 0. -1.
         -4    1    4    4    0  503 -0.48713761808E+03 -0.10850147744E+03  0.34218953887E+03  0.60511925276E+03  0.00000000000E+00 0. -1.
<mgrwt>
<rscale>  2 0.96473594E+03</rscale>
<asrwt>0</asrwt>
<pdfrwt beam="1">  1       21 0.31312929E+00 0.10106960E+04</pdfrwt>
<pdfrwt beam="2">  1       21 0.75309152E-01 0.10106960E+04</pdfrwt>
<totfact> 0.17490751E+01</totfact>
</mgrwt>
</event>
<event>
 8    1  0.7418332E-006  0.1034350E+04  0.7818608E-02  0.8746757E-01
         21   -1    0    0  501  502  0.00000000000E+00  0.00000000000E+00  0.85143000635E+03  0.85143000635E+03  0.00000000000E+00 0. -1.
         21   -1    0    0  502  503 -0.00000000000E+00 -0.00000000000E+00 -0.13179706750E+04  0.13179706750E+04  0.00000000000E+00 0. -1.
    9000010    2    1    2  501    0  0.86946071084E+02  0.21243284246E+03  0.38310504421E+02  0.10184211507E+04  0.99147698594E+03 0.  0.
   -9000010    2    1    2    0  503 -0.86946071084E+02 -0.21243284246E+03 -0.50485117305E+03  0.11509795306E+04  0.10085592898E+04 0.  0.
        -13    1    3    3    0    0  0.27654018958E+03 -0.23996232651E+03  0.29002591188E+03  0.46708825217E+03  0.10566000000E+00 0.  1.
          4    1    3    3  501    0 -0.18959411849E+03  0.45239516896E+03 -0.25171540746E+03  0.55133289855E+03  0.00000000000E+00 0.  1.
         13    1    4    4    0    0  0.28581444344E+03 -0.44870547059E+03 -0.46722769758E+03  0.70804535728E+03  0.10566000000E+00 0. -1.
         -4    1    4    4    0  503 -0.37276051452E+03  0.23627262813E+03 -0.37623475466E+02  0.44293417332E+03  0.00000000000E+00 0. -1.
<mgrwt>
<rscale>  2 0.10301619E+04</rscale>
<asrwt>0</asrwt>
<pdfrwt beam="1">  1       21 0.13098923E+00 0.10343496E+04</pdfrwt>
<pdfrwt beam="2">  1       21 0.20276472E+00 0.10343496E+04</pdfrwt>
<totfact> 0.25824125E+01</totfact>
</mgrwt>
</event>
<event>
 8    1  0.7418332E-006  0.1207479E+04  0.7818608E-02  0.8639549E-01
         21   -1    0    0  503  502  0.00000000000E+00  0.00000000000E+00  0.10804257300E+04  0.10804257300E+04  0.00000000000E+00 0. -1.
         21   -1    0    0  501  503 -0.00000000000E+00 -0.00000000000E+00 -0.11949900749E+04  0.11949900749E+04  0.00000000000E+00 0. -1.
    9000010    2    1    2  501    0  0.10790939075E+03 -0.18055529944E+03 -0.29050363779E+03  0.12419335203E+04  0.11890171793E+04 0.  0.
   -9000010    2    1    2    0  502 -0.10790939075E+03  0.18055529944E+03  0.17593929280E+03  0.10334822846E+04  0.99643682439E+03 0.  0.
        -13    1    3    3    0    0  0.40760545589E+03 -0.56831458590E+03 -0.27534104314E+03  0.75162249661E+03  0.10566000000E+00 0.  1.
          4    1    3    3  501    0 -0.29969606513E+03  0.38775928646E+03 -0.15162594652E+02  0.49031102371E+03  0.00000000000E+00 0.  1.
         13    1    4    4    0    0  0.41137201902E+03  0.26721682321E+03  0.11185158440E+03  0.50313274266E+03  0.10566000000E+00 0. -1.
         -4    1    4    4    0  502 -0.51928140977E+03 -0.86661523779E+02  0.64087708405E+02  0.53034954191E+03  0.00000000000E+00 0. -1.
<mgrwt>
<rscale>  2 0.11571482E+04</rscale>
<asrwt>0</asrwt>
<pdfrwt beam="1">  1       21 0.16621934E+00 0.12074794E+04</pdfrwt>
<pdfrwt beam="2">  1       21 0.18384463E+00 0.12074794E+04</pdfrwt>
<totfact> 0.16949941E+01</totfact>
</mgrwt>
</event>
<event>
 8    1  0.7418332E-006  0.1046688E+04  0.7818608E-02  0.8735965E-01
         21   -1    0    0  503  502  0.00000000000E+00  0.00000000000E+00  0.66271809911E+03  0.66271809911E+03  0.00000000000E+00 0.  1.
         21   -1    0    0  501  503 -0.00000000000E+00 -0.00000000000E+00 -0.19557489015E+04  0.19557489015E+04  0.00000000000E+00 0.  1.
    9000010    2    1    2  501    0  0.96920824975E+02  0.23057488303E+03 -0.11897609034E+04  0.15846408328E+04  0.10163646682E+04 0.  0.
   -9000010    2    1    2    0  502 -0.96920824975E+02 -0.23057488303E+03 -0.10326989897E+03  0.10338261678E+04  0.99778427036E+03 0.  0.
        -13    1    3    3    0    0 -0.43131069115E+03 -0.56170681699E+02 -0.38991532537E+03  0.58413870776E+03  0.10566000000E+00 0.  1.
          4    1    3    3  501    0  0.52823151613E+03  0.28674556473E+03 -0.79984557801E+03  0.10005021250E+04  0.00000000000E+00 0.  1.
         13    1    4    4    0    0 -0.15527141189E+03  0.27443657074E+03 -0.34800874051E+03  0.46961126194E+03  0.10566000000E+00 0. -1.
         -4    1    4    4    0  502  0.58350586913E+02 -0.50501145377E+03  0.24473884153E+03  0.56421490585E+03  0.00000000000E+00 0. -1.
<mgrwt>
<rscale>  2 0.10421503E+04</rscale>
<asrwt>0</asrwt>
<pdfrwt beam="1">  1       21 0.10195663E+00 0.10466879E+04</pdfrwt>
<pdfrwt beam="2">  1       21 0.30088444E+00 0.10466879E+04</pdfrwt>
<totfact> 0.98590660E+00</totfact>
</mgrwt>
</event>
<event>
 8    1  0.7418332E-006  0.1074258E+04  0.7818608E-02  0.8713139E-01
         21   -1    0    0  503  502  0.00000000000E+00  0.00000000000E+00  0.84016844617E+03  0.84016844617E+03  0.00000000000E+00 0.  1.
         21   -1    0    0  501  503 -0.00000000000E+00 -0.00000000000E+00 -0.15876179960E+04  0.15876179960E+04  0.00000000000E+00 0.  1.
    9000010    2    1    2  501    0  0.87414445336E+02 -0.34610020428E+03 -0.84715451309E+03  0.13489114866E+04  0.98714983307E+03 0.  0.
   -9000010    2    1    2    0  502 -0.87414445336E+02  0.34610020428E+03  0.99704963227E+02  0.10788749556E+04  0.10132144164E+04 0.  0.
        -13    1    3    3    0    0  0.28371847348E+02 -0.51598549272E+03 -0.99163943927E+03  0.11182105254E+04  0.10566000000E+00 0.  1.
          4    1    3    3  501    0  0.59042597988E+02  0.16988528844E+03  0.14448492618E+03  0.23070096120E+03  0.00000000000E+00 0.  1.
         13    1    4    4    0    0 -0.20671893078E+02 -0.52767602580E+02  0.50391507035E+03  0.50709186183E+03  0.10566000000E+00 0. -1.
         -4    1    4    4    0  502 -0.66742552258E+02  0.39886780686E+03 -0.40421010712E+03  0.57178309378E+03  0.00000000000E+00 0. -1.
<mgrwt>
<rscale>  2 0.10680677E+04</rscale>
<asrwt>0</asrwt>
<pdfrwt beam="1">  1       21 0.12925668E+00 0.10742579E+04</pdfrwt>
<pdfrwt beam="2">  1       21 0.24424892E+00 0.10742579E+04</pdfrwt>
<totfact> 0.12977440E+01</totfact>
</mgrwt>
</event>
<event>
 8    1  0.7418332E-006  0.1016396E+04  0.7818608E-02  0.8761375E-01
         21   -1    0    0  501  502  0.00000000000E+00  0.00000000000E+00  0.11566758143E+04  0.11566758143E+04  0.00000000000E+00 0. -1.
         21   -1    0    0  502  503 -0.00000000000E+00 -0.00000000000E+00 -0.11144258722E+04  0.11144258722E+04  0.00000000000E+00 0. -1.
    9000010    2    1    2  501    0  0.21935644533E+02  0.17323199664E+03 -0.49372046159E+03  0.11220472851E+04  0.99234052555E+03 0.  0.
   -9000010    2    1    2    0  503 -0.21935644533E+02 -0.17323199664E+03  0.53597040371E+03  0.11490544015E+04  0.10012847980E+04 0.  0.
        -13    1    3    3    0    0  0.17667697387E+03  0.39121612905E+03 -0.67437586512E+03  0.79940454799E+03  0.10566000000E+00 0.  1.
          4    1    3    3  501    0 -0.15474132934E+03 -0.21798413240E+03  0.18065540353E+03  0.32264273711E+03  0.00000000000E+00 0.  1.
         13    1    4    4    0    0  0.12049017046E+03 -0.53268760719E+03  0.81216789378E+02  0.55215047412E+03  0.10566000000E+00 0. -1.
         -4    1    4    4    0  503 -0.14242581500E+03  0.35945561054E+03  0.45475361433E+03  0.59690392734E+03  0.00000000000E+00 0. -1.
<mgrwt>
<rscale>  2 0.10141867E+04</rscale>
<asrwt>0</asrwt>
<pdfrwt beam="1">  1       21 0.17795013E+00 0.10163965E+04</pdfrwt>
<pdfrwt beam="2">  1       21 0.17145013E+00 0.10163965E+04</pdfrwt>
<totfact> 0.17828084E+01</totfact>
</mgrwt>
</event>
<event>
 8    1  0.7418332E-006  0.1064068E+04  0.7818608E-02  0.8727690E-01
         21   -1    0    0  501  502  0.00000000000E+00  0.00000000000E+00  0.69349714820E+03  0.69349714820E+03  0.00000000000E+00 0. -1.
         21   -1    0    0  502  503 -0.00000000000E+00 -0.00000000000E+00 -0.21272002970E+04  0.21272002970E+04  0.00000000000E+00 0. -1.
    9000010    2    1    2  501    0  0.11217795034E+03  0.35646085614E+03  0.25379878321E+02  0.10148282219E+04  0.94317757994E+03 0.  0.
   -9000010    2    1    2    0  503 -0.11217795034E+03 -0.35646085614E+03 -0.14590830271E+04  0.18058692232E+04  0.99628918342E+03 0.  0.
        -13    1    3    3    0    0  0.23491759469E+03  0.55207863498E+03 -0.25471196651E+03  0.65180924552E+03  0.10566000000E+00 0.  1.
          4    1    3    3  501    0 -0.12273964435E+03 -0.19561777885E+03  0.28009184483E+03  0.36301897641E+03  0.00000000000E+00 0.  1.
         13    1    4    4    0    0  0.10706270625E+03 -0.63719540691E+03 -0.12084140368E+04  0.13703083249E+04  0.10566000000E+00 0. -1.
         -4    1    4    4    0  503 -0.21924065659E+03  0.28073455078E+03 -0.25066899025E+03  0.43556089835E+03  0.00000000000E+00 0. -1.
<mgrwt>
<rscale>  2 0.10514561E+04</rscale>
<asrwt>0</asrwt>
<pdfrwt beam="1">  1       21 0.10669187E+00 0.10640678E+04</pdfrwt>
<pdfrwt beam="2">  1       21 0.32726158E+00 0.10640678E+04</pdfrwt>
<totfact> 0.56760317E+00</totfact>
</mgrwt>
</event>
<event>
 8    1  0.7418332E-006  0.1027540E+04  0.7818608E-02  0.8814720E-01
         21   -1    0    0  503  502  0.00000000000E+00  0.00000000000E+00  0.98752226908E+03  0.98752226908E+03  0.00000000000E+00 0.  1.
         21   -1    0    0  501  503 -0.00000000000E+00 -0.00000000000E+00 -0.84513823020E+03  0.84513823020E+03  0.00000000000E+00 0.  1.
    9000010    2    1    2  501    0  0.35114689022E+02 -0.10435097873E+03 -0.78918308886E+02  0.78155912969E+03  0.76973008618E+03 0.  0.
   -9000010    2    1    2    0  502 -0.35114689022E+02  0.10435097873E+03  0.22130234777E+03  0.10511013696E+04  0.10216247804E+04 0.  0.
        -13    1    3    3    0    0 -0.22984286545E+03 -0.34288686749E+03  0.14363123636E+02  0.41304413467E+03  0.10566000000E+00 0.  1.
          4    1    3    3  501    0  0.26495755448E+03  0.23853588876E+03 -0.93281432522E+02  0.36851499502E+03  0.00000000000E+00 0.  1.
         13    1    4    4    0    0 -0.29938923138E+03  0.26907731641E+03  0.49395190739E+03  0.63720091969E+03  0.10566000000E+00 0. -1.
         -4    1    4    4    0  502  0.26427454235E+03 -0.16472633768E+03 -0.27264955962E+03  0.41390044990E+03  0.00000000000E+00 0. -1.
<mgrwt>
<rscale>  2 0.95837020E+03</rscale>
<asrwt>0</asrwt>
<pdfrwt beam="1">  1       21 0.15192650E+00 0.10275404E+04</pdfrwt>
<pdfrwt beam="2">  1       21 0.13002127E+00 0.10275404E+04</pdfrwt>
<totfact> 0.69379564E+01</totfact>
</mgrwt>
</event>
<event>
 8    1  0.7418332E-006  0.1034361E+04  0.7818608E-02  0.8745451E-01
         21   -1    0    0  503  502  0.00000000000E+00  0.00000000000E+00  0.99362410269E+03  0.99362410269E+03  0.00000000000E+00 0. -1.
         21   -1    0    0  501  503 -0.00000000000E+00 -0.00000000000E+00 -0.18835860278E+04  0.18835860278E+04  0.00000000000E+00 0. -1.
    9000010    2    1    2  501    0  0.91131027829E+02 -0.21902911754E+03 -0.13944830943E+04  0.17362275030E+04  0.10067890660E+04 0.  0.
   -9000010    2    1    2    0  502 -0.91131027829E+02  0.21902911754E+03  0.50452116920E+03  0.11409826274E+04  0.99550044067E+03 0.  0.
        -13    1    3    3    0    0 -0.28674158267E+03 -0.24462330958E+03 -0.12891432890E+04  0.13431127017E+04  0.10566000000E+00 0.  1.
          4    1    3    3  501    0  0.37787261050E+03  0.25594192039E+02 -0.10533980531E+03  0.39311480132E+03  0.00000000000E+00 0.  1.
         13    1    4    4    0    0  0.43007222547E+02 -0.11937992749E+03  0.71116405642E+03  0.72239567731E+03  0.10566000000E+00 0. -1.
         -4    1    4    4    0  502 -0.13413825038E+03  0.33840904503E+03 -0.20664288722E+03  0.41858695013E+03  0.00000000000E+00 0. -1.
<mgrwt>
<rscale>  2 0.10316040E+04</rscale>
<asrwt>0</asrwt>
<pdfrwt beam="1">  1       21 0.15286525E+00 0.10343611E+04</pdfrwt>
<pdfrwt beam="2">  1       21 0.28978246E+00 0.10343611E+04</pdfrwt>
<totfact> 0.37343011E+00</totfact>
</mgrwt>
</event>
<event>
 8    1  0.7418332E-006  0.1011047E+04  0.7818608E-02  0.8767138E-01
         21   -1    0    0  501  502  0.00000000000E+00  0.00000000000E+00  0.11168297553E+04  0.11168297553E+04  0.00000000000E+00 0. -1.
         21   -1    0    0  502  503 -0.00000000000E+00 -0.00000000000E+00 -0.10181046794E+04  0.10181046794E+04  0.00000000000E+00 0. -1.
    9000010    2    1    2  501    0 -0.20985157682E+03  0.37179676571E+02  0.40662584386E+03  0.10897521087E+04  0.98832943336E+03 0.  0.
   -9000010    2    1    2    0  503  0.20985157682E+03 -0.37179676571E+02 -0.30790076795E+03  0.10451823261E+04  0.97579874935E+03 0.  0.
        -13    1    3    3    0    0  0.17446093788E+03 -0.31332501363E+03  0.44107532819E+03  0.56846867928E+03  0.10566000000E+00 0.  1.
          4    1    3    3  501    0 -0.38431251470E+03  0.35050469020E+03 -0.34449484338E+02  0.52128342941E+03  0.00000000000E+00 0.  1.
         13    1    4    4    0    0  0.38744380382E+02  0.46184295378E+03 -0.79131229044E+02  0.47017209992E+03  0.10566000000E+00 0. -1.
         -4    1    4    4    0  503  0.17110719643E+03 -0.49902263035E+03 -0.22876953891E+03  0.57501022618E+03  0.00000000000E+00 0. -1.
<mgrwt>
<rscale>  2 0.10079711E+04</rscale>
<asrwt>0</asrwt>
<pdfrwt beam="1">  1       21 0.17181996E+00 0.10110465E+04</pdfrwt>
<pdfrwt beam="2">  1       21 0.15663149E+00 0.10110465E+04</pdfrwt>
<totfact> 0.26833335E+01</totfact>
</mgrwt>
</event>
<event>
 8    1  0.7418332E-006  0.1014200E+04  0.7818608E-02  0.8770127E-01
         21   -1    0    0  501  502  0.00000000000E+00  0.00000000000E+00  0.88306246021E+03  0.88306246021E+03  0.00000000000E+00 0. -1.
         21   -1    0    0  502  503 -0.00000000000E+00 -0.00000000000E+00 -0.13276065789E+04  0.13276065789E+04  0.00000000000E+00 0. -1.
    9000010    2    1    2  501    0 -0.16062570207E+03 -0.12214669575E+03  0.21567460402E+03  0.10005079075E+04  0.95591846242E+03 0.  0.
   -9000010    2    1    2    0  503  0.16062570207E+03  0.12214669575E+03 -0.66021872270E+03  0.12101611315E+04  0.99392191396E+03 0.  0.
        -13    1    3    3    0    0  0.15184325594E+03  0.36432163260E+03  0.42645036465E+02  0.39699526024E+03  0.10566000000E+00 0.  1.
          4    1    3    3  501    0 -0.31246895801E+03 -0.48646832835E+03  0.17302956756E+03  0.60351264731E+03  0.00000000000E+00 0.  1.
         13    1    4    4    0    0  0.27846812488E+03 -0.39436205902E+03 -0.34929148069E+03  0.59587790680E+03  0.10566000000E+00 0. -1.
         -4    1    4    4    0  503 -0.11784242280E+03  0.51650875478E+03 -0.31092724201E+03  0.61428322474E+03  0.00000000000E+00 0. -1.
<mgrwt>
<rscale>  2 0.10047654E+04</rscale>
<asrwt>0</asrwt>
<pdfrwt beam="1">  1       21 0.13585576E+00 0.10141998E+04</pdfrwt>
<pdfrwt beam="2">  1       21 0.20424716E+00 0.10141998E+04</pdfrwt>
<totfact> 0.22715070E+01</totfact>
</mgrwt>
</event>
<event>
 8    1  0.7418332E-006  0.1051472E+04  0.7818608E-02  0.8738192E-01
         21   -1    0    0  501  502  0.00000000000E+00  0.00000000000E+00  0.13525634854E+04  0.13525634854E+04  0.00000000000E+00 0.  1.
         21   -1    0    0  502  503 -0.00000000000E+00 -0.00000000000E+00 -0.84758696175E+03  0.84758696175E+03  0.00000000000E+00 0.  1.
    9000010    2    1    2  501    0  0.86667852149E+02 -0.17330919443E+03  0.56439688137E+03  0.11933726110E+04  0.10334635724E+04 0.  0.
   -9000010    2    1    2    0  503 -0.86667852149E+02  0.17330919443E+03 -0.59420357738E+02  0.10067778362E+04  0.98616603014E+03 0.  0.
        -13    1    3    3    0    0  0.51577924325E+03  0.11722039060E+03  0.33914542686E+03  0.62832195526E+03  0.10566000000E+00 0.  1.
          4    1    3    3  501    0 -0.42911139111E+03 -0.29052958503E+03  0.22525145451E+03  0.56505065570E+03  0.00000000000E+00 0.  1.
         13    1    4    4    0    0  0.36229978281E+03  0.18144021075E+03 -0.29356054195E+03  0.50035935652E+03  0.10566000000E+00 0. -1.
         -4    1    4    4    0  503 -0.44896763496E+03 -0.81310163227E+01  0.23414018421E+03  0.50641847965E+03  0.00000000000E+00 0. -1.
<mgrwt>
<rscale>  2 0.10396626E+04</rscale>
<asrwt>0</asrwt>
<pdfrwt beam="1">  1       21 0.20808669E+00 0.10514725E+04</pdfrwt>
<pdfrwt beam="2">  1       21 0.13039799E+00 0.10514725E+04</pdfrwt>
<totfact> 0.23711595E+01</totfact>
</mgrwt>
</event>
<event>
 8    1  0.7418332E-006  0.1128641E+04  0.7818608E-02  0.8664522E-01
         21   -1    0    0  503  502  0.00000000000E+00  0.00000000000E+00  0.11526572270E+04  0.11526572270E+04  0.00000000000E+00 0. -1.
         21   -1    0    0  501  503 -0.00000000000E+00 -0.00000000000E+00 -0.13420551618E+04  0.13420551618E+04  0.00000000000E+00 0. -1.
    9000010    2    1    2  501    0 -0.34948063463E+03  0.36134318453E+03 -0.62993556017E+03  0.12831415846E+04  0.99846277099E+03 0.  0.
   -9000010    2    1    2    0  502  0.34948063463E+03 -0.36134318453E+03  0.44053762533E+03  0.12115708042E+04  0.10105072010E+04 0.  0.
        -13    1    3    3    0    0 -0.34534436131E+03  0.29710679934E+03 -0.89827441461E+03  0.10071902071E+04  0.10566000000E+00 0.  1.
          4    1    3    3  501    0 -0.41362733195E+01  0.64236385184E+02  0.26833885444E+03  0.27595137749E+03  0.00000000000E+00 0.  1.
         13    1    4    4    0    0  0.51237068509E+03 -0.49006501654E+03 -0.16920025030E+02  0.70920641409E+03  0.10566000000E+00 0. -1.
         -4    1    4    4    0  502 -0.16289005047E+03  0.12872183201E+03  0.45745765036E+03  0.50236439011E+03  0.00000000000E+00 0. -1.
<mgrwt>
<rscale>  2 0.11259385E+04</rscale>
<asrwt>0</asrwt>
<pdfrwt beam="1">  1       21 0.17733188E+00 0.11286410E+04</pdfrwt>
<pdfrwt beam="2">  1       21 0.20647002E+00 0.11286410E+04</pdfrwt>
<totfact> 0.92172009E+00</totfact>
</mgrwt>
</event>
<event>
 8    1  0.7418332E-006  0.1038659E+04  0.7818608E-02  0.8745097E-01
         21   -1    0    0  501  502  0.00000000000E+00  0.00000000000E+00  0.19680122418E+04  0.19680122418E+04  0.00000000000E+00 0.  1.
         21   -1    0    0  502  503 -0.00000000000E+00 -0.00000000000E+00 -0.56432377027E+03  0.56432377027E+03  0.00000000000E+00 0.  1.
    9000010    2    1    2  501    0  0.45025155837E+02  0.27093815300E+03  0.98517606629E+03  0.14125300466E+04  0.97428666393E+03 0.  0.
   -9000010    2    1    2    0  503 -0.45025155837E+02 -0.27093815300E+03  0.41851240523E+03  0.11198059655E+04  0.10016875858E+04 0.  0.
        -13    1    3    3    0    0 -0.47136972099E+02 -0.36387378166E+03  0.30004779984E+03  0.47397754848E+03  0.10566000000E+00 0.  1.
          4    1    3    3  501    0  0.92162127936E+02  0.63481193465E+03  0.68512826645E+03  0.93855249810E+03  0.00000000000E+00 0.  1.
         13    1    4    4    0    0 -0.30738659165E+03  0.25662364889E+03  0.34018889174E+03  0.52542431151E+03  0.10566000000E+00 0. -1.
         -4    1    4    4    0  503  0.26236143581E+03 -0.52756180189E+03  0.78323513494E+02  0.59438165397E+03  0.00000000000E+00 0. -1.
<mgrwt>
<rscale>  2 0.10319954E+04</rscale>
<asrwt>0</asrwt>
<pdfrwt beam="1">  1       21 0.30277111E+00 0.10386591E+04</pdfrwt>
<pdfrwt beam="2">  1       21 0.86819043E-01 0.10386591E+04</pdfrwt>
<totfact> 0.14493473E+01</totfact>
</mgrwt>
</event>
<event>
 8    1  0.7418332E-006  0.1082807E+04  0.7818608E-02  0.8704310E-01
         21   -1    0    0  501  502  0.00000000000E+00  0.00000000000E+00  0.15261777676E+04  0.15261777676E+04  0.00000000000E+00 0. -1.
         21   -1    0    0  502  503 -0.00000000000E+00 -0.00000000000E+00 -0.82043012227E+03  0.82043012227E+03  0.00000000000E+00 0.  1.
    9000010    2    1    2  501    0  0.38183926592E+03 -0.79508158598E+00  0.68000384502E+03  0.12634947351E+04  0.99408845649E+03 0.  0.
   -9000010    2    1    2    0  503 -0.38183926592E+03  0.79508158598E+00  0.25743800282E+02  0.10831131547E+04  0.10132470111E+04 0.  0.
        -13    1    3    3    0    0 -0.61872618005E+02  0.10887880927E+03 -0.22053119169E+03  0.25360763718E+03  0.10566000000E+00 0.  1.
          4    1    3    3  501    0  0.44371188393E+03 -0.10967389086E+03  0.90053503671E+03  0.10098870980E+04  0.00000000000E+00 0.  1.
         13    1    4    4    0    0 -0.23106557237E+03  0.49356697484E+03  0.12302237601E+03  0.55868969343E+03  0.10566000000E+00 0. -1.
         -4    1    4    4    0  503 -0.15077369356E+03 -0.49277189325E+03 -0.97278575725E+02  0.52442346128E+03  0.00000000000E+00 0. -1.
<mgrwt>
<rscale>  2 0.10783025E+04</rscale>
<asrwt>0</asrwt>
<pdfrwt beam="1">  1       21 0.23479658E+00 0.10828072E+04</pdfrwt>
<pdfrwt beam="2">  1       21 0.12622002E+00 0.10828072E+04</pdfrwt>
<totfact> 0.16272575E+01</totfact>
</mgrwt>
</event>
<event>
 8    1  0.7418332E-006  0.1095180E+04  0.7818608E-02  0.8695542E-01
         21   -1    0    0  501  502  0.00000000000E+00  0.00000000000E+00  0.14788263342E+04  0.14788263342E+04  0.00000000000E+00 0.  1.
         21   -1    0    0  502  503 -0.00000000000E+00 -0.00000000000E+00 -0.13470112346E+04  0.13470112346E+04  0.00000000000E+00 0.  1.
    9000010    2    1    2  501    0 -0.28128743824E+03  0.27102965723E+03  0.97343280199E+03  0.14652612357E+04  0.10231516851E+04 0.  0.
   -9000010    2    1    2    0  503  0.28128743824E+03 -0.27102965723E+03 -0.84161770233E+03  0.13605763331E+04  0.99512205446E+03 0.  0.
        -13    1    3    3    0    0 -0.44306080521E+03  0.31804775325E+03  0.74243613255E+02  0.55042653982E+03  0.10566000000E+00 0.  1.
          4    1    3    3  501    0  0.16177336697E+03 -0.47018096013E+02  0.89918918874E+03  0.91483469587E+03  0.00000000000E+00 0.  1.
         13    1    4    4    0    0 -0.17733339960E+03 -0.40217775770E+03 -0.75811644721E+03  0.87631880164E+03  0.10566000000E+00 0. -1.
         -4    1    4    4    0  503  0.45862083784E+03  0.13114810047E+03 -0.83501255120E+02  0.48425753145E+03  0.00000000000E+00 0. -1.
<mgrwt>
<rscale>  2 0.10885858E+04</rscale>
<asrwt>0</asrwt>
<pdfrwt beam="1">  1       21 0.22751174E+00 0.10951799E+04</pdfrwt>
<pdfrwt beam="2">  1       21 0.20723250E+00 0.10951799E+04</pdfrwt>
<totfact> 0.37216665E+00</totfact>
</mgrwt>
</event>
<event>
 8    1  0.7418332E-006  0.1089006E+04  0.7818608E-02  0.8699977E-01
         21   -1    0    0  501  502  0.00000000000E+00  0.00000000000E+00  0.11739707302E+04  0.11739707302E+04  0.00000000000E+00 0.  1.
         21   -1    0    0  502  503 -0.00000000000E+00 -0.00000000000E+00 -0.10728870102E+04  0.10728870102E+04  0.00000000000E+00 0.  1.
    9000010    2    1    2  501    0 -0.38145736210E+03 -0.13828674053E+03  0.36412658639E+03  0.11482695902E+04  0.10105948442E+04 0.  0.
   -9000010    2    1    2    0  503  0.38145736210E+03  0.13828674053E+03 -0.26304286642E+03  0.10985881503E+04  0.98644383145E+03 0.  0.
        -13    1    3    3    0    0 -0.28593723439E+03  0.41869353972E+03  0.71950148243E+02  0.51209492988E+03  0.10566000000E+00 0.  1.
          4    1    3    3  501    0 -0.95520127711E+02 -0.55698028026E+03  0.29217643815E+03  0.63617466030E+03  0.00000000000E+00 0.  1.
         13    1    4    4    0    0  0.64928959898E+03 -0.15677110382E+03 -0.17492497779E+03  0.69047296932E+03  0.10566000000E+00 0. -1.
         -4    1    4    4    0  503 -0.26783223688E+03  0.29505784435E+03 -0.88117888631E+02  0.40811518095E+03  0.00000000000E+00 0. -1.
<mgrwt>
<rscale>  2 0.10833692E+04</rscale>
<asrwt>0</asrwt>
<pdfrwt beam="1">  1       21 0.18061088E+00 0.10890064E+04</pdfrwt>
<pdfrwt beam="2">  1       21 0.16505954E+00 0.10890064E+04</pdfrwt>
<totfact> 0.18878677E+01</totfact>
</mgrwt>
</event>
<event>
 8    1  0.7418332E-006  0.1024704E+04  0.7818608E-02  0.8756393E-01
         21   -1    0    0  501  502  0.00000000000E+00  0.00000000000E+00  0.10555570136E+04  0.10555570136E+04  0.00000000000E+00 0.  1.
         21   -1    0    0  502  503 -0.00000000000E+00 -0.00000000000E+00 -0.10966187586E+04  0.10966187586E+04  0.00000000000E+00 0.  1.
    9000010    2    1    2  501    0 -0.25390832773E+03  0.90012580154E+02 -0.37844562566E+03  0.10733590268E+04  0.96762947731E+03 0.  0.
   -9000010    2    1    2    0  503  0.25390832773E+03 -0.90012580154E+02  0.33738388069E+03  0.10788167454E+04  0.98865867908E+03 0.  0.
        -13    1    3    3    0    0  0.25560201241E+03  0.21015844310E+03  0.11857585865E+03  0.35150989371E+03  0.10566000000E+00 0.  1.
          4    1    3    3  501    0 -0.50951034013E+03 -0.12014586295E+03 -0.49702148431E+03  0.72184913310E+03  0.00000000000E+00 0.  1.
         13    1    4    4    0    0 -0.37952685452E+03 -0.97962629820E+01  0.18529814057E+03  0.42245947987E+03  0.10566000000E+00 0. -1.
         -4    1    4    4    0  503  0.63343518225E+03 -0.80216317172E+02  0.15208574012E+03  0.65635726552E+03  0.00000000000E+00 0. -1.
<mgrwt>
<rscale>  2 0.10195971E+04</rscale>
<asrwt>0</asrwt>
<pdfrwt beam="1">  1       21 0.16239339E+00 0.10247037E+04</pdfrwt>
<pdfrwt beam="2">  1       21 0.16871058E+00 0.10247037E+04</pdfrwt>
<totfact> 0.25323483E+01</totfact>
</mgrwt>
</event>
<event>
 8    1  0.7418332E-006  0.1151249E+04  0.7818608E-02  0.8650985E-01
         21   -1    0    0  503  502  0.00000000000E+00  0.00000000000E+00  0.10497941706E+04  0.10497941706E+04  0.00000000000E+00 0.  1.
         21   -1    0    0  501  503 -0.00000000000E+00 -0.00000000000E+00 -0.16187176037E+04  0.16187176037E+04  0.00000000000E+00 0.  1.
    9000010    2    1    2  501    0  0.32881564777E+03  0.38708138667E+03 -0.93855857276E+03  0.14593784598E+04  0.99546047851E+03 0.  0.
   -9000010    2    1    2    0  502 -0.32881564777E+03 -0.38708138667E+03  0.36963513968E+03  0.12091333146E+04  0.10331609293E+04 0.  0.
        -13    1    3    3    0    0  0.64421418809E+03  0.35342832634E+03 -0.40595178805E+03  0.83947624587E+03  0.10566000000E+00 0.  1.
          4    1    3    3  501    0 -0.31539854032E+03  0.33653060331E+02 -0.53260678471E+03  0.61990221392E+03  0.00000000000E+00 0.  1.
         13    1    4    4    0    0  0.21076552192E+03  0.10771078389E+03  0.41271372786E+03  0.47576921982E+03  0.10566000000E+00 0. -1.
         -4    1    4    4    0  502 -0.53958116969E+03 -0.49479217056E+03 -0.43078588179E+02  0.73336409477E+03  0.00000000000E+00 0. -1.
<mgrwt>
<rscale>  2 0.11427270E+04</rscale>
<asrwt>0</asrwt>
<pdfrwt beam="1">  1       21 0.16150680E+00 0.11512486E+04</pdfrwt>
<pdfrwt beam="2">  1       21 0.24903348E+00 0.11512486E+04</pdfrwt>
<totfact> 0.59874616E+00</totfact>
</mgrwt>
</event>
<event>
 8    1  0.7418332E-006  0.1003209E+04  0.7818608E-02  0.8784421E-01
         21   -1    0    0  503  502  0.00000000000E+00  0.00000000000E+00  0.16463282465E+04  0.16463282465E+04  0.00000000000E+00 0. -1.
         21   -1    0    0  501  503 -0.00000000000E+00 -0.00000000000E+00 -0.68117571776E+03  0.68117571776E+03  0.00000000000E+00 0. -1.
    9000010    2    1    2  501    0 -0.12704652365E+03 -0.93404024721E+02  0.21361437328E+02  0.95012569133E+03  0.93670560333E+03 0.  0.
   -9000010    2    1    2    0  502  0.12704652365E+03  0.93404024721E+02  0.94379109143E+03  0.13773782729E+04  0.99073919450E+03 0.  0.
        -13    1    3    3    0    0 -0.44742561210E+03  0.22068700712E+03 -0.21992750690E+02  0.49937573602E+03  0.10566000000E+00 0.  1.
          4    1    3    3  501    0  0.32037908845E+03 -0.31409103184E+03  0.43354188018E+02  0.45074995531E+03  0.00000000000E+00 0.  1.
         13    1    4    4    0    0 -0.43247754457E+02 -0.75052921639E+02  0.10921758221E+04  0.10956054704E+04  0.10566000000E+00 0. -1.
         -4    1    4    4    0  502  0.17029427811E+03  0.16845694636E+03 -0.14838473067E+03  0.28177280250E+03  0.00000000000E+00 0. -1.
<mgrwt>
<rscale>  2 0.98960423E+03</rscale>
<asrwt>0</asrwt>
<pdfrwt beam="1">  1       21 0.25328127E+00 0.10032095E+04</pdfrwt>
<pdfrwt beam="2">  1       21 0.10479626E+00 0.10032095E+04</pdfrwt>
<totfact> 0.20258387E+01</totfact>
</mgrwt>
</event>
<event>
 8    1  0.7418332E-006  0.1251879E+04  0.7818608E-02  0.8575484E-01
         21   -1    0    0  501  502  0.00000000000E+00  0.00000000000E+00  0.10556193093E+04  0.10556193093E+04  0.00000000000E+00 0. -1.
         21   -1    0    0  502  503 -0.00000000000E+00 -0.00000000000E+00 -0.18489548053E+04  0.18489548053E+04  0.00000000000E+00 0. -1.
    9000010    2    1    2  501    0  0.11681839307E+03  0.74234240895E+03  0.29164677061E+03  0.12479546297E+04  0.95268784493E+03 0.  0.
   -9000010    2    1    2    0  503 -0.11681839307E+03 -0.74234240895E+03 -0.10849822667E+04  0.16566194849E+04  0.10012406352E+04 0.  0.
        -13    1    3    3    0    0  0.73397410854E+01  0.16171452674E+03  0.57163455340E+03  0.59411407470E+03  0.10566000000E+00 0.  1.
          4    1    3    3  501    0  0.10947865199E+03  0.58062788221E+03 -0.27998778279E+03  0.65384055499E+03  0.00000000000E+00 0.  1.
         13    1    4    4    0    0  0.35831719886E+03 -0.60857708688E+03 -0.39788127354E+03  0.81059657332E+03  0.10566000000E+00 0. -1.
         -4    1    4    4    0  503 -0.47513559194E+03 -0.13376532207E+03 -0.68710099314E+03  0.84602291156E+03  0.00000000000E+00 0. -1.
<mgrwt>
<rscale>  2 0.12421458E+04</rscale>
<asrwt>0</asrwt>
<pdfrwt beam="1">  1       21 0.16240297E+00 0.12518792E+04</pdfrwt>
<pdfrwt beam="2">  1       21 0.28445458E+00 0.12518792E+04</pdfrwt>
<totfact> 0.32008640E+00</totfact>
</mgrwt>
</event>
<event>
 8    1  0.7418332E-006  0.1055192E+04  0.7818608E-02  0.8729148E-01
         21   -1    0    0  501  502  0.00000000000E+00  0.00000000000E+00  0.80074055479E+03  0.80074055479E+03  0.00000000000E+00 0.  1.
         21   -1    0    0  502  503 -0.00000000000E+00 -0.00000000000E+00 -0.14169908330E+04  0.14169908330E+04  0.00000000000E+00 0.  1.
    9000010    2    1    2  501    0 -0.29120568223E+02  0.22283634265E+03 -0.52255962983E+03  0.11583876947E+04  0.10091032858E+04 0.  0.
   -9000010    2    1    2    0  503  0.29120568223E+02 -0.22283634265E+03 -0.93690648407E+02  0.10593436931E+04  0.10309835495E+04 0.  0.
        -13    1    3    3    0    0  0.25903945458E+03  0.13309389598E+03 -0.73414363350E+03  0.78979890475E+03  0.10566000000E+00 0.  1.
          4    1    3    3  501    0 -0.28816002280E+03  0.89742446671E+02  0.21158400368E+03  0.36858878996E+03  0.00000000000E+00 0.  1.
         13    1    4    4    0    0  0.52928623894E+03 -0.11910203593E+03 -0.16815627761E+02  0.54278171874E+03  0.10566000000E+00 0. -1.
         -4    1    4    4    0  503 -0.50016567072E+03 -0.10373430672E+03 -0.76875020646E+02  0.51656197436E+03  0.00000000000E+00 0. -1.
<mgrwt>
<rscale>  2 0.10498095E+04</rscale>
<asrwt>0</asrwt>
<pdfrwt beam="1">  1       21 0.12319086E+00 0.10551925E+04</pdfrwt>
<pdfrwt beam="2">  1       21 0.21799859E+00 0.10551925E+04</pdfrwt>
<totfact> 0.23426035E+01</totfact>
</mgrwt>
</event>
<event>
 8    1  0.7418332E-006  0.1083665E+04  0.7818608E-02  0.8700453E-01
         21   -1    0    0  503  502  0.00000000000E+00  0.00000000000E+00  0.64559266439E+03  0.64559266439E+03  0.00000000000E+00 0. -1.
         21   -1    0    0  501  503 -0.00000000000E+00 -0.00000000000E+00 -0.19296599375E+04  0.19296599375E+04  0.00000000000E+00 0. -1.
    9000010    2    1    2  501    0 -0.36761265785E+03  0.19995765733E+03 -0.95921218394E+03  0.14472102224E+04  0.99960356299E+03 0.  0.
   -9000010    2    1    2    0  502  0.36761265785E+03 -0.19995765733E+03 -0.32485508915E+03  0.11280423794E+04  0.99590494020E+03 0.  0.
        -13    1    3    3    0    0  0.12283203099E+03 -0.81618319112E+01 -0.90314113173E+03  0.91149231391E+03  0.10566000000E+00 0.  1.
          4    1    3    3  501    0 -0.49044468884E+03  0.20811948924E+03 -0.56071052212E+02  0.53571790852E+03  0.00000000000E+00 0.  1.
         13    1    4    4    0    0 -0.18888303395E+03 -0.42045103295E+03 -0.33035073971E+02  0.46211167362E+03  0.10566000000E+00 0. -1.
         -4    1    4    4    0  502  0.55649569180E+03  0.22049337562E+03 -0.29182001518E+03  0.66593070581E+03  0.00000000000E+00 0. -1.
<mgrwt>
<rscale>  2 0.10828111E+04</rscale>
<asrwt>0</asrwt>
<pdfrwt beam="1">  1       21 0.99321949E-01 0.10836648E+04</pdfrwt>
<pdfrwt beam="2">  1       21 0.29687076E+00 0.10836648E+04</pdfrwt>
<totfact> 0.11183166E+01</totfact>
</mgrwt>
</event>
<event>
 8    1  0.7418332E-006  0.1010554E+04  0.7818608E-02  0.8793093E-01
         21   -1    0    0  503  502  0.00000000000E+00  0.00000000000E+00  0.16773362455E+04  0.16773362455E+04  0.00000000000E+00 0.  1.
         21   -1    0    0  501  503 -0.00000000000E+00 -0.00000000000E+00 -0.56776464099E+03  0.56776464099E+03  0.00000000000E+00 0.  1.
    9000010    2    1    2  501    0  0.16627329775E+03 -0.53477523537E+02  0.34622689505E+03  0.10682188178E+04  0.99534502800E+03 0.  0.
   -9000010    2    1    2    0  502 -0.16627329775E+03  0.53477523537E+02  0.76334470944E+03  0.11768820687E+04  0.87854971577E+03 0.  0.
        -13    1    3    3    0    0  0.47249853400E+03  0.21662094931E+03  0.40066117077E+03  0.65628414977E+03  0.10566000000E+00 0.  1.
          4    1    3    3  501    0 -0.30622523625E+03 -0.27009847285E+03 -0.54434275719E+02  0.41193466803E+03  0.00000000000E+00 0.  1.
         13    1    4    4    0    0 -0.30339592915E+03  0.39996773402E+03  0.56110380752E+03  0.75290156864E+03  0.10566000000E+00 0. -1.
         -4    1    4    4    0  502  0.13712263140E+03 -0.34649021048E+03  0.20224090193E+03  0.42398050004E+03  0.00000000000E+00 0. -1.
<mgrwt>
<rscale>  2 0.98054017E+03</rscale>
<asrwt>0</asrwt>
<pdfrwt beam="1">  1       21 0.25805173E+00 0.10105535E+04</pdfrwt>
<pdfrwt beam="2">  1       21 0.87348407E-01 0.10105535E+04</pdfrwt>
<totfact> 0.29919954E+01</totfact>
</mgrwt>
</event>
<event>
 8    1  0.7418332E-006  0.1308073E+04  0.7818608E-02  0.8552391E-01
         21   -1    0    0  503  502  0.00000000000E+00  0.00000000000E+00  0.17405598631E+04  0.17405598631E+04  0.00000000000E+00 0.  1.
         21   -1    0    0  501  503 -0.00000000000E+00 -0.00000000000E+00 -0.12202861209E+04  0.12202861209E+04  0.00000000000E+00 0. -1.
    9000010    2    1    2  501    0  0.73073417039E+02 -0.77366827196E+03 -0.52065508293E+03  0.12891438629E+04  0.88707827421E+03 0.  0.
   -9000010    2    1    2    0  502 -0.73073417039E+02  0.77366827196E+03  0.10409288252E+04  0.16717021210E+04  0.10522133068E+04 0.  0.
        -13    1    3    3    0    0 -0.29999283522E+03 -0.17471086848E+03 -0.46640180291E+03  0.58142088169E+03  0.10566000000E+00 0.  1.
          4    1    3    3  501    0  0.37306625225E+03 -0.59895740348E+03 -0.54253280024E+02  0.70772298122E+03  0.00000000000E+00 0.  1.
         13    1    4    4    0    0  0.46226634791E+03  0.16233316614E+03  0.46704154913E+03  0.67688259914E+03  0.10566000000E+00 0. -1.
         -4    1    4    4    0  502 -0.53533976495E+03  0.61133510582E+03  0.57388727605E+03  0.99481952190E+03  0.00000000000E+00 0. -1.
<mgrwt>
<rscale>  2 0.12746252E+04</rscale>
<asrwt>0</asrwt>
<pdfrwt beam="1">  1       21 0.26777844E+00 0.13080731E+04</pdfrwt>
<pdfrwt beam="2">  1       21 0.18773633E+00 0.13080731E+04</pdfrwt>
<totfact> 0.25659482E+00</totfact>
</mgrwt>
</event>
<event>
 8    1  0.7418332E-006  0.1008447E+04  0.7818608E-02  0.8775232E-01
         21   -1    0    0  501  502  0.00000000000E+00  0.00000000000E+00  0.57131120928E+03  0.57131120928E+03  0.00000000000E+00 0.  1.
         21   -1    0    0  502  503 -0.00000000000E+00 -0.00000000000E+00 -0.17428855633E+04  0.17428855633E+04  0.00000000000E+00 0.  1.
    9000010    2    1    2  501    0 -0.85152124019E+02  0.81772442795E+02 -0.43441490903E+03  0.10650492905E+04  0.96523368232E+03 0.  0.
   -9000010    2    1    2    0  503  0.85152124019E+02 -0.81772442795E+02 -0.73715944494E+03  0.12491474820E+04  0.10015127397E+04 0.  0.
        -13    1    3    3    0    0 -0.33909907120E+03 -0.38857622410E+02  0.18253428751E+03  0.38706184543E+03  0.10566000000E+00 0.  1.
          4    1    3    3  501    0  0.25394694718E+03  0.12063006521E+03 -0.61694919655E+03  0.67798744512E+03  0.00000000000E+00 0.  1.
         13    1    4    4    0    0  0.43183760937E+03 -0.32461565847E+03 -0.22631612129E+03  0.58572864409E+03  0.10566000000E+00 0. -1.
         -4    1    4    4    0  503 -0.34668548535E+03  0.24284321567E+03 -0.51084332366E+03  0.66341883790E+03  0.00000000000E+00 0. -1.
<mgrwt>
<rscale>  2 0.99931874E+03</rscale>
<asrwt>0</asrwt>
<pdfrwt beam="1">  1       21 0.87894034E-01 0.10084470E+04</pdfrwt>
<pdfrwt beam="2">  1       21 0.26813623E+00 0.10084470E+04</pdfrwt>
<totfact> 0.24929876E+01</totfact>
</mgrwt>
</event>
<event>
 8    1  0.7418332E-006  0.1116293E+04  0.7818608E-02  0.8673339E-01
         21   -1    0    0  503  502  0.00000000000E+00  0.00000000000E+00  0.27678788957E+04  0.27678788957E+04  0.00000000000E+00 0. -1.
         21   -1    0    0  501  503 -0.00000000000E+00 -0.00000000000E+00 -0.69186238202E+03  0.69186238202E+03  0.00000000000E+00 0. -1.
    9000010    2    1    2  501    0 -0.22365868827E+03  0.45225315735E+03  0.13173997004E+02  0.11163710875E+04  0.99576840860E+03 0.  0.
   -9000010    2    1    2    0  502  0.22365868827E+03 -0.45225315735E+03  0.20628425166E+04  0.23433701902E+04  0.99071109450E+03 0.  0.
        -13    1    3    3    0    0 -0.58982795983E+03  0.43512733946E+03  0.99745720709E+02  0.73971754319E+03  0.10566000000E+00 0.  1.
          4    1    3    3  501    0  0.36616927156E+03  0.17125817885E+02 -0.86571723705E+02  0.37665354428E+03  0.00000000000E+00 0.  1.
         13    1    4    4    0    0  0.38003606940E+03  0.17755908452E+03  0.50972596529E+03  0.66013272408E+03  0.10566000000E+00 0. -1.
         -4    1    4    4    0  502 -0.15637738113E+03 -0.62981224187E+03  0.15531165513E+04  0.16832374661E+04  0.00000000000E+00 0. -1.
<mgrwt>
<rscale>  2 0.11151644E+04</rscale>
<asrwt>0</asrwt>
<pdfrwt beam="1">  1       21 0.42582752E+00 0.11162934E+04</pdfrwt>
<pdfrwt beam="2">  1       21 0.10644037E+00 0.11162934E+04</pdfrwt>
<totfact> 0.11575716E+00</totfact>
</mgrwt>
</event>
<event>
 8    1  0.7418332E-006  0.1047378E+04  0.7818608E-02  0.8733768E-01
         21   -1    0    0  503  502  0.00000000000E+00  0.00000000000E+00  0.53811372516E+03  0.53811372516E+03  0.00000000000E+00 0.  1.
         21   -1    0    0  501  503 -0.00000000000E+00 -0.00000000000E+00 -0.26323716085E+04  0.26323716085E+04  0.00000000000E+00 0.  1.
    9000010    2    1    2  501    0 -0.13663614588E+03 -0.27273398568E+03 -0.18176954975E+04  0.20978601091E+04  0.10019714828E+04 0.  0.
   -9000010    2    1    2    0  502  0.13663614588E+03  0.27273398568E+03 -0.27656238579E+03  0.10726252246E+04  0.99044679605E+03 0.  0.
        -13    1    3    3    0    0 -0.65105487116E+02 -0.26048638825E+03  0.10037529562E+02  0.26868689227E+03  0.10566000000E+00 0.  1.
          4    1    3    3  501    0 -0.71530658764E+02 -0.12247597434E+02 -0.18277330271E+04  0.18291732168E+04  0.00000000000E+00 0.  1.
         13    1    4    4    0    0  0.42544322258E+03  0.48682811430E+03 -0.51720734634E+02  0.64859740523E+03  0.10566000000E+00 0. -1.
         -4    1    4    4    0  502 -0.28880707670E+03 -0.21409412862E+03 -0.22484165116E+03  0.42402781932E+03  0.00000000000E+00 0. -1.
<mgrwt>
<rscale>  2 0.10446119E+04</rscale>
<asrwt>0</asrwt>
<pdfrwt beam="1">  1       21 0.82786726E-01 0.10473777E+04</pdfrwt>
<pdfrwt beam="2">  1       21 0.40498025E+00 0.10473777E+04</pdfrwt>
<totfact> 0.31299052E+00</totfact>
</mgrwt>
</event>
<event>
 8    1  0.7418332E-006  0.1190644E+04  0.7818608E-02  0.8640694E-01
         21   -1    0    0  501  502  0.00000000000E+00  0.00000000000E+00  0.19533938502E+04  0.19533938502E+04  0.00000000000E+00 0.  1.
         21   -1    0    0  502  503 -0.00000000000E+00 -0.00000000000E+00 -0.70451804131E+03  0.70451804131E+03  0.00000000000E+00 0.  1.
    9000010    2    1    2  501    0  0.16283100446E+03 -0.27171666766E+03  0.20953841150E+03  0.10774512825E+04  0.10082911468E+04 0.  0.
   -9000010    2    1    2    0  503 -0.16283100446E+03  0.27171666766E+03  0.10393373974E+04  0.15804606090E+04  0.11477323850E+04 0.  0.
        -13    1    3    3    0    0 -0.61429837027E+02  0.35595078402E+03 -0.44936559908E+02  0.36399710315E+03  0.10566000000E+00 0.  1.
          4    1    3    3  501    0  0.22426084148E+03 -0.62766745168E+03  0.25447497140E+03  0.71345417932E+03  0.00000000000E+00 0.  1.
         13    1    4    4    0    0  0.45027400575E+03 -0.38971005760E+02  0.64641872505E+03  0.78874748735E+03  0.10566000000E+00 0. -1.
         -4    1    4    4    0  503 -0.61310501021E+03  0.31068767342E+03  0.39291867234E+03  0.79171312167E+03  0.00000000000E+00 0. -1.
<mgrwt>
<rscale>  2 0.11556941E+04</rscale>
<asrwt>0</asrwt>
<pdfrwt beam="1">  1       21 0.30052213E+00 0.11906442E+04</pdfrwt>
<pdfrwt beam="2">  1       21 0.10838739E+00 0.11906442E+04</pdfrwt>
<totfact> 0.81670724E+00</totfact>
</mgrwt>
</event>
<event>
 8    1  0.7418332E-006  0.1018093E+04  0.7818608E-02  0.8759439E-01
         21   -1    0    0  503  502  0.00000000000E+00  0.00000000000E+00  0.11766675444E+04  0.11766675444E+04  0.00000000000E+00 0. -1.
         21   -1    0    0  501  503 -0.00000000000E+00 -0.00000000000E+00 -0.14451677015E+04  0.14451677015E+04  0.00000000000E+00 0. -1.
    9000010    2    1    2  501    0 -0.10365035710E+03 -0.10516479758E+03 -0.95819353068E+03  0.13980871778E+04  0.10073280912E+04 0.  0.
   -9000010    2    1    2    0  502  0.10365035710E+03  0.10516479758E+03  0.68969337358E+03  0.12237480682E+04  0.10000396760E+04 0.  0.
        -13    1    3    3    0    0  0.20264134713E+03 -0.11244057755E+03  0.13128460848E+03  0.26634950466E+03  0.10566000000E+00 0.  1.
          4    1    3    3  501    0 -0.30629170423E+03  0.72757799719E+01 -0.10894781392E+04  0.11317376731E+04  0.00000000000E+00 0.  1.
         13    1    4    4    0    0 -0.24796610198E+03  0.25012251760E+03 -0.83597866082E+02  0.36199043623E+03  0.10566000000E+00 0. -1.
         -4    1    4    4    0  502  0.35161645909E+03 -0.14495772003E+03  0.77329123967E+03  0.86175763196E+03  0.00000000000E+00 0. -1.
<mgrwt>
<rscale>  2 0.10162853E+04</rscale>
<asrwt>0</asrwt>
<pdfrwt beam="1">  1       21 0.18102578E+00 0.10180928E+04</pdfrwt>
<pdfrwt beam="2">  1       21 0.22233349E+00 0.10180928E+04</pdfrwt>
<totfact> 0.66844042E+00</totfact>
</mgrwt>
</event>
<event>
 8    1  0.7418332E-006  0.1007653E+04  0.7818608E-02  0.8771278E-01
         21   -1    0    0  503  502  0.00000000000E+00  0.00000000000E+00  0.60652306825E+03  0.60652306825E+03  0.00000000000E+00 0. -1.
         21   -1    0    0  501  503 -0.00000000000E+00 -0.00000000000E+00 -0.16870066554E+04  0.16870066554E+04  0.00000000000E+00 0. -1.
    9000010    2    1    2  501    0 -0.57608491159E+02 -0.11325155572E+03 -0.35928722847E+03  0.10543811416E+04  0.98310102535E+03 0.  0.
   -9000010    2    1    2    0  502  0.57608491159E+02  0.11325155572E+03 -0.72119635865E+03  0.12391485821E+04  0.99961010776E+03 0.  0.
        -13    1    3    3    0    0  0.26122060173E+02 -0.43924435480E+03 -0.52018167694E+03  0.68132734676E+03  0.10566000000E+00 0.  1.
          4    1    3    3  501    0 -0.83730551332E+02  0.32599279908E+03  0.16089444847E+03  0.37305379482E+03  0.00000000000E+00 0.  1.
         13    1    4    4    0    0  0.52408433017E+03  0.13269732495E+03 -0.37634047927E+03  0.65871475820E+03  0.10566000000E+00 0. -1.
         -4    1    4    4    0  502 -0.46647583901E+03 -0.19445769231E+02 -0.34485587939E+03  0.58043382385E+03  0.00000000000E+00 0. -1.
<mgrwt>
<rscale>  2 0.10035343E+04</rscale>
<asrwt>0</asrwt>
<pdfrwt beam="1">  1       21 0.93311243E-01 0.10076532E+04</pdfrwt>
<pdfrwt beam="2">  1       21 0.25953948E+00 0.10076532E+04</pdfrwt>
<totfact> 0.24663985E+01</totfact>
</mgrwt>
</event>
<event>
 8    1  0.7418332E-006  0.1014405E+04  0.7818608E-02  0.8762317E-01
         21   -1    0    0  503  502  0.00000000000E+00  0.00000000000E+00  0.21247363898E+04  0.21247363898E+04  0.00000000000E+00 0.  1.
         21   -1    0    0  501  503 -0.00000000000E+00 -0.00000000000E+00 -0.51511443749E+03  0.51511443749E+03  0.00000000000E+00 0.  1.
    9000010    2    1    2  501    0 -0.13931921737E+01  0.99067722505E+02  0.47172316120E+03  0.11187225530E+04  0.10095548797E+04 0.  0.
   -9000010    2    1    2    0  502  0.13931921737E+01 -0.99067722505E+02  0.11378987911E+04  0.15211282743E+04  0.10045900723E+04 0.  0.
        -13    1    3    3    0    0 -0.14760930848E+03 -0.14660088666E+03 -0.26008524691E+03  0.33305356137E+03  0.10566000000E+00 0.  1.
          4    1    3    3  501    0  0.14621611631E+03  0.24566860916E+03  0.73180840811E+03  0.78566899161E+03  0.00000000000E+00 0.  1.
         13    1    4    4    0    0 -0.12836521729E+03 -0.81235786123E+02  0.13021877243E+04  0.13110185973E+04  0.10566000000E+00 0. -1.
         -4    1    4    4    0  502  0.12975840946E+03 -0.17831936382E+02 -0.16428893323E+03  0.21010967699E+03  0.00000000000E+00 0. -1.
<mgrwt>
<rscale>  2 0.10131675E+04</rscale>
<asrwt>0</asrwt>
<pdfrwt beam="1">  1       21 0.32688252E+00 0.10144050E+04</pdfrwt>
<pdfrwt beam="2">  1       21 0.79248376E-01 0.10144050E+04</pdfrwt>
<totfact> 0.12369611E+01</totfact>
</mgrwt>
</event>
<event>
 8    1  0.7418332E-006  0.1040137E+04  0.7818608E-02  0.8740743E-01
         21   -1    0    0  501  502  0.00000000000E+00  0.00000000000E+00  0.12426522338E+04  0.12426522338E+04  0.00000000000E+00 0.  1.
         21   -1    0    0  502  503 -0.00000000000E+00 -0.00000000000E+00 -0.88771234297E+03  0.88771234297E+03  0.00000000000E+00 0.  1.
    9000010    2    1    2  501    0  0.34542585022E+02  0.26811076886E+03  0.36807334150E+03  0.11033420875E+04  0.10043949437E+04 0.  0.
   -9000010    2    1    2    0  503 -0.34542585022E+02 -0.26811076886E+03 -0.13133450636E+02  0.10270224893E+04  0.99072000654E+03 0.  0.
        -13    1    3    3    0    0 -0.23566505233E+03  0.36850993865E+03  0.59358947718E+03  0.73735071055E+03  0.10566000000E+00 0.  1.
          4    1    3    3  501    0  0.27020763736E+03 -0.10039916979E+03 -0.22551613568E+03  0.36599137699E+03  0.00000000000E+00 0.  1.
         13    1    4    4    0    0  0.71311168227E+02  0.33688933776E+03  0.17283576589E+03  0.38529459086E+03  0.10566000000E+00 0. -1.
         -4    1    4    4    0  503 -0.10585375325E+03 -0.60500010662E+03 -0.18596921653E+03  0.64172789839E+03  0.00000000000E+00 0. -1.
<mgrwt>
<rscale>  2 0.10368218E+04</rscale>
<asrwt>0</asrwt>
<pdfrwt beam="1">  1       21 0.19117727E+00 0.10401374E+04</pdfrwt>
<pdfrwt beam="2">  1       21 0.13657113E+00 0.10401374E+04</pdfrwt>
<totfact> 0.28150082E+01</totfact>
</mgrwt>
</event>
<event>
 8    1  0.7418332E-006  0.1099278E+04  0.7818608E-02  0.8687543E-01
         21   -1    0    0  503  502  0.00000000000E+00  0.00000000000E+00  0.83095836537E+03  0.83095836537E+03  0.00000000000E+00 0. -1.
         21   -1    0    0  501  503 -0.00000000000E+00 -0.00000000000E+00 -0.15911582487E+04  0.15911582487E+04  0.00000000000E+00 0. -1.
    9000010    2    1    2  501    0  0.39183873660E+03  0.16724350941E+03 -0.74276294278E+03  0.13227002083E+04  0.10081324639E+04 0.  0.
   -9000010    2    1    2    0  502 -0.39183873660E+03 -0.16724350941E+03 -0.17436940542E+02  0.10994164058E+04  0.10133629160E+04 0.  0.
        -13    1    3    3    0    0  0.53134177196E+02 -0.40355651004E+03 -0.41921050138E+03  0.58431032270E+03  0.10566000000E+00 0.  1.
          4    1    3    3  501    0  0.33870455940E+03  0.57080001945E+03 -0.32355244140E+03  0.73838988556E+03  0.00000000000E+00 0.  1.
         13    1    4    4    0    0 -0.29941893360E+03 -0.50570713438E+03  0.26914223481E+03  0.64639690383E+03  0.10566000000E+00 0. -1.
         -4    1    4    4    0  502 -0.92419802999E+02  0.33846362497E+03 -0.28657917535E+03  0.45301950196E+03  0.00000000000E+00 0. -1.
<mgrwt>
<rscale>  2 0.10980712E+04</rscale>
<asrwt>0</asrwt>
<pdfrwt beam="1">  1       21 0.12783975E+00 0.10992781E+04</pdfrwt>
<pdfrwt beam="2">  1       21 0.24479358E+00 0.10992781E+04</pdfrwt>
<totfact> 0.13199118E+01</totfact>
</mgrwt>
</event>
<event>
 8    1  0.7418332E-006  0.1072980E+04  0.7818608E-02  0.8723908E-01
         21   -1    0    0  503  502  0.00000000000E+00  0.00000000000E+00  0.55607607211E+03  0.55607607211E+03  0.00000000000E+00 0. -1.
         21   -1    0    0  501  503 -0.00000000000E+00 -0.00000000000E+00 -0.19724199664E+04  0.19724199664E+04  0.00000000000E+00 0. -1.
    9000010    2    1    2  501    0  0.11376257460E+03 -0.42456794467E+02 -0.88626299869E+03  0.13916706570E+04  0.10660865874E+04 0.  0.
   -9000010    2    1    2    0  502 -0.11376257460E+03  0.42456794467E+02 -0.53008089562E+03  0.11368253816E+04  0.99831943260E+03 0.  0.
        -13    1    3    3    0    0 -0.81243444053E+02 -0.14832916308E+03  0.21201281119E+03  0.27120376305E+03  0.10566000000E+00 0.  1.
          4    1    3    3  501    0  0.19500601866E+03  0.10587236861E+03 -0.10982758099E+04  0.11204668939E+04  0.00000000000E+00 0.  1.
         13    1    4    4    0    0  0.45240803761E+02 -0.43863933216E+03 -0.43858688253E+03  0.62194023727E+03  0.10566000000E+00 0. -1.
         -4    1    4    4    0  502 -0.15900337836E+03  0.48109612663E+03 -0.91494013086E+02  0.51488514430E+03  0.00000000000E+00 0. -1.
<mgrwt>
<rscale>  2 0.10557430E+04</rscale>
<asrwt>0</asrwt>
<pdfrwt beam="1">  1       21 0.85550165E-01 0.10729795E+04</pdfrwt>
<pdfrwt beam="2">  1       21 0.30344923E+00 0.10729795E+04</pdfrwt>
<totfact> 0.14767263E+01</totfact>
</mgrwt>
</event>
<event>
 8    1  0.7418332E-006  0.1027080E+04  0.7818608E-02  0.8754381E-01
         21   -1    0    0  501  502  0.00000000000E+00  0.00000000000E+00  0.78170579531E+03  0.78170579531E+03  0.00000000000E+00 0.  1.
         21   -1    0    0  502  503 -0.00000000000E+00 -0.00000000000E+00 -0.14285159196E+04  0.14285159196E+04  0.00000000000E+00 0.  1.
    9000010    2    1    2  501    0  0.12776340793E+03  0.14072255775E+03 -0.24805285374E+02  0.10273797250E+04  0.10093401164E+04 0.  0.
   -9000010    2    1    2    0  503 -0.12776340793E+03 -0.14072255775E+03 -0.62200483895E+03  0.11828419899E+04  0.98797713878E+03 0.  0.
        -13    1    3    3    0    0 -0.26712318808E+03 -0.25514831943E+03  0.20543604104E+03  0.42268125182E+03  0.10566000000E+00 0.  1.
          4    1    3    3  501    0  0.39488659601E+03  0.39587087718E+03 -0.23024132642E+03  0.60469847321E+03  0.00000000000E+00 0.  1.
         13    1    4    4    0    0  0.16979474773E+03  0.54078762113E+02  0.21154031376E+03  0.27659371717E+03  0.10566000000E+00 0. -1.
         -4    1    4    4    0  503 -0.29755815567E+03 -0.19480131986E+03 -0.83354515271E+03  0.90624827274E+03  0.00000000000E+00 0. -1.
<mgrwt>
<rscale>  2 0.10217930E+04</rscale>
<asrwt>0</asrwt>
<pdfrwt beam="1">  1       21 0.12026243E+00 0.10270802E+04</pdfrwt>
<pdfrwt beam="2">  1       21 0.21977168E+00 0.10270802E+04</pdfrwt>
<totfact> 0.24459107E+01</totfact>
</mgrwt>
</event>
<event>
 8    1  0.7418332E-006  0.1026839E+04  0.7818608E-02  0.8754950E-01
         21   -1    0    0  503  502  0.00000000000E+00  0.00000000000E+00  0.21226610352E+04  0.21226610352E+04  0.00000000000E+00 0. -1.
         21   -1    0    0  501  503 -0.00000000000E+00 -0.00000000000E+00 -0.53294003691E+03  0.53294003691E+03  0.00000000000E+00 0. -1.
    9000010    2    1    2  501    0  0.13360672859E+03  0.48981444416E+02  0.40849127964E+03  0.11051082888E+04  0.10169312979E+04 0.  0.
   -9000010    2    1    2    0  502 -0.13360672859E+03 -0.48981444416E+02  0.11812297187E+04  0.15504927833E+04  0.99422043982E+03 0.  0.
        -13    1    3    3    0    0  0.13450461384E+03  0.37419994125E+03 -0.17707970486E+03  0.43528648062E+03  0.10566000000E+00 0.  1.
          4    1    3    3  501    0 -0.89788524746E+00 -0.32521849683E+03  0.58557098450E+03  0.66982180822E+03  0.00000000000E+00 0.  1.
         13    1    4    4    0    0  0.54722530744E+02 -0.23142216220E+03  0.12556173881E+04  0.12779381084E+04  0.10566000000E+00 0. -1.
         -4    1    4    4    0  502 -0.18832925933E+03  0.18244071778E+03 -0.74387669426E+02  0.27255467486E+03  0.00000000000E+00 0. -1.
<mgrwt>
<rscale>  2 0.10211710E+04</rscale>
<asrwt>0</asrwt>
<pdfrwt beam="1">  1       21 0.32656323E+00 0.10268394E+04</pdfrwt>
<pdfrwt beam="2">  1       21 0.81990776E-01 0.10268394E+04</pdfrwt>
<totfact> 0.11407149E+01</totfact>
</mgrwt>
</event>
<event>
 8    1  0.7418332E-006  0.1059094E+04  0.7818608E-02  0.8732522E-01
         21   -1    0    0  503  502  0.00000000000E+00  0.00000000000E+00  0.82447917941E+03  0.82447917941E+03  0.00000000000E+00 0.  1.
         21   -1    0    0  501  503 -0.00000000000E+00 -0.00000000000E+00 -0.13690359288E+04  0.13690359288E+04  0.00000000000E+00 0.  1.
    9000010    2    1    2  501    0  0.71617326153E+02  0.28993381117E+03 -0.11382405705E+02  0.10077852457E+04  0.96245045903E+03 0.  0.
   -9000010    2    1    2    0  502 -0.71617326153E+02 -0.28993381117E+03 -0.53317434372E+03  0.11857298625E+04  0.10161150377E+04 0.  0.
        -13    1    3    3    0    0  0.64941727340E+02  0.47841410638E+03  0.35259552608E+03  0.59784705511E+03  0.10566000000E+00 0.  1.
          4    1    3    3  501    0  0.66755988124E+01 -0.18848029521E+03 -0.36397793179E+03  0.40993819062E+03  0.00000000000E+00 0.  1.
         13    1    4    4    0    0  0.18150721215E+03 -0.38163414121E+03 -0.73597208476E+03  0.84867214312E+03  0.10566000000E+00 0. -1.
         -4    1    4    4    0  502 -0.25312453830E+03  0.91700330041E+02  0.20279774105E+03  0.33705771938E+03  0.00000000000E+00 0. -1.
<mgrwt>
<rscale>  2 0.10460104E+04</rscale>
<asrwt>0</asrwt>
<pdfrwt beam="1">  1       21 0.12684295E+00 0.10590942E+04</pdfrwt>
<pdfrwt beam="2">  1       21 0.21062091E+00 0.10590942E+04</pdfrwt>
<totfact> 0.24506082E+01</totfact>
</mgrwt>
</event>
<event>
 8    1  0.7418332E-006  0.1066163E+04  0.7818608E-02  0.8716885E-01
         21   -1    0    0  501  502  0.00000000000E+00  0.00000000000E+00  0.67938039765E+03  0.67938039765E+03  0.00000000000E+00 0.  1.
         21   -1    0    0  502  503 -0.00000000000E+00 -0.00000000000E+00 -0.17427847723E+04  0.17427847723E+04  0.00000000000E+00 0.  1.
    9000010    2    1    2  501    0 -0.10499329600E+03  0.36348015633E+03 -0.79629830542E+03  0.13230519677E+04  0.98652628039E+03 0.  0.
   -9000010    2    1    2    0  503  0.10499329600E+03 -0.36348015633E+03 -0.26710606924E+03  0.10991132022E+04  0.99677618490E+03 0.  0.
        -13    1    3    3    0    0 -0.20773835993E+03 -0.23933541294E+03  0.26641180539E+01  0.31692865879E+03  0.10566000000E+00 0.  1.
          4    1    3    3  501    0  0.10274506393E+03  0.60281556927E+03 -0.79896242347E+03  0.10061233090E+04  0.00000000000E+00 0.  1.
         13    1    4    4    0    0 -0.35357146479E+03 -0.33062685967E+02 -0.38283975817E+03  0.52218025002E+03  0.10566000000E+00 0. -1.
         -4    1    4    4    0  503  0.45856476079E+03 -0.33041747036E+03  0.11573368893E+03  0.57693295218E+03  0.00000000000E+00 0. -1.
<mgrwt>
<rscale>  2 0.10637610E+04</rscale>
<asrwt>0</asrwt>
<pdfrwt beam="1">  1       21 0.10452006E+00 0.10661633E+04</pdfrwt>
<pdfrwt beam="2">  1       21 0.26812073E+00 0.10661633E+04</pdfrwt>
<totfact> 0.15719862E+01</totfact>
</mgrwt>
</event>
<event>
 8    1  0.7418332E-006  0.1037296E+04  0.7818608E-02  0.8743411E-01
         21   -1    0    0  503  502  0.00000000000E+00  0.00000000000E+00  0.22465609251E+04  0.22465609251E+04  0.00000000000E+00 0. -1.
         21   -1    0    0  501  503 -0.00000000000E+00 -0.00000000000E+00 -0.72445699521E+03  0.72445699521E+03  0.00000000000E+00 0. -1.
    9000010    2    1    2  501    0  0.27960103817E+03  0.31888510924E+02 -0.11801487209E+03  0.10304066093E+04  0.98418324143E+03 0.  0.
   -9000010    2    1    2    0  502 -0.27960103817E+03 -0.31888510924E+02  0.16401188020E+04  0.19406113110E+04  0.99839318819E+03 0.  0.
        -13    1    3    3    0    0  0.47192913138E+03  0.12330162565E+03 -0.43163142606E+03  0.65132641207E+03  0.10566000000E+00 0.  1.
          4    1    3    3  501    0 -0.19232809321E+03 -0.91413114727E+02  0.31361655397E+03  0.37908019719E+03  0.00000000000E+00 0.  1.
         13    1    4    4    0    0 -0.60202190933E+03 -0.22553887124E+03  0.85185678449E+03  0.10672198247E+04  0.10566000000E+00 0. -1.
         -4    1    4    4    0  502  0.32242087116E+03  0.19365036032E+03  0.78826201747E+03  0.87339148633E+03  0.00000000000E+00 0. -1.
<mgrwt>
<rscale>  2 0.10338613E+04</rscale>
<asrwt>0</asrwt>
<pdfrwt beam="1">  1       21 0.34562475E+00 0.10372958E+04</pdfrwt>
<pdfrwt beam="2">  1       21 0.11145492E+00 0.10372958E+04</pdfrwt>
<totfact> 0.37728952E+00</totfact>
</mgrwt>
</event>
<event>
 8    1  0.7418332E-006  0.1064223E+04  0.7818608E-02  0.8736640E-01
         21   -1    0    0  501  502  0.00000000000E+00  0.00000000000E+00  0.99112916372E+03  0.99112916372E+03  0.00000000000E+00 0.  1.
         21   -1    0    0  502  503 -0.00000000000E+00 -0.00000000000E+00 -0.11069770710E+04  0.11069770710E+04  0.00000000000E+00 0.  1.
    9000010    2    1    2  501    0 -0.31643783035E+03  0.19158589955E+03  0.17801569945E+03  0.10790087514E+04  0.99786383794E+03 0.  0.
   -9000010    2    1    2    0  503  0.31643783035E+03 -0.19158589955E+03 -0.29386360673E+03  0.10190974833E+04  0.90297608146E+03 0.  0.
        -13    1    3    3    0    0  0.13120606177E+02 -0.36155044141E+03  0.23690368569E+03  0.43245143016E+03  0.10566000000E+00 0.  1.
          4    1    3    3  501    0 -0.32955843653E+03  0.55313634096E+03 -0.58887986242E+02  0.64655732128E+03  0.00000000000E+00 0.  1.
         13    1    4    4    0    0  0.35933124577E+02  0.35301468432E+03 -0.17270510007E+03  0.39463605961E+03  0.10566000000E+00 0. -1.
         -4    1    4    4    0  503  0.28050470577E+03 -0.54460058387E+03 -0.12115850665E+03  0.62446142367E+03  0.00000000000E+00 0. -1.
<mgrwt>
<rscale>  2 0.10413955E+04</rscale>
<asrwt>0</asrwt>
<pdfrwt beam="1">  1       21 0.15248141E+00 0.10642229E+04</pdfrwt>
<pdfrwt beam="2">  1       21 0.17030416E+00 0.10642229E+04</pdfrwt>
<totfact> 0.29687619E+01</totfact>
</mgrwt>
</event>
<event>
 8    1  0.7418332E-006  0.1059521E+04  0.7818608E-02  0.8720652E-01
         21   -1    0    0  503  502  0.00000000000E+00  0.00000000000E+00  0.78103365038E+03  0.78103365038E+03  0.00000000000E+00 0. -1.
         21   -1    0    0  501  503 -0.00000000000E+00 -0.00000000000E+00 -0.14939292407E+04  0.14939292407E+04  0.00000000000E+00 0. -1.
    9000010    2    1    2  501    0  0.35344405443E+03  0.65197457945E+01 -0.13430513722E+03  0.10679989223E+04  0.99880860097E+03 0.  0.
   -9000010    2    1    2    0  502 -0.35344405443E+03 -0.65197457945E+01 -0.57859045310E+03  0.12069639688E+04  0.99851384714E+03 0.  0.
        -13    1    3    3    0    0  0.52545212643E+03  0.35296248884E+03 -0.22307067263E+03  0.67115049866E+03  0.10566000000E+00 0.  1.
          4    1    3    3  501    0 -0.17200807200E+03 -0.34644274305E+03  0.88765535404E+02  0.39684842361E+03  0.00000000000E+00 0.  1.
         13    1    4    4    0    0  0.13344000515E+03  0.37164739621E+03 -0.40690399370E+03  0.56700872422E+03  0.10566000000E+00 0. -1.
         -4    1    4    4    0  502 -0.48688405958E+03 -0.37816714200E+03 -0.17168645940E+03  0.63995524461E+03  0.00000000000E+00 0. -1.
<mgrwt>
<rscale>  2 0.10594511E+04</rscale>
<asrwt>0</asrwt>
<pdfrwt beam="1">  1       21 0.12015902E+00 0.10595206E+04</pdfrwt>
<pdfrwt beam="2">  1       21 0.22983527E+00 0.10595206E+04</pdfrwt>
<totfact> 0.20463510E+01</totfact>
</mgrwt>
</event>
<event>
 8    1  0.7418332E-006  0.1003294E+04  0.7818608E-02  0.8772942E-01
         21   -1    0    0  501  502  0.00000000000E+00  0.00000000000E+00  0.86554948539E+03  0.86554948539E+03  0.00000000000E+00 0. -1.
         21   -1    0    0  502  503 -0.00000000000E+00 -0.00000000000E+00 -0.15381655003E+04  0.15381655003E+04  0.00000000000E+00 0. -1.
    9000010    2    1    2  501    0 -0.45387294063E+02 -0.72642290770E+02  0.26364050421E+03  0.10314266639E+04  0.99347759852E+03 0.  0.
   -9000010    2    1    2    0  503  0.45387294063E+02  0.72642290770E+02 -0.93625651909E+03  0.13722883217E+04  0.99963096166E+03 0.  0.
        -13    1    3    3    0    0  0.33908823264E+03  0.23850423329E+02  0.47351623251E+03  0.58289562172E+03  0.10566000000E+00 0.  1.
          4    1    3    3  501    0 -0.38447552670E+03 -0.96492714098E+02 -0.20987572831E+03  0.44853104222E+03  0.00000000000E+00 0.  1.
         13    1    4    4    0    0  0.31874292634E+02  0.14149642690E+03  0.19268203647E+03  0.24117128291E+03  0.10566000000E+00 0. -1.
         -4    1    4    4    0  503  0.13513001430E+02 -0.68854136132E+02 -0.11289385556E+04  0.11311170388E+04  0.00000000000E+00 0. -1.
<mgrwt>
<rscale>  2 0.10017578E+04</rscale>
<asrwt>0</asrwt>
<pdfrwt beam="1">  1       21 0.13316146E+00 0.10032941E+04</pdfrwt>
<pdfrwt beam="2">  1       21 0.23664085E+00 0.10032941E+04</pdfrwt>
<totfact> 0.13765946E+01</totfact>
</mgrwt>
</event>
<event>
 8    1  0.7418332E-006  0.1030812E+04  0.7818608E-02  0.8756146E-01
         21   -1    0    0  503  502  0.00000000000E+00  0.00000000000E+00  0.11636733551E+04  0.11636733551E+04  0.00000000000E+00 0.  1.
         21   -1    0    0  501  503 -0.00000000000E+00 -0.00000000000E+00 -0.89581107179E+03  0.89581107179E+03  0.00000000000E+00 0.  1.
    9000010    2    1    2  501    0 -0.21974833229E+03 -0.14792298540E+03 -0.18863867277E+02  0.10309846346E+04  0.99619422415E+03 0.  0.
   -9000010    2    1    2    0  502  0.21974833229E+03  0.14792298540E+03  0.28672615060E+03  0.10284997923E+04  0.95154053937E+03 0.  0.
        -13    1    3    3    0    0 -0.57824501069E+03 -0.23412718598E+03  0.12311648055E+03  0.63587774811E+03  0.10566000000E+00 0.  1.
          4    1    3    3  501    0  0.35849667839E+03  0.86204200578E+02 -0.14198034783E+03  0.39510688653E+03  0.00000000000E+00 0.  1.
         13    1    4    4    0    0 -0.18594826462E+03  0.41539486937E+03  0.29524232206E+03  0.54249211470E+03  0.10566000000E+00 0. -1.
         -4    1    4    4    0  502  0.40569659691E+03 -0.26747188397E+03 -0.85161714573E+01  0.48600767755E+03  0.00000000000E+00 0. -1.
<mgrwt>
<rscale>  2 0.10198671E+04</rscale>
<asrwt>0</asrwt>
<pdfrwt beam="1">  1       21 0.17902667E+00 0.10308120E+04</pdfrwt>
<pdfrwt beam="2">  1       21 0.13781709E+00 0.10308120E+04</pdfrwt>
<totfact> 0.34409487E+01</totfact>
</mgrwt>
</event>
<event>
 8    1  0.7418332E-006  0.1073733E+04  0.7818608E-02  0.8709828E-01
         21   -1    0    0  503  502  0.00000000000E+00  0.00000000000E+00  0.10267015082E+04  0.10267015082E+04  0.00000000000E+00 0. -1.
         21   -1    0    0  501  503 -0.00000000000E+00 -0.00000000000E+00 -0.16395877194E+04  0.16395877194E+04  0.00000000000E+00 0. -1.
    9000010    2    1    2  501    0 -0.35440611128E+03  0.15188802145E+03 -0.10610600748E+04  0.15095531573E+04  0.10021120644E+04 0.  0.
   -9000010    2    1    2    0  502  0.35440611128E+03 -0.15188802145E+03  0.44817386370E+03  0.11567360703E+04  0.99423581781E+03 0.  0.
        -13    1    3    3    0    0 -0.59845655898E+03 -0.38039038887E+01 -0.10631963240E+04  0.12200619481E+04  0.10566000000E+00 0.  1.
          4    1    3    3  501    0  0.24405044770E+03  0.15569192534E+03  0.21362492263E+01  0.28949120919E+03  0.00000000000E+00 0.  1.
         13    1    4    4    0    0  0.28269908072E+02 -0.14168214275E+03 -0.30413876047E+03  0.33670968810E+03  0.10566000000E+00 0. -1.
         -4    1    4    4    0  502  0.32613620321E+03 -0.10205878702E+02  0.75231262416E+03  0.82002638218E+03  0.00000000000E+00 0. -1.
<mgrwt>
<rscale>  2 0.10718913E+04</rscale>
<asrwt>0</asrwt>
<pdfrwt beam="1">  1       21 0.15795408E+00 0.10737329E+04</pdfrwt>
<pdfrwt beam="2">  1       21 0.25224426E+00 0.10737329E+04</pdfrwt>
<totfact> 0.61999015E+00</totfact>
</mgrwt>
</event>
<event>
 8    1  0.7418332E-006  0.1076094E+04  0.7818608E-02  0.8707119E-01
         21   -1    0    0  503  502  0.00000000000E+00  0.00000000000E+00  0.15812133891E+04  0.15812133891E+04  0.00000000000E+00 0. -1.
         21   -1    0    0  501  503 -0.00000000000E+00 -0.00000000000E+00 -0.75817168999E+03  0.75817168999E+03  0.00000000000E+00 0. -1.
    9000010    2    1    2  501    0  0.42634599237E+03  0.57170879370E+01  0.18309415686E+03  0.10873818955E+04  0.98339835573E+03 0.  0.
   -9000010    2    1    2    0  502 -0.42634599237E+03 -0.57170879370E+01  0.63994754222E+03  0.12520031836E+04  0.98801595360E+03 0.  0.
        -13    1    3    3    0    0 -0.97208884746E+02  0.30785807650E+03 -0.19234552485E+03  0.37579645373E+03  0.10566000000E+00 0.  1.
          4    1    3    3  501    0  0.52355487712E+03 -0.30214098856E+03  0.37543968172E+03  0.71158544176E+03  0.00000000000E+00 0.  1.
         13    1    4    4    0    0 -0.63706838674E+03  0.29778881509E+03  0.37178737888E+03  0.79546223923E+03  0.10566000000E+00 0. -1.
         -4    1    4    4    0  502  0.21072239437E+03 -0.30350590303E+03  0.26816016334E+03  0.45654094434E+03  0.00000000000E+00 0. -1.
<mgrwt>
<rscale>  2 0.10750333E+04</rscale>
<asrwt>0</asrwt>
<pdfrwt beam="1">  1       21 0.24326360E+00 0.10760944E+04</pdfrwt>
<pdfrwt beam="2">  1       21 0.11664180E+00 0.10760944E+04</pdfrwt>
<totfact> 0.17627875E+01</totfact>
</mgrwt>
</event>
<event>
 8    1  0.7418332E-006  0.1204853E+04  0.7818608E-02  0.8643203E-01
         21   -1    0    0  503  502  0.00000000000E+00  0.00000000000E+00  0.40541235971E+03  0.40541235971E+03  0.00000000000E+00 0.  1.
         21   -1    0    0  501  503 -0.00000000000E+00 -0.00000000000E+00 -0.31394157739E+04  0.31394157739E+04  0.00000000000E+00 0.  1.
    9000010    2    1    2  501    0 -0.19096080572E+03 -0.22467827941E+03 -0.90847019157E+03  0.13575369847E+04  0.96469799282E+03 0.  0.
   -9000010    2    1    2    0  502  0.19096080572E+03  0.22467827941E+03 -0.18255332227E+04  0.21872911489E+04  0.11682143059E+04 0.  0.
        -13    1    3    3    0    0 -0.19057222405E+03  0.34827281294E+03 -0.19446800283E+03  0.44207413417E+03  0.10566000000E+00 0.  1.
          4    1    3    3  501    0 -0.38858167146E+00 -0.57295109234E+03 -0.71400218874E+03  0.91546285055E+03  0.00000000000E+00 0.  1.
         13    1    4    4    0    0 -0.44382510454E+03 -0.13520344642E+03 -0.85834154652E+03  0.97571046781E+03  0.10566000000E+00 0. -1.
         -4    1    4    4    0  502  0.63478591026E+03  0.35988172583E+03 -0.96719167614E+03  0.12115806811E+04  0.00000000000E+00 0. -1.
<mgrwt>
<rscale>  2 0.11525164E+04</rscale>
<asrwt>0</asrwt>
<pdfrwt beam="1">  1       21 0.62371132E-01 0.12048531E+04</pdfrwt>
<pdfrwt beam="2">  1       21 0.48298705E+00 0.12048531E+04</pdfrwt>
<totfact> 0.17167292E+00</totfact>
</mgrwt>
</event>
<event>
 8    1  0.7418332E-006  0.1031606E+04  0.7818608E-02  0.8749245E-01
         21   -1    0    0  503  502  0.00000000000E+00  0.00000000000E+00  0.88773841036E+03  0.88773841036E+03  0.00000000000E+00 0. -1.
         21   -1    0    0  501  503 -0.00000000000E+00 -0.00000000000E+00 -0.12306601548E+04  0.12306601548E+04  0.00000000000E+00 0. -1.
    9000010    2    1    2  501    0 -0.33363496088E+02 -0.14829353419E+03  0.43083581522E+02  0.10325053883E+04  0.10203465523E+04 0.  0.
   -9000010    2    1    2    0  502  0.33363496088E+02  0.14829353419E+03 -0.38600532594E+03  0.10858931768E+04  0.10035236842E+04 0.  0.
        -13    1    3    3    0    0  0.21459857575E+03 -0.44840265152E+03 -0.23917239394E+03  0.55165290880E+03  0.10566000000E+00 0.  1.
          4    1    3    3  501    0 -0.24796207183E+03  0.30010911733E+03  0.28225597546E+03  0.48085247952E+03  0.00000000000E+00 0.  1.
         13    1    4    4    0    0  0.20669083951E+03  0.18526686349E+03 -0.68456297292E+03  0.73869573499E+03  0.10566000000E+00 0. -1.
         -4    1    4    4    0  502 -0.17332734342E+03 -0.36973329302E+02  0.29855764697E+03  0.34719744184E+03  0.00000000000E+00 0. -1.
<mgrwt>
<rscale>  2 0.10274217E+04</rscale>
<asrwt>0</asrwt>
<pdfrwt beam="1">  1       21 0.13657514E+00 0.10316061E+04</pdfrwt>
<pdfrwt beam="2">  1       21 0.18933233E+00 0.10316061E+04</pdfrwt>
<totfact> 0.29171430E+01</totfact>
</mgrwt>
</event>
<event>
 8    1  0.7418332E-006  0.1117173E+04  0.7818608E-02  0.8675039E-01
         21   -1    0    0  501  502  0.00000000000E+00  0.00000000000E+00  0.12425803449E+04  0.12425803449E+04  0.00000000000E+00 0. -1.
         21   -1    0    0  502  503 -0.00000000000E+00 -0.00000000000E+00 -0.10466798732E+04  0.10466798732E+04  0.00000000000E+00 0. -1.
    9000010    2    1    2  501    0  0.38087164463E+03 -0.19788324294E+03  0.36519029728E+03  0.11753469860E+04  0.10314337578E+04 0.  0.
   -9000010    2    1    2    0  503 -0.38087164463E+03  0.19788324294E+03 -0.16928982553E+03  0.11139132321E+04  0.10138652061E+04 0.  0.
        -13    1    3    3    0    0  0.51328172337E+03 -0.28844091686E+03 -0.17307480262E+03  0.61368655561E+03  0.10566000000E+00 0.  1.
          4    1    3    3  501    0 -0.13241007874E+03  0.90557673913E+02  0.53826509990E+03  0.56166043036E+03  0.00000000000E+00 0.  1.
         13    1    4    4    0    0 -0.44900222149E+03  0.38979321336E+03 -0.46502495181E+03  0.75484432901E+03  0.10566000000E+00 0. -1.
         -4    1    4    4    0  503  0.68130576852E+02 -0.19190997041E+03  0.29573512628E+03  0.35906890308E+03  0.00000000000E+00 0. -1.
<mgrwt>
<rscale>  2 0.11131014E+04</rscale>
<asrwt>0</asrwt>
<pdfrwt beam="1">  1       21 0.19116621E+00 0.11171735E+04</pdfrwt>
<pdfrwt beam="2">  1       21 0.16102767E+00 0.11171735E+04</pdfrwt>
<totfact> 0.16702899E+01</totfact>
</mgrwt>
</event>
<event>
 8    1  0.7418332E-006  0.1023914E+04  0.7818608E-02  0.8752940E-01
         21   -1    0    0  501  502  0.00000000000E+00  0.00000000000E+00  0.64988252249E+03  0.64988252249E+03  0.00000000000E+00 0. -1.
         21   -1    0    0  502  503 -0.00000000000E+00 -0.00000000000E+00 -0.16300661971E+04  0.16300661971E+04  0.00000000000E+00 0. -1.
    9000010    2    1    2  501    0  0.18711646398E+03  0.29137860208E+02 -0.61674989480E+03  0.11934475302E+04  0.10040293764E+04 0.  0.
   -9000010    2    1    2    0  503 -0.18711646398E+03 -0.29137860208E+02 -0.36343377980E+03  0.10865011894E+04  0.10062500366E+04 0.  0.
        -13    1    3    3    0    0 -0.33689702732E+03 -0.10945643859E+03 -0.54027478552E+03  0.64604734656E+03  0.10566000000E+00 0.  1.
          4    1    3    3  501    0  0.52401349131E+03  0.13859429880E+03 -0.76475109283E+02  0.54740018366E+03  0.00000000000E+00 0.  1.
         13    1    4    4    0    0 -0.32587153791E+03  0.99317464886E+02  0.26413034142E+03  0.43106967705E+03  0.10566000000E+00 0. -1.
         -4    1    4    4    0  503  0.13875507393E+03 -0.12845532509E+03 -0.62756412123E+03  0.65543151232E+03  0.00000000000E+00 0. -1.
<mgrwt>
<rscale>  2 0.10233684E+04</rscale>
<asrwt>0</asrwt>
<pdfrwt beam="1">  1       21 0.99981927E-01 0.10239144E+04</pdfrwt>
<pdfrwt beam="2">  1       21 0.25077941E+00 0.10239144E+04</pdfrwt>
<totfact> 0.23802085E+01</totfact>
</mgrwt>
</event>
<event>
 8    1  0.7418332E-006  0.1029976E+04  0.7818608E-02  0.8747849E-01
         21   -1    0    0  501  502  0.00000000000E+00  0.00000000000E+00  0.10338582030E+04  0.10338582030E+04  0.00000000000E+00 0.  1.
         21   -1    0    0  502  503 -0.00000000000E+00 -0.00000000000E+00 -0.11992048823E+04  0.11992048823E+04  0.00000000000E+00 0.  1.
    9000010    2    1    2  501    0 -0.13437822230E+03  0.16407201702E+03  0.34659403732E+03  0.10828748299E+04  0.10037496386E+04 0.  0.
   -9000010    2    1    2    0  503  0.13437822230E+03 -0.16407201702E+03 -0.51194071668E+03  0.11501882555E+04  0.10079050512E+04 0.  0.
        -13    1    3    3    0    0 -0.14390537674E+03  0.37470199909E+03 -0.23439280350E+03  0.46481215892E+03  0.10566000000E+00 0.  1.
          4    1    3    3  501    0  0.95271544434E+01 -0.21062998207E+03  0.58098684082E+03  0.61806267095E+03  0.00000000000E+00 0.  1.
         13    1    4    4    0    0 -0.24294420572E+03 -0.41136622989E+03 -0.13553842700E+02  0.47794118886E+03  0.10566000000E+00 0. -1.
         -4    1    4    4    0  503  0.37732242802E+03  0.24729421287E+03 -0.49838687398E+03  0.67224706661E+03  0.00000000000E+00 0. -1.
<mgrwt>
<rscale>  2 0.10289576E+04</rscale>
<asrwt>0</asrwt>
<pdfrwt beam="1">  1       21 0.15905511E+00 0.10299756E+04</pdfrwt>
<pdfrwt beam="2">  1       21 0.18449306E+00 0.10299756E+04</pdfrwt>
<totfact> 0.20035358E+01</totfact>
</mgrwt>
</event>
<event>
 8    1  0.7418332E-006  0.1034078E+04  0.7818608E-02  0.8747573E-01
         21   -1    0    0  503  502  0.00000000000E+00  0.00000000000E+00  0.55041059025E+03  0.55041059025E+03  0.00000000000E+00 0.  1.
         21   -1    0    0  501  503 -0.00000000000E+00 -0.00000000000E+00 -0.19093390534E+04  0.19093390534E+04  0.00000000000E+00 0.  1.
    9000010    2    1    2  501    0  0.19245919004E+03 -0.74700111568E+01 -0.72893028444E+03  0.12651708720E+04  0.10159830878E+04 0.  0.
   -9000010    2    1    2    0  502 -0.19245919004E+03  0.74700111568E+01 -0.62999817875E+03  0.11945787717E+04  0.99650609419E+03 0.  0.
        -13    1    3    3    0    0  0.30836332651E+01  0.49578044813E+03 -0.37097051604E+03  0.61921474181E+03  0.10566000000E+00 0.  1.
          4    1    3    3  501    0  0.18937555677E+03 -0.50325045929E+03 -0.35795976840E+03  0.64595613014E+03  0.00000000000E+00 0.  1.
         13    1    4    4    0    0  0.62014820868E+02  0.47497141749E+02 -0.85135724628E+03  0.85493332397E+03  0.10566000000E+00 0. -1.
         -4    1    4    4    0  502 -0.25447401090E+03 -0.40027130592E+02  0.22135906753E+03  0.33964544776E+03  0.00000000000E+00 0. -1.
<mgrwt>
<rscale>  2 0.10292624E+04</rscale>
<asrwt>0</asrwt>
<pdfrwt beam="1">  1       21 0.84678553E-01 0.10340783E+04</pdfrwt>
<pdfrwt beam="2">  1       21 0.29374447E+00 0.10340783E+04</pdfrwt>
<totfact> 0.17904434E+01</totfact>
</mgrwt>
</event>
<event>
 8    1  0.7418332E-006  0.1133466E+04  0.7818608E-02  0.8660841E-01
         21   -1    0    0  501  502  0.00000000000E+00  0.00000000000E+00  0.11091139004E+04  0.11091139004E+04  0.00000000000E+00 0.  1.
         21   -1    0    0  502  503 -0.00000000000E+00 -0.00000000000E+00 -0.14616261726E+04  0.14616261726E+04  0.00000000000E+00 0.  1.
    9000010    2    1    2  501    0  0.27834447403E+01 -0.49120389825E+03  0.42158429952E+03  0.11981620300E+04  0.10082509169E+04 0.  0.
   -9000010    2    1    2    0  503 -0.27834447403E+01  0.49120389825E+03 -0.77409657174E+03  0.13725780429E+04  0.10214969233E+04 0.  0.
        -13    1    3    3    0    0  0.25719975098E+03 -0.66805197098E+02  0.61260394357E+03  0.66775612997E+03  0.10566000000E+00 0.  1.
          4    1    3    3  501    0 -0.25441630624E+03 -0.42439870115E+03 -0.19101964405E+03  0.53040590007E+03  0.00000000000E+00 0.  1.
         13    1    4    4    0    0 -0.23729823731E+03 -0.34792592399E+02  0.15060488742E+03  0.28320102612E+03  0.10566000000E+00 0. -1.
         -4    1    4    4    0  503  0.23451479257E+03  0.52599649064E+03 -0.92470145916E+03  0.10893770168E+04  0.00000000000E+00 0. -1.
<mgrwt>
<rscale>  2 0.11304734E+04</rscale>
<asrwt>0</asrwt>
<pdfrwt beam="1">  1       21 0.17063291E+00 0.11334659E+04</pdfrwt>
<pdfrwt beam="2">  1       21 0.22486556E+00 0.11334659E+04</pdfrwt>
<totfact> 0.75850947E+00</totfact>
</mgrwt>
</event>
<event>
 8    1  0.7418332E-006  0.1140809E+04  0.7818608E-02  0.8654161E-01
         21   -1    0    0  501  502  0.00000000000E+00  0.00000000000E+00  0.15913520580E+04  0.15913520580E+04  0.00000000000E+00 0. -1.
         21   -1    0    0  502  503 -0.00000000000E+00 -0.00000000000E+00 -0.96417464890E+03  0.96417464890E+03  0.00000000000E+00 0. -1.
    9000010    2    1    2  501    0  0.27896973377E+03  0.47139909041E+03  0.82220119366E+03  0.14062215098E+04  0.10007012127E+04 0.  0.
   -9000010    2    1    2    0  503 -0.27896973377E+03 -0.47139909041E+03 -0.19502378452E+03  0.11493051971E+04  0.99137628818E+03 0.  0.
        -13    1    3    3    0    0  0.56304973369E+03  0.56800094197E+02  0.67844092889E+03  0.88347798981E+03  0.10566000000E+00 0.  1.
          4    1    3    3  501    0 -0.28407999992E+03  0.41459899621E+03  0.14376026477E+03  0.52274352004E+03  0.00000000000E+00 0.  1.
         13    1    4    4    0    0 -0.64669588099E+03 -0.26322378099E+03 -0.40542653333E+02  0.69938976206E+03  0.10566000000E+00 0. -1.
         -4    1    4    4    0  503  0.36772614722E+03 -0.20817530942E+03 -0.15448113119E+03  0.44991543505E+03  0.00000000000E+00 0. -1.
<mgrwt>
<rscale>  2 0.11387603E+04</rscale>
<asrwt>0</asrwt>
<pdfrwt beam="1">  1       21 0.24482339E+00 0.11408085E+04</pdfrwt>
<pdfrwt beam="2">  1       21 0.14833456E+00 0.11408085E+04</pdfrwt>
<totfact> 0.84103648E+00</totfact>
</mgrwt>
</event>
<event>
 8    1  0.7418332E-006  0.1031242E+04  0.7818608E-02  0.8746853E-01
         21   -1    0    0  501  502  0.00000000000E+00  0.00000000000E+00  0.13877551017E+04  0.13877551017E+04  0.00000000000E+00 0.  1.
         21   -1    0    0  502  503 -0.00000000000E+00 -0.00000000000E+00 -0.80979210980E+03  0.80979210980E+03  0.00000000000E+00 0.  1.
    9000010    2    1    2  501    0 -0.15499673739E+03 -0.93661269071E+02  0.24920294584E+02  0.10315432361E+04  0.10152162355E+04 0.  0.
   -9000010    2    1    2    0  503  0.15499673739E+03  0.93661269071E+02  0.55304269730E+03  0.11660039754E+04  0.10104022089E+04 0.  0.
        -13    1    3    3    0    0 -0.34621158182E+03  0.38311841621E+03 -0.12107567330E+02  0.51651600612E+03  0.10566000000E+00 0.  1.
          4    1    3    3  501    0  0.19121484444E+03 -0.47677968528E+03  0.37027861914E+02  0.51502722995E+03  0.00000000000E+00 0.  1.
         13    1    4    4    0    0  0.13184792288E+03 -0.89078004631E+02 -0.27500237347E+03  0.31771855825E+03  0.10566000000E+00 0. -1.
         -4    1    4    4    0  503  0.23148814512E+02  0.18273927370E+03  0.82804507078E+03  0.84828541718E+03  0.00000000000E+00 0. -1.
<mgrwt>
<rscale>  2 0.10300554E+04</rscale>
<asrwt>0</asrwt>
<pdfrwt beam="1">  1       21 0.21350078E+00 0.10312422E+04</pdfrwt>
<pdfrwt beam="2">  1       21 0.12458340E+00 0.10312422E+04</pdfrwt>
<totfact> 0.24675320E+01</totfact>
</mgrwt>
</event>
<event>
 8    1  0.7418332E-006  0.1015516E+04  0.7818608E-02  0.8796262E-01
         21   -1    0    0  503  502  0.00000000000E+00  0.00000000000E+00  0.14340677353E+04  0.14340677353E+04  0.00000000000E+00 0. -1.
         21   -1    0    0  501  503 -0.00000000000E+00 -0.00000000000E+00 -0.86011809508E+03  0.86011809508E+03  0.00000000000E+00 0. -1.
    9000010    2    1    2  501    0  0.93605543088E+02 -0.11503971500E+03 -0.30149729538E+03  0.10593265977E+04  0.10046273377E+04 0.  0.
   -9000010    2    1    2    0  502 -0.93605543088E+02  0.11503971500E+03  0.87544693559E+03  0.12348592327E+04  0.85818054853E+03 0.  0.
        -13    1    3    3    0    0  0.30994927386E+02  0.37580494428E+03  0.13397290849E+03  0.40017345369E+03  0.10566000000E+00 0.  1.
          4    1    3    3  501    0  0.62610615702E+02 -0.49084465927E+03 -0.43547020387E+03  0.65915314396E+03  0.00000000000E+00 0.  1.
         13    1    4    4    0    0  0.63030403429E+02 -0.20755543737E+02  0.99389092468E+03  0.99610381271E+03  0.10566000000E+00 0. -1.
         -4    1    4    4    0  502 -0.15663594652E+03  0.13579525873E+03 -0.11844398909E+03  0.23875542002E+03  0.00000000000E+00 0. -1.
<mgrwt>
<rscale>  2 0.97725364E+03</rscale>
<asrwt>0</asrwt>
<pdfrwt beam="1">  1       21 0.22062580E+00 0.10155157E+04</pdfrwt>
<pdfrwt beam="2">  1       21 0.13232586E+00 0.10155157E+04</pdfrwt>
<totfact> 0.18396551E+01</totfact>
</mgrwt>
</event>
<event>
 8    1  0.7418332E-006  0.1100325E+04  0.7818608E-02  0.8688292E-01
         21   -1    0    0  503  502  0.00000000000E+00  0.00000000000E+00  0.66101758322E+03  0.66101758322E+03  0.00000000000E+00 0. -1.
         21   -1    0    0  501  503 -0.00000000000E+00 -0.00000000000E+00 -0.23763875789E+04  0.23763875789E+04  0.00000000000E+00 0. -1.
    9000010    2    1    2  501    0 -0.42515070817E+03  0.11103940423E+02 -0.11303755493E+03  0.10936501262E+04  0.10012076146E+04 0.  0.
   -9000010    2    1    2    0  502  0.42515070817E+03 -0.11103940423E+02 -0.16023324408E+04  0.19437550359E+04  0.10148093253E+04 0.  0.
        -13    1    3    3    0    0 -0.65583600882E+03 -0.19839190790E+03  0.13131339755E+03  0.69765567376E+03  0.10566000000E+00 0.  1.
          4    1    3    3  501    0  0.23068530065E+03  0.20949584832E+03 -0.24435095248E+03  0.39599445246E+03  0.00000000000E+00 0.  1.
         13    1    4    4    0    0  0.40771303362E+03 -0.33010009637E+03 -0.30318162978E+03  0.60590024196E+03  0.10566000000E+00 0. -1.
         -4    1    4    4    0  502  0.17437674546E+02  0.31899615595E+03 -0.12991508110E+04  0.13378547940E+04  0.00000000000E+00 0. -1.
<mgrwt>
<rscale>  2 0.10971782E+04</rscale>
<asrwt>0</asrwt>
<pdfrwt beam="1">  1       21 0.10169501E+00 0.11003247E+04</pdfrwt>
<pdfrwt beam="2">  1       21 0.36559808E+00 0.11003247E+04</pdfrwt>
<totfact> 0.34420896E+00</totfact>
</mgrwt>
</event>
<event>
 8    1  0.7418332E-006  0.1041266E+04  0.7818608E-02  0.8807409E-01
         21   -1    0    0  503  502  0.00000000000E+00  0.00000000000E+00  0.87818146572E+03  0.87818146572E+03  0.00000000000E+00 0. -1.
         21   -1    0    0  501  503 -0.00000000000E+00 -0.00000000000E+00 -0.98617103066E+03  0.98617103066E+03  0.00000000000E+00 0. -1.
    9000010    2    1    2  501    0  0.70785049120E+02  0.26773051260E+03 -0.25722920485E+03  0.81244568745E+03  0.71917381812E+03 0.  0.
   -9000010    2    1    2    0  502 -0.70785049120E+02 -0.26773051260E+03  0.14923963992E+03  0.10519068089E+04  0.10037655672E+04 0.  0.
        -13    1    3    3    0    0 -0.38356001695E+02 -0.22888723349E+02 -0.44658653375E+03  0.44881468316E+03  0.10566000000E+00 0.  1.
          4    1    3    3  501    0  0.10914105082E+03  0.29061923594E+03  0.18935732890E+03  0.36363100429E+03  0.00000000000E+00 0.  1.
         13    1    4    4    0    0  0.41401528360E+03  0.61106764536E+01  0.25341050680E+03  0.48545122468E+03  0.10566000000E+00 0. -1.
         -4    1    4    4    0  502 -0.48480033272E+03 -0.27384118905E+03 -0.10417086689E+03  0.56645558425E+03  0.00000000000E+00 0. -1.
<mgrwt>
<rscale>  2 0.96579649E+03</rscale>
<asrwt>0</asrwt>
<pdfrwt beam="1">  1       21 0.13510484E+00 0.10412663E+04</pdfrwt>
<pdfrwt beam="2">  1       21 0.15171862E+00 0.10412663E+04</pdfrwt>
<totfact> 0.62137438E+01</totfact>
</mgrwt>
</event>
<event>
 8    1  0.7418332E-006  0.1099691E+04  0.7818608E-02  0.8694108E-01
         21   -1    0    0  503  502  0.00000000000E+00  0.00000000000E+00  0.14332088498E+04  0.14332088498E+04  0.00000000000E+00 0. -1.
         21   -1    0    0  501  503 -0.00000000000E+00 -0.00000000000E+00 -0.93876305379E+03  0.93876305379E+03  0.00000000000E+00 0. -1.
    9000010    2    1    2  501    0 -0.33467272524E+03 -0.30674451902E+03 -0.18615431373E+03  0.10787060819E+04  0.96065360542E+03 0.  0.
   -9000010    2    1    2    0  502  0.33467272524E+03  0.30674451902E+03  0.68060010970E+03  0.12932658217E+04  0.10016096761E+04 0.  0.
        -13    1    3    3    0    0  0.12626972850E+03 -0.53318489158E+03 -0.11981807051E+03  0.56088016022E+03  0.10566000000E+00 0.  1.
          4    1    3    3  501    0 -0.46094245374E+03  0.22644037256E+03 -0.66336243217E+02  0.51782592166E+03  0.00000000000E+00 0.  1.
         13    1    4    4    0    0 -0.33742013229E+03  0.15312081580E+03  0.41001803828E+03  0.55264195713E+03  0.10566000000E+00 0. -1.
         -4    1    4    4    0  502  0.67209285752E+03  0.15362370323E+03  0.27058207142E+03  0.74062386452E+03  0.00000000000E+00 0. -1.
<mgrwt>
<rscale>  2 0.10902785E+04</rscale>
<asrwt>0</asrwt>
<pdfrwt beam="1">  1       21 0.22049367E+00 0.10996909E+04</pdfrwt>
<pdfrwt beam="2">  1       21 0.14442509E+00 0.10996909E+04</pdfrwt>
<totfact> 0.13951919E+01</totfact>
</mgrwt>
</event>
<event>
 8    1  0.7418332E-006  0.1081967E+04  0.7818608E-02  0.8708749E-01
         21   -1    0    0  503  502  0.00000000000E+00  0.00000000000E+00  0.10651159456E+04  0.10651159456E+04  0.00000000000E+00 0. -1.
         21   -1    0    0  501  503 -0.00000000000E+00 -0.00000000000E+00 -0.10900846534E+04  0.10900846534E+04  0.00000000000E+00 0. -1.
    9000010    2    1    2  501    0  0.25944748402E+03  0.30480238943E+03 -0.17912130015E+03  0.10623076526E+04  0.96757202055E+03 0.  0.
   -9000010    2    1    2    0  502 -0.25944748402E+03 -0.30480238943E+03  0.15415259229E+03  0.10928929464E+04  0.10052036993E+04 0.  0.
        -13    1    3    3    0    0 -0.29061957874E+03 -0.10612716645E+03 -0.21175951873E+03  0.37491975134E+03  0.10566000000E+00 0.  1.
          4    1    3    3  501    0  0.55006706276E+03  0.41092955588E+03  0.32638218582E+02  0.68738790122E+03  0.00000000000E+00 0.  1.
         13    1    4    4    0    0  0.14411828663E+02 -0.64481914771E+03  0.10644253546E+03  0.65370441224E+03  0.10566000000E+00 0. -1.
         -4    1    4    4    0  502 -0.27385931268E+03  0.34001675828E+03  0.47710056827E+02  0.43918853420E+03  0.00000000000E+00 0. -1.
<mgrwt>
<rscale>  2 0.10731420E+04</rscale>
<asrwt>0</asrwt>
<pdfrwt beam="1">  1       21 0.16386399E+00 0.10819667E+04</pdfrwt>
<pdfrwt beam="2">  1       21 0.16770533E+00 0.10819667E+04</pdfrwt>
<totfact> 0.24766882E+01</totfact>
</mgrwt>
</event>
<event>
 8    1  0.7418332E-006  0.1046775E+04  0.7818608E-02  0.8740492E-01
         21   -1    0    0  501  502  0.00000000000E+00  0.00000000000E+00  0.18836154780E+04  0.18836154780E+04  0.00000000000E+00 0.  1.
         21   -1    0    0  502  503 -0.00000000000E+00 -0.00000000000E+00 -0.59107292102E+03  0.59107292102E+03  0.00000000000E+00 0.  1.
    9000010    2    1    2  501    0 -0.20110536330E+03  0.78029484192E+02  0.37724325415E+03  0.11126773652E+04  0.10243078047E+04 0.  0.
   -9000010    2    1    2    0  503  0.20110536330E+03 -0.78029484192E+02  0.91529930282E+03  0.13620110338E+04  0.98527624291E+03 0.  0.
        -13    1    3    3    0    0  0.92538176631E+02  0.23878635666E+03  0.63855763390E+03  0.68799571309E+03  0.10566000000E+00 0.  1.
          4    1    3    3  501    0 -0.29364353994E+03 -0.16075687247E+03 -0.26131437975E+03  0.42468165213E+03  0.00000000000E+00 0.  1.
         13    1    4    4    0    0  0.20328765261E+03 -0.19802871348E+03  0.11031625120E+04  0.11390824291E+04  0.10566000000E+00 0. -1.
         -4    1    4    4    0  503 -0.21822893082E+01  0.11999922928E+03 -0.18786320923E+03  0.22292860471E+03  0.00000000000E+00 0. -1.
<mgrwt>
<rscale>  2 0.10371016E+04</rscale>
<asrwt>0</asrwt>
<pdfrwt beam="1">  1       21 0.28978699E+00 0.10467753E+04</pdfrwt>
<pdfrwt beam="2">  1       21 0.90934297E-01 0.10467753E+04</pdfrwt>
<totfact> 0.15876510E+01</totfact>
</mgrwt>
</event>
<event>
 8    1  0.7418332E-006  0.1006728E+04  0.7818608E-02  0.8773454E-01
         21   -1    0    0  501  502  0.00000000000E+00  0.00000000000E+00  0.62088764596E+03  0.62088764596E+03  0.00000000000E+00 0. -1.
         21   -1    0    0  502  503 -0.00000000000E+00 -0.00000000000E+00 -0.18680482122E+04  0.18680482122E+04  0.00000000000E+00 0. -1.
    9000010    2    1    2  501    0 -0.98303333092E+02 -0.34431241192E+02 -0.15547030004E+03  0.10186617776E+04  0.10013249958E+04 0.  0.
   -9000010    2    1    2    0  503  0.98303333092E+02  0.34431241192E+02 -0.10916902662E+04  0.14702740806E+04  0.97932077437E+03 0.  0.
        -13    1    3    3    0    0 -0.64698646192E+02  0.41598850837E+03 -0.32951831441E+03  0.53461639015E+03  0.10566000000E+00 0.  1.
          4    1    3    3  501    0 -0.33604686899E+02 -0.45041974957E+03  0.17404801437E+03  0.48404538742E+03  0.00000000000E+00 0.  1.
         13    1    4    4    0    0  0.48520108011E+03 -0.17558552541E+03 -0.76205328703E+03  0.92031276657E+03  0.10566000000E+00 0. -1.
         -4    1    4    4    0  503 -0.38689774702E+03  0.21001676660E+03 -0.32963697918E+03  0.54996131404E+03  0.00000000000E+00 0. -1.
<mgrwt>
<rscale>  2 0.10012117E+04</rscale>
<asrwt>0</asrwt>
<pdfrwt beam="1">  1       21 0.95521177E-01 0.10067278E+04</pdfrwt>
<pdfrwt beam="2">  1       21 0.28739203E+00 0.10067278E+04</pdfrwt>
<totfact> 0.14693182E+01</totfact>
</mgrwt>
</event>
<event>
 8    1  0.7418332E-006  0.9896418E+03  0.7818608E-02  0.8793054E-01
         21   -1    0    0  503  502  0.00000000000E+00  0.00000000000E+00  0.47361051091E+03  0.47361051091E+03  0.00000000000E+00 0. -1.
         21   -1    0    0  501  503 -0.00000000000E+00 -0.00000000000E+00 -0.20984247327E+04  0.20984247327E+04  0.00000000000E+00 0. -1.
    9000010    2    1    2  501    0 -0.64415654649E+02 -0.66713745822E+02 -0.10851820196E+04  0.14448290446E+04  0.94937392641E+03 0.  0.
   -9000010    2    1    2    0  502  0.64415654649E+02  0.66713745822E+02 -0.53963220220E+03  0.11272061990E+04  0.98528716672E+03 0.  0.
        -13    1    3    3    0    0  0.26184904672E+03 -0.21809945516E+03 -0.44413884323E+02  0.34366393453E+03  0.10566000000E+00 0.  1.
          4    1    3    3  501    0 -0.32626470137E+03  0.15138570934E+03 -0.10407681352E+04  0.11011651101E+04  0.00000000000E+00 0.  1.
         13    1    4    4    0    0  0.21272862367E+02 -0.42603403745E+03 -0.45801025327E+03  0.62588412586E+03  0.10566000000E+00 0. -1.
         -4    1    4    4    0  502  0.43142792283E+02  0.49274778327E+03 -0.81621948930E+02  0.50132207311E+03  0.00000000000E+00 0. -1.
<mgrwt>
<rscale>  2 0.98058080E+03</rscale>
<asrwt>0</asrwt>
<pdfrwt beam="1">  1       21 0.72863157E-01 0.98964180E+03</pdfrwt>
<pdfrwt beam="2">  1       21 0.32283457E+00 0.98964180E+03</pdfrwt>
<totfact> 0.16256662E+01</totfact>
</mgrwt>
</event>
<event>
 8    1  0.7418332E-006  0.1174933E+04  0.7818608E-02  0.8654959E-01
         21   -1    0    0  503  502  0.00000000000E+00  0.00000000000E+00  0.77120892623E+03  0.77120892623E+03  0.00000000000E+00 0. -1.
         21   -1    0    0  501  503 -0.00000000000E+00 -0.00000000000E+00 -0.17963476881E+04  0.17963476881E+04  0.00000000000E+00 0. -1.
    9000010    2    1    2  501    0  0.24620940627E+03  0.66312822418E+02 -0.97375303896E+02  0.11789615408E+04  0.11469315162E+04 0.  0.
   -9000010    2    1    2    0  502 -0.24620940627E+03 -0.66312822418E+02 -0.92776345798E+03  0.13885950735E+04  0.10012166509E+04 0.  0.
        -13    1    3    3    0    0  0.97131110146E+02  0.58844659502E+03 -0.19454454037E+03  0.62733678124E+03  0.10566000000E+00 0.  1.
          4    1    3    3  501    0  0.14907829612E+03 -0.52213377260E+03  0.97169236477E+02  0.55162475958E+03  0.00000000000E+00 0.  1.
         13    1    4    4    0    0 -0.22596861185E+03 -0.24547882898E+03  0.97495801043E+02  0.34760194390E+03  0.10566000000E+00 0. -1.
         -4    1    4    4    0  502 -0.20240794413E+02  0.17916600656E+03 -0.10252592590E+04  0.10409931296E+04  0.00000000000E+00 0. -1.
<mgrwt>
<rscale>  2 0.11377672E+04</rscale>
<asrwt>0</asrwt>
<pdfrwt beam="1">  1       21 0.11864753E+00 0.11749333E+04</pdfrwt>
<pdfrwt beam="2">  1       21 0.27636118E+00 0.11749333E+04</pdfrwt>
<totfact> 0.94910669E+00</totfact>
</mgrwt>
</event>
<event>
 8    1  0.7418332E-006  0.1075837E+04  0.7818608E-02  0.8713323E-01
         21   -1    0    0  501  502  0.00000000000E+00  0.00000000000E+00  0.11872986681E+04  0.11872986681E+04  0.00000000000E+00 0.  1.
         21   -1    0    0  502  503 -0.00000000000E+00 -0.00000000000E+00 -0.10653256203E+04  0.10653256203E+04  0.00000000000E+00 0.  1.
    9000010    2    1    2  501    0 -0.25519180756E+03 -0.11070448066E+03  0.43639637365E+03  0.11317822601E+04  0.10065341269E+04 0.  0.
   -9000010    2    1    2    0  503  0.25519180756E+03  0.11070448066E+03 -0.31442332577E+03  0.11208420284E+04  0.10392528490E+04 0.  0.
        -13    1    3    3    0    0 -0.21261213726E+02 -0.48034230190E+03 -0.43083994344E+02  0.48273906817E+03  0.10566000000E+00 0.  1.
          4    1    3    3  501    0 -0.23393059384E+03  0.36963782125E+03  0.47948036800E+03  0.64904319188E+03  0.00000000000E+00 0.  1.
         13    1    4    4    0    0 -0.29812503080E+03  0.16729849899E+03 -0.43345705076E+03  0.55204379153E+03  0.10566000000E+00 0. -1.
         -4    1    4    4    0  503  0.55331683836E+03 -0.56594018332E+02  0.11903372499E+03  0.56879823682E+03  0.00000000000E+00 0. -1.
<mgrwt>
<rscale>  2 0.10678555E+04</rscale>
<asrwt>0</asrwt>
<pdfrwt beam="1">  1       21 0.18266133E+00 0.10758368E+04</pdfrwt>
<pdfrwt beam="2">  1       21 0.16389625E+00 0.10758368E+04</pdfrwt>
<totfact> 0.18640891E+01</totfact>
</mgrwt>
</event>
<event>
 8    1  0.7418332E-006  0.1051622E+04  0.7818608E-02  0.8729539E-01
         21   -1    0    0  501  502  0.00000000000E+00  0.00000000000E+00  0.11958430232E+04  0.11958430232E+04  0.00000000000E+00 0. -1.
         21   -1    0    0  502  503 -0.00000000000E+00 -0.00000000000E+00 -0.11556280639E+04  0.11556280639E+04  0.00000000000E+00 0. -1.
    9000010    2    1    2  501    0 -0.25879858037E+02 -0.29329932327E+03  0.55440733170E+03  0.11808716013E+04  0.10001979750E+04 0.  0.
   -9000010    2    1    2    0  503  0.25879858037E+02  0.29329932327E+03 -0.51419237240E+03  0.11705994859E+04  0.10095618359E+04 0.  0.
        -13    1    3    3    0    0  0.14480489731E+03 -0.57839764824E+03  0.59951704052E+03  0.84553710198E+03  0.10566000000E+00 0.  1.
          4    1    3    3  501    0 -0.17068475535E+03  0.28509832498E+03 -0.45109708821E+02  0.33533449933E+03  0.00000000000E+00 0.  1.
         13    1    4    4    0    0  0.30895483604E+03  0.48133000745E+03 -0.59073457384E+03  0.82225240327E+03  0.10566000000E+00 0. -1.
         -4    1    4    4    0  503 -0.28307497800E+03 -0.18803068418E+03  0.76542201443E+02  0.34834708261E+03  0.00000000000E+00 0. -1.
<mgrwt>
<rscale>  2 0.10493685E+04</rscale>
<asrwt>0</asrwt>
<pdfrwt beam="1">  1       21 0.18397585E+00 0.10516223E+04</pdfrwt>
<pdfrwt beam="2">  1       21 0.17778893E+00 0.10516223E+04</pdfrwt>
<totfact> 0.13994868E+01</totfact>
</mgrwt>
</event>
<event>
 8    1  0.7418332E-006  0.1104312E+04  0.7818608E-02  0.8685204E-01
         21   -1    0    0  503  502  0.00000000000E+00  0.00000000000E+00  0.73831801238E+03  0.73831801238E+03  0.00000000000E+00 0.  1.
         21   -1    0    0  501  503 -0.00000000000E+00 -0.00000000000E+00 -0.19691782691E+04  0.19691782691E+04  0.00000000000E+00 0.  1.
    9000010    2    1    2  501    0 -0.20664150556E+03  0.38068036292E+03 -0.11793954926E+04  0.16156977168E+04  0.10158184551E+04 0.  0.
   -9000010    2    1    2    0  502  0.20664150556E+03 -0.38068036292E+03 -0.51464764146E+02  0.10917985646E+04  0.10008782310E+04 0.  0.
        -13    1    3    3    0    0  0.38373219228E+03  0.71049855809E+02 -0.22171988862E+03  0.44884094908E+03  0.10566000000E+00 0.  1.
          4    1    3    3  501    0 -0.59037369784E+03  0.30963050711E+03 -0.95767560393E+03  0.11668567677E+04  0.00000000000E+00 0.  1.
         13    1    4    4    0    0  0.27817344834E+03 -0.27289456119E+03  0.43757501396E+03  0.58593840366E+03  0.10566000000E+00 0. -1.
         -4    1    4    4    0  502 -0.71531942780E+02 -0.10778580174E+03 -0.48903977810E+03  0.50586016097E+03  0.00000000000E+00 0. -1.
<mgrwt>
<rscale>  2 0.11008643E+04</rscale>
<asrwt>0</asrwt>
<pdfrwt beam="1">  1       21 0.11358739E+00 0.11043122E+04</pdfrwt>
<pdfrwt beam="2">  1       21 0.30295050E+00 0.11043122E+04</pdfrwt>
<totfact> 0.70366606E+00</totfact>
</mgrwt>
</event>
<event>
 8    1  0.7418332E-006  0.1062594E+04  0.7818608E-02  0.8728414E-01
         21   -1    0    0  503  502  0.00000000000E+00  0.00000000000E+00  0.78395981737E+03  0.78395981737E+03  0.00000000000E+00 0.  1.
         21   -1    0    0  501  503 -0.00000000000E+00 -0.00000000000E+00 -0.14610788598E+04  0.14610788598E+04  0.00000000000E+00 0.  1.
    9000010    2    1    2  501    0 -0.98142046393E+02 -0.16596390399E+03 -0.61461809962E+03  0.12275426606E+04  0.10449543993E+04 0.  0.
   -9000010    2    1    2    0  502  0.98142046393E+02  0.16596390399E+03 -0.62500942809E+02  0.10174960165E+04  0.99710375442E+03 0.  0.
        -13    1    3    3    0    0  0.15170284558E+03 -0.42783927934E+03  0.64008704516E+02  0.45842919597E+03  0.10566000000E+00 0.  1.
          4    1    3    3  501    0 -0.24984489197E+03  0.26187537534E+03 -0.67862680414E+03  0.76911346468E+03  0.00000000000E+00 0.  1.
         13    1    4    4    0    0  0.43033615437E+02 -0.41110879400E+03 -0.13135314046E+03  0.43372340407E+03  0.10566000000E+00 0. -1.
         -4    1    4    4    0  502  0.55108430956E+02  0.57707269799E+03  0.68852197649E+02  0.58377261245E+03  0.00000000000E+00 0. -1.
<mgrwt>
<rscale>  2 0.10506388E+04</rscale>
<asrwt>0</asrwt>
<pdfrwt beam="1">  1       21 0.12060920E+00 0.10625938E+04</pdfrwt>
<pdfrwt beam="2">  1       21 0.22478136E+00 0.10625938E+04</pdfrwt>
<totfact> 0.22071237E+01</totfact>
</mgrwt>
</event>
<event>
 8    1  0.7418332E-006  0.1025764E+04  0.7818608E-02  0.8751626E-01
         21   -1    0    0  503  502  0.00000000000E+00  0.00000000000E+00  0.82679935208E+03  0.82679935208E+03  0.00000000000E+00 0. -1.
         21   -1    0    0  501  503 -0.00000000000E+00 -0.00000000000E+00 -0.14522753105E+04  0.14522753105E+04  0.00000000000E+00 0. -1.
    9000010    2    1    2  501    0 -0.22647351259E+01  0.23058535963E+03 -0.71828756209E+03  0.12491202598E+04  0.99558508655E+03 0.  0.
   -9000010    2    1    2    0  502  0.22647351259E+01 -0.23058535963E+03  0.92811603629E+02  0.10299544028E+04  0.99950854971E+03 0.  0.
        -13    1    3    3    0    0 -0.32108434100E+03  0.49277580217E+03 -0.54362018595E+03  0.80090327941E+03  0.10566000000E+00 0.  1.
          4    1    3    3  501    0  0.31881960587E+03 -0.26219044254E+03 -0.17466737614E+03  0.44821698042E+03  0.00000000000E+00 0.  1.
         13    1    4    4    0    0 -0.17079797592E+03  0.24306061009E+03  0.35393619066E+03  0.46208359306E+03  0.10566000000E+00 0. -1.
         -4    1    4    4    0  502  0.17306271105E+03 -0.47364596971E+03 -0.26112458704E+03  0.56787080972E+03  0.00000000000E+00 0. -1.
<mgrwt>
<rscale>  2 0.10248071E+04</rscale>
<asrwt>0</asrwt>
<pdfrwt beam="1">  1       21 0.12719990E+00 0.10257641E+04</pdfrwt>
<pdfrwt beam="2">  1       21 0.22342697E+00 0.10257641E+04</pdfrwt>
<totfact> 0.19592324E+01</totfact>
</mgrwt>
</event>
<event>
 8    1  0.7418332E-006  0.1033462E+04  0.7818608E-02  0.8745642E-01
         21   -1    0    0  503  502  0.00000000000E+00  0.00000000000E+00  0.10208925114E+04  0.10208925114E+04  0.00000000000E+00 0. -1.
         21   -1    0    0  501  503 -0.00000000000E+00 -0.00000000000E+00 -0.12654072087E+04  0.12654072087E+04  0.00000000000E+00 0. -1.
    9000010    2    1    2  501    0 -0.18780128387E+03 -0.11782667802E+03  0.36210565267E+03  0.10950638439E+04  0.10094017388E+04 0.  0.
   -9000010    2    1    2    0  502  0.18780128387E+03  0.11782667802E+03 -0.60662034997E+03  0.11912358763E+04  0.10009506559E+04 0.  0.
        -13    1    3    3    0    0 -0.18218445024E+03  0.30047297442E+03 -0.19227359499E+03  0.40055502589E+03  0.10566000000E+00 0.  1.
          4    1    3    3  501    0 -0.56168336235E+01 -0.41829965244E+03  0.55437924765E+03  0.69450881800E+03  0.00000000000E+00 0.  1.
         13    1    4    4    0    0  0.44446605134E+03  0.34224011458E+03 -0.83964954471E+02  0.56721115254E+03  0.10566000000E+00 0. -1.
         -4    1    4    4    0  502 -0.25666476748E+03 -0.22441343656E+03 -0.52265539550E+03  0.62402472372E+03  0.00000000000E+00 0. -1.
<mgrwt>
<rscale>  2 0.10313929E+04</rscale>
<asrwt>0</asrwt>
<pdfrwt beam="1">  1       21 0.15706039E+00 0.10334623E+04</pdfrwt>
<pdfrwt beam="2">  1       21 0.19467803E+00 0.10334623E+04</pdfrwt>
<totfact> 0.17278028E+01</totfact>
</mgrwt>
</event>
<event>
 8    1  0.7418332E-006  0.1003398E+04  0.7818608E-02  0.8784350E-01
         21   -1    0    0  503  502  0.00000000000E+00  0.00000000000E+00  0.40451409682E+03  0.40451409682E+03  0.00000000000E+00 0.  1.
         21   -1    0    0  501  503 -0.00000000000E+00 -0.00000000000E+00 -0.25414291769E+04  0.25414291769E+04  0.00000000000E+00 0.  1.
    9000010    2    1    2  501    0 -0.90408266966E+02  0.54000632034E+02 -0.14920177572E+04  0.17980337776E+04  0.99785708135E+03 0.  0.
   -9000010    2    1    2    0  502  0.90408266966E+02 -0.54000632034E+02 -0.64489732293E+03  0.11479094961E+04  0.94377642011E+03 0.  0.
        -13    1    3    3    0    0  0.23006271679E+03  0.44215278240E+03 -0.69127892712E+03  0.85222913754E+03  0.10566000000E+00 0.  1.
          4    1    3    3  501    0 -0.32047098375E+03 -0.38815215036E+03 -0.80073883007E+03  0.94580464011E+03  0.00000000000E+00 0.  1.
         13    1    4    4    0    0 -0.33221641339E+02  0.14515361854E+03 -0.83371781427E+03  0.84691124413E+03  0.10566000000E+00 0. -1.
         -4    1    4    4    0  502  0.12362990830E+03 -0.19915425057E+03  0.18882049134E+03  0.30099825199E+03  0.00000000000E+00 0. -1.
<mgrwt>
<rscale>  2 0.98967836E+03</rscale>
<asrwt>0</asrwt>
<pdfrwt beam="1">  1       21 0.62232937E-01 0.10033985E+04</pdfrwt>
<pdfrwt beam="2">  1       21 0.39098911E+00 0.10033985E+04</pdfrwt>
<totfact> 0.78100204E+00</totfact>
</mgrwt>
</event>
<event>
 8    1  0.7418332E-006  0.1003804E+04  0.7818608E-02  0.8784301E-01
         21   -1    0    0  503  502  0.00000000000E+00  0.00000000000E+00  0.71608847676E+03  0.71608847676E+03  0.00000000000E+00 0.  1.
         21   -1    0    0  501  503 -0.00000000000E+00 -0.00000000000E+00 -0.15086768024E+04  0.15086768024E+04  0.00000000000E+00 0.  1.
    9000010    2    1    2  501    0 -0.16678817091E+02  0.63330778493E+02 -0.78787104384E+03  0.12760734409E+04  0.10016654504E+04 0.  0.
   -9000010    2    1    2    0  502  0.16678817091E+02 -0.63330778493E+02 -0.47172818204E+01  0.94869183826E+03  0.94641691701E+03 0.  0.
        -13    1    3    3    0    0 -0.19944909195E+03 -0.43198981106E+03 -0.36864998772E+03  0.60191192192E+03  0.10566000000E+00 0.  1.
          4    1    3    3  501    0  0.18277027486E+03  0.49532058955E+03 -0.41922105611E+03  0.67416151900E+03  0.00000000000E+00 0.  1.
         13    1    4    4    0    0 -0.46269183901E+03 -0.68145786399E+02 -0.29882749987E+02  0.46863693409E+03  0.10566000000E+00 0. -1.
         -4    1    4    4    0  502  0.47937065610E+03  0.48150079066E+01  0.25165468167E+02  0.48005490417E+03  0.00000000000E+00 0. -1.
<mgrwt>
<rscale>  2 0.98972985E+03</rscale>
<asrwt>0</asrwt>
<pdfrwt beam="1">  1       21 0.11016746E+00 0.10038041E+04</pdfrwt>
<pdfrwt beam="2">  1       21 0.23210412E+00 0.10038041E+04</pdfrwt>
<totfact> 0.25318167E+01</totfact>
</mgrwt>
</event>
<event>
 8    1  0.7418332E-006  0.1005708E+04  0.7818608E-02  0.8776846E-01
         21   -1    0    0  503  502  0.00000000000E+00  0.00000000000E+00  0.86045373332E+03  0.86045373332E+03  0.00000000000E+00 0. -1.
         21   -1    0    0  501  503 -0.00000000000E+00 -0.00000000000E+00 -0.14024111343E+04  0.14024111343E+04  0.00000000000E+00 0. -1.
    9000010    2    1    2  501    0 -0.59991547418E+02 -0.76708712832E+02 -0.76544522003E+03  0.12638650241E+04  0.10009821187E+04 0.  0.
   -9000010    2    1    2    0  502  0.59991547418E+02  0.76708712832E+02  0.22348781901E+03  0.99899984354E+03  0.96879857027E+03 0.  0.
        -13    1    3    3    0    0  0.17261130907E+03 -0.43882431374E+03 -0.67610347684E+03  0.82430417014E+03  0.10566000000E+00 0.  1.
          4    1    3    3  501    0 -0.23260285649E+03  0.36211560091E+03 -0.89341743187E+02  0.43956085397E+03  0.00000000000E+00 0.  1.
         13    1    4    4    0    0 -0.31587171482E+02  0.29586976946E+03  0.53205176363E+03  0.60960295293E+03  0.10566000000E+00 0. -1.
         -4    1    4    4    0  502  0.91578718900E+02 -0.21916105663E+03 -0.30856394462E+03  0.38939689061E+03  0.00000000000E+00 0. -1.
<mgrwt>
<rscale>  2 0.99760365E+03</rscale>
<asrwt>0</asrwt>
<pdfrwt beam="1">  1       21 0.13237750E+00 0.10057079E+04</pdfrwt>
<pdfrwt beam="2">  1       21 0.21575556E+00 0.10057079E+04</pdfrwt>
<totfact> 0.20045790E+01</totfact>
</mgrwt>
</event>
<event>
 8    1  0.7418332E-006  0.1020610E+04  0.7818608E-02  0.8764291E-01
         21   -1    0    0  503  502  0.00000000000E+00  0.00000000000E+00  0.18134706612E+04  0.18134706612E+04  0.00000000000E+00 0. -1.
         21   -1    0    0  501  503 -0.00000000000E+00 -0.00000000000E+00 -0.78577227350E+03  0.78577227350E+03  0.00000000000E+00 0. -1.
    9000010    2    1    2  501    0  0.13803569293E+03  0.38183017156E+02 -0.19971775262E+03  0.10029363683E+04  0.97235918411E+03 0.  0.
   -9000010    2    1    2    0  502 -0.13803569293E+03 -0.38183017156E+02  0.12274161403E+04  0.15963065664E+04  0.10105109979E+04 0.  0.
        -13    1    3    3    0    0  0.51903224128E+02 -0.25632711521E+03 -0.50587315839E+03  0.56947800503E+03  0.10566000000E+00 0.  1.
          4    1    3    3  501    0  0.86132468804E+02  0.29451013237E+03  0.30615540577E+03  0.43345836332E+03  0.00000000000E+00 0.  1.
         13    1    4    4    0    0  0.29939426374E+03 -0.34243793522E+03  0.76879202768E+03  0.89327591349E+03  0.10566000000E+00 0. -1.
         -4    1    4    4    0  502 -0.43742995667E+03  0.30425491807E+03  0.45862411265E+03  0.70303065286E+03  0.00000000000E+00 0. -1.
<mgrwt>
<rscale>  2 0.10110360E+04</rscale>
<asrwt>0</asrwt>
<pdfrwt beam="1">  1       21 0.27899548E+00 0.10206098E+04</pdfrwt>
<pdfrwt beam="2">  1       21 0.12088804E+00 0.10206098E+04</pdfrwt>
<totfact> 0.89292183E+00</totfact>
</mgrwt>
</event>
<event>
 8    1  0.7418332E-006  0.1051187E+04  0.7818608E-02  0.8728808E-01
         21   -1    0    0  501  502  0.00000000000E+00  0.00000000000E+00  0.92492575671E+03  0.92492575671E+03  0.00000000000E+00 0.  1.
         21   -1    0    0  502  503 -0.00000000000E+00 -0.00000000000E+00 -0.13810280961E+04  0.13810280961E+04  0.00000000000E+00 0.  1.
    9000010    2    1    2  501    0 -0.33207414953E+03  0.92731228825E+02  0.20093248146E+03  0.10663212977E+04  0.98883513605E+03 0.  0.
   -9000010    2    1    2    0  503  0.33207414953E+03 -0.92731228825E+02 -0.65703482084E+03  0.12396325551E+04  0.99303665301E+03 0.  0.
        -13    1    3    3    0    0 -0.24894919828E+03 -0.20647894550E+03  0.52554080954E+03  0.61709189909E+03  0.10566000000E+00 0.  1.
          4    1    3    3  501    0 -0.83124951244E+02  0.29921017432E+03 -0.32460832809E+03  0.44922939864E+03  0.00000000000E+00 0.  1.
         13    1    4    4    0    0  0.37156801587E+03  0.38113057726E+03 -0.52153313275E+03  0.74519804553E+03  0.10566000000E+00 0. -1.
         -4    1    4    4    0  503 -0.39493866344E+02 -0.47386180609E+03 -0.13550168808E+03  0.49443450954E+03  0.00000000000E+00 0. -1.
<mgrwt>
<rscale>  2 0.10501935E+04</rscale>
<asrwt>0</asrwt>
<pdfrwt beam="1">  1       21 0.14229627E+00 0.10511870E+04</pdfrwt>
<pdfrwt beam="2">  1       21 0.21246586E+00 0.10511870E+04</pdfrwt>
<totfact> 0.16967910E+01</totfact>
</mgrwt>
</event>
<event>
 8    1  0.7418332E-006  0.1058739E+04  0.7818608E-02  0.8731019E-01
         21   -1    0    0  503  502  0.00000000000E+00  0.00000000000E+00  0.11462157329E+04  0.11462157329E+04  0.00000000000E+00 0.  1.
         21   -1    0    0  501  503 -0.00000000000E+00 -0.00000000000E+00 -0.96688515860E+03  0.96688515860E+03  0.00000000000E+00 0.  1.
    9000010    2    1    2  501    0 -0.20303639025E+03  0.39177871053E+01 -0.90454017376E+02  0.10625961887E+04  0.10390811355E+04 0.  0.
   -9000010    2    1    2    0  502  0.20303639025E+03 -0.39177871053E+01  0.26978459164E+03  0.10505047028E+04  0.99475488429E+03 0.  0.
        -13    1    3    3    0    0 -0.26980496671E+03 -0.40619315942E+03 -0.32446799274E+03  0.58571929480E+03  0.10566000000E+00 0.  1.
          4    1    3    3  501    0  0.66768576456E+02  0.41011094653E+03  0.23401397537E+03  0.47687689390E+03  0.00000000000E+00 0.  1.
         13    1    4    4    0    0  0.44689391127E+03  0.72263646944E+02  0.52237458962E+03  0.69123905101E+03  0.10566000000E+00 0. -1.
         -4    1    4    4    0  502 -0.24385752102E+03 -0.76181434049E+02 -0.25258999798E+03  0.35926565175E+03  0.00000000000E+00 0. -1.
<mgrwt>
<rscale>  2 0.10477009E+04</rscale>
<asrwt>0</asrwt>
<pdfrwt beam="1">  1       21 0.17634088E+00 0.10587392E+04</pdfrwt>
<pdfrwt beam="2">  1       21 0.14875156E+00 0.10587392E+04</pdfrwt>
<totfact> 0.28583967E+01</totfact>
</mgrwt>
</event>
<event>
 8    1  0.7418332E-006  0.1019153E+04  0.7818608E-02  0.8758012E-01
         21   -1    0    0  501  502  0.00000000000E+00  0.00000000000E+00  0.17600022412E+04  0.17600022412E+04  0.00000000000E+00 0.  1.
         21   -1    0    0  502  503 -0.00000000000E+00 -0.00000000000E+00 -0.59376527232E+03  0.59376527232E+03  0.00000000000E+00 0.  1.
    9000010    2    1    2  501    0 -0.15273680863E+03 -0.10904751121E+03  0.70918149946E+03  0.12416166055E+04  0.10017252635E+04 0.  0.
   -9000010    2    1    2    0  503  0.15273680863E+03  0.10904751121E+03  0.45705546941E+03  0.11121509080E+04  0.99637344785E+03 0.  0.
        -13    1    3    3    0    0  0.26434128631E+03 -0.15680820450E+02  0.76597711551E+03  0.81045860871E+03  0.10566000000E+00 0.  1.
          4    1    3    3  501    0 -0.41707809494E+03 -0.93366690756E+02 -0.56795616050E+02  0.43115799683E+03  0.00000000000E+00 0.  1.
         13    1    4    4    0    0  0.41349355452E+03 -0.29785450417E+03  0.12176435918E+03  0.52394732141E+03  0.10566000000E+00 0. -1.
         -4    1    4    4    0  503 -0.26075674589E+03  0.40690201538E+03  0.33529111023E+03  0.58820358656E+03  0.00000000000E+00 0. -1.
<mgrwt>
<rscale>  2 0.10178358E+04</rscale>
<asrwt>0</asrwt>
<pdfrwt beam="1">  1       21 0.27076957E+00 0.10191533E+04</pdfrwt>
<pdfrwt beam="2">  1       21 0.91348504E-01 0.10191533E+04</pdfrwt>
<totfact> 0.21569074E+01</totfact>
</mgrwt>
</event>
<event>
 8    1  0.7418332E-006  0.1009918E+04  0.7818608E-02  0.8773175E-01
         21   -1    0    0  501  502  0.00000000000E+00  0.00000000000E+00  0.10983862514E+04  0.10983862514E+04  0.00000000000E+00 0.  1.
         21   -1    0    0  502  503 -0.00000000000E+00 -0.00000000000E+00 -0.93543176111E+03  0.93543176111E+03  0.00000000000E+00 0.  1.
    9000010    2    1    2  501    0 -0.14185535421E+03 -0.19081607896E+02 -0.12244793430E+03  0.98434713158E+03  0.96615667961E+03 0.  0.
   -9000010    2    1    2    0  503  0.14185535421E+03  0.19081607896E+02  0.28540242454E+03  0.10494708809E+04  0.99972373014E+03 0.  0.
        -13    1    3    3    0    0 -0.20869268284E+03  0.38402400572E+03 -0.30890148223E+03  0.53520763235E+03  0.10566000000E+00 0.  1.
          4    1    3    3  501    0  0.66837328634E+02 -0.40310561362E+03  0.18645354792E+03  0.44913949923E+03  0.00000000000E+00 0.  1.
         13    1    4    4    0    0 -0.27973686660E+03  0.40776008868E+02  0.50115057272E+03  0.57538448462E+03  0.10566000000E+00 0. -1.
         -4    1    4    4    0  503  0.42159222081E+03 -0.21694400971E+02 -0.21574814818E+03  0.47408639627E+03  0.00000000000E+00 0. -1.
<mgrwt>
<rscale>  2 0.10015095E+04</rscale>
<asrwt>0</asrwt>
<pdfrwt beam="1">  1       21 0.16898250E+00 0.10099181E+04</pdfrwt>
<pdfrwt beam="2">  1       21 0.14391258E+00 0.10099181E+04</pdfrwt>
<totfact> 0.36797058E+01</totfact>
</mgrwt>
</event>
<event>
 8    1  0.7418332E-006  0.1015707E+04  0.7818608E-02  0.8785760E-01
         21   -1    0    0  503  502  0.00000000000E+00  0.00000000000E+00  0.21527654920E+04  0.21527654920E+04  0.00000000000E+00 0.  1.
         21   -1    0    0  501  503 -0.00000000000E+00 -0.00000000000E+00 -0.46625777410E+03  0.46625777410E+03  0.00000000000E+00 0.  1.
    9000010    2    1    2  501    0  0.52770789910E+02  0.18734847592E+03  0.11617720387E+04  0.14757785471E+04  0.88900159861E+03 0.  0.
   -9000010    2    1    2    0  502 -0.52770789910E+02 -0.18734847592E+03  0.52473567916E+03  0.11432447190E+04  0.99688351720E+03 0.  0.
        -13    1    3    3    0    0 -0.81549042280E+02 -0.28828495354E+03  0.82499051669E+03  0.87770600120E+03  0.10566000000E+00 0.  1.
          4    1    3    3  501    0  0.13431983219E+03  0.47563342946E+03  0.33678152202E+03  0.59807254586E+03  0.00000000000E+00 0.  1.
         13    1    4    4    0    0 -0.31568175737E+03 -0.37143985377E+03 -0.44779049318E+02  0.48951783555E+03  0.10566000000E+00 0. -1.
         -4    1    4    4    0  502  0.26291096746E+03  0.18409137785E+03  0.56951472847E+03  0.65372688346E+03  0.00000000000E+00 0. -1.
<mgrwt>
<rscale>  2 0.98819762E+03</rscale>
<asrwt>0</asrwt>
<pdfrwt beam="1">  1       21 0.33119469E+00 0.10157071E+04</pdfrwt>
<pdfrwt beam="2">  1       21 0.71731966E-01 0.10157071E+04</pdfrwt>
<totfact> 0.14652391E+01</totfact>
</mgrwt>
</event>
<event>
 8    1  0.7418332E-006  0.1045533E+04  0.7818608E-02  0.8764372E-01
         21   -1    0    0  501  502  0.00000000000E+00  0.00000000000E+00  0.18789345603E+04  0.18789345603E+04  0.00000000000E+00 0. -1.
         21   -1    0    0  502  503 -0.00000000000E+00 -0.00000000000E+00 -0.10499800998E+04  0.10499800998E+04  0.00000000000E+00 0. -1.
    9000010    2    1    2  501    0 -0.10376930810E+03  0.11121738273E+03  0.14762517229E+04  0.18089936752E+04  0.10344088128E+04 0.  0.
   -9000010    2    1    2    0  503  0.10376930810E+03 -0.11121738273E+03 -0.64729726237E+03  0.11199209849E+04  0.90116141226E+03 0.  0.
        -13    1    3    3    0    0 -0.47738322969E+03 -0.42522568525E+02  0.12657176056E+04  0.13534193678E+04  0.10566000000E+00 0.  1.
          4    1    3    3  501    0  0.37361392159E+03  0.15373995125E+03  0.21053411729E+03  0.45557430739E+03  0.00000000000E+00 0.  1.
         13    1    4    4    0    0  0.31567992967E+03  0.62093980132E+01 -0.78156409837E+03  0.84293227821E+03  0.10566000000E+00 0. -1.
         -4    1    4    4    0  503 -0.21191062157E+03 -0.11742678074E+03  0.13426683600E+03  0.27698870666E+03  0.00000000000E+00 0. -1.
<mgrwt>
<rscale>  2 0.10109484E+04</rscale>
<asrwt>0</asrwt>
<pdfrwt beam="1">  1       21 0.28906686E+00 0.10455329E+04</pdfrwt>
<pdfrwt beam="2">  1       21 0.16153540E+00 0.10455329E+04</pdfrwt>
<totfact> 0.31663181E+00</totfact>
</mgrwt>
</event>
<event>
 8    1  0.7418332E-006  0.9960768E+03  0.7818608E-02  0.8780116E-01
         21   -1    0    0  503  502  0.00000000000E+00  0.00000000000E+00  0.82572396797E+03  0.82572396797E+03  0.00000000000E+00 0.  1.
         21   -1    0    0  501  503 -0.00000000000E+00 -0.00000000000E+00 -0.12367770605E+04  0.12367770605E+04  0.00000000000E+00 0.  1.
    9000010    2    1    2  501    0 -0.58078123225E+02 -0.14122951825E+03 -0.40036269496E+03  0.10663669081E+04  0.97648822317E+03 0.  0.
   -9000010    2    1    2    0  502  0.58078123225E+02  0.14122951825E+03 -0.10690397546E+02  0.99613412033E+03  0.98430181137E+03 0.  0.
        -13    1    3    3    0    0  0.41599527755E+03 -0.16056184862E+03 -0.38904107403E+03  0.59176443508E+03  0.10566000000E+00 0.  1.
          4    1    3    3  501    0 -0.47407340077E+03  0.19332330370E+02 -0.11321620931E+02  0.47460247304E+03  0.00000000000E+00 0.  1.
         13    1    4    4    0    0  0.29852746066E+03 -0.24382297077E+03  0.26247002977E+03  0.46632479404E+03  0.10566000000E+00 0. -1.
         -4    1    4    4    0  502 -0.24044933743E+03  0.38505248902E+03 -0.27316042732E+03  0.52980932629E+03  0.00000000000E+00 0. -1.
<mgrwt>
<rscale>  2 0.99414100E+03</rscale>
<asrwt>0</asrwt>
<pdfrwt beam="1">  1       21 0.12703446E+00 0.99607675E+03</pdfrwt>
<pdfrwt beam="2">  1       21 0.19027339E+00 0.99607675E+03</pdfrwt>
<totfact> 0.35665308E+01</totfact>
</mgrwt>
</event>
<event>
 8    1  0.7418332E-006  0.1042225E+04  0.7818608E-02  0.8738785E-01
         21   -1    0    0  503  502  0.00000000000E+00  0.00000000000E+00  0.13575772935E+04  0.13575772935E+04  0.00000000000E+00 0. -1.
         21   -1    0    0  501  503 -0.00000000000E+00 -0.00000000000E+00 -0.23775241285E+04  0.23775241285E+04  0.00000000000E+00 0. -1.
    9000010    2    1    2  501    0  0.19740135056E+03  0.11422323573E+03 -0.20348227267E+04  0.22803828103E+04  0.10038067502E+04 0.  0.
   -9000010    2    1    2    0  502 -0.19740135056E+03 -0.11422323573E+03  0.10148758917E+04  0.14547186117E+04  0.10169655465E+04 0.  0.
        -13    1    3    3    0    0  0.51244800778E+03  0.14682616164E+03 -0.18230257257E+04  0.18993640225E+04  0.10566000000E+00 0.  1.
          4    1    3    3  501    0 -0.31504665722E+03 -0.32602925911E+02 -0.21179700095E+03  0.38101878775E+03  0.00000000000E+00 0.  1.
         13    1    4    4    0    0  0.41062960441E+03 -0.29021359379E+02  0.53734263081E+03  0.67690178414E+03  0.10566000000E+00 0. -1.
         -4    1    4    4    0  502 -0.60803095497E+03 -0.85201876353E+02  0.47753326091E+03  0.77781682755E+03  0.00000000000E+00 0. -1.
<mgrwt>
<rscale>  2 0.10390012E+04</rscale>
<asrwt>0</asrwt>
<pdfrwt beam="1">  1       21 0.20885804E+00 0.10422251E+04</pdfrwt>
<pdfrwt beam="2">  1       21 0.36577294E+00 0.10422251E+04</pdfrwt>
<totfact> 0.37912398E-01</totfact>
</mgrwt>
</event>
<event>
 8    1  0.7418332E-006  0.1032433E+04  0.7818608E-02  0.8750876E-01
         21   -1    0    0  503  502  0.00000000000E+00  0.00000000000E+00  0.33805303994E+04  0.33805303994E+04  0.00000000000E+00 0.  1.
         21   -1    0    0  501  503 -0.00000000000E+00 -0.00000000000E+00 -0.41934046962E+03  0.41934046962E+03  0.00000000000E+00 0.  1.
    9000010    2    1    2  501    0 -0.96704352209E+01 -0.16020561598E+03  0.48352955671E+03  0.11157102109E+04  0.99259714179E+03 0.  0.
   -9000010    2    1    2    0  502  0.96704352209E+01  0.16020561598E+03  0.24776603731E+04  0.26841606581E+04  0.10198814428E+04 0.  0.
        -13    1    3    3    0    0 -0.35142537547E+03  0.14709522815E+03 -0.79233577283E+02  0.38912051038E+03  0.10566000000E+00 0.  1.
          4    1    3    3  501    0  0.34175494025E+03 -0.30730084412E+03  0.56276313399E+03  0.72658970056E+03  0.00000000000E+00 0.  1.
         13    1    4    4    0    0 -0.32708853474E+03  0.43005759607E+03  0.91124238398E+03  0.10593862086E+04  0.10566000000E+00 0. -1.
         -4    1    4    4    0  502  0.33675896996E+03 -0.26985198010E+03  0.15664179891E+04  0.16247744494E+04  0.00000000000E+00 0. -1.
<mgrwt>
<rscale>  2 0.10256300E+04</rscale>
<asrwt>0</asrwt>
<pdfrwt beam="1">  1       21 0.52008158E+00 0.10324328E+04</pdfrwt>
<pdfrwt beam="2">  1       21 0.64513921E-01 0.10324328E+04</pdfrwt>
<totfact> 0.90487485E-01</totfact>
</mgrwt>
</event>
<event>
 8    1  0.7418332E-006  0.1072380E+04  0.7818608E-02  0.8721110E-01
         21   -1    0    0  501  502  0.00000000000E+00  0.00000000000E+00  0.10695542462E+04  0.10695542462E+04  0.00000000000E+00 0.  1.
         21   -1    0    0  502  503 -0.00000000000E+00 -0.00000000000E+00 -0.11031237667E+04  0.11031237667E+04  0.00000000000E+00 0.  1.
    9000010    2    1    2  501    0 -0.24280069768E+03 -0.13333216555E+02  0.27564792364E+03  0.11072396616E+04  0.10444462346E+04 0.  0.
   -9000010    2    1    2    0  503  0.24280069768E+03  0.13333216555E+02 -0.30921744405E+03  0.10654383513E+04  0.99015832027E+03 0.  0.
        -13    1    3    3    0    0  0.18107443745E+03 -0.29636664408E+03  0.45010908911E+03  0.56852382789E+03  0.10566000000E+00 0.  1.
          4    1    3    3  501    0 -0.42387513513E+03  0.28303342752E+03 -0.17446116547E+03  0.53871583375E+03  0.00000000000E+00 0.  1.
         13    1    4    4    0    0 -0.22653203900E+03 -0.25520365368E+03 -0.39055134597E+03  0.51862899509E+03  0.10566000000E+00 0. -1.
         -4    1    4    4    0  503  0.46933273668E+03  0.26853687024E+03  0.81333901918E+02  0.54680935617E+03  0.00000000000E+00 0. -1.
<mgrwt>
<rscale>  2 0.10589287E+04</rscale>
<asrwt>0</asrwt>
<pdfrwt beam="1">  1       21 0.16454681E+00 0.10723795E+04</pdfrwt>
<pdfrwt beam="2">  1       21 0.16971135E+00 0.10723795E+04</pdfrwt>
<totfact> 0.23555087E+01</totfact>
</mgrwt>
</event>
<event>
 8    1  0.7418332E-006  0.1137480E+04  0.7818608E-02  0.8677050E-01
         21   -1    0    0  503  502  0.00000000000E+00  0.00000000000E+00  0.99634617775E+03  0.99634617775E+03  0.00000000000E+00 0. -1.
         21   -1    0    0  501  503 -0.00000000000E+00 -0.00000000000E+00 -0.12874237213E+04  0.12874237213E+04  0.00000000000E+00 0. -1.
    9000010    2    1    2  501    0 -0.76801496476E+02 -0.26959215967E+03  0.18552875704E+03  0.10504760106E+04  0.99523892942E+03 0.  0.
   -9000010    2    1    2    0  502  0.76801496476E+02  0.26959215967E+03 -0.47660630064E+03  0.12332938885E+04  0.11023982254E+04 0.  0.
        -13    1    3    3    0    0  0.20568508197E+03 -0.75809926256E+02 -0.35104922442E+03  0.41387083371E+03  0.10566000000E+00 0.  1.
          4    1    3    3  501    0 -0.28248657845E+03 -0.19378223341E+03  0.53657798146E+03  0.63660517684E+03  0.00000000000E+00 0.  1.
         13    1    4    4    0    0  0.46604863419E+02  0.81183722554E+02  0.36166324925E+03  0.37358148659E+03  0.10566000000E+00 0. -1.
         -4    1    4    4    0  502  0.30196633057E+02  0.18840843711E+03 -0.83826954988E+03  0.85971240196E+03  0.00000000000E+00 0. -1.
<mgrwt>
<rscale>  2 0.11106673E+04</rscale>
<asrwt>0</asrwt>
<pdfrwt beam="1">  1       21 0.15328403E+00 0.11374798E+04</pdfrwt>
<pdfrwt beam="2">  1       21 0.19806519E+00 0.11374798E+04</pdfrwt>
<totfact> 0.17136233E+01</totfact>
</mgrwt>
</event>
<event>
 8    1  0.7418332E-006  0.1013631E+04  0.7818608E-02  0.8766501E-01
         21   -1    0    0  501  502  0.00000000000E+00  0.00000000000E+00  0.64357746042E+03  0.64357746042E+03  0.00000000000E+00 0.  1.
         21   -1    0    0  502  503 -0.00000000000E+00 -0.00000000000E+00 -0.17547861861E+04  0.17547861861E+04  0.00000000000E+00 0.  1.
    9000010    2    1    2  501    0  0.10082093404E+03  0.16361758420E+03 -0.94456174751E+03  0.13711250339E+04  0.97511609006E+03 0.  0.
   -9000010    2    1    2    0  503 -0.10082093404E+03 -0.16361758420E+03 -0.16664697816E+03  0.10272386126E+04  0.99524488309E+03 0.  0.
        -13    1    3    3    0    0  0.38182678903E+03 -0.26594341535E+02 -0.16649375631E+02  0.38311378035E+03  0.10566000000E+00 0.  1.
          4    1    3    3  501    0 -0.28100585499E+03  0.19021192574E+03 -0.92791237188E+03  0.98801125354E+03  0.00000000000E+00 0.  1.
         13    1    4    4    0    0 -0.26815098408E+03  0.29483945495E+03  0.17111103941E+03  0.43372140071E+03  0.10566000000E+00 0. -1.
         -4    1    4    4    0  503  0.16733005004E+03 -0.45845703915E+03 -0.33775801757E+03  0.59351721191E+03  0.00000000000E+00 0. -1.
<mgrwt>
<rscale>  2 0.10086555E+04</rscale>
<asrwt>0</asrwt>
<pdfrwt beam="1">  1       21 0.99011916E-01 0.10136311E+04</pdfrwt>
<pdfrwt beam="2">  1       21 0.26996711E+00 0.10136311E+04</pdfrwt>
<totfact> 0.17798539E+01</totfact>
</mgrwt>
</event>
<event>
 8    1  0.7418332E-006  0.1112856E+04  0.7818608E-02  0.8676657E-01
         21   -1    0    0  503  502  0.00000000000E+00  0.00000000000E+00  0.20797402025E+04  0.20797402025E+04  0.00000000000E+00 0. -1.
         21   -1    0    0  501  503 -0.00000000000E+00 -0.00000000000E+00 -0.92848730153E+03  0.92848730153E+03  0.00000000000E+00 0. -1.
    9000010    2    1    2  501    0 -0.47408519833E+03 -0.13066518049E+02 -0.33120791198E+03  0.11545452464E+04  0.99917392671E+03 0.  0.
   -9000010    2    1    2    0  502  0.47408519833E+03  0.13066518049E+02  0.14824608129E+04  0.18536822577E+04  0.10067374738E+04 0.  0.
        -13    1    3    3    0    0  0.19659690225E+03 -0.15807808284E+03  0.17052754977E+03  0.30449741976E+03  0.10566000000E+00 0.  1.
          4    1    3    3  501    0 -0.67068210059E+03  0.14501156479E+03 -0.50173546175E+03  0.85004782662E+03  0.00000000000E+00 0.  1.
         13    1    4    4    0    0  0.11846543957E+03  0.58902281238E+02  0.14891922933E+04  0.14950576031E+04  0.10566000000E+00 0. -1.
         -4    1    4    4    0  502  0.35561975876E+03 -0.45835763189E+02 -0.67314803396E+01  0.35862465453E+03  0.00000000000E+00 0. -1.
<mgrwt>
<rscale>  2 0.11111424E+04</rscale>
<asrwt>0</asrwt>
<pdfrwt beam="1">  1       21 0.31996003E+00 0.11128557E+04</pdfrwt>
<pdfrwt beam="2">  1       21 0.14284420E+00 0.11128557E+04</pdfrwt>
<totfact> 0.27603408E+00</totfact>
</mgrwt>
</event>
<event>
 8    1  0.7418332E-006  0.1005373E+04  0.7818608E-02  0.8769949E-01
         21   -1    0    0  501  502  0.00000000000E+00  0.00000000000E+00  0.90316031850E+03  0.90316031850E+03  0.00000000000E+00 0. -1.
         21   -1    0    0  502  503 -0.00000000000E+00 -0.00000000000E+00 -0.11410870046E+04  0.11410870046E+04  0.00000000000E+00 0. -1.
    9000010    2    1    2  501    0 -0.11939596285E+02 -0.16005560599E+03  0.28706491273E+02  0.10041188526E+04  0.99079274149E+03 0.  0.
   -9000010    2    1    2    0  503  0.11939596285E+02  0.16005560599E+03 -0.26663317733E+03  0.10401284704E+04  0.99247853013E+03 0.  0.
        -13    1    3    3    0    0  0.20174486948E+03 -0.23657624512E+03 -0.40739724079E+03  0.51248593648E+03  0.10566000000E+00 0.  1.
          4    1    3    3  501    0 -0.21368446576E+03  0.76520639128E+02  0.43610373206E+03  0.49163291615E+03  0.00000000000E+00 0.  1.
         13    1    4    4    0    0  0.42215476380E+03 -0.18673836507E+03 -0.18268344585E+03  0.49644648668E+03  0.10566000000E+00 0. -1.
         -4    1    4    4    0  503 -0.41021516751E+03  0.34679397107E+03 -0.83949731482E+02  0.54368198374E+03  0.00000000000E+00 0. -1.
<mgrwt>
<rscale>  2 0.10049563E+04</rscale>
<asrwt>0</asrwt>
<pdfrwt beam="1">  1       21 0.13894774E+00 0.10053726E+04</pdfrwt>
<pdfrwt beam="2">  1       21 0.17555185E+00 0.10053726E+04</pdfrwt>
<totfact> 0.36071238E+01</totfact>
</mgrwt>
</event>
<event>
 8    1  0.7418332E-006  0.9995034E+03  0.7818608E-02  0.8786862E-01
         21   -1    0    0  501  502  0.00000000000E+00  0.00000000000E+00  0.98693925147E+03  0.98693925147E+03  0.00000000000E+00 0. -1.
         21   -1    0    0  502  503 -0.00000000000E+00 -0.00000000000E+00 -0.10355751590E+04  0.10355751590E+04  0.00000000000E+00 0. -1.
    9000010    2    1    2  501    0  0.75746144022E+02  0.62068635084E+01 -0.29084719873E+03  0.99408191575E+03  0.94753931777E+03 0.  0.
   -9000010    2    1    2    0  503 -0.75746144022E+02 -0.62068635084E+01  0.24221129123E+03  0.10284324947E+04  0.99660979478E+03 0.  0.
        -13    1    3    3    0    0 -0.20560470887E+03  0.40073326482E+03 -0.50631540126E+02  0.45323725560E+03  0.10566000000E+00 0.  1.
          4    1    3    3  501    0  0.28135085290E+03 -0.39452640132E+03 -0.24021565861E+03  0.54084466014E+03  0.00000000000E+00 0.  1.
         13    1    4    4    0    0 -0.16251583839E+03 -0.35160733049E+03 -0.21958739020E+03  0.44526143520E+03  0.10566000000E+00 0. -1.
         -4    1    4    4    0  503  0.86769694370E+02  0.34540046698E+03  0.46179868143E+03  0.58317105949E+03  0.00000000000E+00 0. -1.
<mgrwt>
<rscale>  2 0.98704203E+03</rscale>
<asrwt>0</asrwt>
<pdfrwt beam="1">  1       21 0.15183681E+00 0.99950342E+03</pdfrwt>
<pdfrwt beam="2">  1       21 0.15931925E+00 0.99950342E+03</pdfrwt>
<totfact> 0.37842132E+01</totfact>
</mgrwt>
</event>
<event>
 8    1  0.7418332E-006  0.1152942E+04  0.7818608E-02  0.8657952E-01
         21   -1    0    0  503  502  0.00000000000E+00  0.00000000000E+00  0.15618523592E+04  0.15618523592E+04  0.00000000000E+00 0.  1.
         21   -1    0    0  501  503 -0.00000000000E+00 -0.00000000000E+00 -0.13956323927E+04  0.13956323927E+04  0.00000000000E+00 0.  1.
    9000010    2    1    2  501    0 -0.34451172646E+03 -0.49523905387E+01 -0.88620257497E+03  0.13964374055E+04  0.10227265362E+04 0.  0.
   -9000010    2    1    2    0  502  0.34451172646E+03  0.49523905387E+01  0.10524225415E+04  0.15610473464E+04  0.11002557685E+04 0.  0.
        -13    1    3    3    0    0 -0.40006585357E+03 -0.23726431174E+03 -0.10211481102E+04  0.11220920261E+04  0.10566000000E+00 0.  1.
          4    1    3    3  501    0  0.55554127104E+02  0.23231192120E+03  0.13494553523E+03  0.27434537949E+03  0.00000000000E+00 0.  1.
         13    1    4    4    0    0  0.13398698726E+03  0.55101622826E+03  0.49214737559E+03  0.75085314612E+03  0.10566000000E+00 0. -1.
         -4    1    4    4    0  502  0.21052473921E+03 -0.54606383773E+03  0.56027516586E+03  0.81019420028E+03  0.00000000000E+00 0. -1.
<mgrwt>
<rscale>  2 0.11340484E+04</rscale>
<asrwt>0</asrwt>
<pdfrwt beam="1">  1       21 0.24028498E+00 0.11529422E+04</pdfrwt>
<pdfrwt beam="2">  1       21 0.21471268E+00 0.11529422E+04</pdfrwt>
<totfact> 0.25874372E+00</totfact>
</mgrwt>
</event>
<event>
 8    1  0.7418332E-006  0.1020708E+04  0.7818608E-02  0.8756858E-01
         21   -1    0    0  503  502  0.00000000000E+00  0.00000000000E+00  0.14300887737E+04  0.14300887737E+04  0.00000000000E+00 0. -1.
         21   -1    0    0  501  503 -0.00000000000E+00 -0.00000000000E+00 -0.12873499433E+04  0.12873499433E+04  0.00000000000E+00 0. -1.
    9000010    2    1    2  501    0 -0.39781733476E+02 -0.17464563552E+03 -0.82763518690E+03  0.13090810070E+04  0.99831327541E+03 0.  0.
   -9000010    2    1    2    0  502  0.39781733476E+02  0.17464563552E+03  0.97037401724E+03  0.14083577101E+04  0.10048691566E+04 0.  0.
        -13    1    3    3    0    0 -0.16848024602E+01  0.24862087161E+03  0.11585612582E+03  0.27429515018E+03  0.10566000000E+00 0.  1.
          4    1    3    3  501    0 -0.38096931015E+02 -0.42326650713E+03 -0.94349131272E+03  0.10347858568E+04  0.00000000000E+00 0.  1.
         13    1    4    4    0    0 -0.47800910437E+03  0.85218698464E+02  0.56320131935E+03  0.74360652748E+03  0.10566000000E+00 0. -1.
         -4    1    4    4    0  502  0.51779083785E+03  0.89426937054E+02  0.40717269789E+03  0.66475118258E+03  0.00000000000E+00 0. -1.
<mgrwt>
<rscale>  2 0.10190912E+04</rscale>
<asrwt>0</asrwt>
<pdfrwt beam="1">  1       21 0.22001366E+00 0.10207084E+04</pdfrwt>
<pdfrwt beam="2">  1       21 0.19805384E+00 0.10207084E+04</pdfrwt>
<totfact> 0.50854251E+00</totfact>
</mgrwt>
</event>
<event>
 8    1  0.7418332E-006  0.1118367E+04  0.7818608E-02  0.8671612E-01
         21   -1    0    0  503  502  0.00000000000E+00  0.00000000000E+00  0.17519598097E+04  0.17519598097E+04  0.00000000000E+00 0. -1.
         21   -1    0    0  501  503 -0.00000000000E+00 -0.00000000000E+00 -0.71941315871E+03  0.71941315871E+03  0.00000000000E+00 0. -1.
    9000010    2    1    2  501    0 -0.22635774620E+03  0.41912136117E+03  0.65007201062E+03  0.12935756373E+04  0.10118516520E+04 0.  0.
   -9000010    2    1    2    0  502  0.22635774620E+03 -0.41912136117E+03  0.38247464035E+03  0.11777973311E+04  0.10069851826E+04 0.  0.
        -13    1    3    3    0    0 -0.49449269498E+03 -0.12582673479E+03  0.27286768097E+03  0.57862956635E+03  0.10566000000E+00 0.  1.
          4    1    3    3  501    0  0.26813494878E+03  0.54494809596E+03  0.37720432965E+03  0.71494607094E+03  0.00000000000E+00 0.  1.
         13    1    4    4    0    0 -0.23064263636E+02  0.25999451582E+03  0.37176832002E+03  0.45424751342E+03  0.10566000000E+00 0. -1.
         -4    1    4    4    0  502  0.24942200983E+03 -0.67911587699E+03  0.10706320330E+02  0.72354981768E+03  0.00000000000E+00 0. -1.
<mgrwt>
<rscale>  2 0.11172649E+04</rscale>
<asrwt>0</asrwt>
<pdfrwt beam="1">  1       21 0.26953228E+00 0.11183668E+04</pdfrwt>
<pdfrwt beam="2">  1       21 0.11067895E+00 0.11183668E+04</pdfrwt>
<totfact> 0.13018737E+01</totfact>
</mgrwt>
</event>
<event>
 8    1  0.7418332E-006  0.1102056E+04  0.7818608E-02  0.8684655E-01
         21   -1    0    0  501  502  0.00000000000E+00  0.00000000000E+00  0.16276995301E+04  0.16276995301E+04  0.00000000000E+00 0. -1.
         21   -1    0    0  502  503 -0.00000000000E+00 -0.00000000000E+00 -0.77459198847E+03  0.77459198847E+03  0.00000000000E+00 0. -1.
    9000010    2    1    2  501    0 -0.16780076320E+03  0.43825907261E+03  0.66206889499E+03  0.12837996753E+04  0.99477548914E+03 0.  0.
   -9000010    2    1    2    0  503  0.16780076320E+03 -0.43825907261E+03  0.19103864664E+03  0.11184918432E+04  0.99714599134E+03 0.  0.
        -13    1    3    3    0    0  0.72786497459E+02  0.67187036009E+03  0.18500953787E+03  0.70066839178E+03  0.10566000000E+00 0.  1.
          4    1    3    3  501    0 -0.24058726066E+03 -0.23361128748E+03  0.47705935712E+03  0.58313128354E+03  0.00000000000E+00 0.  1.
         13    1    4    4    0    0 -0.96790681567E+02  0.60927478229E+02  0.47330700349E+03  0.48692928066E+03  0.10566000000E+00 0. -1.
         -4    1    4    4    0  503  0.26459144477E+03 -0.49918655084E+03 -0.28226835686E+03  0.63156256259E+03  0.00000000000E+00 0. -1.
<mgrwt>
<rscale>  2 0.11015199E+04</rscale>
<asrwt>0</asrwt>
<pdfrwt beam="1">  1       21 0.25041531E+00 0.11020564E+04</pdfrwt>
<pdfrwt beam="2">  1       21 0.11916800E+00 0.11020564E+04</pdfrwt>
<totfact> 0.14644198E+01</totfact>
</mgrwt>
</event>
<event>
 8    1  0.7418332E-006  0.1189100E+04  0.7818608E-02  0.8614959E-01
         21   -1    0    0  503  502  0.00000000000E+00  0.00000000000E+00  0.16896434745E+04  0.16896434745E+04  0.00000000000E+00 0. -1.
         21   -1    0    0  501  503 -0.00000000000E+00 -0.00000000000E+00 -0.13605906745E+04  0.13605906745E+04  0.00000000000E+00 0.  1.
    9000010    2    1    2  501    0  0.36081210248E+03  0.52443261008E+03 -0.78216343348E+03  0.14232846856E+04  0.10043628446E+04 0.  0.
   -9000010    2    1    2    0  502 -0.36081210248E+03 -0.52443261008E+03  0.11112162334E+04  0.16269494634E+04  0.10034680380E+04 0.  0.
        -13    1    3    3    0    0 -0.14823319563E+03  0.16188085171E+03  0.17461716323E+03  0.28048111397E+03  0.10566000000E+00 0.  1.
          4    1    3    3  501    0  0.50904529811E+03  0.36255175837E+03 -0.95678059671E+03  0.11428035716E+04  0.00000000000E+00 0.  1.
         13    1    4    4    0    0 -0.95073000350E+02 -0.15307505796E+01  0.10304906178E+04  0.10348681767E+04  0.10566000000E+00 0. -1.
         -4    1    4    4    0  502 -0.26573910213E+03 -0.52290185950E+03  0.80725615574E+02  0.59208128672E+03  0.00000000000E+00 0. -1.
<mgrwt>
<rscale>  2 0.11889114E+04</rscale>
<asrwt>0</asrwt>
<pdfrwt beam="1">  1       21 0.25994515E+00 0.11891004E+04</pdfrwt>
<pdfrwt beam="2">  1       21 0.20932164E+00 0.11891004E+04</pdfrwt>
<totfact> 0.20286517E+00</totfact>
</mgrwt>
</event>
<event>
 8    1  0.7418332E-006  0.1031536E+04  0.7818608E-02  0.8745945E-01
         21   -1    0    0  503  502  0.00000000000E+00  0.00000000000E+00  0.70764609891E+03  0.70764609891E+03  0.00000000000E+00 0. -1.
         21   -1    0    0  501  503 -0.00000000000E+00 -0.00000000000E+00 -0.18878847135E+04  0.18878847135E+04  0.00000000000E+00 0.  1.
    9000010    2    1    2  501    0  0.20849625660E+03  0.16005444060E+03 -0.29807387330E+01  0.10315406907E+04  0.99748644037E+03 0.  0.
   -9000010    2    1    2    0  502 -0.20849625660E+03 -0.16005444060E+03 -0.11772578758E+04  0.15639901217E+04  0.99551036240E+03 0.  0.
        -13    1    3    3    0    0 -0.24687178890E+03  0.97921104655E+02 -0.36155811948E+03  0.44861844346E+03  0.10566000000E+00 0.  1.
          4    1    3    3  501    0  0.45536804550E+03  0.62133335947E+02  0.35857738074E+03  0.58292224720E+03  0.00000000000E+00 0.  1.
         13    1    4    4    0    0 -0.55652916632E+03 -0.27754661810E+03 -0.93861772510E+03  0.11259485260E+04  0.10566000000E+00 0. -1.
         -4    1    4    4    0  502  0.34803290972E+03  0.11749217750E+03 -0.23864015072E+03  0.43804159570E+03  0.00000000000E+00 0. -1.
<mgrwt>
<rscale>  2 0.10310584E+04</rscale>
<asrwt>0</asrwt>
<pdfrwt beam="1">  1       21 0.10886863E+00 0.10315364E+04</pdfrwt>
<pdfrwt beam="2">  1       21 0.29044380E+00 0.10315364E+04</pdfrwt>
<totfact> 0.98498565E+00</totfact>
</mgrwt>
</event>
<event>
 8    1  0.7418332E-006  0.1052004E+04  0.7818608E-02  0.8737271E-01
         21   -1    0    0  501  502  0.00000000000E+00  0.00000000000E+00  0.70152071943E+03  0.70152071943E+03  0.00000000000E+00 0. -1.
         21   -1    0    0  502  503 -0.00000000000E+00 -0.00000000000E+00 -0.16387958902E+04  0.16387958902E+04  0.00000000000E+00 0. -1.
    9000010    2    1    2  501    0  0.21285206910E+03  0.40837126771E+02 -0.80401865779E+03  0.13240691156E+04  0.10294364218E+04 0.  0.
   -9000010    2    1    2    0  503 -0.21285206910E+03 -0.40837126771E+02 -0.13325651294E+03  0.10162474940E+04  0.98388413781E+03 0.  0.
        -13    1    3    3    0    0  0.13629949519E+03 -0.17123824294E+03 -0.10010161440E+04  0.10246625883E+04  0.10566000000E+00 0.  1.
          4    1    3    3  501    0  0.76552573910E+02  0.21207536971E+03  0.19699748617E+03  0.29940652726E+03  0.00000000000E+00 0.  1.
         13    1    4    4    0    0 -0.46631716708E+02 -0.15305714533E+03  0.40841567483E+03  0.43863923827E+03  0.10566000000E+00 0. -1.
         -4    1    4    4    0  503 -0.16622035239E+03  0.11222001856E+03 -0.54167218777E+03  0.57760825576E+03  0.00000000000E+00 0. -1.
<mgrwt>
<rscale>  2 0.10406902E+04</rscale>
<asrwt>0</asrwt>
<pdfrwt beam="1">  1       21 0.10792627E+00 0.10520043E+04</pdfrwt>
<pdfrwt beam="2">  1       21 0.25212244E+00 0.10520043E+04</pdfrwt>
<totfact> 0.18880167E+01</totfact>
</mgrwt>
</event>
<event>
 8    1  0.7418332E-006  0.1012691E+04  0.7818608E-02  0.8768144E-01
         21   -1    0    0  501  502  0.00000000000E+00  0.00000000000E+00  0.21471583358E+04  0.21471583358E+04  0.00000000000E+00 0.  1.
         21   -1    0    0  502  503 -0.00000000000E+00 -0.00000000000E+00 -0.13229587869E+04  0.13229587869E+04  0.00000000000E+00 0.  1.
    9000010    2    1    2  501    0  0.12137438368E+03 -0.24888753155E+02  0.18094872999E+04  0.20735928226E+04  0.10050829391E+04 0.  0.
   -9000010    2    1    2    0  503 -0.12137438368E+03  0.24888753155E+02 -0.98528775106E+03  0.13965243000E+04  0.98190476990E+03 0.  0.
        -13    1    3    3    0    0 -0.93683401462E+02 -0.16707694169E+03 -0.48669439355E+02  0.19763605351E+03  0.10566000000E+00 0.  1.
          4    1    3    3  501    0  0.21505778514E+03  0.14218818854E+03  0.18581567393E+04  0.18759567691E+04  0.00000000000E+00 0.  1.
         13    1    4    4    0    0  0.18696867652E+03 -0.22941591611E+03 -0.95029366501E+03  0.99531251851E+03  0.10566000000E+00 0. -1.
         -4    1    4    4    0  503 -0.30834306019E+03  0.25430466927E+03 -0.34994086046E+02  0.40121178153E+03  0.00000000000E+00 0. -1.
<mgrwt>
<rscale>  2 0.10068913E+04</rscale>
<asrwt>0</asrwt>
<pdfrwt beam="1">  1       21 0.33033205E+00 0.10126909E+04</pdfrwt>
<pdfrwt beam="2">  1       21 0.20353212E+00 0.10126909E+04</pdfrwt>
<totfact> 0.74479408E-01</totfact>
</mgrwt>
</event>
<event>
 8    1  0.7418332E-006  0.1069387E+04  0.7818608E-02  0.8712801E-01
         21   -1    0    0  503  502  0.00000000000E+00  0.00000000000E+00  0.17142476084E+04  0.17142476084E+04  0.00000000000E+00 0. -1.
         21   -1    0    0  501  503 -0.00000000000E+00 -0.00000000000E+00 -0.82073544571E+03  0.82073544571E+03  0.00000000000E+00 0. -1.
    9000010    2    1    2  501    0 -0.33104188260E+03  0.10537888100E+03 -0.10636402342E+03  0.10709677629E+04  0.10074548164E+04 0.  0.
   -9000010    2    1    2    0  502  0.33104188260E+03 -0.10537888100E+03  0.99987618609E+03  0.14640152912E+04  0.10113826915E+04 0.  0.
        -13    1    3    3    0    0  0.31614429356E+03  0.24671948425E+03 -0.73591257987E+02  0.40771730730E+03  0.10566000000E+00 0.  1.
          4    1    3    3  501    0 -0.64718617616E+03 -0.14134060325E+03 -0.32772765429E+02  0.66325045563E+03  0.00000000000E+00 0.  1.
         13    1    4    4    0    0  0.33659378118E+03 -0.46230359880E+03  0.23181960680E+03  0.61705780301E+03  0.10566000000E+00 0. -1.
         -4    1    4    4    0  502 -0.55518985844E+01  0.35692471780E+03  0.76805657928E+03  0.84695748815E+03  0.00000000000E+00 0. -1.
<mgrwt>
<rscale>  2 0.10684572E+04</rscale>
<asrwt>0</asrwt>
<pdfrwt beam="1">  1       21 0.26373040E+00 0.10693869E+04</pdfrwt>
<pdfrwt beam="2">  1       21 0.12626699E+00 0.10693869E+04</pdfrwt>
<totfact> 0.10034939E+01</totfact>
</mgrwt>
</event>
<event>
 8    1  0.7418332E-006  0.1009352E+04  0.7818608E-02  0.8766523E-01
         21   -1    0    0  501  502  0.00000000000E+00  0.00000000000E+00  0.12529257825E+04  0.12529257825E+04  0.00000000000E+00 0. -1.
         21   -1    0    0  502  503 -0.00000000000E+00 -0.00000000000E+00 -0.94475256107E+03  0.94475256107E+03  0.00000000000E+00 0. -1.
    9000010    2    1    2  501    0  0.13204470817E+02 -0.53305591331E+02 -0.25946136056E+03  0.10421665950E+04  0.10078567210E+04 0.  0.
   -9000010    2    1    2    0  503 -0.13204470817E+02  0.53305591331E+02  0.56763458201E+03  0.11555117486E+04  0.10049788745E+04 0.  0.
        -13    1    3    3    0    0 -0.38650535344E+03  0.23474067230E+03 -0.30794577061E+03  0.54710161787E+03  0.10566000000E+00 0.  1.
          4    1    3    3  501    0  0.39970982426E+03 -0.28804626363E+03  0.48484410047E+02  0.49506497717E+03  0.00000000000E+00 0.  1.
         13    1    4    4    0    0 -0.12045416098E+03  0.51645414153E+03  0.32168999845E+03  0.62025684314E+03  0.10566000000E+00 0. -1.
         -4    1    4    4    0  503  0.10724969016E+03 -0.46314855020E+03  0.24594458355E+03  0.53525490541E+03  0.00000000000E+00 0. -1.
<mgrwt>
<rscale>  2 0.10086326E+04</rscale>
<asrwt>0</asrwt>
<pdfrwt beam="1">  1       21 0.19275781E+00 0.10093518E+04</pdfrwt>
<pdfrwt beam="2">  1       21 0.14534655E+00 0.10093518E+04</pdfrwt>
<totfact> 0.22863317E+01</totfact>
</mgrwt>
</event>
<event>
 8    1  0.7418332E-006  0.1039357E+04  0.7818608E-02  0.8743794E-01
         21   -1    0    0  501  502  0.00000000000E+00  0.00000000000E+00  0.81963011627E+03  0.81963011627E+03  0.00000000000E+00 0. -1.
         21   -1    0    0  502  503 -0.00000000000E+00 -0.00000000000E+00 -0.13816700725E+04  0.13816700725E+04  0.00000000000E+00 0. -1.
    9000010    2    1    2  501    0  0.11142720098E+03 -0.33403356740E+02  0.79507200369E+01  0.10159091309E+04  0.10091958893E+04 0.  0.
   -9000010    2    1    2    0  503 -0.11142720098E+03  0.33403356740E+02 -0.56999067630E+03  0.11853910579E+04  0.10328265990E+04 0.  0.
        -13    1    3    3    0    0 -0.12701539518E+03 -0.48579550215E+03 -0.30724619714E+02  0.50306480093E+03  0.10566000000E+00 0.  1.
          4    1    3    3  501    0  0.23844259616E+03  0.45239214541E+03  0.38675339751E+02  0.51284432998E+03  0.00000000000E+00 0.  1.
         13    1    4    4    0    0 -0.12863871892E+03 -0.37388643989E+03 -0.65864071184E+03  0.76820998978E+03  0.10566000000E+00 0. -1.
         -4    1    4    4    0  503  0.17211517943E+02  0.40728979663E+03  0.88650035533E+02  0.41718106811E+03  0.00000000000E+00 0. -1.
<mgrwt>
<rscale>  2 0.10334367E+04</rscale>
<asrwt>0</asrwt>
<pdfrwt beam="1">  1       21 0.12609694E+00 0.10393568E+04</pdfrwt>
<pdfrwt beam="2">  1       21 0.21256462E+00 0.10393568E+04</pdfrwt>
<totfact> 0.24190816E+01</totfact>
</mgrwt>
</event>
<event>
 8    1  0.7418332E-006  0.1019428E+04  0.7818608E-02  0.8756944E-01
         21   -1    0    0  503  502  0.00000000000E+00  0.00000000000E+00  0.14159683068E+04  0.14159683068E+04  0.00000000000E+00 0.  1.
         21   -1    0    0  501  503 -0.00000000000E+00 -0.00000000000E+00 -0.88157022986E+03  0.88157022986E+03  0.00000000000E+00 0.  1.
    9000010    2    1    2  501    0 -0.11093650529E+03 -0.13683238725E+03 -0.20506276967E+03  0.10381594802E+04  0.10023444300E+04 0.  0.
   -9000010    2    1    2    0  502  0.11093650529E+03  0.13683238725E+03  0.73946084662E+03  0.12593790565E+04  0.10040932496E+04 0.  0.
        -13    1    3    3    0    0 -0.13796095034E+03  0.30934997341E+03  0.23392575639E+03  0.41164535773E+03  0.10566000000E+00 0.  1.
          4    1    3    3  501    0  0.27024445053E+02 -0.44618236066E+03 -0.43898852606E+03  0.62651412244E+03  0.00000000000E+00 0.  1.
         13    1    4    4    0    0  0.39345330795E+03  0.37170056939E+03  0.14466240384E+03  0.56026247516E+03  0.10566000000E+00 0. -1.
         -4    1    4    4    0  502 -0.28251680266E+03 -0.23486818214E+03  0.59479844279E+03  0.69911658134E+03  0.00000000000E+00 0. -1.
<mgrwt>
<rscale>  2 0.10189970E+04</rscale>
<asrwt>0</asrwt>
<pdfrwt beam="1">  1       21 0.21784128E+00 0.10194279E+04</pdfrwt>
<pdfrwt beam="2">  1       21 0.13562619E+00 0.10194279E+04</pdfrwt>
<totfact> 0.17949371E+01</totfact>
</mgrwt>
</event>
<event>
 8    1  0.7418332E-006  0.1112038E+04  0.7818608E-02  0.8677737E-01
         21   -1    0    0  501  502  0.00000000000E+00  0.00000000000E+00  0.57563931883E+03  0.57563931883E+03  0.00000000000E+00 0. -1.
         21   -1    0    0  502  503 -0.00000000000E+00 -0.00000000000E+00 -0.36913790314E+04  0.36913790314E+04  0.00000000000E+00 0. -1.
    9000010    2    1    2  501    0 -0.46089626861E+03  0.88753780981E+02 -0.16734199854E+03  0.11158791693E+04  0.99843896759E+03 0.  0.
   -9000010    2    1    2    0  503  0.46089626861E+03 -0.88753780981E+02 -0.29483977141E+04  0.31511391810E+04  0.10081301768E+04 0.  0.
        -13    1    3    3    0    0 -0.17106452463E+02 -0.42164912598E+03 -0.13324063950E+02  0.42220629792E+03  0.10566000000E+00 0.  1.
          4    1    3    3  501    0 -0.44378981615E+03  0.51040290696E+03 -0.15401793459E+03  0.69367287141E+03  0.00000000000E+00 0.  1.
         13    1    4    4    0    0  0.12148099248E+03  0.36372378690E+03 -0.20780714241E+04  0.21131572302E+04  0.10566000000E+00 0. -1.
         -4    1    4    4    0  503  0.33941527613E+03 -0.45247756788E+03 -0.87032629000E+03  0.10379819508E+04  0.00000000000E+00 0. -1.
<mgrwt>
<rscale>  2 0.11098372E+04</rscale>
<asrwt>0</asrwt>
<pdfrwt beam="1">  1       21 0.88559892E-01 0.11120382E+04</pdfrwt>
<pdfrwt beam="2">  1       21 0.56790449E+00 0.11120382E+04</pdfrwt>
<totfact> 0.18603305E-01</totfact>
</mgrwt>
</event>
<event>
 8    1  0.7418332E-006  0.1047455E+04  0.7818608E-02  0.8736304E-01
         21   -1    0    0  501  502  0.00000000000E+00  0.00000000000E+00  0.16439584568E+04  0.16439584568E+04  0.00000000000E+00 0. -1.
         21   -1    0    0  502  503 -0.00000000000E+00 -0.00000000000E+00 -0.68109731161E+03  0.68109731161E+03  0.00000000000E+00 0. -1.
    9000010    2    1    2  501    0  0.16897331825E+03 -0.14573610086E+03  0.24071943273E+03  0.10527933722E+04  0.10003184722E+04 0.  0.
   -9000010    2    1    2    0  503 -0.16897331825E+03  0.14573610086E+03  0.72214171243E+03  0.12722623962E+04  0.10234119203E+04 0.  0.
        -13    1    3    3    0    0 -0.14330490548E+02  0.37213747648E+03  0.32834730911E+03  0.49649132009E+03  0.10566000000E+00 0.  1.
          4    1    3    3  501    0  0.18330380880E+03 -0.51787357734E+03 -0.87627876379E+02  0.55630205208E+03  0.00000000000E+00 0.  1.
         13    1    4    4    0    0 -0.12641261775E+03 -0.43883290864E+03  0.37613853104E+03  0.59163728528E+03  0.10566000000E+00 0. -1.
         -4    1    4    4    0  503 -0.42560700495E+02  0.58456900950E+03  0.34600318139E+03  0.68062511093E+03  0.00000000000E+00 0. -1.
<mgrwt>
<rscale>  2 0.10417715E+04</rscale>
<asrwt>0</asrwt>
<pdfrwt beam="1">  1       21 0.25291668E+00 0.10474555E+04</pdfrwt>
<pdfrwt beam="2">  1       21 0.10478420E+00 0.10474555E+04</pdfrwt>
<totfact> 0.20182873E+01</totfact>
</mgrwt>
</event>
<event>
 8    1  0.7418332E-006  0.1004236E+04  0.7818608E-02  0.8772865E-01
         21   -1    0    0  501  502  0.00000000000E+00  0.00000000000E+00  0.29703374766E+04  0.29703374766E+04  0.00000000000E+00 0. -1.
         21   -1    0    0  502  503 -0.00000000000E+00 -0.00000000000E+00 -0.59732099168E+03  0.59732099168E+03  0.00000000000E+00 0. -1.
    9000010    2    1    2  501    0  0.14929272428E+03  0.31968097960E+02  0.23688935654E+04  0.25729645155E+04  0.99256203684E+03 0.  0.
   -9000010    2    1    2    0  503 -0.14929272428E+03 -0.31968097960E+02  0.41229194698E+01  0.99469395275E+03  0.98289815564E+03 0.  0.
        -13    1    3    3    0    0  0.44605026415E+03 -0.23408991098E+01  0.45969470778E+03  0.64053536474E+03  0.10566000000E+00 0.  1.
          4    1    3    3  501    0 -0.29675753987E+03  0.34308997070E+02  0.19091988576E+04  0.19324291508E+04  0.00000000000E+00 0.  1.
         13    1    4    4    0    0  0.19919528745E+03 -0.42500771237E+03  0.56992760013E+01  0.46940687152E+03  0.10566000000E+00 0. -1.
         -4    1    4    4    0  503 -0.34848801172E+03  0.39303961441E+03 -0.15763565315E+01  0.52528708123E+03  0.00000000000E+00 0. -1.
<mgrwt>
<rscale>  2 0.10018397E+04</rscale>
<asrwt>0</asrwt>
<pdfrwt beam="1">  1       21 0.45697499E+00 0.10042359E+04</pdfrwt>
<pdfrwt beam="2">  1       21 0.91895539E-01 0.10042359E+04</pdfrwt>
<totfact> 0.10591909E+00</totfact>
</mgrwt>
</event>
<event>
 8    1  0.7418332E-006  0.1051261E+04  0.7818608E-02  0.8730277E-01
         21   -1    0    0  503  502  0.00000000000E+00  0.00000000000E+00  0.16934268995E+04  0.16934268995E+04  0.00000000000E+00 0. -1.
         21   -1    0    0  501  503 -0.00000000000E+00 -0.00000000000E+00 -0.11776695800E+04  0.11776695800E+04  0.00000000000E+00 0. -1.
    9000010    2    1    2  501    0  0.13726194227E+02  0.28922020910E+03 -0.70750447800E+03  0.12581738984E+04  0.99930087281E+03 0.  0.
   -9000010    2    1    2    0  502 -0.13726194227E+02 -0.28922020910E+03  0.12232617976E+04  0.16129225811E+04  0.10106003610E+04 0.  0.
        -13    1    3    3    0    0  0.66278605312E+02  0.28618746059E+03  0.19599435367E+03  0.35314290868E+03  0.10566000000E+00 0.  1.
          4    1    3    3  501    0 -0.52552411086E+02  0.30327485185E+01 -0.90349883167E+03  0.90503098969E+03  0.00000000000E+00 0.  1.
         13    1    4    4    0    0 -0.40745624437E+03 -0.45601258842E+03  0.59713280911E+03  0.85471379698E+03  0.10566000000E+00 0. -1.
         -4    1    4    4    0  502  0.39373005014E+03  0.16679237931E+03  0.62612898846E+03  0.75820878415E+03  0.00000000000E+00 0. -1.
<mgrwt>
<rscale>  2 0.10485360E+04</rscale>
<asrwt>0</asrwt>
<pdfrwt beam="1">  1       21 0.26052722E+00 0.10512611E+04</pdfrwt>
<pdfrwt beam="2">  1       21 0.18117994E+00 0.10512611E+04</pdfrwt>
<totfact> 0.34649775E+00</totfact>
</mgrwt>
</event>
<event>
 8    1  0.7418332E-006  0.1048492E+04  0.7818608E-02  0.8730802E-01
         21   -1    0    0  501  502  0.00000000000E+00  0.00000000000E+00  0.59172955443E+03  0.59172955443E+03  0.00000000000E+00 0.  1.
         21   -1    0    0  502  503 -0.00000000000E+00 -0.00000000000E+00 -0.19503724559E+04  0.19503724559E+04  0.00000000000E+00 0.  1.
    9000010    2    1    2  501    0  0.61481986658E+02 -0.30024221853E+03 -0.39605649789E+03  0.11187581876E+04  0.10004167674E+04 0.  0.
   -9000010    2    1    2    0  503 -0.61481986658E+02  0.30024221853E+03 -0.96258640357E+03  0.14233438227E+04  0.10027011662E+04 0.  0.
        -13    1    3    3    0    0 -0.33380773205E+03  0.46275616367E+02 -0.47993809867E+03  0.58643808229E+03  0.10566000000E+00 0.  1.
          4    1    3    3  501    0  0.39528971870E+03 -0.34651783489E+03  0.83881600776E+02  0.53232010535E+03  0.00000000000E+00 0.  1.
         13    1    4    4    0    0 -0.46331583803E+03  0.37073381626E+03 -0.77024120966E+03  0.97230481872E+03  0.10566000000E+00 0. -1.
         -4    1    4    4    0  503  0.40183385137E+03 -0.70491597734E+02 -0.19234519391E+03  0.45103900395E+03  0.00000000000E+00 0. -1.
<mgrwt>
<rscale>  2 0.10479453E+04</rscale>
<asrwt>0</asrwt>
<pdfrwt beam="1">  1       21 0.91035316E-01 0.10484918E+04</pdfrwt>
<pdfrwt beam="2">  1       21 0.30005730E+00 0.10484918E+04</pdfrwt>
<totfact> 0.13383873E+01</totfact>
</mgrwt>
</event>
<event>
 8    1  0.7418332E-006  0.1007283E+04  0.7818608E-02  0.8777629E-01
         21   -1    0    0  501  502  0.00000000000E+00  0.00000000000E+00  0.69801476046E+03  0.69801476046E+03  0.00000000000E+00 0. -1.
         21   -1    0    0  502  503 -0.00000000000E+00 -0.00000000000E+00 -0.16231297804E+04  0.16231297804E+04  0.00000000000E+00 0. -1.
    9000010    2    1    2  501    0  0.10542403317E+03 -0.58626188386E+02 -0.90641004635E+03  0.13550639769E+04  0.10000339757E+04 0.  0.
   -9000010    2    1    2    0  503 -0.10542403317E+03  0.58626188386E+02 -0.18704973603E+02  0.96608056399E+03  0.95833737450E+03 0.  0.
        -13    1    3    3    0    0 -0.21625951948E+03 -0.16496049980E+03  0.10259297400E+03  0.29069825548E+03  0.10566000000E+00 0.  1.
          4    1    3    3  501    0  0.32168355265E+03  0.10633431142E+03 -0.10090030204E+04  0.10643657214E+04  0.00000000000E+00 0.  1.
         13    1    4    4    0    0  0.16942155106E+03  0.17756079240E+02  0.41635507647E+03  0.44985608941E+03  0.10566000000E+00 0. -1.
         -4    1    4    4    0  503 -0.27484558423E+03  0.40870109146E+02 -0.43506005007E+03  0.51622447458E+03  0.00000000000E+00 0. -1.
<mgrwt>
<rscale>  2 0.99677385E+03</rscale>
<asrwt>0</asrwt>
<pdfrwt beam="1">  1       21 0.10738689E+00 0.10072831E+04</pdfrwt>
<pdfrwt beam="2">  1       21 0.24971227E+00 0.10072831E+04</pdfrwt>
<totfact> 0.20127573E+01</totfact>
</mgrwt>
</event>
<event>
 8    1  0.7418332E-006  0.1033119E+04  0.7818608E-02  0.8754272E-01
         21   -1    0    0  503  502  0.00000000000E+00  0.00000000000E+00  0.98008081533E+03  0.98008081533E+03  0.00000000000E+00 0.  1.
         21   -1    0    0  501  503 -0.00000000000E+00 -0.00000000000E+00 -0.10971029311E+04  0.10971029311E+04  0.00000000000E+00 0.  1.
    9000010    2    1    2  501    0 -0.18123894281E+03 -0.20016393059E+03 -0.29024562380E+03  0.10731159554E+04  0.99720718912E+03 0.  0.
   -9000010    2    1    2    0  502  0.18123894281E+03  0.20016393059E+03  0.17322350801E+03  0.10040677911E+04  0.95143711924E+03 0.  0.
        -13    1    3    3    0    0  0.87540117621E+02  0.84578567781E+02  0.32319594588E+03  0.34535841805E+03  0.10566000000E+00 0.  1.
          4    1    3    3  501    0 -0.26877906044E+03 -0.28474249837E+03 -0.61344156968E+03  0.72775753732E+03  0.00000000000E+00 0.  1.
         13    1    4    4    0    0 -0.24271676235E+03 -0.24061914055E+03  0.19236406291E+03  0.39218993025E+03  0.10566000000E+00 0. -1.
         -4    1    4    4    0  502  0.42395570516E+03  0.44078307114E+03 -0.19140554898E+02  0.61187786084E+03  0.00000000000E+00 0. -1.
<mgrwt>
<rscale>  2 0.10219115E+04</rscale>
<asrwt>0</asrwt>
<pdfrwt beam="1">  1       21 0.15078166E+00 0.10331192E+04</pdfrwt>
<pdfrwt beam="2">  1       21 0.16878507E+00 0.10331192E+04</pdfrwt>
<totfact> 0.31868678E+01</totfact>
</mgrwt>
</event>
<event>
 8    1  0.7418332E-006  0.1009965E+04  0.7818608E-02  0.8785309E-01
         21   -1    0    0  503  502  0.00000000000E+00  0.00000000000E+00  0.62862634219E+03  0.62862634219E+03  0.00000000000E+00 0. -1.
         21   -1    0    0  501  503 -0.00000000000E+00 -0.00000000000E+00 -0.17570490174E+04  0.17570490174E+04  0.00000000000E+00 0. -1.
    9000010    2    1    2  501    0  0.55504976635E+02  0.13642949330E+03 -0.10468926069E+04  0.14546526711E+04  0.99916788085E+03 0.  0.
   -9000010    2    1    2    0  502 -0.55504976635E+02 -0.13642949330E+03 -0.81530068369E+02  0.93102268853E+03  0.91567586264E+03 0.  0.
        -13    1    3    3    0    0  0.36383852611E+03  0.18416021698E+03 -0.10667280334E+04  0.11420167105E+04  0.10566000000E+00 0.  1.
          4    1    3    3  501    0 -0.30833354947E+03 -0.47730723674E+02  0.19835426545E+02  0.31263596060E+03  0.00000000000E+00 0.  1.
         13    1    4    4    0    0  0.17558351992E+03  0.29952370378E+03  0.15927307667E+03  0.38198422180E+03  0.10566000000E+00 0. -1.
         -4    1    4    4    0  502 -0.23108849655E+03 -0.43595319708E+03 -0.24080314504E+03  0.54903846672E+03  0.00000000000E+00 0. -1.
<mgrwt>
<rscale>  2 0.98867159E+03</rscale>
<asrwt>0</asrwt>
<pdfrwt beam="1">  1       21 0.96711745E-01 0.10099655E+04</pdfrwt>
<pdfrwt beam="2">  1       21 0.27031523E+00 0.10099655E+04</pdfrwt>
<totfact> 0.18822155E+01</totfact>
</mgrwt>
</event>
<event>
 8    1  0.7418332E-006  0.1010374E+04  0.7818608E-02  0.8766021E-01
         21   -1    0    0  503  502  0.00000000000E+00  0.00000000000E+00  0.11844083952E+04  0.11844083952E+04  0.00000000000E+00 0. -1.
         21   -1    0    0  501  503 -0.00000000000E+00 -0.00000000000E+00 -0.92193566473E+03  0.92193566473E+03  0.00000000000E+00 0. -1.
    9000010    2    1    2  501    0 -0.82708890936E+02 -0.82520556995E+02 -0.14678032151E+03  0.10162320323E+04  0.99876557696E+03 0.  0.
   -9000010    2    1    2    0  502  0.82708890936E+02  0.82520556995E+02  0.40925305201E+03  0.10901120277E+04  0.10035964175E+04 0.  0.
        -13    1    3    3    0    0  0.74224660386E+02  0.16424146733E+03 -0.51522345523E+03  0.54583860232E+03  0.10566000000E+00 0.  1.
          4    1    3    3  501    0 -0.15693355132E+03 -0.24676202432E+03  0.36844313372E+03  0.47039342997E+03  0.00000000000E+00 0.  1.
         13    1    4    4    0    0  0.31865327133E+03 -0.86130369544E+02 -0.22037954293E+03  0.39689482485E+03  0.10566000000E+00 0. -1.
         -4    1    4    4    0  502 -0.23594438039E+03  0.16865092654E+03  0.62963259494E+03  0.69321720281E+03  0.00000000000E+00 0. -1.
<mgrwt>
<rscale>  2 0.10091726E+04</rscale>
<asrwt>0</asrwt>
<pdfrwt beam="1">  1       21 0.18221668E+00 0.10103743E+04</pdfrwt>
<pdfrwt beam="2">  1       21 0.14183626E+00 0.10103743E+04</pdfrwt>
<totfact> 0.29889182E+01</totfact>
</mgrwt>
</event>
<event>
 8    1  0.7418332E-006  0.1008213E+04  0.7818608E-02  0.8830737E-01
         21   -1    0    0  501  502  0.00000000000E+00  0.00000000000E+00  0.88224105871E+03  0.88224105871E+03  0.00000000000E+00 0. -1.
         21   -1    0    0  502  503 -0.00000000000E+00 -0.00000000000E+00 -0.93815119141E+03  0.93815119141E+03  0.00000000000E+00 0. -1.
    9000010    2    1    2  501    0  0.17030931086E+03  0.98162580125E+02  0.16810280728E+03  0.78759240087E+03  0.74390999630E+03 0.  0.
   -9000010    2    1    2    0  503 -0.17030931086E+03 -0.98162580125E+02 -0.22401293997E+03  0.10327998493E+04  0.98886428687E+03 0.  0.
        -13    1    3    3    0    0 -0.13882297741E+03 -0.19449022872E+03  0.25891440761E+03  0.35232790091E+03  0.10566000000E+00 0.  1.
          4    1    3    3  501    0  0.30913228826E+03  0.29265280885E+03 -0.90811600333E+02  0.43526449996E+03  0.00000000000E+00 0.  1.
         13    1    4    4    0    0 -0.66653119589E+02  0.41774227022E+03 -0.27432033463E+03  0.50418538241E+03  0.10566000000E+00 0. -1.
         -4    1    4    4    0  503 -0.10365619127E+03 -0.51590485035E+03  0.50307394659E+02  0.52861446684E+03  0.00000000000E+00 0. -1.
<mgrwt>
<rscale>  2 0.94234177E+03</rscale>
<asrwt>0</asrwt>
<pdfrwt beam="1">  1       21 0.13572939E+00 0.10082131E+04</pdfrwt>
<pdfrwt beam="2">  1       21 0.14433095E+00 0.10082131E+04</pdfrwt>
<totfact> 0.71920426E+01</totfact>
</mgrwt>
</event>
<event>
 8    1  0.7418332E-006  0.1055004E+04  0.7818608E-02  0.8729848E-01
         21   -1    0    0  501  502  0.00000000000E+00  0.00000000000E+00  0.50796364385E+03  0.50796364385E+03  0.00000000000E+00 0.  1.
         21   -1    0    0  502  503 -0.00000000000E+00 -0.00000000000E+00 -0.25743805211E+04  0.25743805211E+04  0.00000000000E+00 0.  1.
    9000010    2    1    2  501    0  0.16314613186E+03 -0.23337449974E+03 -0.39196304900E+03  0.11032459256E+04  0.99117920833E+03 0.  0.
   -9000010    2    1    2    0  503 -0.16314613186E+03  0.23337449974E+03 -0.16744538282E+04  0.19790982394E+04  0.10158513182E+04 0.  0.
        -13    1    3    3    0    0  0.17807706762E+03  0.25071388178E+03  0.17798388416E+03  0.35531277308E+03  0.10566000000E+00 0.  1.
          4    1    3    3  501    0 -0.14930935767E+02 -0.48408838151E+03 -0.56994693317E+03  0.74793315248E+03  0.00000000000E+00 0.  1.
         13    1    4    4    0    0 -0.11834693481E+03  0.29199263520E+03 -0.18033044548E+04  0.18306208411E+04  0.10566000000E+00 0. -1.
         -4    1    4    4    0  503 -0.44799197045E+02 -0.58618135461E+02  0.12885062652E+03  0.14847739833E+03  0.00000000000E+00 0. -1.
<mgrwt>
<rscale>  2 0.10490199E+04</rscale>
<asrwt>0</asrwt>
<pdfrwt beam="1">  1       21 0.78148253E-01 0.10550044E+04</pdfrwt>
<pdfrwt beam="2">  1       21 0.39605854E+00 0.10550044E+04</pdfrwt>
<totfact> 0.41503207E+00</totfact>
</mgrwt>
</event>
<event>
 8    1  0.7418332E-006  0.1016999E+04  0.7818608E-02  0.8760645E-01
         21   -1    0    0  503  502  0.00000000000E+00  0.00000000000E+00  0.45527126578E+03  0.45527126578E+03  0.00000000000E+00 0. -1.
         21   -1    0    0  501  503 -0.00000000000E+00 -0.00000000000E+00 -0.24487225770E+04  0.24487225770E+04  0.00000000000E+00 0. -1.
    9000010    2    1    2  501    0  0.79316451576E+02 -0.11890863939E+03 -0.59074677343E+03  0.11761246779E+04  0.10069047342E+04 0.  0.
   -9000010    2    1    2    0  502 -0.79316451576E+02  0.11890863939E+03 -0.14027045378E+04  0.17278691648E+04  0.99875996437E+03 0.  0.
        -13    1    3    3    0    0  0.33506230338E+03  0.65800243799E+02 -0.74901512751E+03  0.82317682890E+03  0.10566000000E+00 0.  1.
          4    1    3    3  501    0 -0.25574585180E+03 -0.18470888319E+03  0.15826835408E+03  0.35294784905E+03  0.00000000000E+00 0.  1.
         13    1    4    4    0    0 -0.30471267497E+03  0.78012100230E+02 -0.14585528953E+04  0.14920831952E+04  0.10566000000E+00 0. -1.
         -4    1    4    4    0  502  0.22539622339E+03  0.40896539163E+02  0.55848357449E+02  0.23578596961E+03  0.00000000000E+00 0. -1.
<mgrwt>
<rscale>  2 0.10149774E+04</rscale>
<asrwt>0</asrwt>
<pdfrwt beam="1">  1       21 0.70041734E-01 0.10169993E+04</pdfrwt>
<pdfrwt beam="2">  1       21 0.37672655E+00 0.10169993E+04</pdfrwt>
<totfact> 0.74308093E+00</totfact>
</mgrwt>
</event>
<event>
 8    1  0.7418332E-006  0.1033237E+04  0.7818608E-02  0.8744593E-01
         21   -1    0    0  503  502  0.00000000000E+00  0.00000000000E+00  0.11353425559E+04  0.11353425559E+04  0.00000000000E+00 0.  1.
         21   -1    0    0  501  503 -0.00000000000E+00 -0.00000000000E+00 -0.16325804088E+04  0.16325804088E+04  0.00000000000E+00 0.  1.
    9000010    2    1    2  501    0 -0.25830122887E+03  0.66825969554E+02 -0.11512520087E+04  0.15450925731E+04  0.99536156085E+03 0.  0.
   -9000010    2    1    2    0  502  0.25830122887E+03 -0.66825969554E+02  0.65401415574E+03  0.12228303917E+04  0.99819557995E+03 0.  0.
        -13    1    3    3    0    0 -0.25146639751E+02  0.32810737187E+03 -0.11486934611E+04  0.11948989412E+04  0.10566000000E+00 0.  1.
          4    1    3    3  501    0 -0.23315458912E+03 -0.26128140232E+03 -0.25585475726E+01  0.35019363185E+03  0.00000000000E+00 0.  1.
         13    1    4    4    0    0 -0.31750261513E+03  0.22190178815E+03  0.28022014916E+03  0.47809168300E+03  0.10566000000E+00 0. -1.
         -4    1    4    4    0  502  0.57580384399E+03 -0.28872775771E+03  0.37379400658E+03  0.74473870866E+03  0.00000000000E+00 0. -1.
<mgrwt>
<rscale>  2 0.10325524E+04</rscale>
<asrwt>0</asrwt>
<pdfrwt beam="1">  1       21 0.17466809E+00 0.10332375E+04</pdfrwt>
<pdfrwt beam="2">  1       21 0.25116622E+00 0.10332375E+04</pdfrwt>
<totfact> 0.46011585E+00</totfact>
</mgrwt>
</event>
<event>
 8    1  0.7418332E-006  0.1167243E+04  0.7818608E-02  0.8633873E-01
         21   -1    0    0  503  502  0.00000000000E+00  0.00000000000E+00  0.79892074060E+03  0.79892074060E+03  0.00000000000E+00 0. -1.
         21   -1    0    0  501  503 -0.00000000000E+00 -0.00000000000E+00 -0.37523275427E+04  0.37523275427E+04  0.00000000000E+00 0. -1.
    9000010    2    1    2  501    0 -0.59006355936E+03 -0.90775946842E+02 -0.31675014058E+04  0.33757253606E+04  0.10030160905E+04 0.  0.
   -9000010    2    1    2    0  502  0.59006355936E+03  0.90775946842E+02  0.21409460368E+03  0.11755229227E+04  0.98974863774E+03 0.  0.
        -13    1    3    3    0    0 -0.39820308960E+03 -0.66594436723E+02 -0.30320785658E+03  0.50491141305E+03  0.10566000000E+00 0.  1.
          4    1    3    3  501    0 -0.19186046976E+03 -0.24181510120E+02 -0.28642935492E+04  0.28708139476E+04  0.00000000000E+00 0.  1.
         13    1    4    4    0    0  0.28027020729E+03 -0.36910854908E+03 -0.17793481225E+03  0.49644064970E+03  0.10566000000E+00 0. -1.
         -4    1    4    4    0  502  0.30979335207E+03  0.45988449592E+03  0.39202941593E+03  0.67908227302E+03  0.00000000000E+00 0. -1.
<mgrwt>
<rscale>  2 0.11643875E+04</rscale>
<asrwt>0</asrwt>
<pdfrwt beam="1">  1       21 0.12291089E+00 0.11672431E+04</pdfrwt>
<pdfrwt beam="2">  1       21 0.57728115E+00 0.11672431E+04</pdfrwt>
<totfact> 0.65217594E-02</totfact>
</mgrwt>
</event>
<event>
 8    1  0.7418332E-006  0.1051190E+04  0.7818608E-02  0.8732706E-01
         21   -1    0    0  503  502  0.00000000000E+00  0.00000000000E+00  0.10932321060E+04  0.10932321060E+04  0.00000000000E+00 0. -1.
         21   -1    0    0  501  503 -0.00000000000E+00 -0.00000000000E+00 -0.18756371196E+04  0.18756371196E+04  0.00000000000E+00 0. -1.
    9000010    2    1    2  501    0  0.53925249001E+02  0.26004633257E+03 -0.14089065139E+04  0.17451437543E+04  0.99497594473E+03 0.  0.
   -9000010    2    1    2    0  502 -0.53925249001E+02 -0.26004633257E+03  0.62650150033E+03  0.12237254714E+04  0.10170879371E+04 0.  0.
        -13    1    3    3    0    0 -0.21984110264E+03  0.99496378534E+02 -0.14072288169E+04  0.14277683965E+04  0.10566000000E+00 0.  1.
          4    1    3    3  501    0  0.27376635164E+03  0.16054995404E+03 -0.16776969672E+01  0.31737535774E+03  0.00000000000E+00 0.  1.
         13    1    4    4    0    0 -0.27544302166E+03  0.58867285675E+02  0.76205816458E+03  0.81244499682E+03  0.10566000000E+00 0. -1.
         -4    1    4    4    0  502  0.22151777266E+03 -0.31891361825E+03 -0.13555666425E+03  0.41128047453E+03  0.00000000000E+00 0. -1.
<mgrwt>
<rscale>  2 0.10458036E+04</rscale>
<asrwt>0</asrwt>
<pdfrwt beam="1">  1       21 0.16818956E+00 0.10511898E+04</pdfrwt>
<pdfrwt beam="2">  1       21 0.28855955E+00 0.10511898E+04</pdfrwt>
<totfact> 0.27985424E+00</totfact>
</mgrwt>
</event>
<event>
 8    1  0.7418332E-006  0.1020602E+04  0.7818608E-02  0.8782368E-01
         21   -1    0    0  501  502  0.00000000000E+00  0.00000000000E+00  0.10570958402E+04  0.10570958402E+04  0.00000000000E+00 0. -1.
         21   -1    0    0  502  503 -0.00000000000E+00 -0.00000000000E+00 -0.99648819832E+03  0.99648819832E+03  0.00000000000E+00 0. -1.
    9000010    2    1    2  501    0 -0.14298962313E+03 -0.17266734528E+03  0.38009546051E+03  0.10890821797E+04  0.99567433960E+03 0.  0.
   -9000010    2    1    2    0  503  0.14298962313E+03  0.17266734528E+03 -0.31948781862E+03  0.96450185885E+03  0.88200415250E+03 0.  0.
        -13    1    3    3    0    0 -0.47375975725E+03 -0.39568151211E+03  0.27992926848E+03  0.67777029526E+03  0.10566000000E+00 0.  1.
          4    1    3    3  501    0  0.33077013412E+03  0.22301416683E+03  0.10016619203E+03  0.41131188441E+03  0.00000000000E+00 0.  1.
         13    1    4    4    0    0 -0.20703084507E+03  0.10565507772E+03 -0.50994912579E+03  0.56042206266E+03  0.10566000000E+00 0. -1.
         -4    1    4    4    0  503  0.35002046820E+03  0.67012267553E+02  0.19046130717E+03  0.40407979619E+03  0.00000000000E+00 0. -1.
<mgrwt>
<rscale>  2 0.99176435E+03</rscale>
<asrwt>0</asrwt>
<pdfrwt beam="1">  1       21 0.16263013E+00 0.10206015E+04</pdfrwt>
<pdfrwt beam="2">  1       21 0.15330588E+00 0.10206015E+04</pdfrwt>
<totfact> 0.34231079E+01</totfact>
</mgrwt>
</event>
<event>
 8    1  0.7418332E-006  0.1041668E+04  0.7818608E-02  0.8748323E-01
         21   -1    0    0  501  502  0.00000000000E+00  0.00000000000E+00  0.37309306661E+03  0.37309306661E+03  0.00000000000E+00 0.  1.
         21   -1    0    0  502  503 -0.00000000000E+00 -0.00000000000E+00 -0.27892392687E+04  0.27892392687E+04  0.00000000000E+00 0.  1.
    9000010    2    1    2  501    0 -0.27472554916E+03  0.19548016205E+02 -0.13243746146E+04  0.16533465886E+04  0.95064744770E+03 0.  0.
   -9000010    2    1    2    0  503  0.27472554916E+03 -0.19548016205E+02 -0.10917715875E+04  0.15089857468E+04  0.10045976968E+04 0.  0.
        -13    1    3    3    0    0  0.31748157577E+03  0.10149201757E+03 -0.76566444630E+03  0.83506720453E+03  0.10566000000E+00 0.  1.
          4    1    3    3  501    0 -0.59220712493E+03 -0.81944001363E+02 -0.55871016828E+03  0.81827938402E+03  0.00000000000E+00 0.  1.
         13    1    4    4    0    0  0.99994080177E+02 -0.33605916662E+03 -0.10925646986E+04  0.11474459514E+04  0.10566000000E+00 0. -1.
         -4    1    4    4    0  503  0.17473146898E+03  0.31651115042E+03  0.79311112775E+00  0.36153979534E+03  0.00000000000E+00 0. -1.
<mgrwt>
<rscale>  2 0.10284364E+04</rscale>
<asrwt>0</asrwt>
<pdfrwt beam="1">  1       21 0.57398933E-01 0.10416683E+04</pdfrwt>
<pdfrwt beam="2">  1       21 0.42911374E+00 0.10416683E+04</pdfrwt>
<totfact> 0.50776368E+00</totfact>
</mgrwt>
</event>
<event>
 8    1  0.7418332E-006  0.9898272E+03  0.7818608E-02  0.8793610E-01
         21   -1    0    0  501  502  0.00000000000E+00  0.00000000000E+00  0.16060882832E+04  0.16060882832E+04  0.00000000000E+00 0. -1.
         21   -1    0    0  502  503 -0.00000000000E+00 -0.00000000000E+00 -0.61951125725E+03  0.61951125725E+03  0.00000000000E+00 0. -1.
    9000010    2    1    2  501    0 -0.87731789917E+02  0.77629602639E+02  0.74118562636E+03  0.12058079477E+04  0.94387152291E+03 0.  0.
   -9000010    2    1    2    0  503  0.87731789917E+02 -0.77629602639E+02  0.24539139958E+03  0.10197915928E+04  0.98287065860E+03 0.  0.
        -13    1    3    3    0    0 -0.10194059977E+03  0.49719579892E+03  0.27055292833E+03  0.57514732594E+03  0.10566000000E+00 0.  1.
          4    1    3    3  501    0  0.14208809854E+02 -0.41956619628E+03  0.47063269803E+03  0.63066062172E+03  0.00000000000E+00 0.  1.
         13    1    4    4    0    0  0.51620375784E+03 -0.33551152950E+02 -0.13080241454E+02  0.51745831074E+03  0.10566000000E+00 0. -1.
         -4    1    4    4    0  503 -0.42847196792E+03 -0.44078449689E+02  0.25847164103E+03  0.50233328204E+03  0.00000000000E+00 0. -1.
<mgrwt>
<rscale>  2 0.98000349E+03</rscale>
<asrwt>0</asrwt>
<pdfrwt beam="1">  1       21 0.24709050E+00 0.98982723E+03</pdfrwt>
<pdfrwt beam="2">  1       21 0.95309425E-01 0.98982723E+03</pdfrwt>
<totfact> 0.28880033E+01</totfact>
</mgrwt>
</event>
<event>
 8    1  0.7418332E-006  0.1021084E+04  0.7818608E-02  0.8762227E-01
         21   -1    0    0  503  502  0.00000000000E+00  0.00000000000E+00  0.14059507538E+04  0.14059507538E+04  0.00000000000E+00 0. -1.
         21   -1    0    0  501  503 -0.00000000000E+00 -0.00000000000E+00 -0.75248765487E+03  0.75248765487E+03  0.00000000000E+00 0. -1.
    9000010    2    1    2  501    0 -0.64706143542E+02  0.92109780323E+02  0.10486853331E+03  0.10264548284E+04  0.10148600932E+04 0.  0.
   -9000010    2    1    2    0  502  0.64706143542E+02 -0.92109780323E+02  0.54859456563E+03  0.11319835803E+04  0.98374779896E+03 0.  0.
        -13    1    3    3    0    0  0.37305185252E+03 -0.25207970469E+03 -0.37150491726E+02  0.45176546170E+03  0.10566000000E+00 0.  1.
          4    1    3    3  501    0 -0.43775799607E+03  0.34418948502E+03  0.14201902503E+03  0.57468936669E+03  0.00000000000E+00 0.  1.
         13    1    4    4    0    0 -0.22154919774E+03 -0.17109371576E+02  0.74459335841E+03  0.77704315078E+03  0.10566000000E+00 0. -1.
         -4    1    4    4    0  502  0.28625534128E+03 -0.75000408747E+02 -0.19599879279E+03  0.35494042951E+03  0.00000000000E+00 0. -1.
<mgrwt>
<rscale>  2 0.10132653E+04</rscale>
<asrwt>0</asrwt>
<pdfrwt beam="1">  1       21 0.21630012E+00 0.10210838E+04</pdfrwt>
<pdfrwt beam="2">  1       21 0.11576733E+00 0.10210838E+04</pdfrwt>
<totfact> 0.28917151E+01</totfact>
</mgrwt>
</event>
<event>
 8    1  0.7418332E-006  0.1060567E+04  0.7818608E-02  0.8735659E-01
         21   -1    0    0  503  502  0.00000000000E+00  0.00000000000E+00  0.79102867523E+03  0.79102867523E+03  0.00000000000E+00 0.  1.
         21   -1    0    0  501  503 -0.00000000000E+00 -0.00000000000E+00 -0.16706378037E+04  0.16706378037E+04  0.00000000000E+00 0.  1.
    9000010    2    1    2  501    0  0.52287019699E+02  0.10479142640E+03 -0.98408615880E+03  0.13959660741E+04  0.98314827799E+03 0.  0.
   -9000010    2    1    2    0  502 -0.52287019699E+02 -0.10479142640E+03  0.10447703035E+03  0.10657004048E+04  0.10540809872E+04 0.  0.
        -13    1    3    3    0    0 -0.21264987590E+03  0.48290938670E+03 -0.49779345013E+03  0.72541007412E+03  0.10566000000E+00 0.  1.
          4    1    3    3  501    0  0.26493689560E+03 -0.37811796030E+03 -0.48629270867E+03  0.67055599994E+03  0.00000000000E+00 0.  1.
         13    1    4    4    0    0 -0.31377691239E+03  0.20053230650E+02 -0.38488410100E+03  0.49698477358E+03  0.10566000000E+00 0. -1.
         -4    1    4    4    0  502  0.26148989269E+03 -0.12484465705E+03  0.48936113135E+03  0.56871563126E+03  0.00000000000E+00 0. -1.
<mgrwt>
<rscale>  2 0.10424930E+04</rscale>
<asrwt>0</asrwt>
<pdfrwt beam="1">  1       21 0.12169672E+00 0.10605668E+04</pdfrwt>
<pdfrwt beam="2">  1       21 0.25702120E+00 0.10605668E+04</pdfrwt>
<totfact> 0.12480679E+01</totfact>
</mgrwt>
</event>
<event>
 8    1  0.7418332E-006  0.1102391E+04  0.7818608E-02  0.8687902E-01
         21   -1    0    0  501  502  0.00000000000E+00  0.00000000000E+00  0.40521215295E+03  0.40521215295E+03  0.00000000000E+00 0. -1.
         21   -1    0    0  502  503 -0.00000000000E+00 -0.00000000000E+00 -0.31880069930E+04  0.31880069930E+04  0.00000000000E+00 0. -1.
    9000010    2    1    2  501    0 -0.38317204953E+03 -0.18247963385E+03 -0.88732551836E+03  0.14004877834E+04  0.99694524397E+03 0.  0.
   -9000010    2    1    2    0  503  0.38317204953E+03  0.18247963385E+03 -0.18954693217E+04  0.21927313626E+04  0.10174218607E+04 0.  0.
        -13    1    3    3    0    0 -0.34959127454E+03 -0.21050934842E+03  0.93527958284E+02  0.41865945009E+03  0.10566000000E+00 0.  1.
          4    1    3    3  501    0 -0.33580774991E+02  0.28029714565E+02 -0.98085347665E+03  0.98182833326E+03  0.00000000000E+00 0.  1.
         13    1    4    4    0    0  0.15568793804E+03  0.20140878874E+03 -0.19429663136E+04  0.19595719791E+04  0.10566000000E+00 0. -1.
         -4    1    4    4    0  503  0.22748411149E+03 -0.18929154891E+02  0.47496991905E+02  0.23315938352E+03  0.00000000000E+00 0. -1.
<mgrwt>
<rscale>  2 0.10976434E+04</rscale>
<asrwt>0</asrwt>
<pdfrwt beam="1">  1       21 0.62340332E-01 0.11023914E+04</pdfrwt>
<pdfrwt beam="2">  1       21 0.49046261E+00 0.11023914E+04</pdfrwt>
<totfact> 0.15549591E+00</totfact>
</mgrwt>
</event>
<event>
 8    1  0.7418332E-006  0.1011877E+04  0.7818608E-02  0.8764877E-01
         21   -1    0    0  503  502  0.00000000000E+00  0.00000000000E+00  0.63790255213E+03  0.63790255213E+03  0.00000000000E+00 0. -1.
         21   -1    0    0  501  503 -0.00000000000E+00 -0.00000000000E+00 -0.17642188064E+04  0.17642188064E+04  0.00000000000E+00 0. -1.
    9000010    2    1    2  501    0 -0.69947038975E+02 -0.65470837484E+02 -0.93575135626E+03  0.13782324547E+04  0.10073306704E+04 0.  0.
   -9000010    2    1    2    0  502  0.69947038975E+02  0.65470837484E+02 -0.19056489801E+03  0.10238889038E+04  0.10014262270E+04 0.  0.
        -13    1    3    3    0    0 -0.30826651024E+03 -0.10052864882E+03 -0.10590866120E+04  0.11076094589E+04  0.10566000000E+00 0.  1.
          4    1    3    3  501    0  0.23831947126E+03  0.35057811335E+02  0.12333525577E+03  0.27062299576E+03  0.00000000000E+00 0.  1.
         13    1    4    4    0    0  0.31581513024E+03 -0.33977971533E+03 -0.27954819865E+03  0.54160562956E+03  0.10566000000E+00 0. -1.
         -4    1    4    4    0  502 -0.24586809126E+03  0.40525055281E+03  0.88983300644E+02  0.48228327428E+03  0.00000000000E+00 0. -1.
<mgrwt>
<rscale>  2 0.10104039E+04</rscale>
<asrwt>0</asrwt>
<pdfrwt beam="1">  1       21 0.98138855E-01 0.10118765E+04</pdfrwt>
<pdfrwt beam="2">  1       21 0.27141828E+00 0.10118765E+04</pdfrwt>
<totfact> 0.17789124E+01</totfact>
</mgrwt>
</event>
<event>
 8    1  0.7418332E-006  0.1009736E+04  0.7818608E-02  0.8767706E-01
         21   -1    0    0  503  502  0.00000000000E+00  0.00000000000E+00  0.11631081566E+04  0.11631081566E+04  0.00000000000E+00 0. -1.
         21   -1    0    0  501  503 -0.00000000000E+00 -0.00000000000E+00 -0.87361310624E+03  0.87361310624E+03  0.00000000000E+00 0. -1.
    9000010    2    1    2  501    0  0.15540793358E+03  0.90333021271E+02  0.65318297196E+02  0.10023993340E+04  0.98398489029E+03 0.  0.
   -9000010    2    1    2    0  502 -0.15540793358E+03 -0.90333021271E+02  0.22417675314E+03  0.10343219288E+04  0.99360704265E+03 0.  0.
        -13    1    3    3    0    0 -0.20387127699E+03  0.44844698442E+03  0.46012023853E+02  0.49475783261E+03  0.10566000000E+00 0.  1.
          4    1    3    3  501    0  0.35927921057E+03 -0.35811396315E+03  0.19306273342E+02  0.50764150140E+03  0.00000000000E+00 0.  1.
         13    1    4    4    0    0  0.26251404889E+03 -0.35191627302E+03 -0.92049277252E+02  0.44858864195E+03  0.10566000000E+00 0. -1.
         -4    1    4    4    0  502 -0.41792198247E+03  0.26158325175E+03  0.31622603039E+03  0.58573328685E+03  0.00000000000E+00 0. -1.
<mgrwt>
<rscale>  2 0.10073608E+04</rscale>
<asrwt>0</asrwt>
<pdfrwt beam="1">  1       21 0.17893972E+00 0.10097359E+04</pdfrwt>
<pdfrwt beam="2">  1       21 0.13440202E+00 0.10097359E+04</pdfrwt>
<totfact> 0.37288185E+01</totfact>
</mgrwt>
</event>
<event>
 8    1  0.7418332E-006  0.9950888E+03  0.7818608E-02  0.8780256E-01
         21   -1    0    0  503  502  0.00000000000E+00  0.00000000000E+00  0.12823225568E+04  0.12823225568E+04  0.00000000000E+00 0. -1.
         21   -1    0    0  501  503 -0.00000000000E+00 -0.00000000000E+00 -0.77332532571E+03  0.77332532571E+03  0.00000000000E+00 0. -1.
    9000010    2    1    2  501    0 -0.12163516971E+03 -0.96393250231E+02  0.33254765015E+03  0.10450360633E+04  0.97848130326E+03 0.  0.
   -9000010    2    1    2    0  502  0.12163516971E+03  0.96393250231E+02  0.17644958097E+03  0.10106118192E+04  0.98291150228E+03 0.  0.
        -13    1    3    3    0    0 -0.23521664328E+03  0.40940391815E+03  0.16778716714E+03  0.50108979444E+03  0.10566000000E+00 0.  1.
          4    1    3    3  501    0  0.11358147357E+03 -0.50579716838E+03  0.16476048301E+03  0.54394626889E+03  0.00000000000E+00 0.  1.
         13    1    4    4    0    0 -0.20317137829E+03  0.36768227701E+03 -0.18026850234E+03  0.45712756412E+03  0.10566000000E+00 0. -1.
         -4    1    4    4    0  502  0.32480654801E+03 -0.27128902678E+03  0.35671808331E+03  0.55348425510E+03  0.00000000000E+00 0. -1.
<mgrwt>
<rscale>  2 0.99399309E+03</rscale>
<asrwt>0</asrwt>
<pdfrwt beam="1">  1       21 0.19728039E+00 0.99508884E+03</pdfrwt>
<pdfrwt beam="2">  1       21 0.11897313E+00 0.99508884E+03</pdfrwt>
<totfact> 0.37788764E+01</totfact>
</mgrwt>
</event>
<event>
 8    1  0.7418332E-006  0.1061223E+04  0.7818608E-02  0.8724516E-01
         21   -1    0    0  501  502  0.00000000000E+00  0.00000000000E+00  0.88444720128E+03  0.88444720128E+03  0.00000000000E+00 0. -1.
         21   -1    0    0  502  503 -0.00000000000E+00 -0.00000000000E+00 -0.14260728096E+04  0.14260728096E+04  0.00000000000E+00 0. -1.
    9000010    2    1    2  501    0 -0.14181425618E+03  0.29573269738E+03  0.14454911678E+03  0.10467832582E+04  0.98350985302E+03 0.  0.
   -9000010    2    1    2    0  503  0.14181425618E+03 -0.29573269738E+03 -0.68617472514E+03  0.12637367527E+04  0.10092698921E+04 0.  0.
        -13    1    3    3    0    0 -0.55214944970E+03  0.25574780943E+03 -0.41234366760E+01  0.60851702583E+03  0.10566000000E+00 0.  1.
          4    1    3    3  501    0  0.41033519352E+03  0.39984887955E+02  0.14867255346E+03  0.43826623240E+03  0.00000000000E+00 0.  1.
         13    1    4    4    0    0  0.23780837781E+03  0.29179559359E+02 -0.85306048077E+03  0.88606798061E+03  0.10566000000E+00 0. -1.
         -4    1    4    4    0  503 -0.95994121629E+02 -0.32491225674E+03  0.16688575563E+03  0.37766877208E+03  0.00000000000E+00 0. -1.
<mgrwt>
<rscale>  2 0.10550526E+04</rscale>
<asrwt>0</asrwt>
<pdfrwt beam="1">  1       21 0.13606880E+00 0.10612233E+04</pdfrwt>
<pdfrwt beam="2">  1       21 0.21939581E+00 0.10612233E+04</pdfrwt>
<totfact> 0.17137873E+01</totfact>
</mgrwt>
</event>
<event>
 8    1  0.7418332E-006  0.1041116E+04  0.7818608E-02  0.8739998E-01
         21   -1    0    0  503  502  0.00000000000E+00  0.00000000000E+00  0.19910012841E+04  0.19910012841E+04  0.00000000000E+00 0.  1.
         21   -1    0    0  501  503 -0.00000000000E+00 -0.00000000000E+00 -0.55457610161E+03  0.55457610161E+03  0.00000000000E+00 0.  1.
    9000010    2    1    2  501    0 -0.28126941808E+03  0.28131090380E+02  0.94799213947E+03  0.14080526742E+04  0.10020076812E+04 0.  0.
   -9000010    2    1    2    0  502  0.28126941808E+03 -0.28131090380E+02  0.48843304298E+03  0.11375247114E+04  0.98766987799E+03 0.  0.
        -13    1    3    3    0    0 -0.42607908260E+03 -0.26398225323E+02  0.11068307129E+04  0.11863028656E+04  0.10566000000E+00 0.  1.
          4    1    3    3  501    0  0.14480966452E+03  0.54529315703E+02 -0.15883857340E+03  0.22174980858E+03  0.00000000000E+00 0.  1.
         13    1    4    4    0    0 -0.17576001667E+03  0.19374475231E+03 -0.16541570183E+03  0.30950117622E+03  0.10566000000E+00 0. -1.
         -4    1    4    4    0  502  0.45702943475E+03 -0.22187584269E+03  0.65384874480E+03  0.82802353522E+03  0.00000000000E+00 0. -1.
<mgrwt>
<rscale>  2 0.10376511E+04</rscale>
<asrwt>0</asrwt>
<pdfrwt beam="1">  1       21 0.30630789E+00 0.10411163E+04</pdfrwt>
<pdfrwt beam="2">  1       21 0.85319401E-01 0.10411163E+04</pdfrwt>
<totfact> 0.14291962E+01</totfact>
</mgrwt>
</event>
<event>
 8    1  0.7418332E-006  0.9954584E+03  0.7818608E-02  0.8784533E-01
         21   -1    0    0  503  502  0.00000000000E+00  0.00000000000E+00  0.23175259457E+04  0.23175259457E+04  0.00000000000E+00 0. -1.
         21   -1    0    0  501  503 -0.00000000000E+00 -0.00000000000E+00 -0.41909829845E+03  0.41909829845E+03  0.00000000000E+00 0. -1.
    9000010    2    1    2  501    0 -0.55742051306E+02  0.28550922020E+02  0.85269699453E+03  0.12928479326E+04  0.96976351806E+03 0.  0.
   -9000010    2    1    2    0  502  0.55742051306E+02 -0.28550922020E+02  0.10457306527E+04  0.14437763115E+04  0.99348634024E+03 0.  0.
        -13    1    3    3    0    0  0.37209632539E+03 -0.25225692550E+03  0.30486191897E+03  0.54316667114E+03  0.10566000000E+00 0.  1.
          4    1    3    3  501    0 -0.42783837669E+03  0.28080784752E+03  0.54783507556E+03  0.74968126148E+03  0.00000000000E+00 0.  1.
         13    1    4    4    0    0 -0.35137242470E+03 -0.60391788465E+02  0.40561811471E+02  0.35882449842E+03  0.10566000000E+00 0. -1.
         -4    1    4    4    0  502  0.40711447600E+03  0.31840866445E+02  0.10051688413E+04  0.10849518131E+04  0.00000000000E+00 0. -1.
<mgrwt>
<rscale>  2 0.98948621E+03</rscale>
<asrwt>0</asrwt>
<pdfrwt beam="1">  1       21 0.35654245E+00 0.99545841E+03</pdfrwt>
<pdfrwt beam="2">  1       21 0.64476663E-01 0.99545841E+03</pdfrwt>
<totfact> 0.12571634E+01</totfact>
</mgrwt>
</event>
<event>
 8    1  0.7418332E-006  0.1157660E+04  0.7818608E-02  0.8644847E-01
         21   -1    0    0  503  502  0.00000000000E+00  0.00000000000E+00  0.23318952866E+04  0.23318952866E+04  0.00000000000E+00 0.  1.
         21   -1    0    0  501  503 -0.00000000000E+00 -0.00000000000E+00 -0.59217430874E+03  0.59217430874E+03  0.00000000000E+00 0.  1.
    9000010    2    1    2  501    0  0.25234225232E+03 -0.45314731381E+03  0.54258230021E+03  0.12785038972E+04  0.10349674209E+04 0.  0.
   -9000010    2    1    2    0  502 -0.25234225232E+03  0.45314731381E+03  0.11971386776E+04  0.16455656981E+04  0.10028590893E+04 0.  0.
        -13    1    3    3    0    0 -0.18767436157E+03 -0.42997731674E+03  0.67172792456E+03  0.81934154948E+03  0.10566000000E+00 0.  1.
          4    1    3    3  501    0  0.44001661389E+03 -0.23169997069E+02 -0.12914562434E+03  0.45916234771E+03  0.00000000000E+00 0.  1.
         13    1    4    4    0    0  0.32500877721E+02  0.70360770518E+03  0.98514717117E+03  0.12110470965E+04  0.10566000000E+00 0. -1.
         -4    1    4    4    0  502 -0.28484313005E+03 -0.25046039137E+03  0.21199150646E+03  0.43451860167E+03  0.00000000000E+00 0. -1.
<mgrwt>
<rscale>  2 0.11504393E+04</rscale>
<asrwt>0</asrwt>
<pdfrwt beam="1">  1       21 0.35875312E+00 0.11576600E+04</pdfrwt>
<pdfrwt beam="2">  1       21 0.91103741E-01 0.11576600E+04</pdfrwt>
<totfact> 0.50466715E+00</totfact>
</mgrwt>
</event>
<event>
 8    1  0.7418332E-006  0.1093288E+04  0.7818608E-02  0.8702451E-01
         21   -1    0    0  501  502  0.00000000000E+00  0.00000000000E+00  0.21285914882E+04  0.21285914882E+04  0.00000000000E+00 0.  1.
         21   -1    0    0  502  503 -0.00000000000E+00 -0.00000000000E+00 -0.64373547626E+03  0.64373547626E+03  0.00000000000E+00 0.  1.
    9000010    2    1    2  501    0 -0.24879015925E+03  0.20412954670E+03  0.13240446980E+04  0.17170827381E+04  0.10448508756E+04 0.  0.
   -9000010    2    1    2    0  503  0.24879015925E+03 -0.20412954670E+03  0.16081131400E+03  0.10552442264E+04  0.99202554573E+03 0.  0.
        -13    1    3    3    0    0  0.93439290718E+02 -0.54540199719E+02 -0.14826814551E+03  0.18354560352E+03  0.10566000000E+00 0.  1.
          4    1    3    3  501    0 -0.34222944997E+03  0.25866974642E+03  0.14723128435E+04  0.15335371346E+04  0.00000000000E+00 0.  1.
         13    1    4    4    0    0  0.13747502564E+02 -0.59036018397E+03  0.10300278128E+03  0.59943617238E+03  0.10566000000E+00 0. -1.
         -4    1    4    4    0  503  0.23504265669E+03  0.38623063726E+03  0.57808532718E+02  0.45580805399E+03  0.00000000000E+00 0. -1.
<mgrwt>
<rscale>  2 0.10804722E+04</rscale>
<asrwt>0</asrwt>
<pdfrwt beam="1">  1       21 0.32747561E+00 0.10932881E+04</pdfrwt>
<pdfrwt beam="2">  1       21 0.99036228E-01 0.10932881E+04</pdfrwt>
<totfact> 0.68432075E+00</totfact>
</mgrwt>
</event>
<event>
 8    1  0.7418332E-006  0.1070859E+04  0.7818608E-02  0.8716124E-01
         21   -1    0    0  501  502  0.00000000000E+00  0.00000000000E+00  0.17758149105E+04  0.17758149105E+04  0.00000000000E+00 0.  1.
         21   -1    0    0  502  503 -0.00000000000E+00 -0.00000000000E+00 -0.65310491205E+03  0.65310491205E+03  0.00000000000E+00 0.  1.
    9000010    2    1    2  501    0 -0.25361056043E+03 -0.30568345307E+03  0.33138550845E+03  0.10974040631E+04  0.96784225607E+03 0.  0.
   -9000010    2    1    2    0  503  0.25361056043E+03  0.30568345307E+03  0.79132448996E+03  0.13315157594E+04  0.99447427285E+03 0.  0.
        -13    1    3    3    0    0 -0.72278665596E+02 -0.29907199623E+03 -0.30645171819E+03  0.43425905999E+03  0.10566000000E+00 0.  1.
          4    1    3    3  501    0 -0.18133189483E+03 -0.66114568323E+01  0.63783722665E+03  0.66314500310E+03  0.00000000000E+00 0.  1.
         13    1    4    4    0    0  0.53428386421E+02  0.55068393599E+03  0.87891075786E+02  0.56020732073E+03  0.10566000000E+00 0. -1.
         -4    1    4    4    0  503  0.20018217401E+03 -0.24500048293E+03  0.70343341417E+03  0.77130843869E+03  0.00000000000E+00 0. -1.
<mgrwt>
<rscale>  2 0.10646339E+04</rscale>
<asrwt>0</asrwt>
<pdfrwt beam="1">  1       21 0.27320229E+00 0.10708594E+04</pdfrwt>
<pdfrwt beam="2">  1       21 0.10047768E+00 0.10708594E+04</pdfrwt>
<totfact> 0.16027475E+01</totfact>
</mgrwt>
</event>
<event>
 8    1  0.7418332E-006  0.1123056E+04  0.7818608E-02  0.8670309E-01
         21   -1    0    0  501  502  0.00000000000E+00  0.00000000000E+00  0.53235816928E+03  0.53235816928E+03  0.00000000000E+00 0. -1.
         21   -1    0    0  502  503 -0.00000000000E+00 -0.00000000000E+00 -0.27501130204E+04  0.27501130204E+04  0.00000000000E+00 0. -1.
    9000010    2    1    2  501    0  0.34637821158E+03  0.35216563633E+03 -0.47757000624E+03  0.12203801097E+04  0.10085910967E+04 0.  0.
   -9000010    2    1    2    0  503 -0.34637821158E+03 -0.35216563633E+03 -0.17401848448E+04  0.20620910800E+04  0.98993829453E+03 0.  0.
        -13    1    3    3    0    0  0.17142790896E+03 -0.21010723976E+03  0.18931885171E+03  0.33071773304E+03  0.10566000000E+00 0.  1.
          4    1    3    3  501    0  0.17495030261E+03  0.56227287609E+03 -0.66688885794E+03  0.88966237665E+03  0.00000000000E+00 0.  1.
         13    1    4    4    0    0 -0.56433221260E+03 -0.31219242004E+03 -0.17231056690E+04  0.18398445888E+04  0.10566000000E+00 0. -1.
         -4    1    4    4    0  503  0.21795400103E+03 -0.39973216290E+02 -0.17079175861E+02  0.22224649116E+03  0.00000000000E+00 0. -1.
<mgrwt>
<rscale>  2 0.11188520E+04</rscale>
<asrwt>0</asrwt>
<pdfrwt beam="1">  1       21 0.81901259E-01 0.11230559E+04</pdfrwt>
<pdfrwt beam="2">  1       21 0.42309430E+00 0.11230559E+04</pdfrwt>
<totfact> 0.23719800E+00</totfact>
</mgrwt>
</event>
<event>
 8    1  0.7418332E-006  0.1038456E+04  0.7818608E-02  0.8739800E-01
         21   -1    0    0  501  502  0.00000000000E+00  0.00000000000E+00  0.13305825587E+04  0.13305825587E+04  0.00000000000E+00 0.  1.
         21   -1    0    0  502  503 -0.00000000000E+00 -0.00000000000E+00 -0.13911260690E+04  0.13911260690E+04  0.00000000000E+00 0.  1.
    9000010    2    1    2  501    0 -0.73712660185E+02  0.33770502799E+03  0.85033270618E+03  0.13403734043E+04  0.97675836798E+03 0.  0.
   -9000010    2    1    2    0  503  0.73712660185E+02 -0.33770502799E+03 -0.91087621654E+03  0.13813352235E+04  0.97924117330E+03 0.  0.
        -13    1    3    3    0    0  0.51952855909E+02 -0.33721353631E+03  0.36493425724E+03  0.49958892259E+03  0.10566000000E+00 0.  1.
          4    1    3    3  501    0 -0.12566551609E+03  0.67491856429E+03  0.48539844894E+03  0.84078448166E+03  0.00000000000E+00 0.  1.
         13    1    4    4    0    0  0.32815730990E+03 -0.57723390535E+03 -0.73366018184E+03  0.98951678870E+03  0.10566000000E+00 0. -1.
         -4    1    4    4    0  503 -0.25444464972E+03  0.23952887736E+03 -0.17721603470E+03  0.39181843476E+03  0.00000000000E+00 0. -1.
<mgrwt>
<rscale>  2 0.10378706E+04</rscale>
<asrwt>0</asrwt>
<pdfrwt beam="1">  1       21 0.20470501E+00 0.10384563E+04</pdfrwt>
<pdfrwt beam="2">  1       21 0.21401939E+00 0.10384563E+04</pdfrwt>
<totfact> 0.49884026E+00</totfact>
</mgrwt>
</event>
<event>
 8    1  0.7418332E-006  0.1032365E+04  0.7818608E-02  0.8746288E-01
         21   -1    0    0  503  502  0.00000000000E+00  0.00000000000E+00  0.36207058250E+03  0.36207058250E+03  0.00000000000E+00 0. -1.
         21   -1    0    0  501  503 -0.00000000000E+00 -0.00000000000E+00 -0.31953001973E+04  0.31953001973E+04  0.00000000000E+00 0. -1.
    9000010    2    1    2  501    0 -0.26157614412E+03 -0.10498973976E+03 -0.19387367840E+04  0.21964694658E+04  0.99314292636E+03 0.  0.
   -9000010    2    1    2    0  502  0.26157614412E+03  0.10498973976E+03 -0.89449283080E+03  0.13609013139E+04  0.98614909487E+03 0.  0.
        -13    1    3    3    0    0  0.73315858978E+02 -0.30929478739E+03 -0.17163317469E+04  0.17455180197E+04  0.10566000000E+00 0.  1.
          4    1    3    3  501    0 -0.33489200309E+03  0.20430504763E+03 -0.22240503710E+03  0.45095144611E+03  0.00000000000E+00 0.  1.
         13    1    4    4    0    0  0.44410386172E+03 -0.11071552638E+03 -0.96641804544E+03  0.10693222234E+04  0.10566000000E+00 0. -1.
         -4    1    4    4    0  502 -0.18252771760E+03  0.21570526613E+03  0.71925214644E+02  0.29157909053E+03  0.00000000000E+00 0. -1.
<mgrwt>
<rscale>  2 0.10306794E+04</rscale>
<asrwt>0</asrwt>
<pdfrwt beam="1">  1       21 0.55703165E-01 0.10323651E+04</pdfrwt>
<pdfrwt beam="2">  1       21 0.49158466E+00 0.10323651E+04</pdfrwt>
<totfact> 0.20043300E+00</totfact>
</mgrwt>
</event>
<event>
 8    1  0.7418332E-006  0.1022614E+04  0.7818608E-02  0.8753847E-01
         21   -1    0    0  503  502  0.00000000000E+00  0.00000000000E+00  0.83338270886E+03  0.83338270886E+03  0.00000000000E+00 0.  1.
         21   -1    0    0  501  503 -0.00000000000E+00 -0.00000000000E+00 -0.12555066846E+04  0.12555066846E+04  0.00000000000E+00 0.  1.
    9000010    2    1    2  501    0 -0.10255673736E+01  0.17135053442E+03 -0.25113869174E+03  0.10520795079E+04  0.10071934229E+04 0.  0.
   -9000010    2    1    2    0  502  0.10255673736E+01 -0.17135053442E+03 -0.17098528402E+03  0.10368098856E+04  0.10081551041E+04 0.  0.
        -13    1    3    3    0    0 -0.46268705106E+01 -0.26901004722E+03  0.26223404872E+03  0.37570536449E+03  0.10566000000E+00 0.  1.
          4    1    3    3  501    0  0.36013031370E+01  0.44036058164E+03 -0.51337274046E+03  0.67637414342E+03  0.00000000000E+00 0.  1.
         13    1    4    4    0    0 -0.43200127453E+03 -0.20327631498E+03  0.14594383687E+03  0.49924540670E+03  0.10566000000E+00 0. -1.
         -4    1    4    4    0  502  0.43302684190E+03  0.31925780562E+02 -0.31692912089E+03  0.53756447887E+03  0.00000000000E+00 0. -1.
<mgrwt>
<rscale>  2 0.10223766E+04</rscale>
<asrwt>0</asrwt>
<pdfrwt beam="1">  1       21 0.12821272E+00 0.10226137E+04</pdfrwt>
<pdfrwt beam="2">  1       21 0.19315488E+00 0.10226137E+04</pdfrwt>
<totfact> 0.32756433E+01</totfact>
</mgrwt>
</event>
<event>
 8    1  0.7418332E-006  0.1265781E+04  0.7818608E-02  0.8588938E-01
         21   -1    0    0  503  502  0.00000000000E+00  0.00000000000E+00  0.86181923626E+03  0.86181923626E+03  0.00000000000E+00 0. -1.
         21   -1    0    0  501  503 -0.00000000000E+00 -0.00000000000E+00 -0.17537101912E+04  0.17537101912E+04  0.00000000000E+00 0. -1.
    9000010    2    1    2  501    0  0.74694592194E+02  0.45915217488E+03 -0.76272207415E+03  0.13431752065E+04  0.10029828868E+04 0.  0.
   -9000010    2    1    2    0  502 -0.74694592194E+02 -0.45915217488E+03 -0.12916888081E+03  0.12723542209E+04  0.11772003491E+04 0.  0.
        -13    1    3    3    0    0  0.23223363089E+03  0.63085340935E+03 -0.85923162054E+03  0.10909571359E+04  0.10566000000E+00 0.  1.
          4    1    3    3  501    0 -0.15753903869E+03 -0.17170123447E+03  0.96509546390E+02  0.25221807067E+03  0.00000000000E+00 0.  1.
         13    1    4    4    0    0  0.26381596539E+02  0.16430154906E+03 -0.50888675798E+03  0.53540333513E+03  0.10566000000E+00 0. -1.
         -4    1    4    4    0  502 -0.10107618873E+03 -0.62345372394E+03  0.37971787717E+03  0.73695088579E+03  0.00000000000E+00 0. -1.
<mgrwt>
<rscale>  2 0.12236843E+04</rscale>
<asrwt>0</asrwt>
<pdfrwt beam="1">  1       21 0.13258758E+00 0.12657807E+04</pdfrwt>
<pdfrwt beam="2">  1       21 0.26980157E+00 0.12657807E+04</pdfrwt>
<totfact> 0.75625832E+00</totfact>
</mgrwt>
</event>
<event>
 8    1  0.7418332E-006  0.1105014E+04  0.7818608E-02  0.8706257E-01
         21   -1    0    0  503  502  0.00000000000E+00  0.00000000000E+00  0.17182077139E+04  0.17182077139E+04  0.00000000000E+00 0.  1.
         21   -1    0    0  501  503 -0.00000000000E+00 -0.00000000000E+00 -0.90809525879E+03  0.90809525879E+03  0.00000000000E+00 0.  1.
    9000010    2    1    2  501    0 -0.96171247669E+02 -0.55696398366E+02 -0.29149359521E+03  0.11428143093E+04  0.10994112206E+04 0.  0.
   -9000010    2    1    2    0  502  0.96171247669E+02  0.55696398366E+02  0.11016060503E+04  0.14834886633E+04  0.98734579883E+03 0.  0.
        -13    1    3    3    0    0 -0.13210750008E+03 -0.36177709573E+03 -0.59597167286E+03  0.70958953247E+03  0.10566000000E+00 0.  1.
          4    1    3    3  501    0  0.35936252411E+02  0.30608069737E+03  0.30447807764E+03  0.43322477688E+03  0.00000000000E+00 0.  1.
         13    1    4    4    0    0 -0.34795658351E+03  0.27320908752E+03  0.77009182976E+03  0.88812072768E+03  0.10566000000E+00 0. -1.
         -4    1    4    4    0  502  0.44412783118E+03 -0.21751268915E+03  0.33151422057E+03  0.59536793566E+03  0.00000000000E+00 0. -1.
<mgrwt>
<rscale>  2 0.10760356E+04</rscale>
<asrwt>0</asrwt>
<pdfrwt beam="1">  1       21 0.26433965E+00 0.11050140E+04</pdfrwt>
<pdfrwt beam="2">  1       21 0.13970696E+00 0.11050140E+04</pdfrwt>
<totfact> 0.73351325E+00</totfact>
</mgrwt>
</event>
<event>
 8    1  0.7418332E-006  0.1044233E+04  0.7818608E-02  0.8741182E-01
         21   -1    0    0  501  502  0.00000000000E+00  0.00000000000E+00  0.10761803576E+04  0.10761803576E+04  0.00000000000E+00 0.  1.
         21   -1    0    0  502  503 -0.00000000000E+00 -0.00000000000E+00 -0.12923889235E+04  0.12923889235E+04  0.00000000000E+00 0.  1.
    9000010    2    1    2  501    0 -0.14659487954E+03  0.18687306968E+03  0.47239780828E+03  0.11177290372E+04  0.98475728406E+03 0.  0.
   -9000010    2    1    2    0  503  0.14659487954E+03 -0.18687306968E+03 -0.68860637419E+03  0.12508402438E+04  0.10168633016E+04 0.  0.
        -13    1    3    3    0    0 -0.39514140876E+03  0.43565854195E+03  0.49013416367E+03  0.76561518249E+03  0.10566000000E+00 0.  1.
          4    1    3    3  501    0  0.24854652922E+03 -0.24878547226E+03 -0.17736355396E+02  0.35211385474E+03  0.00000000000E+00 0.  1.
         13    1    4    4    0    0 -0.24221917515E+03 -0.34308478872E+03  0.27798297004E+02  0.42089197847E+03  0.10566000000E+00 0. -1.
         -4    1    4    4    0  503  0.38881405469E+03  0.15621171904E+03 -0.71640467119E+03  0.82994826538E+03  0.00000000000E+00 0. -1.
<mgrwt>
<rscale>  2 0.10363343E+04</rscale>
<asrwt>0</asrwt>
<pdfrwt beam="1">  1       21 0.16556621E+00 0.10442330E+04</pdfrwt>
<pdfrwt beam="2">  1       21 0.19882906E+00 0.10442330E+04</pdfrwt>
<totfact> 0.13508511E+01</totfact>
</mgrwt>
</event>
<event>
 8    1  0.7418332E-006  0.1106839E+04  0.7818608E-02  0.8683507E-01
         21   -1    0    0  501  502  0.00000000000E+00  0.00000000000E+00  0.75667294409E+03  0.75667294409E+03  0.00000000000E+00 0.  1.
         21   -1    0    0  502  503 -0.00000000000E+00 -0.00000000000E+00 -0.16446173970E+04  0.16446173970E+04  0.00000000000E+00 0.  1.
    9000010    2    1    2  501    0  0.38695723123E+03  0.19837613965E+03 -0.24100023160E+03  0.11327725841E+04  0.10178426323E+04 0.  0.
   -9000010    2    1    2    0  503 -0.38695723123E+03 -0.19837613965E+03 -0.64694422130E+03  0.12685177570E+04  0.10007554560E+04 0.  0.
        -13    1    3    3    0    0  0.45795198904E+03  0.41758580717E+03  0.18643116023E+03  0.64718970888E+03  0.10566000000E+00 0.  1.
          4    1    3    3  501    0 -0.70994757807E+02 -0.21920966752E+03 -0.42743139184E+03  0.48558287521E+03  0.00000000000E+00 0.  1.
         13    1    4    4    0    0  0.92480581003E+02 -0.31596227454E+03  0.12506576716E+03  0.35217364194E+03  0.10566000000E+00 0. -1.
         -4    1    4    4    0  503 -0.47943781223E+03  0.11758613490E+03 -0.77200998846E+03  0.91634411506E+03  0.00000000000E+00 0. -1.
<mgrwt>
<rscale>  2 0.11028948E+04</rscale>
<asrwt>0</asrwt>
<pdfrwt beam="1">  1       21 0.11641122E+00 0.11068390E+04</pdfrwt>
<pdfrwt beam="2">  1       21 0.25301806E+00 0.11068390E+04</pdfrwt>
<totfact> 0.14946359E+01</totfact>
</mgrwt>
</event>
<event>
 8    1  0.7418332E-006  0.1040258E+04  0.7818608E-02  0.8756276E-01
         21   -1    0    0  503  502  0.00000000000E+00  0.00000000000E+00  0.10190657793E+04  0.10190657793E+04  0.00000000000E+00 0. -1.
         21   -1    0    0  501  503 -0.00000000000E+00 -0.00000000000E+00 -0.15772322796E+04  0.15772322796E+04  0.00000000000E+00 0. -1.
    9000010    2    1    2  501    0  0.23758440090E+03 -0.11355547379E+03  0.51103796991E+03  0.11590066270E+04  0.10063773455E+04 0.  0.
   -9000010    2    1    2    0  502 -0.23758440090E+03  0.11355547379E+03 -0.10692044703E+04  0.14372914319E+04  0.92372467099E+03 0.  0.
        -13    1    3    3    0    0 -0.38488506060E+01  0.40855401699E+03  0.40268720863E+03  0.57366209358E+03  0.10566000000E+00 0.  1.
          4    1    3    3  501    0  0.24143325151E+03 -0.52210949077E+03  0.10835076128E+03  0.58534453338E+03  0.00000000000E+00 0.  1.
         13    1    4    4    0    0 -0.20510040110E+03  0.47666144277E+03 -0.89197979651E+03  0.10319400535E+04  0.10566000000E+00 0. -1.
         -4    1    4    4    0  502 -0.32483999796E+02 -0.36310596898E+03 -0.17722467376E+03  0.40535137836E+03  0.00000000000E+00 0. -1.
<mgrwt>
<rscale>  2 0.10197247E+04</rscale>
<asrwt>0</asrwt>
<pdfrwt beam="1">  1       21 0.15677935E+00 0.10402579E+04</pdfrwt>
<pdfrwt beam="2">  1       21 0.24265112E+00 0.10402579E+04</pdfrwt>
<totfact> 0.75179064E+00</totfact>
</mgrwt>
</event>
<event>
 8    1  0.7418332E-006  0.1239090E+04  0.7818608E-02  0.8585154E-01
         21   -1    0    0  501  502  0.00000000000E+00  0.00000000000E+00  0.79152193362E+03  0.79152193362E+03  0.00000000000E+00 0. -1.
         21   -1    0    0  502  503 -0.00000000000E+00 -0.00000000000E+00 -0.22079672114E+04  0.22079672114E+04  0.00000000000E+00 0. -1.
    9000010    2    1    2  501    0  0.31952108090E+03 -0.61023334508E+03 -0.13753577084E+03  0.12466996578E+04  0.10299832484E+04 0.  0.
   -9000010    2    1    2    0  503 -0.31952108090E+03  0.61023334508E+03 -0.12789095070E+04  0.17527894872E+04  0.98090927353E+03 0.  0.
        -13    1    3    3    0    0  0.55584263739E+03 -0.12084833201E+02 -0.22075578738E+03  0.59819746703E+03  0.10566000000E+00 0.  1.
          4    1    3    3  501    0 -0.23632155649E+03 -0.59814851188E+03  0.83220016534E+02  0.64850219080E+03  0.00000000000E+00 0.  1.
         13    1    4    4    0    0  0.22635539150E+03 -0.13772115594E+03 -0.37169424067E+03  0.45646522296E+03  0.10566000000E+00 0. -1.
         -4    1    4    4    0  503 -0.54587647240E+03  0.74795450102E+03 -0.90721526628E+03  0.12963242643E+04  0.00000000000E+00 0. -1.
<mgrwt>
<rscale>  2 0.12288431E+04</rscale>
<asrwt>0</asrwt>
<pdfrwt beam="1">  1       21 0.12177261E+00 0.12390900E+04</pdfrwt>
<pdfrwt beam="2">  1       21 0.33968725E+00 0.12390900E+04</pdfrwt>
<totfact> 0.31082509E+00</totfact>
</mgrwt>
</event>
<event>
 8    1  0.7418332E-006  0.9981709E+03  0.7818608E-02  0.8817770E-01
         21   -1    0    0  501  502  0.00000000000E+00  0.00000000000E+00  0.13854032111E+04  0.13854032111E+04  0.00000000000E+00 0.  1.
         21   -1    0    0  502  503 -0.00000000000E+00 -0.00000000000E+00 -0.11156010061E+04  0.11156010061E+04  0.00000000000E+00 0.  1.
    9000010    2    1    2  501    0 -0.91320932945E+02 -0.70645466977E+02  0.97020765684E+03  0.12816138219E+04  0.82939785162E+03 0.  0.
   -9000010    2    1    2    0  503  0.91320932945E+02  0.70645466977E+02 -0.70040545188E+03  0.12193903953E+04  0.99147105070E+03 0.  0.
        -13    1    3    3    0    0  0.23800776568E+03 -0.31903421173E+03  0.63797978629E+03  0.75196325951E+03  0.10566000000E+00 0.  1.
          4    1    3    3  501    0 -0.32932869862E+03  0.24838874475E+03  0.33222787055E+03  0.52965056238E+03  0.00000000000E+00 0.  1.
         13    1    4    4    0    0 -0.24504936757E+03  0.43376511038E+03 -0.29039637477E+03  0.57665538164E+03  0.10566000000E+00 0. -1.
         -4    1    4    4    0  503  0.33637030051E+03 -0.36311964341E+03 -0.41000907711E+03  0.64273501368E+03  0.00000000000E+00 0. -1.
<mgrwt>
<rscale>  2 0.95529240E+03</rscale>
<asrwt>0</asrwt>
<pdfrwt beam="1">  1       21 0.21313896E+00 0.99817090E+03</pdfrwt>
<pdfrwt beam="2">  1       21 0.17163092E+00 0.99817090E+03</pdfrwt>
<totfact> 0.94216608E+00</totfact>
</mgrwt>
</event>
<event>
 8    1  0.7418332E-006  0.1023340E+04  0.7818608E-02  0.8756054E-01
         21   -1    0    0  501  502  0.00000000000E+00  0.00000000000E+00  0.16033367300E+04  0.16033367300E+04  0.00000000000E+00 0.  1.
         21   -1    0    0  502  503 -0.00000000000E+00 -0.00000000000E+00 -0.85643962257E+03  0.85643962257E+03  0.00000000000E+00 0.  1.
    9000010    2    1    2  501    0 -0.59315940545E+02  0.30461959465E+02 -0.23634351425E+03  0.10502776231E+04  0.10211652741E+04 0.  0.
   -9000010    2    1    2    0  503  0.59315940545E+02 -0.30461959465E+02  0.98324062170E+03  0.14094987295E+04  0.10077094008E+04 0.  0.
        -13    1    3    3    0    0  0.28392190842E+03 -0.43686245719E+01  0.29966851703E+03  0.41283406621E+03  0.10566000000E+00 0.  1.
          4    1    3    3  501    0 -0.34323784897E+03  0.34830584037E+02 -0.53601203128E+03  0.63744355690E+03  0.00000000000E+00 0.  1.
         13    1    4    4    0    0  0.38955953031E+03  0.23054363712E+03  0.85840176393E+03  0.97044350467E+03  0.10566000000E+00 0. -1.
         -4    1    4    4    0  503 -0.33024358976E+03 -0.26100559659E+03  0.12483885777E+03  0.43905522482E+03  0.00000000000E+00 0. -1.
<mgrwt>
<rscale>  2 0.10199667E+04</rscale>
<asrwt>0</asrwt>
<pdfrwt beam="1">  1       21 0.24666719E+00 0.10233400E+04</pdfrwt>
<pdfrwt beam="2">  1       21 0.13175994E+00 0.10233400E+04</pdfrwt>
<totfact> 0.11928407E+01</totfact>
</mgrwt>
</event>
<event>
 8    1  0.7418332E-006  0.1011792E+04  0.7818608E-02  0.8770178E-01
         21   -1    0    0  503  502  0.00000000000E+00  0.00000000000E+00  0.50378932002E+03  0.50378932002E+03  0.00000000000E+00 0. -1.
         21   -1    0    0  501  503 -0.00000000000E+00 -0.00000000000E+00 -0.29951772744E+04  0.29951772744E+04  0.00000000000E+00 0. -1.
    9000010    2    1    2  501    0 -0.14178860722E+03 -0.53244093002E+02 -0.22545353147E+04  0.24598215171E+04  0.97203573389E+03 0.  0.
   -9000010    2    1    2    0  502  0.14178860722E+03  0.53244093002E+02 -0.23685263962E+03  0.10391450773E+04  0.10003921112E+04 0.  0.
        -13    1    3    3    0    0  0.30403044068E+03  0.15129985008E+01 -0.17824534568E+04  0.18081972057E+04  0.10566000000E+00 0.  1.
          4    1    3    3  501    0 -0.44581904790E+03 -0.54757091503E+02 -0.47208185792E+03  0.65162431133E+03  0.00000000000E+00 0.  1.
         13    1    4    4    0    0 -0.15578586919E+03  0.14144835924E+03  0.33087548092E+03  0.39211665409E+03  0.10566000000E+00 0. -1.
         -4    1    4    4    0  502  0.29757447641E+03 -0.88204266238E+02 -0.56772812055E+03  0.64702842322E+03  0.00000000000E+00 0. -1.
<mgrwt>
<rscale>  2 0.10047112E+04</rscale>
<asrwt>0</asrwt>
<pdfrwt beam="1">  1       21 0.77506048E-01 0.10117921E+04</pdfrwt>
<pdfrwt beam="2">  1       21 0.46079651E+00 0.10117921E+04</pdfrwt>
<totfact> 0.15227998E+00</totfact>
</mgrwt>
</event>
<event>
 8    1  0.7418332E-006  0.1028618E+04  0.7818608E-02  0.8752789E-01
         21   -1    0    0  503  502  0.00000000000E+00  0.00000000000E+00  0.51152919003E+03  0.51152919003E+03  0.00000000000E+00 0.  1.
         21   -1    0    0  501  503 -0.00000000000E+00 -0.00000000000E+00 -0.20393718072E+04  0.20393718072E+04  0.00000000000E+00 0.  1.
    9000010    2    1    2  501    0  0.28568265895E+03 -0.37466267032E+02 -0.85154893607E+03  0.13198739813E+04  0.96639196663E+03 0.  0.
   -9000010    2    1    2    0  502 -0.28568265895E+03  0.37466267032E+02 -0.67629368106E+03  0.12310270159E+04  0.98743914651E+03 0.  0.
        -13    1    3    3    0    0  0.38092097759E+03  0.71642090701E+02  0.64080960092E+02  0.39286099442E+03  0.10566000000E+00 0.  1.
          4    1    3    3  501    0 -0.95238318645E+02 -0.10910835773E+03 -0.91562989616E+03  0.92701298686E+03  0.00000000000E+00 0.  1.
         13    1    4    4    0    0 -0.16729239624E+03 -0.12889893441E+02  0.24711715830E+03  0.29869683006E+03  0.10566000000E+00 0. -1.
         -4    1    4    4    0  502 -0.11839026271E+03  0.50356160473E+02 -0.92341083936E+03  0.93233018585E+03  0.00000000000E+00 0. -1.
<mgrwt>
<rscale>  2 0.10235333E+04</rscale>
<asrwt>0</asrwt>
<pdfrwt beam="1">  1       21 0.78696798E-01 0.10286177E+04</pdfrwt>
<pdfrwt beam="2">  1       21 0.31374951E+00 0.10286177E+04</pdfrwt>
<totfact> 0.15509356E+01</totfact>
</mgrwt>
</event>
<event>
 8    1  0.7418332E-006  0.1124183E+04  0.7818608E-02  0.8680336E-01
         21   -1    0    0  503  502  0.00000000000E+00  0.00000000000E+00  0.64296966266E+03  0.64296966266E+03  0.00000000000E+00 0.  1.
         21   -1    0    0  501  503 -0.00000000000E+00 -0.00000000000E+00 -0.21127092018E+04  0.21127092018E+04  0.00000000000E+00 0.  1.
    9000010    2    1    2  501    0 -0.10866879970E+03  0.27715502764E+03 -0.26745158011E+03  0.11555596901E+04  0.10840498292E+04 0.  0.
   -9000010    2    1    2    0  502  0.10866879970E+03 -0.27715502764E+03 -0.12022879590E+04  0.16001191744E+04  0.10130455165E+04 0.  0.
        -13    1    3    3    0    0  0.31484621559E+03 -0.22002299981E+03  0.11215276985E+03  0.40014561707E+03  0.10566000000E+00 0.  1.
          4    1    3    3  501    0 -0.42351501529E+03  0.49717802744E+03 -0.37960434996E+03  0.75541407298E+03  0.00000000000E+00 0.  1.
         13    1    4    4    0    0 -0.33685049732E+03 -0.43856902886E+03 -0.83072573352E+03  0.99795606422E+03  0.10566000000E+00 0. -1.
         -4    1    4    4    0  502  0.44551929702E+03  0.16141400123E+03 -0.37156222546E+03  0.60216311013E+03  0.00000000000E+00 0. -1.
<mgrwt>
<rscale>  2 0.11067042E+04</rscale>
<asrwt>0</asrwt>
<pdfrwt beam="1">  1       21 0.98918410E-01 0.11241832E+04</pdfrwt>
<pdfrwt beam="2">  1       21 0.32503218E+00 0.11241832E+04</pdfrwt>
<totfact> 0.70935154E+00</totfact>
</mgrwt>
</event>
<event>
 8    1  0.7418332E-006  0.1007923E+04  0.7818608E-02  0.8767817E-01
         21   -1    0    0  503  502  0.00000000000E+00  0.00000000000E+00  0.87957271726E+03  0.87957271726E+03  0.00000000000E+00 0.  1.
         21   -1    0    0  501  503 -0.00000000000E+00 -0.00000000000E+00 -0.13061699065E+04  0.13061699065E+04  0.00000000000E+00 0.  1.
    9000010    2    1    2  501    0 -0.11304444946E+03 -0.70946475485E+02 -0.58864512848E+03  0.11648763085E+04  0.99630380757E+03 0.  0.
   -9000010    2    1    2    0  502  0.11304444946E+03  0.70946475485E+02  0.16204793924E+03  0.10208663152E+04  0.99904757094E+03 0.  0.
        -13    1    3    3    0    0 -0.45041157232E+03 -0.34383128237E+03 -0.38841131010E+03  0.68698900442E+03  0.10566000000E+00 0.  1.
          4    1    3    3  501    0  0.33736712286E+03  0.27288480689E+03 -0.20023381838E+03  0.47788730412E+03  0.00000000000E+00 0.  1.
         13    1    4    4    0    0  0.57897062275E+02  0.23641460844E+03  0.54674528883E+03  0.59847669873E+03  0.10566000000E+00 0. -1.
         -4    1    4    4    0  502  0.55147387186E+02 -0.16546813295E+03 -0.38469734959E+03  0.42238961649E+03  0.00000000000E+00 0. -1.
<mgrwt>
<rscale>  2 0.10072423E+04</rscale>
<asrwt>0</asrwt>
<pdfrwt beam="1">  1       21 0.13531888E+00 0.10079229E+04</pdfrwt>
<pdfrwt beam="2">  1       21 0.20094922E+00 0.10079229E+04</pdfrwt>
<totfact> 0.24410834E+01</totfact>
</mgrwt>
</event>
<event>
 8    1  0.7418332E-006  0.1066879E+04  0.7818608E-02  0.8730408E-01
         21   -1    0    0  501  502  0.00000000000E+00  0.00000000000E+00  0.14656834107E+04  0.14656834107E+04  0.00000000000E+00 0.  1.
         21   -1    0    0  502  503 -0.00000000000E+00 -0.00000000000E+00 -0.14044126514E+04  0.14044126514E+04  0.00000000000E+00 0.  1.
    9000010    2    1    2  501    0 -0.34180115853E+03 -0.21070289357E+01  0.10289857497E+04  0.14822425643E+04  0.10106428027E+04 0.  0.
   -9000010    2    1    2    0  503  0.34180115853E+03  0.21070289357E+01 -0.96771499047E+03  0.13878534979E+04  0.93425508143E+03 0.  0.
        -13    1    3    3    0    0  0.13425541912E+02  0.36046694462E+00  0.11163429877E+04  0.11164237782E+04  0.10566000000E+00 0.  1.
          4    1    3    3  501    0 -0.35522670044E+03 -0.24674958803E+01 -0.87357237976E+02  0.36581878611E+03  0.00000000000E+00 0.  1.
         13    1    4    4    0    0  0.41830180882E+03  0.22623135350E+03 -0.10372195104E+04  0.11410439748E+04  0.10566000000E+00 0. -1.
         -4    1    4    4    0  503 -0.76500650298E+02 -0.22412432456E+03  0.69504519944E+02  0.24680952301E+03  0.00000000000E+00 0. -1.
<mgrwt>
<rscale>  2 0.10483891E+04</rscale>
<asrwt>0</asrwt>
<pdfrwt beam="1">  1       21 0.22548975E+00 0.10668793E+04</pdfrwt>
<pdfrwt beam="2">  1       21 0.21606349E+00 0.10668793E+04</pdfrwt>
<totfact> 0.33217939E+00</totfact>
</mgrwt>
</event>
<event>
 8    1  0.7418332E-006  0.1167883E+04  0.7818608E-02  0.8631895E-01
         21   -1    0    0  503  502  0.00000000000E+00  0.00000000000E+00  0.14471948222E+04  0.14471948222E+04  0.00000000000E+00 0. -1.
         21   -1    0    0  501  503 -0.00000000000E+00 -0.00000000000E+00 -0.10919016071E+04  0.10919016071E+04  0.00000000000E+00 0. -1.
    9000010    2    1    2  501    0 -0.58280763464E+03 -0.14350081786E+03 -0.29657798682E+03  0.12049516573E+04  0.10018446838E+04 0.  0.
   -9000010    2    1    2    0  502  0.58280763464E+03  0.14350081786E+03  0.65187120185E+03  0.13341447720E+04  0.99737103687E+03 0.  0.
        -13    1    3    3    0    0 -0.65240675108E+03  0.27532814156E+02  0.19365298006E+03  0.68109772614E+03  0.10566000000E+00 0.  1.
          4    1    3    3  501    0  0.69599116439E+02 -0.17103363202E+03 -0.49023096687E+03  0.52385393114E+03  0.00000000000E+00 0.  1.
         13    1    4    4    0    0  0.17929419839E+03 -0.29522061253E+03 -0.11393063251E+03  0.36370567747E+03  0.10566000000E+00 0. -1.
         -4    1    4    4    0  502  0.40351343624E+03  0.43872143039E+03  0.76580183436E+03  0.97043909454E+03  0.00000000000E+00 0. -1.
<mgrwt>
<rscale>  2 0.11669227E+04</rscale>
<asrwt>0</asrwt>
<pdfrwt beam="1">  1       21 0.22264536E+00 0.11678827E+04</pdfrwt>
<pdfrwt beam="2">  1       21 0.16798486E+00 0.11678827E+04</pdfrwt>
<totfact> 0.82345255E+00</totfact>
</mgrwt>
</event>
<event>
 8    1  0.7418332E-006  0.1022915E+04  0.7818608E-02  0.8761260E-01
         21   -1    0    0  501  502  0.00000000000E+00  0.00000000000E+00  0.13834647565E+04  0.13834647565E+04  0.00000000000E+00 0. -1.
         21   -1    0    0  502  503 -0.00000000000E+00 -0.00000000000E+00 -0.12796967549E+04  0.12796967549E+04  0.00000000000E+00 0. -1.
    9000010    2    1    2  501    0  0.12193341031E+03 -0.43931831295E+02  0.92291124433E+03  0.13526844445E+04  0.98040414071E+03 0.  0.
   -9000010    2    1    2    0  503 -0.12193341031E+03  0.43931831295E+02 -0.81914324270E+03  0.13104770669E+04  0.10146707488E+04 0.  0.
        -13    1    3    3    0    0 -0.19853524545E+03  0.13886423903E+03 -0.10238861046E+03  0.26302653723E+03  0.10566000000E+00 0.  1.
          4    1    3    3  501    0  0.32046865576E+03 -0.18279607033E+03  0.10252998548E+04  0.10896579073E+04  0.00000000000E+00 0.  1.
         13    1    4    4    0    0  0.28660492599E+03 -0.13439295949E+03  0.62398627420E+02  0.32264136596E+03  0.10566000000E+00 0. -1.
         -4    1    4    4    0  503 -0.40853833630E+03  0.17832479078E+03 -0.88154187012E+03  0.98783570092E+03  0.00000000000E+00 0. -1.
<mgrwt>
<rscale>  2 0.10143115E+04</rscale>
<asrwt>0</asrwt>
<pdfrwt beam="1">  1       21 0.21284073E+00 0.10229147E+04</pdfrwt>
<pdfrwt beam="2">  1       21 0.19687642E+00 0.10229147E+04</pdfrwt>
<totfact> 0.58834798E+00</totfact>
</mgrwt>
</event>
<event>
 8    1  0.7418332E-006  0.1113032E+04  0.7818608E-02  0.8676687E-01
         21   -1    0    0  501  502  0.00000000000E+00  0.00000000000E+00  0.99272699420E+03  0.99272699420E+03  0.00000000000E+00 0.  1.
         21   -1    0    0  502  503 -0.00000000000E+00 -0.00000000000E+00 -0.16537600835E+04  0.16537600835E+04  0.00000000000E+00 0.  1.
    9000010    2    1    2  501    0  0.45298889938E+03 -0.20115548997E+03  0.33276389849E+03  0.11543498535E+04  0.98799255970E+03 0.  0.
   -9000010    2    1    2    0  503 -0.45298889938E+03  0.20115548997E+03 -0.99379698779E+03  0.14921372242E+04  0.99658344797E+03 0.  0.
        -13    1    3    3    0    0  0.46645871145E+02  0.17878910542E+02 -0.33712894835E+03  0.34080996422E+03  0.10566000000E+00 0.  1.
          4    1    3    3  501    0  0.40634302824E+03 -0.21903440051E+03  0.66989284684E+03  0.81353988928E+03  0.00000000000E+00 0.  1.
         13    1    4    4    0    0  0.25483663030E+03 -0.85617986584E+02 -0.42441162730E+02  0.27216430924E+03  0.10566000000E+00 0. -1.
         -4    1    4    4    0  503 -0.70782552968E+03  0.28677347655E+03 -0.95135582506E+03  0.12199729149E+04  0.00000000000E+00 0. -1.
<mgrwt>
<rscale>  2 0.11111060E+04</rscale>
<asrwt>0</asrwt>
<pdfrwt beam="1">  1       21 0.15272723E+00 0.11130324E+04</pdfrwt>
<pdfrwt beam="2">  1       21 0.25442463E+00 0.11130324E+04</pdfrwt>
<totfact> 0.65822179E+00</totfact>
</mgrwt>
</event>
<event>
 8    1  0.7418332E-006  0.1137666E+04  0.7818608E-02  0.8656540E-01
         21   -1    0    0  503  502  0.00000000000E+00  0.00000000000E+00  0.20334383993E+04  0.20334383993E+04  0.00000000000E+00 0. -1.
         21   -1    0    0  501  503 -0.00000000000E+00 -0.00000000000E+00 -0.90925252936E+03  0.90925252936E+03  0.00000000000E+00 0. -1.
    9000010    2    1    2  501    0 -0.25150555347E+03 -0.44028817205E+03 -0.24859419671E+03  0.11645095462E+04  0.10184177388E+04 0.  0.
   -9000010    2    1    2    0  502  0.25150555347E+03  0.44028817205E+03  0.13727800667E+04  0.17781813825E+04  0.10100966289E+04 0.  0.
        -13    1    3    3    0    0 -0.25004067758E+03 -0.70368915892E+03  0.71227033564E+02  0.75018136094E+03  0.10566000000E+00 0.  1.
          4    1    3    3  501    0 -0.14648758881E+01  0.26340098687E+03 -0.31982123028E+03  0.41432818524E+03  0.00000000000E+00 0.  1.
         13    1    4    4    0    0 -0.13256690271E+03 -0.26612005724E+03  0.20809223320E+03  0.36289978953E+03  0.10566000000E+00 0. -1.
         -4    1    4    4    0  502  0.38407245617E+03  0.70640822928E+03  0.11646878335E+04  0.14152815930E+04  0.00000000000E+00 0. -1.
<mgrwt>
<rscale>  2 0.11358005E+04</rscale>
<asrwt>0</asrwt>
<pdfrwt beam="1">  1       21 0.31283668E+00 0.11376658E+04</pdfrwt>
<pdfrwt beam="2">  1       21 0.13988500E+00 0.11376658E+04</pdfrwt>
<totfact> 0.32793466E+00</totfact>
</mgrwt>
</event>
<event>
 8    1  0.7418332E-006  0.1021107E+04  0.7818608E-02  0.8757778E-01
         21   -1    0    0  501  502  0.00000000000E+00  0.00000000000E+00  0.17327273260E+04  0.17327273260E+04  0.00000000000E+00 0. -1.
         21   -1    0    0  502  503 -0.00000000000E+00 -0.00000000000E+00 -0.90184557523E+03  0.90184557523E+03  0.00000000000E+00 0. -1.
    9000010    2    1    2  501    0 -0.13719326178E+03  0.12585651630E+03  0.11858231240E+04  0.15648757832E+04  0.10039909769E+04 0.  0.
   -9000010    2    1    2    0  503  0.13719326178E+03 -0.12585651630E+03 -0.35494137324E+03  0.10696971180E+04  0.99176947524E+03 0.  0.
        -13    1    3    3    0    0  0.40003976749E+03 -0.13635646762E+03  0.51893812374E+03  0.66926951915E+03  0.10566000000E+00 0.  1.
          4    1    3    3  501    0 -0.53723302927E+03  0.26221298392E+03  0.66688500026E+03  0.89560626407E+03  0.00000000000E+00 0.  1.
         13    1    4    4    0    0 -0.15225229263E+03 -0.23199319691E+03  0.26097500138E+03  0.38093249603E+03  0.10566000000E+00 0. -1.
         -4    1    4    4    0  503  0.28944555441E+03  0.10613668061E+03 -0.61591637462E+03  0.68876462196E+03  0.00000000000E+00 0. -1.
<mgrwt>
<rscale>  2 0.10180902E+04</rscale>
<asrwt>0</asrwt>
<pdfrwt beam="1">  1       21 0.26657343E+00 0.10211071E+04</pdfrwt>
<pdfrwt beam="2">  1       21 0.13874547E+00 0.10211071E+04</pdfrwt>
<totfact> 0.73613034E+00</totfact>
</mgrwt>
</event>
<event>
 8    1  0.7418332E-006  0.1107951E+04  0.7818608E-02  0.8690218E-01
         21   -1    0    0  501  502  0.00000000000E+00  0.00000000000E+00  0.16793978392E+04  0.16793978392E+04  0.00000000000E+00 0.  1.
         21   -1    0    0  502  503 -0.00000000000E+00 -0.00000000000E+00 -0.78522154160E+03  0.78522154160E+03  0.00000000000E+00 0.  1.
    9000010    2    1    2  501    0 -0.27858435071E+03 -0.15473279068E+03  0.84951665025E+03  0.13557683213E+04  0.10074113981E+04 0.  0.
   -9000010    2    1    2    0  503  0.27858435071E+03  0.15473279068E+03  0.44659647386E+02  0.11088510596E+04  0.10611336915E+04 0.  0.
        -13    1    3    3    0    0 -0.11323255533E+03  0.38381891945E+03  0.63979025007E+03  0.75463246005E+03  0.10566000000E+00 0.  1.
          4    1    3    3  501    0 -0.16535179539E+03 -0.53855171013E+03  0.20972640019E+03  0.60113586123E+03  0.00000000000E+00 0.  1.
         13    1    4    4    0    0  0.15370363959E+02  0.52461419263E+03 -0.23564346689E+03  0.57531222292E+03  0.10566000000E+00 0. -1.
         -4    1    4    4    0  503  0.26321398675E+03 -0.36988140194E+03  0.28030311427E+03  0.53353883664E+03  0.00000000000E+00 0. -1.
<mgrwt>
<rscale>  2 0.10948873E+04</rscale>
<asrwt>0</asrwt>
<pdfrwt beam="1">  1       21 0.25836890E+00 0.11079513E+04</pdfrwt>
<pdfrwt beam="2">  1       21 0.12080331E+00 0.11079513E+04</pdfrwt>
<totfact> 0.12327518E+01</totfact>
</mgrwt>
</event>
<event>
 8    1  0.7418332E-006  0.1041940E+04  0.7818608E-02  0.8736755E-01
         21   -1    0    0  503  502  0.00000000000E+00  0.00000000000E+00  0.59834904411E+03  0.59834904411E+03  0.00000000000E+00 0.  1.
         21   -1    0    0  501  503 -0.00000000000E+00 -0.00000000000E+00 -0.18269690155E+04  0.18269690155E+04  0.00000000000E+00 0.  1.
    9000010    2    1    2  501    0  0.18560980276E+03  0.19000722395E+03 -0.73295823297E+03  0.12739182714E+04  0.10075148867E+04 0.  0.
   -9000010    2    1    2    0  502 -0.18560980276E+03 -0.19000722395E+03 -0.49566173841E+03  0.11513997882E+04  0.10047323869E+04 0.  0.
        -13    1    3    3    0    0  0.50693991627E+03  0.18038820709E+03 -0.77183712208E+02  0.54358561474E+03  0.10566000000E+00 0.  1.
          4    1    3    3  501    0 -0.32133011350E+03  0.96190168588E+01 -0.65577452077E+03  0.73033265668E+03  0.00000000000E+00 0.  1.
         13    1    4    4    0    0  0.30410696079E+03  0.23330787974E+03 -0.11373896205E+03  0.39981267239E+03  0.10566000000E+00 0. -1.
         -4    1    4    4    0  502 -0.48971676355E+03 -0.42331510369E+03 -0.38192277636E+03  0.75158711579E+03  0.00000000000E+00 0. -1.
<mgrwt>
<rscale>  2 0.10412673E+04</rscale>
<asrwt>0</asrwt>
<pdfrwt beam="1">  1       21 0.92053702E-01 0.10419405E+04</pdfrwt>
<pdfrwt beam="2">  1       21 0.28107215E+00 0.10419405E+04</pdfrwt>
<totfact> 0.17763405E+01</totfact>
</mgrwt>
</event>
<event>
 8    1  0.7418332E-006  0.1020596E+04  0.7818608E-02  0.8758120E-01
         21   -1    0    0  501  502  0.00000000000E+00  0.00000000000E+00  0.17166234979E+04  0.17166234979E+04  0.00000000000E+00 0. -1.
         21   -1    0    0  502  503 -0.00000000000E+00 -0.00000000000E+00 -0.79486609657E+03  0.79486609657E+03  0.00000000000E+00 0. -1.
    9000010    2    1    2  501    0  0.92882150879E+02 -0.12593125930E+03  0.10846194221E+04  0.14893004557E+04  0.10085290182E+04 0.  0.
   -9000010    2    1    2    0  503 -0.92882150879E+02  0.12593125930E+03 -0.16286202077E+03  0.10221891388E+04  0.99692568508E+03 0.  0.
        -13    1    3    3    0    0  0.23088564535E+03  0.40742413453E+03  0.45990314395E+03  0.65636386221E+03  0.10566000000E+00 0.  1.
          4    1    3    3  501    0 -0.13800349447E+03 -0.53335539384E+03  0.62471627817E+03  0.83293659352E+03  0.00000000000E+00 0.  1.
         13    1    4    4    0    0 -0.39998411067E+03 -0.28532340777E+03 -0.12810509755E+03  0.50774763712E+03  0.10566000000E+00 0. -1.
         -4    1    4    4    0  503  0.30710195979E+03  0.41125466708E+03 -0.34756923217E+02  0.51444150164E+03  0.00000000000E+00 0. -1.
<mgrwt>
<rscale>  2 0.10177179E+04</rscale>
<asrwt>0</asrwt>
<pdfrwt beam="1">  1       21 0.26409592E+00 0.10205962E+04</pdfrwt>
<pdfrwt beam="2">  1       21 0.12228709E+00 0.10205962E+04</pdfrwt>
<totfact> 0.11050583E+01</totfact>
</mgrwt>
</event>
<event>
 8    1  0.7418332E-006  0.9783483E+03  0.7818608E-02  0.8799720E-01
         21   -1    0    0  501  502  0.00000000000E+00  0.00000000000E+00  0.14110546938E+04  0.14110546938E+04  0.00000000000E+00 0.  1.
         21   -1    0    0  502  503 -0.00000000000E+00 -0.00000000000E+00 -0.73759022861E+03  0.73759022861E+03  0.00000000000E+00 0.  1.
    9000010    2    1    2  501    0  0.47262589360E+02  0.76862967270E+02  0.66957737172E+03  0.11702889418E+04  0.95556301858E+03 0.  0.
   -9000010    2    1    2    0  503 -0.47262589360E+02 -0.76862967270E+02  0.38870934999E+01  0.97835598063E+03  0.97417844734E+03 0.  0.
        -13    1    3    3    0    0 -0.38991137502E+03  0.27653452140E+03  0.36289880476E+03  0.60016479033E+03  0.10566000000E+00 0.  1.
          4    1    3    3  501    0  0.43717396438E+03 -0.19967155413E+03  0.30667856695E+03  0.57012415147E+03  0.00000000000E+00 0.  1.
         13    1    4    4    0    0  0.14337545873E+03  0.17842273171E+03 -0.40185376099E+03  0.46246907977E+03  0.10566000000E+00 0. -1.
         -4    1    4    4    0  503 -0.19063804809E+03 -0.25528569898E+03  0.40574085449E+03  0.51588690087E+03  0.00000000000E+00 0. -1.
<mgrwt>
<rscale>  2 0.97368133E+03</rscale>
<asrwt>0</asrwt>
<pdfrwt beam="1">  1       21 0.21708534E+00 0.97834826E+03</pdfrwt>
<pdfrwt beam="2">  1       21 0.11347542E+00 0.97834826E+03</pdfrwt>
<totfact> 0.30433912E+01</totfact>
</mgrwt>
</event>
<event>
 8    1  0.7418332E-006  0.1034120E+04  0.7818608E-02  0.8763408E-01
         21   -1    0    0  501  502  0.00000000000E+00  0.00000000000E+00  0.75547703292E+03  0.75547703292E+03  0.00000000000E+00 0.  1.
         21   -1    0    0  502  503 -0.00000000000E+00 -0.00000000000E+00 -0.13981278429E+04  0.13981278429E+04  0.00000000000E+00 0.  1.
    9000010    2    1    2  501    0  0.32642324129E+02 -0.91786546891E+02 -0.50138333469E+02  0.10353348242E+04  0.10295212742E+04 0.  0.
   -9000010    2    1    2    0  503 -0.32642324129E+02  0.91786546891E+02 -0.59251247653E+03  0.11182700517E+04  0.94338040160E+03 0.  0.
        -13    1    3    3    0    0 -0.20929686320E+03 -0.14395948482E+03 -0.47785016925E+03  0.54117493071E+03  0.10566000000E+00 0.  1.
          4    1    3    3  501    0  0.24193918733E+03  0.52172937930E+02  0.42771183578E+03  0.49415989344E+03  0.00000000000E+00 0.  1.
         13    1    4    4    0    0 -0.24812498545E+03  0.45948128889E+03 -0.32960897683E+03  0.61752016324E+03  0.10566000000E+00 0. -1.
         -4    1    4    4    0  503  0.21548266132E+03 -0.36769474199E+03 -0.26290349970E+03  0.50074988844E+03  0.00000000000E+00 0. -1.
<mgrwt>
<rscale>  2 0.10119890E+04</rscale>
<asrwt>0</asrwt>
<pdfrwt beam="1">  1       21 0.11622724E+00 0.10341201E+04</pdfrwt>
<pdfrwt beam="2">  1       21 0.21509659E+00 0.10341201E+04</pdfrwt>
<totfact> 0.29124361E+01</totfact>
</mgrwt>
</event>
<event>
 8    1  0.7418332E-006  0.1208498E+04  0.7818608E-02  0.8620553E-01
         21   -1    0    0  501  502  0.00000000000E+00  0.00000000000E+00  0.12458320034E+04  0.12458320034E+04  0.00000000000E+00 0.  1.
         21   -1    0    0  502  503 -0.00000000000E+00 -0.00000000000E+00 -0.11620873888E+04  0.11620873888E+04  0.00000000000E+00 0.  1.
    9000010    2    1    2  501    0  0.53753338890E+03 -0.33664420669E+02  0.37223536078E+03  0.11654644261E+04  0.96419537816E+03 0.  0.
   -9000010    2    1    2    0  503 -0.53753338890E+03  0.33664420669E+02 -0.28849074613E+03  0.12424549661E+04  0.10818465671E+04 0.  0.
        -13    1    3    3    0    0  0.53631091049E+03 -0.32341417993E+03  0.54320272651E+03  0.82903277242E+03  0.10566000000E+00 0.  1.
          4    1    3    3  501    0  0.12224784099E+01  0.28974975926E+03 -0.17096736573E+03  0.33643165367E+03  0.00000000000E+00 0.  1.
         13    1    4    4    0    0 -0.61592846980E+03 -0.17254298538E+03  0.22940317422E+03  0.67953277273E+03  0.10566000000E+00 0. -1.
         -4    1    4    4    0  503  0.78395080894E+02  0.20620740604E+03 -0.51789392035E+03  0.56292219334E+03  0.00000000000E+00 0. -1.
<mgrwt>
<rscale>  2 0.11815939E+04</rscale>
<asrwt>0</asrwt>
<pdfrwt beam="1">  1       21 0.19166646E+00 0.12084980E+04</pdfrwt>
<pdfrwt beam="2">  1       21 0.17878267E+00 0.12084980E+04</pdfrwt>
<totfact> 0.11517263E+01</totfact>
</mgrwt>
</event>
<event>
 8    1  0.7418332E-006  0.9990867E+03  0.7818608E-02  0.8775752E-01
         21   -1    0    0  501  502  0.00000000000E+00  0.00000000000E+00  0.11223776214E+04  0.11223776214E+04  0.00000000000E+00 0.  1.
         21   -1    0    0  502  503 -0.00000000000E+00 -0.00000000000E+00 -0.13793904150E+04  0.13793904150E+04  0.00000000000E+00 0.  1.
    9000010    2    1    2  501    0  0.50698549796E+02 -0.54714513973E+02  0.61799482207E+03  0.11736819518E+04  0.99501140843E+03 0.  0.
   -9000010    2    1    2    0  503 -0.50698549796E+02  0.54714513973E+02 -0.87500761569E+03  0.13280860846E+04  0.99629829844E+03 0.  0.
        -13    1    3    3    0    0  0.12337546836E+03 -0.49383823529E+03  0.15652811348E+03  0.53253992367E+03  0.10566000000E+00 0.  1.
          4    1    3    3  501    0 -0.72676918562E+02  0.43912372132E+03  0.46146670859E+03  0.64114202814E+03  0.00000000000E+00 0.  1.
         13    1    4    4    0    0 -0.18054741048E+02 -0.41906260403E+03 -0.71129318749E+03  0.82575871143E+03  0.10566000000E+00 0. -1.
         -4    1    4    4    0  503 -0.32643808748E+02  0.47377711800E+03 -0.16371442820E+03  0.50232737313E+03  0.00000000000E+00 0. -1.
<mgrwt>
<rscale>  2 0.99876577E+03</rscale>
<asrwt>0</asrwt>
<pdfrwt beam="1">  1       21 0.17267348E+00 0.99908674E+03</pdfrwt>
<pdfrwt beam="2">  1       21 0.21221391E+00 0.99908674E+03</pdfrwt>
<totfact> 0.93838720E+00</totfact>
</mgrwt>
</event>
<event>
 8    1  0.7418332E-006  0.1071546E+04  0.7818608E-02  0.8718339E-01
         21   -1    0    0  501  502  0.00000000000E+00  0.00000000000E+00  0.77686005644E+03  0.77686005644E+03  0.00000000000E+00 0.  1.
         21   -1    0    0  502  503 -0.00000000000E+00 -0.00000000000E+00 -0.14692125866E+04  0.14692125866E+04  0.00000000000E+00 0.  1.
    9000010    2    1    2  501    0 -0.16813864892E+03 -0.38172457620E+03 -0.16181355773E+03  0.10836944184E+04  0.98702872685E+03 0.  0.
   -9000010    2    1    2    0  503  0.16813864892E+03  0.38172457620E+03 -0.53053897245E+03  0.11623782247E+04  0.94639699840E+03 0.  0.
        -13    1    3    3    0    0 -0.57320993708E+03 -0.14217610176E+03 -0.15169732102E+02  0.59077390583E+03  0.10566000000E+00 0.  1.
          4    1    3    3  501    0  0.40507128816E+03 -0.23954847444E+03 -0.14664382562E+03  0.49292051254E+03  0.00000000000E+00 0.  1.
         13    1    4    4    0    0 -0.28371694078E+03 -0.45825311656E+02  0.72066434360E+02  0.29629182202E+03  0.10566000000E+00 0. -1.
         -4    1    4    4    0  503  0.45185558970E+03  0.42754988786E+03 -0.60260540681E+03  0.86608640265E+03  0.00000000000E+00 0. -1.
<mgrwt>
<rscale>  2 0.10620948E+04</rscale>
<asrwt>0</asrwt>
<pdfrwt beam="1">  1       21 0.11951693E+00 0.10715456E+04</pdfrwt>
<pdfrwt beam="2">  1       21 0.22603270E+00 0.10715456E+04</pdfrwt>
<totfact> 0.22113731E+01</totfact>
</mgrwt>
</event>
<event>
 8    1  0.7418332E-006  0.1153667E+04  0.7818608E-02  0.8647828E-01
         21   -1    0    0  501  502  0.00000000000E+00  0.00000000000E+00  0.10432225364E+04  0.10432225364E+04  0.00000000000E+00 0. -1.
         21   -1    0    0  502  503 -0.00000000000E+00 -0.00000000000E+00 -0.13277884672E+04  0.13277884672E+04  0.00000000000E+00 0. -1.
    9000010    2    1    2  501    0  0.48059144961E+03 -0.17439758822E+03  0.15140683866E+03  0.11635603411E+04  0.10341982287E+04 0.  0.
   -9000010    2    1    2    0  503 -0.48059144961E+03  0.17439758822E+03 -0.43597276940E+03  0.12074506625E+04  0.10032358579E+04 0.  0.
        -13    1    3    3    0    0 -0.32715422529E+00  0.38329285624E+03 -0.80186577024E+02  0.39159088214E+03  0.10566000000E+00 0.  1.
          4    1    3    3  501    0  0.48091860383E+03 -0.55769044446E+03  0.23159341568E+03  0.77196945894E+03  0.00000000000E+00 0.  1.
         13    1    4    4    0    0 -0.73043237939E+03  0.20891269438E+03 -0.54263457209E+03  0.93361033881E+03  0.10566000000E+00 0. -1.
         -4    1    4    4    0  503  0.24984092978E+03 -0.34515106161E+02  0.10666180270E+03  0.27384032373E+03  0.00000000000E+00 0. -1.
<mgrwt>
<rscale>  2 0.11466863E+04</rscale>
<asrwt>0</asrwt>
<pdfrwt beam="1">  1       21 0.16049577E+00 0.11536675E+04</pdfrwt>
<pdfrwt beam="2">  1       21 0.20427515E+00 0.11536675E+04</pdfrwt>
<totfact> 0.13215331E+01</totfact>
</mgrwt>
</event>
<event>
 8    1  0.7418332E-006  0.1097299E+04  0.7818608E-02  0.8689460E-01
         21   -1    0    0  503  502  0.00000000000E+00  0.00000000000E+00  0.20854751258E+04  0.20854751258E+04  0.00000000000E+00 0.  1.
         21   -1    0    0  501  503 -0.00000000000E+00 -0.00000000000E+00 -0.59727921191E+03  0.59727921191E+03  0.00000000000E+00 0.  1.
    9000010    2    1    2  501    0  0.41032371369E+03  0.16869058659E+03  0.47838415983E+03  0.11915182800E+04  0.99701672167E+03 0.  0.
   -9000010    2    1    2    0  502 -0.41032371369E+03 -0.16869058659E+03  0.10098117541E+04  0.14912360577E+04  0.10036150343E+04 0.  0.
        -13    1    3    3    0    0 -0.30618573349E+03  0.19382017102E+03  0.24545045869E+03  0.43767785062E+03  0.10566000000E+00 0.  1.
          4    1    3    3  501    0  0.71650944718E+03 -0.25129584436E+02  0.23293370114E+03  0.75384042943E+03  0.00000000000E+00 0.  1.
         13    1    4    4    0    0  0.27108785904E+03 -0.23322163562E+03  0.13910067381E+03  0.38370557366E+03  0.10566000000E+00 0. -1.
         -4    1    4    4    0  502 -0.68141157273E+03  0.64531049028E+02  0.87071108030E+03  0.11075304841E+04  0.00000000000E+00 0. -1.
<mgrwt>
<rscale>  2 0.10957880E+04</rscale>
<asrwt>0</asrwt>
<pdfrwt beam="1">  1       21 0.32084232E+00 0.10972990E+04</pdfrwt>
<pdfrwt beam="2">  1       21 0.91889110E-01 0.10972990E+04</pdfrwt>
<totfact> 0.92280413E+00</totfact>
</mgrwt>
</event>
<event>
 8    1  0.7418332E-006  0.1000040E+04  0.7818608E-02  0.8816710E-01
         21   -1    0    0  503  502  0.00000000000E+00  0.00000000000E+00  0.58814552082E+03  0.58814552082E+03  0.00000000000E+00 0.  1.
         21   -1    0    0  501  503 -0.00000000000E+00 -0.00000000000E+00 -0.14473053660E+04  0.14473053660E+04  0.00000000000E+00 0.  1.
    9000010    2    1    2  501    0 -0.12476974798E+01  0.60346467855E+02 -0.29303092510E+03  0.88628512578E+03  0.83426071955E+03 0.  0.
   -9000010    2    1    2    0  502  0.12476974798E+01 -0.60346467855E+02 -0.56612892005E+03  0.11491657610E+04  0.99821677967E+03 0.  0.
        -13    1    3    3    0    0 -0.19204155994E+03 -0.25747777349E+03 -0.38791510575E+03  0.50363965791E+03  0.10566000000E+00 0.  1.
          4    1    3    3  501    0  0.19079386246E+03  0.31782424134E+03  0.94884180657E+02  0.38264546787E+03  0.00000000000E+00 0.  1.
         13    1    4    4    0    0  0.35804781543E+03 -0.13697030509E+03 -0.66808367580E+03  0.77025639345E+03  0.10566000000E+00 0. -1.
         -4    1    4    4    0  502 -0.35680011795E+03  0.76623837238E+02  0.10195475576E+03  0.37890936756E+03  0.00000000000E+00 0. -1.
<mgrwt>
<rscale>  2 0.95636111E+03</rscale>
<asrwt>0</asrwt>
<pdfrwt beam="1">  1       21 0.90483928E-01 0.10000400E+04</pdfrwt>
<pdfrwt beam="2">  1       21 0.22266236E+00 0.10000400E+04</pdfrwt>
<totfact> 0.49847442E+01</totfact>
</mgrwt>
</event>
<event>
 8    1  0.7418332E-006  0.1031266E+04  0.7818608E-02  0.8752056E-01
         21   -1    0    0  501  502  0.00000000000E+00  0.00000000000E+00  0.13052830817E+04  0.13052830817E+04  0.00000000000E+00 0. -1.
         21   -1    0    0  502  503 -0.00000000000E+00 -0.00000000000E+00 -0.80135715110E+03  0.80135715110E+03  0.00000000000E+00 0. -1.
    9000010    2    1    2  501    0  0.66422233138E+01 -0.17991642142E+03  0.14931066934E+03  0.10420191499E+04  0.10154290694E+04 0.  0.
   -9000010    2    1    2    0  503 -0.66422233138E+01  0.17991642142E+03  0.35461526130E+03  0.10646210830E+04  0.98754849445E+03 0.  0.
        -13    1    3    3    0    0 -0.82760242112E+02  0.14318643362E+03  0.51796530078E+03  0.54372757556E+03  0.10566000000E+00 0.  1.
          4    1    3    3  501    0  0.89402465426E+02 -0.32310285504E+03 -0.36865463144E+03  0.49829157432E+03  0.00000000000E+00 0.  1.
         13    1    4    4    0    0  0.21188834779E+03 -0.31111056422E+03  0.36880229540E+03  0.52697400254E+03  0.10566000000E+00 0. -1.
         -4    1    4    4    0  503 -0.21853057111E+03  0.49102698564E+03 -0.14187034095E+02  0.53764708041E+03  0.00000000000E+00 0. -1.
<mgrwt>
<rscale>  2 0.10243366E+04</rscale>
<asrwt>0</asrwt>
<pdfrwt beam="1">  1       21 0.20081278E+00 0.10312663E+04</pdfrwt>
<pdfrwt beam="2">  1       21 0.12328571E+00 0.10312663E+04</pdfrwt>
<totfact> 0.31829882E+01</totfact>
</mgrwt>
</event>
<event>
 8    1  0.7418332E-006  0.1040094E+04  0.7818608E-02  0.8739629E-01
         21   -1    0    0  503  502  0.00000000000E+00  0.00000000000E+00  0.18449190731E+04  0.18449190731E+04  0.00000000000E+00 0.  1.
         21   -1    0    0  501  503 -0.00000000000E+00 -0.00000000000E+00 -0.61059076919E+03  0.61059076919E+03  0.00000000000E+00 0.  1.
    9000010    2    1    2  501    0  0.24768393859E+03 -0.19745884005E+02  0.88604743063E+03  0.13663365612E+04  0.10099793640E+04 0.  0.
   -9000010    2    1    2    0  502 -0.24768393859E+03  0.19745884005E+02  0.34828087326E+03  0.10891732811E+04  0.10016294905E+04 0.  0.
        -13    1    3    3    0    0 -0.89194420438E+02 -0.34333854085E+02 -0.20402588422E+03  0.22530208781E+03  0.10566000000E+00 0.  1.
          4    1    3    3  501    0  0.33687835903E+03  0.14587970080E+02  0.10900733149E+04  0.11410344734E+04  0.00000000000E+00 0.  1.
         13    1    4    4    0    0 -0.53799233881E+03 -0.27916208347E+03  0.13451153657E+03  0.62085472544E+03  0.10566000000E+00 0. -1.
         -4    1    4    4    0  502  0.29030840022E+03  0.29890796747E+03  0.21376933669E+03  0.46831855565E+03  0.00000000000E+00 0. -1.
<mgrwt>
<rscale>  2 0.10380615E+04</rscale>
<asrwt>0</asrwt>
<pdfrwt beam="1">  1       21 0.28383370E+00 0.10400940E+04</pdfrwt>
<pdfrwt beam="2">  1       21 0.93937042E-01 0.10400940E+04</pdfrwt>
<totfact> 0.16128282E+01</totfact>
</mgrwt>
</event>
<event>
 8    1  0.7418332E-006  0.1072822E+04  0.7818608E-02  0.8775391E-01
         21   -1    0    0  503  502  0.00000000000E+00  0.00000000000E+00  0.20777259421E+04  0.20777259421E+04  0.00000000000E+00 0.  1.
         21   -1    0    0  501  503 -0.00000000000E+00 -0.00000000000E+00 -0.48407732946E+03  0.48407732946E+03  0.00000000000E+00 0.  1.
    9000010    2    1    2  501    0 -0.34906911938E+03  0.14834858501E+03  0.11404961787E+04  0.13972029402E+04  0.71245208240E+03 0.  0.
   -9000010    2    1    2    0  502  0.34906911938E+03 -0.14834858501E+03  0.45315243392E+03  0.11646003313E+04  0.10035388635E+04 0.  0.
        -13    1    3    3    0    0 -0.34594594889E+02  0.26742897327E+03  0.74983564298E+02  0.27988852748E+03  0.10566000000E+00 0.  1.
          4    1    3    3  501    0 -0.31447452449E+03 -0.11908038825E+03  0.10655126144E+04  0.11173144127E+04  0.00000000000E+00 0.  1.
         13    1    4    4    0    0 -0.20924586145E+03 -0.26816432958E+03 -0.11502035765E+03  0.35906215623E+03  0.10566000000E+00 0. -1.
         -4    1    4    4    0  502  0.55831498083E+03  0.11981574457E+03  0.56817279157E+03  0.80553817510E+03  0.00000000000E+00 0. -1.
<mgrwt>
<rscale>  2 0.99914932E+03</rscale>
<asrwt>0</asrwt>
<pdfrwt beam="1">  1       21 0.31965014E+00 0.10728219E+04</pdfrwt>
<pdfrwt beam="2">  1       21 0.74473436E-01 0.10728219E+04</pdfrwt>
<totfact> 0.15948579E+01</totfact>
</mgrwt>
</event>
<event>
 8    1  0.7418332E-006  0.1023265E+04  0.7818608E-02  0.8756442E-01
         21   -1    0    0  501  502  0.00000000000E+00  0.00000000000E+00  0.61324850405E+03  0.61324850405E+03  0.00000000000E+00 0. -1.
         21   -1    0    0  502  503 -0.00000000000E+00 -0.00000000000E+00 -0.16872703809E+04  0.16872703809E+04  0.00000000000E+00 0. -1.
    9000010    2    1    2  501    0  0.12764700957E+03  0.13659357742E+02 -0.48177007936E+03  0.11310054898E+04  0.10151801177E+04 0.  0.
   -9000010    2    1    2    0  503 -0.12764700957E+03 -0.13659357742E+02 -0.59225179753E+03  0.11695133952E+04  0.10002594927E+04 0.  0.
        -13    1    3    3    0    0  0.33453296256E+03  0.43721748538E+03 -0.23041767874E+03  0.59679456298E+03  0.10566000000E+00 0.  1.
          4    1    3    3  501    0 -0.20688595299E+03 -0.42355812764E+03 -0.25135240062E+03  0.53421092682E+03  0.00000000000E+00 0.  1.
         13    1    4    4    0    0  0.41292480692E+03 -0.49115563886E+02 -0.44300831643E+03  0.60759823434E+03  0.10566000000E+00 0. -1.
         -4    1    4    4    0  503 -0.54057181649E+03  0.35456206144E+02 -0.14924348109E+03  0.56191516084E+03  0.00000000000E+00 0. -1.
<mgrwt>
<rscale>  2 0.10195444E+04</rscale>
<asrwt>0</asrwt>
<pdfrwt beam="1">  1       21 0.94345925E-01 0.10232649E+04</pdfrwt>
<pdfrwt beam="2">  1       21 0.25958005E+00 0.10232649E+04</pdfrwt>
<totfact> 0.23878517E+01</totfact>
</mgrwt>
</event>
<event>
 8    1  0.7418332E-006  0.1022464E+04  0.7818608E-02  0.8756053E-01
         21   -1    0    0  501  502  0.00000000000E+00  0.00000000000E+00  0.54739581605E+03  0.54739581605E+03  0.00000000000E+00 0.  1.
         21   -1    0    0  502  503 -0.00000000000E+00 -0.00000000000E+00 -0.19449017168E+04  0.19449017168E+04  0.00000000000E+00 0.  1.
    9000010    2    1    2  501    0  0.93746732855E+02  0.11568550958E+03 -0.49519610350E+03  0.11360687295E+04  0.10115638340E+04 0.  0.
   -9000010    2    1    2    0  503 -0.93746732855E+02 -0.11568550958E+03 -0.90230979722E+03  0.13562288033E+04  0.10015098650E+04 0.  0.
        -13    1    3    3    0    0 -0.18517046784E+03  0.76551118508E+02 -0.73768562931E+03  0.76441368039E+03  0.10566000000E+00 0.  1.
          4    1    3    3  501    0  0.27891720069E+03  0.39134391076E+02  0.24248952581E+03  0.37165504912E+03  0.00000000000E+00 0.  1.
         13    1    4    4    0    0 -0.60340407096E+02 -0.48492444440E+03 -0.13964669698E+03  0.50822622192E+03  0.10566000000E+00 0. -1.
         -4    1    4    4    0  503 -0.33406325759E+02  0.36923893481E+03 -0.76266310025E+03  0.84800258140E+03  0.00000000000E+00 0. -1.
<mgrwt>
<rscale>  2 0.10199686E+04</rscale>
<asrwt>0</asrwt>
<pdfrwt beam="1">  1       21 0.84214741E-01 0.10224642E+04</pdfrwt>
<pdfrwt beam="2">  1       21 0.29921565E+00 0.10224642E+04</pdfrwt>
<totfact> 0.16645281E+01</totfact>
</mgrwt>
</event>
<event>
 8    1  0.7418332E-006  0.1047231E+04  0.7818608E-02  0.8741984E-01
         21   -1    0    0  501  502  0.00000000000E+00  0.00000000000E+00  0.19956463672E+04  0.19956463672E+04  0.00000000000E+00 0.  1.
         21   -1    0    0  502  503 -0.00000000000E+00 -0.00000000000E+00 -0.56295879252E+03  0.56295879252E+03  0.00000000000E+00 0.  1.
    9000010    2    1    2  501    0 -0.33882358222E+02 -0.96038636605E+02  0.10311953569E+04  0.14370491999E+04  0.99567821355E+03 0.  0.
   -9000010    2    1    2    0  503  0.33882358222E+02  0.96038636605E+02  0.40149221779E+03  0.11215559598E+04  0.10422669217E+04 0.  0.
        -13    1    3    3    0    0 -0.49598229402E+03  0.45910800152E+02  0.66364282974E+03  0.82977590600E+03  0.10566000000E+00 0.  1.
          4    1    3    3  501    0  0.46209993580E+03 -0.14194943676E+03  0.36755252711E+03  0.60727329387E+03  0.00000000000E+00 0.  1.
         13    1    4    4    0    0 -0.56527377308E+02 -0.31699301693E+03 -0.20538114320E+03  0.38191797852E+03  0.10566000000E+00 0. -1.
         -4    1    4    4    0  503  0.90409735530E+02  0.41303165353E+03  0.60687336099E+03  0.73963798130E+03  0.00000000000E+00 0. -1.
<mgrwt>
<rscale>  2 0.10354436E+04</rscale>
<asrwt>0</asrwt>
<pdfrwt beam="1">  1       21 0.30702251E+00 0.10472305E+04</pdfrwt>
<pdfrwt beam="2">  1       21 0.86609046E-01 0.10472305E+04</pdfrwt>
<totfact> 0.13581767E+01</totfact>
</mgrwt>
</event>
<event>
 8    1  0.7418332E-006  0.1074076E+04  0.7818608E-02  0.8724034E-01
         21   -1    0    0  503  502  0.00000000000E+00  0.00000000000E+00  0.14420629197E+04  0.14420629197E+04  0.00000000000E+00 0. -1.
         21   -1    0    0  501  503 -0.00000000000E+00 -0.00000000000E+00 -0.11284917172E+04  0.11284917172E+04  0.00000000000E+00 0. -1.
    9000010    2    1    2  501    0  0.31823739871E+02 -0.11458471073E+03 -0.59356410935E+03  0.11646619248E+04  0.99497569859E+03 0.  0.
   -9000010    2    1    2    0  502 -0.31823739871E+02  0.11458471073E+03  0.90713531178E+03  0.14058927121E+04  0.10674724529E+04 0.  0.
        -13    1    3    3    0    0 -0.26162454111E+02 -0.27069299452E+03 -0.83115808756E+03  0.87451869561E+03  0.10566000000E+00 0.  1.
          4    1    3    3  501    0  0.57986193982E+02  0.15610828379E+03  0.23759397821E+03  0.29014322918E+03  0.00000000000E+00 0.  1.
         13    1    4    4    0    0  0.16894168925E+03  0.51562209878E+03  0.76015254042E+03  0.93393754555E+03  0.10566000000E+00 0. -1.
         -4    1    4    4    0  502 -0.20076542913E+03 -0.40103738805E+03  0.14698277136E+03  0.47195516654E+03  0.00000000000E+00 0. -1.
<mgrwt>
<rscale>  2 0.10556003E+04</rscale>
<asrwt>0</asrwt>
<pdfrwt beam="1">  1       21 0.22185583E+00 0.10740763E+04</pdfrwt>
<pdfrwt beam="2">  1       21 0.17361411E+00 0.10740763E+04</pdfrwt>
<totfact> 0.76488687E+00</totfact>
</mgrwt>
</event>
<event>
 8    1  0.7418332E-006  0.1068367E+04  0.7818608E-02  0.8719738E-01
         21   -1    0    0  503  502  0.00000000000E+00  0.00000000000E+00  0.11418047223E+04  0.11418047223E+04  0.00000000000E+00 0. -1.
         21   -1    0    0  501  503 -0.00000000000E+00 -0.00000000000E+00 -0.99782477523E+03  0.99782477523E+03  0.00000000000E+00 0. -1.
    9000010    2    1    2  501    0  0.11560310338E+03  0.24949691368E+03  0.24930361332E+03  0.10970688043E+04  0.10323734219E+04 0.  0.
   -9000010    2    1    2    0  502 -0.11560310338E+03 -0.24949691368E+03 -0.10532366625E+03  0.10425606933E+04  0.10001134621E+04 0.  0.
        -13    1    3    3    0    0  0.35803246685E+03  0.55387430655E+03  0.54115501079E+02  0.66173445837E+03  0.10566000000E+00 0.  1.
          4    1    3    3  501    0 -0.24242936347E+03 -0.30437739287E+03  0.19518811224E+03  0.43533434590E+03  0.00000000000E+00 0.  1.
         13    1    4    4    0    0 -0.56010462725E+03 -0.15889127304E+03 -0.85846338167E+02  0.58850083692E+03  0.10566000000E+00 0. -1.
         -4    1    4    4    0  502  0.44450152387E+03 -0.90605640635E+02 -0.19477328082E+02  0.45405985635E+03  0.00000000000E+00 0. -1.
<mgrwt>
<rscale>  2 0.10604953E+04</rscale>
<asrwt>0</asrwt>
<pdfrwt beam="1">  1       21 0.17566227E+00 0.10683668E+04</pdfrwt>
<pdfrwt beam="2">  1       21 0.15351150E+00 0.10683668E+04</pdfrwt>
<totfact> 0.26211534E+01</totfact>
</mgrwt>
</event>
<event>
 8    1  0.7418332E-006  0.1033279E+04  0.7818608E-02  0.8745260E-01
         21   -1    0    0  503  502  0.00000000000E+00  0.00000000000E+00  0.19657140973E+04  0.19657140973E+04  0.00000000000E+00 0. -1.
         21   -1    0    0  501  503 -0.00000000000E+00 -0.00000000000E+00 -0.73243312108E+03  0.73243312108E+03  0.00000000000E+00 0. -1.
    9000010    2    1    2  501    0 -0.99963164562E+02 -0.15807285850E+03 -0.73429029020E+02  0.10358847120E+04  0.10162114206E+04 0.  0.
   -9000010    2    1    2    0  502  0.99963164562E+02  0.15807285850E+03  0.13067100052E+04  0.16622625064E+04  0.10102702310E+04 0.  0.
        -13    1    3    3    0    0 -0.33350585723E+03  0.30120367370E+03  0.15072741254E+03  0.47399216651E+03  0.10566000000E+00 0.  1.
          4    1    3    3  501    0  0.23354269267E+03 -0.45927653220E+03 -0.22415644156E+03  0.56189254544E+03  0.00000000000E+00 0.  1.
         13    1    4    4    0    0  0.33159230880E+03  0.24580395932E+02  0.41270920126E+01  0.33252774196E+03  0.10566000000E+00 0. -1.
         -4    1    4    4    0  502 -0.23162914424E+03  0.13349246257E+03  0.13025829132E+04  0.13297347645E+04  0.00000000000E+00 0. -1.
<mgrwt>
<rscale>  2 0.10318152E+04</rscale>
<asrwt>0</asrwt>
<pdfrwt beam="1">  1       21 0.30241755E+00 0.10332789E+04</pdfrwt>
<pdfrwt beam="2">  1       21 0.11268202E+00 0.10332789E+04</pdfrwt>
<totfact> 0.73756020E+00</totfact>
</mgrwt>
</event>
<event>
 8    1  0.7418332E-006  0.1011444E+04  0.7818608E-02  0.8765254E-01
         21   -1    0    0  501  502  0.00000000000E+00  0.00000000000E+00  0.14668683680E+04  0.14668683680E+04  0.00000000000E+00 0. -1.
         21   -1    0    0  502  503 -0.00000000000E+00 -0.00000000000E+00 -0.85495270808E+03  0.85495270808E+03  0.00000000000E+00 0. -1.
    9000010    2    1    2  501    0 -0.97571570482E+02  0.70272289432E+02  0.81124126368E+03  0.12965845113E+04  0.10042711790E+04 0.  0.
   -9000010    2    1    2    0  503  0.97571570482E+02 -0.70272289432E+02 -0.19932560375E+03  0.10252365648E+04  0.99845926883E+03 0.  0.
        -13    1    3    3    0    0  0.35340382766E+03 -0.22598944804E+03  0.15548922824E+03  0.44737278336E+03  0.10566000000E+00 0.  1.
          4    1    3    3  501    0 -0.45097539814E+03  0.29626173747E+03  0.65575203544E+03  0.84921172790E+03  0.00000000000E+00 0.  1.
         13    1    4    4    0    0 -0.21775937261E+03 -0.86311791148E+02  0.33251318494E+03  0.40673566228E+03  0.10566000000E+00 0. -1.
         -4    1    4    4    0  503  0.31533094309E+03  0.16039501716E+02 -0.53183878869E+03  0.61850090254E+03  0.00000000000E+00 0. -1.
<mgrwt>
<rscale>  2 0.10099983E+04</rscale>
<asrwt>0</asrwt>
<pdfrwt beam="1">  1       21 0.22567206E+00 0.10114440E+04</pdfrwt>
<pdfrwt beam="2">  1       21 0.13153119E+00 0.10114440E+04</pdfrwt>
<totfact> 0.17174357E+01</totfact>
</mgrwt>
</event>
<event>
 8    1  0.7418332E-006  0.1078175E+04  0.7818608E-02  0.8704852E-01
         21   -1    0    0  501  502  0.00000000000E+00  0.00000000000E+00  0.14667523368E+04  0.14667523368E+04  0.00000000000E+00 0.  1.
         21   -1    0    0  502  503 -0.00000000000E+00 -0.00000000000E+00 -0.16107227046E+04  0.16107227046E+04  0.00000000000E+00 0.  1.
    9000010    2    1    2  501    0  0.28229105785E+03  0.29903122750E+03  0.10256528351E+04  0.14880947596E+04  0.99667164048E+03 0.  0.
   -9000010    2    1    2    0  503 -0.28229105785E+03 -0.29903122750E+03 -0.11696232029E+04  0.15893802818E+04  0.99448646401E+03 0.  0.
        -13    1    3    3    0    0  0.11400673990E+03  0.14804459002E+03  0.11925352104E+04  0.12070853228E+04  0.10566000000E+00 0.  1.
          4    1    3    3  501    0  0.16828431796E+03  0.15098663749E+03 -0.16688237529E+03  0.28100943676E+03  0.00000000000E+00 0.  1.
         13    1    4    4    0    0 -0.40758677679E+03 -0.51623238466E+03 -0.11658617933E+04  0.13386024757E+04  0.10566000000E+00 0. -1.
         -4    1    4    4    0  503  0.12529571893E+03  0.21720115716E+03 -0.37614095856E+01  0.25077780615E+03  0.00000000000E+00 0. -1.
<mgrwt>
<rscale>  2 0.10776702E+04</rscale>
<asrwt>0</asrwt>
<pdfrwt beam="1">  1       21 0.22565421E+00 0.10781754E+04</pdfrwt>
<pdfrwt beam="2">  1       21 0.24780349E+00 0.10781754E+04</pdfrwt>
<totfact> 0.19196538E+00</totfact>
</mgrwt>
</event>
<event>
 8    1  0.7418332E-006  0.1043488E+04  0.7818608E-02  0.8742796E-01
         21   -1    0    0  501  502  0.00000000000E+00  0.00000000000E+00  0.40185420070E+03  0.40185420070E+03  0.00000000000E+00 0. -1.
         21   -1    0    0  502  503 -0.00000000000E+00 -0.00000000000E+00 -0.27348596271E+04  0.27348596271E+04  0.00000000000E+00 0. -1.
    9000010    2    1    2  501    0 -0.15549822906E+03 -0.21426076732E+03 -0.82403074362E+03  0.13020828658E+04  0.97278247690E+03 0.  0.
   -9000010    2    1    2    0  503  0.15549822906E+03  0.21426076732E+03 -0.15089746828E+04  0.18346309620E+04  0.10093457276E+04 0.  0.
        -13    1    3    3    0    0  0.18304137650E+03  0.30745785104E+03 -0.45523173975E+03  0.57902540852E+03  0.10566000000E+00 0.  1.
          4    1    3    3  501    0 -0.33853960556E+03 -0.52171861836E+03 -0.36879900387E+03  0.72305745729E+03  0.00000000000E+00 0.  1.
         13    1    4    4    0    0 -0.34267101608E+03  0.38633215944E+03 -0.73969606221E+03  0.90212318355E+03  0.10566000000E+00 0. -1.
         -4    1    4    4    0  503  0.49816924514E+03 -0.17207139212E+03 -0.76927862055E+03  0.93250777842E+03  0.00000000000E+00 0. -1.
<mgrwt>
<rscale>  2 0.10345421E+04</rscale>
<asrwt>0</asrwt>
<pdfrwt beam="1">  1       21 0.61823725E-01 0.10434875E+04</pdfrwt>
<pdfrwt beam="2">  1       21 0.42074762E+00 0.10434875E+04</pdfrwt>
<totfact> 0.48908443E+00</totfact>
</mgrwt>
</event>
<event>
 8    1  0.7418332E-006  0.1046445E+04  0.7818608E-02  0.8748490E-01
         21   -1    0    0  503  502  0.00000000000E+00  0.00000000000E+00  0.14823429877E+04  0.14823429877E+04  0.00000000000E+00 0. -1.
         21   -1    0    0  501  503 -0.00000000000E+00 -0.00000000000E+00 -0.71960880058E+03  0.71960880058E+03  0.00000000000E+00 0. -1.
    9000010    2    1    2  501    0  0.53800576010E+02 -0.33192254738E+03  0.16921055167E+03  0.10600374255E+04  0.99094906695E+03 0.  0.
   -9000010    2    1    2    0  502 -0.53800576010E+02  0.33192254738E+03  0.59352363543E+03  0.11419143627E+04  0.91576799823E+03 0.  0.
        -13    1    3    3    0    0  0.38428675054E+03  0.18903335097E+03  0.43995021951E+02  0.43051769712E+03  0.10566000000E+00 0.  1.
          4    1    3    3  501    0 -0.33048617453E+03 -0.52095589834E+03  0.12521552972E+03  0.62951972841E+03  0.00000000000E+00 0.  1.
         13    1    4    4    0    0 -0.26941919452E+03 -0.14105034844E+03 -0.56811800675E+02  0.30936951212E+03  0.10566000000E+00 0. -1.
         -4    1    4    4    0  502  0.21561861851E+03  0.47297289582E+03  0.65033543611E+03  0.83254485062E+03  0.00000000000E+00 0. -1.
<mgrwt>
<rscale>  2 0.10282523E+04</rscale>
<asrwt>0</asrwt>
<pdfrwt beam="1">  1       21 0.22805277E+00 0.10464450E+04</pdfrwt>
<pdfrwt beam="2">  1       21 0.11070905E+00 0.10464450E+04</pdfrwt>
<totfact> 0.26519274E+01</totfact>
</mgrwt>
</event>
<event>
 8    1  0.7418332E-006  0.1040500E+04  0.7818608E-02  0.8740464E-01
         21   -1    0    0  503  502  0.00000000000E+00  0.00000000000E+00  0.25108605823E+04  0.25108605823E+04  0.00000000000E+00 0. -1.
         21   -1    0    0  501  503 -0.00000000000E+00 -0.00000000000E+00 -0.76274021391E+03  0.76274021391E+03  0.00000000000E+00 0. -1.
    9000010    2    1    2  501    0  0.24777722277E+02  0.26069854410E+03 -0.21090130632E+03  0.10616584658E+04  0.10070062912E+04 0.  0.
   -9000010    2    1    2    0  502 -0.24777722277E+02 -0.26069854410E+03  0.19590216747E+04  0.22119423304E+04  0.99314917541E+03 0.  0.
        -13    1    3    3    0    0 -0.14542240108E+03 -0.22136843556E+03  0.25669105071E+03  0.36883867161E+03  0.10566000000E+00 0.  1.
          4    1    3    3  501    0  0.17020012336E+03  0.48206697966E+03 -0.46759235703E+03  0.69281979419E+03  0.00000000000E+00 0.  1.
         13    1    4    4    0    0  0.11052608402E+03  0.29912990322E+03  0.24033136776E+03  0.39931678119E+03  0.10566000000E+00 0. -1.
         -4    1    4    4    0  502 -0.13530380629E+03 -0.55982844732E+03  0.17186903069E+04  0.18126255492E+04  0.00000000000E+00 0. -1.
<mgrwt>
<rscale>  2 0.10371320E+04</rscale>
<asrwt>0</asrwt>
<pdfrwt beam="1">  1       21 0.38628624E+00 0.10404996E+04</pdfrwt>
<pdfrwt beam="2">  1       21 0.11734465E+00 0.10404996E+04</pdfrwt>
<totfact> 0.16970037E+00</totfact>
</mgrwt>
</event>
<event>
 8    1  0.7418332E-006  0.1046820E+04  0.7818608E-02  0.8735127E-01
         21   -1    0    0  501  502  0.00000000000E+00  0.00000000000E+00  0.97999048954E+03  0.97999048954E+03  0.00000000000E+00 0. -1.
         21   -1    0    0  502  503 -0.00000000000E+00 -0.00000000000E+00 -0.11991072730E+04  0.11991072730E+04  0.00000000000E+00 0. -1.
    9000010    2    1    2  501    0 -0.22271828342E+03 -0.15607418915E+03  0.19913132682E+03  0.10655912777E+04  0.10108753135E+04 0.  0.
   -9000010    2    1    2    0  503  0.22271828342E+03  0.15607418915E+03 -0.41824811023E+03  0.11135064848E+04  0.99549114698E+03 0.  0.
        -13    1    3    3    0    0  0.28863606741E+02 -0.29293437423E+03  0.54325804931E+03  0.61787779917E+03  0.10566000000E+00 0.  1.
          4    1    3    3  501    0 -0.25158189016E+03  0.13686018508E+03 -0.34412672249E+03  0.44771347852E+03  0.00000000000E+00 0.  1.
         13    1    4    4    0    0 -0.18422405155E+03  0.43468424476E+03 -0.82857522484E+01  0.47218381873E+03  0.10566000000E+00 0. -1.
         -4    1    4    4    0  503  0.40694233497E+03 -0.27861005561E+03 -0.40996235798E+03  0.64132266609E+03  0.00000000000E+00 0. -1.
<mgrwt>
<rscale>  2 0.10430877E+04</rscale>
<asrwt>0</asrwt>
<pdfrwt beam="1">  1       21 0.15076777E+00 0.10468197E+04</pdfrwt>
<pdfrwt beam="2">  1       21 0.18447804E+00 0.10468197E+04</pdfrwt>
<totfact> 0.23599388E+01</totfact>
</mgrwt>
</event>
<event>
 8    1  0.7418332E-006  0.1060249E+04  0.7818608E-02  0.8720747E-01
         21   -1    0    0  501  502  0.00000000000E+00  0.00000000000E+00  0.41770395738E+03  0.41770395738E+03  0.00000000000E+00 0. -1.
         21   -1    0    0  502  503 -0.00000000000E+00 -0.00000000000E+00 -0.30319309713E+04  0.30319309713E+04  0.00000000000E+00 0. -1.
    9000010    2    1    2  501    0  0.33751438254E+03 -0.61991022425E+02 -0.72314124324E+03  0.12833787301E+04  0.10031793767E+04 0.  0.
   -9000010    2    1    2    0  503 -0.33751438254E+03  0.61991022425E+02 -0.18910857707E+04  0.21662561986E+04  0.99935062949E+03 0.  0.
        -13    1    3    3    0    0 -0.45264343462E+02  0.81747127039E+02 -0.85011904811E+03  0.85523906639E+03  0.10566000000E+00 0.  1.
          4    1    3    3  501    0  0.38277872600E+03 -0.14373814946E+03  0.12697780487E+03  0.42813966369E+03  0.00000000000E+00 0.  1.
         13    1    4    4    0    0 -0.57001656837E+03  0.34197777883E+03 -0.97031756336E+03  0.11761734032E+04  0.10566000000E+00 0. -1.
         -4    1    4    4    0  503  0.23250218583E+03 -0.27998675641E+03 -0.92076820736E+03  0.99008279546E+03  0.00000000000E+00 0. -1.
<mgrwt>
<rscale>  2 0.10593422E+04</rscale>
<asrwt>0</asrwt>
<pdfrwt beam="1">  1       21 0.64262146E-01 0.10602489E+04</pdfrwt>
<pdfrwt beam="2">  1       21 0.46645093E+00 0.10602489E+04</pdfrwt>
<totfact> 0.21474661E+00</totfact>
</mgrwt>
</event>
<event>
 8    1  0.7418332E-006  0.1164606E+04  0.7818608E-02  0.8636022E-01
         21   -1    0    0  501  502  0.00000000000E+00  0.00000000000E+00  0.13261393569E+04  0.13261393569E+04  0.00000000000E+00 0. -1.
         21   -1    0    0  502  503 -0.00000000000E+00 -0.00000000000E+00 -0.12163811303E+04  0.12163811303E+04  0.00000000000E+00 0. -1.
    9000010    2    1    2  501    0 -0.48255915663E+03  0.30244013076E+03  0.57570133441E+03  0.12991304693E+04  0.10158614952E+04 0.  0.
   -9000010    2    1    2    0  503  0.48255915663E+03 -0.30244013076E+03 -0.46594310789E+03  0.12433900180E+04  0.10022885735E+04 0.  0.
        -13    1    3    3    0    0 -0.27877302666E+03 -0.36893682685E+03  0.24857984925E+03  0.52499593828E+03  0.10566000000E+00 0.  1.
          4    1    3    3  501    0 -0.20378612997E+03  0.67137695761E+03  0.32712148516E+03  0.77413453097E+03  0.00000000000E+00 0.  1.
         13    1    4    4    0    0 -0.22722246733E+02  0.33663028481E+03 -0.11686073676E+03  0.35706118819E+03  0.10566000000E+00 0. -1.
         -4    1    4    4    0  503  0.50528140337E+03 -0.63907041557E+03 -0.34908237113E+03  0.88632882977E+03  0.00000000000E+00 0. -1.
<mgrwt>
<rscale>  2 0.11616400E+04</rscale>
<asrwt>0</asrwt>
<pdfrwt beam="1">  1       21 0.20402144E+00 0.11646063E+04</pdfrwt>
<pdfrwt beam="2">  1       21 0.18713556E+00 0.11646063E+04</pdfrwt>
<totfact> 0.79502988E+00</totfact>
</mgrwt>
</event>
<event>
 8    1  0.7418332E-006  0.1063503E+04  0.7818608E-02  0.8721951E-01
         21   -1    0    0  503  502  0.00000000000E+00  0.00000000000E+00  0.11022485967E+04  0.11022485967E+04  0.00000000000E+00 0.  1.
         21   -1    0    0  501  503 -0.00000000000E+00 -0.00000000000E+00 -0.21106606067E+04  0.21106606067E+04  0.00000000000E+00 0.  1.
    9000010    2    1    2  501    0  0.18709273075E+03 -0.26338472656E+03 -0.16643559498E+04  0.19633888611E+04  0.99017164574E+03 0.  0.
   -9000010    2    1    2    0  502 -0.18709273075E+03  0.26338472656E+03  0.65594393977E+03  0.12495203423E+04  0.10132440128E+04 0.  0.
        -13    1    3    3    0    0  0.31884461000E+03  0.15917574795E+03 -0.14069043895E+04  0.14513368928E+04  0.10566000000E+00 0.  1.
          4    1    3    3  501    0 -0.13175187925E+03 -0.42256047451E+03 -0.25745156031E+03  0.51205196827E+03  0.00000000000E+00 0.  1.
         13    1    4    4    0    0  0.35281801265E+03  0.36987912050E+03  0.35441627557E+03  0.62201448648E+03  0.10566000000E+00 0. -1.
         -4    1    4    4    0  502 -0.53991074341E+03 -0.10649439395E+03  0.30152766421E+03  0.62750585580E+03  0.00000000000E+00 0. -1.
<mgrwt>
<rscale>  2 0.10579704E+04</rscale>
<asrwt>0</asrwt>
<pdfrwt beam="1">  1       21 0.16957671E+00 0.10635030E+04</pdfrwt>
<pdfrwt beam="2">  1       21 0.32471702E+00 0.10635030E+04</pdfrwt>
<totfact> 0.15093266E+00</totfact>
</mgrwt>
</event>
<event>
 8    1  0.7418332E-006  0.1263210E+04  0.7818608E-02  0.8561730E-01
         21   -1    0    0  503  502  0.00000000000E+00  0.00000000000E+00  0.22273019258E+04  0.22273019258E+04  0.00000000000E+00 0. -1.
         21   -1    0    0  501  503 -0.00000000000E+00 -0.00000000000E+00 -0.11122320821E+04  0.11122320821E+04  0.00000000000E+00 0. -1.
    9000010    2    1    2  501    0 -0.67558975406E+03  0.36396229130E+03 -0.44273680968E+03  0.13385498068E+04  0.10033990419E+04 0.  0.
   -9000010    2    1    2    0  502  0.67558975406E+03 -0.36396229130E+03  0.15578066534E+04  0.20009842011E+04  0.99412581615E+03 0.  0.
        -13    1    3    3    0    0 -0.81164868961E+03 -0.49134566844E+02 -0.18825236243E+03  0.83464169805E+03  0.10566000000E+00 0.  1.
          4    1    3    3  501    0  0.13605893555E+03  0.41309685814E+03 -0.25448444725E+03  0.50390810873E+03  0.00000000000E+00 0.  1.
         13    1    4    4    0    0 -0.19846617817E+03 -0.32506130775E+03  0.48264505347E+03  0.61481699430E+03  0.10566000000E+00 0. -1.
         -4    1    4    4    0  502  0.87405593224E+03 -0.38900983545E+02  0.10751615999E+04  0.13861672068E+04  0.00000000000E+00 0. -1.
<mgrwt>
<rscale>  2 0.12613677E+04</rscale>
<asrwt>0</asrwt>
<pdfrwt beam="1">  1       21 0.34266183E+00 0.12632101E+04</pdfrwt>
<pdfrwt beam="2">  1       21 0.17111263E+00 0.12632101E+04</pdfrwt>
<totfact> 0.10462485E+00</totfact>
</mgrwt>
</event>
<event>
 8    1  0.7418332E-006  0.1054016E+04  0.7818608E-02  0.8731086E-01
         21   -1    0    0  503  502  0.00000000000E+00  0.00000000000E+00  0.10274313783E+04  0.10274313783E+04  0.00000000000E+00 0. -1.
         21   -1    0    0  501  503 -0.00000000000E+00 -0.00000000000E+00 -0.12468002452E+04  0.12468002452E+04  0.00000000000E+00 0. -1.
    9000010    2    1    2  501    0  0.19740581372E+03 -0.22007725807E+03 -0.55624928136E+03  0.11917900928E+04  0.10117051485E+04 0.  0.
   -9000010    2    1    2    0  502 -0.19740581372E+03  0.22007725807E+03  0.33688041449E+03  0.10824415307E+04  0.98528584627E+03 0.  0.
        -13    1    3    3    0    0 -0.19481950873E+03  0.32102769564E+03 -0.28102336592E+03  0.46902832080E+03  0.10566000000E+00 0.  1.
          4    1    3    3  501    0  0.39222532245E+03 -0.54110495371E+03 -0.27522591544E+03  0.72276177198E+03  0.00000000000E+00 0.  1.
         13    1    4    4    0    0  0.18874211301E+03  0.20521295871E+03  0.56759353657E+03  0.63237518734E+03  0.10566000000E+00 0. -1.
         -4    1    4    4    0  502 -0.38614792673E+03  0.14864299362E+02 -0.23071312207E+03  0.45006634334E+03  0.00000000000E+00 0. -1.
<mgrwt>
<rscale>  2 0.10476254E+04</rscale>
<asrwt>0</asrwt>
<pdfrwt beam="1">  1       21 0.15806637E+00 0.10540163E+04</pdfrwt>
<pdfrwt beam="2">  1       21 0.19181542E+00 0.10540163E+04</pdfrwt>
<totfact> 0.17755587E+01</totfact>
</mgrwt>
</event>
<event>
 8    1  0.7418332E-006  0.1035939E+04  0.7818608E-02  0.8741977E-01
         21   -1    0    0  501  502  0.00000000000E+00  0.00000000000E+00  0.18244141038E+04  0.18244141038E+04  0.00000000000E+00 0.  1.
         21   -1    0    0  502  503 -0.00000000000E+00 -0.00000000000E+00 -0.64904354138E+03  0.64904354138E+03  0.00000000000E+00 0.  1.
    9000010    2    1    2  501    0 -0.16177998813E+03 -0.18507574222E+03  0.97018337972E+03  0.14193046658E+04  0.10063519013E+04 0.  0.
   -9000010    2    1    2    0  503  0.16177998813E+03  0.18507574222E+03  0.20518718266E+03  0.10541529793E+04  0.10043460205E+04 0.  0.
        -13    1    3    3    0    0 -0.49969709001E+03 -0.35501139968E+03  0.79117322527E+03  0.10008423248E+04  0.10566000000E+00 0.  1.
          4    1    3    3  501    0  0.33791710188E+03  0.16993565746E+03  0.17901015445E+03  0.41846234098E+03  0.00000000000E+00 0.  1.
         13    1    4    4    0    0 -0.15563374963E+03 -0.31868799884E+03 -0.12162584576E+03  0.37493567735E+03  0.10566000000E+00 0. -1.
         -4    1    4    4    0  503  0.31741373776E+03  0.50376374106E+03  0.32681302841E+03  0.67921730195E+03  0.00000000000E+00 0. -1.
<mgrwt>
<rscale>  2 0.10354517E+04</rscale>
<asrwt>0</asrwt>
<pdfrwt beam="1">  1       21 0.28067909E+00 0.10359392E+04</pdfrwt>
<pdfrwt beam="2">  1       21 0.99852853E-01 0.10359392E+04</pdfrwt>
<totfact> 0.14522791E+01</totfact>
</mgrwt>
</event>
<event>
 8    1  0.7418332E-006  0.1021350E+04  0.7818608E-02  0.8755965E-01
         21   -1    0    0  503  502  0.00000000000E+00  0.00000000000E+00  0.12699430054E+04  0.12699430054E+04  0.00000000000E+00 0.  1.
         21   -1    0    0  501  503 -0.00000000000E+00 -0.00000000000E+00 -0.82519922792E+03  0.82519922792E+03  0.00000000000E+00 0.  1.
    9000010    2    1    2  501    0 -0.14446560652E+03  0.11096844902E+03  0.12039720721E+03  0.10284218400E+04  0.10049734749E+04 0.  0.
   -9000010    2    1    2    0  502  0.14446560652E+03 -0.11096844902E+03  0.32434657028E+03  0.10667203933E+04  0.99975366554E+03 0.  0.
        -13    1    3    3    0    0 -0.55485783793E+02  0.49787508605E+03  0.30931695926E+03  0.58875739143E+03  0.10566000000E+00 0.  1.
          4    1    3    3  501    0 -0.88979822730E+02 -0.38690663703E+03 -0.18891975205E+03  0.43966444858E+03  0.00000000000E+00 0.  1.
         13    1    4    4    0    0  0.52645130303E+03 -0.23768557527E+03  0.50271159103E+02  0.57980393907E+03  0.10566000000E+00 0. -1.
         -4    1    4    4    0  502 -0.38198569651E+03  0.12671712625E+03  0.27407541118E+03  0.48691645427E+03  0.00000000000E+00 0. -1.
<mgrwt>
<rscale>  2 0.10200637E+04</rscale>
<asrwt>0</asrwt>
<pdfrwt beam="1">  1       21 0.19537585E+00 0.10213501E+04</pdfrwt>
<pdfrwt beam="2">  1       21 0.12695373E+00 0.10213501E+04</pdfrwt>
<totfact> 0.32371602E+01</totfact>
</mgrwt>
</event>
<event>
 8    1  0.7418332E-006  0.1079792E+04  0.7818608E-02  0.8704174E-01
         21   -1    0    0  503  502  0.00000000000E+00  0.00000000000E+00  0.20268699759E+04  0.20268699759E+04  0.00000000000E+00 0.  1.
         21   -1    0    0  501  503 -0.00000000000E+00 -0.00000000000E+00 -0.57286945215E+03  0.57286945215E+03  0.00000000000E+00 0.  1.
    9000010    2    1    2  501    0  0.16535960511E+03 -0.34931344445E+03  0.76524279517E+03  0.13234601595E+04  0.10082591813E+04 0.  0.
   -9000010    2    1    2    0  502 -0.16535960511E+03  0.34931344445E+03  0.68875772862E+03  0.12762792686E+04  0.10025656494E+04 0.  0.
        -13    1    3    3    0    0  0.18923232629E+02 -0.42368831789E+03  0.97135879334E+03  0.10599093339E+04  0.10566000000E+00 0.  1.
          4    1    3    3  501    0  0.14643637248E+03  0.74374873447E+02 -0.20611599816E+03  0.26355082562E+03  0.00000000000E+00 0.  1.
         13    1    4    4    0    0  0.33823309123E+03  0.10634926246E+03  0.61826222453E+03  0.71271311133E+03  0.10566000000E+00 0. -1.
         -4    1    4    4    0  502 -0.50359269634E+03  0.24296418198E+03  0.70495504096E+02  0.56356615728E+03  0.00000000000E+00 0. -1.
<mgrwt>
<rscale>  2 0.10784607E+04</rscale>
<asrwt>0</asrwt>
<pdfrwt beam="1">  1       21 0.31182615E+00 0.10797918E+04</pdfrwt>
<pdfrwt beam="2">  1       21 0.88133763E-01 0.10797918E+04</pdfrwt>
<totfact> 0.11929635E+01</totfact>
</mgrwt>
</event>
<event>
 8    1  0.7418332E-006  0.1057611E+04  0.7818608E-02  0.8722895E-01
         21   -1    0    0  503  502  0.00000000000E+00  0.00000000000E+00  0.12158374723E+04  0.12158374723E+04  0.00000000000E+00 0.  1.
         21   -1    0    0  501  503 -0.00000000000E+00 -0.00000000000E+00 -0.96147674179E+03  0.96147674179E+03  0.00000000000E+00 0.  1.
    9000010    2    1    2  501    0  0.16620025980E+03  0.29847961061E+03 -0.10550680149E+03  0.10628609389E+04  0.10009141252E+04 0.  0.
   -9000010    2    1    2    0  502 -0.16620025980E+03 -0.29847961061E+03  0.35986753200E+03  0.11144532752E+04  0.99789220740E+03 0.  0.
        -13    1    3    3    0    0 -0.21571195629E+03  0.41141377581E+03 -0.36219344892E+03  0.58904757755E+03  0.10566000000E+00 0.  1.
          4    1    3    3  501    0  0.38191221609E+03 -0.11293416520E+03  0.25668664743E+03  0.47381336139E+03  0.00000000000E+00 0.  1.
         13    1    4    4    0    0 -0.46676393433E+03 -0.49965383370E+02 -0.13114329355E+03  0.48740505181E+03  0.10566000000E+00 0. -1.
         -4    1    4    4    0  502  0.30056367453E+03 -0.24851422724E+03  0.49101082555E+03  0.62704822334E+03  0.00000000000E+00 0. -1.
<mgrwt>
<rscale>  2 0.10568957E+04</rscale>
<asrwt>0</asrwt>
<pdfrwt beam="1">  1       21 0.18705192E+00 0.10576113E+04</pdfrwt>
<pdfrwt beam="2">  1       21 0.14791950E+00 0.10576113E+04</pdfrwt>
<totfact> 0.23801378E+01</totfact>
</mgrwt>
</event>
<event>
 8    1  0.7418332E-006  0.1110779E+04  0.7818608E-02  0.8692919E-01
         21   -1    0    0  501  502  0.00000000000E+00  0.00000000000E+00  0.13538169347E+04  0.13538169347E+04  0.00000000000E+00 0.  1.
         21   -1    0    0  502  503 -0.00000000000E+00 -0.00000000000E+00 -0.17546261925E+04  0.17546261925E+04  0.00000000000E+00 0.  1.
    9000010    2    1    2  501    0 -0.25309425254E+03 -0.11891698413E+03  0.91105894662E+03  0.14366135230E+04  0.10750032840E+04 0.  0.
   -9000010    2    1    2    0  503  0.25309425254E+03  0.11891698413E+03 -0.13118682044E+04  0.16718296042E+04  0.99790685425E+03 0.  0.
        -13    1    3    3    0    0  0.24498772607E+03 -0.42390106901E+03  0.23457715976E+03  0.54289737269E+03  0.10566000000E+00 0.  1.
          4    1    3    3  501    0 -0.49808197861E+03  0.30498408488E+03  0.67648178686E+03  0.89371615035E+03  0.00000000000E+00 0.  1.
         13    1    4    4    0    0 -0.30902535245E+03  0.17023733520E+03 -0.91820671633E+03  0.98365695435E+03  0.10566000000E+00 0. -1.
         -4    1    4    4    0  503  0.56211960499E+03 -0.51320351067E+02 -0.39366148811E+03  0.68817264982E+03  0.00000000000E+00 0. -1.
<mgrwt>
<rscale>  2 0.10916844E+04</rscale>
<asrwt>0</asrwt>
<pdfrwt beam="1">  1       21 0.20827953E+00 0.11107790E+04</pdfrwt>
<pdfrwt beam="2">  1       21 0.26994249E+00 0.11107790E+04</pdfrwt>
<totfact> 0.17840689E+00</totfact>
</mgrwt>
</event>
<event>
 8    1  0.7418332E-006  0.1017533E+04  0.7818608E-02  0.8758452E-01
         21   -1    0    0  501  502  0.00000000000E+00  0.00000000000E+00  0.49341725623E+03  0.49341725623E+03  0.00000000000E+00 0.  1.
         21   -1    0    0  502  503 -0.00000000000E+00 -0.00000000000E+00 -0.22596560012E+04  0.22596560012E+04  0.00000000000E+00 0.  1.
    9000010    2    1    2  501    0 -0.20521702590E+03  0.10181426115E+03 -0.51343195103E+03  0.11391033624E+04  0.99068861423E+03 0.  0.
   -9000010    2    1    2    0  503  0.20521702590E+03 -0.10181426115E+03 -0.12528067939E+04  0.16139698950E+04  0.99140999978E+03 0.  0.
        -13    1    3    3    0    0 -0.43482914131E+03  0.31608487585E+03 -0.39831499236E+00  0.53757436759E+03  0.10566000000E+00 0.  1.
          4    1    3    3  501    0  0.22961211542E+03 -0.21427061470E+03 -0.51303363603E+03  0.60152899479E+03  0.00000000000E+00 0.  1.
         13    1    4    4    0    0 -0.23602215566E+03 -0.40936162947E+03 -0.68184038059E+03  0.82957200858E+03  0.10566000000E+00 0. -1.
         -4    1    4    4    0  503  0.44123918156E+03  0.30754736832E+03 -0.57096641333E+03  0.78439788644E+03  0.00000000000E+00 0. -1.
<mgrwt>
<rscale>  2 0.10173575E+04</rscale>
<asrwt>0</asrwt>
<pdfrwt beam="1">  1       21 0.75910347E-01 0.10175333E+04</pdfrwt>
<pdfrwt beam="2">  1       21 0.34763938E+00 0.10175333E+04</pdfrwt>
<totfact> 0.98074840E+00</totfact>
</mgrwt>
</event>
<event>
 8    1  0.7418332E-006  0.1011464E+04  0.7818608E-02  0.8766057E-01
         21   -1    0    0  501  502  0.00000000000E+00  0.00000000000E+00  0.49114155697E+03  0.49114155697E+03  0.00000000000E+00 0.  1.
         21   -1    0    0  502  503 -0.00000000000E+00 -0.00000000000E+00 -0.30678800531E+04  0.30678800531E+04  0.00000000000E+00 0.  1.
    9000010    2    1    2  501    0 -0.58785939277E+02  0.11239994936E+03 -0.26640791569E+03  0.10369815282E+04  0.99411668179E+03 0.  0.
   -9000010    2    1    2    0  503  0.58785939277E+02 -0.11239994936E+03 -0.23103305805E+04  0.25220400819E+04  0.10034785739E+04 0.  0.
        -13    1    3    3    0    0  0.15016848746E+03  0.48860435050E+03  0.33798274948E+02  0.51227641026E+03  0.10566000000E+00 0.  1.
          4    1    3    3  501    0 -0.20895442674E+03 -0.37620440115E+03 -0.30020619063E+03  0.52470511794E+03  0.00000000000E+00 0.  1.
         13    1    4    4    0    0  0.19386040481E+03  0.12787805535E+03 -0.40755002077E+02  0.23578726630E+03  0.10566000000E+00 0. -1.
         -4    1    4    4    0  503 -0.13507446553E+03 -0.24027800470E+03 -0.22695755784E+04  0.22862528156E+04  0.00000000000E+00 0. -1.
<mgrwt>
<rscale>  2 0.10091338E+04</rscale>
<asrwt>0</asrwt>
<pdfrwt beam="1">  1       21 0.75560240E-01 0.10114637E+04</pdfrwt>
<pdfrwt beam="2">  1       21 0.47198155E+00 0.10114637E+04</pdfrwt>
<totfact> 0.13531554E+00</totfact>
</mgrwt>
</event>
<event>
 8    1  0.7418332E-006  0.1047723E+04  0.7818608E-02  0.8733379E-01
         21   -1    0    0  501  502  0.00000000000E+00  0.00000000000E+00  0.11674262828E+04  0.11674262828E+04  0.00000000000E+00 0.  1.
         21   -1    0    0  502  503 -0.00000000000E+00 -0.00000000000E+00 -0.97075389114E+03  0.97075389114E+03  0.00000000000E+00 0.  1.
    9000010    2    1    2  501    0  0.11985659902E+03 -0.27211353058E+03 -0.11819785132E+03  0.10543688871E+04  0.10046450319E+04 0.  0.
   -9000010    2    1    2    0  503 -0.11985659902E+03  0.27211353058E+03  0.31487024294E+03  0.10838112868E+04  0.99352516709E+03 0.  0.
        -13    1    3    3    0    0 -0.34639363463E+03  0.15728312005E+03 -0.17346362513E+03  0.41811023710E+03  0.10566000000E+00 0.  1.
          4    1    3    3  501    0  0.46625023365E+03 -0.42939665064E+03  0.55265773813E+02  0.63625865001E+03  0.00000000000E+00 0.  1.
         13    1    4    4    0    0 -0.36292471748E+03 -0.19923967885E+03 -0.81192047335E+02  0.42190397000E+03  0.10566000000E+00 0. -1.
         -4    1    4    4    0  503  0.24306811846E+03  0.47135320943E+03  0.39606229028E+03  0.66190731680E+03  0.00000000000E+00 0. -1.
<mgrwt>
<rscale>  2 0.10450481E+04</rscale>
<asrwt>0</asrwt>
<pdfrwt beam="1">  1       21 0.17960404E+00 0.10477228E+04</pdfrwt>
<pdfrwt beam="2">  1       21 0.14934675E+00 0.10477228E+04</pdfrwt>
<totfact> 0.26612284E+01</totfact>
</mgrwt>
</event>
<event>
 8    1  0.7418332E-006  0.1092727E+04  0.7818608E-02  0.8694041E-01
         21   -1    0    0  503  502  0.00000000000E+00  0.00000000000E+00  0.13182974444E+04  0.13182974444E+04  0.00000000000E+00 0.  1.
         21   -1    0    0  501  503 -0.00000000000E+00 -0.00000000000E+00 -0.90366994573E+03  0.90366994573E+03  0.00000000000E+00 0.  1.
    9000010    2    1    2  501    0  0.28108110741E+03  0.29993962850E+03  0.11973822319E+03  0.10992678329E+04  0.10124634100E+04 0.  0.
   -9000010    2    1    2    0  502 -0.28108110741E+03 -0.29993962850E+03  0.29488927547E+03  0.11226995573E+04  0.10022595679E+04 0.  0.
        -13    1    3    3    0    0  0.42442902874E+03  0.53240122040E+01  0.46068183302E+03  0.62641528396E+03  0.10566000000E+00 0.  1.
          4    1    3    3  501    0 -0.14334792133E+03  0.29461561629E+03 -0.34094360983E+03  0.47285254889E+03  0.00000000000E+00 0.  1.
         13    1    4    4    0    0  0.21370177090E+03 -0.49781981496E+03  0.21941371505E+03  0.58449585504E+03  0.10566000000E+00 0. -1.
         -4    1    4    4    0  502 -0.49478287831E+03  0.19788018646E+03  0.75475560420E+02  0.53820370222E+03  0.00000000000E+00 0. -1.
<mgrwt>
<rscale>  2 0.10903575E+04</rscale>
<asrwt>0</asrwt>
<pdfrwt beam="1">  1       21 0.20281499E+00 0.10927271E+04</pdfrwt>
<pdfrwt beam="2">  1       21 0.13902615E+00 0.10927271E+04</pdfrwt>
<totfact> 0.21383708E+01</totfact>
</mgrwt>
</event>
<event>
 8    1  0.7418332E-006  0.1013915E+04  0.7818608E-02  0.8762633E-01
         21   -1    0    0  503  502  0.00000000000E+00  0.00000000000E+00  0.12340817119E+04  0.12340817119E+04  0.00000000000E+00 0.  1.
         21   -1    0    0  501  503 -0.00000000000E+00 -0.00000000000E+00 -0.83055590182E+03  0.83055590182E+03  0.00000000000E+00 0.  1.
    9000010    2    1    2  501    0  0.31255506969E+02  0.91125069714E+02  0.16466847303E+03  0.10271996397E+04  0.10093278499E+04 0.  0.
   -9000010    2    1    2    0  502 -0.31255506969E+02 -0.91125069714E+02  0.23885733709E+03  0.10374379741E+04  0.10049597194E+04 0.  0.
        -13    1    3    3    0    0 -0.42231721836E+03 -0.90863511943E+02 -0.13662131818E+03  0.45307108324E+03  0.10566000000E+00 0.  1.
          4    1    3    3  501    0  0.45357272533E+03  0.18198858166E+03  0.30128979121E+03  0.57412855643E+03  0.00000000000E+00 0.  1.
         13    1    4    4    0    0  0.11304073840E+03 -0.18446305454E+03 -0.35692077506E+03  0.41736947404E+03  0.10566000000E+00 0. -1.
         -4    1    4    4    0  502 -0.14429624537E+03  0.93337984822E+02  0.59577811214E+03  0.62006850004E+03  0.00000000000E+00 0. -1.
<mgrwt>
<rscale>  2 0.10128261E+04</rscale>
<asrwt>0</asrwt>
<pdfrwt beam="1">  1       21 0.18985873E+00 0.10139149E+04</pdfrwt>
<pdfrwt beam="2">  1       21 0.12777783E+00 0.10139149E+04</pdfrwt>
<totfact> 0.35199318E+01</totfact>
</mgrwt>
</event>
<event>
 8    1  0.7418332E-006  0.1064568E+04  0.7818608E-02  0.8716218E-01
         21   -1    0    0  501  502  0.00000000000E+00  0.00000000000E+00  0.12073018533E+04  0.12073018533E+04  0.00000000000E+00 0.  1.
         21   -1    0    0  502  503 -0.00000000000E+00 -0.00000000000E+00 -0.17895969403E+04  0.17895969403E+04  0.00000000000E+00 0.  1.
    9000010    2    1    2  501    0 -0.18745024409E+03 -0.30265466425E+03  0.74219462638E+03  0.12976111808E+04  0.10030974396E+04 0.  0.
   -9000010    2    1    2    0  503  0.18745024409E+03  0.30265466425E+03 -0.13244897133E+04  0.16992876128E+04  0.10032786006E+04 0.  0.
        -13    1    3    3    0    0  0.63684723844E+02  0.95150413124E+02  0.81374203805E+03  0.82175754382E+03  0.10566000000E+00 0.  1.
          4    1    3    3  501    0 -0.25113496793E+03 -0.39780507738E+03 -0.71547411673E+02  0.47585363697E+03  0.00000000000E+00 0.  1.
         13    1    4    4    0    0 -0.18419204887E+03  0.56808789808E+03 -0.86770711216E+03  0.10533594897E+04  0.10566000000E+00 0. -1.
         -4    1    4    4    0  503  0.37164229296E+03 -0.26543323382E+03 -0.45678260117E+03  0.64592812314E+03  0.00000000000E+00 0. -1.
<mgrwt>
<rscale>  2 0.10645255E+04</rscale>
<asrwt>0</asrwt>
<pdfrwt beam="1">  1       21 0.18573875E+00 0.10645682E+04</pdfrwt>
<pdfrwt beam="2">  1       21 0.27532260E+00 0.10645682E+04</pdfrwt>
<totfact> 0.24840090E+00</totfact>
</mgrwt>
</event>
<event>
 8    1  0.7418332E-006  0.1012463E+04  0.7818608E-02  0.8769972E-01
         21   -1    0    0  501  502  0.00000000000E+00  0.00000000000E+00  0.24009030548E+04  0.24009030548E+04  0.00000000000E+00 0.  1.
         21   -1    0    0  502  503 -0.00000000000E+00 -0.00000000000E+00 -0.42068164852E+03  0.42068164852E+03  0.00000000000E+00 0.  1.
    9000010    2    1    2  501    0 -0.65618773560E+02 -0.15517509160E+03  0.11467447533E+04  0.15101870185E+04  0.96811991464E+03 0.  0.
   -9000010    2    1    2    0  503  0.65618773560E+02  0.15517509160E+03  0.83347665305E+03  0.13113976849E+04  0.99834634482E+03 0.  0.
        -13    1    3    3    0    0 -0.16244737151E+03 -0.53234150306E+03  0.46582957358E+03  0.72579186217E+03  0.10566000000E+00 0.  1.
          4    1    3    3  501    0  0.96828597952E+02  0.37716641147E+03  0.68091517967E+03  0.78439515630E+03  0.00000000000E+00 0.  1.
         13    1    4    4    0    0  0.41397348310E+03 -0.84669883555E+02  0.55878535689E+02  0.42622230796E+03  0.10566000000E+00 0. -1.
         -4    1    4    4    0  503 -0.34835470954E+03  0.23984497515E+03  0.77759811736E+03  0.88517537691E+03  0.00000000000E+00 0. -1.
<mgrwt>
<rscale>  2 0.10049310E+04</rscale>
<asrwt>0</asrwt>
<pdfrwt beam="1">  1       21 0.36936969E+00 0.10124626E+04</pdfrwt>
<pdfrwt beam="2">  1       21 0.64720255E-01 0.10124626E+04</pdfrwt>
<totfact> 0.10089876E+01</totfact>
</mgrwt>
</event>
<event>
 8    1  0.7418332E-006  0.1005741E+04  0.7818608E-02  0.8770683E-01
         21   -1    0    0  501  502  0.00000000000E+00  0.00000000000E+00  0.90411084412E+03  0.90411084412E+03  0.00000000000E+00 0.  1.
         21   -1    0    0  502  503 -0.00000000000E+00 -0.00000000000E+00 -0.11877045198E+04  0.11877045198E+04  0.00000000000E+00 0.  1.
    9000010    2    1    2  501    0 -0.22129997035E+01  0.74328121118E+02 -0.40655654886E+03  0.10848057767E+04  0.10029884240E+04 0.  0.
   -9000010    2    1    2    0  503  0.22129997035E+01 -0.74328121118E+02  0.12296287315E+03  0.10070095873E+04  0.99670400508E+03 0.  0.
        -13    1    3    3    0    0  0.27406643008E+03  0.64070504967E+02  0.24744889551E+03  0.37476446571E+03  0.10566000000E+00 0.  1.
          4    1    3    3  501    0 -0.27627942978E+03  0.10257616151E+02 -0.65400544437E+03  0.71004131097E+03  0.00000000000E+00 0.  1.
         13    1    4    4    0    0  0.26415465665E+03  0.14606404596E+03  0.44453777138E+03  0.53733251298E+03  0.10566000000E+00 0. -1.
         -4    1    4    4    0  503 -0.26194165695E+03 -0.22039216708E+03 -0.32157489823E+03  0.46967707430E+03  0.00000000000E+00 0. -1.
<mgrwt>
<rscale>  2 0.10041707E+04</rscale>
<asrwt>0</asrwt>
<pdfrwt beam="1">  1       21 0.13909398E+00 0.10057412E+04</pdfrwt>
<pdfrwt beam="2">  1       21 0.18272377E+00 0.10057412E+04</pdfrwt>
<totfact> 0.31416818E+01</totfact>
</mgrwt>
</event>
<event>
 8    1  0.7418332E-006  0.9403268E+03  0.7818608E-02  0.8833661E-01
         21   -1    0    0  501  502  0.00000000000E+00  0.00000000000E+00  0.24987863067E+04  0.24987863067E+04  0.00000000000E+00 0.  1.
         21   -1    0    0  502  503 -0.00000000000E+00 -0.00000000000E+00 -0.78828256226E+03  0.78828256226E+03  0.00000000000E+00 0.  1.
    9000010    2    1    2  501    0 -0.83661475283E+02 -0.33610187051E+02  0.20779097693E+04  0.22807725790E+04  0.93599447666E+03 0.  0.
   -9000010    2    1    2    0  503  0.83661475283E+02  0.33610187051E+02 -0.36740602489E+03  0.10062962900E+04  0.93247849788E+03 0.  0.
        -13    1    3    3    0    0 -0.38626042098E+03  0.66126397508E+02  0.18448680718E+04  0.18860296993E+04  0.10566000000E+00 0.  1.
          4    1    3    3  501    0  0.30259894570E+03 -0.99736584559E+02  0.23304169756E+03  0.39474287966E+03  0.00000000000E+00 0.  1.
         13    1    4    4    0    0 -0.10482019177E+03 -0.32987749683E+03 -0.47046603410E+03  0.58407596760E+03  0.10566000000E+00 0. -1.
         -4    1    4    4    0  503  0.18848166705E+03  0.36348768388E+03  0.10306000921E+03  0.42222032240E+03  0.00000000000E+00 0. -1.
<mgrwt>
<rscale>  2 0.93945068E+03</rscale>
<asrwt>0</asrwt>
<pdfrwt beam="1">  1       21 0.38442866E+00 0.94032683E+03</pdfrwt>
<pdfrwt beam="2">  1       21 0.12127424E+00 0.94032683E+03</pdfrwt>
<totfact> 0.16371925E+00</totfact>
</mgrwt>
</event>
<event>
 8    1  0.7418332E-006  0.1016991E+04  0.7818608E-02  0.8760832E-01
         21   -1    0    0  503  502  0.00000000000E+00  0.00000000000E+00  0.12795006503E+04  0.12795006503E+04  0.00000000000E+00 0. -1.
         21   -1    0    0  501  503 -0.00000000000E+00 -0.00000000000E+00 -0.80963251444E+03  0.80963251444E+03  0.00000000000E+00 0. -1.
    9000010    2    1    2  501    0  0.61675548318E+02  0.12955381002E+03  0.34172290808E+03  0.10728679124E+04  0.10068182301E+04 0.  0.
   -9000010    2    1    2    0  502 -0.61675548318E+02 -0.12955381002E+03  0.12814522776E+03  0.10162652524E+04  0.99789067577E+03 0.  0.
        -13    1    3    3    0    0  0.26565622466E+03  0.51556360478E+03  0.17971316641E+03  0.60718686878E+03  0.10566000000E+00 0.  1.
          4    1    3    3  501    0 -0.20398067634E+03 -0.38600979476E+03  0.16200974167E+03  0.46568104360E+03  0.00000000000E+00 0.  1.
         13    1    4    4    0    0  0.15944654722E+03  0.11668559841E+03  0.48853068793E+03  0.52697340968E+03  0.10566000000E+00 0. -1.
         -4    1    4    4    0  502 -0.22112209554E+03 -0.24623940843E+03 -0.36038546017E+03  0.48929184267E+03  0.00000000000E+00 0. -1.
<mgrwt>
<rscale>  2 0.10147746E+04</rscale>
<asrwt>0</asrwt>
<pdfrwt beam="1">  1       21 0.19684625E+00 0.10169912E+04</pdfrwt>
<pdfrwt beam="2">  1       21 0.12455885E+00 0.10169912E+04</pdfrwt>
<totfact> 0.33312119E+01</totfact>
</mgrwt>
</event>
<event>
 8    1  0.7418332E-006  0.1036960E+04  0.7818608E-02  0.8743598E-01
         21   -1    0    0  501  502  0.00000000000E+00  0.00000000000E+00  0.10588170342E+04  0.10588170342E+04  0.00000000000E+00 0. -1.
         21   -1    0    0  502  503 -0.00000000000E+00 -0.00000000000E+00 -0.10441244870E+04  0.10441244870E+04  0.00000000000E+00 0. -1.
    9000010    2    1    2  501    0  0.35090644452E+02 -0.26075909308E+03  0.21671338317E+03  0.10464862341E+04  0.98941502405E+03 0.  0.
   -9000010    2    1    2    0  503 -0.35090644452E+02  0.26075909308E+03 -0.20202083604E+03  0.10564552871E+04  0.10030247741E+04 0.  0.
        -13    1    3    3    0    0  0.38752099368E+03 -0.18847053625E+03  0.44575846868E+03  0.61999539284E+03  0.10566000000E+00 0.  1.
          4    1    3    3  501    0 -0.35243034922E+03 -0.72288556835E+02 -0.22904508552E+03  0.42649084129E+03  0.00000000000E+00 0.  1.
         13    1    4    4    0    0 -0.26774975747E+03 -0.31634785391E+03 -0.68898025568E+02  0.42013431946E+03  0.10566000000E+00 0. -1.
         -4    1    4    4    0  503  0.23265911301E+03  0.57710694699E+03 -0.13312281047E+03  0.63632096759E+03  0.00000000000E+00 0. -1.
<mgrwt>
<rscale>  2 0.10336543E+04</rscale>
<asrwt>0</asrwt>
<pdfrwt beam="1">  1       21 0.16289493E+00 0.10369597E+04</pdfrwt>
<pdfrwt beam="2">  1       21 0.16063454E+00 0.10369597E+04</pdfrwt>
<totfact> 0.29291077E+01</totfact>
</mgrwt>
</event>
<event>
 8    1  0.7418332E-006  0.1005568E+04  0.7818608E-02  0.8771015E-01
         21   -1    0    0  501  502  0.00000000000E+00  0.00000000000E+00  0.19305376154E+04  0.19305376154E+04  0.00000000000E+00 0.  1.
         21   -1    0    0  502  503 -0.00000000000E+00 -0.00000000000E+00 -0.53897740172E+03  0.53897740172E+03  0.00000000000E+00 0.  1.
    9000010    2    1    2  501    0 -0.79628645063E+02  0.59284403311E+02  0.46728274557E+03  0.11088369018E+04  0.10006551599E+04 0.  0.
   -9000010    2    1    2    0  503  0.79628645063E+02 -0.59284403311E+02  0.92427746809E+03  0.13606781153E+04  0.99363007891E+03 0.  0.
        -13    1    3    3    0    0  0.75894648168E+02 -0.60486378412E+02 -0.30079941389E+03  0.31606786954E+03  0.10566000000E+00 0.  1.
          4    1    3    3  501    0 -0.15552329323E+03  0.11977078172E+03  0.76808215947E+03  0.79276903231E+03  0.00000000000E+00 0.  1.
         13    1    4    4    0    0  0.18055412199E+03 -0.40340259064E+03  0.87845184048E+02  0.45061095040E+03  0.10566000000E+00 0. -1.
         -4    1    4    4    0  503 -0.10092547693E+03  0.34411818732E+03  0.83643228404E+03  0.91006716485E+03  0.00000000000E+00 0. -1.
<mgrwt>
<rscale>  2 0.10038154E+04</rscale>
<asrwt>0</asrwt>
<pdfrwt beam="1">  1       21 0.29700578E+00 0.10055676E+04</pdfrwt>
<pdfrwt beam="2">  1       21 0.82919601E-01 0.10055676E+04</pdfrwt>
<totfact> 0.18004248E+01</totfact>
</mgrwt>
</event>
<event>
 8    1  0.7418332E-006  0.1021927E+04  0.7818608E-02  0.8754691E-01
         21   -1    0    0  501  502  0.00000000000E+00  0.00000000000E+00  0.13599522472E+04  0.13599522472E+04  0.00000000000E+00 0.  1.
         21   -1    0    0  502  503 -0.00000000000E+00 -0.00000000000E+00 -0.77206258459E+03  0.77206258459E+03  0.00000000000E+00 0.  1.
    9000010    2    1    2  501    0  0.10710151906E+03  0.18410623411E+03  0.38415665162E+03  0.10899769756E+04  0.99755081747E+03 0.  0.
   -9000010    2    1    2    0  503 -0.10710151906E+03 -0.18410623411E+03  0.20373301096E+03  0.10420378562E+04  0.99948482389E+03 0.  0.
        -13    1    3    3    0    0 -0.37492168019E+03  0.34388955386E+03  0.14733690476E+03  0.52965504453E+03  0.10566000000E+00 0.  1.
          4    1    3    3  501    0  0.48202319925E+03 -0.15978331975E+03  0.23681974686E+03  0.56032193103E+03  0.00000000000E+00 0.  1.
         13    1    4    4    0    0 -0.35160071517E+03  0.25856761936E+03  0.29685410127E+03  0.52782823465E+03  0.10566000000E+00 0. -1.
         -4    1    4    4    0  503  0.24449919611E+03 -0.44267385346E+03 -0.93121090315E+02  0.51420962155E+03  0.00000000000E+00 0. -1.
<mgrwt>
<rscale>  2 0.10214543E+04</rscale>
<asrwt>0</asrwt>
<pdfrwt beam="1">  1       21 0.20922342E+00 0.10219275E+04</pdfrwt>
<pdfrwt beam="2">  1       21 0.11877886E+00 0.10219275E+04</pdfrwt>
<totfact> 0.30487871E+01</totfact>
</mgrwt>
</event>
<event>
 8    1  0.7418332E-006  0.1009756E+04  0.7818608E-02  0.8766554E-01
         21   -1    0    0  501  502  0.00000000000E+00  0.00000000000E+00  0.17202860709E+04  0.17202860709E+04  0.00000000000E+00 0. -1.
         21   -1    0    0  502  503 -0.00000000000E+00 -0.00000000000E+00 -0.62981985315E+03  0.62981985315E+03  0.00000000000E+00 0. -1.
    9000010    2    1    2  501    0 -0.56065978947E+02 -0.18293148378E+03  0.83956691986E+03  0.13096456555E+04  0.98675823192E+03 0.  0.
   -9000010    2    1    2    0  503  0.56065978947E+02  0.18293148378E+03  0.25089929788E+03  0.10404602685E+04  0.99146345923E+03 0.  0.
        -13    1    3    3    0    0 -0.44801220598E+03 -0.33271130339E+03  0.32533969819E+03  0.64595485794E+03  0.10566000000E+00 0.  1.
          4    1    3    3  501    0  0.39194622703E+03  0.14977981962E+03  0.51422722167E+03  0.66369079755E+03  0.00000000000E+00 0.  1.
         13    1    4    4    0    0  0.30145482077E+03 -0.28289614932E+03 -0.76547576228E+02  0.42043404103E+03  0.10566000000E+00 0. -1.
         -4    1    4    4    0  503 -0.24538884183E+03  0.46582763309E+03  0.32744687411E+03  0.62002622752E+03  0.00000000000E+00 0. -1.
<mgrwt>
<rscale>  2 0.10085991E+04</rscale>
<asrwt>0</asrwt>
<pdfrwt beam="1">  1       21 0.26465939E+00 0.10097560E+04</pdfrwt>
<pdfrwt beam="2">  1       21 0.96895363E-01 0.10097560E+04</pdfrwt>
<totfact> 0.20565018E+01</totfact>
</mgrwt>
</event>
<event>
 8    1  0.7418332E-006  0.1026251E+04  0.7818608E-02  0.8750342E-01
         21   -1    0    0  503  502  0.00000000000E+00  0.00000000000E+00  0.98414825039E+03  0.98414825039E+03  0.00000000000E+00 0. -1.
         21   -1    0    0  501  503 -0.00000000000E+00 -0.00000000000E+00 -0.11829238351E+04  0.11829238351E+04  0.00000000000E+00 0. -1.
    9000010    2    1    2  501    0 -0.87895863891E+02 -0.15092185009E+03 -0.43416232361E+03  0.11143108250E+04  0.10112806751E+04 0.  0.
   -9000010    2    1    2    0  502  0.87895863891E+02  0.15092185009E+03  0.23538673891E+03  0.10527612605E+04  0.10111361268E+04 0.  0.
        -13    1    3    3    0    0  0.31256685149E+03  0.29555993631E+02 -0.57322286948E+03  0.65357177316E+03  0.10566000000E+00 0.  1.
          4    1    3    3  501    0 -0.40046271538E+03 -0.18047784373E+03  0.13906054587E+03  0.46073905185E+03  0.00000000000E+00 0.  1.
         13    1    4    4    0    0 -0.22516536311E+03 -0.25359159586E+03  0.39150429253E+03  0.51796115729E+03  0.10566000000E+00 0. -1.
         -4    1    4    4    0  502  0.31306122700E+03  0.40451344595E+03 -0.15611755362E+03  0.53480010317E+03  0.00000000000E+00 0. -1.
<mgrwt>
<rscale>  2 0.10262157E+04</rscale>
<asrwt>0</asrwt>
<pdfrwt beam="1">  1       21 0.15140742E+00 0.10262513E+04</pdfrwt>
<pdfrwt beam="2">  1       21 0.18198828E+00 0.10262513E+04</pdfrwt>
<totfact> 0.24514099E+01</totfact>
</mgrwt>
</event>
<event>
 8    1  0.7418332E-006  0.1025880E+04  0.7818608E-02  0.8752702E-01
         21   -1    0    0  501  502  0.00000000000E+00  0.00000000000E+00  0.89735532177E+03  0.89735532177E+03  0.00000000000E+00 0.  1.
         21   -1    0    0  502  503 -0.00000000000E+00 -0.00000000000E+00 -0.14123295596E+04  0.14123295596E+04  0.00000000000E+00 0.  1.
    9000010    2    1    2  501    0  0.93563180674E+02  0.20326485188E+03  0.22721357227E+03  0.10507404753E+04  0.10011787404E+04 0.  0.
   -9000010    2    1    2    0  503 -0.93563180674E+02 -0.20326485188E+03 -0.74218781013E+03  0.12589444061E+04  0.99198165479E+03 0.  0.
        -13    1    3    3    0    0 -0.43944407586E+03  0.22095961929E+03  0.89483003187E+02  0.49994146476E+03  0.10566000000E+00 0.  1.
          4    1    3    3  501    0  0.53300725654E+03 -0.17694767403E+02  0.13773056909E+03  0.55079901051E+03  0.00000000000E+00 0.  1.
         13    1    4    4    0    0 -0.25380485819E+03 -0.11133730637E+03 -0.94488450457E+03  0.98469266270E+03  0.10566000000E+00 0. -1.
         -4    1    4    4    0  503  0.16024167752E+03 -0.91927545518E+02  0.20269669444E+03  0.27425174343E+03  0.00000000000E+00 0. -1.
<mgrwt>
<rscale>  2 0.10236291E+04</rscale>
<asrwt>0</asrwt>
<pdfrwt beam="1">  1       21 0.13805467E+00 0.10258799E+04</pdfrwt>
<pdfrwt beam="2">  1       21 0.21728147E+00 0.10258799E+04</pdfrwt>
<totfact> 0.17172371E+01</totfact>
</mgrwt>
</event>
<event>
 8    1  0.7418332E-006  0.1022687E+04  0.7818608E-02  0.8757112E-01
         21   -1    0    0  503  502  0.00000000000E+00  0.00000000000E+00  0.63158706319E+03  0.63158706319E+03  0.00000000000E+00 0.  1.
         21   -1    0    0  501  503 -0.00000000000E+00 -0.00000000000E+00 -0.16702488470E+04  0.16702488470E+04  0.00000000000E+00 0.  1.
    9000010    2    1    2  501    0  0.16587315114E+03 -0.15485969490E+03 -0.69163425728E+03  0.12218742233E+04  0.98138842680E+03 0.  0.
   -9000010    2    1    2    0  502 -0.16587315114E+03  0.15485969490E+03 -0.34702752652E+03  0.10799616869E+04  0.99719291697E+03 0.  0.
        -13    1    3    3    0    0  0.24374589576E+03 -0.53877141346E+03 -0.28220206277E+03  0.65522874865E+03  0.10566000000E+00 0.  1.
          4    1    3    3  501    0 -0.77872744612E+02  0.38391171856E+03 -0.40943219450E+03  0.56664547461E+03  0.00000000000E+00 0.  1.
         13    1    4    4    0    0  0.23638575479E+03  0.44465231768E+03 -0.28948974014E+03  0.58085990523E+03  0.10566000000E+00 0. -1.
         -4    1    4    4    0  502 -0.40225890593E+03 -0.28979262278E+03 -0.57537786376E+02  0.49910178169E+03  0.00000000000E+00 0. -1.
<mgrwt>
<rscale>  2 0.10188142E+04</rscale>
<asrwt>0</asrwt>
<pdfrwt beam="1">  1       21 0.97167242E-01 0.10226872E+04</pdfrwt>
<pdfrwt beam="2">  1       21 0.25696136E+00 0.10226872E+04</pdfrwt>
<totfact> 0.23130492E+01</totfact>
</mgrwt>
</event>
<event>
 8    1  0.7418332E-006  0.1061029E+04  0.7818608E-02  0.8720500E-01
         21   -1    0    0  503  502  0.00000000000E+00  0.00000000000E+00  0.51602238037E+03  0.51602238037E+03  0.00000000000E+00 0.  1.
         21   -1    0    0  501  503 -0.00000000000E+00 -0.00000000000E+00 -0.21751971750E+04  0.21751971750E+04  0.00000000000E+00 0.  1.
    9000010    2    1    2  501    0 -0.24789287880E+03  0.19661068584E+03 -0.76250968947E+03  0.13020505576E+04  0.10068803240E+04 0.  0.
   -9000010    2    1    2    0  502  0.24789287880E+03 -0.19661068584E+03 -0.89666510516E+03  0.13891689978E+04  0.10127564132E+04 0.  0.
        -13    1    3    3    0    0 -0.53179581114E+03  0.43163210112E+03 -0.53300339924E+03  0.86787423642E+03  0.10566000000E+00 0.  1.
          4    1    3    3  501    0  0.28390293234E+03 -0.23502141528E+03 -0.22950629023E+03  0.43417632120E+03  0.00000000000E+00 0.  1.
         13    1    4    4    0    0 -0.25182929482E+03  0.16817744513E+02  0.85690065095E+02  0.26654010707E+03  0.10566000000E+00 0. -1.
         -4    1    4    4    0  502  0.49972217361E+03 -0.21342843035E+03 -0.98235517026E+03  0.11226288907E+04  0.00000000000E+00 0. -1.
<mgrwt>
<rscale>  2 0.10596242E+04</rscale>
<asrwt>0</asrwt>
<pdfrwt beam="1">  1       21 0.79388059E-01 0.10610288E+04</pdfrwt>
<pdfrwt beam="2">  1       21 0.33464572E+00 0.10610288E+04</pdfrwt>
<totfact> 0.10750021E+01</totfact>
</mgrwt>
</event>
<event>
 8    1  0.7418332E-006  0.1016181E+04  0.7818608E-02  0.8761575E-01
         21   -1    0    0  501  502  0.00000000000E+00  0.00000000000E+00  0.21596201457E+04  0.21596201457E+04  0.00000000000E+00 0. -1.
         21   -1    0    0  502  503 -0.00000000000E+00 -0.00000000000E+00 -0.49219082738E+03  0.49219082738E+03  0.00000000000E+00 0. -1.
    9000010    2    1    2  501    0 -0.78185068999E+02  0.12701443920E+03  0.57540968869E+03  0.11601237136E+04  0.99626560127E+03 0.  0.
   -9000010    2    1    2    0  503  0.78185068999E+02 -0.12701443920E+03  0.10920196296E+04  0.14916872595E+04  0.10051758233E+04 0.  0.
        -13    1    3    3    0    0 -0.31661452693E+03  0.32043357628E+03  0.69700620178E+03  0.82990366426E+03  0.10566000000E+00 0.  1.
          4    1    3    3  501    0  0.23842945793E+03 -0.19341913708E+03 -0.12159651309E+03  0.33022004935E+03  0.00000000000E+00 0.  1.
         13    1    4    4    0    0  0.16845403328E+03  0.42463115372E+03  0.47099629558E+03  0.65614472463E+03  0.10566000000E+00 0. -1.
         -4    1    4    4    0  503 -0.90268964277E+02 -0.55164559292E+03  0.62102333404E+03  0.83554253484E+03  0.00000000000E+00 0. -1.
<mgrwt>
<rscale>  2 0.10139707E+04</rscale>
<asrwt>0</asrwt>
<pdfrwt beam="1">  1       21 0.33224925E+00 0.10161811E+04</pdfrwt>
<pdfrwt beam="2">  1       21 0.75721667E-01 0.10161811E+04</pdfrwt>
<totfact> 0.12654410E+01</totfact>
</mgrwt>
</event>
<event>
 8    1  0.7418332E-006  0.1045006E+04  0.7818608E-02  0.8739735E-01
         21   -1    0    0  501  502  0.00000000000E+00  0.00000000000E+00  0.80868483614E+03  0.80868483614E+03  0.00000000000E+00 0.  1.
         21   -1    0    0  502  503 -0.00000000000E+00 -0.00000000000E+00 -0.14546290755E+04  0.14546290755E+04  0.00000000000E+00 0.  1.
    9000010    2    1    2  501    0  0.63824659851E+02 -0.21707363444E+03 -0.67814657763E+03  0.12457605566E+04  0.10202166602E+04 0.  0.
   -9000010    2    1    2    0  503 -0.63824659851E+02  0.21707363444E+03  0.32202338239E+02  0.10175533550E+04  0.99155599426E+03 0.  0.
        -13    1    3    3    0    0 -0.26176460572E+02 -0.39929231227E+03  0.12348344037E+03  0.41876930277E+03  0.10566000000E+00 0.  1.
          4    1    3    3  501    0  0.90001120423E+02  0.18221867783E+03 -0.80163001801E+03  0.82699125388E+03  0.00000000000E+00 0.  1.
         13    1    4    4    0    0 -0.32238374660E+02  0.79520822898E+02 -0.47930886571E+03  0.48692902356E+03  0.10566000000E+00 0. -1.
         -4    1    4    4    0  503 -0.31586285190E+02  0.13755281155E+03  0.51151120395E+03  0.53062433146E+03  0.00000000000E+00 0. -1.
<mgrwt>
<rscale>  2 0.10379438E+04</rscale>
<asrwt>0</asrwt>
<pdfrwt beam="1">  1       21 0.12441305E+00 0.10450055E+04</pdfrwt>
<pdfrwt beam="2">  1       21 0.22378909E+00 0.10450055E+04</pdfrwt>
<totfact> 0.20649316E+01</totfact>
</mgrwt>
</event>
<event>
 8    1  0.7418332E-006  0.1040920E+04  0.7818608E-02  0.8739606E-01
         21   -1    0    0  501  502  0.00000000000E+00  0.00000000000E+00  0.74447848705E+03  0.74447848705E+03  0.00000000000E+00 0.  1.
         21   -1    0    0  502  503 -0.00000000000E+00 -0.00000000000E+00 -0.16535414704E+04  0.16535414704E+04  0.00000000000E+00 0.  1.
    9000010    2    1    2  501    0  0.56295448232E+02 -0.28888279812E+03 -0.25474551383E+02  0.10412321196E+04  0.99844525412E+03 0.  0.
   -9000010    2    1    2    0  503 -0.56295448232E+02  0.28888279812E+03 -0.88358843197E+03  0.13567878379E+04  0.98667232222E+03 0.  0.
        -13    1    3    3    0    0 -0.31227307036E+03 -0.47609948696E+03 -0.18418269125E+03  0.59842164640E+03  0.10566000000E+00 0.  1.
          4    1    3    3  501    0  0.36856851859E+03  0.18721668884E+03  0.15870813987E+03  0.44281047316E+03  0.00000000000E+00 0.  1.
         13    1    4    4    0    0  0.10873440168E+03 -0.33103758482E+03 -0.14207880728E+03  0.37629171040E+03  0.10566000000E+00 0. -1.
         -4    1    4    4    0  503 -0.16502984992E+03  0.61992038294E+03 -0.74150962469E+03  0.98049612751E+03  0.00000000000E+00 0. -1.
<mgrwt>
<rscale>  2 0.10380871E+04</rscale>
<asrwt>0</asrwt>
<pdfrwt beam="1">  1       21 0.11453515E+00 0.10409204E+04</pdfrwt>
<pdfrwt beam="2">  1       21 0.25439099E+00 0.10409204E+04</pdfrwt>
<totfact> 0.15502609E+01</totfact>
</mgrwt>
</event>
<event>
 8    1  0.7418332E-006  0.1110447E+04  0.7818608E-02  0.8678005E-01
         21   -1    0    0  503  502  0.00000000000E+00  0.00000000000E+00  0.12192431616E+04  0.12192431616E+04  0.00000000000E+00 0.  1.
         21   -1    0    0  501  503 -0.00000000000E+00 -0.00000000000E+00 -0.10414268439E+04  0.10414268439E+04  0.00000000000E+00 0.  1.
    9000010    2    1    2  501    0  0.28923494915E+03 -0.37672175157E+03 -0.11385071955E+03  0.11125574515E+04  0.99962291023E+03 0.  0.
   -9000010    2    1    2    0  502 -0.28923494915E+03  0.37672175157E+03  0.29166703734E+03  0.11481125540E+04  0.10037512850E+04 0.  0.
        -13    1    3    3    0    0 -0.20828924478E+03  0.23635191565E+03 -0.13848136873E+01  0.31503740476E+03  0.10566000000E+00 0.  1.
          4    1    3    3  501    0  0.49752419394E+03 -0.61307366722E+03 -0.11246590587E+03  0.79752004675E+03  0.00000000000E+00 0.  1.
         13    1    4    4    0    0  0.25889191571E+03  0.88479464243E+01  0.40258661615E+03  0.47872675384E+03  0.10566000000E+00 0. -1.
         -4    1    4    4    0  502 -0.54812686486E+03  0.36787380515E+03 -0.11091957880E+03  0.66938580016E+03  0.00000000000E+00 0. -1.
<mgrwt>
<rscale>  2 0.11095134E+04</rscale>
<asrwt>0</asrwt>
<pdfrwt beam="1">  1       21 0.18757587E+00 0.11104471E+04</pdfrwt>
<pdfrwt beam="2">  1       21 0.16021951E+00 0.11104471E+04</pdfrwt>
<totfact> 0.18158631E+01</totfact>
</mgrwt>
</event>
<event>
 8    1  0.7418332E-006  0.1144670E+04  0.7818608E-02  0.8669349E-01
         21   -1    0    0  503  502  0.00000000000E+00  0.00000000000E+00  0.19994438029E+04  0.19994438029E+04  0.00000000000E+00 0.  1.
         21   -1    0    0  501  503 -0.00000000000E+00 -0.00000000000E+00 -0.62178104036E+03  0.62178104036E+03  0.00000000000E+00 0.  1.
    9000010    2    1    2  501    0  0.16754269045E+03 -0.22675333005E+03  0.42518058370E+03  0.11321001002E+04  0.10106356823E+04 0.  0.
   -9000010    2    1    2    0  502 -0.16754269045E+03  0.22675333005E+03  0.95248217887E+03  0.14891247431E+04  0.11094064059E+04 0.  0.
        -13    1    3    3    0    0  0.54965234569E+03 -0.10890647689E+03  0.16858781048E+02  0.56059125171E+03  0.10566000000E+00 0.  1.
          4    1    3    3  501    0 -0.38210965524E+03 -0.11784685315E+03  0.40832180265E+03  0.57150884853E+03  0.00000000000E+00 0.  1.
         13    1    4    4    0    0  0.14891732107E+03 -0.52786109294E+02  0.10449902236E+04  0.10568667468E+04  0.10566000000E+00 0. -1.
         -4    1    4    4    0  502 -0.31646001152E+03  0.27953943934E+03 -0.92508044711E+02  0.43225799631E+03  0.00000000000E+00 0. -1.
<mgrwt>
<rscale>  2 0.11200243E+04</rscale>
<asrwt>0</asrwt>
<pdfrwt beam="1">  1       21 0.30760673E+00 0.11446703E+04</pdfrwt>
<pdfrwt beam="2">  1       21 0.95658623E-01 0.11446703E+04</pdfrwt>
<totfact> 0.10212820E+01</totfact>
</mgrwt>
</event>
<event>
 8    1  0.7418332E-006  0.1046295E+04  0.7818608E-02  0.8747317E-01
         21   -1    0    0  501  502  0.00000000000E+00  0.00000000000E+00  0.12510072718E+04  0.12510072718E+04  0.00000000000E+00 0. -1.
         21   -1    0    0  502  503 -0.00000000000E+00 -0.00000000000E+00 -0.82129032796E+03  0.82129032796E+03  0.00000000000E+00 0. -1.
    9000010    2    1    2  501    0 -0.59530193589E+02  0.33776320948E+02  0.23081205786E+03  0.10714515135E+04  0.10440543357E+04 0.  0.
   -9000010    2    1    2    0  503  0.59530193589E+02 -0.33776320948E+02  0.19890488601E+03  0.10008460863E+04  0.97849121148E+03 0.  0.
        -13    1    3    3    0    0  0.42956414829E+03  0.13839164724E+02 -0.14579254149E+03  0.45384177451E+03  0.10566000000E+00 0.  1.
          4    1    3    3  501    0 -0.48909434188E+03  0.19937156224E+02  0.37660459935E+03  0.61760973900E+03  0.00000000000E+00 0.  1.
         13    1    4    4    0    0  0.42502743180E+03 -0.29010405334E+03  0.20618473271E+03  0.55436525388E+03  0.10566000000E+00 0. -1.
         -4    1    4    4    0  503 -0.36549723821E+03  0.25632773240E+03 -0.72798467016E+01  0.44648083240E+03  0.00000000000E+00 0. -1.
<mgrwt>
<rscale>  2 0.10295441E+04</rscale>
<asrwt>0</asrwt>
<pdfrwt beam="1">  1       21 0.19246266E+00 0.10462954E+04</pdfrwt>
<pdfrwt beam="2">  1       21 0.12635236E+00 0.10462954E+04</pdfrwt>
<totfact> 0.34409485E+01</totfact>
</mgrwt>
</event>
<event>
 8    1  0.7418332E-006  0.1048993E+04  0.7818608E-02  0.8734724E-01
         21   -1    0    0  501  502  0.00000000000E+00  0.00000000000E+00  0.17172347438E+04  0.17172347438E+04  0.00000000000E+00 0.  1.
         21   -1    0    0  502  503 -0.00000000000E+00 -0.00000000000E+00 -0.72280649915E+03  0.72280649915E+03  0.00000000000E+00 0.  1.
    9000010    2    1    2  501    0  0.51091324874E+02  0.20345158210E+03  0.93538687620E+03  0.13893884501E+04  0.10057081025E+04 0.  0.
   -9000010    2    1    2    0  503 -0.51091324874E+02 -0.20345158210E+03  0.59041368466E+02  0.10506527928E+04  0.10278047179E+04 0.  0.
        -13    1    3    3    0    0  0.12981699541E+03  0.16806851398E+03 -0.17528853389E+03  0.27536441122E+03  0.10566000000E+00 0.  1.
          4    1    3    3  501    0 -0.78725670538E+02  0.35383068118E+02  0.11106754101E+04  0.11140240389E+04  0.00000000000E+00 0.  1.
         13    1    4    4    0    0  0.65114779888E+02 -0.44675744918E+03  0.40878045223E+03  0.60904320228E+03  0.10566000000E+00 0. -1.
         -4    1    4    4    0  503 -0.11620610476E+03  0.24330586708E+03 -0.34973908377E+03  0.44160959054E+03  0.00000000000E+00 0. -1.
<mgrwt>
<rscale>  2 0.10435400E+04</rscale>
<asrwt>0</asrwt>
<pdfrwt beam="1">  1       21 0.26418996E+00 0.10489926E+04</pdfrwt>
<pdfrwt beam="2">  1       21 0.11120100E+00 0.10489926E+04</pdfrwt>
<totfact> 0.14256222E+01</totfact>
</mgrwt>
</event>
<event>
 8    1  0.7418332E-006  0.1039158E+04  0.7818608E-02  0.8746513E-01
         21   -1    0    0  501  502  0.00000000000E+00  0.00000000000E+00  0.22165445240E+04  0.22165445240E+04  0.00000000000E+00 0. -1.
         21   -1    0    0  502  503 -0.00000000000E+00 -0.00000000000E+00 -0.12589264256E+04  0.12589264256E+04  0.00000000000E+00 0. -1.
    9000010    2    1    2  501    0 -0.14360239742E+03 -0.22781459397E+03  0.18503403586E+04  0.21055067394E+04  0.96792460938E+03 0.  0.
   -9000010    2    1    2    0  503  0.14360239742E+03  0.22781459397E+03 -0.89272226018E+03  0.13699642102E+04  0.10036571953E+04 0.  0.
        -13    1    3    3    0    0  0.24819833050E+02 -0.58829593387E+03  0.12925276333E+04  0.14203294772E+04  0.10566000000E+00 0.  1.
          4    1    3    3  501    0 -0.16842223047E+03  0.36048133991E+03  0.55781272531E+03  0.68517726221E+03  0.00000000000E+00 0.  1.
         13    1    4    4    0    0  0.10328172506E+02  0.59245076495E+03 -0.30723414056E+03  0.66745592238E+03  0.10566000000E+00 0. -1.
         -4    1    4    4    0  503  0.13327422492E+03 -0.36463617098E+03 -0.58548811962E+03  0.70250828780E+03  0.00000000000E+00 0. -1.
<mgrwt>
<rscale>  2 0.10304312E+04</rscale>
<asrwt>0</asrwt>
<pdfrwt beam="1">  1       21 0.34100685E+00 0.10391578E+04</pdfrwt>
<pdfrwt beam="2">  1       21 0.19368099E+00 0.10391578E+04</pdfrwt>
<totfact> 0.74308509E-01</totfact>
</mgrwt>
</event>
<event>
 8    1  0.7418332E-006  0.9853249E+03  0.7818608E-02  0.8791176E-01
         21   -1    0    0  503  502  0.00000000000E+00  0.00000000000E+00  0.24164317169E+04  0.24164317169E+04  0.00000000000E+00 0.  1.
         21   -1    0    0  501  503 -0.00000000000E+00 -0.00000000000E+00 -0.41435901586E+03  0.41435901586E+03  0.00000000000E+00 0.  1.
    9000010    2    1    2  501    0  0.22886334545E+02 -0.34240780531E+02  0.70805874347E+03  0.12043414555E+04  0.97334215049E+03 0.  0.
   -9000010    2    1    2    0  502 -0.22886334545E+02  0.34240780531E+02  0.12940139575E+04  0.16264492772E+04  0.98446376962E+03 0.  0.
        -13    1    3    3    0    0 -0.31218241748E+03  0.17508260783E+03 -0.38194602770E+02  0.35995919240E+03  0.10566000000E+00 0.  1.
          4    1    3    3  501    0  0.33506875202E+03 -0.20932338836E+03  0.74625334624E+03  0.84438226312E+03  0.00000000000E+00 0.  1.
         13    1    4    4    0    0  0.19482041943E+03  0.24005830014E+03  0.12903096027E+04  0.13268315135E+04  0.10566000000E+00 0. -1.
         -4    1    4    4    0  502 -0.21770675398E+03 -0.20581751961E+03  0.37043548854E+01  0.29961776374E+03  0.00000000000E+00 0. -1.
<mgrwt>
<rscale>  2 0.98253511E+03</rscale>
<asrwt>0</asrwt>
<pdfrwt beam="1">  1       21 0.37175872E+00 0.98532489E+03</pdfrwt>
<pdfrwt beam="2">  1       21 0.63747542E-01 0.98532489E+03</pdfrwt>
<totfact> 0.10117338E+01</totfact>
</mgrwt>
</event>
<event>
 8    1  0.7418332E-006  0.1073224E+04  0.7818608E-02  0.8715807E-01
         21   -1    0    0  503  502  0.00000000000E+00  0.00000000000E+00  0.10756193251E+04  0.10756193251E+04  0.00000000000E+00 0.  1.
         21   -1    0    0  501  503 -0.00000000000E+00 -0.00000000000E+00 -0.16517403692E+04  0.16517403692E+04  0.00000000000E+00 0.  1.
    9000010    2    1    2  501    0  0.12414285225E+03  0.38140959708E+03 -0.11160418325E+04  0.15259753668E+04  0.96029512106E+03 0.  0.
   -9000010    2    1    2    0  502 -0.12414285225E+03 -0.38140959708E+03  0.53992078844E+03  0.12013843275E+04  0.99545221692E+03 0.  0.
        -13    1    3    3    0    0 -0.38072909123E+03  0.34758795392E+03 -0.41729575429E+03  0.66325544425E+03  0.10566000000E+00 0.  1.
          4    1    3    3  501    0  0.50487194348E+03  0.33821643167E+02 -0.69874607826E+03  0.86271992253E+03  0.00000000000E+00 0.  1.
         13    1    4    4    0    0 -0.15819456577E+02  0.11895057484E+03  0.66388136957E+03  0.67463914687E+03  0.10566000000E+00 0. -1.
         -4    1    4    4    0  502 -0.10832339568E+03 -0.50036017192E+03 -0.12396058112E+03  0.52674518068E+03  0.00000000000E+00 0. -1.
<mgrwt>
<rscale>  2 0.10649983E+04</rscale>
<asrwt>0</asrwt>
<pdfrwt beam="1">  1       21 0.16547990E+00 0.10732240E+04</pdfrwt>
<pdfrwt beam="2">  1       21 0.25411390E+00 0.10732240E+04</pdfrwt>
<totfact> 0.51783707E+00</totfact>
</mgrwt>
</event>
<event>
 8    1  0.7418332E-006  0.1045788E+04  0.7818608E-02  0.8734465E-01
         21   -1    0    0  503  502  0.00000000000E+00  0.00000000000E+00  0.20907566699E+04  0.20907566699E+04  0.00000000000E+00 0.  1.
         21   -1    0    0  501  503 -0.00000000000E+00 -0.00000000000E+00 -0.57717783593E+03  0.57717783593E+03  0.00000000000E+00 0.  1.
    9000010    2    1    2  501    0  0.82342505201E+02  0.24640479392E+03  0.33145266733E+03  0.10896142688E+04  0.10049391890E+04 0.  0.
   -9000010    2    1    2    0  502 -0.82342505201E+02 -0.24640479392E+03  0.11821261666E+04  0.15783202370E+04  0.10130038924E+04 0.  0.
        -13    1    3    3    0    0  0.86613827692E+02  0.19351511191E+03 -0.34832170533E+03  0.40777208738E+03  0.10566000000E+00 0.  1.
          4    1    3    3  501    0 -0.42713224912E+01  0.52889682013E+02  0.67977437266E+03  0.68184218143E+03  0.00000000000E+00 0.  1.
         13    1    4    4    0    0 -0.48696313462E+03  0.91448382544E+02  0.40839386758E+03  0.64209147587E+03  0.10566000000E+00 0. -1.
         -4    1    4    4    0  502  0.40462062942E+03 -0.33785317646E+03  0.77373229905E+03  0.93622876114E+03  0.00000000000E+00 0. -1.
<mgrwt>
<rscale>  2 0.10438300E+04</rscale>
<asrwt>0</asrwt>
<pdfrwt beam="1">  1       21 0.32165487E+00 0.10457880E+04</pdfrwt>
<pdfrwt beam="2">  1       21 0.88796591E-01 0.10457880E+04</pdfrwt>
<totfact> 0.10056935E+01</totfact>
</mgrwt>
</event>
<event>
 8    1  0.7418332E-006  0.1020071E+04  0.7818608E-02  0.8764420E-01
         21   -1    0    0  501  502  0.00000000000E+00  0.00000000000E+00  0.49732563295E+03  0.49732563295E+03  0.00000000000E+00 0. -1.
         21   -1    0    0  502  503 -0.00000000000E+00 -0.00000000000E+00 -0.22343582740E+04  0.22343582740E+04  0.00000000000E+00 0. -1.
    9000010    2    1    2  501    0  0.37207543881E+01 -0.17648198498E+03 -0.45840363414E+03  0.11183373359E+04  0.10046814271E+04 0.  0.
   -9000010    2    1    2    0  503 -0.37207543881E+01  0.17648198498E+03 -0.12786290070E+04  0.16133465711E+04  0.96790251887E+03 0.  0.
        -13    1    3    3    0    0 -0.21429818269E+03 -0.37946663683E+03 -0.63640884897E+03  0.77132021481E+03  0.10566000000E+00 0.  1.
          4    1    3    3  501    0  0.21801893708E+03  0.20298465184E+03  0.17800521483E+03  0.34701712107E+03  0.00000000000E+00 0.  1.
         13    1    4    4    0    0  0.31104791959E+03 -0.28331814127E+03 -0.46373861201E+03  0.62615771886E+03  0.10566000000E+00 0. -1.
         -4    1    4    4    0  503 -0.31476867398E+03  0.45980012626E+03 -0.81489039495E+03  0.98718885225E+03  0.00000000000E+00 0. -1.
<mgrwt>
<rscale>  2 0.10108970E+04</rscale>
<asrwt>0</asrwt>
<pdfrwt beam="1">  1       21 0.76511637E-01 0.10200708E+04</pdfrwt>
<pdfrwt beam="2">  1       21 0.34374742E+00 0.10200708E+04</pdfrwt>
<totfact> 0.10241154E+01</totfact>
</mgrwt>
</event>
<event>
 8    1  0.7418332E-006  0.1041336E+04  0.7818608E-02  0.8740683E-01
         21   -1    0    0  501  502  0.00000000000E+00  0.00000000000E+00  0.18921138973E+04  0.18921138973E+04  0.00000000000E+00 0.  1.
         21   -1    0    0  502  503 -0.00000000000E+00 -0.00000000000E+00 -0.91562238718E+03  0.91562238718E+03  0.00000000000E+00 0.  1.
    9000010    2    1    2  501    0  0.26349423332E+03 -0.16861122531E+03  0.13614905699E+04  0.17140701327E+04  0.99323758062E+03 0.  0.
   -9000010    2    1    2    0  503 -0.26349423332E+03  0.16861122531E+03 -0.38499905978E+03  0.10936661518E+04  0.97469093524E+03 0.  0.
        -13    1    3    3    0    0 -0.17706561166E+02 -0.41148072907E+03  0.12647472784E+04  0.13301186421E+04  0.10566000000E+00 0.  1.
          4    1    3    3  501    0  0.28120079448E+03  0.24286950376E+03  0.96743291510E+02  0.38395149059E+03  0.00000000000E+00 0.  1.
         13    1    4    4    0    0 -0.36130206854E+03 -0.19911686409E+03 -0.54276089448E+03  0.68174490100E+03  0.10566000000E+00 0. -1.
         -4    1    4    4    0  503  0.97807835229E+02  0.36772808940E+03  0.15776183470E+03  0.41192125079E+03  0.00000000000E+00 0. -1.
<mgrwt>
<rscale>  2 0.10368885E+04</rscale>
<asrwt>0</asrwt>
<pdfrwt beam="1">  1       21 0.29109445E+00 0.10413356E+04</pdfrwt>
<pdfrwt beam="2">  1       21 0.14086498E+00 0.10413356E+04</pdfrwt>
<totfact> 0.46815851E+00</totfact>
</mgrwt>
</event>
<event>
 8    1  0.7418332E-006  0.1027206E+04  0.7818608E-02  0.8750007E-01
         21   -1    0    0  501  502  0.00000000000E+00  0.00000000000E+00  0.10863925009E+04  0.10863925009E+04  0.00000000000E+00 0. -1.
         21   -1    0    0  502  503 -0.00000000000E+00 -0.00000000000E+00 -0.10971328739E+04  0.10971328739E+04  0.00000000000E+00 0. -1.
    9000010    2    1    2  501    0  0.57969070304E+02 -0.22615941477E+03  0.36787927353E+03  0.10910944066E+04  0.10003216234E+04 0.  0.
   -9000010    2    1    2    0  503 -0.57969070304E+02  0.22615941477E+03 -0.37861964655E+03  0.10924309683E+04  0.99776955741E+03 0.  0.
        -13    1    3    3    0    0  0.15071203095E+03  0.38213019009E+03  0.12250526044E+03  0.42865504599E+03  0.10566000000E+00 0.  1.
          4    1    3    3  501    0 -0.92742960649E+02 -0.60828960487E+03  0.24537401309E+03  0.66243936058E+03  0.00000000000E+00 0.  1.
         13    1    4    4    0    0 -0.45999566322E+03 -0.65047309394E+00  0.49769509199E+02  0.46268071984E+03  0.10566000000E+00 0. -1.
         -4    1    4    4    0  503  0.40202659292E+03  0.22680988787E+03 -0.42838915575E+03  0.62975024844E+03  0.00000000000E+00 0. -1.
<mgrwt>
<rscale>  2 0.10265840E+04</rscale>
<asrwt>0</asrwt>
<pdfrwt beam="1">  1       21 0.16713731E+00 0.10272058E+04</pdfrwt>
<pdfrwt beam="2">  1       21 0.16878967E+00 0.10272058E+04</pdfrwt>
<totfact> 0.23029043E+01</totfact>
</mgrwt>
</event>
<event>
 8    1  0.7418332E-006  0.1044640E+04  0.7818608E-02  0.8746513E-01
         21   -1    0    0  501  502  0.00000000000E+00  0.00000000000E+00  0.93633153128E+03  0.93633153128E+03  0.00000000000E+00 0.  1.
         21   -1    0    0  502  503 -0.00000000000E+00 -0.00000000000E+00 -0.13042882914E+04  0.13042882914E+04  0.00000000000E+00 0.  1.
    9000010    2    1    2  501    0  0.28451199669E+03  0.98911589597E+02  0.25043761148E+03  0.10742397061E+04  0.10002706484E+04 0.  0.
   -9000010    2    1    2    0  503 -0.28451199669E+03 -0.98911589597E+02 -0.61839437157E+03  0.11663801166E+04  0.94196624077E+03 0.  0.
        -13    1    3    3    0    0 -0.37255360700E+03  0.33108979876E+02  0.16347154565E+03  0.40818543830E+03  0.10566000000E+00 0.  1.
          4    1    3    3  501    0  0.65706560370E+03  0.65802609721E+02  0.86966065828E+02  0.66605426777E+03  0.00000000000E+00 0.  1.
         13    1    4    4    0    0 -0.19898011044E+03 -0.52098429453E+03 -0.36925034189E+03  0.66885240947E+03  0.10566000000E+00 0. -1.
         -4    1    4    4    0  503 -0.85531886257E+02  0.42207270494E+03 -0.24914402968E+03  0.49752770711E+03  0.00000000000E+00 0. -1.
<mgrwt>
<rscale>  2 0.10304311E+04</rscale>
<asrwt>0</asrwt>
<pdfrwt beam="1">  1       21 0.14405100E+00 0.10446396E+04</pdfrwt>
<pdfrwt beam="2">  1       21 0.20065974E+00 0.10446396E+04</pdfrwt>
<totfact> 0.20195619E+01</totfact>
</mgrwt>
</event>
<event>
 8    1  0.7418332E-006  0.1054802E+04  0.7818608E-02  0.8736757E-01
         21   -1    0    0  503  502  0.00000000000E+00  0.00000000000E+00  0.14920298741E+04  0.14920298741E+04  0.00000000000E+00 0. -1.
         21   -1    0    0  501  503 -0.00000000000E+00 -0.00000000000E+00 -0.72954740100E+03  0.72954740100E+03  0.00000000000E+00 0. -1.
    9000010    2    1    2  501    0  0.59382417003E+02 -0.72055539931E+02  0.18362693412E+03  0.10183815416E+04  0.99732835167E+03 0.  0.
   -9000010    2    1    2    0  502 -0.59382417003E+02  0.72055539931E+02  0.57885553902E+03  0.12031957335E+04  0.10506607282E+04 0.  0.
        -13    1    3    3    0    0 -0.38335775580E+03  0.24640602646E+03  0.66139335163E+02  0.46049269443E+03  0.10566000000E+00 0.  1.
          4    1    3    3  501    0  0.44274017280E+03 -0.31846156640E+03  0.11748759895E+03  0.55788884716E+03  0.00000000000E+00 0.  1.
         13    1    4    4    0    0  0.40705737969E+02  0.29371266869E+03 -0.21930283064E+03  0.36880595378E+03  0.10566000000E+00 0. -1.
         -4    1    4    4    0  502 -0.10008815497E+03 -0.22165712876E+03  0.79815836966E+03  0.83438977975E+03  0.00000000000E+00 0. -1.
<mgrwt>
<rscale>  2 0.10412652E+04</rscale>
<asrwt>0</asrwt>
<pdfrwt beam="1">  1       21 0.22954306E+00 0.10548015E+04</pdfrwt>
<pdfrwt beam="2">  1       21 0.11223806E+00 0.10548015E+04</pdfrwt>
<totfact> 0.24855851E+01</totfact>
</mgrwt>
</event>
<event>
 8    1  0.7418332E-006  0.1105949E+04  0.7818608E-02  0.8693425E-01
         21   -1    0    0  501  502  0.00000000000E+00  0.00000000000E+00  0.13802174267E+04  0.13802174267E+04  0.00000000000E+00 0. -1.
         21   -1    0    0  502  503 -0.00000000000E+00 -0.00000000000E+00 -0.23136632062E+04  0.23136632062E+04  0.00000000000E+00 0.  1.
    9000010    2    1    2  501    0 -0.32091789528E+03 -0.39128549694E+03  0.10116257281E+04  0.14563763094E+04  0.91736181811E+03 0.  0.
   -9000010    2    1    2    0  503  0.32091789528E+03  0.39128549694E+03 -0.19450715076E+04  0.22375043235E+04  0.98337672959E+03 0.  0.
        -13    1    3    3    0    0  0.19529320486E+03 -0.48361387705E+03  0.54621848954E+03  0.75523272401E+03  0.10566000000E+00 0.  1.
          4    1    3    3  501    0 -0.51621110015E+03  0.92328380110E+02  0.46540723853E+03  0.70114358542E+03  0.00000000000E+00 0.  1.
         13    1    4    4    0    0  0.28575409622E+03  0.13852283036E+03 -0.45423666900E+02  0.32079167495E+03  0.10566000000E+00 0. -1.
         -4    1    4    4    0  503  0.35163799061E+02  0.25276266658E+03 -0.18996478407E+04  0.19167126485E+04  0.00000000000E+00 0. -1.
<mgrwt>
<rscale>  2 0.10910860E+04</rscale>
<asrwt>0</asrwt>
<pdfrwt beam="1">  1       21 0.21234114E+00 0.11059487E+04</pdfrwt>
<pdfrwt beam="2">  1       21 0.35594819E+00 0.11059487E+04</pdfrwt>
<totfact> 0.41079637E-01</totfact>
</mgrwt>
</event>
<event>
 8    1  0.7418332E-006  0.1065949E+04  0.7818608E-02  0.8717307E-01
         21   -1    0    0  503  502  0.00000000000E+00  0.00000000000E+00  0.13257129864E+04  0.13257129864E+04  0.00000000000E+00 0. -1.
         21   -1    0    0  501  503 -0.00000000000E+00 -0.00000000000E+00 -0.10417446765E+04  0.10417446765E+04  0.00000000000E+00 0. -1.
    9000010    2    1    2  501    0 -0.27310089865E+03  0.26080628180E+03 -0.36836692690E+03  0.11177420203E+04  0.98541819232E+03 0.  0.
   -9000010    2    1    2    0  502  0.27310089865E+03 -0.26080628180E+03  0.65233523672E+03  0.12497156426E+04  0.99681688827E+03 0.  0.
        -13    1    3    3    0    0 -0.21833980768E+03 -0.30513932560E+03 -0.39979321112E+03  0.54828542063E+03  0.10566000000E+00 0.  1.
          4    1    3    3  501    0 -0.54761090973E+02  0.56594560741E+03  0.31426284223E+02  0.56945659972E+03  0.00000000000E+00 0.  1.
         13    1    4    4    0    0  0.34706713815E+03 -0.45152189586E+03  0.36154320407E+01  0.56950917757E+03  0.10566000000E+00 0. -1.
         -4    1    4    4    0  502 -0.73966239502E+02  0.19071561406E+03  0.64871980468E+03  0.68020646499E+03  0.00000000000E+00 0. -1.
<mgrwt>
<rscale>  2 0.10632763E+04</rscale>
<asrwt>0</asrwt>
<pdfrwt beam="1">  1       21 0.20395585E+00 0.10659493E+04</pdfrwt>
<pdfrwt beam="2">  1       21 0.16026841E+00 0.10659493E+04</pdfrwt>
<totfact> 0.13610654E+01</totfact>
</mgrwt>
</event>
<event>
 8    1  0.7418332E-006  0.1019219E+04  0.7818608E-02  0.8757249E-01
         21   -1    0    0  503  502  0.00000000000E+00  0.00000000000E+00  0.94946160039E+03  0.94946160039E+03  0.00000000000E+00 0. -1.
         21   -1    0    0  501  503 -0.00000000000E+00 -0.00000000000E+00 -0.11258740800E+04  0.11258740800E+04  0.00000000000E+00 0. -1.
    9000010    2    1    2  501    0  0.67948037432E+02 -0.11491165954E+03 -0.26901079331E+03  0.10541223418E+04  0.10104382610E+04 0.  0.
   -9000010    2    1    2    0  502 -0.67948037432E+02  0.11491165954E+03  0.92598313665E+02  0.10212133386E+04  0.10082066306E+04 0.  0.
        -13    1    3    3    0    0  0.35994260943E+03 -0.44319820452E+03 -0.22069358325E+03  0.61211845212E+03  0.10566000000E+00 0.  1.
          4    1    3    3  501    0 -0.29199457199E+03  0.32828654498E+03 -0.48317210057E+02  0.44200388966E+03  0.00000000000E+00 0.  1.
         13    1    4    4    0    0 -0.50605775839E+03 -0.11944534037E+03  0.37485401663E+02  0.52131258441E+03  0.10566000000E+00 0. -1.
         -4    1    4    4    0  502  0.43810972096E+03  0.23435699991E+03  0.55112912003E+02  0.49990075423E+03  0.00000000000E+00 0. -1.
<mgrwt>
<rscale>  2 0.10186653E+04</rscale>
<asrwt>0</asrwt>
<pdfrwt beam="1">  1       21 0.14607101E+00 0.10192189E+04</pdfrwt>
<pdfrwt beam="2">  1       21 0.17321140E+00 0.10192189E+04</pdfrwt>
<totfact> 0.32358665E+01</totfact>
</mgrwt>
</event>
<event>
 8    1  0.7418332E-006  0.1011673E+04  0.7818608E-02  0.8769611E-01
         21   -1    0    0  503  502  0.00000000000E+00  0.00000000000E+00  0.94255617725E+03  0.94255617725E+03  0.00000000000E+00 0. -1.
         21   -1    0    0  501  503 -0.00000000000E+00 -0.00000000000E+00 -0.10657467756E+04  0.10657467756E+04  0.00000000000E+00 0. -1.
    9000010    2    1    2  501    0  0.58754194842E+02  0.29270640811E+02 -0.14073629692E+03  0.99647764627E+03  0.98430288449E+03 0.  0.
   -9000010    2    1    2    0  502 -0.58754194842E+02 -0.29270640811E+02  0.17545698603E+02  0.10118253065E+04  0.10095413679E+04 0.  0.
        -13    1    3    3    0    0  0.28108862553E+03 -0.40405420801E+03 -0.10464554804E+02  0.49232117208E+03  0.10566000000E+00 0.  1.
          4    1    3    3  501    0 -0.22233443068E+03  0.43332484882E+03 -0.13027174211E+03  0.50415647419E+03  0.00000000000E+00 0.  1.
         13    1    4    4    0    0  0.19364728801E+03 -0.46741403534E+03  0.15486001302E+02  0.50617682680E+03  0.10566000000E+00 0. -1.
         -4    1    4    4    0  502 -0.25240148285E+03  0.43814339453E+03  0.20596973010E+01  0.50564847974E+03  0.00000000000E+00 0. -1.
<mgrwt>
<rscale>  2 0.10053175E+04</rscale>
<asrwt>0</asrwt>
<pdfrwt beam="1">  1       21 0.14500864E+00 0.10116732E+04</pdfrwt>
<pdfrwt beam="2">  1       21 0.16396104E+00 0.10116732E+04</pdfrwt>
<totfact> 0.39640621E+01</totfact>
</mgrwt>
</event>
<event>
 8    1  0.7418332E-006  0.1191939E+04  0.7818608E-02  0.8616290E-01
         21   -1    0    0  501  502  0.00000000000E+00  0.00000000000E+00  0.16323526605E+04  0.16323526605E+04  0.00000000000E+00 0. -1.
         21   -1    0    0  502  503 -0.00000000000E+00 -0.00000000000E+00 -0.88876787465E+03  0.88876787465E+03  0.00000000000E+00 0.  1.
    9000010    2    1    2  501    0  0.45071108593E+03 -0.43665841163E+03  0.60892814984E+03  0.13215995150E+04  0.99096959335E+03 0.  0.
   -9000010    2    1    2    0  503 -0.45071108593E+03  0.43665841163E+03  0.13465663599E+03  0.11995210201E+04  0.10133643060E+04 0.  0.
        -13    1    3    3    0    0  0.72075872263E+03 -0.49183874586E+03  0.57237844138E+03  0.10435590925E+04  0.10566000000E+00 0.  1.
          4    1    3    3  501    0 -0.27004763670E+03  0.55180334221E+02  0.36549708462E+02  0.27804042253E+03  0.00000000000E+00 0.  1.
         13    1    4    4    0    0 -0.72066765808E+03  0.25112443709E+03 -0.13527645265E+03  0.77506456900E+03  0.10566000000E+00 0. -1.
         -4    1    4    4    0  503  0.26995657215E+03  0.18553397454E+03  0.26993308864E+03  0.42445645113E+03  0.00000000000E+00 0. -1.
<mgrwt>
<rscale>  2 0.11871652E+04</rscale>
<asrwt>0</asrwt>
<pdfrwt beam="1">  1       21 0.25113118E+00 0.11919389E+04</pdfrwt>
<pdfrwt beam="2">  1       21 0.13673352E+00 0.11919389E+04</pdfrwt>
<totfact> 0.95634262E+00</totfact>
</mgrwt>
</event>
<event>
 8    1  0.7418332E-006  0.1065093E+04  0.7818608E-02  0.8719234E-01
         21   -1    0    0  501  502  0.00000000000E+00  0.00000000000E+00  0.26085823012E+04  0.26085823012E+04  0.00000000000E+00 0. -1.
         21   -1    0    0  502  503 -0.00000000000E+00 -0.00000000000E+00 -0.49436115296E+03  0.49436115296E+03  0.00000000000E+00 0. -1.
    9000010    2    1    2  501    0 -0.26652654045E+03  0.20506341189E+03  0.16308561329E+04  0.19478488963E+04  0.10106117934E+04 0.  0.
   -9000010    2    1    2    0  503  0.26652654045E+03 -0.20506341189E+03  0.48336501537E+03  0.11550945579E+04  0.99373754075E+03 0.  0.
        -13    1    3    3    0    0 -0.40127892498E+03  0.54570296224E+03  0.86294726268E+03  0.10970389637E+04  0.10566000000E+00 0.  1.
          4    1    3    3  501    0  0.13475238452E+03 -0.34063955035E+03  0.76790887021E+03  0.85080993256E+03  0.00000000000E+00 0.  1.
         13    1    4    4    0    0  0.36531931506E+03 -0.52715064985E+03  0.50673075446E+03  0.81738734898E+03  0.10566000000E+00 0. -1.
         -4    1    4    4    0  503 -0.98792774604E+02  0.32208723797E+03 -0.23365739095E+02  0.33770720889E+03  0.00000000000E+00 0. -1.
<mgrwt>
<rscale>  2 0.10610711E+04</rscale>
<asrwt>0</asrwt>
<pdfrwt beam="1">  1       21 0.40132034E+00 0.10650932E+04</pdfrwt>
<pdfrwt beam="2">  1       21 0.76055564E-01 0.10650932E+04</pdfrwt>
<totfact> 0.40650524E+00</totfact>
</mgrwt>
</event>
<event>
 8    1  0.7418332E-006  0.1012923E+04  0.7818608E-02  0.8782921E-01
         21   -1    0    0  503  502  0.00000000000E+00  0.00000000000E+00  0.13122182603E+04  0.13122182603E+04  0.00000000000E+00 0. -1.
         21   -1    0    0  501  503 -0.00000000000E+00 -0.00000000000E+00 -0.73312279862E+03  0.73312279862E+03  0.00000000000E+00 0. -1.
    9000010    2    1    2  501    0  0.47346636250E+02  0.48486622378E+02  0.15630207862E+03  0.10249111584E+04  0.10106531979E+04 0.  0.
   -9000010    2    1    2    0  502 -0.47346636250E+02 -0.48486622378E+02  0.42279338307E+03  0.10204299005E+04  0.92624525941E+03 0.  0.
        -13    1    3    3    0    0  0.23748639939E+03 -0.64401047906E+02  0.53359271357E+03  0.58759550714E+03  0.10566000000E+00 0.  1.
          4    1    3    3  501    0 -0.19013976314E+03  0.11288767028E+03 -0.37729063496E+03  0.43731565128E+03  0.00000000000E+00 0.  1.
         13    1    4    4    0    0  0.54785151602E+02 -0.67677626423E+01  0.71032123446E+03  0.71246296938E+03  0.10566000000E+00 0. -1.
         -4    1    4    4    0  502 -0.10213178785E+03 -0.41718859736E+02 -0.28752785139E+03  0.30796693113E+03  0.00000000000E+00 0. -1.
<mgrwt>
<rscale>  2 0.99118240E+03</rscale>
<asrwt>0</asrwt>
<pdfrwt beam="1">  1       21 0.20187973E+00 0.10129228E+04</pdfrwt>
<pdfrwt beam="2">  1       21 0.11278812E+00 0.10129228E+04</pdfrwt>
<totfact> 0.40144853E+01</totfact>
</mgrwt>
</event>
<event>
 8    1  0.7418332E-006  0.1085826E+04  0.7818608E-02  0.8704787E-01
         21   -1    0    0  501  502  0.00000000000E+00  0.00000000000E+00  0.15845893078E+04  0.15845893078E+04  0.00000000000E+00 0.  1.
         21   -1    0    0  502  503 -0.00000000000E+00 -0.00000000000E+00 -0.12571475125E+04  0.12571475125E+04  0.00000000000E+00 0.  1.
    9000010    2    1    2  501    0  0.12245382286E+02 -0.27135464470E+03  0.10918343565E+04  0.15398446028E+04  0.10513019768E+04 0.  0.
   -9000010    2    1    2    0  503 -0.12245382286E+02  0.27135464470E+03 -0.76439256115E+03  0.13018922174E+04  0.10182554029E+04 0.  0.
        -13    1    3    3    0    0  0.38442956310E+03  0.23261779922E+03  0.56046726502E+03  0.71834580519E+03  0.10566000000E+00 0.  1.
          4    1    3    3  501    0 -0.37218418082E+03 -0.50397244392E+03  0.53136709145E+03  0.82149879766E+03  0.00000000000E+00 0.  1.
         13    1    4    4    0    0  0.28019488064E+03  0.15774373121E+03 -0.90326958241E+03  0.95879518435E+03  0.10566000000E+00 0. -1.
         -4    1    4    4    0  503 -0.29244026292E+03  0.11361091349E+03  0.13887702126E+03  0.34309703303E+03  0.00000000000E+00 0. -1.
<mgrwt>
<rscale>  2 0.10777459E+04</rscale>
<asrwt>0</asrwt>
<pdfrwt beam="1">  1       21 0.24378297E+00 0.10858265E+04</pdfrwt>
<pdfrwt beam="2">  1       21 0.19340731E+00 0.10858265E+04</pdfrwt>
<totfact> 0.36262800E+00</totfact>
</mgrwt>
</event>
<event>
 8    1  0.7418332E-006  0.1172634E+04  0.7818608E-02  0.8653723E-01
         21   -1    0    0  501  502  0.00000000000E+00  0.00000000000E+00  0.87797016807E+03  0.87797016807E+03  0.00000000000E+00 0. -1.
         21   -1    0    0  502  503 -0.00000000000E+00 -0.00000000000E+00 -0.14262963409E+04  0.14262963409E+04  0.00000000000E+00 0. -1.
    9000010    2    1    2  501    0 -0.28154978715E+03 -0.94056827765E+02 -0.13419077780E+03  0.11802869038E+04  0.11344395272E+04 0.  0.
   -9000010    2    1    2    0  503  0.28154978715E+03  0.94056827765E+02 -0.41413539502E+03  0.11239796052E+04  0.10018508162E+04 0.  0.
        -13    1    3    3    0    0  0.19386290473E+03 -0.22574141805E+03  0.37006404022E+03  0.47485726138E+03  0.10566000000E+00 0.  1.
          4    1    3    3  501    0 -0.47541269188E+03  0.13168459028E+03 -0.50425481802E+03  0.70542964243E+03  0.00000000000E+00 0.  1.
         13    1    4    4    0    0 -0.25279229326E+03  0.67277216354E+02 -0.51677348194E+03  0.57921067857E+03  0.10566000000E+00 0. -1.
         -4    1    4    4    0  503  0.53434208041E+03  0.26779611411E+02  0.10263808693E+03  0.54476892658E+03  0.00000000000E+00 0. -1.
<mgrwt>
<rscale>  2 0.11393071E+04</rscale>
<asrwt>0</asrwt>
<pdfrwt beam="1">  1       21 0.13507233E+00 0.11726338E+04</pdfrwt>
<pdfrwt beam="2">  1       21 0.21943021E+00 0.11726338E+04</pdfrwt>
<totfact> 0.17092123E+01</totfact>
</mgrwt>
</event>
<event>
 8    1  0.7418332E-006  0.1096355E+04  0.7818608E-02  0.8693767E-01
         21   -1    0    0  501  502  0.00000000000E+00  0.00000000000E+00  0.14519738699E+04  0.14519738699E+04  0.00000000000E+00 0. -1.
         21   -1    0    0  502  503 -0.00000000000E+00 -0.00000000000E+00 -0.89315467824E+03  0.89315467824E+03  0.00000000000E+00 0. -1.
    9000010    2    1    2  501    0  0.38111881045E+03 -0.23895841718E+03  0.63782325016E+03  0.12683900633E+04  0.99982107465E+03 0.  0.
   -9000010    2    1    2    0  503 -0.38111881045E+03  0.23895841718E+03 -0.79004058454E+02  0.10767384849E+04  0.97507510010E+03 0.  0.
        -13    1    3    3    0    0  0.55215004379E+02  0.10390067406E+03 -0.24221114768E+03  0.26927736259E+03  0.10566000000E+00 0.  1.
          4    1    3    3  501    0  0.32590380607E+03 -0.34285909124E+03  0.88003439784E+03  0.99911270067E+03  0.00000000000E+00 0.  1.
         13    1    4    4    0    0 -0.70449460698E+03  0.25108725229E+03 -0.22507957943E+02  0.74824065571E+03  0.10566000000E+00 0. -1.
         -4    1    4    4    0  503  0.32337579653E+03 -0.12128835110E+02 -0.56496100511E+02  0.32849782921E+03  0.00000000000E+00 0. -1.
<mgrwt>
<rscale>  2 0.10906816E+04</rscale>
<asrwt>0</asrwt>
<pdfrwt beam="1">  1       21 0.22338060E+00 0.10963553E+04</pdfrwt>
<pdfrwt beam="2">  1       21 0.13740841E+00 0.10963553E+04</pdfrwt>
<totfact> 0.15415336E+01</totfact>
</mgrwt>
</event>
<event>
 8    1  0.7418332E-006  0.1010371E+04  0.7818608E-02  0.8769674E-01
         21   -1    0    0  501  502  0.00000000000E+00  0.00000000000E+00  0.10463326101E+04  0.10463326101E+04  0.00000000000E+00 0. -1.
         21   -1    0    0  502  503 -0.00000000000E+00 -0.00000000000E+00 -0.11860839763E+04  0.11860839763E+04  0.00000000000E+00 0. -1.
    9000010    2    1    2  501    0 -0.59637497669E+02 -0.14032509887E+03  0.42102777776E+03  0.10945837588E+04  0.99880000541E+03 0.  0.
   -9000010    2    1    2    0  503  0.59637497669E+02  0.14032509887E+03 -0.56077914398E+03  0.11378328277E+04  0.97823439464E+03 0.  0.
        -13    1    3    3    0    0 -0.15652219563E+03  0.27593257773E+03 -0.17411978038E+03  0.36187801019E+03  0.10566000000E+00 0.  1.
          4    1    3    3  501    0  0.96884697964E+02 -0.41625767660E+03  0.59514755814E+03  0.73270574857E+03  0.00000000000E+00 0.  1.
         13    1    4    4    0    0 -0.25727503443E+03  0.25454107829E+03 -0.68829073412E+03  0.77764114456E+03  0.10566000000E+00 0. -1.
         -4    1    4    4    0  503  0.31691253209E+03 -0.11421597942E+03  0.12751159013E+03  0.36019168310E+03  0.00000000000E+00 0. -1.
<mgrwt>
<rscale>  2 0.10052507E+04</rscale>
<asrwt>0</asrwt>
<pdfrwt beam="1">  1       21 0.16097425E+00 0.10103708E+04</pdfrwt>
<pdfrwt beam="2">  1       21 0.18247446E+00 0.10103708E+04</pdfrwt>
<totfact> 0.20116831E+01</totfact>
</mgrwt>
</event>
<event>
 8    1  0.7418332E-006  0.1029181E+04  0.7818608E-02  0.8761192E-01
         21   -1    0    0  501  502  0.00000000000E+00  0.00000000000E+00  0.14330188937E+04  0.14330188937E+04  0.00000000000E+00 0.  1.
         21   -1    0    0  502  503 -0.00000000000E+00 -0.00000000000E+00 -0.75500919481E+03  0.75500919481E+03  0.00000000000E+00 0.  1.
    9000010    2    1    2  501    0 -0.95183636360E+02 -0.38992026391E+02  0.29783005596E+02  0.97171731171E+03  0.96579873872E+03 0.  0.
   -9000010    2    1    2    0  503  0.95183636360E+02  0.38992026391E+02  0.64822669327E+03  0.12163107768E+04  0.10240282013E+04 0.  0.
        -13    1    3    3    0    0  0.14370811637E+03 -0.18180262251E+03  0.42750860392E+03  0.48627958404E+03  0.10566000000E+00 0.  1.
          4    1    3    3  501    0 -0.23889175273E+03  0.14281059612E+03 -0.39772559832E+03  0.48543772767E+03  0.00000000000E+00 0.  1.
         13    1    4    4    0    0 -0.46016529175E+03  0.49969222124E+02  0.20753173892E+03  0.50726566286E+03  0.10566000000E+00 0. -1.
         -4    1    4    4    0  503  0.55534892811E+03 -0.10977195733E+02  0.44069495435E+03  0.70904511392E+03  0.00000000000E+00 0. -1.
<mgrwt>
<rscale>  2 0.10143851E+04</rscale>
<asrwt>0</asrwt>
<pdfrwt beam="1">  1       21 0.22046444E+00 0.10291813E+04</pdfrwt>
<pdfrwt beam="2">  1       21 0.11615526E+00 0.10291813E+04</pdfrwt>
<totfact> 0.26602014E+01</totfact>
</mgrwt>
</event>
<event>
 8    1  0.7418332E-006  0.1012996E+04  0.7818608E-02  0.8764995E-01
         21   -1    0    0  501  502  0.00000000000E+00  0.00000000000E+00  0.12877487344E+04  0.12877487344E+04  0.00000000000E+00 0.  1.
         21   -1    0    0  502  503 -0.00000000000E+00 -0.00000000000E+00 -0.78947424444E+03  0.78947424444E+03  0.00000000000E+00 0.  1.
    9000010    2    1    2  501    0 -0.36812047433E+02 -0.47147910700E+02  0.21158878665E+03  0.10348575930E+04  0.10112281497E+04 0.  0.
   -9000010    2    1    2    0  503  0.36812047433E+02  0.47147910700E+02  0.28668570331E+03  0.10423653859E+04  0.10003793545E+04 0.  0.
        -13    1    3    3    0    0 -0.43479268465E+03  0.15115208461E+03 -0.12522365908E+03  0.47704570773E+03  0.10566000000E+00 0.  1.
          4    1    3    3  501    0  0.39798063722E+03 -0.19829999531E+03  0.33681244573E+03  0.55781188526E+03  0.00000000000E+00 0.  1.
         13    1    4    4    0    0 -0.42619246067E+03 -0.33153054270E+02 -0.93888020851E+02  0.43766895042E+03  0.10566000000E+00 0. -1.
         -4    1    4    4    0  503  0.46300450810E+03  0.80300964970E+02  0.38057372416E+03  0.60469643543E+03  0.00000000000E+00 0. -1.
<mgrwt>
<rscale>  2 0.10102774E+04</rscale>
<asrwt>0</asrwt>
<pdfrwt beam="1">  1       21 0.19811519E+00 0.10129958E+04</pdfrwt>
<pdfrwt beam="2">  1       21 0.12145758E+00 0.10129958E+04</pdfrwt>
<totfact> 0.34992232E+01</totfact>
</mgrwt>
</event>
<event>
 8    1  0.7418332E-006  0.1047080E+04  0.7818608E-02  0.8740045E-01
         21   -1    0    0  503  502  0.00000000000E+00  0.00000000000E+00  0.10720477344E+04  0.10720477344E+04  0.00000000000E+00 0.  1.
         21   -1    0    0  501  503 -0.00000000000E+00 -0.00000000000E+00 -0.15327097304E+04  0.15327097304E+04  0.00000000000E+00 0.  1.
    9000010    2    1    2  501    0  0.11752292282E+03  0.13469938217E+03 -0.10050436596E+04  0.14246183897E+04  0.99371486739E+03 0.  0.
   -9000010    2    1    2    0  502 -0.11752292282E+03 -0.13469938217E+03  0.54438166350E+03  0.11801390751E+04  0.10317079432E+04 0.  0.
        -13    1    3    3    0    0 -0.29029942765E+02  0.18310600059E+03  0.16273508661E+03  0.24668454472E+03  0.10566000000E+00 0.  1.
          4    1    3    3  501    0  0.14655286559E+03 -0.48406618420E+02 -0.11677787462E+04  0.11779338450E+04  0.00000000000E+00 0.  1.
         13    1    4    4    0    0 -0.17960358797E+03  0.37280838784E+03  0.52499854237E+03  0.66848113176E+03  0.10566000000E+00 0. -1.
         -4    1    4    4    0  502  0.62080665151E+02 -0.50750777001E+03  0.19383121126E+02  0.51165794335E+03  0.00000000000E+00 0. -1.
<mgrwt>
<rscale>  2 0.10375985E+04</rscale>
<asrwt>0</asrwt>
<pdfrwt beam="1">  1       21 0.16493042E+00 0.10470802E+04</pdfrwt>
<pdfrwt beam="2">  1       21 0.23580150E+00 0.10470802E+04</pdfrwt>
<totfact> 0.71695655E+00</totfact>
</mgrwt>
</event>
<event>
 8    1  0.7418332E-006  0.1038329E+04  0.7818608E-02  0.8779333E-01
         21   -1    0    0  503  502  0.00000000000E+00  0.00000000000E+00  0.11376956539E+04  0.11376956539E+04  0.00000000000E+00 0. -1.
         21   -1    0    0  501  503 -0.00000000000E+00 -0.00000000000E+00 -0.81942249110E+03  0.81942249110E+03  0.00000000000E+00 0. -1.
    9000010    2    1    2  501    0 -0.11841046254E+01  0.43377677330E+02  0.42274741747E+02  0.10391893402E+04  0.10374219518E+04 0.  0.
   -9000010    2    1    2    0  502  0.11841046254E+01 -0.43377677330E+02  0.27599842100E+03  0.91792880476E+03  0.87437699948E+03 0.  0.
        -13    1    3    3    0    0  0.29733299911E+03  0.43650221123E+03 -0.70552579151E+02  0.53284028597E+03  0.10566000000E+00 0.  1.
          4    1    3    3  501    0 -0.29851710373E+03 -0.39312453390E+03  0.11282732090E+03  0.50634905423E+03  0.00000000000E+00 0.  1.
         13    1    4    4    0    0  0.26316216881E+03 -0.36915337237E+03  0.99452815813E+02  0.46413296927E+03  0.10566000000E+00 0. -1.
         -4    1    4    4    0  502 -0.26197806419E+03  0.32577569504E+03  0.17654560519E+03  0.45379583549E+03  0.00000000000E+00 0. -1.
<mgrwt>
<rscale>  2 0.99496887E+03</rscale>
<asrwt>0</asrwt>
<pdfrwt beam="1">  1       21 0.17503010E+00 0.10383291E+04</pdfrwt>
<pdfrwt beam="2">  1       21 0.12606500E+00 0.10383291E+04</pdfrwt>
<totfact> 0.48005459E+01</totfact>
</mgrwt>
</event>
<event>
 8    1  0.7418332E-006  0.1015965E+04  0.7818608E-02  0.8761159E-01
         21   -1    0    0  501  502  0.00000000000E+00  0.00000000000E+00  0.79687315196E+03  0.79687315196E+03  0.00000000000E+00 0. -1.
         21   -1    0    0  502  503 -0.00000000000E+00 -0.00000000000E+00 -0.12892609641E+04  0.12892609641E+04  0.00000000000E+00 0. -1.
    9000010    2    1    2  501    0  0.68454126836E+01 -0.45267465494E+02 -0.20632298967E+03  0.10306639833E+04  0.10087631373E+04 0.  0.
   -9000010    2    1    2    0  503 -0.68454126836E+01  0.45267465494E+02 -0.28606482251E+03  0.10554701328E+04  0.10149325670E+04 0.  0.
        -13    1    3    3    0    0 -0.47293782886E+03 -0.41398650681E+02 -0.27080382145E+03  0.54655169849E+03  0.10566000000E+00 0.  1.
          4    1    3    3  501    0  0.47978324154E+03 -0.38688148123E+01  0.64480831785E+02  0.48411228476E+03  0.00000000000E+00 0.  1.
         13    1    4    4    0    0  0.47577988116E+03 -0.66706267876E+02  0.57609051010E+01  0.48046791848E+03  0.10566000000E+00 0. -1.
         -4    1    4    4    0  503 -0.48262529385E+03  0.11197373337E+03 -0.29182572761E+03  0.57500221436E+03  0.00000000000E+00 0. -1.
<mgrwt>
<rscale>  2 0.10144203E+04</rscale>
<asrwt>0</asrwt>
<pdfrwt beam="1">  1       21 0.12259587E+00 0.10159646E+04</pdfrwt>
<pdfrwt beam="2">  1       21 0.19834784E+00 0.10159646E+04</pdfrwt>
<totfact> 0.33920143E+01</totfact>
</mgrwt>
</event>
<event>
 8    1  0.7418332E-006  0.1207899E+04  0.7818608E-02  0.8641928E-01
         21   -1    0    0  503  502  0.00000000000E+00  0.00000000000E+00  0.76756832825E+03  0.76756832825E+03  0.00000000000E+00 0. -1.
         21   -1    0    0  501  503 -0.00000000000E+00 -0.00000000000E+00 -0.20899635218E+04  0.20899635218E+04  0.00000000000E+00 0. -1.
    9000010    2    1    2  501    0  0.16765521887E+03 -0.67789726490E+02 -0.13984668843E+04  0.18478986591E+04  0.11942847685E+04 0.  0.
   -9000010    2    1    2    0  502 -0.16765521887E+03  0.67789726490E+02  0.76071690718E+02  0.10096331910E+04  0.99038808498E+03 0.  0.
        -13    1    3    3    0    0  0.63510232711E+03 -0.26714620449E+03 -0.92439003133E+03  0.11529176040E+04  0.10566000000E+00 0.  1.
          4    1    3    3  501    0 -0.46744710825E+03  0.19935647800E+03 -0.47407685298E+03  0.69498105503E+03  0.00000000000E+00 0.  1.
         13    1    4    4    0    0 -0.26174864956E+03  0.46732268575E+03  0.21373136953E+03  0.57670092565E+03  0.10566000000E+00 0. -1.
         -4    1    4    4    0  502  0.94093430693E+02 -0.39953295926E+03 -0.13765967881E+03  0.43293226538E+03  0.00000000000E+00 0. -1.
<mgrwt>
<rscale>  2 0.11541302E+04</rscale>
<asrwt>0</asrwt>
<pdfrwt beam="1">  1       21 0.11808744E+00 0.12078989E+04</pdfrwt>
<pdfrwt beam="2">  1       21 0.32153285E+00 0.12078989E+04</pdfrwt>
<totfact> 0.45734388E+00</totfact>
</mgrwt>
</event>
<event>
 8    1  0.7418332E-006  0.1182830E+04  0.7818608E-02  0.8657392E-01
         21   -1    0    0  501  502  0.00000000000E+00  0.00000000000E+00  0.89702838479E+03  0.89702838479E+03  0.00000000000E+00 0.  1.
         21   -1    0    0  502  503 -0.00000000000E+00 -0.00000000000E+00 -0.17902625386E+04  0.17902625386E+04  0.00000000000E+00 0.  1.
    9000010    2    1    2  501    0 -0.10601585967E+03  0.17314481622E+03  0.26023982347E+03  0.10351442456E+04  0.98111179462E+03 0.  0.
   -9000010    2    1    2    0  503  0.10601585967E+03 -0.17314481622E+03 -0.11534739773E+04  0.16521466778E+04  0.11652759068E+04 0.  0.
        -13    1    3    3    0    0 -0.20299968287E+03  0.41077550711E+03  0.50402050006E+03  0.68116228913E+03  0.10566000000E+00 0.  1.
          4    1    3    3  501    0  0.96983823202E+02 -0.23763069089E+03 -0.24378067658E+03  0.35398195645E+03  0.00000000000E+00 0.  1.
         13    1    4    4    0    0 -0.13940769701E+03  0.15139147263E+03  0.17037926060E+03  0.26717594873E+03  0.10566000000E+00 0. -1.
         -4    1    4    4    0  503  0.24542355668E+03 -0.32453628885E+03 -0.13238532379E+04  0.13849707291E+04  0.00000000000E+00 0. -1.
<mgrwt>
<rscale>  2 0.11347431E+04</rscale>
<asrwt>0</asrwt>
<pdfrwt beam="1">  1       21 0.13800437E+00 0.11828298E+04</pdfrwt>
<pdfrwt beam="2">  1       21 0.27542501E+00 0.11828298E+04</pdfrwt>
<totfact> 0.62279453E+00</totfact>
</mgrwt>
</event>
<event>
 8    1  0.7418332E-006  0.1015642E+04  0.7818608E-02  0.8761803E-01
         21   -1    0    0  503  502  0.00000000000E+00  0.00000000000E+00  0.82972358446E+03  0.82972358446E+03  0.00000000000E+00 0.  1.
         21   -1    0    0  501  503 -0.00000000000E+00 -0.00000000000E+00 -0.12875577806E+04  0.12875577806E+04  0.00000000000E+00 0.  1.
    9000010    2    1    2  501    0 -0.97460080468E+02 -0.16077560520E+03 -0.44591434717E+03  0.11092196584E+04  0.99808886535E+03 0.  0.
   -9000010    2    1    2    0  502  0.97460080468E+02  0.16077560520E+03 -0.11919849000E+02  0.10080617066E+04  0.99030250887E+03 0.  0.
        -13    1    3    3    0    0  0.10050025474E+03 -0.56053991250E+03 -0.24357989035E+03  0.61938394300E+03  0.10566000000E+00 0.  1.
          4    1    3    3  501    0 -0.19796033520E+03  0.39976430729E+03 -0.20233445681E+03  0.48983571543E+03  0.00000000000E+00 0.  1.
         13    1    4    4    0    0  0.24809620021E+02  0.18846377044E+03  0.47674816885E+03  0.51324744293E+03  0.10566000000E+00 0. -1.
         -4    1    4    4    0  502  0.72650460448E+02 -0.27688165233E+02 -0.48866801785E+03  0.49481426371E+03  0.00000000000E+00 0. -1.
<mgrwt>
<rscale>  2 0.10137239E+04</rscale>
<asrwt>0</asrwt>
<pdfrwt beam="1">  1       21 0.12764978E+00 0.10156420E+04</pdfrwt>
<pdfrwt beam="2">  1       21 0.19808581E+00 0.10156420E+04</pdfrwt>
<totfact> 0.30382174E+01</totfact>
</mgrwt>
</event>
<event>
 8    1  0.7418332E-006  0.1013334E+04  0.7818608E-02  0.8783489E-01
         21   -1    0    0  503  502  0.00000000000E+00  0.00000000000E+00  0.99332387306E+03  0.99332387306E+03  0.00000000000E+00 0. -1.
         21   -1    0    0  501  503 -0.00000000000E+00 -0.00000000000E+00 -0.94806663527E+03  0.94806663527E+03  0.00000000000E+00 0. -1.
    9000010    2    1    2  501    0 -0.20243111636E+03 -0.10904901848E+03 -0.22247673631E+02  0.10135781420E+04  0.98690204458E+03 0.  0.
   -9000010    2    1    2    0  502  0.20243111636E+03  0.10904901848E+03  0.67504911419E+02  0.92781236636E+03  0.89633075859E+03 0.  0.
        -13    1    3    3    0    0 -0.44759639799E+03  0.33896845209E+02  0.33298606413E+03  0.55890183546E+03  0.10566000000E+00 0.  1.
          4    1    3    3  501    0  0.24516528163E+03 -0.14294586369E+03 -0.35523373776E+03  0.45467630651E+03  0.00000000000E+00 0.  1.
         13    1    4    4    0    0  0.43879806145E+03  0.24454239124E+03  0.28646763999E+03  0.57828058913E+03  0.10566000000E+00 0. -1.
         -4    1    4    4    0  502 -0.23636694508E+03 -0.13549337276E+03 -0.21896272857E+03  0.34953177723E+03  0.00000000000E+00 0. -1.
<mgrwt>
<rscale>  2 0.99058409E+03</rscale>
<asrwt>0</asrwt>
<pdfrwt beam="1">  1       21 0.15281906E+00 0.10133339E+04</pdfrwt>
<pdfrwt beam="2">  1       21 0.14585641E+00 0.10133339E+04</pdfrwt>
<totfact> 0.48631608E+01</totfact>
</mgrwt>
</event>
<event>
 8    1  0.7418332E-006  0.1148707E+04  0.7818608E-02  0.8652850E-01
         21   -1    0    0  503  502  0.00000000000E+00  0.00000000000E+00  0.17152422062E+04  0.17152422062E+04  0.00000000000E+00 0.  1.
         21   -1    0    0  501  503 -0.00000000000E+00 -0.00000000000E+00 -0.12422145312E+04  0.12422145312E+04  0.00000000000E+00 0. -1.
    9000010    2    1    2  501    0 -0.51609354317E+03  0.44071145445E+02 -0.69461010576E+03  0.13423899459E+04  0.10252964238E+04 0.  0.
   -9000010    2    1    2    0  502  0.51609354317E+03 -0.44071145445E+02  0.11676377808E+04  0.16150667915E+04  0.98831570998E+03 0.  0.
        -13    1    3    3    0    0 -0.39418976383E+03 -0.34500125943E+03  0.14920408980E+02  0.52405540612E+03  0.10566000000E+00 0.  1.
          4    1    3    3  501    0 -0.12190377934E+03  0.38907240487E+03 -0.70953051474E+03  0.81833453978E+03  0.00000000000E+00 0.  1.
         13    1    4    4    0    0  0.44124598283E+03 -0.44062923958E+03  0.99909047976E+03  0.11777240517E+04  0.10566000000E+00 0. -1.
         -4    1    4    4    0  502  0.74847560335E+02  0.39655809414E+03  0.16854730108E+03  0.43734273975E+03  0.00000000000E+00 0. -1.
<mgrwt>
<rscale>  2 0.11403964E+04</rscale>
<asrwt>0</asrwt>
<pdfrwt beam="1">  1       21 0.26388342E+00 0.11487069E+04</pdfrwt>
<pdfrwt beam="2">  1       21 0.19110993E+00 0.11487069E+04</pdfrwt>
<totfact> 0.26623015E+00</totfact>
</mgrwt>
</event>
<event>
 8    1  0.7418332E-006  0.1102897E+04  0.7818608E-02  0.8688958E-01
         21   -1    0    0  501  502  0.00000000000E+00  0.00000000000E+00  0.21099824119E+04  0.21099824119E+04  0.00000000000E+00 0. -1.
         21   -1    0    0  502  503 -0.00000000000E+00 -0.00000000000E+00 -0.57787023565E+03  0.57787023565E+03  0.00000000000E+00 0. -1.
    9000010    2    1    2  501    0 -0.28298249093E+03 -0.31372597540E+03  0.98992283013E+03  0.14820019357E+04  0.10187636871E+04 0.  0.
   -9000010    2    1    2    0  503  0.28298249093E+03  0.31372597540E+03  0.54218934612E+03  0.12058507118E+04  0.99075908995E+03 0.  0.
        -13    1    3    3    0    0  0.20912841348E+03  0.13733535521E+03  0.71949108036E+03  0.76175003709E+03  0.10566000000E+00 0.  1.
          4    1    3    3  501    0 -0.49211090441E+03 -0.45106133061E+03  0.27043174977E+03  0.72025189864E+03  0.00000000000E+00 0.  1.
         13    1    4    4    0    0  0.34663855347E+03 -0.13367139303E+03 -0.13195367978E+03  0.39425640494E+03  0.10566000000E+00 0. -1.
         -4    1    4    4    0  503 -0.63656062536E+02  0.44739736844E+03  0.67414302589E+03  0.81159430687E+03  0.00000000000E+00 0. -1.
<mgrwt>
<rscale>  2 0.10963862E+04</rscale>
<asrwt>0</asrwt>
<pdfrwt beam="1">  1       21 0.32461267E+00 0.11028973E+04</pdfrwt>
<pdfrwt beam="2">  1       21 0.88903114E-01 0.11028973E+04</pdfrwt>
<totfact> 0.94379771E+00</totfact>
</mgrwt>
</event>
<event>
 8    1  0.7418332E-006  0.1021607E+04  0.7818608E-02  0.8759680E-01
         21   -1    0    0  501  502  0.00000000000E+00  0.00000000000E+00  0.16739359365E+04  0.16739359365E+04  0.00000000000E+00 0.  1.
         21   -1    0    0  502  503 -0.00000000000E+00 -0.00000000000E+00 -0.62476926759E+03  0.62476926759E+03  0.00000000000E+00 0.  1.
    9000010    2    1    2  501    0  0.11496883447E+03  0.19538995100E+03  0.69541594124E+03  0.12175852472E+04  0.97340404614E+03 0.  0.
   -9000010    2    1    2    0  503 -0.11496883447E+03 -0.19538995100E+03  0.35375072771E+03  0.10811199569E+04  0.99613539142E+03 0.  0.
        -13    1    3    3    0    0  0.14986203890E+03 -0.28440446551E+03  0.66132186339E+03  0.73531703970E+03  0.10566000000E+00 0.  1.
          4    1    3    3  501    0 -0.34893204432E+02  0.47979441651E+03  0.34094077847E+02  0.48226820751E+03  0.00000000000E+00 0.  1.
         13    1    4    4    0    0  0.40789688733E+03 -0.24714865993E+03  0.27297768695E+03  0.54952630468E+03  0.10566000000E+00 0. -1.
         -4    1    4    4    0  503 -0.52286572180E+03  0.51758708928E+02  0.80773040765E+02  0.53159365224E+03  0.00000000000E+00 0. -1.
<mgrwt>
<rscale>  2 0.10160234E+04</rscale>
<asrwt>0</asrwt>
<pdfrwt beam="1">  1       21 0.25752860E+00 0.10216070E+04</pdfrwt>
<pdfrwt beam="2">  1       21 0.96118350E-01 0.10216070E+04</pdfrwt>
<totfact> 0.23567244E+01</totfact>
</mgrwt>
</event>
<event>
 8    1  0.7418332E-006  0.1011502E+04  0.7818608E-02  0.8764869E-01
         21   -1    0    0  501  502  0.00000000000E+00  0.00000000000E+00  0.14113255289E+04  0.14113255289E+04  0.00000000000E+00 0. -1.
         21   -1    0    0  502  503 -0.00000000000E+00 -0.00000000000E+00 -0.90549767266E+03  0.90549767266E+03  0.00000000000E+00 0. -1.
    9000010    2    1    2  501    0  0.27447014414E+02  0.37513510499E+02  0.77506190689E+03  0.12743066519E+04  0.10104335117E+04 0.  0.
   -9000010    2    1    2    0  503 -0.27447014414E+02 -0.37513510499E+02 -0.26923405064E+03  0.10425165497E+04  0.10060781184E+04 0.  0.
        -13    1    3    3    0    0  0.17744573230E+03  0.36597480768E+03 -0.13557757435E+02  0.40695008504E+03  0.10566000000E+00 0.  1.
          4    1    3    3  501    0 -0.14999871789E+03 -0.32846129718E+03  0.78861966433E+03  0.86735656686E+03  0.00000000000E+00 0.  1.
         13    1    4    4    0    0 -0.71482977527E+02 -0.35371386685E+03  0.24575517590E+03  0.43659928233E+03  0.10566000000E+00 0. -1.
         -4    1    4    4    0  503  0.44035963113E+02  0.31620035636E+03 -0.51498922654E+03  0.60591726734E+03  0.00000000000E+00 0. -1.
<mgrwt>
<rscale>  2 0.10104126E+04</rscale>
<asrwt>0</asrwt>
<pdfrwt beam="1">  1       21 0.21712700E+00 0.10115021E+04</pdfrwt>
<pdfrwt beam="2">  1       21 0.13930734E+00 0.10115021E+04</pdfrwt>
<totfact> 0.16819937E+01</totfact>
</mgrwt>
</event>
<event>
 8    1  0.7418332E-006  0.1022956E+04  0.7818608E-02  0.8761473E-01
         21   -1    0    0  501  502  0.00000000000E+00  0.00000000000E+00  0.57757948024E+03  0.57757948024E+03  0.00000000000E+00 0. -1.
         21   -1    0    0  502  503 -0.00000000000E+00 -0.00000000000E+00 -0.17837000255E+04  0.17837000255E+04  0.00000000000E+00 0. -1.
    9000010    2    1    2  501    0 -0.50649921728E+01 -0.23760721306E+03 -0.45168144434E+03  0.11182377151E+04  0.99496563684E+03 0.  0.
   -9000010    2    1    2    0  503  0.50649921728E+01  0.23760721306E+03 -0.75443910096E+03  0.12430417907E+04  0.95890129547E+03 0.  0.
        -13    1    3    3    0    0 -0.48892172872E+03 -0.20415272417E+03 -0.16545345795E+03  0.55506544616E+03  0.10566000000E+00 0.  1.
          4    1    3    3  501    0  0.48385673655E+03 -0.33454488898E+02 -0.28622798639E+03  0.56317226896E+03  0.00000000000E+00 0.  1.
         13    1    4    4    0    0  0.64778587289E+02 -0.27110459376E+03  0.56004557712E+02  0.28430703083E+03  0.10566000000E+00 0. -1.
         -4    1    4    4    0  503 -0.59713595116E+02  0.50871180683E+03 -0.81044365867E+03  0.95873475984E+03  0.00000000000E+00 0. -1.
<mgrwt>
<rscale>  2 0.10140809E+04</rscale>
<asrwt>0</asrwt>
<pdfrwt beam="1">  1       21 0.88858380E-01 0.10229562E+04</pdfrwt>
<pdfrwt beam="2">  1       21 0.27441539E+00 0.10229562E+04</pdfrwt>
<totfact> 0.21783893E+01</totfact>
</mgrwt>
</event>
<event>
 8    1  0.7418332E-006  0.1015055E+04  0.7818608E-02  0.8764630E-01
         21   -1    0    0  501  502  0.00000000000E+00  0.00000000000E+00  0.10176265375E+04  0.10176265375E+04  0.00000000000E+00 0.  1.
         21   -1    0    0  502  503 -0.00000000000E+00 -0.00000000000E+00 -0.11730683059E+04  0.11730683059E+04  0.00000000000E+00 0.  1.
    9000010    2    1    2  501    0 -0.80463192148E+02 -0.48521287073E+00  0.34937769805E+03  0.10570376150E+04  0.99437879249E+03 0.  0.
   -9000010    2    1    2    0  503  0.80463192148E+02  0.48521287073E+00 -0.50481946641E+03  0.11336572284E+04  0.10118603940E+04 0.  0.
        -13    1    3    3    0    0  0.43423198448E+03 -0.42754309384E+02  0.31750956101E+03  0.53962735273E+03  0.10566000000E+00 0.  1.
          4    1    3    3  501    0 -0.51469517663E+03  0.42269096513E+02  0.31868137038E+02  0.51741026229E+03  0.00000000000E+00 0.  1.
         13    1    4    4    0    0  0.81399774848E+02  0.38992630621E+03 -0.61156598515E+03  0.72985026751E+03  0.10566000000E+00 0. -1.
         -4    1    4    4    0  503 -0.93658270021E+00 -0.38944109334E+03  0.10674651875E+03  0.40380696085E+03  0.00000000000E+00 0. -1.
<mgrwt>
<rscale>  2 0.10106700E+04</rscale>
<asrwt>0</asrwt>
<pdfrwt beam="1">  1       21 0.15655793E+00 0.10150547E+04</pdfrwt>
<pdfrwt beam="2">  1       21 0.18047205E+00 0.10150547E+04</pdfrwt>
<totfact> 0.22782747E+01</totfact>
</mgrwt>
</event>
<event>
 8    1  0.7418332E-006  0.1023506E+04  0.7818608E-02  0.8758542E-01
         21   -1    0    0  503  502  0.00000000000E+00  0.00000000000E+00  0.70897176244E+03  0.70897176244E+03  0.00000000000E+00 0.  1.
         21   -1    0    0  501  503 -0.00000000000E+00 -0.00000000000E+00 -0.15706831559E+04  0.15706831559E+04  0.00000000000E+00 0.  1.
    9000010    2    1    2  501    0  0.13015930892E+03 -0.91791646559E+02 -0.10954055980E+03  0.10293513765E+04  0.10110380656E+04 0.  0.
   -9000010    2    1    2    0  502 -0.13015930892E+03  0.91791646559E+02 -0.75217083363E+03  0.12503035418E+04  0.98596695255E+03 0.  0.
        -13    1    3    3    0    0  0.82487655834E+02 -0.27851496081E+03  0.39439842440E+03  0.48982131956E+03  0.10566000000E+00 0.  1.
          4    1    3    3  501    0  0.47671653089E+02  0.18672331425E+03 -0.50393898420E+03  0.53953005698E+03  0.00000000000E+00 0.  1.
         13    1    4    4    0    0 -0.37507115858E+03  0.52155315195E+02 -0.88948682283E+03  0.96673955648E+03  0.10566000000E+00 0. -1.
         -4    1    4    4    0  502  0.24491184966E+03  0.39636331363E+02  0.13731598920E+03  0.28356398530E+03  0.00000000000E+00 0. -1.
<mgrwt>
<rscale>  2 0.10172598E+04</rscale>
<asrwt>0</asrwt>
<pdfrwt beam="1">  1       21 0.10907258E+00 0.10235063E+04</pdfrwt>
<pdfrwt beam="2">  1       21 0.24164356E+00 0.10235063E+04</pdfrwt>
<totfact> 0.22024220E+01</totfact>
</mgrwt>
</event>
<event>
 8    1  0.7418332E-006  0.9755916E+03  0.7818608E-02  0.8816578E-01
         21   -1    0    0  503  502  0.00000000000E+00  0.00000000000E+00  0.12018259988E+04  0.12018259988E+04  0.00000000000E+00 0. -1.
         21   -1    0    0  501  503 -0.00000000000E+00 -0.00000000000E+00 -0.12388477649E+04  0.12388477649E+04  0.00000000000E+00 0. -1.
    9000010    2    1    2  501    0 -0.32619853321E+03  0.56204923136E+02 -0.79760957696E+03  0.12036317785E+04  0.83844137810E+03 0.  0.
   -9000010    2    1    2    0  502  0.32619853321E+03 -0.56204923136E+02  0.76058781083E+03  0.12370419852E+04  0.91772249545E+03 0.  0.
        -13    1    3    3    0    0 -0.13090828589E+03 -0.27620740595E+03 -0.75649510830E+03  0.81591198696E+03  0.10566000000E+00 0.  1.
          4    1    3    3  501    0 -0.19529024732E+03  0.33241232908E+03 -0.41114468659E+02  0.38771979155E+03  0.00000000000E+00 0.  1.
         13    1    4    4    0    0  0.51326673032E+03 -0.34201883832E+03  0.59667055859E+03  0.85815813745E+03  0.10566000000E+00 0. -1.
         -4    1    4    4    0  502 -0.18706819711E+03  0.28581391519E+03  0.16391725224E+03  0.37888384772E+03  0.00000000000E+00 0. -1.
<mgrwt>
<rscale>  2 0.95649391E+03</rscale>
<asrwt>0</asrwt>
<pdfrwt beam="1">  1       21 0.18489631E+00 0.97559164E+03</pdfrwt>
<pdfrwt beam="2">  1       21 0.19059196E+00 0.97559164E+03</pdfrwt>
<totfact> 0.11045968E+01</totfact>
</mgrwt>
</event>
<event>
 8    1  0.7418332E-006  0.1015053E+04  0.7818608E-02  0.8762067E-01
         21   -1    0    0  501  502  0.00000000000E+00  0.00000000000E+00  0.87442787069E+03  0.87442787069E+03  0.00000000000E+00 0. -1.
         21   -1    0    0  502  503 -0.00000000000E+00 -0.00000000000E+00 -0.11859480899E+04  0.11859480899E+04  0.00000000000E+00 0. -1.
    9000010    2    1    2  501    0  0.55803893575E+01 -0.14570359574E+03 -0.39920909340E+02  0.10158372899E+04  0.10045252820E+04 0.  0.
   -9000010    2    1    2    0  503 -0.55803893575E+01  0.14570359574E+03 -0.27159930990E+03  0.10445386707E+04  0.99801511553E+03 0.  0.
        -13    1    3    3    0    0 -0.46726349118E+03  0.10483513854E+03  0.42636901997E+01  0.47889849308E+03  0.10566000000E+00 0.  1.
          4    1    3    3  501    0  0.47284388053E+03 -0.25053873429E+03 -0.44184599540E+02  0.53693879686E+03  0.00000000000E+00 0.  1.
         13    1    4    4    0    0  0.26776550286E+03 -0.65909777083E+02  0.28037077756E+03  0.39325595648E+03  0.10566000000E+00 0. -1.
         -4    1    4    4    0  503 -0.27334589222E+03  0.21161337283E+03 -0.55197008745E+03  0.65128271418E+03  0.00000000000E+00 0. -1.
<mgrwt>
<rscale>  2 0.10134382E+04</rscale>
<asrwt>0</asrwt>
<pdfrwt beam="1">  1       21 0.13452736E+00 0.10150526E+04</pdfrwt>
<pdfrwt beam="2">  1       21 0.18245355E+00 0.10150526E+04</pdfrwt>
<totfact> 0.34774741E+01</totfact>
</mgrwt>
</event>
<event>
 8    1  0.7418332E-006  0.1035850E+04  0.7818608E-02  0.8748771E-01
         21   -1    0    0  503  502  0.00000000000E+00  0.00000000000E+00  0.11497184723E+04  0.11497184723E+04  0.00000000000E+00 0. -1.
         21   -1    0    0  501  503 -0.00000000000E+00 -0.00000000000E+00 -0.97454278258E+03  0.97454278258E+03  0.00000000000E+00 0. -1.
    9000010    2    1    2  501    0 -0.17057293260E+02  0.34452825773E+02 -0.19674168763E+03  0.10236670804E+04  0.10038471255E+04 0.  0.
   -9000010    2    1    2    0  502  0.17057293260E+02 -0.34452825773E+02  0.37191737733E+03  0.11005941744E+04  0.10351362484E+04 0.  0.
        -13    1    3    3    0    0 -0.11876794529E+03  0.49441593890E+03  0.11515882645E+02  0.50861141571E+03  0.10566000000E+00 0.  1.
          4    1    3    3  501    0  0.10171065203E+03 -0.45996311313E+03 -0.20825757028E+03  0.51505566472E+03  0.00000000000E+00 0.  1.
         13    1    4    4    0    0  0.49062007884E+03 -0.41965851022E+02  0.38767987512E+03  0.62670957480E+03  0.10566000000E+00 0. -1.
         -4    1    4    4    0  502 -0.47356278558E+03  0.75130252494E+01 -0.15762497786E+02  0.47388459964E+03  0.00000000000E+00 0. -1.
<mgrwt>
<rscale>  2 0.10279431E+04</rscale>
<asrwt>0</asrwt>
<pdfrwt beam="1">  1       21 0.17687976E+00 0.10358499E+04</pdfrwt>
<pdfrwt beam="2">  1       21 0.14992966E+00 0.10358499E+04</pdfrwt>
<totfact> 0.27755178E+01</totfact>
</mgrwt>
</event>
<event>
 8    1  0.7418332E-006  0.1015008E+04  0.7818608E-02  0.8766446E-01
         21   -1    0    0  501  502  0.00000000000E+00  0.00000000000E+00  0.38232229073E+03  0.38232229073E+03  0.00000000000E+00 0.  1.
         21   -1    0    0  502  503 -0.00000000000E+00 -0.00000000000E+00 -0.28057780808E+04  0.28057780808E+04  0.00000000000E+00 0.  1.
    9000010    2    1    2  501    0 -0.16972849085E+03  0.63613877743E+02 -0.82563776071E+03  0.13084033625E+04  0.99869272599E+03 0.  0.
   -9000010    2    1    2    0  503  0.16972849085E+03 -0.63613877743E+02 -0.15978180294E+04  0.18796970091E+04  0.97333648082E+03 0.  0.
        -13    1    3    3    0    0 -0.26759221025E+03  0.11893683834E+03  0.14813009578E+03  0.32816779084E+03  0.10566000000E+00 0.  1.
          4    1    3    3  501    0  0.97863719398E+02 -0.55322960597E+02 -0.97376785649E+03  0.98023557162E+03  0.00000000000E+00 0.  1.
         13    1    4    4    0    0 -0.25793336053E+03  0.31533197804E+02 -0.41822535403E+02  0.26319782802E+03  0.10566000000E+00 0. -1.
         -4    1    4    4    0  503  0.42766185139E+03 -0.95147075547E+02 -0.15559954940E+04  0.16164991810E+04  0.00000000000E+00 0. -1.
<mgrwt>
<rscale>  2 0.10087153E+04</rscale>
<asrwt>0</asrwt>
<pdfrwt beam="1">  1       21 0.58818812E-01 0.10150082E+04</pdfrwt>
<pdfrwt beam="2">  1       21 0.43165818E+00 0.10150082E+04</pdfrwt>
<totfact> 0.46381092E+00</totfact>
</mgrwt>
</event>
<event>
 8    1  0.7418332E-006  0.1157162E+04  0.7818608E-02  0.8662537E-01
         21   -1    0    0  503  502  0.00000000000E+00  0.00000000000E+00  0.22992415413E+04  0.22992415413E+04  0.00000000000E+00 0.  1.
         21   -1    0    0  501  503 -0.00000000000E+00 -0.00000000000E+00 -0.63426611079E+03  0.63426611079E+03  0.00000000000E+00 0.  1.
    9000010    2    1    2  501    0 -0.29375211608E+03 -0.20899460777E+02  0.19759472229E+03  0.10647567733E+04  0.10039602675E+04 0.  0.
   -9000010    2    1    2    0  502  0.29375211608E+03  0.20899460777E+02  0.14673807082E+04  0.18687508788E+04  0.11190605931E+04 0.  0.
        -13    1    3    3    0    0  0.66255049438E+02 -0.38484142727E+03 -0.17866836116E+03  0.42943573461E+03  0.10566000000E+00 0.  1.
          4    1    3    3  501    0 -0.36000716551E+03  0.36394196649E+03  0.37626308345E+03  0.63532103866E+03  0.00000000000E+00 0.  1.
         13    1    4    4    0    0 -0.42093433196E+03 -0.56851326640E+02  0.68701291066E+03  0.80771562802E+03  0.10566000000E+00 0. -1.
         -4    1    4    4    0  502  0.71468644804E+03  0.77750787417E+02  0.78036779754E+03  0.10610352508E+04  0.00000000000E+00 0. -1.
<mgrwt>
<rscale>  2 0.11283808E+04</rscale>
<asrwt>0</asrwt>
<pdfrwt beam="1">  1       21 0.35372946E+00 0.11571619E+04</pdfrwt>
<pdfrwt beam="2">  1       21 0.97579403E-01 0.11571619E+04</pdfrwt>
<totfact> 0.45900508E+00</totfact>
</mgrwt>
</event>
<event>
 8    1  0.7418332E-006  0.1011807E+04  0.7818608E-02  0.8765556E-01
         21   -1    0    0  503  502  0.00000000000E+00  0.00000000000E+00  0.14361945215E+04  0.14361945215E+04  0.00000000000E+00 0.  1.
         21   -1    0    0  501  503 -0.00000000000E+00 -0.00000000000E+00 -0.70790827122E+03  0.70790827122E+03  0.00000000000E+00 0.  1.
    9000010    2    1    2  501    0  0.56983233909E+02  0.14250004334E+03  0.40422832988E+03  0.10816685329E+04  0.99149025265E+03 0.  0.
   -9000010    2    1    2    0  502 -0.56983233909E+02 -0.14250004334E+03  0.32405792045E+03  0.10624342599E+04  0.10000998297E+04 0.  0.
        -13    1    3    3    0    0  0.36693886520E+02 -0.39381843908E+03 -0.22253566934E+02  0.39614976546E+03  0.10566000000E+00 0.  1.
          4    1    3    3  501    0  0.20289347389E+02  0.53631848242E+03  0.42648189681E+03  0.68551876744E+03  0.00000000000E+00 0.  1.
         13    1    4    4    0    0  0.34902836849E+03 -0.38113514137E+03  0.54168100654E+02  0.51963351729E+03  0.10566000000E+00 0. -1.
         -4    1    4    4    0  502 -0.40601160240E+03  0.23863509804E+03  0.26988981979E+03  0.54280074256E+03  0.00000000000E+00 0. -1.
<mgrwt>
<rscale>  2 0.10096728E+04</rscale>
<asrwt>0</asrwt>
<pdfrwt beam="1">  1       21 0.22095300E+00 0.10118068E+04</pdfrwt>
<pdfrwt beam="2">  1       21 0.10890897E+00 0.10118068E+04</pdfrwt>
<totfact> 0.31575551E+01</totfact>
</mgrwt>
</event>
<event>
 8    1  0.7418332E-006  0.1011024E+04  0.7818608E-02  0.8764660E-01
         21   -1    0    0  503  502  0.00000000000E+00  0.00000000000E+00  0.92646371116E+03  0.92646371116E+03  0.00000000000E+00 0.  1.
         21   -1    0    0  501  503 -0.00000000000E+00 -0.00000000000E+00 -0.11826823347E+04  0.11826823347E+04  0.00000000000E+00 0.  1.
    9000010    2    1    2  501    0 -0.75862648269E+02 -0.62649973218E+02  0.14806783962E+03  0.10202859748E+04  0.10046786674E+04 0.  0.
   -9000010    2    1    2    0  502  0.75862648269E+02  0.62649973218E+02 -0.40428646316E+03  0.10888600711E+04  0.10062249001E+04 0.  0.
        -13    1    3    3    0    0 -0.26873267761E+03 -0.42699140264E+03 -0.13249817136E+03  0.52162696108E+03  0.10566000000E+00 0.  1.
          4    1    3    3  501    0  0.19287002934E+03  0.36434142942E+03  0.28056601099E+03  0.49865901369E+03  0.00000000000E+00 0.  1.
         13    1    4    4    0    0 -0.37833637996E+03  0.25165769273E+03 -0.38658029075E+03  0.59658557062E+03  0.10566000000E+00 0. -1.
         -4    1    4    4    0  502  0.45419902823E+03 -0.18900771951E+03 -0.17706172413E+02  0.49227450048E+03  0.00000000000E+00 0. -1.
<mgrwt>
<rscale>  2 0.10106387E+04</rscale>
<asrwt>0</asrwt>
<pdfrwt beam="1">  1       21 0.14253288E+00 0.10110236E+04</pdfrwt>
<pdfrwt beam="2">  1       21 0.18195113E+00 0.10110236E+04</pdfrwt>
<totfact> 0.29595357E+01</totfact>
</mgrwt>
</event>
<event>
 8    1  0.7418332E-006  0.1068197E+04  0.7818608E-02  0.8715275E-01
         21   -1    0    0  503  502  0.00000000000E+00  0.00000000000E+00  0.18790606493E+04  0.18790606493E+04  0.00000000000E+00 0. -1.
         21   -1    0    0  501  503 -0.00000000000E+00 -0.00000000000E+00 -0.92182597991E+03  0.92182597991E+03  0.00000000000E+00 0.  1.
    9000010    2    1    2  501    0 -0.22762603716E+03  0.29124828427E+03 -0.34553689818E+03  0.11226935461E+04  0.10022005161E+04 0.  0.
   -9000010    2    1    2    0  502  0.22762603716E+03 -0.29124828427E+03  0.13027715676E+04  0.16781930832E+04  0.99120083294E+03 0.  0.
        -13    1    3    3    0    0  0.11090966724E+02  0.49282409373E+03  0.16866963743E+03  0.52100677026E+03  0.10566000000E+00 0.  1.
          4    1    3    3  501    0 -0.23871700388E+03 -0.20157580946E+03 -0.51420653561E+03  0.60168677580E+03  0.00000000000E+00 0.  1.
         13    1    4    4    0    0 -0.47404814107E+02 -0.53599238351E+03  0.31376148163E+03  0.62288147356E+03  0.10566000000E+00 0. -1.
         -4    1    4    4    0  502  0.27503085127E+03  0.24474409924E+03  0.98901008598E+03  0.10553116096E+04  0.00000000000E+00 0. -1.
<mgrwt>
<rscale>  2 0.10656094E+04</rscale>
<asrwt>0</asrwt>
<pdfrwt beam="1">  1       21 0.28908625E+00 0.10681971E+04</pdfrwt>
<pdfrwt beam="2">  1       21 0.14181938E+00 0.10681971E+04</pdfrwt>
<totfact> 0.47095243E+00</totfact>
</mgrwt>
</event>
<event>
 8    1  0.7418332E-006  0.1031433E+04  0.7818608E-02  0.8746183E-01
         21   -1    0    0  503  502  0.00000000000E+00  0.00000000000E+00  0.18372387809E+04  0.18372387809E+04  0.00000000000E+00 0.  1.
         21   -1    0    0  501  503 -0.00000000000E+00 -0.00000000000E+00 -0.72259425810E+03  0.72259425810E+03  0.00000000000E+00 0.  1.
    9000010    2    1    2  501    0  0.23945087903E+03  0.10924157131E+03 -0.16520198372E+02  0.10290206249E+04  0.99465576214E+03 0.  0.
   -9000010    2    1    2    0  502 -0.23945087903E+03 -0.10924157131E+03  0.11311647211E+04  0.15308124141E+04  0.99728760963E+03 0.  0.
        -13    1    3    3    0    0  0.20152482287E+03  0.51608734963E+03 -0.18915596434E+03  0.58543863614E+03  0.10566000000E+00 0.  1.
          4    1    3    3  501    0  0.37926056164E+02 -0.40684577831E+03  0.17263576597E+03  0.44358198877E+03  0.00000000000E+00 0.  1.
         13    1    4    4    0    0 -0.61601568888E+03 -0.46679904885E+02  0.50707521995E+03  0.79923690626E+03  0.10566000000E+00 0. -1.
         -4    1    4    4    0  502  0.37656480985E+03 -0.62561666428E+02  0.62408950118E+03  0.73157550780E+03  0.00000000000E+00 0. -1.
<mgrwt>
<rscale>  2 0.10307958E+04</rscale>
<asrwt>0</asrwt>
<pdfrwt beam="1">  1       21 0.28265212E+00 0.10314325E+04</pdfrwt>
<pdfrwt beam="2">  1       21 0.11116835E+00 0.10314325E+04</pdfrwt>
<totfact> 0.10570935E+01</totfact>
</mgrwt>
</event>
<event>
 8    1  0.7418332E-006  0.1074472E+04  0.7818608E-02  0.8708346E-01
         21   -1    0    0  501  502  0.00000000000E+00  0.00000000000E+00  0.99586897714E+03  0.99586897714E+03  0.00000000000E+00 0.  1.
         21   -1    0    0  502  503 -0.00000000000E+00 -0.00000000000E+00 -0.14936553486E+04  0.14936553486E+04  0.00000000000E+00 0.  1.
    9000010    2    1    2  501    0 -0.23934382515E+03 -0.29114819133E+03  0.34363057784E+03  0.11247995938E+04  0.10025165416E+04 0.  0.
   -9000010    2    1    2    0  503  0.23934382515E+03  0.29114819133E+03 -0.84141694927E+03  0.13647247320E+04  0.10061999680E+04 0.  0.
        -13    1    3    3    0    0 -0.24617333806E+03 -0.42001509682E+03 -0.22885567986E+03  0.53794881475E+03  0.10566000000E+00 0.  1.
          4    1    3    3  501    0  0.68295129131E+01  0.12886690549E+03  0.57248625770E+03  0.58685077901E+03  0.00000000000E+00 0.  1.
         13    1    4    4    0    0  0.11769683000E+03  0.10114714182E+03  0.22576392382E+03  0.27395738456E+03  0.10566000000E+00 0. -1.
         -4    1    4    4    0  503  0.12164699515E+03  0.19000104951E+03 -0.10671808731E+04  0.10907673474E+04  0.00000000000E+00 0. -1.
<mgrwt>
<rscale>  2 0.10736093E+04</rscale>
<asrwt>0</asrwt>
<pdfrwt beam="1">  1       21 0.15321061E+00 0.10744725E+04</pdfrwt>
<pdfrwt beam="2">  1       21 0.22979313E+00 0.10744725E+04</pdfrwt>
<totfact> 0.99701693E+00</totfact>
</mgrwt>
</event>
<event>
 8    1  0.7418332E-006  0.1035466E+04  0.7818608E-02  0.8744325E-01
         21   -1    0    0  503  502  0.00000000000E+00  0.00000000000E+00  0.10258509207E+04  0.10258509207E+04  0.00000000000E+00 0.  1.
         21   -1    0    0  501  503 -0.00000000000E+00 -0.00000000000E+00 -0.10862067704E+04  0.10862067704E+04  0.00000000000E+00 0.  1.
    9000010    2    1    2  501    0  0.25821955804E+03  0.59063978820E+02 -0.26005529738E+03  0.10575102734E+04  0.99021882777E+03 0.  0.
   -9000010    2    1    2    0  502 -0.25821955804E+03 -0.59063978820E+02  0.19969944772E+03  0.10545474177E+04  0.10010117347E+04 0.  0.
        -13    1    3    3    0    0  0.41212412595E+03  0.40868604434E+03  0.24896824770E+02  0.58093927486E+03  0.10566000000E+00 0.  1.
          4    1    3    3  501    0 -0.15390456791E+03 -0.34962206552E+03 -0.28495212215E+03  0.47657099853E+03  0.00000000000E+00 0.  1.
         13    1    4    4    0    0 -0.62679690196E+03  0.12290061021E+02 -0.50189010316E+01  0.62693747889E+03  0.10566000000E+00 0. -1.
         -4    1    4    4    0  502  0.36857734392E+03 -0.71354039841E+02  0.20471834876E+03  0.42760993881E+03  0.00000000000E+00 0. -1.
<mgrwt>
<rscale>  2 0.10328488E+04</rscale>
<asrwt>0</asrwt>
<pdfrwt beam="1">  1       21 0.15782322E+00 0.10354663E+04</pdfrwt>
<pdfrwt beam="2">  1       21 0.16710873E+00 0.10354663E+04</pdfrwt>
<totfact> 0.28537139E+01</totfact>
</mgrwt>
</event>
<event>
 8    1  0.7418332E-006  0.1154614E+04  0.7818608E-02  0.8642323E-01
         21   -1    0    0  501  502  0.00000000000E+00  0.00000000000E+00  0.21426915350E+04  0.21426915350E+04  0.00000000000E+00 0.  1.
         21   -1    0    0  502  503 -0.00000000000E+00 -0.00000000000E+00 -0.19150615670E+04  0.19150615670E+04  0.00000000000E+00 0.  1.
    9000010    2    1    2  501    0 -0.39670628086E+03  0.40028558687E+03  0.17821485385E+04  0.21213487642E+04  0.10032261669E+04 0.  0.
   -9000010    2    1    2    0  503  0.39670628086E+03 -0.40028558687E+03 -0.15545185705E+04  0.19364043378E+04  0.10077347612E+04 0.  0.
        -13    1    3    3    0    0  0.32545735365E+03  0.25599166961E+03  0.65911730879E+03  0.77838927399E+03  0.10566000000E+00 0.  1.
          4    1    3    3  501    0 -0.72216363451E+03  0.14429391727E+03  0.11230312297E+04  0.13429594902E+04  0.00000000000E+00 0.  1.
         13    1    4    4    0    0  0.40173683066E+03 -0.49203573923E+03 -0.16712214839E+04  0.17878682583E+04  0.10566000000E+00 0. -1.
         -4    1    4    4    0  503 -0.50305498036E+01  0.91750152353E+02  0.11670291341E+03  0.14853607941E+03  0.00000000000E+00 0. -1.
<mgrwt>
<rscale>  2 0.11536296E+04</rscale>
<asrwt>0</asrwt>
<pdfrwt beam="1">  1       21 0.32964485E+00 0.11546141E+04</pdfrwt>
<pdfrwt beam="2">  1       21 0.29462485E+00 0.11546141E+04</pdfrwt>
<totfact> 0.15584090E-01</totfact>
</mgrwt>
</event>
<event>
 8    1  0.7418332E-006  0.1092297E+04  0.7818608E-02  0.8700254E-01
         21   -1    0    0  503  502  0.00000000000E+00  0.00000000000E+00  0.17643470044E+04  0.17643470044E+04  0.00000000000E+00 0.  1.
         21   -1    0    0  501  503 -0.00000000000E+00 -0.00000000000E+00 -0.72335159009E+03  0.72335159009E+03  0.00000000000E+00 0.  1.
    9000010    2    1    2  501    0  0.16287959207E+03  0.40135071698E+03  0.14285655603E+03  0.11015987407E+04  0.10027460448E+04 0.  0.
   -9000010    2    1    2    0  502 -0.16287959207E+03 -0.40135071698E+03  0.89813885833E+03  0.13860998539E+04  0.96281215015E+03 0.  0.
        -13    1    3    3    0    0  0.58775188492E+03  0.21159707737E+03  0.11713900931E+03  0.63556837559E+03  0.10566000000E+00 0.  1.
          4    1    3    3  501    0 -0.42487229286E+03  0.18975363960E+03  0.25717546713E+02  0.46603036509E+03  0.00000000000E+00 0.  1.
         13    1    4    4    0    0 -0.19912267916E+02  0.31806000270E+03  0.32577461726E+03  0.45572774345E+03  0.10566000000E+00 0. -1.
         -4    1    4    4    0  502 -0.14296732415E+03 -0.71941071968E+03  0.57236424107E+03  0.93037211040E+03  0.00000000000E+00 0. -1.
<mgrwt>
<rscale>  2 0.10830444E+04</rscale>
<asrwt>0</asrwt>
<pdfrwt beam="1">  1       21 0.27143800E+00 0.10922966E+04</pdfrwt>
<pdfrwt beam="2">  1       21 0.11128486E+00 0.10922966E+04</pdfrwt>
<totfact> 0.12499330E+01</totfact>
</mgrwt>
</event>
<event>
 8    1  0.7418332E-006  0.1007799E+04  0.7818608E-02  0.8777195E-01
         21   -1    0    0  503  502  0.00000000000E+00  0.00000000000E+00  0.11362471833E+04  0.11362471833E+04  0.00000000000E+00 0.  1.
         21   -1    0    0  501  503 -0.00000000000E+00 -0.00000000000E+00 -0.86248199650E+03  0.86248199650E+03  0.00000000000E+00 0.  1.
    9000010    2    1    2  501    0  0.35857352528E+01 -0.22901703255E+03  0.62708370299E+02  0.10097477135E+04  0.98142572137E+03 0.  0.
   -9000010    2    1    2    0  502 -0.35857352528E+01  0.22901703255E+03  0.21105681649E+03  0.98898146626E+03  0.93865739337E+03 0.  0.
        -13    1    3    3    0    0 -0.18619559882E+03  0.34321556452E+03 -0.58428137797E+02  0.39481588519E+03  0.10566000000E+00 0.  1.
          4    1    3    3  501    0  0.18978133407E+03 -0.57223259707E+03  0.12113650810E+03  0.61493182833E+03  0.00000000000E+00 0.  1.
         13    1    4    4    0    0 -0.14821670589E+03  0.56052474213E+03  0.23702071786E+03  0.62636651435E+03  0.10566000000E+00 0. -1.
         -4    1    4    4    0  502  0.14463097063E+03 -0.33150770958E+03 -0.25963901372E+02  0.36261495191E+03  0.00000000000E+00 0. -1.
<mgrwt>
<rscale>  2 0.99723361E+03</rscale>
<asrwt>0</asrwt>
<pdfrwt beam="1">  1       21 0.17480726E+00 0.10077986E+04</pdfrwt>
<pdfrwt beam="2">  1       21 0.13268954E+00 0.10077986E+04</pdfrwt>
<totfact> 0.41878009E+01</totfact>
</mgrwt>
</event>
<event>
 8    1  0.7418332E-006  0.1060573E+04  0.7818608E-02  0.8719714E-01
         21   -1    0    0  501  502  0.00000000000E+00  0.00000000000E+00  0.65459694352E+03  0.65459694352E+03  0.00000000000E+00 0.  1.
         21   -1    0    0  502  503 -0.00000000000E+00 -0.00000000000E+00 -0.22528700814E+04  0.22528700814E+04  0.00000000000E+00 0.  1.
    9000010    2    1    2  501    0 -0.29785475335E+03 -0.24055872362E+03 -0.90742110334E+02  0.10642454822E+04  0.98883687335E+03 0.  0.
   -9000010    2    1    2    0  503  0.29785475335E+03  0.24055872362E+03 -0.15075310275E+04  0.18432215427E+04  0.98905505563E+03 0.  0.
        -13    1    3    3    0    0 -0.41452681053E+03 -0.20887922971E+02 -0.45965390293E+03  0.61931454336E+03  0.10566000000E+00 0.  1.
          4    1    3    3  501    0  0.11667205718E+03 -0.21967080065E+03  0.36891179259E+03  0.44493093880E+03  0.00000000000E+00 0.  1.
         13    1    4    4    0    0 -0.32522845677E+02  0.40187668699E+03 -0.13949026466E+03  0.42663819817E+03  0.10566000000E+00 0. -1.
         -4    1    4    4    0  503  0.33037759902E+03 -0.16131796338E+03 -0.13680407629E+04  0.14165833446E+04  0.00000000000E+00 0. -1.
<mgrwt>
<rscale>  2 0.10605225E+04</rscale>
<asrwt>0</asrwt>
<pdfrwt beam="1">  1       21 0.10070723E+00 0.10605734E+04</pdfrwt>
<pdfrwt beam="2">  1       21 0.34659538E+00 0.10605734E+04</pdfrwt>
<totfact> 0.48436764E+00</totfact>
</mgrwt>
</event>
<event>
 8    1  0.7418332E-006  0.9941444E+03  0.7818608E-02  0.8781728E-01
         21   -1    0    0  501  502  0.00000000000E+00  0.00000000000E+00  0.11034995962E+04  0.11034995962E+04  0.00000000000E+00 0. -1.
         21   -1    0    0  502  503 -0.00000000000E+00 -0.00000000000E+00 -0.11582932283E+04  0.11582932283E+04  0.00000000000E+00 0. -1.
    9000010    2    1    2  501    0  0.55295825414E+02 -0.10938551816E+03  0.51744866836E+03  0.11147163559E+04  0.97970230678E+03 0.  0.
   -9000010    2    1    2    0  503 -0.55295825414E+02  0.10938551816E+03 -0.57224230044E+03  0.11470764686E+04  0.98655985857E+03 0.  0.
        -13    1    3    3    0    0  0.17289971439E+03  0.35571027252E+03  0.49616458903E+03  0.63451037799E+03  0.10566000000E+00 0.  1.
          4    1    3    3  501    0 -0.11760388898E+03 -0.46509579069E+03  0.21284079333E+02  0.48020597794E+03  0.00000000000E+00 0.  1.
         13    1    4    4    0    0 -0.29423239523E+03  0.47164116023E+03 -0.26822758856E+03  0.61722292315E+03  0.10566000000E+00 0. -1.
         -4    1    4    4    0  503  0.23893656982E+03 -0.36225564207E+03 -0.30401471188E+03  0.52985354547E+03  0.00000000000E+00 0. -1.
<mgrwt>
<rscale>  2 0.99243884E+03</rscale>
<asrwt>0</asrwt>
<pdfrwt beam="1">  1       21 0.16976917E+00 0.99414444E+03</pdfrwt>
<pdfrwt beam="2">  1       21 0.17819896E+00 0.99414444E+03</pdfrwt>
<totfact> 0.18426698E+01</totfact>
</mgrwt>
</event>
<event>
 8    1  0.7418332E-006  0.1320228E+04  0.7818608E-02  0.8546764E-01
         21   -1    0    0  501  502  0.00000000000E+00  0.00000000000E+00  0.11920549766E+04  0.11920549766E+04  0.00000000000E+00 0. -1.
         21   -1    0    0  502  503 -0.00000000000E+00 -0.00000000000E+00 -0.16226409638E+04  0.16226409638E+04  0.00000000000E+00 0. -1.
    9000010    2    1    2  501    0 -0.52087253997E+03  0.30949498827E+03  0.41437749947E+03  0.12472250905E+04  0.10083483345E+04 0.  0.
   -9000010    2    1    2    0  503  0.52087253997E+03 -0.30949498827E+03 -0.84496348663E+03  0.15674708499E+04  0.11729902903E+04 0.  0.
        -13    1    3    3    0    0 -0.32699936050E+03  0.34256297448E+03 -0.26311496609E+03  0.54176329684E+03  0.10566000000E+00 0.  1.
          4    1    3    3  501    0 -0.19387317948E+03 -0.33067986216E+02  0.67749246556E+03  0.70546179367E+03  0.00000000000E+00 0.  1.
         13    1    4    4    0    0  0.59394444950E+03  0.18663180876E+03 -0.46139032172E+02  0.62428379971E+03  0.10566000000E+00 0. -1.
         -4    1    4    4    0  503 -0.73071909528E+02 -0.49612679702E+03 -0.79882445446E+03  0.94318705023E+03  0.00000000000E+00 0. -1.
<mgrwt>
<rscale>  2 0.12826946E+04</rscale>
<asrwt>0</asrwt>
<pdfrwt beam="1">  1       21 0.18339307E+00 0.13202278E+04</pdfrwt>
<pdfrwt beam="2">  1       21 0.24963707E+00 0.13202278E+04</pdfrwt>
<totfact> 0.37560331E+00</totfact>
</mgrwt>
</event>
<event>
 8    1  0.7418332E-006  0.1026099E+04  0.7818608E-02  0.8751623E-01
         21   -1    0    0  501  502  0.00000000000E+00  0.00000000000E+00  0.12490294487E+04  0.12490294487E+04  0.00000000000E+00 0.  1.
         21   -1    0    0  502  503 -0.00000000000E+00 -0.00000000000E+00 -0.90320307575E+03  0.90320307575E+03  0.00000000000E+00 0.  1.
    9000010    2    1    2  501    0  0.19858948724E+03  0.24552256994E+02 -0.11498234717E+03  0.10274112801E+04  0.10011555326E+04 0.  0.
   -9000010    2    1    2    0  503 -0.19858948724E+03 -0.24552256994E+02  0.46080872015E+03  0.11248212444E+04  0.10063983095E+04 0.  0.
        -13    1    3    3    0    0  0.56091474941E+03 -0.17789269710E+03 -0.16031862798E+03  0.60989609068E+03  0.10566000000E+00 0.  1.
          4    1    3    3  501    0 -0.36232526217E+03  0.20244495409E+03  0.45336280802E+02  0.41751518942E+03  0.00000000000E+00 0.  1.
         13    1    4    4    0    0 -0.64998213568E+02 -0.33412741473E+03  0.65323801415E+03  0.73660424336E+03  0.10566000000E+00 0. -1.
         -4    1    4    4    0  503 -0.13359127367E+03  0.30957515773E+03 -0.19242929400E+03  0.38821700101E+03  0.00000000000E+00 0. -1.
<mgrwt>
<rscale>  2 0.10248107E+04</rscale>
<asrwt>0</asrwt>
<pdfrwt beam="1">  1       21 0.19215838E+00 0.10260985E+04</pdfrwt>
<pdfrwt beam="2">  1       21 0.13895432E+00 0.10260985E+04</pdfrwt>
<totfact> 0.26350839E+01</totfact>
</mgrwt>
</event>
<event>
 8    1  0.7418332E-006  0.1014121E+04  0.7818608E-02  0.8761916E-01
         21   -1    0    0  503  502  0.00000000000E+00  0.00000000000E+00  0.46977432000E+03  0.46977432000E+03  0.00000000000E+00 0.  1.
         21   -1    0    0  501  503 -0.00000000000E+00 -0.00000000000E+00 -0.24317466159E+04  0.24317466159E+04  0.00000000000E+00 0.  1.
    9000010    2    1    2  501    0  0.19665829110E+03 -0.11210601297E+03 -0.14442578387E+04  0.17647442952E+04  0.98853400624E+03 0.  0.
   -9000010    2    1    2    0  502 -0.19665829110E+03  0.11210601297E+03 -0.51771445721E+03  0.11367766406E+04  0.98640287399E+03 0.  0.
        -13    1    3    3    0    0 -0.40207833192E+03 -0.10394326814E+03 -0.58453638047E+03  0.71704531185E+03  0.10566000000E+00 0.  1.
          4    1    3    3  501    0  0.59873662302E+03 -0.81627448308E+01 -0.85972145818E+03  0.10476989834E+04  0.00000000000E+00 0.  1.
         13    1    4    4    0    0 -0.17327611017E+03  0.13074516130E+03  0.27115627986E+03  0.34733938278E+03  0.10566000000E+00 0. -1.
         -4    1    4    4    0  502 -0.23382180938E+02 -0.18639148332E+02 -0.78887073707E+03  0.78943725782E+03  0.00000000000E+00 0. -1.
<mgrwt>
<rscale>  2 0.10136014E+04</rscale>
<asrwt>0</asrwt>
<pdfrwt beam="1">  1       21 0.72272974E-01 0.10141212E+04</pdfrwt>
<pdfrwt beam="2">  1       21 0.37411486E+00 0.10141212E+04</pdfrwt>
<totfact> 0.71979155E+00</totfact>
</mgrwt>
</event>
<event>
 8    1  0.7418332E-006  0.1018137E+04  0.7818608E-02  0.8765665E-01
         21   -1    0    0  501  502  0.00000000000E+00  0.00000000000E+00  0.82936839748E+03  0.82936839748E+03  0.00000000000E+00 0.  1.
         21   -1    0    0  502  503 -0.00000000000E+00 -0.00000000000E+00 -0.15950452581E+04  0.15950452581E+04  0.00000000000E+00 0.  1.
    9000010    2    1    2  501    0 -0.42074664176E+02 -0.53461920639E+02  0.20885063480E+03  0.10393369094E+04  0.10158612943E+04 0.  0.
   -9000010    2    1    2    0  503  0.42074664176E+02  0.53461920639E+02 -0.97452749539E+03  0.13850767461E+04  0.98188863882E+03 0.  0.
        -13    1    3    3    0    0  0.11740938466E+03 -0.46488012509E+03 -0.11369110996E+03  0.49277192895E+03  0.10566000000E+00 0.  1.
          4    1    3    3  501    0 -0.15948404884E+03  0.41141820445E+03  0.32254174476E+03  0.54656498049E+03  0.00000000000E+00 0.  1.
         13    1    4    4    0    0  0.18458040204E+03  0.11908140325E+02 -0.11445348692E+04  0.11593842360E+04  0.10566000000E+00 0. -1.
         -4    1    4    4    0  503 -0.14250573787E+03  0.41553780314E+02  0.17000737382E+03  0.22569251015E+03  0.00000000000E+00 0. -1.
<mgrwt>
<rscale>  2 0.10095554E+04</rscale>
<asrwt>0</asrwt>
<pdfrwt beam="1">  1       21 0.12759514E+00 0.10181368E+04</pdfrwt>
<pdfrwt beam="2">  1       21 0.24539157E+00 0.10181368E+04</pdfrwt>
<totfact> 0.13385737E+01</totfact>
</mgrwt>
</event>
<event>
 8    1  0.7418332E-006  0.1172352E+04  0.7818608E-02  0.8653522E-01
         21   -1    0    0  501  502  0.00000000000E+00  0.00000000000E+00  0.76368909505E+03  0.76368909505E+03  0.00000000000E+00 0.  1.
         21   -1    0    0  502  503 -0.00000000000E+00 -0.00000000000E+00 -0.18866262440E+04  0.18866262440E+04  0.00000000000E+00 0. -1.
    9000010    2    1    2  501    0  0.36639144475E+03 -0.40411072939E+03 -0.83578786375E+02  0.11753272117E+04  0.10377188774E+04 0.  0.
   -9000010    2    1    2    0  503 -0.36639144475E+03  0.40411072939E+03 -0.10393583626E+04  0.14749881274E+04  0.89318307068E+03 0.  0.
        -13    1    3    3    0    0 -0.35084082340E+03 -0.38100405319E+02 -0.11006086640E+03  0.36966786407E+03  0.10566000000E+00 0.  1.
          4    1    3    3  501    0  0.71723226814E+03 -0.36601032408E+03  0.26482080023E+02  0.80565934759E+03  0.00000000000E+00 0.  1.
         13    1    4    4    0    0 -0.54958166971E+03  0.22707744545E+03 -0.24915445517E+03  0.64473415576E+03  0.10566000000E+00 0. -1.
         -4    1    4    4    0  503  0.18319022496E+03  0.17703328394E+03 -0.79020390744E+03  0.83025397167E+03  0.00000000000E+00 0. -1.
<mgrwt>
<rscale>  2 0.11395576E+04</rscale>
<asrwt>0</asrwt>
<pdfrwt beam="1">  1       21 0.11749063E+00 0.11723518E+04</pdfrwt>
<pdfrwt beam="2">  1       21 0.29025019E+00 0.11723518E+04</pdfrwt>
<totfact> 0.77719128E+00</totfact>
</mgrwt>
</event>
<event>
 8    1  0.7418332E-006  0.1078005E+04  0.7818608E-02  0.8712831E-01
         21   -1    0    0  501  502  0.00000000000E+00  0.00000000000E+00  0.88220168838E+03  0.88220168838E+03  0.00000000000E+00 0. -1.
         21   -1    0    0  502  503 -0.00000000000E+00 -0.00000000000E+00 -0.15991498103E+04  0.15991498103E+04  0.00000000000E+00 0. -1.
    9000010    2    1    2  501    0 -0.32460033578E+03 -0.19507749111E+03  0.19799295918E+03  0.10960365864E+04  0.10092940014E+04 0.  0.
   -9000010    2    1    2    0  503  0.32460033578E+03  0.19507749111E+03 -0.91494108105E+03  0.13853149123E+04  0.96879286685E+03 0.  0.
        -13    1    3    3    0    0 -0.36138756152E+03 -0.55808232603E+03  0.28105533761E+03  0.72183721587E+03  0.10566000000E+00 0.  1.
          4    1    3    3  501    0  0.36787225745E+02  0.36300483492E+03 -0.83062378432E+02  0.37419937048E+03  0.00000000000E+00 0.  1.
         13    1    4    4    0    0  0.95650002996E+02 -0.35758054776E+03 -0.11732956434E+03  0.38830272861E+03  0.10566000000E+00 0. -1.
         -4    1    4    4    0  503  0.22895033278E+03  0.55265803887E+03 -0.79761151671E+03  0.99701218368E+03  0.00000000000E+00 0. -1.
<mgrwt>
<rscale>  2 0.10684225E+04</rscale>
<asrwt>0</asrwt>
<pdfrwt beam="1">  1       21 0.13572334E+00 0.10780051E+04</pdfrwt>
<pdfrwt beam="2">  1       21 0.24602305E+00 0.10780051E+04</pdfrwt>
<totfact> 0.10916887E+01</totfact>
</mgrwt>
</event>
<event>
 8    1  0.7418332E-006  0.1055376E+04  0.7818608E-02  0.8731239E-01
         21   -1    0    0  503  502  0.00000000000E+00  0.00000000000E+00  0.12877981846E+04  0.12877981846E+04  0.00000000000E+00 0.  1.
         21   -1    0    0  501  503 -0.00000000000E+00 -0.00000000000E+00 -0.90040343757E+03  0.90040343757E+03  0.00000000000E+00 0.  1.
    9000010    2    1    2  501    0  0.13719170065E+03 -0.13219834123E+03  0.47570219389E+03  0.11291370631E+04  0.10061610039E+04 0.  0.
   -9000010    2    1    2    0  502 -0.13719170065E+03  0.13219834123E+03 -0.88307446880E+02  0.10590645590E+04  0.10380373649E+04 0.  0.
        -13    1    3    3    0    0  0.11785992932E+03  0.28324764703E+03 -0.17774777728E+03  0.35456237248E+03  0.10566000000E+00 0.  1.
          4    1    3    3  501    0  0.19331771327E+02 -0.41544598826E+03  0.65344997116E+03  0.77457469063E+03  0.00000000000E+00 0.  1.
         13    1    4    4    0    0  0.35868005445E+03  0.35753241132E+03  0.49838979026E+01  0.50646387532E+03  0.10566000000E+00 0. -1.
         -4    1    4    4    0  502 -0.49587175509E+03 -0.22533407008E+03 -0.93291344783E+02  0.55260068372E+03  0.00000000000E+00 0. -1.
<mgrwt>
<rscale>  2 0.10474536E+04</rscale>
<asrwt>0</asrwt>
<pdfrwt beam="1">  1       21 0.19812280E+00 0.10553765E+04</pdfrwt>
<pdfrwt beam="2">  1       21 0.13852360E+00 0.10553765E+04</pdfrwt>
<totfact> 0.23708628E+01</totfact>
</mgrwt>
</event>
<event>
 8    1  0.7418332E-006  0.1045975E+04  0.7818608E-02  0.8738426E-01
         21   -1    0    0  501  502  0.00000000000E+00  0.00000000000E+00  0.16124793830E+04  0.16124793830E+04  0.00000000000E+00 0.  1.
         21   -1    0    0  502  503 -0.00000000000E+00 -0.00000000000E+00 -0.74334814083E+03  0.74334814083E+03  0.00000000000E+00 0.  1.
    9000010    2    1    2  501    0 -0.19049673734E+03 -0.60431056910E+02  0.82977562576E+03  0.13351368072E+04  0.10267043320E+04 0.  0.
   -9000010    2    1    2    0  503  0.19049673734E+03  0.60431056910E+02  0.39355616376E+02  0.10206907166E+04  0.10001598646E+04 0.  0.
        -13    1    3    3    0    0  0.40429510156E+03 -0.16777604391E+03  0.29253620052E+03  0.52647960059E+03  0.10566000000E+00 0.  1.
          4    1    3    3  501    0 -0.59479183889E+03  0.10734498700E+03  0.53723942523E+03  0.80865720666E+03  0.00000000000E+00 0.  1.
         13    1    4    4    0    0 -0.29600261477E+03 -0.78567589448E+02  0.31931159604E+03  0.44243679842E+03  0.10566000000E+00 0. -1.
         -4    1    4    4    0  503  0.48649935211E+03  0.13899864636E+03 -0.27995597966E+03  0.57825391814E+03  0.00000000000E+00 0. -1.
<mgrwt>
<rscale>  2 0.10394021E+04</rscale>
<asrwt>0</asrwt>
<pdfrwt beam="1">  1       21 0.24807375E+00 0.10459745E+04</pdfrwt>
<pdfrwt beam="2">  1       21 0.11436125E+00 0.10459745E+04</pdfrwt>
<totfact> 0.17282227E+01</totfact>
</mgrwt>
</event>
<event>
 8    1  0.7418332E-006  0.1042247E+04  0.7818608E-02  0.8775865E-01
         21   -1    0    0  503  502  0.00000000000E+00  0.00000000000E+00  0.95492754539E+03  0.95492754539E+03  0.00000000000E+00 0.  1.
         21   -1    0    0  501  503 -0.00000000000E+00 -0.00000000000E+00 -0.10097750776E+04  0.10097750776E+04  0.00000000000E+00 0.  1.
    9000010    2    1    2  501    0 -0.17864669949E+02 -0.70678472187E+02 -0.23386722503E+03  0.10681628475E+04  0.10396938958E+04 0.  0.
   -9000010    2    1    2    0  502  0.17864669949E+02  0.70678472187E+02  0.17901969282E+03  0.89653977550E+03  0.87545469659E+03 0.  0.
        -13    1    3    3    0    0  0.46451449921E+03  0.16623948133E+03 -0.19096361660E+03  0.52903345751E+03  0.10566000000E+00 0.  1.
          4    1    3    3  501    0 -0.48237916916E+03 -0.23691795351E+03 -0.42903608428E+02  0.53912938999E+03  0.00000000000E+00 0.  1.
         13    1    4    4    0    0  0.12283061977E+03 -0.18274847141E+03  0.45620986938E+03  0.50656867357E+03  0.10566000000E+00 0. -1.
         -4    1    4    4    0  502 -0.10496594982E+03  0.25342694359E+03 -0.27719017657E+03  0.38997110194E+03  0.00000000000E+00 0. -1.
<mgrwt>
<rscale>  2 0.99864568E+03</rscale>
<asrwt>0</asrwt>
<pdfrwt beam="1">  1       21 0.14691193E+00 0.10422466E+04</pdfrwt>
<pdfrwt beam="2">  1       21 0.15535001E+00 0.10422466E+04</pdfrwt>
<totfact> 0.44918476E+01</totfact>
</mgrwt>
</event>
<event>
 8    1  0.7418332E-006  0.1036250E+04  0.7818608E-02  0.8747230E-01
         21   -1    0    0  503  502  0.00000000000E+00  0.00000000000E+00  0.45150082415E+03  0.45150082415E+03  0.00000000000E+00 0. -1.
         21   -1    0    0  501  503 -0.00000000000E+00 -0.00000000000E+00 -0.23245603837E+04  0.23245603837E+04  0.00000000000E+00 0. -1.
    9000010    2    1    2  501    0 -0.18276007873E+03 -0.13381386235E+03 -0.99483713077E+03  0.14177211062E+04  0.98433978996E+03 0.  0.
   -9000010    2    1    2    0  502  0.18276007873E+03  0.13381386235E+03 -0.87822242876E+03  0.13583401016E+04  0.10111902893E+04 0.  0.
        -13    1    3    3    0    0  0.12043613043E+03  0.12092585726E+03  0.13684259764E+03  0.21875518773E+03  0.10566000000E+00 0.  1.
          4    1    3    3  501    0 -0.30319620915E+03 -0.25473971960E+03 -0.11316797284E+04  0.11989659185E+04  0.00000000000E+00 0.  1.
         13    1    4    4    0    0 -0.41981196647E+03  0.11988574131E+02 -0.32078132152E+03  0.52847561959E+03  0.10566000000E+00 0. -1.
         -4    1    4    4    0  502  0.60257204520E+03  0.12182528822E+03 -0.55744110724E+03  0.82986448203E+03  0.00000000000E+00 0. -1.
<mgrwt>
<rscale>  2 0.10296406E+04</rscale>
<asrwt>0</asrwt>
<pdfrwt beam="1">  1       21 0.69461665E-01 0.10362496E+04</pdfrwt>
<pdfrwt beam="2">  1       21 0.35762468E+00 0.10362496E+04</pdfrwt>
<totfact> 0.10274837E+01</totfact>
</mgrwt>
</event>
<event>
 8    1  0.7418332E-006  0.1087063E+04  0.7818608E-02  0.8698394E-01
         21   -1    0    0  503  502  0.00000000000E+00  0.00000000000E+00  0.14891143304E+04  0.14891143304E+04  0.00000000000E+00 0. -1.
         21   -1    0    0  501  503 -0.00000000000E+00 -0.00000000000E+00 -0.17842955744E+04  0.17842955744E+04  0.00000000000E+00 0. -1.
    9000010    2    1    2  501    0 -0.12756048744E+03 -0.43141133998E+03 -0.13702426848E+04  0.17445332016E+04  0.98155165625E+03 0.  0.
   -9000010    2    1    2    0  502  0.12756048744E+03  0.43141133998E+03  0.10750614409E+04  0.15288767033E+04  0.98960570428E+03 0.  0.
        -13    1    3    3    0    0  0.17920981823E+03  0.25973707528E+03 -0.31083507284E+03  0.44294239004E+03  0.10566000000E+00 0.  1.
          4    1    3    3  501    0 -0.30677030567E+03 -0.69114841526E+03 -0.10594076120E+04  0.13015908115E+04  0.00000000000E+00 0.  1.
         13    1    4    4    0    0 -0.34806751155E+03  0.44879407027E+03  0.79373595274E+03  0.97600403890E+03  0.10566000000E+00 0. -1.
         -4    1    4    4    0  502  0.47562799899E+03 -0.17382730293E+02  0.28132548811E+03  0.55287266436E+03  0.00000000000E+00 0. -1.
<mgrwt>
<rscale>  2 0.10852271E+04</rscale>
<asrwt>0</asrwt>
<pdfrwt beam="1">  1       21 0.22909451E+00 0.10870634E+04</pdfrwt>
<pdfrwt beam="2">  1       21 0.27450701E+00 0.10870634E+04</pdfrwt>
<totfact> 0.11586239E+00</totfact>
</mgrwt>
</event>
<event>
 8    1  0.7418332E-006  0.1386614E+04  0.7818608E-02  0.8488923E-01
         21   -1    0    0  503  502  0.00000000000E+00  0.00000000000E+00  0.12578372397E+04  0.12578372397E+04  0.00000000000E+00 0.  1.
         21   -1    0    0  501  503 -0.00000000000E+00 -0.00000000000E+00 -0.24682766660E+04  0.24682766660E+04  0.00000000000E+00 0. -1.
    9000010    2    1    2  501    0  0.57855769174E+03 -0.78710901801E+03 -0.17899599795E+04  0.22232694515E+04  0.88583334593E+03 0.  0.
   -9000010    2    1    2    0  502 -0.57855769174E+03  0.78710901801E+03  0.57952055314E+03  0.15028444542E+04  0.98408727922E+03 0.  0.
        -13    1    3    3    0    0  0.27833327902E+03 -0.14870315032E+03 -0.18049367245E+02  0.31608200193E+03  0.10566000000E+00 0.  1.
          4    1    3    3  501    0  0.30022441272E+03 -0.63840586769E+03 -0.17719106123E+04  0.19071874496E+04  0.00000000000E+00 0.  1.
         13    1    4    4    0    0 -0.65616517405E+03  0.22665355937E+03  0.18042973993E+01  0.69421022628E+03  0.10566000000E+00 0. -1.
         -4    1    4    4    0  502  0.77607482315E+02  0.56045545864E+03  0.57771625574E+03  0.80863422793E+03  0.00000000000E+00 0. -1.
<mgrwt>
<rscale>  2 0.13693142E+04</rscale>
<asrwt>0</asrwt>
<pdfrwt beam="1">  1       21 0.19351342E+00 0.13866136E+04</pdfrwt>
<pdfrwt beam="2">  1       21 0.37973487E+00 0.13866136E+04</pdfrwt>
<totfact> 0.36807427E-01</totfact>
</mgrwt>
</event>
<event>
 8    1  0.7418332E-006  0.1125346E+04  0.7818608E-02  0.8665598E-01
         21   -1    0    0  501  502  0.00000000000E+00  0.00000000000E+00  0.74090316136E+03  0.74090316136E+03  0.00000000000E+00 0. -1.
         21   -1    0    0  502  503 -0.00000000000E+00 -0.00000000000E+00 -0.21640503408E+04  0.21640503408E+04  0.00000000000E+00 0. -1.
    9000010    2    1    2  501    0  0.10267844403E+03  0.43755098355E+03 -0.41766148405E+02  0.11232081096E+04  0.10285223965E+04 0.  0.
   -9000010    2    1    2    0  503 -0.10267844403E+03 -0.43755098355E+03 -0.13813810310E+04  0.17817453926E+04  0.10317021688E+04 0.  0.
        -13    1    3    3    0    0 -0.94313147290E+02 -0.17482404728E+03  0.32634796015E+03  0.38204897528E+03  0.10566000000E+00 0.  1.
          4    1    3    3  501    0  0.19699159132E+03  0.61237503082E+03 -0.36811410855E+03  0.74115913429E+03  0.00000000000E+00 0.  1.
         13    1    4    4    0    0  0.19426381770E+03  0.21730932931E+03 -0.92403563528E+02  0.30577803255E+03  0.10566000000E+00 0. -1.
         -4    1    4    4    0  503 -0.29694226173E+03 -0.65486031286E+03 -0.12889774675E+04  0.14759673600E+04  0.00000000000E+00 0. -1.
<mgrwt>
<rscale>  2 0.11246164E+04</rscale>
<asrwt>0</asrwt>
<pdfrwt beam="1">  1       21 0.11398510E+00 0.11253458E+04</pdfrwt>
<pdfrwt beam="2">  1       21 0.33293082E+00 0.11253458E+04</pdfrwt>
<totfact> 0.42677158E+00</totfact>
</mgrwt>
</event>
<event>
 8    1  0.7418332E-006  0.1046653E+04  0.7818608E-02  0.8734022E-01
         21   -1    0    0  501  502  0.00000000000E+00  0.00000000000E+00  0.17504012818E+04  0.17504012818E+04  0.00000000000E+00 0. -1.
         21   -1    0    0  502  503 -0.00000000000E+00 -0.00000000000E+00 -0.75232264771E+03  0.75232264771E+03  0.00000000000E+00 0. -1.
    9000010    2    1    2  501    0  0.85257082463E+02  0.31575767164E+03  0.10250489517E+04  0.14649940646E+04  0.99423869307E+03 0.  0.
   -9000010    2    1    2    0  503 -0.85257082463E+02 -0.31575767164E+03 -0.26970317606E+02  0.10377298648E+04  0.98447153185E+03 0.  0.
        -13    1    3    3    0    0  0.21413295488E+03 -0.24312679740E+03  0.77368385965E+03  0.83877904589E+03  0.10566000000E+00 0.  1.
          4    1    3    3  501    0 -0.12887587241E+03  0.55888446904E+03  0.25136509202E+03  0.62621501875E+03  0.00000000000E+00 0.  1.
         13    1    4    4    0    0 -0.50689203477E+03 -0.38495080096E+02  0.98336832774E+02  0.51777557875E+03  0.10566000000E+00 0. -1.
         -4    1    4    4    0  503  0.42163495231E+03 -0.27726259155E+03 -0.12530715038E+03  0.51995428608E+03  0.00000000000E+00 0. -1.
<mgrwt>
<rscale>  2 0.10443268E+04</rscale>
<asrwt>0</asrwt>
<pdfrwt beam="1">  1       21 0.26929250E+00 0.10466529E+04</pdfrwt>
<pdfrwt beam="2">  1       21 0.11574195E+00 0.10466529E+04</pdfrwt>
<totfact> 0.11747779E+01</totfact>
</mgrwt>
</event>
<event>
 8    1  0.7418332E-006  0.1017454E+04  0.7818608E-02  0.8765728E-01
         21   -1    0    0  503  502  0.00000000000E+00  0.00000000000E+00  0.38167660524E+04  0.38167660524E+04  0.00000000000E+00 0. -1.
         21   -1    0    0  501  503 -0.00000000000E+00 -0.00000000000E+00 -0.34193770473E+03  0.34193770473E+03  0.00000000000E+00 0. -1.
    9000010    2    1    2  501    0 -0.24703404573E+03  0.11775616636E+03  0.75878727443E+03  0.12692400199E+04  0.97995906334E+03 0.  0.
   -9000010    2    1    2    0  502  0.24703404573E+03 -0.11775616636E+03  0.27160410732E+04  0.28894637372E+04  0.94722185506E+03 0.  0.
        -13    1    3    3    0    0 -0.19826220707E+03  0.35545548524E+03 -0.63468236353E+02  0.41192806766E+03  0.10566000000E+00 0.  1.
          4    1    3    3  501    0 -0.48771838667E+02 -0.23769931888E+03  0.82225551079E+03  0.85731195225E+03  0.00000000000E+00 0.  1.
         13    1    4    4    0    0 -0.22421903151E+02  0.20270875578E+03  0.77918966435E+02  0.21832305857E+03  0.10566000000E+00 0. -1.
         -4    1    4    4    0  502  0.26945594889E+03 -0.32046492214E+03  0.26381221068E+04  0.26711406787E+04  0.00000000000E+00 0. -1.
<mgrwt>
<rscale>  2 0.10094878E+04</rscale>
<asrwt>0</asrwt>
<pdfrwt beam="1">  1       21 0.58719475E+00 0.10174537E+04</pdfrwt>
<pdfrwt beam="2">  1       21 0.52605803E-01 0.10174537E+04</pdfrwt>
<totfact> 0.46804306E-01</totfact>
</mgrwt>
</event>
<event>
 8    1  0.7418332E-006  0.1248535E+04  0.7818608E-02  0.8572113E-01
         21   -1    0    0  503  502  0.00000000000E+00  0.00000000000E+00  0.81980301733E+03  0.81980301733E+03  0.00000000000E+00 0. -1.
         21   -1    0    0  501  503 -0.00000000000E+00 -0.00000000000E+00 -0.27035211324E+04  0.27035211324E+04  0.00000000000E+00 0.  1.
    9000010    2    1    2  501    0  0.22239695218E+03  0.71100117031E+03 -0.19057673203E+04  0.22745943658E+04  0.99340192324E+03 0.  0.
   -9000010    2    1    2    0  502 -0.22239695218E+03 -0.71100117031E+03  0.22049205255E+02  0.12487297839E+04  0.10019265628E+04 0.  0.
        -13    1    3    3    0    0  0.19978274976E+03 -0.14879599476E+03 -0.89015029637E+02  0.26453181627E+03  0.10566000000E+00 0.  1.
          4    1    3    3  501    0  0.22614202423E+02  0.85979716507E+03 -0.18167522907E+04  0.20100625495E+04  0.00000000000E+00 0.  1.
         13    1    4    4    0    0 -0.26188774319E+03 -0.95234306432E+03 -0.63276320598E+02  0.98972036763E+03  0.10566000000E+00 0. -1.
         -4    1    4    4    0  502  0.39490791013E+02  0.24134189401E+03  0.85325525853E+02  0.25900941631E+03  0.00000000000E+00 0. -1.
<mgrwt>
<rscale>  2 0.12468240E+04</rscale>
<asrwt>0</asrwt>
<pdfrwt beam="1">  1       21 0.12612354E+00 0.12485351E+04</pdfrwt>
<pdfrwt beam="2">  1       21 0.41592634E+00 0.12485351E+04</pdfrwt>
<totfact> 0.82366509E-01</totfact>
</mgrwt>
</event>
<event>
 8    1  0.7418332E-006  0.1031844E+04  0.7818608E-02  0.8745410E-01
         21   -1    0    0  501  502  0.00000000000E+00  0.00000000000E+00  0.70092513381E+03  0.70092513381E+03  0.00000000000E+00 0. -1.
         21   -1    0    0  502  503 -0.00000000000E+00 -0.00000000000E+00 -0.18069304725E+04  0.18069304725E+04  0.00000000000E+00 0. -1.
    9000010    2    1    2  501    0  0.18674900295E+03  0.58101076852E+02 -0.51631402186E+02  0.10331348468E+04  0.10131391241E+04 0.  0.
   -9000010    2    1    2    0  503 -0.18674900295E+03 -0.58101076852E+02 -0.10543739365E+04  0.14747207595E+04  0.10123467762E+04 0.  0.
        -13    1    3    3    0    0  0.56641758773E+03 -0.57729324720E+02 -0.20848565221E+03  0.60632321163E+03  0.10566000000E+00 0.  1.
          4    1    3    3  501    0 -0.37966858478E+03  0.11583040157E+03  0.15685425003E+03  0.42681163520E+03  0.00000000000E+00 0.  1.
         13    1    4    4    0    0  0.28737479624E+03 -0.25507928940E+03 -0.82958279155E+03  0.91425233749E+03  0.10566000000E+00 0. -1.
         -4    1    4    4    0  503 -0.47412379920E+03  0.19697821255E+03 -0.22479114493E+03  0.56046842197E+03  0.00000000000E+00 0. -1.
<mgrwt>
<rscale>  2 0.10316493E+04</rscale>
<asrwt>0</asrwt>
<pdfrwt beam="1">  1       21 0.10783464E+00 0.10318439E+04</pdfrwt>
<pdfrwt beam="2">  1       21 0.27798930E+00 0.10318439E+04</pdfrwt>
<totfact> 0.12388982E+01</totfact>
</mgrwt>
</event>
<event>
 8    1  0.7418332E-006  0.8880180E+03  0.7818608E-02  0.8898727E-01
         21   -1    0    0  503  502  0.00000000000E+00  0.00000000000E+00  0.57730688139E+03  0.57730688139E+03  0.00000000000E+00 0.  1.
         21   -1    0    0  501  503 -0.00000000000E+00 -0.00000000000E+00 -0.13426860858E+04  0.13426860858E+04  0.00000000000E+00 0.  1.
    9000010    2    1    2  501    0 -0.80892510622E+02  0.30396680601E+02 -0.53492923436E+03  0.10025600165E+04  0.84351037006E+03 0.  0.
   -9000010    2    1    2    0  502  0.80892510622E+02 -0.30396680601E+02 -0.23044997003E+03  0.91743295069E+03  0.88380341358E+03 0.  0.
        -13    1    3    3    0    0 -0.20197381344E+03  0.22039238005E+03 -0.67433024088E+03  0.73762287615E+03  0.10566000000E+00 0.  1.
          4    1    3    3  501    0  0.12108130282E+03 -0.18999569945E+03  0.13940100652E+03  0.26493714032E+03  0.00000000000E+00 0.  1.
         13    1    4    4    0    0  0.15960616482E+02  0.14815278200E+03  0.31032932976E+03  0.34425033358E+03  0.10566000000E+00 0. -1.
         -4    1    4    4    0  502  0.64931894140E+02 -0.17854946260E+03 -0.54077929980E+03  0.57318261711E+03  0.00000000000E+00 0. -1.
<mgrwt>
<rscale>  2 0.87782054E+03</rscale>
<asrwt>0</asrwt>
<pdfrwt beam="1">  1       21 0.88816444E-01 0.88801803E+03</pdfrwt>
<pdfrwt beam="2">  1       21 0.20656709E+00 0.88801803E+03</pdfrwt>
<totfact> 0.71081927E+01</totfact>
</mgrwt>
</event>
<event>
 8    1  0.7418332E-006  0.1000604E+04  0.7818608E-02  0.8776036E-01
         21   -1    0    0  501  502  0.00000000000E+00  0.00000000000E+00  0.89633250000E+03  0.89633250000E+03  0.00000000000E+00 0. -1.
         21   -1    0    0  502  503 -0.00000000000E+00 -0.00000000000E+00 -0.11490110182E+04  0.11490110182E+04  0.00000000000E+00 0. -1.
    9000010    2    1    2  501    0  0.54369664338E+02 -0.82912651792E+01  0.68560348225E+02  0.99443741394E+03  0.99054552819E+03 0.  0.
   -9000010    2    1    2    0  503 -0.54369664338E+02  0.82912651792E+01 -0.32123886645E+03  0.10509061043E+04  0.99909180021E+03 0.  0.
        -13    1    3    3    0    0  0.57964632599E+02  0.47687324406E+03 -0.80056188268E+02  0.48700820730E+03  0.10566000000E+00 0.  1.
          4    1    3    3  501    0 -0.35949682617E+01 -0.48516450924E+03  0.14861653649E+03  0.50742920663E+03  0.00000000000E+00 0.  1.
         13    1    4    4    0    0  0.12550264267E+02 -0.25463586714E+03  0.28761262960E+03  0.38434095519E+03  0.10566000000E+00 0. -1.
         -4    1    4    4    0  503 -0.66919928604E+02  0.26292713232E+03 -0.60885149605E+03  0.66656514910E+03  0.00000000000E+00 0. -1.
<mgrwt>
<rscale>  2 0.99846427E+03</rscale>
<asrwt>0</asrwt>
<pdfrwt beam="1">  1       21 0.13789731E+00 0.10006044E+04</pdfrwt>
<pdfrwt beam="2">  1       21 0.17677093E+00 0.10006044E+04</pdfrwt>
<totfact> 0.36088794E+01</totfact>
</mgrwt>
</event>
<event>
 8    1  0.7418332E-006  0.1105893E+04  0.7818608E-02  0.8683449E-01
         21   -1    0    0  501  502  0.00000000000E+00  0.00000000000E+00  0.89502313614E+03  0.89502313614E+03  0.00000000000E+00 0.  1.
         21   -1    0    0  502  503 -0.00000000000E+00 -0.00000000000E+00 -0.16015337034E+04  0.16015337034E+04  0.00000000000E+00 0.  1.
    9000010    2    1    2  501    0 -0.46077702387E+03  0.94663306888E+01  0.13782201523E+03  0.11144483645E+04  0.10052836277E+04 0.  0.
   -9000010    2    1    2    0  503  0.46077702387E+03 -0.94663306888E+01 -0.84433258250E+03  0.13821084751E+04  0.99243198754E+03 0.  0.
        -13    1    3    3    0    0  0.15286524472E+03  0.33602032706E+03 -0.95329142115E+02  0.38126775334E+03  0.10566000000E+00 0.  1.
          4    1    3    3  501    0 -0.61364226859E+03 -0.32655399637E+03  0.23315115735E+03  0.73318061112E+03  0.00000000000E+00 0.  1.
         13    1    4    4    0    0 -0.19971736021E+03  0.26922290495E+03 -0.10260308104E+03  0.35056440196E+03  0.10566000000E+00 0. -1.
         -4    1    4    4    0  503  0.66049438408E+03 -0.27868923564E+03 -0.74172950146E+03  0.10315440731E+04  0.00000000000E+00 0. -1.
<mgrwt>
<rscale>  2 0.11029645E+04</rscale>
<asrwt>0</asrwt>
<pdfrwt beam="1">  1       21 0.13769587E+00 0.11058934E+04</pdfrwt>
<pdfrwt beam="2">  1       21 0.24638980E+00 0.11058934E+04</pdfrwt>
<totfact> 0.10330906E+01</totfact>
</mgrwt>
</event>
<event>
 8    1  0.7418332E-006  0.1043477E+04  0.7818608E-02  0.8736888E-01
         21   -1    0    0  501  502  0.00000000000E+00  0.00000000000E+00  0.16593428593E+04  0.16593428593E+04  0.00000000000E+00 0.  1.
         21   -1    0    0  502  503 -0.00000000000E+00 -0.00000000000E+00 -0.80850573790E+03  0.80850573790E+03  0.00000000000E+00 0.  1.
    9000010    2    1    2  501    0  0.28202498098E+03 -0.11565601349E+03  0.96971177369E+03  0.14176217964E+04  0.98812763859E+03 0.  0.
   -9000010    2    1    2    0  503 -0.28202498098E+03  0.11565601349E+03 -0.11887465225E+03  0.10502268009E+04  0.99796329940E+03 0.  0.
        -13    1    3    3    0    0  0.38219261022E+03  0.35674343553E+03  0.33832899365E+03  0.62273878088E+03  0.10566000000E+00 0.  1.
          4    1    3    3  501    0 -0.10016762923E+03 -0.47239944903E+03  0.63138278003E+03  0.79488301549E+03  0.00000000000E+00 0.  1.
         13    1    4    4    0    0 -0.54009997516E+03  0.36515121421E+03  0.49323075578E+02  0.65381661753E+03  0.10566000000E+00 0. -1.
         -4    1    4    4    0  503  0.25807499418E+03 -0.24949520072E+03 -0.16819772783E+03  0.39641018333E+03  0.00000000000E+00 0. -1.
<mgrwt>
<rscale>  2 0.10411188E+04</rscale>
<asrwt>0</asrwt>
<pdfrwt beam="1">  1       21 0.25528352E+00 0.10434774E+04</pdfrwt>
<pdfrwt beam="2">  1       21 0.12438550E+00 0.10434774E+04</pdfrwt>
<totfact> 0.12125246E+01</totfact>
</mgrwt>
</event>
<event>
 8    1  0.7418332E-006  0.1021844E+04  0.7818608E-02  0.8764696E-01
         21   -1    0    0  501  502  0.00000000000E+00  0.00000000000E+00  0.89386886363E+03  0.89386886363E+03  0.00000000000E+00 0. -1.
         21   -1    0    0  502  503 -0.00000000000E+00 -0.00000000000E+00 -0.12568963851E+04  0.12568963851E+04  0.00000000000E+00 0. -1.
    9000010    2    1    2  501    0 -0.90293150618E+02 -0.44463929575E+02  0.17932139198E+03  0.99391316556E+03  0.97240800335E+03 0.  0.
   -9000010    2    1    2    0  503  0.90293150618E+02  0.44463929575E+02 -0.54234891347E+03  0.11568520832E+04  0.10168748715E+04 0.  0.
        -13    1    3    3    0    0  0.12310881692E+03 -0.40610827781E+02 -0.37667443483E+03  0.39835745400E+03  0.10566000000E+00 0.  1.
          4    1    3    3  501    0 -0.21340196754E+03 -0.38531017942E+01  0.55599582681E+03  0.59555571156E+03  0.00000000000E+00 0.  1.
         13    1    4    4    0    0 -0.42699511711E+03 -0.15386603136E+03 -0.33981284521E+03  0.56698533189E+03  0.10566000000E+00 0. -1.
         -4    1    4    4    0  503  0.51728826773E+03  0.19832996094E+03 -0.20253606825E+03  0.58986675129E+03  0.00000000000E+00 0. -1.
<mgrwt>
<rscale>  2 0.10105992E+04</rscale>
<asrwt>0</asrwt>
<pdfrwt beam="1">  1       21 0.13751829E+00 0.10218436E+04</pdfrwt>
<pdfrwt beam="2">  1       21 0.19336867E+00 0.10218436E+04</pdfrwt>
<totfact> 0.26608678E+01</totfact>
</mgrwt>
</event>
<event>
 8    1  0.7418332E-006  0.1125475E+04  0.7818608E-02  0.8664910E-01
         21   -1    0    0  503  502  0.00000000000E+00  0.00000000000E+00  0.14052842617E+04  0.14052842617E+04  0.00000000000E+00 0. -1.
         21   -1    0    0  501  503 -0.00000000000E+00 -0.00000000000E+00 -0.11076490647E+04  0.11076490647E+04  0.00000000000E+00 0. -1.
    9000010    2    1    2  501    0 -0.37774568597E+03  0.33561952174E+03 -0.39344715332E+03  0.11922646887E+04  0.10056650331E+04 0.  0.
   -9000010    2    1    2    0  502  0.37774568597E+03 -0.33561952174E+03  0.69108235031E+03  0.13206686376E+04  0.10056035843E+04 0.  0.
        -13    1    3    3    0    0 -0.58095689040E+03 -0.14535014054E+03 -0.26306546582E+03  0.65409557583E+03  0.10566000000E+00 0.  1.
          4    1    3    3  501    0  0.20321120442E+03  0.48096966228E+03 -0.13038168750E+03  0.53816911289E+03  0.00000000000E+00 0.  1.
         13    1    4    4    0    0  0.33059366892E+02  0.33636911736E+03  0.36674290235E+03  0.49873587443E+03  0.10566000000E+00 0. -1.
         -4    1    4    4    0  502  0.34468631908E+03 -0.67198863910E+03  0.32433944796E+03  0.82193276316E+03  0.00000000000E+00 0. -1.
<mgrwt>
<rscale>  2 0.11254615E+04</rscale>
<asrwt>0</asrwt>
<pdfrwt beam="1">  1       21 0.21619758E+00 0.11254752E+04</pdfrwt>
<pdfrwt beam="2">  1       21 0.17040755E+00 0.11254752E+04</pdfrwt>
<totfact> 0.88716030E+00</totfact>
</mgrwt>
</event>
<event>
 8    1  0.7418332E-006  0.1017201E+04  0.7818608E-02  0.8759973E-01
         21   -1    0    0  503  502  0.00000000000E+00  0.00000000000E+00  0.11920349565E+04  0.11920349565E+04  0.00000000000E+00 0. -1.
         21   -1    0    0  501  503 -0.00000000000E+00 -0.00000000000E+00 -0.89763072144E+03  0.89763072144E+03  0.00000000000E+00 0. -1.
    9000010    2    1    2  501    0 -0.46013775426E+02 -0.20397296213E+03 -0.58660921600E+02  0.10129332244E+04  0.98937878311E+03 0.  0.
   -9000010    2    1    2    0  502  0.46013775426E+02  0.20397296213E+03  0.35306515668E+03  0.10767324536E+04  0.99547754118E+03 0.  0.
        -13    1    3    3    0    0  0.14807703437E+03 -0.30137253465E+03 -0.45232910711E+03  0.56334167700E+03  0.10566000000E+00 0.  1.
          4    1    3    3  501    0 -0.19409080979E+03  0.97399572516E+02  0.39366818551E+03  0.44959154735E+03  0.00000000000E+00 0.  1.
         13    1    4    4    0    0  0.50989788635E+03  0.21038826284E+03  0.16094838583E+03  0.57459852915E+03  0.10566000000E+00 0. -1.
         -4    1    4    4    0  502 -0.46388411092E+03 -0.64153007088E+01  0.19211677086E+03  0.50213392446E+03  0.00000000000E+00 0. -1.
<mgrwt>
<rscale>  2 0.10157057E+04</rscale>
<asrwt>0</asrwt>
<pdfrwt beam="1">  1       21 0.18338999E+00 0.10172009E+04</pdfrwt>
<pdfrwt beam="2">  1       21 0.13809703E+00 0.10172009E+04</pdfrwt>
<totfact> 0.31615932E+01</totfact>
</mgrwt>
</event>
<event>
 8    1  0.7418332E-006  0.1039994E+04  0.7818608E-02  0.8743902E-01
         21   -1    0    0  501  502  0.00000000000E+00  0.00000000000E+00  0.84651975992E+03  0.84651975992E+03  0.00000000000E+00 0. -1.
         21   -1    0    0  502  503 -0.00000000000E+00 -0.00000000000E+00 -0.14587630405E+04  0.14587630405E+04  0.00000000000E+00 0. -1.
    9000010    2    1    2  501    0  0.73762751994E+02  0.22276005816E+03  0.13803661516E+03  0.10228989298E+04  0.98600462800E+03 0.  0.
   -9000010    2    1    2    0  503 -0.73762751994E+02 -0.22276005816E+03 -0.75027989571E+03  0.12823838706E+04  0.10131759386E+04 0.  0.
        -13    1    3    3    0    0 -0.23236062568E+03  0.27400318654E+03 -0.31225663970E+03  0.47599729705E+03  0.10566000000E+00 0.  1.
          4    1    3    3  501    0  0.30612337767E+03 -0.51243128375E+02  0.45029325486E+03  0.54690163278E+03  0.00000000000E+00 0.  1.
         13    1    4    4    0    0  0.18991360585E+03  0.23968740558E+03  0.61207657361E+02  0.31187115699E+03  0.10566000000E+00 0. -1.
         -4    1    4    4    0  503 -0.26367635784E+03 -0.46244746374E+03 -0.81148755307E+03  0.97051271357E+03  0.00000000000E+00 0. -1.
<mgrwt>
<rscale>  2 0.10333174E+04</rscale>
<asrwt>0</asrwt>
<pdfrwt beam="1">  1       21 0.13023381E+00 0.10399945E+04</pdfrwt>
<pdfrwt beam="2">  1       21 0.22442508E+00 0.10399945E+04</pdfrwt>
<totfact> 0.17937346E+01</totfact>
</mgrwt>
</event>
<event>
 8    1  0.7418332E-006  0.1061690E+04  0.7818608E-02  0.8726971E-01
         21   -1    0    0  503  502  0.00000000000E+00  0.00000000000E+00  0.18660328306E+04  0.18660328306E+04  0.00000000000E+00 0. -1.
         21   -1    0    0  501  503 -0.00000000000E+00 -0.00000000000E+00 -0.62335289960E+03  0.62335289960E+03  0.00000000000E+00 0. -1.
    9000010    2    1    2  501    0 -0.24539398662E+03  0.14546839227E+03  0.94800594901E+03  0.14233412877E+04  0.10226465078E+04 0.  0.
   -9000010    2    1    2    0  502  0.24539398662E+03 -0.14546839227E+03  0.29467398198E+03  0.10660444425E+04  0.98399122758E+03 0.  0.
        -13    1    3    3    0    0 -0.13026816936E+03 -0.43556878559E+03  0.29625733320E+03  0.54264019531E+03  0.10566000000E+00 0.  1.
          4    1    3    3  501    0 -0.11512581726E+03  0.58103717786E+03  0.65174861581E+03  0.88070109235E+03  0.00000000000E+00 0.  1.
         13    1    4    4    0    0 -0.34316469676E+03  0.10850571347E+03  0.21717747703E+03  0.42035885461E+03  0.10566000000E+00 0. -1.
         -4    1    4    4    0  502  0.58855868337E+03 -0.25397410574E+03  0.77496504942E+02  0.64568558791E+03  0.00000000000E+00 0. -1.
<mgrwt>
<rscale>  2 0.10522699E+04</rscale>
<asrwt>0</asrwt>
<pdfrwt beam="1">  1       21 0.28708197E+00 0.10616898E+04</pdfrwt>
<pdfrwt beam="2">  1       21 0.95900447E-01 0.10616898E+04</pdfrwt>
<totfact> 0.14435805E+01</totfact>
</mgrwt>
</event>
<event>
 8    1  0.7418332E-006  0.1052329E+04  0.7818608E-02  0.8737398E-01
         21   -1    0    0  501  502  0.00000000000E+00  0.00000000000E+00  0.99394646574E+03  0.99394646574E+03  0.00000000000E+00 0.  1.
         21   -1    0    0  502  503 -0.00000000000E+00 -0.00000000000E+00 -0.11898991248E+04  0.11898991248E+04  0.00000000000E+00 0.  1.
    9000010    2    1    2  501    0  0.80404679209E+02  0.25636312374E+03  0.25284831654E+03  0.10822792874E+04  0.10174523189E+04 0.  0.
   -9000010    2    1    2    0  503 -0.80404679209E+02 -0.25636312374E+03 -0.44880097564E+03  0.11015663031E+04  0.96945295958E+03 0.  0.
        -13    1    3    3    0    0  0.21301035864E+03  0.16625290122E+03  0.62290375666E+03  0.67898640728E+03  0.10566000000E+00 0.  1.
          4    1    3    3  501    0 -0.13260567943E+03  0.90110222525E+02 -0.37005544012E+03  0.40329288016E+03  0.00000000000E+00 0.  1.
         13    1    4    4    0    0 -0.49633029744E+03  0.35938505289E+02 -0.22126941047E+03  0.54460582396E+03  0.10566000000E+00 0. -1.
         -4    1    4    4    0  503  0.41592561823E+03 -0.29230162903E+03 -0.22753156517E+03  0.55696047919E+03  0.00000000000E+00 0. -1.
<mgrwt>
<rscale>  2 0.10405491E+04</rscale>
<asrwt>0</asrwt>
<pdfrwt beam="1">  1       21 0.15291484E+00 0.10523289E+04</pdfrwt>
<pdfrwt beam="2">  1       21 0.18306140E+00 0.10523289E+04</pdfrwt>
<totfact> 0.23163633E+01</totfact>
</mgrwt>
</event>
<event>
 8    1  0.7418332E-006  0.1081157E+04  0.7818608E-02  0.8703979E-01
         21   -1    0    0  501  502  0.00000000000E+00  0.00000000000E+00  0.10287730148E+04  0.10287730148E+04  0.00000000000E+00 0. -1.
         21   -1    0    0  502  503 -0.00000000000E+00 -0.00000000000E+00 -0.12187881273E+04  0.12187881273E+04  0.00000000000E+00 0. -1.
    9000010    2    1    2  501    0  0.22525879309E+03 -0.28181950171E+03  0.21484265216E+03  0.11022968189E+04  0.10191845547E+04 0.  0.
   -9000010    2    1    2    0  503 -0.22525879309E+03  0.28181950171E+03 -0.40485776460E+03  0.11452643231E+04  0.10087402068E+04 0.  0.
        -13    1    3    3    0    0  0.44930702172E+03 -0.50763633175E+03  0.34250975491E+03  0.75952905702E+03  0.10566000000E+00 0.  1.
          4    1    3    3  501    0 -0.22404822863E+03  0.22581683004E+03 -0.12766710276E+03  0.34276776191E+03  0.00000000000E+00 0.  1.
         13    1    4    4    0    0  0.35801351586E+03  0.32888095325E+03 -0.18197524763E+03  0.51908704555E+03  0.10566000000E+00 0. -1.
         -4    1    4    4    0  503 -0.58327230895E+03 -0.47061451540E+02 -0.22288251697E+03  0.62617727760E+03  0.00000000000E+00 0. -1.
<mgrwt>
<rscale>  2 0.10786888E+04</rscale>
<asrwt>0</asrwt>
<pdfrwt beam="1">  1       21 0.15827277E+00 0.10811572E+04</pdfrwt>
<pdfrwt beam="2">  1       21 0.18750587E+00 0.10811572E+04</pdfrwt>
<totfact> 0.19022979E+01</totfact>
</mgrwt>
</event>
<event>
 8    1  0.7418332E-006  0.1042913E+04  0.7818608E-02  0.8736580E-01
         21   -1    0    0  501  502  0.00000000000E+00  0.00000000000E+00  0.12834229900E+04  0.12834229900E+04  0.00000000000E+00 0. -1.
         21   -1    0    0  502  503 -0.00000000000E+00 -0.00000000000E+00 -0.12791468333E+04  0.12791468333E+04  0.00000000000E+00 0. -1.
    9000010    2    1    2  501    0 -0.24653281126E+03  0.88480270608E+02  0.75049591751E+03  0.12801850076E+04  0.10035050304E+04 0.  0.
   -9000010    2    1    2    0  503  0.24653281126E+03 -0.88480270608E+02 -0.74621976078E+03  0.12823848158E+04  0.10094848682E+04 0.  0.
        -13    1    3    3    0    0  0.59283426209E+02  0.46029453375E+03  0.10654643203E+03  0.47616986020E+03  0.10566000000E+00 0.  1.
          4    1    3    3  501    0 -0.30581623747E+03 -0.37181426314E+03  0.64394948548E+03  0.80401514739E+03  0.00000000000E+00 0.  1.
         13    1    4    4    0    0  0.17021632767E+02 -0.44247190840E+03 -0.20898356398E+02  0.44329209126E+03  0.10566000000E+00 0. -1.
         -4    1    4    4    0  503  0.22951117850E+03  0.35399163780E+03 -0.72532140438E+03  0.83909272452E+03  0.00000000000E+00 0. -1.
<mgrwt>
<rscale>  2 0.10414629E+04</rscale>
<asrwt>0</asrwt>
<pdfrwt beam="1">  1       21 0.19744969E+00 0.10429127E+04</pdfrwt>
<pdfrwt beam="2">  1       21 0.19679182E+00 0.10429127E+04</pdfrwt>
<totfact> 0.77103887E+00</totfact>
</mgrwt>
</event>
<event>
 8    1  0.7418332E-006  0.1055419E+04  0.7818608E-02  0.8729071E-01
         21   -1    0    0  503  502  0.00000000000E+00  0.00000000000E+00  0.16572277918E+04  0.16572277918E+04  0.00000000000E+00 0.  1.
         21   -1    0    0  501  503 -0.00000000000E+00 -0.00000000000E+00 -0.97154357621E+03  0.97154357621E+03  0.00000000000E+00 0.  1.
    9000010    2    1    2  501    0 -0.96303458493E+02  0.29427316014E+03 -0.40593977827E+03  0.11103665685E+04  0.98603030586E+03 0.  0.
   -9000010    2    1    2    0  502  0.96303458493E+02 -0.29427316014E+03  0.10916239938E+04  0.15184047994E+04  0.10089792575E+04 0.  0.
        -13    1    3    3    0    0 -0.17377620914E+03  0.17399409905E+03 -0.72237855720E+03  0.76308774622E+03  0.10566000000E+00 0.  1.
          4    1    3    3  501    0  0.77472750649E+02  0.12027906109E+03  0.31643877893E+03  0.34727882233E+03  0.00000000000E+00 0.  1.
         13    1    4    4    0    0  0.44533410122E+03 -0.35743260562E+03  0.28706755223E+03  0.63913090989E+03  0.10566000000E+00 0. -1.
         -4    1    4    4    0  502 -0.34903064272E+03  0.63159445478E+02  0.80455644159E+03  0.87927388954E+03  0.00000000000E+00 0. -1.
<mgrwt>
<rscale>  2 0.10498969E+04</rscale>
<asrwt>0</asrwt>
<pdfrwt beam="1">  1       21 0.25495812E+00 0.10554194E+04</pdfrwt>
<pdfrwt beam="2">  1       21 0.14946824E+00 0.10554194E+04</pdfrwt>
<totfact> 0.70689808E+00</totfact>
</mgrwt>
</event>
<event>
 8    1  0.7418332E-006  0.1068683E+04  0.7818608E-02  0.8716776E-01
         21   -1    0    0  501  502  0.00000000000E+00  0.00000000000E+00  0.10782885765E+04  0.10782885765E+04  0.00000000000E+00 0.  1.
         21   -1    0    0  502  503 -0.00000000000E+00 -0.00000000000E+00 -0.13199495751E+04  0.13199495751E+04  0.00000000000E+00 0.  1.
    9000010    2    1    2  501    0 -0.19545934445E+03  0.24660353722E+03  0.43189071865E+03  0.11350061883E+04  0.10013449928E+04 0.  0.
   -9000010    2    1    2    0  503  0.19545934445E+03 -0.24660353722E+03 -0.67355171721E+03  0.12632319633E+04  0.10213057414E+04 0.  0.
        -13    1    3    3    0    0 -0.54335937303E+02  0.25237601981E+03 -0.29644746263E+03  0.39309942600E+03  0.10566000000E+00 0.  1.
          4    1    3    3  501    0 -0.14112340715E+03 -0.57724825947E+01  0.72833818128E+03  0.74190676227E+03  0.00000000000E+00 0.  1.
         13    1    4    4    0    0  0.59834514973E+02 -0.11899022197E+03 -0.93378248566E+03  0.94323304850E+03  0.10566000000E+00 0. -1.
         -4    1    4    4    0  503  0.13562482948E+03 -0.12761331525E+03  0.26023076845E+03  0.31999891476E+03  0.00000000000E+00 0. -1.
<mgrwt>
<rscale>  2 0.10638858E+04</rscale>
<asrwt>0</asrwt>
<pdfrwt beam="1">  1       21 0.16589055E+00 0.10686829E+04</pdfrwt>
<pdfrwt beam="2">  1       21 0.20306917E+00 0.10686829E+04</pdfrwt>
<totfact> 0.12369729E+01</totfact>
</mgrwt>
</event>
<event>
 8    1  0.7418332E-006  0.1066973E+04  0.7818608E-02  0.8715150E-01
         21   -1    0    0  501  502  0.00000000000E+00  0.00000000000E+00  0.73191758831E+03  0.73191758831E+03  0.00000000000E+00 0.  1.
         21   -1    0    0  502  503 -0.00000000000E+00 -0.00000000000E+00 -0.16756785917E+04  0.16756785917E+04  0.00000000000E+00 0.  1.
    9000010    2    1    2  501    0  0.21656806965E+03  0.31111557403E+03 -0.14099729807E+03  0.10762492254E+04  0.99736529317E+03 0.  0.
   -9000010    2    1    2    0  503 -0.21656806965E+03 -0.31111557403E+03 -0.80276370534E+03  0.13313469546E+04  0.99214944322E+03 0.  0.
        -13    1    3    3    0    0  0.23016244631E+02 -0.35509443615E+03 -0.14028036722E+03  0.38249235116E+03  0.10566000000E+00 0.  1.
          4    1    3    3  501    0  0.19355182502E+03  0.66621001018E+03 -0.71693084978E+00  0.69375687429E+03  0.00000000000E+00 0.  1.
         13    1    4    4    0    0 -0.16794271796E+03 -0.32218316308E+03  0.13845040772E+03  0.38881264595E+03  0.10566000000E+00 0. -1.
         -4    1    4    4    0  503 -0.48625351689E+02  0.11067589054E+02 -0.94121411305E+03  0.94253430864E+03  0.00000000000E+00 0. -1.
<mgrwt>
<rscale>  2 0.10657528E+04</rscale>
<asrwt>0</asrwt>
<pdfrwt beam="1">  1       21 0.11260271E+00 0.10669734E+04</pdfrwt>
<pdfrwt beam="2">  1       21 0.25779671E+00 0.10669734E+04</pdfrwt>
<totfact> 0.15256720E+01</totfact>
</mgrwt>
</event>
<event>
 8    1  0.7418332E-006  0.1128625E+04  0.7818608E-02  0.8669352E-01
         21   -1    0    0  501  502  0.00000000000E+00  0.00000000000E+00  0.21098531773E+04  0.21098531773E+04  0.00000000000E+00 0.  1.
         21   -1    0    0  502  503 -0.00000000000E+00 -0.00000000000E+00 -0.68391986911E+03  0.68391986911E+03  0.00000000000E+00 0.  1.
    9000010    2    1    2  501    0 -0.44850833212E+03  0.23854669950E+03  0.12330160865E+04  0.16487785196E+04  0.96957603377E+03 0.  0.
   -9000010    2    1    2    0  503  0.44850833212E+03 -0.23854669950E+03  0.19291722167E+03  0.11449945268E+04  0.10078348874E+04 0.  0.
        -13    1    3    3    0    0  0.29177474639E+03  0.58340073769E+02  0.17571628703E+03  0.34556083622E+03  0.10566000000E+00 0.  1.
          4    1    3    3  501    0 -0.74028307851E+03  0.18020662574E+03  0.10572997994E+04  0.13032176833E+04  0.00000000000E+00 0.  1.
         13    1    4    4    0    0 -0.11829195749E+03 -0.47949521040E+03 -0.17422930430E+02  0.49417832173E+03  0.10566000000E+00 0. -1.
         -4    1    4    4    0  503  0.56680028961E+03  0.24094851089E+03  0.21034015210E+03  0.65081620507E+03  0.00000000000E+00 0. -1.
<mgrwt>
<rscale>  2 0.11200204E+04</rscale>
<asrwt>0</asrwt>
<pdfrwt beam="1">  1       21 0.32459279E+00 0.11286255E+04</pdfrwt>
<pdfrwt beam="2">  1       21 0.10521844E+00 0.11286255E+04</pdfrwt>
<totfact> 0.60626645E+00</totfact>
</mgrwt>
</event>
<event>
 8    1  0.7418332E-006  0.9966082E+03  0.7818608E-02  0.8797238E-01
         21   -1    0    0  503  502  0.00000000000E+00  0.00000000000E+00  0.32606653532E+04  0.32606653532E+04  0.00000000000E+00 0.  1.
         21   -1    0    0  501  503 -0.00000000000E+00 -0.00000000000E+00 -0.34769412538E+03  0.34769412538E+03  0.00000000000E+00 0.  1.
    9000010    2    1    2  501    0 -0.22608153476E+02 -0.11000100558E+03  0.61794528954E+03  0.11062859525E+04  0.91071448761E+03 0.  0.
   -9000010    2    1    2    0  502  0.22608153476E+02  0.11000100558E+03  0.22950259382E+04  0.25020735261E+04  0.99026083573E+03 0.  0.
        -13    1    3    3    0    0 -0.12226956379E+03 -0.36026994883E+03 -0.52206927241E+02  0.38401804213E+03  0.10566000000E+00 0.  1.
          4    1    3    3  501    0  0.99661410313E+02  0.25026894326E+03  0.67015221679E+03  0.72226791035E+03  0.00000000000E+00 0.  1.
         13    1    4    4    0    0  0.20220674714E+03  0.50438068662E+03  0.10247453376E+04  0.11599096791E+04  0.10566000000E+00 0. -1.
         -4    1    4    4    0  502 -0.17959859367E+03 -0.39437968104E+03  0.12702806007E+04  0.13421638470E+04  0.00000000000E+00 0. -1.
<mgrwt>
<rscale>  2 0.97624346E+03</rscale>
<asrwt>0</asrwt>
<pdfrwt beam="1">  1       21 0.50164080E+00 0.99660818E+03</pdfrwt>
<pdfrwt beam="2">  1       21 0.53491406E-01 0.99660818E+03</pdfrwt>
<totfact> 0.18845707E+00</totfact>
</mgrwt>
</event>
<event>
 8    1  0.7418332E-006  0.1119776E+04  0.7818608E-02  0.8688690E-01
         21   -1    0    0  503  502  0.00000000000E+00  0.00000000000E+00  0.69285283223E+03  0.69285283223E+03  0.00000000000E+00 0.  1.
         21   -1    0    0  501  503 -0.00000000000E+00 -0.00000000000E+00 -0.18298940838E+04  0.18298940838E+04  0.00000000000E+00 0.  1.
    9000010    2    1    2  501    0 -0.16756124538E+03 -0.20117397540E+03 -0.92178818464E+03  0.13824700257E+04  0.99648490976E+03 0.  0.
   -9000010    2    1    2    0  502  0.16756124538E+03  0.20117397540E+03 -0.21525306691E+03  0.11402768903E+04  0.10887376931E+04 0.  0.
        -13    1    3    3    0    0 -0.30418376873E+03 -0.53369376971E+03 -0.78740547485E+03  0.99868122941E+03  0.10566000000E+00 0.  1.
          4    1    3    3  501    0  0.13662252336E+03  0.33251979430E+03 -0.13438270978E+03  0.38378879632E+03  0.00000000000E+00 0.  1.
         13    1    4    4    0    0 -0.22086299577E+02  0.45200974322E+03 -0.52893555298E+03  0.69611309639E+03  0.10566000000E+00 0. -1.
         -4    1    4    4    0  502  0.18964754495E+03 -0.25083576782E+03  0.31368248607E+03  0.44416379388E+03  0.00000000000E+00 0. -1.
<mgrwt>
<rscale>  2 0.10967049E+04</rscale>
<asrwt>0</asrwt>
<pdfrwt beam="1">  1       21 0.10659274E+00 0.11197756E+04</pdfrwt>
<pdfrwt beam="2">  1       21 0.28152217E+00 0.11197756E+04</pdfrwt>
<totfact> 0.11825515E+01</totfact>
</mgrwt>
</event>
<event>
 8    1  0.7418332E-006  0.1021620E+04  0.7818608E-02  0.8772689E-01
         21   -1    0    0  501  502  0.00000000000E+00  0.00000000000E+00  0.12858332329E+04  0.12858332329E+04  0.00000000000E+00 0. -1.
         21   -1    0    0  502  503 -0.00000000000E+00 -0.00000000000E+00 -0.75371418628E+03  0.75371418628E+03  0.00000000000E+00 0. -1.
    9000010    2    1    2  501    0  0.82193164886E+02  0.14662810418E+03  0.21206249539E+03  0.96896624071E+03  0.93041364800E+03 0.  0.
   -9000010    2    1    2    0  503 -0.82193164886E+02 -0.14662810418E+03  0.32005655119E+03  0.10705811784E+04  0.10076965547E+04 0.  0.
        -13    1    3    3    0    0 -0.11345046993E+03  0.50902670969E+03  0.41359110081E+02  0.52315369392E+03  0.10566000000E+00 0.  1.
          4    1    3    3  501    0  0.19564363481E+03 -0.36239860551E+03  0.17070338531E+03  0.44581254679E+03  0.00000000000E+00 0.  1.
         13    1    4    4    0    0 -0.29721829950E+02 -0.50810337001E+03 -0.94922110522E+02  0.51774766057E+03  0.10566000000E+00 0. -1.
         -4    1    4    4    0  503 -0.52471334936E+02  0.36147526583E+03  0.41497866172E+03  0.55283351787E+03  0.00000000000E+00 0. -1.
<mgrwt>
<rscale>  2 0.10020277E+04</rscale>
<asrwt>0</asrwt>
<pdfrwt beam="1">  1       21 0.19782050E+00 0.10216202E+04</pdfrwt>
<pdfrwt beam="2">  1       21 0.11595603E+00 0.10216202E+04</pdfrwt>
<totfact> 0.39941966E+01</totfact>
</mgrwt>
</event>
<event>
 8    1  0.7418332E-006  0.1038862E+04  0.7818608E-02  0.8739741E-01
         21   -1    0    0  503  502  0.00000000000E+00  0.00000000000E+00  0.10537917414E+04  0.10537917414E+04  0.00000000000E+00 0.  1.
         21   -1    0    0  501  503 -0.00000000000E+00 -0.00000000000E+00 -0.11422276372E+04  0.11422276372E+04  0.00000000000E+00 0.  1.
    9000010    2    1    2  501    0 -0.11824843361E+03 -0.28188262092E+03 -0.40258906066E+03  0.11106964981E+04  0.98900366788E+03 0.  0.
   -9000010    2    1    2    0  502  0.11824843361E+03  0.28188262092E+03  0.31415316485E+03  0.10853228805E+04  0.99287110943E+03 0.  0.
        -13    1    3    3    0    0  0.39843364381E+03 -0.39262984550E+02  0.19406966252E+02  0.40083362132E+03  0.10566000000E+00 0.  1.
          4    1    3    3  501    0 -0.51668207742E+03 -0.24261963637E+03 -0.42199602691E+03  0.70986287677E+03  0.00000000000E+00 0.  1.
         13    1    4    4    0    0  0.44483995586E+03 -0.10636067934E+03 -0.51034977708E+02  0.46021707981E+03  0.10566000000E+00 0. -1.
         -4    1    4    4    0  502 -0.32659152225E+03  0.38824330026E+03  0.36518814256E+03  0.62510580070E+03  0.00000000000E+00 0. -1.
<mgrwt>
<rscale>  2 0.10379365E+04</rscale>
<asrwt>0</asrwt>
<pdfrwt beam="1">  1       21 0.16212181E+00 0.10388617E+04</pdfrwt>
<pdfrwt beam="2">  1       21 0.17572733E+00 0.10388617E+04</pdfrwt>
<totfact> 0.22180340E+01</totfact>
</mgrwt>
</event>
<event>
 8    1  0.7418332E-006  0.1219511E+04  0.7818608E-02  0.8647552E-01
         21   -1    0    0  503  502  0.00000000000E+00  0.00000000000E+00  0.16434285679E+04  0.16434285679E+04  0.00000000000E+00 0. -1.
         21   -1    0    0  501  503 -0.00000000000E+00 -0.00000000000E+00 -0.12211129739E+04  0.12211129739E+04  0.00000000000E+00 0. -1.
    9000010    2    1    2  501    0 -0.43171493259E+02  0.58455500217E+02 -0.71846996061E+03  0.11946317800E+04  0.95166442722E+03 0.  0.
   -9000010    2    1    2    0  502  0.43171493259E+02 -0.58455500217E+02  0.11407855547E+04  0.16699097618E+04  0.12173438740E+04 0.  0.
        -13    1    3    3    0    0  0.30408036662E+03 -0.31367974207E+03 -0.41198353731E+03  0.60049171195E+03  0.10566000000E+00 0.  1.
          4    1    3    3  501    0 -0.34725185988E+03  0.37213524229E+03 -0.30648642330E+03  0.59414006800E+03  0.00000000000E+00 0.  1.
         13    1    4    4    0    0 -0.44432866112E+03  0.19117745870E+03  0.10018872453E+03  0.49397831075E+03  0.10566000000E+00 0. -1.
         -4    1    4    4    0  502  0.48750015438E+03 -0.24963295892E+03  0.10405968302E+04  0.11759314511E+04  0.00000000000E+00 0. -1.
<mgrwt>
<rscale>  2 0.11470328E+04</rscale>
<asrwt>0</asrwt>
<pdfrwt beam="1">  1       21 0.25283516E+00 0.12195109E+04</pdfrwt>
<pdfrwt beam="2">  1       21 0.18786353E+00 0.12195109E+04</pdfrwt>
<totfact> 0.33439123E+00</totfact>
</mgrwt>
</event>
<event>
 8    1  0.7418332E-006  0.1062301E+04  0.7818608E-02  0.8727877E-01
         21   -1    0    0  503  502  0.00000000000E+00  0.00000000000E+00  0.42690714148E+03  0.42690714148E+03  0.00000000000E+00 0.  1.
         21   -1    0    0  501  503 -0.00000000000E+00 -0.00000000000E+00 -0.26012645752E+04  0.26012645752E+04  0.00000000000E+00 0.  1.
    9000010    2    1    2  501    0  0.96394696345E+02  0.16115246492E+03 -0.13044765125E+04  0.16551547649E+04  0.10013072803E+04 0.  0.
   -9000010    2    1    2    0  502 -0.96394696345E+02 -0.16115246492E+03 -0.86988092117E+03  0.13730169518E+04  0.10455719384E+04 0.  0.
        -13    1    3    3    0    0  0.44586839553E+02  0.56884457541E+03 -0.96956427270E+03  0.11250009010E+04  0.10566000000E+00 0.  1.
          4    1    3    3  501    0  0.51807856792E+02 -0.40769211049E+03 -0.33491223983E+03  0.53015386386E+03  0.00000000000E+00 0.  1.
         13    1    4    4    0    0 -0.21323460572E+03 -0.12288140911E+03  0.18694790787E+03  0.30906046205E+03  0.10566000000E+00 0. -1.
         -4    1    4    4    0  502  0.11683990937E+03 -0.38271055807E+02 -0.10568288290E+04  0.10639564897E+04  0.00000000000E+00 0. -1.
<mgrwt>
<rscale>  2 0.10512449E+04</rscale>
<asrwt>0</asrwt>
<pdfrwt beam="1">  1       21 0.65678022E-01 0.10623007E+04</pdfrwt>
<pdfrwt beam="2">  1       21 0.40019455E+00 0.10623007E+04</pdfrwt>
<totfact> 0.58702390E+00</totfact>
</mgrwt>
</event>
<event>
 8    1  0.7418332E-006  0.1140586E+04  0.7818608E-02  0.8683739E-01
         21   -1    0    0  503  502  0.00000000000E+00  0.00000000000E+00  0.80397542146E+03  0.80397542146E+03  0.00000000000E+00 0. -1.
         21   -1    0    0  501  503 -0.00000000000E+00 -0.00000000000E+00 -0.16059314264E+04  0.16059314264E+04  0.00000000000E+00 0. -1.
    9000010    2    1    2  501    0  0.12390060145E+03 -0.33458264880E+03 -0.78653957770E+03  0.12692164229E+04  0.93003704921E+03 0.  0.
   -9000010    2    1    2    0  502 -0.12390060145E+03  0.33458264880E+03 -0.15416427280E+02  0.11406904250E+04  0.10833466996E+04 0.  0.
        -13    1    3    3    0    0 -0.45582173104E+02  0.29985130873E+03 -0.10042940789E+03  0.31949118765E+03  0.10566000000E+00 0.  1.
          4    1    3    3  501    0  0.16948277455E+03 -0.63443395753E+03 -0.68611016980E+03  0.94972523523E+03  0.00000000000E+00 0.  1.
         13    1    4    4    0    0 -0.42807069580E+03  0.95546391832E+02  0.38522746337E+03  0.58375837749E+03  0.10566000000E+00 0. -1.
         -4    1    4    4    0  502  0.30417009435E+03  0.23903625697E+03 -0.40064389065E+03  0.55693204752E+03  0.00000000000E+00 0. -1.
<mgrwt>
<rscale>  2 0.11026168E+04</rscale>
<asrwt>0</asrwt>
<pdfrwt beam="1">  1       21 0.12368853E+00 0.11405862E+04</pdfrwt>
<pdfrwt beam="2">  1       21 0.24706637E+00 0.11405862E+04</pdfrwt>
<totfact> 0.13836308E+01</totfact>
</mgrwt>
</event>
<event>
 8    1  0.7418332E-006  0.1051738E+04  0.7818608E-02  0.8732400E-01
         21   -1    0    0  503  502  0.00000000000E+00  0.00000000000E+00  0.99986525081E+03  0.99986525081E+03  0.00000000000E+00 0. -1.
         21   -1    0    0  501  503 -0.00000000000E+00 -0.00000000000E+00 -0.11369434578E+04  0.11369434578E+04  0.00000000000E+00 0. -1.
    9000010    2    1    2  501    0  0.19571657627E+02 -0.30647542287E+03  0.16467069329E+03  0.10426401741E+04  0.98268604388E+03 0.  0.
   -9000010    2    1    2    0  502 -0.19571657627E+02  0.30647542287E+03 -0.30174890031E+03  0.10941685345E+04  0.10059036477E+04 0.  0.
        -13    1    3    3    0    0 -0.29703415178E+03  0.11224047253E+03 -0.22475208516E+03  0.38902534871E+03  0.10566000000E+00 0.  1.
          4    1    3    3  501    0  0.31660580940E+03 -0.41871589540E+03  0.38942277844E+03  0.65361482540E+03  0.00000000000E+00 0.  1.
         13    1    4    4    0    0 -0.26008928173E+02  0.52230787165E+03  0.19055627461E+03  0.55659112649E+03  0.10566000000E+00 0. -1.
         -4    1    4    4    0  502  0.64372705460E+01 -0.21583244877E+03 -0.49230517492E+03  0.53757740805E+03  0.00000000000E+00 0. -1.
<mgrwt>
<rscale>  2 0.10461475E+04</rscale>
<asrwt>0</asrwt>
<pdfrwt beam="1">  1       21 0.15382542E+00 0.10517378E+04</pdfrwt>
<pdfrwt beam="2">  1       21 0.17491438E+00 0.10517378E+04</pdfrwt>
<totfact> 0.26515548E+01</totfact>
</mgrwt>
</event>
<event>
 8    1  0.7418332E-006  0.1042027E+04  0.7818608E-02  0.8740154E-01
         21   -1    0    0  501  502  0.00000000000E+00  0.00000000000E+00  0.77578762508E+03  0.77578762508E+03  0.00000000000E+00 0. -1.
         21   -1    0    0  502  503 -0.00000000000E+00 -0.00000000000E+00 -0.15274066414E+04  0.15274066414E+04  0.00000000000E+00 0. -1.
    9000010    2    1    2  501    0  0.18017029899E+03  0.90133091215E+02 -0.73605730910E+03  0.12610512894E+04  0.10039346002E+04 0.  0.
   -9000010    2    1    2    0  503 -0.18017029899E+03 -0.90133091215E+02 -0.15561707195E+02  0.10421429770E+04  0.10223671098E+04 0.  0.
        -13    1    3    3    0    0  0.51214070241E+03  0.85439696016E+02 -0.76850788835E+03  0.92746559308E+03  0.10566000000E+00 0.  1.
          4    1    3    3  501    0 -0.33197040342E+03  0.46933951985E+01  0.32450579252E+02  0.33358569634E+03  0.00000000000E+00 0.  1.
         13    1    4    4    0    0 -0.38647601940E+03  0.34876148062E+03  0.12856392212E+03  0.53621542049E+03  0.10566000000E+00 0. -1.
         -4    1    4    4    0  503  0.20630572041E+03 -0.43889457183E+03 -0.14412562931E+03  0.50592755656E+03  0.00000000000E+00 0. -1.
<mgrwt>
<rscale>  2 0.10374774E+04</rscale>
<asrwt>0</asrwt>
<pdfrwt beam="1">  1       21 0.11935194E+00 0.10420268E+04</pdfrwt>
<pdfrwt beam="2">  1       21 0.23498563E+00 0.10420268E+04</pdfrwt>
<totfact> 0.19171841E+01</totfact>
</mgrwt>
</event>
<event>
 8    1  0.7418332E-006  0.1070874E+04  0.7818608E-02  0.8722128E-01
         21   -1    0    0  503  502  0.00000000000E+00  0.00000000000E+00  0.62053096915E+03  0.62053096915E+03  0.00000000000E+00 0.  1.
         21   -1    0    0  501  503 -0.00000000000E+00 -0.00000000000E+00 -0.17691229649E+04  0.17691229649E+04  0.00000000000E+00 0.  1.
    9000010    2    1    2  501    0  0.23227199303E+03 -0.10005061662E+03 -0.64459211299E+03  0.12061051926E+04  0.98753751260E+03 0.  0.
   -9000010    2    1    2    0  502 -0.23227199303E+03  0.10005061662E+03 -0.50399988277E+03  0.11835487415E+04  0.10405822106E+04 0.  0.
        -13    1    3    3    0    0  0.14362530582E+03 -0.47546317737E+03 -0.65281480361E+03  0.82028083026E+03  0.10566000000E+00 0.  1.
          4    1    3    3  501    0  0.88646687206E+02  0.37541256075E+03  0.82226906160E+01  0.38582436232E+03  0.00000000000E+00 0.  1.
         13    1    4    4    0    0  0.26146460480E+03 -0.68564168619E+01  0.19134007205E+03  0.32407064716E+03  0.10566000000E+00 0. -1.
         -4    1    4    4    0  502 -0.49373659783E+03  0.10690703348E+03 -0.69533995483E+03  0.85947809432E+03  0.00000000000E+00 0. -1.
<mgrwt>
<rscale>  2 0.10577689E+04</rscale>
<asrwt>0</asrwt>
<pdfrwt beam="1">  1       21 0.95466304E-01 0.10708743E+04</pdfrwt>
<pdfrwt beam="2">  1       21 0.27217276E+00 0.10708743E+04</pdfrwt>
<totfact> 0.18615194E+01</totfact>
</mgrwt>
</event>
<event>
 8    1  0.7418332E-006  0.1052213E+04  0.7818608E-02  0.8737873E-01
         21   -1    0    0  501  502  0.00000000000E+00  0.00000000000E+00  0.10420462118E+04  0.10420462118E+04  0.00000000000E+00 0.  1.
         21   -1    0    0  502  503 -0.00000000000E+00 -0.00000000000E+00 -0.11013339382E+04  0.11013339382E+04  0.00000000000E+00 0.  1.
    9000010    2    1    2  501    0 -0.29991842334E+03  0.18197131045E+03  0.27162057568E+03  0.10403604756E+04  0.94101411447E+03 0.  0.
   -9000010    2    1    2    0  503  0.29991842334E+03 -0.18197131045E+03 -0.33090830213E+03  0.11030196744E+04  0.99201183417E+03 0.  0.
        -13    1    3    3    0    0 -0.38722638768E+03 -0.31319533558E+03  0.92147166201E+02  0.50648465421E+03  0.10566000000E+00 0.  1.
          4    1    3    3  501    0  0.87307964340E+02  0.49516664604E+03  0.17947340948E+03  0.53387582142E+03  0.00000000000E+00 0.  1.
         13    1    4    4    0    0 -0.15630511385E+03 -0.41389804731E+03  0.76344611699E+02  0.44896702895E+03  0.10566000000E+00 0. -1.
         -4    1    4    4    0  503  0.45622353719E+03  0.23192673686E+03 -0.40725291383E+03  0.65405264542E+03  0.00000000000E+00 0. -1.
<mgrwt>
<rscale>  2 0.10400186E+04</rscale>
<asrwt>0</asrwt>
<pdfrwt beam="1">  1       21 0.16031480E+00 0.10522130E+04</pdfrwt>
<pdfrwt beam="2">  1       21 0.16943599E+00 0.10522130E+04</pdfrwt>
<totfact> 0.25859715E+01</totfact>
</mgrwt>
</event>
<event>
 8    1  0.7418332E-006  0.1013175E+04  0.7818608E-02  0.8767859E-01
         21   -1    0    0  501  502  0.00000000000E+00  0.00000000000E+00  0.18376355296E+04  0.18376355296E+04  0.00000000000E+00 0.  1.
         21   -1    0    0  502  503 -0.00000000000E+00 -0.00000000000E+00 -0.54682526828E+03  0.54682526828E+03  0.00000000000E+00 0.  1.
    9000010    2    1    2  501    0 -0.49860479648E+02 -0.27551755334E+02  0.69376079793E+03  0.12084541403E+04  0.98783206969E+03 0.  0.
   -9000010    2    1    2    0  503  0.49860479648E+02  0.27551755334E+02  0.59704946342E+03  0.11760066576E+04  0.10115722566E+04 0.  0.
        -13    1    3    3    0    0 -0.35996001261E+03 -0.28063758022E+03  0.66577660356E+03  0.80720948900E+03  0.10566000000E+00 0.  1.
          4    1    3    3  501    0  0.31009953296E+03  0.25308582488E+03  0.27984194366E+02  0.40124465135E+03  0.00000000000E+00 0.  1.
         13    1    4    4    0    0 -0.48777210115E+02 -0.22974763543E+03  0.80000792292E+03  0.83377207923E+03  0.10566000000E+00 0. -1.
         -4    1    4    4    0  503  0.98637689762E+02  0.25729939076E+03 -0.20295845950E+03  0.34223457834E+03  0.00000000000E+00 0. -1.
<mgrwt>
<rscale>  2 0.10071969E+04</rscale>
<asrwt>0</asrwt>
<pdfrwt beam="1">  1       21 0.28271316E+00 0.10131750E+04</pdfrwt>
<pdfrwt beam="2">  1       21 0.84126965E-01 0.10131750E+04</pdfrwt>
<totfact> 0.21893032E+01</totfact>
</mgrwt>
</event>
<event>
 8    1  0.7418332E-006  0.1041247E+04  0.7818608E-02  0.8746783E-01
         21   -1    0    0  501  502  0.00000000000E+00  0.00000000000E+00  0.55723118002E+03  0.55723118002E+03  0.00000000000E+00 0.  1.
         21   -1    0    0  502  503 -0.00000000000E+00 -0.00000000000E+00 -0.18780215626E+04  0.18780215626E+04  0.00000000000E+00 0.  1.
    9000010    2    1    2  501    0  0.30416728644E+02 -0.79539291511E+02 -0.57229660089E+03  0.11881573942E+04  0.10377586028E+04 0.  0.
   -9000010    2    1    2    0  503 -0.30416728644E+02  0.79539291511E+02 -0.74849378167E+03  0.12470953484E+04  0.99385722845E+03 0.  0.
        -13    1    3    3    0    0 -0.31644859838E+03 -0.14053411364E+03  0.15554596557E+03  0.37958412913E+03  0.10566000000E+00 0.  1.
          4    1    3    3  501    0  0.34686532703E+03  0.60994822127E+02 -0.72784256646E+03  0.80857326506E+03  0.00000000000E+00 0.  1.
         13    1    4    4    0    0  0.35392950672E+03  0.13518797369E+03  0.26963936394E+02  0.37982752531E+03  0.10566000000E+00 0. -1.
         -4    1    4    4    0  503 -0.38434623536E+03 -0.55648682175E+02 -0.77545771806E+03  0.86726782309E+03  0.00000000000E+00 0. -1.
<mgrwt>
<rscale>  2 0.10301330E+04</rscale>
<asrwt>0</asrwt>
<pdfrwt beam="1">  1       21 0.85727872E-01 0.10412467E+04</pdfrwt>
<pdfrwt beam="2">  1       21 0.28892640E+00 0.10412467E+04</pdfrwt>
<totfact> 0.18746567E+01</totfact>
</mgrwt>
</event>
<event>
 8    1  0.7418332E-006  0.1022801E+04  0.7818608E-02  0.8757822E-01
         21   -1    0    0  501  502  0.00000000000E+00  0.00000000000E+00  0.16119812175E+04  0.16119812175E+04  0.00000000000E+00 0. -1.
         21   -1    0    0  502  503 -0.00000000000E+00 -0.00000000000E+00 -0.75069187724E+03  0.75069187724E+03  0.00000000000E+00 0. -1.
    9000010    2    1    2  501    0 -0.10642351076E+03 -0.14400499414E+03 -0.32423738767E+02  0.10044225942E+04  0.98780061090E+03 0.  0.
   -9000010    2    1    2    0  503  0.10642351076E+03  0.14400499414E+03  0.89371307898E+03  0.13582505005E+04  0.10070044452E+04 0.  0.
        -13    1    3    3    0    0  0.35233015733E+03 -0.23773868234E+03  0.21338200428E+03  0.47559237984E+03  0.10566000000E+00 0.  1.
          4    1    3    3  501    0 -0.45875366809E+03  0.93733688200E+02 -0.24580574305E+03  0.52883021435E+03  0.00000000000E+00 0.  1.
         13    1    4    4    0    0 -0.12750827363E+03 -0.36447068778E+03  0.12202392478E+03  0.40495319665E+03  0.10566000000E+00 0. -1.
         -4    1    4    4    0  503  0.23393178439E+03  0.50847568192E+03  0.77168915420E+03  0.95329730386E+03  0.00000000000E+00 0. -1.
<mgrwt>
<rscale>  2 0.10180422E+04</rscale>
<asrwt>0</asrwt>
<pdfrwt beam="1">  1       21 0.24799711E+00 0.10228007E+04</pdfrwt>
<pdfrwt beam="2">  1       21 0.11549106E+00 0.10228007E+04</pdfrwt>
<totfact> 0.16932841E+01</totfact>
</mgrwt>
</event>
<event>
 8    1  0.7418332E-006  0.1028047E+04  0.7818608E-02  0.8749464E-01
         21   -1    0    0  501  502  0.00000000000E+00  0.00000000000E+00  0.11924681824E+04  0.11924681824E+04  0.00000000000E+00 0.  1.
         21   -1    0    0  502  503 -0.00000000000E+00 -0.00000000000E+00 -0.95713375482E+03  0.95713375482E+03  0.00000000000E+00 0.  1.
    9000010    2    1    2  501    0  0.24508854445E+03 -0.52719558601E+02  0.41596618519E+03  0.11058070925E+04  0.99344537449E+03 0.  0.
   -9000010    2    1    2    0  503 -0.24508854445E+03  0.52719558601E+02 -0.18063175758E+03  0.10437948448E+04  0.99701158451E+03 0.  0.
        -13    1    3    3    0    0  0.98653551220E+02 -0.39875836316E+03 -0.14068773217E+03  0.43420479558E+03  0.10566000000E+00 0.  1.
          4    1    3    3  501    0  0.14643499323E+03  0.34603880456E+03  0.55665391736E+03  0.67160229691E+03  0.00000000000E+00 0.  1.
         13    1    4    4    0    0  0.16344043883E+03  0.81604839939E+02 -0.49491536714E+03  0.52755412873E+03  0.10566000000E+00 0. -1.
         -4    1    4    4    0  503 -0.40852898327E+03 -0.28885281338E+02  0.31428360956E+03  0.51624071603E+03  0.00000000000E+00 0. -1.
<mgrwt>
<rscale>  2 0.10271810E+04</rscale>
<asrwt>0</asrwt>
<pdfrwt beam="1">  1       21 0.18345664E+00 0.10280466E+04</pdfrwt>
<pdfrwt beam="2">  1       21 0.14725135E+00 0.10280466E+04</pdfrwt>
<totfact> 0.25972654E+01</totfact>
</mgrwt>
</event>
<event>
 8    1  0.7418332E-006  0.1070422E+04  0.7818608E-02  0.8712625E-01
         21   -1    0    0  501  502  0.00000000000E+00  0.00000000000E+00  0.14849642278E+04  0.14849642278E+04  0.00000000000E+00 0.  1.
         21   -1    0    0  502  503 -0.00000000000E+00 -0.00000000000E+00 -0.97398730414E+03  0.97398730414E+03  0.00000000000E+00 0.  1.
    9000010    2    1    2  501    0 -0.70972764807E+02  0.33812349341E+03  0.82355526660E+03  0.13505724905E+04  0.10131328367E+04 0.  0.
   -9000010    2    1    2    0  503  0.70972764807E+02 -0.33812349341E+03 -0.31257834290E+03  0.11083790415E+04  0.10057008746E+04 0.  0.
        -13    1    3    3    0    0 -0.44845743330E+03 -0.62968879372E+02  0.61024413885E+03  0.75991912031E+03  0.10566000000E+00 0.  1.
          4    1    3    3  501    0  0.37748466849E+03  0.40109237278E+03  0.21331112775E+03  0.59065337015E+03  0.00000000000E+00 0.  1.
         13    1    4    4    0    0 -0.25320511189E+03  0.23172484910E+03  0.68591002635E+02  0.35001995826E+03  0.10566000000E+00 0. -1.
         -4    1    4    4    0  503  0.32417787669E+03 -0.56984834251E+03 -0.38116934553E+03  0.75835908326E+03  0.00000000000E+00 0. -1.
<mgrwt>
<rscale>  2 0.10686596E+04</rscale>
<asrwt>0</asrwt>
<pdfrwt beam="1">  1       21 0.22845604E+00 0.10704218E+04</pdfrwt>
<pdfrwt beam="2">  1       21 0.14984420E+00 0.10704218E+04</pdfrwt>
<totfact> 0.10938012E+01</totfact>
</mgrwt>
</event>
<event>
 8    1  0.7418332E-006  0.1000042E+04  0.7818608E-02  0.8777702E-01
         21   -1    0    0  503  502  0.00000000000E+00  0.00000000000E+00  0.11169397693E+04  0.11169397693E+04  0.00000000000E+00 0. -1.
         21   -1    0    0  501  503 -0.00000000000E+00 -0.00000000000E+00 -0.14300628190E+04  0.14300628190E+04  0.00000000000E+00 0. -1.
    9000010    2    1    2  501    0 -0.69370360135E+02 -0.82364790307E+02 -0.94450442164E+03  0.13755624513E+04  0.99422696070E+03 0.  0.
   -9000010    2    1    2    0  502  0.69370360135E+02  0.82364790307E+02  0.63138137192E+03  0.11714401371E+04  0.98083298903E+03 0.  0.
        -13    1    3    3    0    0 -0.17394113784E+03  0.42088674428E+03 -0.61405427528E+03  0.76450234473E+03  0.10566000000E+00 0.  1.
          4    1    3    3  501    0  0.10457077771E+03 -0.50325153458E+03 -0.33045014636E+03  0.61106010657E+03  0.00000000000E+00 0.  1.
         13    1    4    4    0    0  0.51992558865E+03  0.59718416714E+02  0.43030246428E+03  0.67753164425E+03  0.10566000000E+00 0. -1.
         -4    1    4    4    0  502 -0.45055522852E+03  0.22646373593E+02  0.20107890764E+03  0.49390849282E+03  0.00000000000E+00 0. -1.
<mgrwt>
<rscale>  2 0.99669622E+03</rscale>
<asrwt>0</asrwt>
<pdfrwt beam="1">  1       21 0.17183689E+00 0.10000417E+04</pdfrwt>
<pdfrwt beam="2">  1       21 0.22000966E+00 0.10000417E+04</pdfrwt>
<totfact> 0.83218151E+00</totfact>
</mgrwt>
</event>
<event>
 8    1  0.7418332E-006  0.1085778E+04  0.7818608E-02  0.8702835E-01
         21   -1    0    0  501  502  0.00000000000E+00  0.00000000000E+00  0.45333056962E+03  0.45333056962E+03  0.00000000000E+00 0. -1.
         21   -1    0    0  502  503 -0.00000000000E+00 -0.00000000000E+00 -0.31418305957E+04  0.31418305957E+04  0.00000000000E+00 0. -1.
    9000010    2    1    2  501    0 -0.13801174335E+03  0.38753314876E+03 -0.54999682668E+03  0.11968055399E+04  0.98011112040E+03 0.  0.
   -9000010    2    1    2    0  503  0.13801174335E+03 -0.38753314876E+03 -0.21385031994E+04  0.23983556254E+04  0.10048306272E+04 0.  0.
        -13    1    3    3    0    0 -0.55935202194E+03  0.17376234045E+03 -0.24795124389E+03  0.63604077379E+03  0.10566000000E+00 0.  1.
          4    1    3    3  501    0  0.42134027860E+03  0.21377080831E+03 -0.30204558279E+03  0.56076476613E+03  0.00000000000E+00 0.  1.
         13    1    4    4    0    0  0.47751104734E+03  0.26032065978E+02 -0.14472404964E+04  0.15242045579E+04  0.10566000000E+00 0. -1.
         -4    1    4    4    0  503 -0.33949930400E+03 -0.41356521473E+03 -0.69126270306E+03  0.87415106755E+03  0.00000000000E+00 0. -1.
<mgrwt>
<rscale>  2 0.10800235E+04</rscale>
<asrwt>0</asrwt>
<pdfrwt beam="1">  1       21 0.69743163E-01 0.10857780E+04</pdfrwt>
<pdfrwt beam="2">  1       21 0.48335857E+00 0.10857780E+04</pdfrwt>
<totfact> 0.13435054E+00</totfact>
</mgrwt>
</event>
<event>
 8    1  0.7418332E-006  0.1042087E+04  0.7818608E-02  0.8738284E-01
         21   -1    0    0  501  502  0.00000000000E+00  0.00000000000E+00  0.99286987564E+03  0.99286987564E+03  0.00000000000E+00 0.  1.
         21   -1    0    0  502  503 -0.00000000000E+00 -0.00000000000E+00 -0.13532027877E+04  0.13532027877E+04  0.00000000000E+00 0.  1.
    9000010    2    1    2  501    0  0.20785229150E+03 -0.21738353204E+03  0.34311054974E+03  0.10971193975E+04  0.99774142338E+03 0.  0.
   -9000010    2    1    2    0  503 -0.20785229150E+03  0.21738353204E+03 -0.70344346183E+03  0.12489532659E+04  0.98721496204E+03 0.  0.
        -13    1    3    3    0    0 -0.33959522107E+03  0.80814752181E+02  0.31959213615E+03  0.47328118809E+03  0.10566000000E+00 0.  1.
          4    1    3    3  501    0  0.54744751257E+03 -0.29819828422E+03  0.23518413591E+02  0.62383820940E+03  0.00000000000E+00 0.  1.
         13    1    4    4    0    0 -0.44125012291E+03 -0.11666161031E+03 -0.70689335228E+03  0.84143319696E+03  0.10566000000E+00 0. -1.
         -4    1    4    4    0  503  0.23339783141E+03  0.33404514235E+03  0.34498904449E+01  0.40752006892E+03  0.00000000000E+00 0. -1.
<mgrwt>
<rscale>  2 0.10395597E+04</rscale>
<asrwt>0</asrwt>
<pdfrwt beam="1">  1       21 0.15274921E+00 0.10420874E+04</pdfrwt>
<pdfrwt beam="2">  1       21 0.20818505E+00 0.10420874E+04</pdfrwt>
<totfact> 0.14766165E+01</totfact>
</mgrwt>
</event>
<event>
 8    1  0.7418332E-006  0.1018984E+04  0.7818608E-02  0.8790721E-01
         21   -1    0    0  503  502  0.00000000000E+00  0.00000000000E+00  0.13578159862E+04  0.13578159862E+04  0.00000000000E+00 0.  1.
         21   -1    0    0  501  503 -0.00000000000E+00 -0.00000000000E+00 -0.84516549241E+03  0.84516549241E+03  0.00000000000E+00 0.  1.
    9000010    2    1    2  501    0 -0.66587794095E+02  0.15350905674E+03 -0.26466777244E+03  0.92136047474E+03  0.86652012661E+03 0.  0.
   -9000010    2    1    2    0  502  0.66587794095E+02 -0.15350905674E+03  0.77731826626E+03  0.12816210039E+04  0.10051516034E+04 0.  0.
        -13    1    3    3    0    0  0.36688499865E+03 -0.99875563933E+02 -0.12362598942E+03  0.39982887206E+03  0.10566000000E+00 0.  1.
          4    1    3    3  501    0 -0.43347279275E+03  0.25338462067E+03 -0.14104178302E+03  0.52153160269E+03  0.00000000000E+00 0.  1.
         13    1    4    4    0    0  0.42835861809E+03  0.23430907100E+03  0.38987932498E+03  0.62481817007E+03  0.10566000000E+00 0. -1.
         -4    1    4    4    0  502 -0.36177082399E+03 -0.38781812774E+03  0.38743894129E+03  0.65680283383E+03  0.00000000000E+00 0. -1.
<mgrwt>
<rscale>  2 0.98300953E+03</rscale>
<asrwt>0</asrwt>
<pdfrwt beam="1">  1       21 0.20889477E+00 0.10189842E+04</pdfrwt>
<pdfrwt beam="2">  1       21 0.13002546E+00 0.10189842E+04</pdfrwt>
<totfact> 0.23742874E+01</totfact>
</mgrwt>
</event>
<event>
 8    1  0.7418332E-006  0.1066126E+04  0.7818608E-02  0.8725669E-01
         21   -1    0    0  503  502  0.00000000000E+00  0.00000000000E+00  0.29327561335E+04  0.29327561335E+04  0.00000000000E+00 0. -1.
         21   -1    0    0  501  503 -0.00000000000E+00 -0.00000000000E+00 -0.38733879087E+03  0.38733879087E+03  0.00000000000E+00 0. -1.
    9000010    2    1    2  501    0 -0.66099038579E+02  0.16823585026E+03  0.89390370129E+03  0.13543577327E+04  0.10012735175E+04 0.  0.
   -9000010    2    1    2    0  502  0.66099038579E+02 -0.16823585026E+03  0.16515136414E+04  0.19657371917E+04  0.10506916840E+04 0.  0.
        -13    1    3    3    0    0  0.41564754367E+03 -0.12668257220E+03  0.26466326796E+03  0.50878090690E+03  0.10566000000E+00 0.  1.
          4    1    3    3  501    0 -0.48174658225E+03  0.29491842246E+03  0.62924043332E+03  0.84557682581E+03  0.00000000000E+00 0.  1.
         13    1    4    4    0    0 -0.18645760049E+03  0.40139122718E+03  0.71370946009E+03  0.83979911802E+03  0.10566000000E+00 0. -1.
         -4    1    4    4    0  502  0.25255663907E+03 -0.56962707745E+03  0.93780418127E+03  0.11259380737E+04  0.00000000000E+00 0. -1.
<mgrwt>
<rscale>  2 0.10537453E+04</rscale>
<asrwt>0</asrwt>
<pdfrwt beam="1">  1       21 0.45119324E+00 0.10661264E+04</pdfrwt>
<pdfrwt beam="2">  1       21 0.59590585E-01 0.10661264E+04</pdfrwt>
<totfact> 0.32604598E+00</totfact>
</mgrwt>
</event>
<event>
 8    1  0.7418332E-006  0.1023563E+04  0.7818608E-02  0.8756575E-01
         21   -1    0    0  503  502  0.00000000000E+00  0.00000000000E+00  0.20311229340E+04  0.20311229340E+04  0.00000000000E+00 0. -1.
         21   -1    0    0  501  503 -0.00000000000E+00 -0.00000000000E+00 -0.56757028377E+03  0.56757028377E+03  0.00000000000E+00 0. -1.
    9000010    2    1    2  501    0 -0.17720966501E+03  0.63142642375E+01  0.11491219127E+04  0.15279231679E+04  0.99127438251E+03 0.  0.
   -9000010    2    1    2    0  502  0.17720966501E+03 -0.63142642375E+01  0.31443073752E+03  0.10707700499E+04  0.10080866410E+04 0.  0.
        -13    1    3    3    0    0 -0.33031402836E+03  0.39107584253E+03  0.92464533784E+03  0.10568901002E+04  0.10566000000E+00 0.  1.
          4    1    3    3  501    0  0.15310436335E+03 -0.38476157829E+03  0.22447657488E+03  0.47103306771E+03  0.00000000000E+00 0.  1.
         13    1    4    4    0    0  0.76703970410E+00  0.47643048424E+03  0.28670157355E+03  0.55604352177E+03  0.10566000000E+00 0. -1.
         -4    1    4    4    0  502  0.17644262530E+03 -0.48274474847E+03  0.27729163968E+02  0.51472652811E+03  0.00000000000E+00 0. -1.
<mgrwt>
<rscale>  2 0.10193995E+04</rscale>
<asrwt>0</asrwt>
<pdfrwt beam="1">  1       21 0.31248045E+00 0.10235633E+04</pdfrwt>
<pdfrwt beam="2">  1       21 0.87318506E-01 0.10235633E+04</pdfrwt>
<totfact> 0.12242031E+01</totfact>
</mgrwt>
</event>
<event>
 8    1  0.7418332E-006  0.1262689E+04  0.7818608E-02  0.8562281E-01
         21   -1    0    0  503  502  0.00000000000E+00  0.00000000000E+00  0.14556386837E+04  0.14556386837E+04  0.00000000000E+00 0.  1.
         21   -1    0    0  501  503 -0.00000000000E+00 -0.00000000000E+00 -0.11521950912E+04  0.11521950912E+04  0.00000000000E+00 0.  1.
    9000010    2    1    2  501    0 -0.19998154764E+03 -0.74347108976E+03 -0.15541828121E+03  0.12722177902E+04  0.10008203550E+04 0.  0.
   -9000010    2    1    2    0  502  0.19998154764E+03  0.74347108976E+03  0.45886187376E+03  0.13356159847E+04  0.99023934412E+03 0.  0.
        -13    1    3    3    0    0 -0.24396245716E+03 -0.54893937736E+03  0.37321940109E+03  0.70720920034E+03  0.10566000000E+00 0.  1.
          4    1    3    3  501    0  0.43980909515E+02 -0.19453171239E+03 -0.52863768230E+03  0.56500858991E+03  0.00000000000E+00 0.  1.
         13    1    4    4    0    0  0.12979589195E+03  0.80279403854E+03 -0.53596071595E+02  0.81498330776E+03  0.10566000000E+00 0. -1.
         -4    1    4    4    0  502  0.70185655692E+02 -0.59322948780E+02  0.51245794536E+03  0.52063267692E+03  0.00000000000E+00 0. -1.
<mgrwt>
<rscale>  2 0.12605912E+04</rscale>
<asrwt>0</asrwt>
<pdfrwt beam="1">  1       21 0.22394442E+00 0.12626889E+04</pdfrwt>
<pdfrwt beam="2">  1       21 0.17726078E+00 0.12626889E+04</pdfrwt>
<totfact> 0.66060789E+00</totfact>
</mgrwt>
</event>
<event>
 8    1  0.7418332E-006  0.1127265E+04  0.7818608E-02  0.8679433E-01
         21   -1    0    0  503  502  0.00000000000E+00  0.00000000000E+00  0.19040511962E+04  0.19040511962E+04  0.00000000000E+00 0. -1.
         21   -1    0    0  501  503 -0.00000000000E+00 -0.00000000000E+00 -0.66860088818E+03  0.66860088818E+03  0.00000000000E+00 0. -1.
    9000010    2    1    2  501    0  0.13219324548E+03 -0.30025651867E+03  0.26266113962E+03  0.10836771958E+04  0.99886753846E+03 0.  0.
   -9000010    2    1    2    0  502 -0.13219324548E+03  0.30025651867E+03  0.97278916840E+03  0.14889748885E+04  0.10784704082E+04 0.  0.
        -13    1    3    3    0    0  0.26954628804E+03 -0.59695645371E+03  0.35356373313E+03  0.74432488443E+03  0.10566000000E+00 0.  1.
          4    1    3    3  501    0 -0.13735304256E+03  0.29669993505E+03 -0.90902593517E+02  0.33935231142E+03  0.00000000000E+00 0.  1.
         13    1    4    4    0    0 -0.33541107079E+03 -0.27433991570E+03  0.13678701723E+03  0.45439374446E+03  0.10566000000E+00 0. -1.
         -4    1    4    4    0  502  0.20321782531E+03  0.57459643437E+03  0.83600215117E+03  0.10345811441E+04  0.00000000000E+00 0. -1.
<mgrwt>
<rscale>  2 0.11077911E+04</rscale>
<asrwt>0</asrwt>
<pdfrwt beam="1">  1       21 0.29293095E+00 0.11272655E+04</pdfrwt>
<pdfrwt beam="2">  1       21 0.10286168E+00 0.11272655E+04</pdfrwt>
<totfact> 0.10773030E+01</totfact>
</mgrwt>
</event>
<event>
 8    1  0.7418332E-006  0.1051416E+04  0.7818608E-02  0.8729780E-01
         21   -1    0    0  503  502  0.00000000000E+00  0.00000000000E+00  0.10136742775E+04  0.10136742775E+04  0.00000000000E+00 0.  1.
         21   -1    0    0  501  503 -0.00000000000E+00 -0.00000000000E+00 -0.11025562797E+04  0.11025562797E+04  0.00000000000E+00 0.  1.
    9000010    2    1    2  501    0 -0.24942690367E+03 -0.75133423158E+02 -0.19221710722E+03  0.10597492321E+04  0.10090897914E+04 0.  0.
   -9000010    2    1    2    0  502  0.24942690367E+03  0.75133423158E+02  0.10333510501E+03  0.10564813251E+04  0.10186342988E+04 0.  0.
        -13    1    3    3    0    0 -0.36095009679E+03  0.21859207137E+03 -0.47618336912E+03  0.63625315577E+03  0.10566000000E+00 0.  1.
          4    1    3    3  501    0  0.11152319312E+03 -0.29372549453E+03  0.28396626190E+03  0.42349607630E+03  0.00000000000E+00 0.  1.
         13    1    4    4    0    0  0.86773622543E+02 -0.22251778330E+03  0.48819123784E+03  0.54348369003E+03  0.10566000000E+00 0. -1.
         -4    1    4    4    0  502  0.16265328113E+03  0.29765120646E+03 -0.38485613284E+03  0.51299763503E+03  0.00000000000E+00 0. -1.
<mgrwt>
<rscale>  2 0.10490968E+04</rscale>
<asrwt>0</asrwt>
<pdfrwt beam="1">  1       21 0.15594989E+00 0.10514155E+04</pdfrwt>
<pdfrwt beam="2">  1       21 0.16962404E+00 0.10514155E+04</pdfrwt>
<totfact> 0.28120329E+01</totfact>
</mgrwt>
</event>
<event>
 8    1  0.7418332E-006  0.1045776E+04  0.7818608E-02  0.8737097E-01
         21   -1    0    0  501  502  0.00000000000E+00  0.00000000000E+00  0.51365114001E+03  0.51365114001E+03  0.00000000000E+00 0. -1.
         21   -1    0    0  502  503 -0.00000000000E+00 -0.00000000000E+00 -0.21864079946E+04  0.21864079946E+04  0.00000000000E+00 0. -1.
    9000010    2    1    2  501    0 -0.27848900527E+03 -0.29617153961E+02 -0.54510773696E+03  0.11621251884E+04  0.98740022622E+03 0.  0.
   -9000010    2    1    2    0  503  0.27848900527E+03  0.29617153961E+02 -0.11276491177E+04  0.15379339463E+04  0.10075787754E+04 0.  0.
        -13    1    3    3    0    0  0.17968995242E+03 -0.11830871419E+03 -0.64924586848E+03  0.68396318597E+03  0.10566000000E+00 0.  1.
          4    1    3    3  501    0 -0.45817895769E+03  0.88691560232E+02  0.10413813152E+03  0.47816200242E+03  0.00000000000E+00 0.  1.
         13    1    4    4    0    0 -0.50552873114E+01 -0.38480303484E+03 -0.91498275842E+03  0.99261895555E+03  0.10566000000E+00 0. -1.
         -4    1    4    4    0  503  0.28354429258E+03  0.41442018880E+03 -0.21266635924E+03  0.54531499071E+03  0.00000000000E+00 0. -1.
<mgrwt>
<rscale>  2 0.10408854E+04</rscale>
<asrwt>0</asrwt>
<pdfrwt beam="1">  1       21 0.79023252E-01 0.10457764E+04</pdfrwt>
<pdfrwt beam="2">  1       21 0.33637046E+00 0.10457764E+04</pdfrwt>
<totfact> 0.10608209E+01</totfact>
</mgrwt>
</event>
<event>
 8    1  0.7418332E-006  0.1125573E+04  0.7818608E-02  0.8668034E-01
         21   -1    0    0  503  502  0.00000000000E+00  0.00000000000E+00  0.67118435136E+03  0.67118435136E+03  0.00000000000E+00 0.  1.
         21   -1    0    0  501  503 -0.00000000000E+00 -0.00000000000E+00 -0.24244195206E+04  0.24244195206E+04  0.00000000000E+00 0.  1.
    9000010    2    1    2  501    0  0.11722334792E+03  0.48136154224E+03 -0.16177869110E+04  0.19619105706E+04  0.99318092517E+03 0.  0.
   -9000010    2    1    2    0  502 -0.11722334792E+03 -0.48136154224E+03 -0.13544825826E+03  0.11336933014E+04  0.10106750335E+04 0.  0.
        -13    1    3    3    0    0 -0.66783121548E+02  0.48545056673E+03 -0.19520602279E+03  0.52747288135E+03  0.10566000000E+00 0.  1.
          4    1    3    3  501    0  0.18400646947E+03 -0.40890244920E+01 -0.14225808882E+04  0.14344376893E+04  0.00000000000E+00 0.  1.
         13    1    4    4    0    0  0.10130739572E+03  0.28368151719E+03 -0.15300088326E+03  0.33785747449E+03  0.10566000000E+00 0. -1.
         -4    1    4    4    0  502 -0.21853074363E+03 -0.76504305943E+03  0.17552624996E+02  0.79583582688E+03  0.00000000000E+00 0. -1.
<mgrwt>
<rscale>  2 0.11216318E+04</rscale>
<asrwt>0</asrwt>
<pdfrwt beam="1">  1       21 0.10325913E+00 0.11255729E+04</pdfrwt>
<pdfrwt beam="2">  1       21 0.37298762E+00 0.11255729E+04</pdfrwt>
<totfact> 0.29175271E+00</totfact>
</mgrwt>
</event>
<event>
 8    1  0.7418332E-006  0.1003699E+04  0.7818608E-02  0.8777648E-01
         21   -1    0    0  501  502  0.00000000000E+00  0.00000000000E+00  0.17361910316E+04  0.17361910316E+04  0.00000000000E+00 0. -1.
         21   -1    0    0  502  503 -0.00000000000E+00 -0.00000000000E+00 -0.63086780724E+03  0.63086780724E+03  0.00000000000E+00 0. -1.
    9000010    2    1    2  501    0  0.30228998903E+02  0.19714012802E+02  0.94349934522E+03  0.13775349877E+04  0.10030499455E+04 0.  0.
   -9000010    2    1    2    0  503 -0.30228998903E+02 -0.19714012802E+02  0.16182387912E+03  0.98952385115E+03  0.97553475051E+03 0.  0.
        -13    1    3    3    0    0  0.17531302747E+03 -0.11661019317E+03 -0.15480248162E+03  0.26133582654E+03  0.10566000000E+00 0.  1.
          4    1    3    3  501    0 -0.14508402857E+03  0.13632420598E+03  0.10983018268E+04  0.11161991611E+04  0.00000000000E+00 0.  1.
         13    1    4    4    0    0 -0.14990732888E+02  0.34139796491E+03 -0.26339149507E+03  0.43145380210E+03  0.10566000000E+00 0. -1.
         -4    1    4    4    0  503 -0.15238266015E+02 -0.36111197771E+03  0.42521537419E+03  0.55807004904E+03  0.00000000000E+00 0. -1.
<mgrwt>
<rscale>  2 0.99675298E+03</rscale>
<asrwt>0</asrwt>
<pdfrwt beam="1">  1       21 0.26710631E+00 0.10036990E+04</pdfrwt>
<pdfrwt beam="2">  1       21 0.97056587E-01 0.10036990E+04</pdfrwt>
<totfact> 0.19693812E+01</totfact>
</mgrwt>
</event>
<event>
 8    1  0.7418332E-006  0.1192938E+04  0.7818608E-02  0.8612786E-01
         21   -1    0    0  501  502  0.00000000000E+00  0.00000000000E+00  0.18382604291E+04  0.18382604291E+04  0.00000000000E+00 0.  1.
         21   -1    0    0  502  503 -0.00000000000E+00 -0.00000000000E+00 -0.12452404731E+04  0.12452404731E+04  0.00000000000E+00 0.  1.
    9000010    2    1    2  501    0 -0.53739153803E+02  0.64115384870E+03  0.12474693531E+04  0.17228371149E+04  0.99901040199E+03 0.  0.
   -9000010    2    1    2    0  503  0.53739153803E+02 -0.64115384870E+03 -0.65444939704E+03  0.13606637873E+04  0.10045575018E+04 0.  0.
        -13    1    3    3    0    0  0.11499496660E+03  0.84988126359E+03  0.67788766281E+03  0.10931851166E+04  0.10566000000E+00 0.  1.
          4    1    3    3  501    0 -0.16873412041E+03 -0.20872741489E+03  0.56958169028E+03  0.62965199834E+03  0.00000000000E+00 0.  1.
         13    1    4    4    0    0  0.84645312950E+02 -0.84231860714E+03 -0.75439624757E+03  0.11339220319E+04  0.10566000000E+00 0. -1.
         -4    1    4    4    0  503 -0.30906159147E+02  0.20116475844E+03  0.99946850526E+02  0.22674175540E+03  0.00000000000E+00 0. -1.
<mgrwt>
<rscale>  2 0.11917698E+04</rscale>
<asrwt>0</asrwt>
<pdfrwt beam="1">  1       21 0.28280930E+00 0.11929384E+04</pdfrwt>
<pdfrwt beam="2">  1       21 0.19157546E+00 0.11929384E+04</pdfrwt>
<totfact> 0.19125604E+00</totfact>
</mgrwt>
</event>
<event>
 8    1  0.7418332E-006  0.1095826E+04  0.7818608E-02  0.8704930E-01
         21   -1    0    0  501  502  0.00000000000E+00  0.00000000000E+00  0.11771074047E+04  0.11771074047E+04  0.00000000000E+00 0.  1.
         21   -1    0    0  502  503 -0.00000000000E+00 -0.00000000000E+00 -0.97224675471E+03  0.97224675471E+03  0.00000000000E+00 0.  1.
    9000010    2    1    2  501    0  0.12434457809E+03  0.19141512423E+03  0.24899541335E+03  0.11237585975E+04  0.10717897861E+04 0.  0.
   -9000010    2    1    2    0  503 -0.12434457809E+03 -0.19141512423E+03 -0.44134763329E+02  0.10255955620E+04  0.99889792050E+03 0.  0.
        -13    1    3    3    0    0  0.57843752656E+03  0.23990092649E+03  0.58478128012E+02  0.62893730155E+03  0.10566000000E+00 0.  1.
          4    1    3    3  501    0 -0.45409294847E+03 -0.48485802257E+02  0.19051728534E+03  0.49482129590E+03  0.00000000000E+00 0.  1.
         13    1    4    4    0    0 -0.16216522317E+03 -0.52824082037E+03 -0.27328701735E+03  0.61645902453E+03  0.10566000000E+00 0. -1.
         -4    1    4    4    0  503  0.37820645079E+02  0.33682569614E+03  0.22915225402E+03  0.40913653747E+03  0.00000000000E+00 0. -1.
<mgrwt>
<rscale>  2 0.10775802E+04</rscale>
<asrwt>0</asrwt>
<pdfrwt beam="1">  1       21 0.18109345E+00 0.10958260E+04</pdfrwt>
<pdfrwt beam="2">  1       21 0.14957642E+00 0.10958260E+04</pdfrwt>
<totfact> 0.25488351E+01</totfact>
</mgrwt>
</event>
<event>
 8    1  0.7418332E-006  0.1137741E+04  0.7818608E-02  0.8680769E-01
         21   -1    0    0  501  502  0.00000000000E+00  0.00000000000E+00  0.11992247972E+04  0.11992247972E+04  0.00000000000E+00 0. -1.
         21   -1    0    0  502  503 -0.00000000000E+00 -0.00000000000E+00 -0.11978243513E+04  0.11978243513E+04  0.00000000000E+00 0. -1.
    9000010    2    1    2  501    0  0.14564283520E+03 -0.81255427649E+02  0.52550959286E+03  0.12532420006E+04  0.11254514205E+04 0.  0.
   -9000010    2    1    2    0  503 -0.14564283520E+03  0.81255427649E+02 -0.52410914697E+03  0.11438071479E+04  0.10028908783E+04 0.  0.
        -13    1    3    3    0    0 -0.12004179913E+03 -0.24339755868E+03 -0.27984844815E+03  0.38983018124E+03  0.10566000000E+00 0.  1.
          4    1    3    3  501    0  0.26568463434E+03  0.16214213103E+03  0.80535804101E+03  0.86341181935E+03  0.00000000000E+00 0.  1.
         13    1    4    4    0    0  0.33529215992E+03  0.16827550464E+03 -0.53679985605E+03  0.65489814062E+03  0.10566000000E+00 0. -1.
         -4    1    4    4    0  503 -0.48093499512E+03 -0.87020076992E+02  0.12690709079E+02  0.48890900731E+03  0.00000000000E+00 0. -1.
<mgrwt>
<rscale>  2 0.11061829E+04</rscale>
<asrwt>0</asrwt>
<pdfrwt beam="1">  1       21 0.18449612E+00 0.11377413E+04</pdfrwt>
<pdfrwt beam="2">  1       21 0.18428067E+00 0.11377413E+04</pdfrwt>
<totfact> 0.12036476E+01</totfact>
</mgrwt>
</event>
<event>
 8    1  0.7418332E-006  0.1000912E+04  0.7818608E-02  0.8778936E-01
         21   -1    0    0  501  502  0.00000000000E+00  0.00000000000E+00  0.12786925042E+04  0.12786925042E+04  0.00000000000E+00 0. -1.
         21   -1    0    0  502  503 -0.00000000000E+00 -0.00000000000E+00 -0.92006028779E+03  0.92006028779E+03  0.00000000000E+00 0. -1.
    9000010    2    1    2  501    0 -0.42325697236E+02  0.21969184639E+02  0.62689491737E+03  0.11625143344E+04  0.97783855040E+03 0.  0.
   -9000010    2    1    2    0  503  0.42325697236E+02 -0.21969184639E+02 -0.26826270096E+03  0.10362384575E+04  0.99977555203E+03 0.  0.
        -13    1    3    3    0    0  0.26888972653E+02 -0.42335133806E+03  0.45109195850E+02  0.42659608883E+03  0.10566000000E+00 0.  1.
          4    1    3    3  501    0 -0.69214669889E+02  0.44532052270E+03  0.58178572153E+03  0.73591824562E+03  0.00000000000E+00 0.  1.
         13    1    4    4    0    0  0.34031969938E+03  0.26050891112E+03  0.14619123822E+03  0.45282919501E+03  0.10566000000E+00 0. -1.
         -4    1    4    4    0  503 -0.29799400214E+03 -0.28247809576E+03 -0.41445393918E+03  0.58340926253E+03  0.00000000000E+00 0. -1.
<mgrwt>
<rscale>  2 0.99538878E+03</rscale>
<asrwt>0</asrwt>
<pdfrwt beam="1">  1       21 0.19672192E+00 0.10009122E+04</pdfrwt>
<pdfrwt beam="2">  1       21 0.14154774E+00 0.10009122E+04</pdfrwt>
<totfact> 0.23087203E+01</totfact>
</mgrwt>
</event>
<event>
 8    1  0.7418332E-006  0.1091618E+04  0.7818608E-02  0.8695388E-01
         21   -1    0    0  501  502  0.00000000000E+00  0.00000000000E+00  0.88292767579E+03  0.88292767579E+03  0.00000000000E+00 0. -1.
         21   -1    0    0  502  503 -0.00000000000E+00 -0.00000000000E+00 -0.16520315433E+04  0.16520315433E+04  0.00000000000E+00 0. -1.
    9000010    2    1    2  501    0 -0.38553329106E+03  0.20330159537E+03  0.16850833671E+03  0.11045472439E+04  0.10008307036E+04 0.  0.
   -9000010    2    1    2    0  503  0.38553329106E+03 -0.20330159537E+03 -0.93761220425E+03  0.14304119753E+04  0.98843022829E+03 0.  0.
        -13    1    3    3    0    0  0.79954525506E+02  0.23911998602E+03  0.48077552585E+03  0.54287771301E+03  0.10566000000E+00 0.  1.
          4    1    3    3  501    0 -0.46548781657E+03 -0.35818390655E+02 -0.31226718914E+03  0.56166953086E+03  0.00000000000E+00 0.  1.
         13    1    4    4    0    0  0.60436725774E+02 -0.36590392941E+03  0.53541945292E+02  0.37470659782E+03  0.10566000000E+00 0. -1.
         -4    1    4    4    0  503  0.32509656529E+03  0.16260233404E+03 -0.99115414954E+03  0.10557053774E+04  0.00000000000E+00 0. -1.
<mgrwt>
<rscale>  2 0.10887673E+04</rscale>
<asrwt>0</asrwt>
<pdfrwt beam="1">  1       21 0.13583503E+00 0.10916179E+04</pdfrwt>
<pdfrwt beam="2">  1       21 0.25415870E+00 0.10916179E+04</pdfrwt>
<totfact> 0.94731889E+00</totfact>
</mgrwt>
</event>
<event>
 8    1  0.7418332E-006  0.1032960E+04  0.7818608E-02  0.8746285E-01
         21   -1    0    0  503  502  0.00000000000E+00  0.00000000000E+00  0.31303206062E+04  0.31303206062E+04  0.00000000000E+00 0. -1.
         21   -1    0    0  501  503 -0.00000000000E+00 -0.00000000000E+00 -0.36485495565E+03  0.36485495565E+03  0.00000000000E+00 0. -1.
    9000010    2    1    2  501    0 -0.19192467354E+03  0.14036897550E+03  0.91313901506E+03  0.13787058561E+04  0.10052205962E+04 0.  0.
   -9000010    2    1    2    0  502  0.19192467354E+03 -0.14036897550E+03  0.18523266355E+04  0.21164697058E+04  0.99588730359E+03 0.  0.
        -13    1    3    3    0    0 -0.27601356291E+03 -0.33142899708E+03  0.76306269672E+03  0.87652344938E+03  0.10566000000E+00 0.  1.
          4    1    3    3  501    0  0.84088889374E+02  0.47179797258E+03  0.15007631834E+03  0.50218240668E+03  0.00000000000E+00 0.  1.
         13    1    4    4    0    0  0.11092454718E+03  0.10520562864E+03  0.18515795509E+04  0.18578803309E+04  0.10566000000E+00 0. -1.
         -4    1    4    4    0  502  0.81000126363E+02 -0.24557460414E+03  0.74708457402E+00  0.25858937489E+03  0.00000000000E+00 0. -1.
<mgrwt>
<rscale>  2 0.10306827E+04</rscale>
<asrwt>0</asrwt>
<pdfrwt beam="1">  1       21 0.48158777E+00 0.10329603E+04</pdfrwt>
<pdfrwt beam="2">  1       21 0.56131534E-01 0.10329603E+04</pdfrwt>
<totfact> 0.23110464E+00</totfact>
</mgrwt>
</event>
<event>
 8    1  0.7418332E-006  0.9996807E+03  0.7818608E-02  0.8797735E-01
         21   -1    0    0  501  502  0.00000000000E+00  0.00000000000E+00  0.33175039836E+03  0.33175039836E+03  0.00000000000E+00 0. -1.
         21   -1    0    0  502  503 -0.00000000000E+00 -0.00000000000E+00 -0.27980518393E+04  0.27980518393E+04  0.00000000000E+00 0. -1.
    9000010    2    1    2  501    0 -0.45059899897E+02 -0.34963673542E+02 -0.95014097256E+03  0.13137339133E+04  0.90547008459E+03 0.  0.
   -9000010    2    1    2    0  503  0.45059899897E+02  0.34963673542E+02 -0.15161604684E+04  0.18160683244E+04  0.99805247356E+03 0.  0.
        -13    1    3    3    0    0 -0.71087797032E+02  0.23685075343E+03  0.70544989884E+02  0.25715435258E+03  0.10566000000E+00 0.  1.
          4    1    3    3  501    0  0.26027897134E+02 -0.27181442697E+03 -0.10206859624E+04  0.10565795607E+04  0.00000000000E+00 0.  1.
         13    1    4    4    0    0  0.48744678743E+03 -0.57579417667E+02 -0.10875833507E+04  0.11932130219E+04  0.10566000000E+00 0. -1.
         -4    1    4    4    0  503 -0.44238688753E+03  0.92543091209E+02 -0.42857711776E+03  0.62285530250E+03  0.00000000000E+00 0. -1.
<mgrwt>
<rscale>  2 0.97572960E+03</rscale>
<asrwt>0</asrwt>
<pdfrwt beam="1">  1       21 0.51038525E-01 0.99968075E+03</pdfrwt>
<pdfrwt beam="2">  1       21 0.43046949E+00 0.99968075E+03</pdfrwt>
<totfact> 0.65315777E+00</totfact>
</mgrwt>
</event>
<event>
 8    1  0.7418332E-006  0.1062116E+04  0.7818608E-02  0.8719507E-01
         21   -1    0    0  501  502  0.00000000000E+00  0.00000000000E+00  0.14372072242E+04  0.14372072242E+04  0.00000000000E+00 0.  1.
         21   -1    0    0  502  503 -0.00000000000E+00 -0.00000000000E+00 -0.14616763124E+04  0.14616763124E+04  0.00000000000E+00 0.  1.
    9000010    2    1    2  501    0 -0.25094693318E+03 -0.23750978636E+03  0.97691662384E+03  0.14430718915E+04  0.10043431346E+04 0.  0.
   -9000010    2    1    2    0  503  0.25094693318E+03  0.23750978636E+03 -0.10013857120E+04  0.14558116452E+04  0.99861350890E+03 0.  0.
        -13    1    3    3    0    0  0.37762206122E+03 -0.78981798935E+02  0.21126785617E+03  0.43985300260E+03  0.10566000000E+00 0.  1.
          4    1    3    3  501    0 -0.62856899440E+03 -0.15852798743E+03  0.76564876767E+03  0.10032188889E+04  0.00000000000E+00 0.  1.
         13    1    4    4    0    0 -0.28947803949E+03 -0.12588961052E+02 -0.75981513346E+03  0.81318821037E+03  0.10566000000E+00 0. -1.
         -4    1    4    4    0  503  0.54042497267E+03  0.25009874741E+03 -0.24157057853E+03  0.64262343480E+03  0.00000000000E+00 0. -1.
<mgrwt>
<rscale>  2 0.10607593E+04</rscale>
<asrwt>0</asrwt>
<pdfrwt beam="1">  1       21 0.22110880E+00 0.10621160E+04</pdfrwt>
<pdfrwt beam="2">  1       21 0.22487328E+00 0.10621160E+04</pdfrwt>
<totfact> 0.30789180E+00</totfact>
</mgrwt>
</event>
<event>
 8    1  0.7418332E-006  0.1038002E+04  0.7818608E-02  0.8745762E-01
         21   -1    0    0  503  502  0.00000000000E+00  0.00000000000E+00  0.96647231075E+03  0.96647231075E+03  0.00000000000E+00 0. -1.
         21   -1    0    0  501  503 -0.00000000000E+00 -0.00000000000E+00 -0.11300594485E+04  0.11300594485E+04  0.00000000000E+00 0. -1.
    9000010    2    1    2  501    0  0.76802695779E+02 -0.17130267920E+03 -0.28696719753E+03  0.10512231090E+04  0.99371856704E+03 0.  0.
   -9000010    2    1    2    0  502 -0.76802695779E+02  0.17130267920E+03  0.12338005982E+03  0.10453086502E+04  0.10208840644E+04 0.  0.
        -13    1    3    3    0    0  0.10727046102E+03 -0.26645230528E+03  0.32351100598E+03  0.43262358345E+03  0.10566000000E+00 0.  1.
          4    1    3    3  501    0 -0.30467765242E+02  0.95149626080E+02 -0.61047820351E+03  0.61859952556E+03  0.00000000000E+00 0.  1.
         13    1    4    4    0    0 -0.47272124998E+03  0.36277506432E+03  0.10558907894E+03  0.60516129439E+03  0.10566000000E+00 0. -1.
         -4    1    4    4    0  502  0.39591855420E+03 -0.19147238512E+03  0.17790980882E+02  0.44014735581E+03  0.00000000000E+00 0. -1.
<mgrwt>
<rscale>  2 0.10312599E+04</rscale>
<asrwt>0</asrwt>
<pdfrwt beam="1">  1       21 0.14868805E+00 0.10380017E+04</pdfrwt>
<pdfrwt beam="2">  1       21 0.17385530E+00 0.10380017E+04</pdfrwt>
<totfact> 0.30146601E+01</totfact>
</mgrwt>
</event>
<event>
 8    1  0.7418332E-006  0.1138104E+04  0.7818608E-02  0.8655911E-01
         21   -1    0    0  503  502  0.00000000000E+00  0.00000000000E+00  0.13142269702E+04  0.13142269702E+04  0.00000000000E+00 0.  1.
         21   -1    0    0  501  503 -0.00000000000E+00 -0.00000000000E+00 -0.12395147656E+04  0.12395147656E+04  0.00000000000E+00 0.  1.
    9000010    2    1    2  501    0 -0.25102364799E+03 -0.45434507777E+03  0.62115687746E+03  0.12912511319E+04  0.10060076032E+04 0.  0.
   -9000010    2    1    2    0  502  0.25102364799E+03  0.45434507777E+03 -0.54644467283E+03  0.12624906039E+04  0.10128368195E+04 0.  0.
        -13    1    3    3    0    0 -0.48395828353E+03  0.89552709514E+02  0.98815424174E+02  0.50199582389E+03  0.10566000000E+00 0.  1.
          4    1    3    3  501    0  0.23293463554E+03 -0.54389778729E+03  0.52234145329E+03  0.78925530804E+03  0.00000000000E+00 0.  1.
         13    1    4    4    0    0  0.38565644103E+03  0.72021146777E+03 -0.50795158340E+03  0.96200325937E+03  0.10566000000E+00 0. -1.
         -4    1    4    4    0  502 -0.13463279303E+03 -0.26586638999E+03 -0.38493089437E+02  0.30048734453E+03  0.00000000000E+00 0. -1.
<mgrwt>
<rscale>  2 0.11365826E+04</rscale>
<asrwt>0</asrwt>
<pdfrwt beam="1">  1       21 0.20218876E+00 0.11381040E+04</pdfrwt>
<pdfrwt beam="2">  1       21 0.19069458E+00 0.11381040E+04</pdfrwt>
<totfact> 0.77382685E+00</totfact>
</mgrwt>
</event>
<event>
 8    1  0.7418332E-006  0.1147465E+04  0.7818608E-02  0.8649037E-01
         21   -1    0    0  503  502  0.00000000000E+00  0.00000000000E+00  0.20743918702E+04  0.20743918702E+04  0.00000000000E+00 0.  1.
         21   -1    0    0  501  503 -0.00000000000E+00 -0.00000000000E+00 -0.99077136367E+03  0.99077136367E+03  0.00000000000E+00 0.  1.
    9000010    2    1    2  501    0  0.25234123266E+03  0.50603348781E+03 -0.38479582053E+03  0.12015856024E+04  0.98792416105E+03 0.  0.
   -9000010    2    1    2    0  502 -0.25234123266E+03 -0.50603348781E+03  0.14684163271E+04  0.18635776315E+04  0.99846336454E+03 0.  0.
        -13    1    3    3    0    0  0.78960739050E+02 -0.16207684044E+03 -0.47256420024E+03  0.50578714400E+03  0.10566000000E+00 0.  1.
          4    1    3    3  501    0  0.17338049361E+03  0.66811032825E+03  0.87768379717E+02  0.69579845843E+03  0.00000000000E+00 0.  1.
         13    1    4    4    0    0  0.35432936012E+03 -0.30399082851E+03  0.87230421463E+03  0.98938080297E+03  0.10566000000E+00 0. -1.
         -4    1    4    4    0  502 -0.60667059278E+03 -0.20204265930E+03  0.59611211245E+03  0.87419682848E+03  0.00000000000E+00 0. -1.
<mgrwt>
<rscale>  2 0.11451680E+04</rscale>
<asrwt>0</asrwt>
<pdfrwt beam="1">  1       21 0.31913721E+00 0.11474646E+04</pdfrwt>
<pdfrwt beam="2">  1       21 0.15242636E+00 0.11474646E+04</pdfrwt>
<totfact> 0.22747466E+00</totfact>
</mgrwt>
</event>
<event>
 8    1  0.7418332E-006  0.1054961E+04  0.7818608E-02  0.8744441E-01
         21   -1    0    0  501  502  0.00000000000E+00  0.00000000000E+00  0.10811405259E+04  0.10811405259E+04  0.00000000000E+00 0. -1.
         21   -1    0    0  502  503 -0.00000000000E+00 -0.00000000000E+00 -0.11662861103E+04  0.11662861103E+04  0.00000000000E+00 0. -1.
    9000010    2    1    2  501    0 -0.12723067479E+03  0.30670148093E+03  0.44281658386E+03  0.11441286055E+04  0.10013442445E+04 0.  0.
   -9000010    2    1    2    0  503  0.12723067479E+03 -0.30670148093E+03 -0.52796216826E+03  0.11032980307E+04  0.91009288011E+03 0.  0.
        -13    1    3    3    0    0 -0.13925109514E+03  0.66939420989E+03  0.35661967258E+03  0.77114011552E+03  0.10566000000E+00 0.  1.
          4    1    3    3  501    0  0.12020420347E+02 -0.36269272896E+03  0.86196911279E+02  0.37298848998E+03  0.00000000000E+00 0.  1.
         13    1    4    4    0    0  0.19864349387E+03  0.27169930027E+03 -0.32094395227E+02  0.33809733627E+03  0.10566000000E+00 0. -1.
         -4    1    4    4    0  503 -0.71412819086E+02 -0.57840078121E+03 -0.49586777303E+03  0.76520069443E+03  0.00000000000E+00 0. -1.
<mgrwt>
<rscale>  2 0.10327211E+04</rscale>
<asrwt>0</asrwt>
<pdfrwt beam="1">  1       21 0.16632931E+00 0.10549615E+04</pdfrwt>
<pdfrwt beam="2">  1       21 0.17942863E+00 0.10549615E+04</pdfrwt>
<totfact> 0.18973340E+01</totfact>
</mgrwt>
</event>
<event>
 8    1  0.7418332E-006  0.1067209E+04  0.7818608E-02  0.8718324E-01
         21   -1    0    0  503  502  0.00000000000E+00  0.00000000000E+00  0.64843539467E+03  0.64843539467E+03  0.00000000000E+00 0.  1.
         21   -1    0    0  501  503 -0.00000000000E+00 -0.00000000000E+00 -0.23206564753E+04  0.23206564753E+04  0.00000000000E+00 0.  1.
    9000010    2    1    2  501    0 -0.22881686552E+03  0.21657101160E+03 -0.15833444258E+04  0.18981880681E+04  0.99843788494E+03 0.  0.
   -9000010    2    1    2    0  502  0.22881686552E+03 -0.21657101160E+03 -0.88876654845E+02  0.10709038019E+04  0.10196449049E+04 0.  0.
        -13    1    3    3    0    0 -0.68955655040E+02  0.54412310966E+03 -0.13703479686E+04  0.14760346904E+04  0.10566000000E+00 0.  1.
          4    1    3    3  501    0 -0.15986121048E+03 -0.32755209806E+03 -0.21299645716E+03  0.42215337772E+03  0.00000000000E+00 0.  1.
         13    1    4    4    0    0 -0.38184119652E+03 -0.34589551087E+02  0.11768852631E+03  0.40106076447E+03  0.10566000000E+00 0. -1.
         -4    1    4    4    0  502  0.61065806205E+03 -0.18198146051E+03 -0.20656518116E+03  0.66984303742E+03  0.00000000000E+00 0. -1.
<mgrwt>
<rscale>  2 0.10621122E+04</rscale>
<asrwt>0</asrwt>
<pdfrwt beam="1">  1       21 0.99759290E-01 0.10672094E+04</pdfrwt>
<pdfrwt beam="2">  1       21 0.35702408E+00 0.10672094E+04</pdfrwt>
<totfact> 0.41898838E+00</totfact>
</mgrwt>
</event>
<event>
 8    1  0.7418332E-006  0.1042757E+04  0.7818608E-02  0.8744815E-01
         21   -1    0    0  503  502  0.00000000000E+00  0.00000000000E+00  0.15463088836E+04  0.15463088836E+04  0.00000000000E+00 0.  1.
         21   -1    0    0  501  503 -0.00000000000E+00 -0.00000000000E+00 -0.85992061579E+03  0.85992061579E+03  0.00000000000E+00 0.  1.
    9000010    2    1    2  501    0 -0.86052738334E+02 -0.40147465262E+02 -0.21902061696E+03  0.10252491766E+04  0.99707018346E+03 0.  0.
   -9000010    2    1    2    0  502  0.86052738334E+02  0.40147465262E+02  0.90540888480E+03  0.13809803228E+04  0.10384240514E+04 0.  0.
        -13    1    3    3    0    0 -0.17800942808E+03  0.25108137741E+03 -0.51499639989E+03  0.59995876328E+03  0.10566000000E+00 0.  1.
          4    1    3    3  501    0  0.91956689749E+02 -0.29122884267E+03  0.29597578293E+03  0.42529041333E+03  0.00000000000E+00 0.  1.
         13    1    4    4    0    0 -0.87339227347E+02  0.17732004359E+03 -0.18358696046E+03  0.26976790341E+03  0.10566000000E+00 0. -1.
         -4    1    4    4    0  502  0.17339196568E+03 -0.13717257833E+03  0.10889958453E+04  0.11112124194E+04  0.00000000000E+00 0. -1.
<mgrwt>
<rscale>  2 0.10323069E+04</rscale>
<asrwt>0</asrwt>
<pdfrwt beam="1">  1       21 0.23789367E+00 0.10427566E+04</pdfrwt>
<pdfrwt beam="2">  1       21 0.13229548E+00 0.10427566E+04</pdfrwt>
<totfact> 0.13606343E+01</totfact>
</mgrwt>
</event>
<event>
 8    1  0.7418332E-006  0.1018401E+04  0.7818608E-02  0.8757836E-01
         21   -1    0    0  503  502  0.00000000000E+00  0.00000000000E+00  0.57222660211E+03  0.57222660211E+03  0.00000000000E+00 0. -1.
         21   -1    0    0  501  503 -0.00000000000E+00 -0.00000000000E+00 -0.19261141803E+04  0.19261141803E+04  0.00000000000E+00 0. -1.
    9000010    2    1    2  501    0  0.18168957785E+03 -0.43650125500E+02 -0.36950524558E+03  0.10819545080E+04  0.99958741225E+03 0.  0.
   -9000010    2    1    2    0  502 -0.18168957785E+03  0.43650125500E+02 -0.98438233259E+03  0.14163862744E+04  0.10011119145E+04 0.  0.
        -13    1    3    3    0    0  0.42717263641E+03  0.34802314245E+03 -0.24651632976E+03  0.60362809824E+03  0.10566000000E+00 0.  1.
          4    1    3    3  501    0 -0.24548305856E+03 -0.39167326795E+03 -0.12298891581E+03  0.47832640977E+03  0.00000000000E+00 0.  1.
         13    1    4    4    0    0 -0.19157210565E+03  0.36409904306E+03 -0.10141304123E+04  0.10944078258E+04  0.10566000000E+00 0. -1.
         -4    1    4    4    0  502  0.98825277987E+01 -0.32044891756E+03  0.29748079697E+02  0.32197844861E+03  0.00000000000E+00 0. -1.
<mgrwt>
<rscale>  2 0.10180266E+04</rscale>
<asrwt>0</asrwt>
<pdfrwt beam="1">  1       21 0.88034863E-01 0.10184014E+04</pdfrwt>
<pdfrwt beam="2">  1       21 0.29632526E+00 0.10184014E+04</pdfrwt>
<totfact> 0.15608500E+01</totfact>
</mgrwt>
</event>
<event>
 8    1  0.7418332E-006  0.1026696E+04  0.7818608E-02  0.8759279E-01
         21   -1    0    0  501  502  0.00000000000E+00  0.00000000000E+00  0.68806210668E+03  0.68806210668E+03  0.00000000000E+00 0. -1.
         21   -1    0    0  502  503 -0.00000000000E+00 -0.00000000000E+00 -0.16167879376E+04  0.16167879376E+04  0.00000000000E+00 0. -1.
    9000010    2    1    2  501    0  0.25432918759E+03  0.63357408519E+02 -0.12849928371E+03  0.10347060557E+04  0.99267671417E+03 0.  0.
   -9000010    2    1    2    0  503 -0.25432918759E+03 -0.63357408519E+02 -0.80022654720E+03  0.12701439886E+04  0.95089732782E+03 0.  0.
        -13    1    3    3    0    0  0.58295673233E+03  0.12859441188E+03 -0.28895299659E+03  0.66322614540E+03  0.10566000000E+00 0.  1.
          4    1    3    3  501    0 -0.32862754474E+03 -0.65237003358E+02  0.16045371288E+03  0.37147991028E+03  0.00000000000E+00 0.  1.
         13    1    4    4    0    0 -0.52047509064E+03  0.84363969456E+02 -0.80896279732E+03  0.96562540249E+03  0.10566000000E+00 0. -1.
         -4    1    4    4    0  503  0.26614590305E+03 -0.14772137798E+03  0.87362501183E+01  0.30451858611E+03  0.00000000000E+00 0. -1.
<mgrwt>
<rscale>  2 0.10164595E+04</rscale>
<asrwt>0</asrwt>
<pdfrwt beam="1">  1       21 0.10585571E+00 0.10266959E+04</pdfrwt>
<pdfrwt beam="2">  1       21 0.24873661E+00 0.10266959E+04</pdfrwt>
<totfact> 0.21164948E+01</totfact>
</mgrwt>
</event>
<event>
 8    1  0.7418332E-006  0.1027101E+04  0.7818608E-02  0.8758691E-01
         21   -1    0    0  503  502  0.00000000000E+00  0.00000000000E+00  0.51898917931E+03  0.51898917931E+03  0.00000000000E+00 0. -1.
         21   -1    0    0  501  503 -0.00000000000E+00 -0.00000000000E+00 -0.19562965149E+04  0.19562965149E+04  0.00000000000E+00 0. -1.
    9000010    2    1    2  501    0 -0.44500796332E+02 -0.32480794168E+02 -0.73130482058E+03  0.12289410433E+04  0.98613083538E+03 0.  0.
   -9000010    2    1    2    0  502  0.44500796332E+02  0.32480794168E+02 -0.70600251502E+03  0.12463446509E+04  0.10256218186E+04 0.  0.
        -13    1    3    3    0    0  0.19241669482E+03 -0.25244170513E+03  0.10339040913E+03  0.33382718103E+03  0.10566000000E+00 0.  1.
          4    1    3    3  501    0 -0.23691749115E+03  0.21996091096E+03 -0.83469522971E+03  0.89511386229E+03  0.00000000000E+00 0.  1.
         13    1    4    4    0    0  0.36221563014E+03  0.26478918984E+03 -0.12398721656E+02  0.44885099670E+03  0.10566000000E+00 0. -1.
         -4    1    4    4    0  502 -0.31771483380E+03 -0.23230839567E+03 -0.69360379336E+03  0.79749365420E+03  0.00000000000E+00 0. -1.
<mgrwt>
<rscale>  2 0.10170973E+04</rscale>
<asrwt>0</asrwt>
<pdfrwt beam="1">  1       21 0.79844489E-01 0.10271005E+04</pdfrwt>
<pdfrwt beam="2">  1       21 0.30096870E+00 0.10271005E+04</pdfrwt>
<totfact> 0.18430770E+01</totfact>
</mgrwt>
</event>
<event>
 8    1  0.7418332E-006  0.1033296E+04  0.7818608E-02  0.8744004E-01
         21   -1    0    0  503  502  0.00000000000E+00  0.00000000000E+00  0.54615150890E+03  0.54615150890E+03  0.00000000000E+00 0. -1.
         21   -1    0    0  501  503 -0.00000000000E+00 -0.00000000000E+00 -0.19707132272E+04  0.19707132272E+04  0.00000000000E+00 0. -1.
    9000010    2    1    2  501    0 -0.23739387286E+03  0.97007071449E+02 -0.82741391055E+03  0.13237502908E+04  0.10009669476E+04 0.  0.
   -9000010    2    1    2    0  502  0.23739387286E+03 -0.97007071449E+02 -0.59714780779E+03  0.11931144454E+04  0.10005850052E+04 0.  0.
        -13    1    3    3    0    0  0.19935286252E+02  0.51615923260E+03 -0.27894033328E+03  0.58704811534E+03  0.10566000000E+00 0.  1.
          4    1    3    3  501    0 -0.25732915911E+03 -0.41915216115E+03 -0.54847357727E+03  0.73670217543E+03  0.00000000000E+00 0.  1.
         13    1    4    4    0    0  0.83627035365E+02 -0.43426092317E+03 -0.68203526194E+03  0.81286415847E+03  0.10566000000E+00 0. -1.
         -4    1    4    4    0  502  0.15376683750E+03  0.33725385173E+03  0.84887454146E+02  0.38025028690E+03  0.00000000000E+00 0. -1.
<mgrwt>
<rscale>  2 0.10332037E+04</rscale>
<asrwt>0</asrwt>
<pdfrwt beam="1">  1       21 0.84023310E-01 0.10332962E+04</pdfrwt>
<pdfrwt beam="2">  1       21 0.30318665E+00 0.10332962E+04</pdfrwt>
<totfact> 0.15652911E+01</totfact>
</mgrwt>
</event>
<event>
 8    1  0.7418332E-006  0.1044803E+04  0.7818608E-02  0.8739729E-01
         21   -1    0    0  503  502  0.00000000000E+00  0.00000000000E+00  0.98504064162E+03  0.98504064162E+03  0.00000000000E+00 0.  1.
         21   -1    0    0  501  503 -0.00000000000E+00 -0.00000000000E+00 -0.13086458304E+04  0.13086458304E+04  0.00000000000E+00 0.  1.
    9000010    2    1    2  501    0 -0.11756244232E+03 -0.17556197797E+03 -0.64333105163E+03  0.12269835550E+04  0.10232159431E+04 0.  0.
   -9000010    2    1    2    0  502  0.11756244232E+03  0.17556197797E+03  0.31972586283E+03  0.10667029171E+04  0.99548357592E+03 0.  0.
        -13    1    3    3    0    0  0.25921213593E+02 -0.45209460256E+03 -0.76788687116E+03  0.89146603807E+03  0.10566000000E+00 0.  1.
          4    1    3    3  501    0 -0.14348365592E+03  0.27653262458E+03  0.12455581954E+03  0.33551751691E+03  0.00000000000E+00 0.  1.
         13    1    4    4    0    0  0.49281565827E+03  0.73666924404E+02  0.43466248168E+03  0.66123034786E+03  0.10566000000E+00 0. -1.
         -4    1    4    4    0  502 -0.37525321594E+03  0.10189505357E+03 -0.11493661885E+03  0.40547256920E+03  0.00000000000E+00 0. -1.
<mgrwt>
<rscale>  2 0.10379501E+04</rscale>
<asrwt>0</asrwt>
<pdfrwt beam="1">  1       21 0.15154472E+00 0.10448032E+04</pdfrwt>
<pdfrwt beam="2">  1       21 0.20133013E+00 0.10448032E+04</pdfrwt>
<totfact> 0.17085622E+01</totfact>
</mgrwt>
</event>
<event>
 8    1  0.7418332E-006  0.9977682E+03  0.7818608E-02  0.8776723E-01
         21   -1    0    0  501  502  0.00000000000E+00  0.00000000000E+00  0.10968949507E+04  0.10968949507E+04  0.00000000000E+00 0.  1.
         21   -1    0    0  502  503 -0.00000000000E+00 -0.00000000000E+00 -0.91889580975E+03  0.91889580975E+03  0.00000000000E+00 0.  1.
    9000010    2    1    2  501    0 -0.30462725145E+01 -0.91807709734E+02 -0.23359006385E+02  0.99804161684E+03  0.99353082006E+03 0.  0.
   -9000010    2    1    2    0  503  0.30462725145E+01  0.91807709734E+02  0.20135814728E+03  0.10177491436E+04  0.99339331607E+03 0.  0.
        -13    1    3    3    0    0 -0.21892214976E+03  0.13265720476E+01  0.43270897867E+03  0.48493890216E+03  0.10566000000E+00 0.  1.
          4    1    3    3  501    0  0.21587587724E+03 -0.93134281782E+02 -0.45606798505E+03  0.51310271467E+03  0.00000000000E+00 0.  1.
         13    1    4    4    0    0 -0.37460097017E+03 -0.27988107731E+03  0.10301745432E+03  0.47882346575E+03  0.10566000000E+00 0. -1.
         -4    1    4    4    0  503  0.37764724269E+03  0.37168878705E+03  0.98340692964E+02  0.53892567782E+03  0.00000000000E+00 0. -1.
<mgrwt>
<rscale>  2 0.99773399E+03</rscale>
<asrwt>0</asrwt>
<pdfrwt beam="1">  1       21 0.16875307E+00 0.99776822E+03</pdfrwt>
<pdfrwt beam="2">  1       21 0.14136859E+00 0.99776822E+03</pdfrwt>
<totfact> 0.39101637E+01</totfact>
</mgrwt>
</event>
<event>
 8    1  0.7418332E-006  0.9962395E+03  0.7818608E-02  0.8778884E-01
         21   -1    0    0  503  502  0.00000000000E+00  0.00000000000E+00  0.59898549670E+03  0.59898549670E+03  0.00000000000E+00 0.  1.
         21   -1    0    0  501  503 -0.00000000000E+00 -0.00000000000E+00 -0.16651157042E+04  0.16651157042E+04  0.00000000000E+00 0.  1.
    9000010    2    1    2  501    0 -0.26779252141E+02  0.35518480404E+02 -0.43051535179E+03  0.10823654472E+04  0.99206491839E+03 0.  0.
   -9000010    2    1    2    0  502  0.26779252141E+02 -0.35518480404E+02 -0.63561485570E+03  0.11817357537E+04  0.99524592743E+03 0.  0.
        -13    1    3    3    0    0 -0.42103833983E+03 -0.11378605067E+03  0.54729488539E+02  0.43956327987E+03  0.10566000000E+00 0.  1.
          4    1    3    3  501    0  0.39425908768E+03  0.14930453107E+03 -0.48524484033E+03  0.64280216730E+03  0.00000000000E+00 0.  1.
         13    1    4    4    0    0 -0.90159423190E+01  0.33580667062E+03  0.10543578859E+03  0.35208539295E+03  0.10566000000E+00 0. -1.
         -4    1    4    4    0  502  0.35795194460E+02 -0.37132515103E+03 -0.74105064430E+03  0.82965036078E+03  0.00000000000E+00 0. -1.
<mgrwt>
<rscale>  2 0.99544409E+03</rscale>
<asrwt>0</asrwt>
<pdfrwt beam="1">  1       21 0.92151617E-01 0.99623950E+03</pdfrwt>
<pdfrwt beam="2">  1       21 0.25617164E+00 0.99623950E+03</pdfrwt>
<totfact> 0.27002091E+01</totfact>
</mgrwt>
</event>
<event>
 8    1  0.7418332E-006  0.1102522E+04  0.7818608E-02  0.8687729E-01
         21   -1    0    0  503  502  0.00000000000E+00  0.00000000000E+00  0.10658730345E+04  0.10658730345E+04  0.00000000000E+00 0. -1.
         21   -1    0    0  501  503 -0.00000000000E+00 -0.00000000000E+00 -0.12592814023E+04  0.12592814023E+04  0.00000000000E+00 0. -1.
    9000010    2    1    2  501    0  0.37747733954E+03  0.29396542598E+03 -0.48225680896E+03  0.12033816123E+04  0.99330300589E+03 0.  0.
   -9000010    2    1    2    0  502 -0.37747733954E+03 -0.29396542598E+03  0.28884844117E+03  0.11217728245E+04  0.97264383730E+03 0.  0.
        -13    1    3    3    0    0  0.47900589665E+03  0.32350073457E+03  0.12132413366E+03  0.59060894919E+03  0.10566000000E+00 0.  1.
          4    1    3    3  501    0 -0.10152855711E+03 -0.29535308598E+02 -0.60358094262E+03  0.61277266311E+03  0.00000000000E+00 0.  1.
         13    1    4    4    0    0 -0.40728458780E+03 -0.38797048019E+03  0.58384660607E+03  0.81072726582E+03  0.10566000000E+00 0. -1.
         -4    1    4    4    0  502  0.29807248259E+02  0.94005054210E+02 -0.29499816490E+03  0.31104555866E+03  0.00000000000E+00 0. -1.
<mgrwt>
<rscale>  2 0.10978489E+04</rscale>
<asrwt>0</asrwt>
<pdfrwt beam="1">  1       21 0.16398047E+00 0.11025224E+04</pdfrwt>
<pdfrwt beam="2">  1       21 0.19373560E+00 0.11025224E+04</pdfrwt>
<totfact> 0.15081846E+01</totfact>
</mgrwt>
</event>
<event>
 8    1  0.7418332E-006  0.1107968E+04  0.7818608E-02  0.8681686E-01
         21   -1    0    0  503  502  0.00000000000E+00  0.00000000000E+00  0.25058808049E+04  0.25058808049E+04  0.00000000000E+00 0.  1.
         21   -1    0    0  501  503 -0.00000000000E+00 -0.00000000000E+00 -0.50069786883E+03  0.50069786883E+03  0.00000000000E+00 0.  1.
    9000010    2    1    2  501    0  0.17277615356E+03 -0.46792429925E+03  0.12754354338E+04  0.16894759695E+04  0.98933753427E+03 0.  0.
   -9000010    2    1    2    0  502 -0.17277615356E+03  0.46792429925E+03  0.72974750226E+03  0.13171027042E+04  0.97643400560E+03 0.  0.
        -13    1    3    3    0    0  0.38445838762E+03 -0.34212810125E+03  0.14805692426E+03  0.53551914388E+03  0.10566000000E+00 0.  1.
          4    1    3    3  501    0 -0.21168223406E+03 -0.12579619800E+03  0.11273785095E+04  0.11539568256E+04  0.00000000000E+00 0.  1.
         13    1    4    4    0    0 -0.40003215122E+03  0.49526950275E+03  0.96704122560E+02  0.64394821286E+03  0.10566000000E+00 0. -1.
         -4    1    4    4    0  502  0.22725599767E+03 -0.27345203495E+02  0.63304337970E+03  0.67315449134E+03  0.00000000000E+00 0. -1.
<mgrwt>
<rscale>  2 0.11050803E+04</rscale>
<asrwt>0</asrwt>
<pdfrwt beam="1">  1       21 0.38552012E+00 0.11079682E+04</pdfrwt>
<pdfrwt beam="2">  1       21 0.77030443E-01 0.11079682E+04</pdfrwt>
<totfact> 0.50349776E+00</totfact>
</mgrwt>
</event>
<event>
 8    1  0.7418332E-006  0.1021124E+04  0.7818608E-02  0.8757132E-01
         21   -1    0    0  501  502  0.00000000000E+00  0.00000000000E+00  0.16396668900E+04  0.16396668900E+04  0.00000000000E+00 0. -1.
         21   -1    0    0  502  503 -0.00000000000E+00 -0.00000000000E+00 -0.66147194826E+03  0.66147194826E+03  0.00000000000E+00 0. -1.
    9000010    2    1    2  501    0  0.18363397996E+03 -0.68573198686E+02  0.73735616175E+03  0.12519977200E+04  0.99266331630E+03 0.  0.
   -9000010    2    1    2    0  503 -0.18363397996E+03  0.68573198686E+02  0.24083877999E+03  0.10491411182E+04  0.10021327486E+04 0.  0.
        -13    1    3    3    0    0 -0.39388321623E+03  0.29987322532E+01  0.46521815823E+03  0.60957438130E+03  0.10566000000E+00 0.  1.
          4    1    3    3  501    0  0.57751719619E+03 -0.71571930939E+02  0.27213800352E+03  0.64242333873E+03  0.00000000000E+00 0.  1.
         13    1    4    4    0    0 -0.26954452039E+03 -0.35360422016E+03  0.39180953366E+03  0.59262544226E+03  0.10566000000E+00 0. -1.
         -4    1    4    4    0  503  0.85910540423E+02  0.42217741885E+03 -0.15097075367E+03  0.45651567596E+03  0.00000000000E+00 0. -1.
<mgrwt>
<rscale>  2 0.10187929E+04</rscale>
<asrwt>0</asrwt>
<pdfrwt beam="1">  1       21 0.25225644E+00 0.10211238E+04</pdfrwt>
<pdfrwt beam="2">  1       21 0.10176492E+00 0.10211238E+04</pdfrwt>
<totfact> 0.22180429E+01</totfact>
</mgrwt>
</event>
<event>
 8    1  0.7418332E-006  0.1085025E+04  0.7818608E-02  0.8712274E-01
         21   -1    0    0  503  502  0.00000000000E+00  0.00000000000E+00  0.17669348501E+04  0.17669348501E+04  0.00000000000E+00 0. -1.
         21   -1    0    0  501  503 -0.00000000000E+00 -0.00000000000E+00 -0.65882602062E+03  0.65882602062E+03  0.00000000000E+00 0. -1.
    9000010    2    1    2  501    0 -0.14764617164E+03 -0.21277826898E+03  0.27824123954E+03  0.10597596547E+04  0.98924130253E+03 0.  0.
   -9000010    2    1    2    0  502  0.14764617164E+03  0.21277826898E+03  0.82986758994E+03  0.13660012160E+04  0.10536627172E+04 0.  0.
        -13    1    3    3    0    0 -0.28678517175E+03 -0.22864195806E+03  0.60317440016E+03  0.70593360020E+03  0.10566000000E+00 0.  1.
          4    1    3    3  501    0  0.13913900011E+03  0.15863689073E+02 -0.32493316062E+03  0.35382605451E+03  0.00000000000E+00 0.  1.
         13    1    4    4    0    0  0.25092954370E+03 -0.39348267794E+03  0.30530640865E+03  0.55767935955E+03  0.10566000000E+00 0. -1.
         -4    1    4    4    0  502 -0.10328337205E+03  0.60626094693E+03  0.52456118129E+03  0.80832185646E+03  0.00000000000E+00 0. -1.
<mgrwt>
<rscale>  2 0.10690653E+04</rscale>
<asrwt>0</asrwt>
<pdfrwt beam="1">  1       21 0.27183613E+00 0.10850249E+04</pdfrwt>
<pdfrwt beam="2">  1       21 0.10135785E+00 0.10850249E+04</pdfrwt>
<totfact> 0.15970645E+01</totfact>
</mgrwt>
</event>
<event>
 8    1  0.7418332E-006  0.1109357E+04  0.7818608E-02  0.8681807E-01
         21   -1    0    0  501  502  0.00000000000E+00  0.00000000000E+00  0.18816725789E+04  0.18816725789E+04  0.00000000000E+00 0.  1.
         21   -1    0    0  502  503 -0.00000000000E+00 -0.00000000000E+00 -0.72329036170E+03  0.72329036170E+03  0.00000000000E+00 0.  1.
    9000010    2    1    2  501    0 -0.18672575978E+03 -0.42285174412E+03  0.10153391332E+04  0.15038575028E+04  0.10084660265E+04 0.  0.
   -9000010    2    1    2    0  503  0.18672575978E+03  0.42285174412E+03  0.14304308397E+03  0.11011054378E+04  0.98909137814E+03 0.  0.
        -13    1    3    3    0    0 -0.42728308846E+03 -0.59544492505E+03  0.95141946329E+03  0.12009681523E+04  0.10566000000E+00 0.  1.
          4    1    3    3  501    0  0.24055732869E+03  0.17259318093E+03  0.63919669925E+02  0.30288935057E+03  0.00000000000E+00 0.  1.
         13    1    4    4    0    0  0.37658333517E+03  0.66332275038E+03  0.20208665585E+03  0.78908244635E+03  0.10566000000E+00 0. -1.
         -4    1    4    4    0  503 -0.18985757540E+03 -0.24047100626E+03 -0.59043571873E+02  0.31202299141E+03  0.00000000000E+00 0. -1.
<mgrwt>
<rscale>  2 0.11049353E+04</rscale>
<asrwt>0</asrwt>
<pdfrwt beam="1">  1       21 0.28948809E+00 0.11093574E+04</pdfrwt>
<pdfrwt beam="2">  1       21 0.11127544E+00 0.11093574E+04</pdfrwt>
<totfact> 0.92631459E+00</totfact>
</mgrwt>
</event>
<event>
 8    1  0.7418332E-006  0.1045949E+04  0.7818608E-02  0.8732625E-01
         21   -1    0    0  501  502  0.00000000000E+00  0.00000000000E+00  0.10097406411E+04  0.10097406411E+04  0.00000000000E+00 0. -1.
         21   -1    0    0  502  503 -0.00000000000E+00 -0.00000000000E+00 -0.14249387170E+04  0.14249387170E+04  0.00000000000E+00 0. -1.
    9000010    2    1    2  501    0  0.17700456084E+03 -0.19942830795E+03  0.38851636684E+03  0.11157755003E+04  0.10113890128E+04 0.  0.
   -9000010    2    1    2    0  503 -0.17700456084E+03  0.19942830795E+03 -0.80371444275E+03  0.13189038578E+04  0.10111618150E+04 0.  0.
        -13    1    3    3    0    0 -0.38707345425E+03  0.28176901372E+02  0.32123868536E+03  0.50379966345E+03  0.10566000000E+00 0.  1.
          4    1    3    3  501    0  0.56407801509E+03 -0.22760520932E+03  0.67277681484E+02  0.61197583682E+03  0.00000000000E+00 0.  1.
         13    1    4    4    0    0 -0.56307020462E+03  0.30992434774E+03 -0.52798826434E+03  0.83178890056E+03  0.10566000000E+00 0. -1.
         -4    1    4    4    0  503  0.38606564377E+03 -0.11049603979E+03 -0.27572617842E+03  0.48711495725E+03  0.00000000000E+00 0. -1.
<mgrwt>
<rscale>  2 0.10458944E+04</rscale>
<asrwt>0</asrwt>
<pdfrwt beam="1">  1       21 0.15534471E+00 0.10459493E+04</pdfrwt>
<pdfrwt beam="2">  1       21 0.21922134E+00 0.10459493E+04</pdfrwt>
<totfact> 0.11536071E+01</totfact>
</mgrwt>
</event>
<event>
 8    1  0.7418332E-006  0.1047299E+04  0.7818608E-02  0.8742652E-01
         21   -1    0    0  501  502  0.00000000000E+00  0.00000000000E+00  0.11745944205E+04  0.11745944205E+04  0.00000000000E+00 0. -1.
         21   -1    0    0  502  503 -0.00000000000E+00 -0.00000000000E+00 -0.11714931508E+04  0.11714931508E+04  0.00000000000E+00 0. -1.
    9000010    2    1    2  501    0 -0.18681950239E+03  0.19298013173E+03 -0.57316000105E+03  0.11507165230E+04  0.96098557311E+03 0.  0.
   -9000010    2    1    2    0  503  0.18681950239E+03 -0.19298013173E+03  0.57626127069E+03  0.11953710483E+04  0.10122707313E+04 0.  0.
        -13    1    3    3    0    0  0.12232187782E+03  0.41769374546E+03 -0.62856009563E+03  0.76453810354E+03  0.10566000000E+00 0.  1.
          4    1    3    3  501    0 -0.30914138020E+03 -0.22471361373E+03  0.55400094583E+02  0.38617841943E+03  0.00000000000E+00 0.  1.
         13    1    4    4    0    0  0.24724883171E+03 -0.48510830110E+03  0.68749913973E+03  0.87699323080E+03  0.10566000000E+00 0. -1.
         -4    1    4    4    0  503 -0.60429329320E+02  0.29212816937E+03 -0.11123786904E+03  0.31837781752E+03  0.00000000000E+00 0. -1.
<mgrwt>
<rscale>  2 0.10347026E+04</rscale>
<asrwt>0</asrwt>
<pdfrwt beam="1">  1       21 0.18070684E+00 0.10472989E+04</pdfrwt>
<pdfrwt beam="2">  1       21 0.18022971E+00 0.10472989E+04</pdfrwt>
<totfact> 0.14222671E+01</totfact>
</mgrwt>
</event>
<event>
 8    1  0.7418332E-006  0.1014472E+04  0.7818608E-02  0.8772277E-01
         21   -1    0    0  503  502  0.00000000000E+00  0.00000000000E+00  0.11873859214E+04  0.11873859214E+04  0.00000000000E+00 0.  1.
         21   -1    0    0  501  503 -0.00000000000E+00 -0.00000000000E+00 -0.14735682282E+04  0.14735682282E+04  0.00000000000E+00 0.  1.
    9000010    2    1    2  501    0 -0.10113105080E+03 -0.31317889123E+02 -0.10262404094E+04  0.14430256326E+04  0.10089327523E+04 0.  0.
   -9000010    2    1    2    0  502  0.10113105080E+03  0.31317889123E+02  0.74005810258E+03  0.12179285170E+04  0.96148612981E+03 0.  0.
        -13    1    3    3    0    0 -0.22970508194E+02 -0.55027289775E+02  0.20274354505E+03  0.21133055408E+03  0.10566000000E+00 0.  1.
          4    1    3    3  501    0 -0.78160542602E+02  0.23709400652E+02 -0.12289839544E+04  0.12316950785E+04  0.00000000000E+00 0.  1.
         13    1    4    4    0    0 -0.10156898783E+03  0.47136058655E+03  0.34711122345E+03  0.59412395546E+03  0.10566000000E+00 0. -1.
         -4    1    4    4    0  502  0.20270003863E+03 -0.44004269743E+03  0.39294687913E+03  0.62380456158E+03  0.00000000000E+00 0. -1.
<mgrwt>
<rscale>  2 0.10024669E+04</rscale>
<asrwt>0</asrwt>
<pdfrwt beam="1">  1       21 0.18267476E+00 0.10144721E+04</pdfrwt>
<pdfrwt beam="2">  1       21 0.22670280E+00 0.10144721E+04</pdfrwt>
<totfact> 0.60168565E+00</totfact>
</mgrwt>
</event>
<event>
 8    1  0.7418332E-006  0.1018301E+04  0.7818608E-02  0.8758393E-01
         21   -1    0    0  503  502  0.00000000000E+00  0.00000000000E+00  0.10990369993E+04  0.10990369993E+04  0.00000000000E+00 0.  1.
         21   -1    0    0  501  503 -0.00000000000E+00 -0.00000000000E+00 -0.11444367291E+04  0.11444367291E+04  0.00000000000E+00 0.  1.
    9000010    2    1    2  501    0 -0.18424215204E+03 -0.39320127744E+01 -0.49655400888E+03  0.11329181887E+04  0.10014874473E+04 0.  0.
   -9000010    2    1    2    0  502  0.18424215204E+03  0.39320127744E+01  0.45115427914E+03  0.11105555397E+04  0.99791422071E+03 0.  0.
        -13    1    3    3    0    0  0.37058326682E+03 -0.20933938872E+03 -0.23322502625E+03  0.48533376284E+03  0.10566000000E+00 0.  1.
          4    1    3    3  501    0 -0.55482541886E+03  0.20540737594E+03 -0.26332898263E+03  0.64758442584E+03  0.00000000000E+00 0.  1.
         13    1    4    4    0    0 -0.15092473838E+03  0.31378388995E+03 -0.12992046244E+03  0.37164222577E+03  0.10566000000E+00 0. -1.
         -4    1    4    4    0  502  0.33516689042E+03 -0.30985187717E+03  0.58107474158E+03  0.73891331395E+03  0.00000000000E+00 0. -1.
<mgrwt>
<rscale>  2 0.10174218E+04</rscale>
<asrwt>0</asrwt>
<pdfrwt beam="1">  1       21 0.16908261E+00 0.10183014E+04</pdfrwt>
<pdfrwt beam="2">  1       21 0.17606719E+00 0.10183014E+04</pdfrwt>
<totfact> 0.19328574E+01</totfact>
</mgrwt>
</event>
<event>
 8    1  0.7418332E-006  0.1028106E+04  0.7818608E-02  0.8752982E-01
         21   -1    0    0  501  502  0.00000000000E+00  0.00000000000E+00  0.23126135538E+04  0.23126135538E+04  0.00000000000E+00 0.  1.
         21   -1    0    0  502  503 -0.00000000000E+00 -0.00000000000E+00 -0.64099172513E+03  0.64099172513E+03  0.00000000000E+00 0.  1.
    9000010    2    1    2  501    0  0.15703933893E+03  0.42498716550E+02  0.16392982467E+04  0.19249912723E+04  0.99590419311E+03 0.  0.
   -9000010    2    1    2    0  503 -0.15703933893E+03 -0.42498716550E+02  0.32323582021E+02  0.10286140067E+04  0.10151524348E+04 0.  0.
        -13    1    3    3    0    0  0.44768336470E+03  0.31294765181E+03  0.59463616207E+03  0.80743346736E+03  0.10566000000E+00 0.  1.
          4    1    3    3  501    0 -0.29064402577E+03 -0.27044893526E+03  0.10446620846E+04  0.11175578049E+04  0.00000000000E+00 0.  1.
         13    1    4    4    0    0  0.29173381522E+03 -0.36921193251E+03 -0.20486174632E+02  0.47100505790E+03  0.10566000000E+00 0. -1.
         -4    1    4    4    0  503 -0.44877315416E+03  0.32671321596E+03  0.52809756653E+02  0.55760894879E+03  0.00000000000E+00 0. -1.
<mgrwt>
<rscale>  2 0.10233224E+04</rscale>
<asrwt>0</asrwt>
<pdfrwt beam="1">  1       21 0.35578670E+00 0.10281060E+04</pdfrwt>
<pdfrwt beam="2">  1       21 0.98614113E-01 0.10281060E+04</pdfrwt>
<totfact> 0.44458146E+00</totfact>
</mgrwt>
</event>
<event>
 8    1  0.7418332E-006  0.1365975E+04  0.7818608E-02  0.8521177E-01
         21   -1    0    0  501  502  0.00000000000E+00  0.00000000000E+00  0.11286229270E+04  0.11286229270E+04  0.00000000000E+00 0.  1.
         21   -1    0    0  502  503 -0.00000000000E+00 -0.00000000000E+00 -0.23952040821E+04  0.23952040821E+04  0.00000000000E+00 0.  1.
    9000010    2    1    2  501    0 -0.56776661478E+03 -0.31061193245E+03  0.49857660868E+03  0.12918613425E+04  0.10007439194E+04 0.  0.
   -9000010    2    1    2    0  503  0.56776661478E+03  0.31061193245E+03 -0.17651577638E+04  0.22319656665E+04  0.12029339566E+04 0.  0.
        -13    1    3    3    0    0  0.57721175103E+02  0.30705415993E+03  0.14316321628E+03  0.34367093104E+03  0.10566000000E+00 0.  1.
          4    1    3    3  501    0 -0.62548778988E+03 -0.61766609239E+03  0.35541339240E+03  0.94819041150E+03  0.00000000000E+00 0.  1.
         13    1    4    4    0    0 -0.66808308220E+02 -0.34325185583E+03 -0.15635702294E+03  0.38305706672E+03  0.10566000000E+00 0. -1.
         -4    1    4    4    0  503  0.63457492300E+03  0.65386378829E+03 -0.16088007408E+04  0.18489085998E+04  0.00000000000E+00 0. -1.
<mgrwt>
<rscale>  2 0.13201726E+04</rscale>
<asrwt>0</asrwt>
<pdfrwt beam="1">  1       21 0.17363430E+00 0.13659754E+04</pdfrwt>
<pdfrwt beam="2">  1       21 0.36849293E+00 0.13659754E+04</pdfrwt>
<totfact> 0.64295335E-01</totfact>
</mgrwt>
</event>
<event>
 8    1  0.7418332E-006  0.1014034E+04  0.7818608E-02  0.8762825E-01
         21   -1    0    0  501  502  0.00000000000E+00  0.00000000000E+00  0.60473435864E+03  0.60473435864E+03  0.00000000000E+00 0.  1.
         21   -1    0    0  502  503 -0.00000000000E+00 -0.00000000000E+00 -0.18975913440E+04  0.18975913440E+04  0.00000000000E+00 0.  1.
    9000010    2    1    2  501    0 -0.89502261338E+02  0.50855138548E+02 -0.23510897879E+03  0.10409331582E+04  0.10087956721E+04 0.  0.
   -9000010    2    1    2    0  503  0.89502261338E+02 -0.50855138548E+02 -0.10577480066E+04  0.14613925444E+04  0.10031153590E+04 0.  0.
        -13    1    3    3    0    0  0.10248727444E+03  0.49960856131E+03 -0.21190896937E+03  0.55228414645E+03  0.10566000000E+00 0.  1.
          4    1    3    3  501    0 -0.19198953578E+03 -0.44875342276E+03 -0.23200009422E+02  0.48864901179E+03  0.00000000000E+00 0.  1.
         13    1    4    4    0    0  0.15874473242E+03  0.19725251271E+03 -0.11577201266E+04  0.11850841095E+04  0.10566000000E+00 0. -1.
         -4    1    4    4    0  503 -0.69242471081E+02 -0.24810765125E+03  0.99972120046E+02  0.27630843490E+03  0.00000000000E+00 0. -1.
<mgrwt>
<rscale>  2 0.10126187E+04</rscale>
<asrwt>0</asrwt>
<pdfrwt beam="1">  1       21 0.93036055E-01 0.10140343E+04</pdfrwt>
<pdfrwt beam="2">  1       21 0.29193713E+00 0.10140343E+04</pdfrwt>
<totfact> 0.14569375E+01</totfact>
</mgrwt>
</event>
<event>
 8    1  0.7418332E-006  0.1000231E+04  0.7818608E-02  0.8776449E-01
         21   -1    0    0  503  502  0.00000000000E+00  0.00000000000E+00  0.12826588780E+04  0.12826588780E+04  0.00000000000E+00 0.  1.
         21   -1    0    0  501  503 -0.00000000000E+00 -0.00000000000E+00 -0.83253407847E+03  0.83253407847E+03  0.00000000000E+00 0.  1.
    9000010    2    1    2  501    0  0.21089178365E+02  0.45846491166E+02  0.50659602014E+03  0.11133691102E+04  0.99015382324E+03 0.  0.
   -9000010    2    1    2    0  502 -0.21089178365E+02 -0.45846491166E+02 -0.56471220590E+02  0.10018238463E+04  0.99895713927E+03 0.  0.
        -13    1    3    3    0    0 -0.15558226278E+03  0.24982828217E+03 -0.20077456991E+03  0.35627299947E+03  0.10566000000E+00 0.  1.
          4    1    3    3  501    0  0.17667144115E+03 -0.20398179100E+03  0.70737059005E+03  0.75709611071E+03  0.00000000000E+00 0.  1.
         13    1    4    4    0    0 -0.43936990543E+03 -0.24753863970E+03  0.95408233925E+02  0.51324851116E+03  0.10566000000E+00 0. -1.
         -4    1    4    4    0  502  0.41828072707E+03  0.20169214854E+03 -0.15187945452E+03  0.48857533515E+03  0.00000000000E+00 0. -1.
<mgrwt>
<rscale>  2 0.99802570E+03</rscale>
<asrwt>0</asrwt>
<pdfrwt beam="1">  1       21 0.19733213E+00 0.10002310E+04</pdfrwt>
<pdfrwt beam="2">  1       21 0.12808217E+00 0.10002310E+04</pdfrwt>
<totfact> 0.30609643E+01</totfact>
</mgrwt>
</event>
<event>
 8    1  0.7418332E-006  0.1150780E+04  0.7818608E-02  0.8667970E-01
         21   -1    0    0  501  502  0.00000000000E+00  0.00000000000E+00  0.81338611104E+03  0.81338611104E+03  0.00000000000E+00 0.  1.
         21   -1    0    0  502  503 -0.00000000000E+00 -0.00000000000E+00 -0.17135273156E+04  0.17135273156E+04  0.00000000000E+00 0.  1.
    9000010    2    1    2  501    0  0.18126514677E+03  0.66793446319E+02  0.41967052588E+02  0.10396802265E+04  0.10207131439E+04 0.  0.
   -9000010    2    1    2    0  503 -0.18126514677E+03 -0.66793446319E+02 -0.94210825718E+03  0.14872332001E+04  0.11344497368E+04 0.  0.
        -13    1    3    3    0    0  0.40689398685E+03  0.39681611804E+03 -0.16184178975E+03  0.59094714158E+03  0.10566000000E+00 0.  1.
          4    1    3    3  501    0 -0.22562884008E+03 -0.33002267172E+03  0.20380884234E+03  0.44873308496E+03  0.00000000000E+00 0.  1.
         13    1    4    4    0    0  0.25613877958E+03 -0.43109207410E+03 -0.71732889345E+03  0.87521894592E+03  0.10566000000E+00 0. -1.
         -4    1    4    4    0  503 -0.43740392635E+03  0.36429862778E+03 -0.22477936373E+03  0.61201425421E+03  0.00000000000E+00 0. -1.
<mgrwt>
<rscale>  2 0.11217102E+04</rscale>
<asrwt>0</asrwt>
<pdfrwt beam="1">  1       21 0.12513633E+00 0.11507800E+04</pdfrwt>
<pdfrwt beam="2">  1       21 0.26361958E+00 0.11507800E+04</pdfrwt>
<totfact> 0.10131482E+01</totfact>
</mgrwt>
</event>
<event>
 8    1  0.7418332E-006  0.9971668E+03  0.7818608E-02  0.8783760E-01
         21   -1    0    0  501  502  0.00000000000E+00  0.00000000000E+00  0.15966687056E+04  0.15966687056E+04  0.00000000000E+00 0. -1.
         21   -1    0    0  502  503 -0.00000000000E+00 -0.00000000000E+00 -0.61390873066E+03  0.61390873066E+03  0.00000000000E+00 0. -1.
    9000010    2    1    2  501    0 -0.24976789612E+02 -0.15626454410E+03  0.62434663665E+03  0.11764992155E+04  0.98452995572E+03 0.  0.
   -9000010    2    1    2    0  503  0.24976789612E+02  0.15626454410E+03  0.35841333829E+03  0.10340782207E+04  0.95698233929E+03 0.  0.
        -13    1    3    3    0    0  0.47785531122E+03 -0.34402235583E+02  0.32200147539E+03  0.57724706460E+03  0.10566000000E+00 0.  1.
          4    1    3    3  501    0 -0.50283210084E+03 -0.12186230852E+03  0.30234516126E+03  0.59925215094E+03  0.00000000000E+00 0.  1.
         13    1    4    4    0    0 -0.13982537967E+03 -0.34438411562E+03 -0.39338812971E+02  0.37376344024E+03  0.10566000000E+00 0. -1.
         -4    1    4    4    0  503  0.16480216928E+03  0.50064865972E+03  0.39775215126E+03  0.66031478047E+03  0.00000000000E+00 0. -1.
<mgrwt>
<rscale>  2 0.99029904E+03</rscale>
<asrwt>0</asrwt>
<pdfrwt beam="1">  1       21 0.24564134E+00 0.99716683E+03</pdfrwt>
<pdfrwt beam="2">  1       21 0.94447498E-01 0.99716683E+03</pdfrwt>
<totfact> 0.30236373E+01</totfact>
</mgrwt>
</event>
<event>
 8    1  0.7418332E-006  0.1051972E+04  0.7818608E-02  0.8750601E-01
         21   -1    0    0  501  502  0.00000000000E+00  0.00000000000E+00  0.91669626093E+03  0.91669626093E+03  0.00000000000E+00 0. -1.
         21   -1    0    0  502  503 -0.00000000000E+00 -0.00000000000E+00 -0.11481619139E+04  0.11481619139E+04  0.00000000000E+00 0. -1.
    9000010    2    1    2  501    0 -0.16731655129E+03  0.24385134027E+03 -0.33253237500E+03  0.10080419416E+04  0.90449569991E+03 0.  0.
   -9000010    2    1    2    0  503  0.16731655129E+03 -0.24385134027E+03  0.10106672206E+03  0.10568162332E+04  0.10095482970E+04 0.  0.
        -13    1    3    3    0    0 -0.48900078635E+03  0.63816941180E+02 -0.39789907647E+03  0.63365452516E+03  0.10566000000E+00 0.  1.
          4    1    3    3  501    0  0.32168423506E+03  0.18003439909E+03  0.65366701471E+02  0.37438741646E+03  0.00000000000E+00 0.  1.
         13    1    4    4    0    0  0.12734047998E+03 -0.28390171388E+03 -0.42554866591E+03  0.52716928894E+03  0.10566000000E+00 0. -1.
         -4    1    4    4    0  503  0.39976071317E+02  0.40050373606E+02  0.52661538797E+03  0.52964694425E+03  0.00000000000E+00 0. -1.
<mgrwt>
<rscale>  2 0.10259320E+04</rscale>
<asrwt>0</asrwt>
<pdfrwt beam="1">  1       21 0.14103019E+00 0.10519725E+04</pdfrwt>
<pdfrwt beam="2">  1       21 0.17664030E+00 0.10519725E+04</pdfrwt>
<totfact> 0.33452844E+01</totfact>
</mgrwt>
</event>
<event>
 8    1  0.7418332E-006  0.1022470E+04  0.7818608E-02  0.8761318E-01
         21   -1    0    0  501  502  0.00000000000E+00  0.00000000000E+00  0.51379830400E+03  0.51379830400E+03  0.00000000000E+00 0. -1.
         21   -1    0    0  502  503 -0.00000000000E+00 -0.00000000000E+00 -0.23980107634E+04  0.23980107634E+04  0.00000000000E+00 0. -1.
    9000010    2    1    2  501    0  0.95273814623E+02 -0.15086608082E+03 -0.34001359328E+03  0.10775226113E+04  0.10067810389E+04 0.  0.
   -9000010    2    1    2    0  503 -0.95273814623E+02  0.15086608082E+03 -0.15441988662E+04  0.18342864561E+04  0.97376536736E+03 0.  0.
        -13    1    3    3    0    0  0.45257114504E+03 -0.48986579860E+02  0.13467706879E+03  0.47471912785E+03  0.10566000000E+00 0.  1.
          4    1    3    3  501    0 -0.35729733042E+03 -0.10187950096E+03 -0.47469066207E+03  0.60280348348E+03  0.00000000000E+00 0.  1.
         13    1    4    4    0    0 -0.52608900052E+03 -0.19613181469E+02 -0.83991794010E+03  0.99127012999E+03  0.10566000000E+00 0. -1.
         -4    1    4    4    0  503  0.43081518589E+03  0.17047926228E+03 -0.70428092606E+03  0.84301632611E+03  0.00000000000E+00 0. -1.
<mgrwt>
<rscale>  2 0.10142487E+04</rscale>
<asrwt>0</asrwt>
<pdfrwt beam="1">  1       21 0.79045891E-01 0.10224704E+04</pdfrwt>
<pdfrwt beam="2">  1       21 0.36892474E+00 0.10224704E+04</pdfrwt>
<totfact> 0.62988061E+00</totfact>
</mgrwt>
</event>
<event>
 8    1  0.7418332E-006  0.1104135E+04  0.7818608E-02  0.8704162E-01
         21   -1    0    0  501  502  0.00000000000E+00  0.00000000000E+00  0.85774571477E+03  0.85774571477E+03  0.00000000000E+00 0.  1.
         21   -1    0    0  502  503 -0.00000000000E+00 -0.00000000000E+00 -0.17730616260E+04  0.17730616260E+04  0.00000000000E+00 0.  1.
    9000010    2    1    2  501    0  0.36524158732E+02  0.15042332118E+03  0.23942378788E+03  0.10331406882E+04  0.99302303180E+03 0.  0.
   -9000010    2    1    2    0  503 -0.36524158732E+02 -0.15042332118E+03 -0.11547396991E+04  0.15976666525E+04  0.10932308861E+04 0.  0.
        -13    1    3    3    0    0  0.84689490686E+02  0.72280378768E+02  0.62599535835E+03  0.63581991383E+03  0.10566000000E+00 0.  1.
          4    1    3    3  501    0 -0.48165331954E+02  0.78142942414E+02 -0.38657157046E+03  0.39732077437E+03  0.00000000000E+00 0.  1.
         13    1    4    4    0    0 -0.77573803333E+02 -0.57539261345E+03 -0.97425697817E+03  0.11341388915E+04  0.10566000000E+00 0. -1.
         -4    1    4    4    0  503  0.41049644601E+02  0.42496929227E+03 -0.18048272092E+03  0.46352776103E+03  0.00000000000E+00 0. -1.
<mgrwt>
<rscale>  2 0.10784746E+04</rscale>
<asrwt>0</asrwt>
<pdfrwt beam="1">  1       21 0.13196088E+00 0.11041354E+04</pdfrwt>
<pdfrwt beam="2">  1       21 0.27277871E+00 0.11041354E+04</pdfrwt>
<totfact> 0.75503550E+00</totfact>
</mgrwt>
</event>
<event>
 8    1  0.7418332E-006  0.9909395E+03  0.7818608E-02  0.8786327E-01
         21   -1    0    0  503  502  0.00000000000E+00  0.00000000000E+00  0.65127856647E+03  0.65127856647E+03  0.00000000000E+00 0. -1.
         21   -1    0    0  501  503 -0.00000000000E+00 -0.00000000000E+00 -0.15086037783E+04  0.15086037783E+04  0.00000000000E+00 0. -1.
    9000010    2    1    2  501    0 -0.21404697637E+02 -0.64638078542E+02 -0.55891625347E+03  0.11376943298E+04  0.98859737374E+03 0.  0.
   -9000010    2    1    2    0  502  0.21404697637E+02  0.64638078542E+02 -0.29840895837E+03  0.10221880150E+04  0.97528672157E+03 0.  0.
        -13    1    3    3    0    0  0.17654816700E+02  0.36988270133E+03  0.65413670829E+02  0.37603705242E+03  0.10566000000E+00 0.  1.
          4    1    3    3  501    0 -0.39059514336E+02 -0.43452077987E+03 -0.62432992430E+03  0.76165727737E+03  0.00000000000E+00 0.  1.
         13    1    4    4    0    0  0.45926685545E+03  0.18696683376E+02  0.47768956546E+02  0.46212281360E+03  0.10566000000E+00 0. -1.
         -4    1    4    4    0  502 -0.43786215781E+03  0.45941395166E+02 -0.34617791491E+03  0.56006520139E+03  0.00000000000E+00 0. -1.
<mgrwt>
<rscale>  2 0.98760295E+03</rscale>
<asrwt>0</asrwt>
<pdfrwt beam="1">  1       21 0.10019670E+00 0.99093946E+03</pdfrwt>
<pdfrwt beam="2">  1       21 0.23209289E+00 0.99093946E+03</pdfrwt>
<totfact> 0.32694166E+01</totfact>
</mgrwt>
</event>
<event>
 8    1  0.7418332E-006  0.1084286E+04  0.7818608E-02  0.8699928E-01
         21   -1    0    0  503  502  0.00000000000E+00  0.00000000000E+00  0.24248970245E+04  0.24248970245E+04  0.00000000000E+00 0.  1.
         21   -1    0    0  501  503 -0.00000000000E+00 -0.00000000000E+00 -0.58358291141E+03  0.58358291141E+03  0.00000000000E+00 0.  1.
    9000010    2    1    2  501    0  0.34614550737E+03 -0.24265923898E+03  0.29830894755E+03  0.11245730377E+04  0.99848689043E+03 0.  0.
   -9000010    2    1    2    0  502 -0.34614550737E+03  0.24265923898E+03  0.15430051656E+04  0.18839068983E+04  0.99475627254E+03 0.  0.
        -13    1    3    3    0    0  0.21896734795E+03  0.22637408813E+03  0.50605845813E+03  0.59605964588E+03  0.10566000000E+00 0.  1.
          4    1    3    3  501    0  0.12717815942E+03 -0.46903332711E+03 -0.20774951058E+03  0.52851339180E+03  0.00000000000E+00 0.  1.
         13    1    4    4    0    0 -0.35921864159E+03  0.48636298716E+03  0.15234734909E+04  0.16390724439E+04  0.10566000000E+00 0. -1.
         -4    1    4    4    0  502  0.13073134216E+02 -0.24370374818E+03  0.19531674665E+02  0.24483445433E+03  0.00000000000E+00 0. -1.
<mgrwt>
<rscale>  2 0.10834264E+04</rscale>
<asrwt>0</asrwt>
<pdfrwt beam="1">  1       21 0.37306108E+00 0.10842861E+04</pdfrwt>
<pdfrwt beam="2">  1       21 0.89781987E-01 0.10842861E+04</pdfrwt>
<totfact> 0.42232251E+00</totfact>
</mgrwt>
</event>
<event>
 8    1  0.7418332E-006  0.1020197E+04  0.7818608E-02  0.8771780E-01
         21   -1    0    0  503  502  0.00000000000E+00  0.00000000000E+00  0.30081588421E+04  0.30081588421E+04  0.00000000000E+00 0. -1.
         21   -1    0    0  501  503 -0.00000000000E+00 -0.00000000000E+00 -0.12993830838E+04  0.12993830838E+04  0.00000000000E+00 0. -1.
    9000010    2    1    2  501    0 -0.33273518927E+02 -0.66846574909E+02 -0.10045048550E+04  0.14317233612E+04  0.10174606566E+04 0.  0.
   -9000010    2    1    2    0  502  0.33273518927E+02  0.66846574909E+02  0.27132806133E+04  0.28758185646E+04  0.95019215886E+03 0.  0.
        -13    1    3    3    0    0  0.27941998731E+02 -0.48727136251E+03 -0.84901470119E+03  0.97930593280E+03  0.10566000000E+00 0.  1.
          4    1    3    3  501    0 -0.61215517658E+02  0.42042478760E+03 -0.15549015378E+03  0.45241742843E+03  0.00000000000E+00 0.  1.
         13    1    4    4    0    0  0.28467635412E+03 -0.55747457349E+02  0.21285940203E+03  0.35980208697E+03  0.10566000000E+00 0. -1.
         -4    1    4    4    0  502 -0.25140283519E+03  0.12259403226E+03  0.25004212112E+04  0.25160164777E+04  0.00000000000E+00 0. -1.
<mgrwt>
<rscale>  2 0.10029980E+04</rscale>
<asrwt>0</asrwt>
<pdfrwt beam="1">  1       21 0.46279367E+00 0.10201969E+04</pdfrwt>
<pdfrwt beam="2">  1       21 0.19990509E+00 0.10201969E+04</pdfrwt>
<totfact> 0.94679181E-02</totfact>
</mgrwt>
</event>
<event>
 8    1  0.7418332E-006  0.1076109E+04  0.7818608E-02  0.8707136E-01
         21   -1    0    0  503  502  0.00000000000E+00  0.00000000000E+00  0.73012756156E+03  0.73012756156E+03  0.00000000000E+00 0.  1.
         21   -1    0    0  501  503 -0.00000000000E+00 -0.00000000000E+00 -0.16765902301E+04  0.16765902301E+04  0.00000000000E+00 0.  1.
    9000010    2    1    2  501    0 -0.25064556757E+03 -0.28960945670E+03 -0.18288509761E+03  0.10872253795E+04  0.10009571564E+04 0.  0.
   -9000010    2    1    2    0  502  0.25064556757E+03  0.28960945670E+03 -0.76357757090E+03  0.13194924122E+04  0.10056404333E+04 0.  0.
        -13    1    3    3    0    0 -0.10600329698E+03  0.36975105577E+03 -0.14518615985E+03  0.41113449672E+03  0.10566000000E+00 0.  1.
          4    1    3    3  501    0 -0.14464227059E+03 -0.65936051246E+03 -0.37698937754E+02  0.67609088276E+03  0.00000000000E+00 0.  1.
         13    1    4    4    0    0 -0.36417230220E+03  0.31612418084E+02 -0.10038891866E+03  0.37907618867E+03  0.10566000000E+00 0. -1.
         -4    1    4    4    0  502  0.61481786977E+03  0.25799703861E+03 -0.66318865224E+03  0.94041622348E+03  0.00000000000E+00 0. -1.
<mgrwt>
<rscale>  2 0.10750130E+04</rscale>
<asrwt>0</asrwt>
<pdfrwt beam="1">  1       21 0.11232732E+00 0.10761085E+04</pdfrwt>
<pdfrwt beam="2">  1       21 0.25793696E+00 0.10761085E+04</pdfrwt>
<totfact> 0.15292411E+01</totfact>
</mgrwt>
</event>
<event>
 8    1  0.7418332E-006  0.1026419E+04  0.7818608E-02  0.8753218E-01
         21   -1    0    0  501  502  0.00000000000E+00  0.00000000000E+00  0.77445313136E+03  0.77445313136E+03  0.00000000000E+00 0.  1.
         21   -1    0    0  502  503 -0.00000000000E+00 -0.00000000000E+00 -0.14701917317E+04  0.14701917317E+04  0.00000000000E+00 0.  1.
    9000010    2    1    2  501    0 -0.51218709579E+01  0.20284988391E+03 -0.67625910676E+03  0.12180406024E+04  0.99253323403E+03 0.  0.
   -9000010    2    1    2    0  503  0.51218709579E+01 -0.20284988391E+03 -0.19479493540E+02  0.10266042606E+04  0.10061622873E+04 0.  0.
        -13    1    3    3    0    0 -0.29014132583E+03 -0.19908929429E+03  0.34088958923E+02  0.35352595993E+03  0.10566000000E+00 0.  1.
          4    1    3    3  501    0  0.28501945487E+03  0.40193917820E+03 -0.71034806568E+03  0.86451464247E+03  0.00000000000E+00 0.  1.
         13    1    4    4    0    0 -0.26300264971E+03 -0.38673802714E+03  0.31206555314E+03  0.56224693508E+03  0.10566000000E+00 0. -1.
         -4    1    4    4    0  503  0.26812452067E+03  0.18388814323E+03 -0.33154504668E+03  0.46435732554E+03  0.00000000000E+00 0. -1.
<mgrwt>
<rscale>  2 0.10230639E+04</rscale>
<asrwt>0</asrwt>
<pdfrwt beam="1">  1       21 0.11914664E+00 0.10264194E+04</pdfrwt>
<pdfrwt beam="2">  1       21 0.22618334E+00 0.10264194E+04</pdfrwt>
<totfact> 0.22473536E+01</totfact>
</mgrwt>
</event>
<event>
 8    1  0.7418332E-006  0.1014227E+04  0.7818608E-02  0.8762785E-01
         21   -1    0    0  501  502  0.00000000000E+00  0.00000000000E+00  0.13407164491E+04  0.13407164491E+04  0.00000000000E+00 0.  1.
         21   -1    0    0  502  503 -0.00000000000E+00 -0.00000000000E+00 -0.86683744882E+03  0.86683744882E+03  0.00000000000E+00 0.  1.
    9000010    2    1    2  501    0 -0.13089792919E+01  0.10917206162E+03  0.61918479298E+03  0.11829712651E+04  0.10020533687E+04 0.  0.
   -9000010    2    1    2    0  503  0.13089792919E+01 -0.10917206162E+03 -0.14530579267E+03  0.10245826328E+04  0.10083330529E+04 0.  0.
        -13    1    3    3    0    0 -0.39093533400E+03 -0.70466664393E+01  0.66743262275E+03  0.77352854372E+03  0.10566000000E+00 0.  1.
          4    1    3    3  501    0  0.38962635471E+03  0.11621872806E+03 -0.48247829767E+02  0.40944272140E+03  0.00000000000E+00 0.  1.
         13    1    4    4    0    0  0.16749046546E+03  0.15191631441E+03 -0.50305611370E+03  0.55154064882E+03  0.10566000000E+00 0. -1.
         -4    1    4    4    0  503 -0.16618148617E+03 -0.26108837603E+03  0.35775032104E+03  0.47304198402E+03  0.00000000000E+00 0. -1.
<mgrwt>
<rscale>  2 0.10126623E+04</rscale>
<asrwt>0</asrwt>
<pdfrwt beam="1">  1       21 0.20626407E+00 0.10142267E+04</pdfrwt>
<pdfrwt beam="2">  1       21 0.13335961E+00 0.10142267E+04</pdfrwt>
<totfact> 0.23139774E+01</totfact>
</mgrwt>
</event>
<event>
 8    1  0.7418332E-006  0.1018047E+04  0.7818608E-02  0.8760395E-01
         21   -1    0    0  503  502  0.00000000000E+00  0.00000000000E+00  0.58811938732E+03  0.58811938732E+03  0.00000000000E+00 0.  1.
         21   -1    0    0  501  503 -0.00000000000E+00 -0.00000000000E+00 -0.17753291848E+04  0.17753291848E+04  0.00000000000E+00 0.  1.
    9000010    2    1    2  501    0  0.44542719101E+02 -0.76050678926E+02 -0.43096834819E+03  0.10952527980E+04  0.10030340048E+04 0.  0.
   -9000010    2    1    2    0  502 -0.44542719101E+02  0.76050678926E+02 -0.75624144925E+03  0.12681957741E+04  0.10142246458E+04 0.  0.
        -13    1    3    3    0    0 -0.28221249363E+03 -0.43139089084E+03 -0.15080757502E+03  0.53710792967E+03  0.10566000000E+00 0.  1.
          4    1    3    3  501    0  0.32675521273E+03  0.35534021192E+03 -0.28016077317E+03  0.55814486836E+03  0.00000000000E+00 0.  1.
         13    1    4    4    0    0 -0.23657280669E+03 -0.32136020329E+03 -0.72269780462E+03  0.82554903009E+03  0.10566000000E+00 0. -1.
         -4    1    4    4    0  502  0.19203008759E+03  0.39741088222E+03 -0.33543644631E+02  0.44264674396E+03  0.00000000000E+00 0. -1.
<mgrwt>
<rscale>  2 0.10152483E+04</rscale>
<asrwt>0</asrwt>
<pdfrwt beam="1">  1       21 0.90479906E-01 0.10180469E+04</pdfrwt>
<pdfrwt beam="2">  1       21 0.27312757E+00 0.10180469E+04</pdfrwt>
<totfact> 0.21265261E+01</totfact>
</mgrwt>
</event>
<event>
 8    1  0.7418332E-006  0.1012330E+04  0.7818608E-02  0.8775097E-01
         21   -1    0    0  503  502  0.00000000000E+00  0.00000000000E+00  0.10201871668E+04  0.10201871668E+04  0.00000000000E+00 0.  1.
         21   -1    0    0  501  503 -0.00000000000E+00 -0.00000000000E+00 -0.12321550547E+04  0.12321550547E+04  0.00000000000E+00 0.  1.
    9000010    2    1    2  501    0  0.23368605779E+03  0.16798159742E+03  0.43004929807E+03  0.10535935204E+04  0.91776354078E+03 0.  0.
   -9000010    2    1    2    0  502 -0.23368605779E+03 -0.16798159742E+03 -0.64201718591E+03  0.11987487011E+04  0.97055931847E+03 0.  0.
        -13    1    3    3    0    0  0.84390424719E+02 -0.37477766512E+03  0.85371264887E+02  0.39353310673E+03  0.10566000000E+00 0.  1.
          4    1    3    3  501    0  0.14929563307E+03  0.54275926255E+03  0.34467803318E+03  0.66006041367E+03  0.00000000000E+00 0.  1.
         13    1    4    4    0    0 -0.71111063816E+02 -0.17230465268E+03  0.23885969658E+03  0.30298455826E+03  0.10566000000E+00 0. -1.
         -4    1    4    4    0  502 -0.16257499397E+03  0.43230552553E+01 -0.88087688249E+03  0.89576414283E+03  0.00000000000E+00 0. -1.
<mgrwt>
<rscale>  2 0.99946183E+03</rscale>
<asrwt>0</asrwt>
<pdfrwt beam="1">  1       21 0.15695187E+00 0.10123302E+04</pdfrwt>
<pdfrwt beam="2">  1       21 0.18956231E+00 0.10123302E+04</pdfrwt>
<totfact> 0.19105246E+01</totfact>
</mgrwt>
</event>
<event>
 8    1  0.7418332E-006  0.1037658E+04  0.7818608E-02  0.8744162E-01
         21   -1    0    0  503  502  0.00000000000E+00  0.00000000000E+00  0.55419020884E+03  0.55419020884E+03  0.00000000000E+00 0. -1.
         21   -1    0    0  501  503 -0.00000000000E+00 -0.00000000000E+00 -0.19168265976E+04  0.19168265976E+04  0.00000000000E+00 0. -1.
    9000010    2    1    2  501    0  0.12196835090E+03  0.14472005575E+03 -0.76822937914E+03  0.12910886815E+04  0.10202516510E+04 0.  0.
   -9000010    2    1    2    0  502 -0.12196835090E+03 -0.14472005575E+03 -0.59440700959E+03  0.11799281249E+04  0.10015440648E+04 0.  0.
        -13    1    3    3    0    0 -0.14953191085E+03 -0.40057119903E+03 -0.28986046431E+03  0.51656188186E+03  0.10566000000E+00 0.  1.
          4    1    3    3  501    0  0.27150026175E+03  0.54529125478E+03 -0.47836891483E+03  0.77452679963E+03  0.00000000000E+00 0.  1.
         13    1    4    4    0    0 -0.54532064929E+03 -0.66151374050E+02 -0.16920921435E+03  0.57478899103E+03  0.10566000000E+00 0. -1.
         -4    1    4    4    0  502  0.42335229839E+03 -0.78568681703E+02 -0.42519779524E+03  0.60513913390E+03  0.00000000000E+00 0. -1.
<mgrwt>
<rscale>  2 0.10330299E+04</rscale>
<asrwt>0</asrwt>
<pdfrwt beam="1">  1       21 0.85260032E-01 0.10376577E+04</pdfrwt>
<pdfrwt beam="2">  1       21 0.29489640E+00 0.10376577E+04</pdfrwt>
<totfact> 0.17257411E+01</totfact>
</mgrwt>
</event>
<event>
 8    1  0.7418332E-006  0.1025021E+04  0.7818608E-02  0.8775391E-01
         21   -1    0    0  501  502  0.00000000000E+00  0.00000000000E+00  0.94583876737E+03  0.94583876737E+03  0.00000000000E+00 0. -1.
         21   -1    0    0  502  503 -0.00000000000E+00 -0.00000000000E+00 -0.10965429795E+04  0.10965429795E+04  0.00000000000E+00 0. -1.
    9000010    2    1    2  501    0  0.20646055647E+03  0.64066814190E+02  0.21504695935E+03  0.10473358699E+04  0.10019664224E+04 0.  0.
   -9000010    2    1    2    0  503 -0.20646055647E+03 -0.64066814190E+02 -0.36575117145E+03  0.99504587690E+03  0.89978434064E+03 0.  0.
        -13    1    3    3    0    0  0.39361284979E+03  0.44329024676E+03  0.19462665481E+03  0.62395261384E+03  0.10566000000E+00 0.  1.
          4    1    3    3  501    0 -0.18715229332E+03 -0.37922343257E+03  0.20420304545E+02  0.42338325610E+03  0.00000000000E+00 0.  1.
         13    1    4    4    0    0  0.18873657878E+03  0.17672734541E+03  0.15254959757E+03  0.30020899664E+03  0.10566000000E+00 0. -1.
         -4    1    4    4    0  503 -0.39519713525E+03 -0.24079415960E+03 -0.51830076902E+03  0.69483688026E+03  0.00000000000E+00 0. -1.
<mgrwt>
<rscale>  2 0.99914927E+03</rscale>
<asrwt>0</asrwt>
<pdfrwt beam="1">  1       21 0.14551366E+00 0.10250206E+04</pdfrwt>
<pdfrwt beam="2">  1       21 0.16869892E+00 0.10250206E+04</pdfrwt>
<totfact> 0.35660767E+01</totfact>
</mgrwt>
</event>
<event>
 8    1  0.7418332E-006  0.1021406E+04  0.7818608E-02  0.8763711E-01
         21   -1    0    0  501  502  0.00000000000E+00  0.00000000000E+00  0.63350726391E+03  0.63350726391E+03  0.00000000000E+00 0. -1.
         21   -1    0    0  502  503 -0.00000000000E+00 -0.00000000000E+00 -0.20469915679E+04  0.20469915679E+04  0.00000000000E+00 0. -1.
    9000010    2    1    2  501    0  0.16867778745E+02 -0.23773039538E+03 -0.80923062435E+02  0.10246064172E+04  0.99321171218E+03 0.  0.
   -9000010    2    1    2    0  503 -0.16867778745E+02  0.23773039538E+03 -0.13325612416E+04  0.16558924146E+04  0.95365610338E+03 0.  0.
        -13    1    3    3    0    0 -0.74113348997E+02 -0.25980572213E+03 -0.51445468967E+03  0.58108126853E+03  0.10566000000E+00 0.  1.
          4    1    3    3  501    0  0.90981127742E+02  0.22075326752E+02  0.43353162724E+03  0.44352514863E+03  0.00000000000E+00 0.  1.
         13    1    4    4    0    0  0.43157710210E+03  0.26126340290E+03 -0.50198547781E+03  0.71169290558E+03  0.10566000000E+00 0. -1.
         -4    1    4    4    0  503 -0.44844488084E+03 -0.23533007522E+02 -0.83057576374E+03  0.94419950906E+03  0.00000000000E+00 0. -1.
<mgrwt>
<rscale>  2 0.10116621E+04</rscale>
<asrwt>0</asrwt>
<pdfrwt beam="1">  1       21 0.97462655E-01 0.10214058E+04</pdfrwt>
<pdfrwt beam="2">  1       21 0.31492178E+00 0.10214058E+04</pdfrwt>
<totfact> 0.88853946E+00</totfact>
</mgrwt>
</event>
<event>
 8    1  0.7418332E-006  0.1012818E+04  0.7818608E-02  0.8764538E-01
         21   -1    0    0  501  502  0.00000000000E+00  0.00000000000E+00  0.47307568068E+03  0.47307568068E+03  0.00000000000E+00 0.  1.
         21   -1    0    0  502  503 -0.00000000000E+00 -0.00000000000E+00 -0.26183950222E+04  0.26183950222E+04  0.00000000000E+00 0.  1.
    9000010    2    1    2  501    0 -0.47916460944E+02  0.18213911760E+03 -0.41596618041E+03  0.10873594376E+04  0.98683941855E+03 0.  0.
   -9000010    2    1    2    0  503  0.47916460944E+02 -0.18213911760E+03 -0.17293531611E+04  0.20041112652E+04  0.99515273310E+03 0.  0.
        -13    1    3    3    0    0 -0.45369954758E+03 -0.50745417900E+02 -0.41874586562E+03  0.61948889259E+03  0.10566000000E+00 0.  1.
          4    1    3    3  501    0  0.40578308664E+03  0.23288453550E+03  0.27796852082E+01  0.46787054505E+03  0.00000000000E+00 0.  1.
         13    1    4    4    0    0  0.39213115806E+03  0.38544018125E+02 -0.24387419559E+03  0.46338657824E+03  0.10566000000E+00 0. -1.
         -4    1    4    4    0  503 -0.34421469712E+03 -0.22068313573E+03 -0.14854789655E+04  0.15407246870E+04  0.00000000000E+00 0. -1.
<mgrwt>
<rscale>  2 0.10107697E+04</rscale>
<asrwt>0</asrwt>
<pdfrwt beam="1">  1       21 0.72780873E-01 0.10128177E+04</pdfrwt>
<pdfrwt beam="2">  1       21 0.40283001E+00 0.10128177E+04</pdfrwt>
<totfact> 0.44604267E+00</totfact>
</mgrwt>
</event>
<event>
 8    1  0.7418332E-006  0.1025797E+04  0.7818608E-02  0.8757340E-01
         21   -1    0    0  503  502  0.00000000000E+00  0.00000000000E+00  0.16486861458E+04  0.16486861458E+04  0.00000000000E+00 0. -1.
         21   -1    0    0  501  503 -0.00000000000E+00 -0.00000000000E+00 -0.69601352036E+03  0.69601352036E+03  0.00000000000E+00 0. -1.
    9000010    2    1    2  501    0  0.43447221185E+02  0.41144905064E+02  0.96378324891E+02  0.10303145277E+04  0.10240501356E+04 0.  0.
   -9000010    2    1    2    0  502 -0.43447221185E+02 -0.41144905064E+02  0.85629430050E+03  0.13143851385E+04  0.99538324221E+03 0.  0.
        -13    1    3    3    0    0  0.28904309824E+03 -0.70602047047E+02 -0.38012042942E+03  0.48272364114E+03  0.10566000000E+00 0.  1.
          4    1    3    3  501    0 -0.24559587705E+03  0.11174695211E+03  0.47649875431E+03  0.54759088651E+03  0.00000000000E+00 0.  1.
         13    1    4    4    0    0 -0.18523530300E+03  0.54081264901E+02 -0.18013300922E+03  0.26397881140E+03  0.10566000000E+00 0. -1.
         -4    1    4    4    0  502  0.14178808182E+03 -0.95226169966E+02  0.10364273097E+04  0.10504063271E+04  0.00000000000E+00 0. -1.
<mgrwt>
<rscale>  2 0.10185666E+04</rscale>
<asrwt>0</asrwt>
<pdfrwt beam="1">  1       21 0.25364402E+00 0.10257969E+04</pdfrwt>
<pdfrwt beam="2">  1       21 0.10707900E+00 0.10257969E+04</pdfrwt>
<totfact> 0.18912005E+01</totfact>
</mgrwt>
</event>
<event>
 8    1  0.7418332E-006  0.1087508E+04  0.7818608E-02  0.8698234E-01
         21   -1    0    0  503  502  0.00000000000E+00  0.00000000000E+00  0.22853876017E+04  0.22853876017E+04  0.00000000000E+00 0.  1.
         21   -1    0    0  501  503 -0.00000000000E+00 -0.00000000000E+00 -0.57986301641E+03  0.57986301641E+03  0.00000000000E+00 0.  1.
    9000010    2    1    2  501    0  0.11033427219E+03 -0.36924849256E+03  0.36530660302E+03  0.11393135295E+04  0.10080021346E+04 0.  0.
   -9000010    2    1    2    0  502 -0.11033427219E+03  0.36924849256E+03  0.13402179823E+04  0.17259370886E+04  0.10169348519E+04 0.  0.
        -13    1    3    3    0    0 -0.16096940103E+03 -0.46890131708E+03 -0.17567263542E+03  0.52596623392E+03  0.10566000000E+00 0.  1.
          4    1    3    3  501    0  0.27130367322E+03  0.99652824517E+02  0.54097923844E+03  0.61334729555E+03  0.00000000000E+00 0.  1.
         13    1    4    4    0    0 -0.43002698795E+03  0.27137090470E+03  0.12915867935E+04  0.13880784684E+04  0.10566000000E+00 0. -1.
         -4    1    4    4    0  502  0.31969271576E+03  0.97877587859E+02  0.48631188793E+02  0.33785862019E+03  0.00000000000E+00 0. -1.
<mgrwt>
<rscale>  2 0.10854153E+04</rscale>
<asrwt>0</asrwt>
<pdfrwt beam="1">  1       21 0.35159809E+00 0.10875084E+04</pdfrwt>
<pdfrwt beam="2">  1       21 0.89209696E-01 0.10875084E+04</pdfrwt>
<totfact> 0.60685784E+00</totfact>
</mgrwt>
</event>
<event>
 8    1  0.7418332E-006  0.1028266E+04  0.7818608E-02  0.8750461E-01
         21   -1    0    0  503  502  0.00000000000E+00  0.00000000000E+00  0.95242887121E+03  0.95242887121E+03  0.00000000000E+00 0.  1.
         21   -1    0    0  501  503 -0.00000000000E+00 -0.00000000000E+00 -0.13394173279E+04  0.13394173279E+04  0.00000000000E+00 0.  1.
    9000010    2    1    2  501    0  0.16242774890E+03  0.26533402708E+02 -0.67785709314E+03  0.12315925547E+04  0.10150089590E+04 0.  0.
   -9000010    2    1    2    0  502 -0.16242774890E+03 -0.26533402708E+02  0.29086863643E+03  0.10602536444E+04  0.10062039713E+04 0.  0.
        -13    1    3    3    0    0 -0.93443123861E+02 -0.19364934495E+02  0.25021809172E+03  0.26779791387E+03  0.10566000000E+00 0.  1.
          4    1    3    3  501    0  0.25587087276E+03  0.45898337203E+02 -0.92807518486E+03  0.96379464080E+03  0.00000000000E+00 0.  1.
         13    1    4    4    0    0  0.23199195299E+03 -0.11592515316E+03  0.53026449287E+03  0.59028751549E+03  0.10566000000E+00 0. -1.
         -4    1    4    4    0  502 -0.39441970189E+03  0.89391750448E+02 -0.23939585643E+03  0.46996612896E+03  0.00000000000E+00 0. -1.
<mgrwt>
<rscale>  2 0.10260860E+04</rscale>
<asrwt>0</asrwt>
<pdfrwt beam="1">  1       21 0.14652752E+00 0.10282655E+04</pdfrwt>
<pdfrwt beam="2">  1       21 0.20606420E+00 0.10282655E+04</pdfrwt>
<totfact> 0.17481988E+01</totfact>
</mgrwt>
</event>
<event>
 8    1  0.7418332E-006  0.1041009E+04  0.7818608E-02  0.8759268E-01
         21   -1    0    0  503  502  0.00000000000E+00  0.00000000000E+00  0.16506279407E+04  0.16506279407E+04  0.00000000000E+00 0.  1.
         21   -1    0    0  501  503 -0.00000000000E+00 -0.00000000000E+00 -0.86767757630E+03  0.86767757630E+03  0.00000000000E+00 0.  1.
    9000010    2    1    2  501    0 -0.27862067359E+03 -0.12152449438E+03 -0.32261847166E+03  0.99975968518E+03  0.89612447091E+03 0.  0.
   -9000010    2    1    2    0  502  0.27862067359E+03  0.12152449438E+03  0.11055688360E+04  0.15185458318E+04  0.99564115503E+03 0.  0.
        -13    1    3    3    0    0 -0.47991881393E+03 -0.34466322322E+03 -0.36762338457E+03  0.69588919336E+03  0.10566000000E+00 0.  1.
          4    1    3    3  501    0  0.20129814034E+03  0.22313872884E+03  0.45004912902E+02  0.30387049181E+03  0.00000000000E+00 0.  1.
         13    1    4    4    0    0 -0.33887214779E+03  0.22632714402E+03  0.52444002603E+03  0.66415032992E+03  0.10566000000E+00 0. -1.
         -4    1    4    4    0  502  0.61749282138E+03 -0.10480264964E+03  0.58112881002E+03  0.85439550189E+03  0.00000000000E+00 0. -1.
<mgrwt>
<rscale>  2 0.10164713E+04</rscale>
<asrwt>0</asrwt>
<pdfrwt beam="1">  1       21 0.25394276E+00 0.10410086E+04</pdfrwt>
<pdfrwt beam="2">  1       21 0.13348886E+00 0.10410086E+04</pdfrwt>
<totfact> 0.10124627E+01</totfact>
</mgrwt>
</event>
<event>
 8    1  0.7418332E-006  0.1004586E+04  0.7818608E-02  0.8790627E-01
         21   -1    0    0  501  502  0.00000000000E+00  0.00000000000E+00  0.66331537487E+03  0.66331537487E+03  0.00000000000E+00 0. -1.
         21   -1    0    0  502  503 -0.00000000000E+00 -0.00000000000E+00 -0.14094337859E+04  0.14094337859E+04  0.00000000000E+00 0. -1.
    9000010    2    1    2  501    0  0.72265123684E+02 -0.87496504719E+01 -0.26399660557E+03  0.95846235822E+03  0.91850807285E+03 0.  0.
   -9000010    2    1    2    0  503 -0.72265123684E+02  0.87496504719E+01 -0.48212180546E+03  0.11142868025E+04  0.10019455267E+04 0.  0.
        -13    1    3    3    0    0 -0.28246105897E+02 -0.28584218996E+03  0.24019655630E+03  0.37443022966E+03  0.10566000000E+00 0.  1.
          4    1    3    3  501    0  0.10051122958E+03  0.27709253949E+03 -0.50419316187E+03  0.58403212856E+03  0.00000000000E+00 0.  1.
         13    1    4    4    0    0 -0.12045703877E+03 -0.32852147561E+03  0.16201614382E+03  0.38559758836E+03  0.10566000000E+00 0. -1.
         -4    1    4    4    0  503  0.48191915081E+02  0.33727112608E+03 -0.64413794928E+03  0.72868921418E+03  0.00000000000E+00 0. -1.
<mgrwt>
<rscale>  2 0.98310766E+03</rscale>
<asrwt>0</asrwt>
<pdfrwt beam="1">  1       21 0.10204852E+00 0.10045863E+04</pdfrwt>
<pdfrwt beam="2">  1       21 0.21683597E+00 0.10045863E+04</pdfrwt>
<totfact> 0.40400416E+01</totfact>
</mgrwt>
</event>
<event>
 8    1  0.7418332E-006  0.1121574E+04  0.7818608E-02  0.8668500E-01
         21   -1    0    0  503  502  0.00000000000E+00  0.00000000000E+00  0.71483319444E+03  0.71483319444E+03  0.00000000000E+00 0.  1.
         21   -1    0    0  501  503 -0.00000000000E+00 -0.00000000000E+00 -0.20724105919E+04  0.20724105919E+04  0.00000000000E+00 0.  1.
    9000010    2    1    2  501    0  0.31024686232E+03  0.39927422015E+03 -0.12233906209E+04  0.16597025537E+04  0.10011268336E+04 0.  0.
   -9000010    2    1    2    0  502 -0.31024686232E+03 -0.39927422015E+03 -0.13418677649E+03  0.11275412326E+04  0.99883438155E+03 0.  0.
        -13    1    3    3    0    0  0.32785803024E+03 -0.27127226937E+03 -0.65185180406E+03  0.77845379936E+03  0.10566000000E+00 0.  1.
          4    1    3    3  501    0 -0.17611167916E+02  0.67054648952E+03 -0.57153881686E+03  0.88124875434E+03  0.00000000000E+00 0.  1.
         13    1    4    4    0    0  0.20750701050E+03  0.90957708347E+02  0.23345527015E+03  0.32532113125E+03  0.10566000000E+00 0. -1.
         -4    1    4    4    0  502 -0.51775387282E+03 -0.49023192850E+03 -0.36764204664E+03  0.80222010134E+03  0.00000000000E+00 0. -1.
<mgrwt>
<rscale>  2 0.11210621E+04</rscale>
<asrwt>0</asrwt>
<pdfrwt beam="1">  1       21 0.10997434E+00 0.11215739E+04</pdfrwt>
<pdfrwt beam="2">  1       21 0.31883240E+00 0.11215739E+04</pdfrwt>
<totfact> 0.59187407E+00</totfact>
</mgrwt>
</event>
<event>
 8    1  0.7418332E-006  0.9965111E+03  0.7818608E-02  0.8794193E-01
         21   -1    0    0  503  502  0.00000000000E+00  0.00000000000E+00  0.12872860932E+04  0.12872860932E+04  0.00000000000E+00 0. -1.
         21   -1    0    0  501  503 -0.00000000000E+00 -0.00000000000E+00 -0.75081698971E+03  0.75081698971E+03  0.00000000000E+00 0. -1.
    9000010    2    1    2  501    0 -0.14863697945E+03 -0.70726771086E+01  0.55136423105E+02  0.93143444456E+03  0.91781649851E+03 0.  0.
   -9000010    2    1    2    0  502  0.14863697945E+03  0.70726771086E+01  0.48133268036E+03  0.11066686383E+04  0.98533819141E+03 0.  0.
        -13    1    3    3    0    0  0.18086340090E+03  0.11669055427E+03 -0.33991302531E+03  0.40232963000E+03  0.10566000000E+00 0.  1.
          4    1    3    3  501    0 -0.32950038034E+03 -0.12376323138E+03  0.39504944841E+03  0.52910481455E+03  0.00000000000E+00 0.  1.
         13    1    4    4    0    0  0.45352819505E+03  0.31484125901E+03  0.35116027388E+03  0.65431367951E+03  0.10566000000E+00 0. -1.
         -4    1    4    4    0  502 -0.30489121560E+03 -0.30776858190E+03  0.13017240649E+03  0.45235495882E+03  0.00000000000E+00 0. -1.
<mgrwt>
<rscale>  2 0.97939777E+03</rscale>
<asrwt>0</asrwt>
<pdfrwt beam="1">  1       21 0.19804401E+00 0.99651108E+03</pdfrwt>
<pdfrwt beam="2">  1       21 0.11551031E+00 0.99651108E+03</pdfrwt>
<totfact> 0.40431438E+01</totfact>
</mgrwt>
</event>
<event>
 8    1  0.7418332E-006  0.1073538E+04  0.7818608E-02  0.8708891E-01
         21   -1    0    0  503  502  0.00000000000E+00  0.00000000000E+00  0.29424485629E+04  0.29424485629E+04  0.00000000000E+00 0. -1.
         21   -1    0    0  501  503 -0.00000000000E+00 -0.00000000000E+00 -0.45689975917E+03  0.45689975917E+03  0.00000000000E+00 0. -1.
    9000010    2    1    2  501    0 -0.23710018172E+03 -0.27945959570E+03  0.59768944966E+03  0.12287052362E+04  0.10090439621E+04 0.  0.
   -9000010    2    1    2    0  502  0.23710018172E+03  0.27945959570E+03  0.18878593540E+04  0.21706430858E+04  0.10066599742E+04 0.  0.
        -13    1    3    3    0    0 -0.33243644342E+03  0.17727914698E+03  0.65801552037E+03  0.75823896040E+03  0.10566000000E+00 0.  1.
          4    1    3    3  501    0  0.95336261699E+02 -0.45673874268E+03 -0.60326070702E+02  0.47046627580E+03  0.00000000000E+00 0.  1.
         13    1    4    4    0    0 -0.94445918013E+02 -0.38944304520E+02  0.16498352931E+04  0.16529952195E+04  0.10566000000E+00 0. -1.
         -4    1    4    4    0  502  0.33154609973E+03  0.31840390022E+03  0.23802406098E+03  0.51764786634E+03  0.00000000000E+00 0. -1.
<mgrwt>
<rscale>  2 0.10729775E+04</rscale>
<asrwt>0</asrwt>
<pdfrwt beam="1">  1       21 0.45268438E+00 0.10735380E+04</pdfrwt>
<pdfrwt beam="2">  1       21 0.70292273E-01 0.10735380E+04</pdfrwt>
<totfact> 0.21616248E+00</totfact>
</mgrwt>
</event>
<event>
 8    1  0.7418332E-006  0.1066002E+04  0.7818608E-02  0.8727293E-01
         21   -1    0    0  501  502  0.00000000000E+00  0.00000000000E+00  0.81546636833E+03  0.81546636833E+03  0.00000000000E+00 0.  1.
         21   -1    0    0  502  503 -0.00000000000E+00 -0.00000000000E+00 -0.13388210020E+04  0.13388210020E+04  0.00000000000E+00 0.  1.
    9000010    2    1    2  501    0  0.28879253358E+03  0.20912868865E+03 -0.14853057069E+03  0.10762994779E+04  0.10046010650E+04 0.  0.
   -9000010    2    1    2    0  503 -0.28879253358E+03 -0.20912868865E+03 -0.37482406295E+03  0.10779878924E+04  0.94574250306E+03 0.  0.
        -13    1    3    3    0    0 -0.97773682684E+02  0.40172748308E+03 -0.40104773488E+03  0.57600691012E+03  0.10566000000E+00 0.  1.
          4    1    3    3  501    0  0.38656621626E+03 -0.19259879442E+03  0.25251716419E+03  0.50029256778E+03  0.00000000000E+00 0.  1.
         13    1    4    4    0    0  0.67308455002E+02  0.34497266337E+03 -0.11302125703E+03  0.36920235954E+03  0.10566000000E+00 0. -1.
         -4    1    4    4    0  503 -0.35610098858E+03 -0.55410135202E+03 -0.26180280592E+03  0.70878553284E+03  0.00000000000E+00 0. -1.
<mgrwt>
<rscale>  2 0.10519052E+04</rscale>
<asrwt>0</asrwt>
<pdfrwt beam="1">  1       21 0.12545636E+00 0.10660015E+04</pdfrwt>
<pdfrwt beam="2">  1       21 0.20597246E+00 0.10660015E+04</pdfrwt>
<totfact> 0.27415942E+01</totfact>
</mgrwt>
</event>
<event>
 8    1  0.7418332E-006  0.1034630E+04  0.7818608E-02  0.8770470E-01
         21   -1    0    0  503  502  0.00000000000E+00  0.00000000000E+00  0.21790479036E+04  0.21790479036E+04  0.00000000000E+00 0.  1.
         21   -1    0    0  501  503 -0.00000000000E+00 -0.00000000000E+00 -0.48918009706E+03  0.48918009706E+03  0.00000000000E+00 0.  1.
    9000010    2    1    2  501    0 -0.23006795813E+03  0.84736109008E+02  0.12316640146E+04  0.15366757502E+04  0.88558717408E+03 0.  0.
   -9000010    2    1    2    0  502  0.23006795813E+03 -0.84736109008E+02  0.45820379199E+03  0.11315522505E+04  0.10051608364E+04 0.  0.
        -13    1    3    3    0    0 -0.25816995265E+03  0.26320086843E+03  0.88276499707E+02  0.37910311678E+03  0.10566000000E+00 0.  1.
          4    1    3    3  501    0  0.28101994522E+02 -0.17846475942E+03  0.11433875149E+04  0.11575726334E+04  0.00000000000E+00 0.  1.
         13    1    4    4    0    0  0.57262073162E+03 -0.11154362147E+03  0.32230562653E+02  0.58427331114E+03  0.10566000000E+00 0. -1.
         -4    1    4    4    0  502 -0.34255277350E+03  0.26807512457E+02  0.42597322934E+03  0.54727893936E+03  0.00000000000E+00 0. -1.
<mgrwt>
<rscale>  2 0.10043981E+04</rscale>
<asrwt>0</asrwt>
<pdfrwt beam="1">  1       21 0.33523813E+00 0.10346303E+04</pdfrwt>
<pdfrwt beam="2">  1       21 0.75258478E-01 0.10346303E+04</pdfrwt>
<totfact> 0.12185936E+01</totfact>
</mgrwt>
</event>
<event>
 8    1  0.7418332E-006  0.1129693E+04  0.7818608E-02  0.8664600E-01
         21   -1    0    0  501  502  0.00000000000E+00  0.00000000000E+00  0.74462343739E+03  0.74462343739E+03  0.00000000000E+00 0. -1.
         21   -1    0    0  502  503 -0.00000000000E+00 -0.00000000000E+00 -0.19718657622E+04  0.19718657622E+04  0.00000000000E+00 0. -1.
    9000010    2    1    2  501    0 -0.31103601288E+03  0.39850434261E+03 -0.10436091586E+03  0.11345032177E+04  0.10102758226E+04 0.  0.
   -9000010    2    1    2    0  503  0.31103601288E+03 -0.39850434261E+03 -0.11228814090E+04  0.15819859820E+04  0.99311020340E+03 0.  0.
        -13    1    3    3    0    0  0.23703914566E+03  0.29513671505E+03 -0.35871273844E+03  0.52150558677E+03  0.10566000000E+00 0.  1.
          4    1    3    3  501    0 -0.54807515854E+03  0.10336762756E+03  0.25435182258E+03  0.61299763089E+03  0.00000000000E+00 0.  1.
         13    1    4    4    0    0  0.39693431356E+03 -0.30980579987E+03 -0.54468138406E+02  0.50646152092E+03  0.10566000000E+00 0. -1.
         -4    1    4    4    0  503 -0.85898300682E+02 -0.88698542740E+02 -0.10684132706E+04  0.10755244610E+04  0.00000000000E+00 0. -1.
<mgrwt>
<rscale>  2 0.11258422E+04</rscale>
<asrwt>0</asrwt>
<pdfrwt beam="1">  1       21 0.11455746E+00 0.11296930E+04</pdfrwt>
<pdfrwt beam="2">  1       21 0.30336395E+00 0.11296930E+04</pdfrwt>
<totfact> 0.67897887E+00</totfact>
</mgrwt>
</event>
<event>
 8    1  0.7418332E-006  0.1002912E+04  0.7818608E-02  0.8807664E-01
         21   -1    0    0  503  502  0.00000000000E+00  0.00000000000E+00  0.75311854248E+03  0.75311854248E+03  0.00000000000E+00 0.  1.
         21   -1    0    0  501  503 -0.00000000000E+00 -0.00000000000E+00 -0.12046234661E+04  0.12046234661E+04  0.00000000000E+00 0.  1.
    9000010    2    1    2  501    0 -0.23928707947E+03 -0.15652988261E+03 -0.44235216190E+03  0.10961329496E+04  0.96128668854E+03 0.  0.
   -9000010    2    1    2    0  502  0.23928707947E+03  0.15652988261E+03 -0.91527616959E+01  0.86160905894E+03  0.81272780613E+03 0.  0.
        -13    1    3    3    0    0 -0.23626554834E+03 -0.19777959747E+03 -0.73688512206E+03  0.79871013064E+03  0.10566000000E+00 0.  1.
          4    1    3    3  501    0 -0.30215311293E+01  0.41249714868E+02  0.29453296016E+03  0.29742281898E+03  0.00000000000E+00 0.  1.
         13    1    4    4    0    0  0.54422874176E+02 -0.31681835859E+03  0.10982191259E+03  0.33970072891E+03  0.10566000000E+00 0. -1.
         -4    1    4    4    0  502  0.18486420529E+03  0.47334824119E+03 -0.11897467428E+03  0.52190833003E+03  0.00000000000E+00 0. -1.
<mgrwt>
<rscale>  2 0.96553602E+03</rscale>
<asrwt>0</asrwt>
<pdfrwt beam="1">  1       21 0.11586439E+00 0.10029118E+04</pdfrwt>
<pdfrwt beam="2">  1       21 0.18532668E+00 0.10029118E+04</pdfrwt>
<totfact> 0.50512446E+01</totfact>
</mgrwt>
</event>
<event>
 8    1  0.7418332E-006  0.1023867E+04  0.7818608E-02  0.8756177E-01
         21   -1    0    0  501  502  0.00000000000E+00  0.00000000000E+00  0.19565558630E+04  0.19565558630E+04  0.00000000000E+00 0. -1.
         21   -1    0    0  502  503 -0.00000000000E+00 -0.00000000000E+00 -0.93501786998E+03  0.93501786998E+03  0.00000000000E+00 0. -1.
    9000010    2    1    2  501    0  0.13577426965E+03  0.32748452891E+01  0.14630422763E+04  0.17765719248E+04  0.99863392940E+03 0.  0.
   -9000010    2    1    2    0  503 -0.13577426965E+03 -0.32748452891E+01 -0.44150428323E+03  0.11150018082E+04  0.10148190101E+04 0.  0.
        -13    1    3    3    0    0  0.53493197830E+03  0.55828695844E+02  0.50664597065E+03  0.73889053007E+03  0.10566000000E+00 0.  1.
          4    1    3    3  501    0 -0.39915770865E+03 -0.52553850555E+02  0.95639630560E+03  0.10376813947E+04  0.00000000000E+00 0.  1.
         13    1    4    4    0    0 -0.35636404953E+03 -0.11437153259E+03 -0.67710993609E+03  0.77366275597E+03  0.10566000000E+00 0. -1.
         -4    1    4    4    0  503  0.22058977987E+03  0.11109668730E+03  0.23560565286E+03  0.34133905223E+03  0.00000000000E+00 0. -1.
<mgrwt>
<rscale>  2 0.10198330E+04</rscale>
<asrwt>0</asrwt>
<pdfrwt beam="1">  1       21 0.30100859E+00 0.10238667E+04</pdfrwt>
<pdfrwt beam="2">  1       21 0.14384890E+00 0.10238667E+04</pdfrwt>
<totfact> 0.37560967E+00</totfact>
</mgrwt>
</event>
<event>
 8    1  0.7418332E-006  0.1078191E+04  0.7818608E-02  0.8706134E-01
         21   -1    0    0  503  502  0.00000000000E+00  0.00000000000E+00  0.13818369876E+04  0.13818369876E+04  0.00000000000E+00 0. -1.
         21   -1    0    0  501  503 -0.00000000000E+00 -0.00000000000E+00 -0.88990061396E+03  0.88990061396E+03  0.00000000000E+00 0. -1.
    9000010    2    1    2  501    0 -0.20203859160E+03 -0.33030224011E+03 -0.36983803138E+02  0.10707993296E+04  0.99765938088E+03 0.  0.
   -9000010    2    1    2    0  502  0.20203859160E+03  0.33030224011E+03  0.52892017682E+03  0.12009382720E+04  0.10062688594E+04 0.  0.
        -13    1    3    3    0    0 -0.19618482712E+03 -0.14358690360E+03  0.47073283451E+03  0.52980666089E+03  0.10566000000E+00 0.  1.
          4    1    3    3  501    0 -0.58537644753E+01 -0.18671533651E+03 -0.50771663765E+03  0.54099266870E+03  0.00000000000E+00 0.  1.
         13    1    4    4    0    0  0.51010515419E+03  0.50418848436E+03  0.41829269638E+03  0.83029036313E+03  0.10566000000E+00 0. -1.
         -4    1    4    4    0  502 -0.30806656259E+03 -0.17388624425E+03  0.11062748044E+03  0.37064790888E+03  0.00000000000E+00 0. -1.
<mgrwt>
<rscale>  2 0.10761779E+04</rscale>
<asrwt>0</asrwt>
<pdfrwt beam="1">  1       21 0.21259031E+00 0.10781912E+04</pdfrwt>
<pdfrwt beam="2">  1       21 0.13690779E+00 0.10781912E+04</pdfrwt>
<totfact> 0.18880413E+01</totfact>
</mgrwt>
</event>
<event>
 8    1  0.7418332E-006  0.1045952E+04  0.7818608E-02  0.8737078E-01
         21   -1    0    0  501  502  0.00000000000E+00  0.00000000000E+00  0.72626173811E+03  0.72626173811E+03  0.00000000000E+00 0. -1.
         21   -1    0    0  502  503 -0.00000000000E+00 -0.00000000000E+00 -0.17330005032E+04  0.17330005032E+04  0.00000000000E+00 0. -1.
    9000010    2    1    2  501    0 -0.14881310984E+03  0.22527488582E+03 -0.27228083327E+02  0.10262732562E+04  0.98974810534E+03 0.  0.
   -9000010    2    1    2    0  503  0.14881310984E+03 -0.22527488582E+03 -0.97951068174E+03  0.14329889851E+04  0.10105058832E+04 0.  0.
        -13    1    3    3    0    0 -0.17882845383E+03 -0.35933343933E+03  0.12687917606E+03  0.42094948985E+03  0.10566000000E+00 0.  1.
          4    1    3    3  501    0  0.30015343994E+02  0.58460832515E+03 -0.15410725939E+03  0.60532376635E+03  0.00000000000E+00 0.  1.
         13    1    4    4    0    0  0.44655203328E+03 -0.33963205746E+03 -0.20834557079E+03  0.59847016711E+03  0.10566000000E+00 0. -1.
         -4    1    4    4    0  503 -0.29773892344E+03  0.11435717164E+03 -0.77116511095E+03  0.83451881799E+03  0.00000000000E+00 0. -1.
<mgrwt>
<rscale>  2 0.10409058E+04</rscale>
<asrwt>0</asrwt>
<pdfrwt beam="1">  1       21 0.11173258E+00 0.10459523E+04</pdfrwt>
<pdfrwt beam="2">  1       21 0.26661546E+00 0.10459523E+04</pdfrwt>
<totfact> 0.13528473E+01</totfact>
</mgrwt>
</event>
<event>
 8    1  0.7418332E-006  0.1143694E+04  0.7818608E-02  0.8664843E-01
         21   -1    0    0  503  502  0.00000000000E+00  0.00000000000E+00  0.80595677990E+03  0.80595677990E+03  0.00000000000E+00 0.  1.
         21   -1    0    0  501  503 -0.00000000000E+00 -0.00000000000E+00 -0.15855123608E+04  0.15855123608E+04  0.00000000000E+00 0.  1.
    9000010    2    1    2  501    0 -0.78842784812E+02  0.41558614818E+03 -0.61335062962E+03  0.12357615622E+04  0.98589026394E+03 0.  0.
   -9000010    2    1    2    0  502  0.78842784812E+02 -0.41558614818E+03 -0.16620495129E+03  0.11557075785E+04  0.10625948851E+04 0.  0.
        -13    1    3    3    0    0 -0.44867532279E+02  0.63929914353E+03 -0.66948700294E+02  0.64435908468E+03  0.10566000000E+00 0.  1.
          4    1    3    3  501    0 -0.33975252533E+02 -0.22371299535E+03 -0.54640192932E+03  0.59140247754E+03  0.00000000000E+00 0.  1.
         13    1    4    4    0    0  0.51538651613E+03 -0.49061510476E+01  0.51637006422E+02  0.51799007995E+03  0.10566000000E+00 0. -1.
         -4    1    4    4    0  502 -0.43654373132E+03 -0.41067999713E+03 -0.21784195771E+03  0.63771749853E+03  0.00000000000E+00 0. -1.
<mgrwt>
<rscale>  2 0.11255439E+04</rscale>
<asrwt>0</asrwt>
<pdfrwt beam="1">  1       21 0.12399335E+00 0.11436940E+04</pdfrwt>
<pdfrwt beam="2">  1       21 0.24392498E+00 0.11436940E+04</pdfrwt>
<totfact> 0.14477632E+01</totfact>
</mgrwt>
</event>
<event>
 8    1  0.7418332E-006  0.1117253E+04  0.7818608E-02  0.8671956E-01
         21   -1    0    0  501  502  0.00000000000E+00  0.00000000000E+00  0.11968360717E+04  0.11968360717E+04  0.00000000000E+00 0.  1.
         21   -1    0    0  502  503 -0.00000000000E+00 -0.00000000000E+00 -0.11267538176E+04  0.11267538176E+04  0.00000000000E+00 0.  1.
    9000010    2    1    2  501    0  0.49967758821E+03  0.45314490639E+02  0.35469742074E+03  0.11706544633E+04  0.99643891784E+03 0.  0.
   -9000010    2    1    2    0  503 -0.49967758821E+03 -0.45314490639E+02 -0.28461516667E+03  0.11529354260E+04  0.99826009049E+03 0.  0.
        -13    1    3    3    0    0  0.56144823900E+03 -0.13649998755E+03 -0.17784248174E+03  0.60455300111E+03  0.10566000000E+00 0.  1.
          4    1    3    3  501    0 -0.61770650794E+02  0.18181447818E+03  0.53253990248E+03  0.56610146221E+03  0.00000000000E+00 0.  1.
         13    1    4    4    0    0 -0.76704633126E+03  0.14895069902E+03 -0.14773211231E+03  0.79521768919E+03  0.10566000000E+00 0. -1.
         -4    1    4    4    0  503  0.26736874305E+03 -0.19426518966E+03 -0.13688305435E+03  0.35771773683E+03  0.00000000000E+00 0. -1.
<mgrwt>
<rscale>  2 0.11168461E+04</rscale>
<asrwt>0</asrwt>
<pdfrwt beam="1">  1       21 0.18412863E+00 0.11172530E+04</pdfrwt>
<pdfrwt beam="2">  1       21 0.17334674E+00 0.11172530E+04</pdfrwt>
<totfact> 0.14963857E+01</totfact>
</mgrwt>
</event>
<event>
 8    1  0.7418332E-006  0.1006001E+04  0.7818608E-02  0.8770317E-01
         21   -1    0    0  501  502  0.00000000000E+00  0.00000000000E+00  0.11828954246E+04  0.11828954246E+04  0.00000000000E+00 0.  1.
         21   -1    0    0  502  503 -0.00000000000E+00 -0.00000000000E+00 -0.87019329940E+03  0.87019329940E+03  0.00000000000E+00 0.  1.
    9000010    2    1    2  501    0 -0.87812342216E+02 -0.31028010574E+01  0.31050166830E+03  0.10528292762E+04  0.10021564569E+04 0.  0.
   -9000010    2    1    2    0  503  0.87812342216E+02  0.31028010574E+01  0.22004568739E+01  0.10002594477E+04  0.99639022775E+03 0.  0.
        -13    1    3    3    0    0 -0.37704800921E+03  0.37329686542E+03  0.14389176498E+03  0.54974594330E+03  0.10566000000E+00 0.  1.
          4    1    3    3  501    0  0.28923566700E+03 -0.37639966647E+03  0.16660990332E+03  0.50308333293E+03  0.00000000000E+00 0.  1.
         13    1    4    4    0    0 -0.15865281903E+03 -0.14907638245E+03 -0.42883926083E+03  0.48093409900E+03  0.10566000000E+00 0. -1.
         -4    1    4    4    0  503  0.24646516125E+03  0.15217918351E+03  0.43103971770E+03  0.51932534874E+03  0.00000000000E+00 0. -1.
<mgrwt>
<rscale>  2 0.10045620E+04</rscale>
<asrwt>0</asrwt>
<pdfrwt beam="1">  1       21 0.18198391E+00 0.10060011E+04</pdfrwt>
<pdfrwt beam="2">  1       21 0.13387589E+00 0.10060011E+04</pdfrwt>
<totfact> 0.35656014E+01</totfact>
</mgrwt>
</event>
<event>
 8    1  0.7418332E-006  0.1025783E+04  0.7818608E-02  0.8760367E-01
         21   -1    0    0  501  502  0.00000000000E+00  0.00000000000E+00  0.76752113765E+03  0.76752113765E+03  0.00000000000E+00 0. -1.
         21   -1    0    0  502  503 -0.00000000000E+00 -0.00000000000E+00 -0.14771814443E+04  0.14771814443E+04  0.00000000000E+00 0. -1.
    9000010    2    1    2  501    0  0.19086616569E+03 -0.15497655227E+03  0.22109096841E+02  0.98465632024E+03  0.95321122101E+03 0.  0.
   -9000010    2    1    2    0  503 -0.19086616569E+03  0.15497655227E+03 -0.73176940355E+03  0.12600462618E+04  0.99588277264E+03 0.  0.
        -13    1    3    3    0    0  0.31526357040E+03  0.67124927044E+02 -0.38648015107E+03  0.50325320961E+03  0.10566000000E+00 0.  1.
          4    1    3    3  501    0 -0.12439740470E+03 -0.22210147931E+03  0.40858924791E+03  0.48140311062E+03  0.00000000000E+00 0.  1.
         13    1    4    4    0    0  0.10496100643E+03  0.12822145387E+03  0.21289635800E+03  0.26978217976E+03  0.10566000000E+00 0. -1.
         -4    1    4    4    0  503 -0.29582717212E+03  0.26755098402E+02 -0.94466576155E+03  0.99026408200E+03  0.00000000000E+00 0. -1.
<mgrwt>
<rscale>  2 0.10152788E+04</rscale>
<asrwt>0</asrwt>
<pdfrwt beam="1">  1       21 0.11808018E+00 0.10257827E+04</pdfrwt>
<pdfrwt beam="2">  1       21 0.22725868E+00 0.10257827E+04</pdfrwt>
<totfact> 0.22623968E+01</totfact>
</mgrwt>
</event>
<event>
 8    1  0.7418332E-006  0.1196956E+04  0.7818608E-02  0.8615911E-01
         21   -1    0    0  501  502  0.00000000000E+00  0.00000000000E+00  0.24329445018E+04  0.24329445018E+04  0.00000000000E+00 0. -1.
         21   -1    0    0  502  503 -0.00000000000E+00 -0.00000000000E+00 -0.11363914434E+04  0.11363914434E+04  0.00000000000E+00 0.  1.
    9000010    2    1    2  501    0 -0.22867171519E+03  0.62516548654E+03  0.19121771870E+04  0.22559087808E+04  0.99477645440E+03 0.  0.
   -9000010    2    1    2    0  503  0.22867171519E+03 -0.62516548654E+03 -0.61562412851E+03  0.13134271644E+04  0.95025007738E+03 0.  0.
        -13    1    3    3    0    0  0.21962281163E+03  0.37942144515E+03  0.15952877144E+04  0.16544297251E+04  0.10566000000E+00 0.  1.
          4    1    3    3  501    0 -0.44829452682E+03  0.24574404140E+03  0.31688947254E+03  0.60147905572E+03  0.00000000000E+00 0.  1.
         13    1    4    4    0    0  0.11301428524E+03 -0.46171681874E+03 -0.86898344327E+03  0.99049830147E+03  0.10566000000E+00 0. -1.
         -4    1    4    4    0  503  0.11565742994E+03 -0.16344866781E+03  0.25335931476E+03  0.32292886288E+03  0.00000000000E+00 0. -1.
<mgrwt>
<rscale>  2 0.11876627E+04</rscale>
<asrwt>0</asrwt>
<pdfrwt beam="1">  1       21 0.37429915E+00 0.11969557E+04</pdfrwt>
<pdfrwt beam="2">  1       21 0.17482945E+00 0.11969557E+04</pdfrwt>
<totfact> 0.59289960E-01</totfact>
</mgrwt>
</event>
<event>
 8    1  0.7418332E-006  0.1005473E+04  0.7818608E-02  0.8769931E-01
         21   -1    0    0  503  502  0.00000000000E+00  0.00000000000E+00  0.17964596299E+04  0.17964596299E+04  0.00000000000E+00 0. -1.
         21   -1    0    0  501  503 -0.00000000000E+00 -0.00000000000E+00 -0.13750729451E+04  0.13750729451E+04  0.00000000000E+00 0. -1.
    9000010    2    1    2  501    0 -0.11824855107E+02 -0.11663078186E+03 -0.10088710046E+04  0.14243582340E+04  0.99861559590E+03 0.  0.
   -9000010    2    1    2    0  502  0.11824855107E+02  0.11663078186E+03  0.14302576894E+04  0.17471743411E+04  0.99661354266E+03 0.  0.
        -13    1    3    3    0    0  0.16432458357E+03 -0.50920385350E+03 -0.35679641000E+03  0.64311338233E+03  0.10566000000E+00 0.  1.
          4    1    3    3  501    0 -0.17614943868E+03  0.39257307165E+03 -0.65207459461E+03  0.78124485167E+03  0.00000000000E+00 0.  1.
         13    1    4    4    0    0  0.49951386922E+03  0.87066084294E+02  0.83725513641E+03  0.97882111910E+03  0.10566000000E+00 0. -1.
         -4    1    4    4    0  502 -0.48768901411E+03  0.29564697564E+02  0.59300255302E+03  0.76835322197E+03  0.00000000000E+00 0. -1.
<mgrwt>
<rscale>  2 0.10049754E+04</rscale>
<asrwt>0</asrwt>
<pdfrwt beam="1">  1       21 0.27637840E+00 0.10054729E+04</pdfrwt>
<pdfrwt beam="2">  1       21 0.21154968E+00 0.10054729E+04</pdfrwt>
<totfact> 0.15571982E+00</totfact>
</mgrwt>
</event>
<event>
 8    1  0.1640071E-005  0.1019218E+04  0.7818608E-02  0.8801120E-01
         21   -1    0    0  501  502  0.00000000000E+00  0.00000000000E+00  0.92128208340E+03  0.92128208340E+03  0.00000000000E+00 0. -1.
         21   -1    0    0  502  503 -0.00000000000E+00 -0.00000000000E+00 -0.94516738514E+03  0.94516738514E+03  0.00000000000E+00 0. -1.
    9000010    2    1    2  501    0  0.18356376868E+03 -0.11209942007E+03 -0.67245673718E+02  0.10214338517E+04  0.99626462132E+03 0.  0.
   -9000010    2    1    2    0  503 -0.18356376868E+03  0.11209942007E+03  0.43360371977E+02  0.84501561680E+03  0.81603267927E+03 0.  0.
        -13    1    3    3    0    0  0.23119032097E+03 -0.81204348796E+02  0.44395593345E+03  0.50708972853E+03  0.10566000000E+00 0.  1.
          4    1    3    3  501    0 -0.47626552293E+02 -0.30895071278E+02 -0.51120160717E+03  0.51434412321E+03  0.00000000000E+00 0.  1.
         13    1    4    4    0    0 -0.30302618981E+03  0.32909135422E+03 -0.20691304320E+03  0.49288843539E+03  0.10566000000E+00 0. -1.
         -4    1    4    4    0  503  0.11946242113E+03 -0.21699193414E+03  0.25027341517E+03  0.35212718141E+03  0.00000000000E+00 0. -1.
<mgrwt>
<rscale>  2 0.97223967E+03</rscale>
<asrwt>0</asrwt>
<pdfrwt beam="1">  1       21 0.14173570E+00 0.10192179E+04</pdfrwt>
<pdfrwt beam="2">  1       21 0.14541037E+00 0.10192179E+04</pdfrwt>
<totfact> 0.61684547E+01</totfact>
</mgrwt>
</event>
<event>
 8    1  0.7418332E-006  0.1020878E+04  0.7818608E-02  0.8757906E-01
         21   -1    0    0  501  502  0.00000000000E+00  0.00000000000E+00  0.87194037314E+03  0.87194037314E+03  0.00000000000E+00 0.  1.
         21   -1    0    0  502  503 -0.00000000000E+00 -0.00000000000E+00 -0.12018806003E+04  0.12018806003E+04  0.00000000000E+00 0.  1.
    9000010    2    1    2  501    0  0.73470929037E+02 -0.21937818303E+03 -0.29493174885E+02  0.10096499316E+04  0.98234330682E+03 0.  0.
   -9000010    2    1    2    0  503 -0.73470929037E+02  0.21937818303E+03 -0.30044705230E+03  0.10641710418E+04  0.99431725845E+03 0.  0.
        -13    1    3    3    0    0  0.37214486893E+03  0.25116067874E+03  0.25004747187E+02  0.44966514047E+03  0.10566000000E+00 0.  1.
          4    1    3    3  501    0 -0.29867393989E+03 -0.47053886177E+03 -0.54497922072E+02  0.55998479114E+03  0.00000000000E+00 0.  1.
         13    1    4    4    0    0 -0.72205724327E+02  0.23131137312E+03  0.34335814148E+03  0.42025402133E+03  0.10566000000E+00 0. -1.
         -4    1    4    4    0  503 -0.12652047098E+01 -0.11933190088E+02 -0.64380519378E+03  0.64391702051E+03  0.00000000000E+00 0. -1.
<mgrwt>
<rscale>  2 0.10179506E+04</rscale>
<asrwt>0</asrwt>
<pdfrwt beam="1">  1       21 0.13414467E+00 0.10208778E+04</pdfrwt>
<pdfrwt beam="2">  1       21 0.18490471E+00 0.10208778E+04</pdfrwt>
<totfact> 0.33456634E+01</totfact>
</mgrwt>
</event>
<event>
 8    1  0.7418332E-006  0.1009885E+04  0.7818608E-02  0.8772126E-01
         21   -1    0    0  501  502  0.00000000000E+00  0.00000000000E+00  0.99734190561E+03  0.99734190561E+03  0.00000000000E+00 0.  1.
         21   -1    0    0  502  503 -0.00000000000E+00 -0.00000000000E+00 -0.10443464144E+04  0.10443464144E+04  0.00000000000E+00 0.  1.
    9000010    2    1    2  501    0  0.54050303219E+02  0.83901143207E+02  0.20092028067E+03  0.10296776547E+04  0.10049409317E+04 0.  0.
   -9000010    2    1    2    0  503 -0.54050303219E+02 -0.83901143207E+02 -0.24792478941E+03  0.10120106653E+04  0.97608301304E+03 0.  0.
        -13    1    3    3    0    0 -0.42622771707E+03  0.15047165498E+03  0.28951829202E+03  0.53677987884E+03  0.10566000000E+00 0.  1.
          4    1    3    3  501    0  0.48027802029E+03 -0.66570511769E+02 -0.88598011350E+02  0.49289777583E+03  0.00000000000E+00 0.  1.
         13    1    4    4    0    0  0.29807182135E+03  0.26524230156E+03  0.93694235131E+02  0.40985230276E+03  0.10566000000E+00 0. -1.
         -4    1    4    4    0  503 -0.35212212457E+03 -0.34914344477E+03 -0.34161902454E+03  0.60215836253E+03  0.00000000000E+00 0. -1.
<mgrwt>
<rscale>  2 0.10026288E+04</rscale>
<asrwt>0</asrwt>
<pdfrwt beam="1">  1       21 0.15343722E+00 0.10098847E+04</pdfrwt>
<pdfrwt beam="2">  1       21 0.16066868E+00 0.10098847E+04</pdfrwt>
<totfact> 0.35577203E+01</totfact>
</mgrwt>
</event>
<event>
 8    1  0.7418332E-006  0.1179675E+04  0.7818608E-02  0.8656292E-01
         21   -1    0    0  501  502  0.00000000000E+00  0.00000000000E+00  0.17537204675E+04  0.17537204675E+04  0.00000000000E+00 0.  1.
         21   -1    0    0  502  503 -0.00000000000E+00 -0.00000000000E+00 -0.79335545060E+03  0.79335545060E+03  0.00000000000E+00 0.  1.
    9000010    2    1    2  501    0  0.14061294781E+03 -0.94473795589E+02  0.91517482098E+03  0.13665357395E+04  0.10005886644E+04 0.  0.
   -9000010    2    1    2    0  503 -0.14061294781E+03  0.94473795589E+02  0.45190195925E+02  0.11805401786E+04  0.11674483544E+04 0.  0.
        -13    1    3    3    0    0 -0.32148009501E+03  0.92080122175E+02  0.78232785239E+03  0.85080260941E+03  0.10566000000E+00 0.  1.
          4    1    3    3  501    0  0.46209304282E+03 -0.18655391776E+03  0.13284696859E+03  0.51573313014E+03  0.00000000000E+00 0.  1.
         13    1    4    4    0    0 -0.63688035697E+03 -0.52697181387E+02  0.14022061015E+03  0.65425943837E+03  0.10566000000E+00 0. -1.
         -4    1    4    4    0  503  0.49626740916E+03  0.14717097698E+03 -0.95030414222E+02  0.52628074018E+03  0.00000000000E+00 0. -1.
<mgrwt>
<rscale>  2 0.11361085E+04</rscale>
<asrwt>0</asrwt>
<pdfrwt beam="1">  1       21 0.26980315E+00 0.11796749E+04</pdfrwt>
<pdfrwt beam="2">  1       21 0.12205469E+00 0.11796749E+04</pdfrwt>
<totfact> 0.97585481E+00</totfact>
</mgrwt>
</event>
<event>
 8    1  0.7418332E-006  0.1036140E+04  0.7818608E-02  0.8744661E-01
         21   -1    0    0  503  502  0.00000000000E+00  0.00000000000E+00  0.17706637998E+04  0.17706637998E+04  0.00000000000E+00 0.  1.
         21   -1    0    0  501  503 -0.00000000000E+00 -0.00000000000E+00 -0.92646000910E+03  0.92646000910E+03  0.00000000000E+00 0.  1.
    9000010    2    1    2  501    0  0.18729926381E+03  0.13185190945E+03 -0.38300375773E+03  0.10910028439E+04  0.99555481352E+03 0.  0.
   -9000010    2    1    2    0  502 -0.18729926381E+03 -0.13185190945E+03  0.12272075484E+04  0.16061209650E+04  0.10105049466E+04 0.  0.
        -13    1    3    3    0    0  0.15467953308E+03  0.56777781778E+02 -0.72287374942E+03  0.74141482533E+03  0.10566000000E+00 0.  1.
          4    1    3    3  501    0  0.32619730730E+02  0.75074127674E+02  0.33986999169E+03  0.34958801857E+03  0.00000000000E+00 0.  1.
         13    1    4    4    0    0  0.15020395127E+03  0.27879564249E+03  0.96061433916E+03  0.10114683174E+04  0.10566000000E+00 0. -1.
         -4    1    4    4    0  502 -0.33750321508E+03 -0.41064755194E+03  0.26659320923E+03  0.59465264761E+03  0.00000000000E+00 0. -1.
<mgrwt>
<rscale>  2 0.10324769E+04</rscale>
<asrwt>0</asrwt>
<pdfrwt beam="1">  1       21 0.27240982E+00 0.10361400E+04</pdfrwt>
<pdfrwt beam="2">  1       21 0.14253231E+00 0.10361400E+04</pdfrwt>
<totfact> 0.61457674E+00</totfact>
</mgrwt>
</event>
<event>
 8    1  0.7418332E-006  0.1165242E+04  0.7818608E-02  0.8634136E-01
         21   -1    0    0  501  502  0.00000000000E+00  0.00000000000E+00  0.11653634839E+04  0.11653634839E+04  0.00000000000E+00 0.  1.
         21   -1    0    0  502  503 -0.00000000000E+00 -0.00000000000E+00 -0.12439712503E+04  0.12439712503E+04  0.00000000000E+00 0.  1.
    9000010    2    1    2  501    0 -0.47238091902E+02 -0.57965198767E+03  0.27292100338E+03  0.11967768655E+04  0.10097331962E+04 0.  0.
   -9000010    2    1    2    0  503  0.47238091902E+02  0.57965198767E+03 -0.35152876977E+03  0.12125578688E+04  0.10042391374E+04 0.  0.
        -13    1    3    3    0    0 -0.37355114223E+03 -0.71879137358E+03  0.17462619465E+03  0.82867111306E+03  0.10566000000E+00 0.  1.
          4    1    3    3  501    0  0.32631305033E+03  0.13913938592E+03  0.98294808727E+02  0.36810575240E+03  0.00000000000E+00 0.  1.
         13    1    4    4    0    0  0.26461033533E+03 -0.90267113398E+02  0.17796517162E+03  0.33141876048E+03  0.10566000000E+00 0. -1.
         -4    1    4    4    0  503 -0.21737224342E+03  0.66991910106E+03 -0.52949394139E+03  0.88113910829E+03  0.00000000000E+00 0. -1.
<mgrwt>
<rscale>  2 0.11640508E+04</rscale>
<asrwt>0</asrwt>
<pdfrwt beam="1">  1       21 0.17928669E+00 0.11652420E+04</pdfrwt>
<pdfrwt beam="2">  1       21 0.19138019E+00 0.11652420E+04</pdfrwt>
<totfact> 0.11570750E+01</totfact>
</mgrwt>
</event>
<event>
 8    1  0.7418332E-006  0.1052586E+04  0.7818608E-02  0.8736175E-01
         21   -1    0    0  501  502  0.00000000000E+00  0.00000000000E+00  0.39570299039E+03  0.39570299039E+03  0.00000000000E+00 0. -1.
         21   -1    0    0  502  503 -0.00000000000E+00 -0.00000000000E+00 -0.28972828105E+04  0.28972828105E+04  0.00000000000E+00 0. -1.
    9000010    2    1    2  501    0  0.22457628115E+03 -0.25710954670E+03 -0.16682783730E+04  0.19504772222E+04  0.95114080944E+03 0.  0.
   -9000010    2    1    2    0  503 -0.22457628115E+03  0.25710954670E+03 -0.83330144714E+03  0.13425085787E+04  0.99568978959E+03 0.  0.
        -13    1    3    3    0    0  0.51123030453E+03 -0.43408176786E+03 -0.10378651379E+04  0.12356971559E+04  0.10566000000E+00 0.  1.
          4    1    3    3  501    0 -0.28665402338E+03  0.17697222116E+03 -0.63041323504E+03  0.71478006624E+03  0.00000000000E+00 0.  1.
         13    1    4    4    0    0 -0.30821305421E+03 -0.32488612585E+03 -0.24371461707E+03  0.50984616042E+03  0.10566000000E+00 0. -1.
         -4    1    4    4    0  503  0.83636773058E+02  0.58199567255E+03 -0.58958683007E+03  0.83266241831E+03  0.00000000000E+00 0. -1.
<mgrwt>
<rscale>  2 0.10419158E+04</rscale>
<asrwt>0</asrwt>
<pdfrwt beam="1">  1       21 0.60877380E-01 0.10525863E+04</pdfrwt>
<pdfrwt beam="2">  1       21 0.44573584E+00 0.10525863E+04</pdfrwt>
<totfact> 0.33971634E+00</totfact>
</mgrwt>
</event>
<event>
 8    1  0.7418332E-006  0.1067951E+04  0.7818608E-02  0.8721274E-01
         21   -1    0    0  501  502  0.00000000000E+00  0.00000000000E+00  0.59573194627E+03  0.59573194627E+03  0.00000000000E+00 0. -1.
         21   -1    0    0  502  503 -0.00000000000E+00 -0.00000000000E+00 -0.32992348393E+04  0.32992348393E+04  0.00000000000E+00 0. -1.
    9000010    2    1    2  501    0  0.33055828109E+03  0.15624050696E+03 -0.74187221800E+02  0.10705249845E+04  0.10034142341E+04 0.  0.
   -9000010    2    1    2    0  503 -0.33055828109E+03 -0.15624050696E+03 -0.26293156712E+04  0.28244418011E+04  0.96461946673E+03 0.  0.
        -13    1    3    3    0    0  0.49044034432E+03 -0.30213478935E+03  0.18337962663E+02  0.57632755817E+03  0.10566000000E+00 0.  1.
          4    1    3    3  501    0 -0.15988206323E+03  0.45837529631E+03 -0.92525184462E+02  0.49419742631E+03  0.00000000000E+00 0.  1.
         13    1    4    4    0    0 -0.21037949845E+03 -0.12286477423E+03 -0.26790936707E+04  0.26901483591E+04  0.10566000000E+00 0. -1.
         -4    1    4    4    0  503 -0.12017878264E+03 -0.33375732736E+02  0.49777999512E+02  0.13429344201E+03  0.00000000000E+00 0. -1.
<mgrwt>
<rscale>  2 0.10587416E+04</rscale>
<asrwt>0</asrwt>
<pdfrwt beam="1">  1       21 0.91651067E-01 0.10679513E+04</pdfrwt>
<pdfrwt beam="2">  1       21 0.50757460E+00 0.10679513E+04</pdfrwt>
<totfact> 0.46709454E-01</totfact>
</mgrwt>
</event>
<event>
 8    1  0.7418332E-006  0.1192263E+04  0.7818608E-02  0.8644241E-01
         21   -1    0    0  503  502  0.00000000000E+00  0.00000000000E+00  0.41237239696E+03  0.41237239696E+03  0.00000000000E+00 0.  1.
         21   -1    0    0  501  503 -0.00000000000E+00 -0.00000000000E+00 -0.34497279536E+04  0.34497279536E+04  0.00000000000E+00 0.  1.
    9000010    2    1    2  501    0  0.10352605157E+03  0.26061885839E+03 -0.22986255606E+04  0.25894343412E+04  0.11588144402E+04 0.  0.
   -9000010    2    1    2    0  502 -0.10352605157E+03 -0.26061885839E+03 -0.73872999604E+03  0.12726660094E+04  0.99765571798E+03 0.  0.
        -13    1    3    3    0    0  0.13272063324E+03  0.53516215782E+03 -0.42654342594E+03  0.69710301034E+03  0.10566000000E+00 0.  1.
          4    1    3    3  501    0 -0.29194581671E+02 -0.27454329943E+03 -0.18720821347E+04  0.18923313309E+04  0.00000000000E+00 0.  1.
         13    1    4    4    0    0  0.23982298255E+03 -0.94451086025E+02 -0.83946445600E+03  0.87814386901E+03  0.10566000000E+00 0. -1.
         -4    1    4    4    0  502 -0.34334903412E+03 -0.16616777237E+03  0.10073445996E+03  0.39452214035E+03  0.00000000000E+00 0. -1.
<mgrwt>
<rscale>  2 0.11512042E+04</rscale>
<asrwt>0</asrwt>
<pdfrwt beam="1">  1       21 0.63441907E-01 0.11922629E+04</pdfrwt>
<pdfrwt beam="2">  1       21 0.53072738E+00 0.11922629E+04</pdfrwt>
<totfact> 0.76493353E-01</totfact>
</mgrwt>
</event>
<event>
 8    1  0.7418332E-006  0.1060926E+04  0.7818608E-02  0.8719751E-01
         21   -1    0    0  503  502  0.00000000000E+00  0.00000000000E+00  0.19753017785E+04  0.19753017785E+04  0.00000000000E+00 0. -1.
         21   -1    0    0  501  503 -0.00000000000E+00 -0.00000000000E+00 -0.70368180612E+03  0.70368180612E+03  0.00000000000E+00 0. -1.
    9000010    2    1    2  501    0 -0.33119563609E+03 -0.16014160598E+03  0.12216916644E+04  0.16168837103E+04  0.99320014413E+03 0.  0.
   -9000010    2    1    2    0  502  0.33119563609E+03  0.16014160598E+03  0.49928307919E+02  0.10620998743E+04  0.99510171528E+03 0.  0.
        -13    1    3    3    0    0 -0.29180734958E+03  0.24370488203E+03  0.11416646426E+04  0.12033045193E+04  0.10566000000E+00 0.  1.
          4    1    3    3  501    0 -0.39388286511E+02 -0.40384648801E+03  0.80027021808E+02  0.41357919098E+03  0.00000000000E+00 0.  1.
         13    1    4    4    0    0  0.20929506412E+02  0.29815005125E+03 -0.39942358885E+03  0.49886943362E+03  0.10566000000E+00 0. -1.
         -4    1    4    4    0  502  0.31026612968E+03 -0.13800844527E+03  0.44935189677E+03  0.56323044070E+03  0.00000000000E+00 0. -1.
<mgrwt>
<rscale>  2 0.10604796E+04</rscale>
<asrwt>0</asrwt>
<pdfrwt beam="1">  1       21 0.30389258E+00 0.10609257E+04</pdfrwt>
<pdfrwt beam="2">  1       21 0.10825874E+00 0.10609257E+04</pdfrwt>
<totfact> 0.79754981E+00</totfact>
</mgrwt>
</event>
<event>
 8    1  0.7418332E-006  0.1011531E+04  0.7818608E-02  0.8764274E-01
         21   -1    0    0  503  502  0.00000000000E+00  0.00000000000E+00  0.14379667333E+04  0.14379667333E+04  0.00000000000E+00 0. -1.
         21   -1    0    0  501  503 -0.00000000000E+00 -0.00000000000E+00 -0.99319801113E+03  0.99319801113E+03  0.00000000000E+00 0. -1.
    9000010    2    1    2  501    0  0.16504056797E+03 -0.68190313376E+02 -0.42631798390E+03  0.10976985040E+04  0.99564384913E+03 0.  0.
   -9000010    2    1    2    0  502 -0.16504056797E+03  0.68190313376E+02  0.87108670606E+03  0.13334662405E+04  0.99370612207E+03 0.  0.
        -13    1    3    3    0    0  0.17837990326E+03 -0.20288683573E+03  0.27378523280E+03  0.38463076172E+03  0.10566000000E+00 0.  1.
          4    1    3    3  501    0 -0.13339335292E+02  0.13469652235E+03 -0.70010321670E+03  0.71306774225E+03  0.00000000000E+00 0.  1.
         13    1    4    4    0    0 -0.15488615357E+03  0.38271200059E+03  0.59866115787E+01  0.41290924747E+03  0.10566000000E+00 0. -1.
         -4    1    4    4    0  502 -0.10154414397E+02 -0.31452168721E+03  0.86510009448E+03  0.92055699299E+03  0.00000000000E+00 0. -1.
<mgrwt>
<rscale>  2 0.10110539E+04</rscale>
<asrwt>0</asrwt>
<pdfrwt beam="1">  1       21 0.22122565E+00 0.10115310E+04</pdfrwt>
<pdfrwt beam="2">  1       21 0.15279969E+00 0.10115310E+04</pdfrwt>
<totfact> 0.11828093E+01</totfact>
</mgrwt>
</event>
<event>
 8    1  0.7418332E-006  0.1023905E+04  0.7818608E-02  0.8757996E-01
         21   -1    0    0  501  502  0.00000000000E+00  0.00000000000E+00  0.59618592903E+03  0.59618592903E+03  0.00000000000E+00 0.  1.
         21   -1    0    0  502  503 -0.00000000000E+00 -0.00000000000E+00 -0.18721475071E+04  0.18721475071E+04  0.00000000000E+00 0.  1.
    9000010    2    1    2  501    0 -0.70038434154E+02  0.71078881566E+02 -0.98571559827E+03  0.14040855394E+04  0.99491877644E+03 0.  0.
   -9000010    2    1    2    0  503  0.70038434154E+02 -0.71078881566E+02 -0.29024597978E+03  0.10642478967E+04  0.10190305526E+04 0.  0.
        -13    1    3    3    0    0  0.22268446595E+03  0.26194552999E+03 -0.99683247755E+03  0.10544566523E+04  0.10566000000E+00 0.  1.
          4    1    3    3  501    0 -0.29272290011E+03 -0.19086664843E+03  0.11116879286E+02  0.34962888716E+03  0.00000000000E+00 0.  1.
         13    1    4    4    0    0  0.27855186468E+03  0.15400324793E+03  0.27530201611E+03  0.42083173945E+03  0.10566000000E+00 0. -1.
         -4    1    4    4    0  503 -0.20851343052E+03 -0.22508212950E+03 -0.56554799589E+03  0.64341615723E+03  0.00000000000E+00 0. -1.
<mgrwt>
<rscale>  2 0.10178527E+04</rscale>
<asrwt>0</asrwt>
<pdfrwt beam="1">  1       21 0.91720911E-01 0.10239047E+04</pdfrwt>
<pdfrwt beam="2">  1       21 0.28802270E+00 0.10239047E+04</pdfrwt>
<totfact> 0.16067057E+01</totfact>
</mgrwt>
</event>
<event>
 8    1  0.7418332E-006  0.1049167E+04  0.7818608E-02  0.8732184E-01
         21   -1    0    0  503  502  0.00000000000E+00  0.00000000000E+00  0.86185338719E+03  0.86185338719E+03  0.00000000000E+00 0. -1.
         21   -1    0    0  501  503 -0.00000000000E+00 -0.00000000000E+00 -0.14107333410E+04  0.14107333410E+04  0.00000000000E+00 0. -1.
    9000010    2    1    2  501    0  0.29812125746E+03 -0.33759460670E+02  0.91020394799E+02  0.10531077348E+04  0.10053532730E+04 0.  0.
   -9000010    2    1    2    0  502 -0.29812125746E+03  0.33759460670E+02 -0.63990034857E+03  0.12194789933E+04  0.99380107350E+03 0.  0.
        -13    1    3    3    0    0  0.19914096959E+03  0.45522765357E+03 -0.12039445376E+03  0.51125744788E+03  0.10566000000E+00 0.  1.
          4    1    3    3  501    0  0.98980287868E+02 -0.48898711424E+03  0.21141484856E+03  0.54185028696E+03  0.00000000000E+00 0.  1.
         13    1    4    4    0    0  0.21174634016E+03  0.34828466663E+03 -0.11638549673E+03  0.42389186899E+03  0.10566000000E+00 0. -1.
         -4    1    4    4    0  502 -0.50986759762E+03 -0.31452520596E+03 -0.52351485185E+03  0.79558712433E+03  0.00000000000E+00 0. -1.
<mgrwt>
<rscale>  2 0.10463898E+04</rscale>
<asrwt>0</asrwt>
<pdfrwt beam="1">  1       21 0.13259283E+00 0.10491669E+04</pdfrwt>
<pdfrwt beam="2">  1       21 0.21703590E+00 0.10491669E+04</pdfrwt>
<totfact> 0.19315499E+01</totfact>
</mgrwt>
</event>
<event>
 8    1  0.7418332E-006  0.1028952E+04  0.7818608E-02  0.8754696E-01
         21   -1    0    0  501  502  0.00000000000E+00  0.00000000000E+00  0.21384741881E+04  0.21384741881E+04  0.00000000000E+00 0.  1.
         21   -1    0    0  502  503 -0.00000000000E+00 -0.00000000000E+00 -0.50007293830E+03  0.50007293830E+03  0.00000000000E+00 0.  1.
    9000010    2    1    2  501    0 -0.30733150636E+02  0.21991631284E+03  0.10658903405E+04  0.14610454697E+04  0.97428124043E+03 0.  0.
   -9000010    2    1    2    0  503  0.30733150636E+02 -0.21991631284E+03  0.57251090928E+03  0.11775016566E+04  0.10047057773E+04 0.  0.
        -13    1    3    3    0    0 -0.13421134546E+03 -0.33458677116E+03  0.16117979606E+03  0.39489230241E+03  0.10566000000E+00 0.  1.
          4    1    3    3  501    0  0.10347819482E+03  0.55450308399E+03  0.90471054443E+03  0.10661531673E+04  0.00000000000E+00 0.  1.
         13    1    4    4    0    0  0.35777608082E+03  0.26317705467E+03  0.27822911037E+03  0.52409668491E+03  0.10566000000E+00 0. -1.
         -4    1    4    4    0  503 -0.32704293019E+03 -0.48309336750E+03  0.29428179891E+03  0.65340497173E+03  0.00000000000E+00 0. -1.
<mgrwt>
<rscale>  2 0.10214484E+04</rscale>
<asrwt>0</asrwt>
<pdfrwt beam="1">  1       21 0.32899602E+00 0.10289516E+04</pdfrwt>
<pdfrwt beam="2">  1       21 0.76934299E-01 0.10289516E+04</pdfrwt>
<totfact> 0.12801226E+01</totfact>
</mgrwt>
</event>
<event>
 8    1  0.7418332E-006  0.1006124E+04  0.7818608E-02  0.8769250E-01
         21   -1    0    0  503  502  0.00000000000E+00  0.00000000000E+00  0.58947476411E+03  0.58947476411E+03  0.00000000000E+00 0.  1.
         21   -1    0    0  501  503 -0.00000000000E+00 -0.00000000000E+00 -0.17990224963E+04  0.17990224963E+04  0.00000000000E+00 0.  1.
    9000010    2    1    2  501    0  0.68260193483E+02 -0.43869377188E+02 -0.86329015077E+03  0.13244580939E+04  0.10011670100E+04 0.  0.
   -9000010    2    1    2    0  502 -0.68260193483E+02  0.43869377188E+02 -0.34625758144E+03  0.10640391665E+04  0.10028464782E+04 0.  0.
        -13    1    3    3    0    0  0.31954482196E+03 -0.34513578330E+03 -0.12224405869E+03  0.48597450880E+03  0.10566000000E+00 0.  1.
          4    1    3    3  501    0 -0.25128462848E+03  0.30126640611E+03 -0.74104609209E+03  0.83848358514E+03  0.00000000000E+00 0.  1.
         13    1    4    4    0    0 -0.45289098765E+03  0.20076060583E+03  0.39740344510E+02  0.49698528519E+03  0.10566000000E+00 0. -1.
         -4    1    4    4    0  502  0.38463079417E+03 -0.15689122865E+03 -0.38599792595E+03  0.56705388129E+03  0.00000000000E+00 0. -1.
<mgrwt>
<rscale>  2 0.10057050E+04</rscale>
<asrwt>0</asrwt>
<pdfrwt beam="1">  1       21 0.90688426E-01 0.10061238E+04</pdfrwt>
<pdfrwt beam="2">  1       21 0.27677269E+00 0.10061238E+04</pdfrwt>
<totfact> 0.19965494E+01</totfact>
</mgrwt>
</event>
<event>
 8    1  0.7418332E-006  0.1039687E+04  0.7818608E-02  0.8743341E-01
         21   -1    0    0  501  502  0.00000000000E+00  0.00000000000E+00  0.23226648744E+04  0.23226648744E+04  0.00000000000E+00 0.  1.
         21   -1    0    0  502  503 -0.00000000000E+00 -0.00000000000E+00 -0.48339415263E+03  0.48339415263E+03  0.00000000000E+00 0.  1.
    9000010    2    1    2  501    0 -0.22435957347E+03 -0.13076123448E+03  0.12486154267E+04  0.16103067841E+04  0.98316414518E+03 0.  0.
   -9000010    2    1    2    0  503  0.22435957347E+03  0.13076123448E+03  0.59065529506E+03  0.11957522430E+04  0.10067343395E+04 0.  0.
        -13    1    3    3    0    0  0.28143185488E+03 -0.33591886868E+03  0.35857386656E+03  0.56623370106E+03  0.10566000000E+00 0.  1.
          4    1    3    3  501    0 -0.50579142835E+03  0.20515763420E+03  0.89004156018E+03  0.10440730830E+04  0.00000000000E+00 0.  1.
         13    1    4    4    0    0  0.26675571311E+03  0.51852558082E+03  0.55337854817E+03  0.80390000447E+03  0.10566000000E+00 0. -1.
         -4    1    4    4    0  503 -0.42396139638E+02 -0.38776434634E+03  0.37276746891E+02  0.39185223849E+03  0.00000000000E+00 0. -1.
<mgrwt>
<rscale>  2 0.10339383E+04</rscale>
<asrwt>0</asrwt>
<pdfrwt beam="1">  1       21 0.35733305E+00 0.10396873E+04</pdfrwt>
<pdfrwt beam="2">  1       21 0.74368332E-01 0.10396873E+04</pdfrwt>
<totfact> 0.87663818E+00</totfact>
</mgrwt>
</event>
<event>
 8    1  0.7418332E-006  0.1035895E+04  0.7818608E-02  0.8744764E-01
         21   -1    0    0  501  502  0.00000000000E+00  0.00000000000E+00  0.12143035194E+04  0.12143035194E+04  0.00000000000E+00 0. -1.
         21   -1    0    0  502  503 -0.00000000000E+00 -0.00000000000E+00 -0.12356105392E+04  0.12356105392E+04  0.00000000000E+00 0. -1.
    9000010    2    1    2  501    0 -0.19126978824E+03 -0.17060789672E+03  0.65412250129E+03  0.12132717898E+04  0.98917187732E+03 0.  0.
   -9000010    2    1    2    0  503  0.19126978824E+03  0.17060789672E+03 -0.67542952116E+03  0.12366422688E+04  0.10036871408E+04 0.  0.
        -13    1    3    3    0    0 -0.11493359324E+03 -0.58147520795E+03  0.29409919964E+03  0.66167779070E+03  0.10566000000E+00 0.  1.
          4    1    3    3  501    0 -0.76336195004E+02  0.41086731123E+03  0.36002330165E+03  0.55159399909E+03  0.00000000000E+00 0.  1.
         13    1    4    4    0    0 -0.30450365544E+02 -0.38633325341E+03 -0.88105380200E+02  0.39742065452E+03  0.10566000000E+00 0. -1.
         -4    1    4    4    0  503  0.22172015379E+03  0.55694115013E+03 -0.58732414096E+03  0.83922161427E+03  0.00000000000E+00 0. -1.
<mgrwt>
<rscale>  2 0.10323629E+04</rscale>
<asrwt>0</asrwt>
<pdfrwt beam="1">  1       21 0.18681593E+00 0.10358953E+04</pdfrwt>
<pdfrwt beam="2">  1       21 0.19009393E+00 0.10358953E+04</pdfrwt>
<totfact> 0.10596643E+01</totfact>
</mgrwt>
</event>
<event>
 8    1  0.7418332E-006  0.1439000E+04  0.7818608E-02  0.8445704E-01
         21   -1    0    0  503  502  0.00000000000E+00  0.00000000000E+00  0.11595047344E+04  0.11595047344E+04  0.00000000000E+00 0. -1.
         21   -1    0    0  501  503 -0.00000000000E+00 -0.00000000000E+00 -0.19316629430E+04  0.19316629430E+04  0.00000000000E+00 0.  1.
    9000010    2    1    2  501    0 -0.10082502313E+04 -0.18111934117E+03  0.40868453651E+02  0.14395800744E+04  0.10106175416E+04 0.  0.
   -9000010    2    1    2    0  502  0.10082502313E+04  0.18111934117E+03 -0.81302666219E+03  0.16515876030E+04  0.10086409234E+04 0.  0.
        -13    1    3    3    0    0 -0.10401759244E+04  0.12477623446E+03 -0.17726051140E+03  0.10625235820E+04  0.10566000000E+00 0.  1.
          4    1    3    3  501    0  0.31925693011E+02 -0.30589557563E+03  0.21812896505E+03  0.37705649240E+03  0.00000000000E+00 0.  1.
         13    1    4    4    0    0  0.86481962560E+03  0.54887607862E+03 -0.70120925921E+03  0.12413188031E+04  0.10566000000E+00 0. -1.
         -4    1    4    4    0  502  0.14343060574E+03 -0.36775673744E+03 -0.11181740298E+03  0.41026879995E+03  0.00000000000E+00 0. -1.
<mgrwt>
<rscale>  2 0.14386528E+04</rscale>
<asrwt>0</asrwt>
<pdfrwt beam="1">  1       21 0.17838535E+00 0.14389998E+04</pdfrwt>
<pdfrwt beam="2">  1       21 0.29717891E+00 0.14389998E+04</pdfrwt>
<totfact> 0.18391818E+00</totfact>
</mgrwt>
</event>
<event>
 8    1  0.7418332E-006  0.1030892E+04  0.7818608E-02  0.8787637E-01
         21   -1    0    0  501  502  0.00000000000E+00  0.00000000000E+00  0.19729990254E+04  0.19729990254E+04  0.00000000000E+00 0. -1.
         21   -1    0    0  502  503 -0.00000000000E+00 -0.00000000000E+00 -0.62702857606E+03  0.62702857606E+03  0.00000000000E+00 0. -1.
    9000010    2    1    2  501    0  0.27588701594E+03  0.39003255870E+02 -0.49649220752E+02  0.86495060111E+03  0.81733689364E+03 0.  0.
   -9000010    2    1    2    0  503 -0.27588701594E+03 -0.39003255870E+02  0.13956196701E+04  0.17350770003E+04  0.99252356852E+03 0.  0.
        -13    1    3    3    0    0 -0.28887784618E+03 -0.26469059199E+02  0.26636444450E+02  0.29130831166E+03  0.10566000000E+00 0.  1.
          4    1    3    3  501    0  0.56476486212E+03  0.65472315069E+02 -0.76285665202E+02  0.57364228945E+03  0.00000000000E+00 0.  1.
         13    1    4    4    0    0 -0.30371758987E+03 -0.48815930700E+03  0.87422378744E+03  0.10463322250E+04  0.10566000000E+00 0. -1.
         -4    1    4    4    0  503  0.27830573934E+02  0.44915605113E+03  0.52139588264E+03  0.68874477533E+03  0.00000000000E+00 0. -1.
<mgrwt>
<rscale>  2 0.98623061E+03</rscale>
<asrwt>0</asrwt>
<pdfrwt beam="1">  1       21 0.30353831E+00 0.10308918E+04</pdfrwt>
<pdfrwt beam="2">  1       21 0.96465935E-01 0.10308918E+04</pdfrwt>
<totfact> 0.10948614E+01</totfact>
</mgrwt>
</event>
<event>
 8    1  0.7418332E-006  0.9956050E+03  0.7818608E-02  0.8791717E-01
         21   -1    0    0  501  502  0.00000000000E+00  0.00000000000E+00  0.58617933637E+03  0.58617933637E+03  0.00000000000E+00 0. -1.
         21   -1    0    0  502  503 -0.00000000000E+00 -0.00000000000E+00 -0.20600158333E+04  0.20600158333E+04  0.00000000000E+00 0. -1.
    9000010    2    1    2  501    0  0.55322132457E+02  0.52086231912E+02 -0.97078837933E+02  0.94716870824E+03  0.93911167983E+03 0.  0.
   -9000010    2    1    2    0  503 -0.55322132457E+02 -0.52086231912E+02 -0.13767576590E+04  0.16990264614E+04  0.99270123964E+03 0.  0.
        -13    1    3    3    0    0  0.15083796378E+03 -0.34582385974E+02 -0.50037098314E+03  0.52375487078E+03  0.10566000000E+00 0.  1.
          4    1    3    3  501    0 -0.95515831322E+02  0.86668617886E+02  0.40329214521E+03  0.42341383745E+03  0.00000000000E+00 0.  1.
         13    1    4    4    0    0 -0.57761202136E+02  0.15593073147E+03 -0.14640209772E+04  0.14734341459E+04  0.10566000000E+00 0. -1.
         -4    1    4    4    0  503  0.24390696797E+01 -0.20801696338E+03  0.87263318215E+02  0.22559231552E+03  0.00000000000E+00 0. -1.
<mgrwt>
<rscale>  2 0.98197138E+03</rscale>
<asrwt>0</asrwt>
<pdfrwt beam="1">  1       21 0.90181437E-01 0.99560497E+03</pdfrwt>
<pdfrwt beam="2">  1       21 0.31692551E+00 0.99560497E+03</pdfrwt>
<totfact> 0.10557135E+01</totfact>
</mgrwt>
</event>
<event>
 8    1  0.7418332E-006  0.1012710E+04  0.7818608E-02  0.8764502E-01
         21   -1    0    0  501  502  0.00000000000E+00  0.00000000000E+00  0.69792056679E+03  0.69792056679E+03  0.00000000000E+00 0. -1.
         21   -1    0    0  502  503 -0.00000000000E+00 -0.00000000000E+00 -0.15967083342E+04  0.15967083342E+04  0.00000000000E+00 0. -1.
    9000010    2    1    2  501    0 -0.77141728967E+02  0.10461152209E+03 -0.11338330171E+03  0.10190379268E+04  0.10043346585E+04 0.  0.
   -9000010    2    1    2    0  503  0.77141728967E+02 -0.10461152209E+03 -0.78540446574E+03  0.12755909742E+04  0.99668337088E+03 0.  0.
        -13    1    3    3    0    0  0.41788454013E+03 -0.46486526259E+02 -0.24279917735E+03  0.48553057338E+03  0.10566000000E+00 0.  1.
          4    1    3    3  501    0 -0.49502626910E+03  0.15109804834E+03  0.12941587564E+03  0.53350735344E+03  0.00000000000E+00 0.  1.
         13    1    4    4    0    0 -0.23073355519E+03  0.18925282889E+03  0.81926163113E+02  0.30946165207E+03  0.10566000000E+00 0. -1.
         -4    1    4    4    0  503  0.30787528416E+03 -0.29386435097E+03 -0.86733062885E+03  0.96612932215E+03  0.00000000000E+00 0. -1.
<mgrwt>
<rscale>  2 0.10108082E+04</rscale>
<asrwt>0</asrwt>
<pdfrwt beam="1">  1       21 0.10737240E+00 0.10127105E+04</pdfrwt>
<pdfrwt beam="2">  1       21 0.24564743E+00 0.10127105E+04</pdfrwt>
<totfact> 0.21529542E+01</totfact>
</mgrwt>
</event>
<event>
 8    1  0.7418332E-006  0.1026742E+04  0.7818608E-02  0.8752837E-01
         21   -1    0    0  503  502  0.00000000000E+00  0.00000000000E+00  0.83781998935E+03  0.83781998935E+03  0.00000000000E+00 0.  1.
         21   -1    0    0  501  503 -0.00000000000E+00 -0.00000000000E+00 -0.13552069554E+04  0.13552069554E+04  0.00000000000E+00 0.  1.
    9000010    2    1    2  501    0  0.27445910741E+03 -0.40795892720E+02 -0.57352985403E+03  0.11647507419E+04  0.97504650703E+03 0.  0.
   -9000010    2    1    2    0  502 -0.27445910741E+03  0.40795892720E+02  0.56142887971E+02  0.10282762028E+04  0.98853822331E+03 0.  0.
        -13    1    3    3    0    0  0.24430726551E+03 -0.24693754811E+03  0.17415744649E+03  0.38858077665E+03  0.10566000000E+00 0.  1.
          4    1    3    3  501    0  0.30151841904E+02  0.20614165539E+03 -0.74768730052E+03  0.77616996528E+03  0.00000000000E+00 0.  1.
         13    1    4    4    0    0  0.21565313768E+02 -0.63515396393E+02 -0.43787655974E+03  0.44298438016E+03  0.10566000000E+00 0. -1.
         -4    1    4    4    0  502 -0.29602442118E+03  0.10431128911E+03  0.49401944771E+03  0.58529182267E+03  0.00000000000E+00 0. -1.
<mgrwt>
<rscale>  2 0.10234811E+04</rscale>
<asrwt>0</asrwt>
<pdfrwt beam="1">  1       21 0.12889538E+00 0.10267424E+04</pdfrwt>
<pdfrwt beam="2">  1       21 0.20849338E+00 0.10267424E+04</pdfrwt>
<totfact> 0.24477137E+01</totfact>
</mgrwt>
</event>
<event>
 8    1  0.7418332E-006  0.1040451E+04  0.7818608E-02  0.8741470E-01
         21   -1    0    0  503  502  0.00000000000E+00  0.00000000000E+00  0.16091411804E+04  0.16091411804E+04  0.00000000000E+00 0.  1.
         21   -1    0    0  501  503 -0.00000000000E+00 -0.00000000000E+00 -0.70319660961E+03  0.70319660961E+03  0.00000000000E+00 0.  1.
    9000010    2    1    2  501    0 -0.43319709252E+01 -0.21084485603E+03  0.73851778309E+03  0.12759105445E+04  0.10188546915E+04 0.  0.
   -9000010    2    1    2    0  502  0.43319709252E+01  0.21084485603E+03  0.16742678767E+03  0.10364272455E+04  0.10008373427E+04 0.  0.
        -13    1    3    3    0    0  0.50380896899E+03 -0.57776602859E+02  0.31545778848E+03  0.59722294041E+03  0.10566000000E+00 0.  1.
          4    1    3    3  501    0 -0.50814093991E+03 -0.15306825317E+03  0.42305999461E+03  0.67868760412E+03  0.00000000000E+00 0.  1.
         13    1    4    4    0    0 -0.31731949930E+03 -0.14693592794E+03 -0.22478501415E+03  0.41570439654E+03  0.10566000000E+00 0. -1.
         -4    1    4    4    0  502  0.32165147022E+03  0.35778078397E+03  0.39221180183E+03  0.62072284892E+03  0.00000000000E+00 0. -1.
<mgrwt>
<rscale>  2 0.10360139E+04</rscale>
<asrwt>0</asrwt>
<pdfrwt beam="1">  1       21 0.24756018E+00 0.10404514E+04</pdfrwt>
<pdfrwt beam="2">  1       21 0.10818409E+00 0.10404514E+04</pdfrwt>
<totfact> 0.20301640E+01</totfact>
</mgrwt>
</event>
<event>
 8    1  0.7418332E-006  0.1043472E+04  0.7818608E-02  0.8756494E-01
         21   -1    0    0  503  502  0.00000000000E+00  0.00000000000E+00  0.43686330846E+03  0.43686330846E+03  0.00000000000E+00 0. -1.
         21   -1    0    0  501  503 -0.00000000000E+00 -0.00000000000E+00 -0.22869062520E+04  0.22869062520E+04  0.00000000000E+00 0. -1.
    9000010    2    1    2  501    0 -0.32873379709E+02  0.35985711217E+01 -0.97649649930E+03  0.13629176669E+04  0.95021342062E+03 0.  0.
   -9000010    2    1    2    0  502  0.32873379709E+02 -0.35985711217E+01 -0.87354644426E+03  0.13608518936E+04  0.10429481661E+04 0.  0.
        -13    1    3    3    0    0 -0.34154383773E+03 -0.28692551296E+03 -0.22378711936E+03  0.49905824212E+03  0.10566000000E+00 0.  1.
          4    1    3    3  501    0  0.30867045802E+03  0.29052408408E+03 -0.75270937994E+03  0.86385942475E+03  0.00000000000E+00 0.  1.
         13    1    4    4    0    0  0.26617920055E+03 -0.43068359405E+02  0.15120084818E+03  0.30914067678E+03  0.10566000000E+00 0. -1.
         -4    1    4    4    0  502 -0.23330582084E+03  0.39469788283E+02 -0.10247472924E+04  0.10517112168E+04  0.00000000000E+00 0. -1.
<mgrwt>
<rscale>  2 0.10194870E+04</rscale>
<asrwt>0</asrwt>
<pdfrwt beam="1">  1       21 0.67209739E-01 0.10434723E+04</pdfrwt>
<pdfrwt beam="2">  1       21 0.35183173E+00 0.10434723E+04</pdfrwt>
<totfact> 0.12179610E+01</totfact>
</mgrwt>
</event>
<event>
 8    1  0.7418332E-006  0.1164375E+04  0.7818608E-02  0.8648550E-01
         21   -1    0    0  503  502  0.00000000000E+00  0.00000000000E+00  0.10918935893E+04  0.10918935893E+04  0.00000000000E+00 0.  1.
         21   -1    0    0  501  503 -0.00000000000E+00 -0.00000000000E+00 -0.14115019400E+04  0.14115019400E+04  0.00000000000E+00 0.  1.
    9000010    2    1    2  501    0  0.41034447224E+03  0.37732037536E+03 -0.68644496042E+03  0.13516562856E+04  0.10222596437E+04 0.  0.
   -9000010    2    1    2    0  502 -0.41034447224E+03 -0.37732037536E+03  0.36683660971E+03  0.11517392436E+04  0.93871238169E+03 0.  0.
        -13    1    3    3    0    0  0.55497193076E+03 -0.18397555191E+03 -0.33711214859E+03  0.67489662877E+03  0.10566000000E+00 0.  1.
          4    1    3    3  501    0 -0.14462745852E+03  0.56129592726E+03 -0.34933281183E+03  0.67675965685E+03  0.00000000000E+00 0.  1.
         13    1    4    4    0    0 -0.36745816101E+03 -0.10930530404E+03  0.65306754245E+03  0.75727826837E+03  0.10566000000E+00 0. -1.
         -4    1    4    4    0  502 -0.42886311232E+02 -0.26801507132E+03 -0.28623093274E+03  0.39446097526E+03  0.00000000000E+00 0. -1.
<mgrwt>
<rscale>  2 0.11457795E+04</rscale>
<asrwt>0</asrwt>
<pdfrwt beam="1">  1       21 0.16798363E+00 0.11643745E+04</pdfrwt>
<pdfrwt beam="2">  1       21 0.21715414E+00 0.11643745E+04</pdfrwt>
<totfact> 0.90668772E+00</totfact>
</mgrwt>
</event>
<event>
 8    1  0.7418332E-006  0.1015768E+04  0.7818608E-02  0.8761351E-01
         21   -1    0    0  503  502  0.00000000000E+00  0.00000000000E+00  0.46337652708E+03  0.46337652708E+03  0.00000000000E+00 0.  1.
         21   -1    0    0  501  503 -0.00000000000E+00 -0.00000000000E+00 -0.22312048607E+04  0.22312048607E+04  0.00000000000E+00 0.  1.
    9000010    2    1    2  501    0 -0.16646711854E+03  0.63064292181E+02 -0.10026403766E+04  0.14228514621E+04  0.99374551665E+03 0.  0.
   -9000010    2    1    2    0  502  0.16646711854E+03 -0.63064292181E+02 -0.76518795698E+03  0.12717299257E+04  0.10000479928E+04 0.  0.
        -13    1    3    3    0    0  0.20976848342E+03 -0.36422970459E+03 -0.56787196404E+03  0.70650171482E+03  0.10566000000E+00 0.  1.
          4    1    3    3  501    0 -0.37623560196E+03  0.42729399677E+03 -0.43476841259E+03  0.71634974728E+03  0.00000000000E+00 0.  1.
         13    1    4    4    0    0  0.46598695844E+03  0.24084470805E+03 -0.63908009446E+03  0.82678497636E+03  0.10566000000E+00 0. -1.
         -4    1    4    4    0  502 -0.29951983990E+03 -0.30390900024E+03 -0.12610786251E+03  0.44494494930E+03  0.00000000000E+00 0. -1.
<mgrwt>
<rscale>  2 0.10142132E+04</rscale>
<asrwt>0</asrwt>
<pdfrwt beam="1">  1       21 0.71288697E-01 0.10157679E+04</pdfrwt>
<pdfrwt beam="2">  1       21 0.34326228E+00 0.10157679E+04</pdfrwt>
<totfact> 0.12236035E+01</totfact>
</mgrwt>
</event>
<event>
 8    1  0.7418332E-006  0.1035466E+04  0.7818608E-02  0.8749604E-01
         21   -1    0    0  501  502  0.00000000000E+00  0.00000000000E+00  0.88445351388E+03  0.88445351388E+03  0.00000000000E+00 0.  1.
         21   -1    0    0  502  503 -0.00000000000E+00 -0.00000000000E+00 -0.13000311861E+04  0.13000311861E+04  0.00000000000E+00 0.  1.
    9000010    2    1    2  501    0  0.16175652776E+03  0.13688704507E+03 -0.55152378094E+03  0.11731873143E+04  0.10135515557E+04 0.  0.
   -9000010    2    1    2    0  503 -0.16175652776E+03 -0.13688704507E+03  0.13594610877E+03  0.10112973856E+04  0.97945792165E+03 0.  0.
        -13    1    3    3    0    0 -0.40041093819E+03 -0.10988948027E+03 -0.15973720788E+03  0.44488268570E+03  0.10566000000E+00 0.  1.
          4    1    3    3  501    0  0.56216746594E+03  0.24677652534E+03 -0.39178657306E+03  0.72830462861E+03  0.00000000000E+00 0.  1.
         13    1    4    4    0    0 -0.39753401414E+03  0.42888863117E+02  0.43453701519E+03  0.59050417078E+03  0.10566000000E+00 0. -1.
         -4    1    4    4    0  503  0.23577748639E+03 -0.17977590819E+03 -0.29859090642E+03  0.42079321483E+03  0.00000000000E+00 0. -1.
<mgrwt>
<rscale>  2 0.10270265E+04</rscale>
<asrwt>0</asrwt>
<pdfrwt beam="1">  1       21 0.13606977E+00 0.10354661E+04</pdfrwt>
<pdfrwt beam="2">  1       21 0.20000480E+00 0.10354661E+04</pdfrwt>
<totfact> 0.24272454E+01</totfact>
</mgrwt>
</event>
<event>
 8    1  0.7418332E-006  0.1049255E+04  0.7818608E-02  0.8731659E-01
         21   -1    0    0  503  502  0.00000000000E+00  0.00000000000E+00  0.22939471422E+04  0.22939471422E+04  0.00000000000E+00 0. -1.
         21   -1    0    0  501  503 -0.00000000000E+00 -0.00000000000E+00 -0.98042688989E+03  0.98042688989E+03  0.00000000000E+00 0. -1.
    9000010    2    1    2  501    0 -0.30431747331E+03 -0.28452696595E+02 -0.51642188600E+03  0.11694559908E+04  0.10037514979E+04 0.  0.
   -9000010    2    1    2    0  502  0.30431747331E+03  0.28452696595E+02  0.18299421383E+04  0.21049180413E+04  0.99427010943E+03 0.  0.
        -13    1    3    3    0    0  0.14941665519E+03  0.21188998293E+03  0.17163275582E+03  0.31093490597E+03  0.10566000000E+00 0.  1.
          4    1    3    3  501    0 -0.45373412850E+03 -0.24034267952E+03 -0.68805464182E+03  0.85852108483E+03  0.00000000000E+00 0.  1.
         13    1    4    4    0    0  0.23296608051E+03 -0.47640161473E+03  0.93587984277E+03  0.10756871220E+04  0.10566000000E+00 0. -1.
         -4    1    4    4    0  502  0.71351392794E+02  0.50485431132E+03  0.89406229553E+03  0.10292309193E+04  0.00000000000E+00 0. -1.
<mgrwt>
<rscale>  2 0.10469808E+04</rscale>
<asrwt>0</asrwt>
<pdfrwt beam="1">  1       21 0.35291494E+00 0.10492549E+04</pdfrwt>
<pdfrwt beam="2">  1       21 0.15083491E+00 0.10492549E+04</pdfrwt>
<totfact> 0.13940102E+00</totfact>
</mgrwt>
</event>
<event>
 8    1  0.7418332E-006  0.1030681E+04  0.7818608E-02  0.8746862E-01
         21   -1    0    0  503  502  0.00000000000E+00  0.00000000000E+00  0.18423034349E+04  0.18423034349E+04  0.00000000000E+00 0. -1.
         21   -1    0    0  501  503 -0.00000000000E+00 -0.00000000000E+00 -0.58782997442E+03  0.58782997442E+03  0.00000000000E+00 0. -1.
    9000010    2    1    2  501    0 -0.52388203368E+02 -0.19987803949E+03  0.44835686655E+03  0.11216508480E+04  0.10071648279E+04 0.  0.
   -9000010    2    1    2    0  502  0.52388203368E+02  0.19987803949E+03  0.80611659390E+03  0.13084825613E+04  0.10097558594E+04 0.  0.
        -13    1    3    3    0    0  0.28629058221E+03 -0.46846324500E+03  0.82154151723E+02  0.55513009753E+03  0.10566000000E+00 0.  1.
          4    1    3    3  501    0 -0.33867878558E+03  0.26858520550E+03  0.36620271483E+03  0.56652075052E+03  0.00000000000E+00 0.  1.
         13    1    4    4    0    0  0.43284373798E+03 -0.86448488068E+02  0.93122074354E+02  0.45110838442E+03  0.10566000000E+00 0. -1.
         -4    1    4    4    0  502 -0.38045553461E+03  0.28632652756E+03  0.71299451955E+03  0.85737417684E+03  0.00000000000E+00 0. -1.
<mgrwt>
<rscale>  2 0.10300455E+04</rscale>
<asrwt>0</asrwt>
<pdfrwt beam="1">  1       21 0.28343130E+00 0.10306807E+04</pdfrwt>
<pdfrwt beam="2">  1       21 0.90435381E-01 0.10306807E+04</pdfrwt>
<totfact> 0.17927298E+01</totfact>
</mgrwt>
</event>
<event>
 8    1  0.7418332E-006  0.1105262E+04  0.7818608E-02  0.8692393E-01
         21   -1    0    0  503  502  0.00000000000E+00  0.00000000000E+00  0.96242005706E+03  0.96242005706E+03  0.00000000000E+00 0.  1.
         21   -1    0    0  501  503 -0.00000000000E+00 -0.00000000000E+00 -0.12699621940E+04  0.12699621940E+04  0.00000000000E+00 0.  1.
    9000010    2    1    2  501    0  0.35229901711E+03 -0.27632401131E+03 -0.38971897064E+03  0.11240691396E+04  0.95455801178E+03 0.  0.
   -9000010    2    1    2    0  502 -0.35229901711E+03  0.27632401131E+03  0.82176833667E+02  0.11083131115E+04  0.10105124267E+04 0.  0.
        -13    1    3    3    0    0  0.67805339062E+03 -0.25218229754E+03 -0.31470907251E+03  0.78891959236E+03  0.10566000000E+00 0.  1.
          4    1    3    3  501    0 -0.32575437351E+03 -0.24141713775E+02 -0.75009898124E+02  0.33514954725E+03  0.00000000000E+00 0.  1.
         13    1    4    4    0    0 -0.29274339132E+03 -0.31894801027E+03 -0.16187872828E+03  0.46220261818E+03  0.10566000000E+00 0. -1.
         -4    1    4    4    0  502 -0.59555625790E+02  0.59527202159E+03  0.24405556195E+03  0.64611049331E+03  0.00000000000E+00 0. -1.
<mgrwt>
<rscale>  2 0.10923079E+04</rscale>
<asrwt>0</asrwt>
<pdfrwt beam="1">  1       21 0.14806462E+00 0.11052624E+04</pdfrwt>
<pdfrwt beam="2">  1       21 0.19537880E+00 0.11052624E+04</pdfrwt>
<totfact> 0.20163519E+01</totfact>
</mgrwt>
</event>
<event>
 8    1  0.7418332E-006  0.1050412E+04  0.7818608E-02  0.8741950E-01
         21   -1    0    0  503  502  0.00000000000E+00  0.00000000000E+00  0.76799683009E+03  0.76799683009E+03  0.00000000000E+00 0. -1.
         21   -1    0    0  501  503 -0.00000000000E+00 -0.00000000000E+00 -0.13704664472E+04  0.13704664472E+04  0.00000000000E+00 0. -1.
    9000010    2    1    2  501    0  0.16653076791E+03 -0.20664226008E+03 -0.20715500921E+03  0.10706443501E+04  0.10163329210E+04 0.  0.
   -9000010    2    1    2    0  502 -0.16653076791E+03  0.20664226008E+03 -0.39531460789E+03  0.10678189272E+04  0.95578768651E+03 0.  0.
        -13    1    3    3    0    0 -0.13406373733E+03  0.36985451454E+03 -0.13761729853E+03  0.41677809397E+03  0.10566000000E+00 0.  1.
          4    1    3    3  501    0  0.30059450523E+03 -0.57649677462E+03 -0.69537710680E+02  0.65386625615E+03  0.00000000000E+00 0.  1.
         13    1    4    4    0    0  0.29325485856E+02 -0.35379104860E+03 -0.30357071939E+03  0.46710093451E+03  0.10566000000E+00 0. -1.
         -4    1    4    4    0  502 -0.19585625376E+03  0.56043330868E+03 -0.91743888500E+02  0.60071799265E+03  0.00000000000E+00 0. -1.
<mgrwt>
<rscale>  2 0.10354813E+04</rscale>
<asrwt>0</asrwt>
<pdfrwt beam="1">  1       21 0.11815336E+00 0.10504124E+04</pdfrwt>
<pdfrwt beam="2">  1       21 0.21084099E+00 0.10504124E+04</pdfrwt>
<totfact> 0.29878205E+01</totfact>
</mgrwt>
</event>
<event>
 8    1  0.7418332E-006  0.1058622E+04  0.7818608E-02  0.8723356E-01
         21   -1    0    0  503  502  0.00000000000E+00  0.00000000000E+00  0.13429238515E+04  0.13429238515E+04  0.00000000000E+00 0. -1.
         21   -1    0    0  501  503 -0.00000000000E+00 -0.00000000000E+00 -0.95776902639E+03  0.95776902639E+03  0.00000000000E+00 0. -1.
    9000010    2    1    2  501    0 -0.18045613877E+03 -0.30725029683E+03 -0.23246359827E+03  0.10750773565E+04  0.98731192388E+03 0.  0.
   -9000010    2    1    2    0  502  0.18045613877E+03  0.30725029683E+03  0.61761842334E+03  0.12256155213E+04  0.99685190794E+03 0.  0.
        -13    1    3    3    0    0 -0.33909417697E+03 -0.28515301316E+02  0.29989171519E+03  0.45357803659E+03  0.10566000000E+00 0.  1.
          4    1    3    3  501    0  0.15863803820E+03 -0.27873499551E+03 -0.53235531347E+03  0.62149931993E+03  0.00000000000E+00 0.  1.
         13    1    4    4    0    0 -0.40167219577E+03  0.25000744753E+03  0.29610374901E+03  0.55814130649E+03  0.10566000000E+00 0. -1.
         -4    1    4    4    0  502  0.58212833454E+03  0.57242849303E+02  0.32151467433E+03  0.66747421484E+03  0.00000000000E+00 0. -1.
<mgrwt>
<rscale>  2 0.10563704E+04</rscale>
<asrwt>0</asrwt>
<pdfrwt beam="1">  1       21 0.20660367E+00 0.10586222E+04</pdfrwt>
<pdfrwt beam="2">  1       21 0.14734908E+00 0.10586222E+04</pdfrwt>
<totfact> 0.16903664E+01</totfact>
</mgrwt>
</event>
<event>
 8    1  0.7418332E-006  0.1062175E+04  0.7818608E-02  0.8753209E-01
         21   -1    0    0  501  502  0.00000000000E+00  0.00000000000E+00  0.68045925822E+03  0.68045925822E+03  0.00000000000E+00 0. -1.
         21   -1    0    0  502  503 -0.00000000000E+00 -0.00000000000E+00 -0.15362385310E+04  0.15362385310E+04  0.00000000000E+00 0. -1.
    9000010    2    1    2  501    0  0.27230121306E+03 -0.21498214994E+03 -0.68163398106E+03  0.11403417010E+04  0.84580673644E+03 0.  0.
   -9000010    2    1    2    0  503 -0.27230121306E+03  0.21498214994E+03 -0.17414529168E+03  0.10763560882E+04  0.10039176114E+04 0.  0.
        -13    1    3    3    0    0  0.18272342876E+03 -0.54339169114E+03 -0.44578691203E+03  0.72621509453E+03  0.10566000000E+00 0.  1.
          4    1    3    3  501    0  0.89577784292E+02  0.32840954120E+03 -0.23584706903E+03  0.41412660644E+03  0.00000000000E+00 0.  1.
         13    1    4    4    0    0  0.16132442611E+03 -0.25471610339E+03  0.17434162771E+03  0.34828275597E+03  0.10566000000E+00 0. -1.
         -4    1    4    4    0  503 -0.43362563916E+03  0.46969825334E+03 -0.34848691939E+03  0.72807333224E+03  0.00000000000E+00 0. -1.
<mgrwt>
<rscale>  2 0.10230737E+04</rscale>
<asrwt>0</asrwt>
<pdfrwt beam="1">  1       21 0.10468604E+00 0.10621751E+04</pdfrwt>
<pdfrwt beam="2">  1       21 0.23634439E+00 0.10621751E+04</pdfrwt>
<totfact> 0.26658573E+01</totfact>
</mgrwt>
</event>
<event>
 8    1  0.7418332E-006  0.1059261E+04  0.7818608E-02  0.8725523E-01
         21   -1    0    0  501  502  0.00000000000E+00  0.00000000000E+00  0.22209692425E+04  0.22209692425E+04  0.00000000000E+00 0.  1.
         21   -1    0    0  502  503 -0.00000000000E+00 -0.00000000000E+00 -0.50754590858E+03  0.50754590858E+03  0.00000000000E+00 0.  1.
    9000010    2    1    2  501    0  0.26600666655E+03 -0.11699992887E+03  0.10786284957E+04  0.15117778536E+04  0.10186188280E+04 0.  0.
   -9000010    2    1    2    0  503 -0.26600666655E+03  0.11699992887E+03  0.63479483813E+03  0.12167372974E+04  0.99651223495E+03 0.  0.
        -13    1    3    3    0    0  0.14816905946E+03  0.38136149528E+03  0.12239231559E+03  0.42704865103E+03  0.10566000000E+00 0.  1.
          4    1    3    3  501    0  0.11783760709E+03 -0.49836142415E+03  0.95623618015E+03  0.10847292026E+04  0.00000000000E+00 0.  1.
         13    1    4    4    0    0 -0.55075078012E+02 -0.43884123897E+03  0.30004958051E+03  0.53445735019E+03  0.10566000000E+00 0. -1.
         -4    1    4    4    0  503 -0.21093158853E+03  0.55584116783E+03  0.33474525761E+03  0.68227994723E+03  0.00000000000E+00 0. -1.
<mgrwt>
<rscale>  2 0.10539099E+04</rscale>
<asrwt>0</asrwt>
<pdfrwt beam="1">  1       21 0.34168757E+00 0.10592605E+04</pdfrwt>
<pdfrwt beam="2">  1       21 0.78083987E-01 0.10592605E+04</pdfrwt>
<totfact> 0.99925282E+00</totfact>
</mgrwt>
</event>
<event>
 8    1  0.7418332E-006  0.1017777E+04  0.7818608E-02  0.8759597E-01
         21   -1    0    0  503  502  0.00000000000E+00  0.00000000000E+00  0.21572199302E+04  0.21572199302E+04  0.00000000000E+00 0. -1.
         21   -1    0    0  501  503 -0.00000000000E+00 -0.00000000000E+00 -0.75712102197E+03  0.75712102197E+03  0.00000000000E+00 0. -1.
    9000010    2    1    2  501    0 -0.91364272559E+02 -0.99699378026E+02 -0.18763245349E+03  0.10284032595E+04  0.10020578478E+04 0.  0.
   -9000010    2    1    2    0  502  0.91364272559E+02  0.99699378026E+02  0.15877313618E+04  0.18859376927E+04  0.10087530458E+04 0.  0.
        -13    1    3    3    0    0 -0.27036829977E+03 -0.15441595987E+02  0.35749385057E+03  0.44848559036E+03  0.10566000000E+00 0.  1.
          4    1    3    3  501    0  0.17900402721E+03 -0.84257782039E+02 -0.54512630406E+03  0.57991766913E+03  0.00000000000E+00 0.  1.
         13    1    4    4    0    0 -0.29180337137E+02  0.54642378731E+03  0.74261526297E+03  0.92244668538E+03  0.10566000000E+00 0. -1.
         -4    1    4    4    0  502  0.12054460970E+03 -0.44672440928E+03  0.84511609879E+03  0.96349100733E+03  0.00000000000E+00 0. -1.
<mgrwt>
<rscale>  2 0.10161141E+04</rscale>
<asrwt>0</asrwt>
<pdfrwt beam="1">  1       21 0.33187999E+00 0.10177770E+04</pdfrwt>
<pdfrwt beam="2">  1       21 0.11648016E+00 0.10177770E+04</pdfrwt>
<totfact> 0.41938876E+00</totfact>
</mgrwt>
</event>
<event>
 8    1  0.7418332E-006  0.1040666E+04  0.7818608E-02  0.8740395E-01
         21   -1    0    0  503  502  0.00000000000E+00  0.00000000000E+00  0.79346214238E+03  0.79346214238E+03  0.00000000000E+00 0.  1.
         21   -1    0    0  501  503 -0.00000000000E+00 -0.00000000000E+00 -0.13773983114E+04  0.13773983114E+04  0.00000000000E+00 0.  1.
    9000010    2    1    2  501    0  0.27552151622E+03  0.12343697448E+03 -0.45157158141E+03  0.11218106570E+04  0.98152608951E+03 0.  0.
   -9000010    2    1    2    0  502 -0.27552151622E+03 -0.12343697448E+03 -0.13236458757E+03  0.10490497968E+04  0.99590978481E+03 0.  0.
        -13    1    3    3    0    0  0.55831312491E+03 -0.20348620483E+03 -0.27700845568E+03  0.65563242498E+03  0.10566000000E+00 0.  1.
          4    1    3    3  501    0 -0.28279160869E+03  0.32692317932E+03 -0.17456312573E+03  0.46617823199E+03  0.00000000000E+00 0.  1.
         13    1    4    4    0    0 -0.44183541182E+03 -0.17915881148E+03 -0.46942287089E+03  0.66908463870E+03  0.10566000000E+00 0. -1.
         -4    1    4    4    0  502  0.16631389560E+03  0.55721837003E+02  0.33705828332E+03  0.37996515806E+03  0.00000000000E+00 0. -1.
<mgrwt>
<rscale>  2 0.10372094E+04</rscale>
<asrwt>0</asrwt>
<pdfrwt beam="1">  1       21 0.12207110E+00 0.10406657E+04</pdfrwt>
<pdfrwt beam="2">  1       21 0.21190743E+00 0.10406657E+04</pdfrwt>
<totfact> 0.26824574E+01</totfact>
</mgrwt>
</event>
<event>
 8    1  0.7418332E-006  0.1227065E+04  0.7818608E-02  0.8586774E-01
         21   -1    0    0  503  502  0.00000000000E+00  0.00000000000E+00  0.15591768272E+04  0.15591768272E+04  0.00000000000E+00 0.  1.
         21   -1    0    0  501  503 -0.00000000000E+00 -0.00000000000E+00 -0.20845812552E+04  0.20845812552E+04  0.00000000000E+00 0.  1.
    9000010    2    1    2  501    0 -0.22828109223E+03  0.67982428406E+03 -0.15983637230E+04  0.20150572845E+04  0.99569872679E+03 0.  0.
   -9000010    2    1    2    0  502  0.22828109223E+03 -0.67982428406E+03  0.10729592951E+04  0.16287007979E+04  0.99355489330E+03 0.  0.
        -13    1    3    3    0    0 -0.55475867626E+03  0.21048998339E+03 -0.11287140915E+04  0.12751700803E+04  0.10566000000E+00 0.  1.
          4    1    3    3  501    0  0.32647758403E+03  0.46933430067E+03 -0.46964963146E+03  0.73988720423E+03  0.00000000000E+00 0.  1.
         13    1    4    4    0    0  0.27273767841E+03 -0.48418930728E+03  0.12456502760E+04  0.13639903767E+04  0.10566000000E+00 0. -1.
         -4    1    4    4    0  502 -0.44456586182E+02 -0.19563497678E+03 -0.17269098094E+03  0.26471042120E+03  0.00000000000E+00 0. -1.
<mgrwt>
<rscale>  2 0.12266303E+04</rscale>
<asrwt>0</asrwt>
<pdfrwt beam="1">  1       21 0.23987336E+00 0.12270653E+04</pdfrwt>
<pdfrwt beam="2">  1       21 0.32070481E+00 0.12270653E+04</pdfrwt>
<totfact> 0.43843777E-01</totfact>
</mgrwt>
</event>
<event>
 8    1  0.7418332E-006  0.1061951E+04  0.7818608E-02  0.8727440E-01
         21   -1    0    0  503  502  0.00000000000E+00  0.00000000000E+00  0.12757017185E+04  0.12757017185E+04  0.00000000000E+00 0. -1.
         21   -1    0    0  501  503 -0.00000000000E+00 -0.00000000000E+00 -0.94612963279E+03  0.94612963279E+03  0.00000000000E+00 0. -1.
    9000010    2    1    2  501    0  0.12332540251E+03  0.11205823415E+03 -0.19061743956E+03  0.10393186475E+04  0.10080089484E+04 0.  0.
   -9000010    2    1    2    0  502 -0.12332540251E+03 -0.11205823415E+03  0.52018952530E+03  0.11825127039E+04  0.10487959524E+04 0.  0.
        -13    1    3    3    0    0  0.50634501729E+03  0.18830798628E+02 -0.34818193071E+03  0.61479309003E+03  0.10566000000E+00 0.  1.
          4    1    3    3  501    0 -0.38301961478E+03  0.93227435527E+02  0.15756449115E+03  0.42452555743E+03  0.00000000000E+00 0.  1.
         13    1    4    4    0    0  0.10701500044E+02  0.15553619648E+02  0.82538028854E+03  0.82559619008E+03  0.10566000000E+00 0. -1.
         -4    1    4    4    0  502 -0.13402690255E+03 -0.12761185380E+03 -0.30519076324E+03  0.35691651378E+03  0.00000000000E+00 0. -1.
<mgrwt>
<rscale>  2 0.10517389E+04</rscale>
<asrwt>0</asrwt>
<pdfrwt beam="1">  1       21 0.19626180E+00 0.10619506E+04</pdfrwt>
<pdfrwt beam="2">  1       21 0.14555840E+00 0.10619506E+04</pdfrwt>
<totfact> 0.21102870E+01</totfact>
</mgrwt>
</event>
<event>
 8    1  0.7418332E-006  0.1167632E+04  0.7818608E-02  0.8664681E-01
         21   -1    0    0  501  502  0.00000000000E+00  0.00000000000E+00  0.75182234284E+03  0.75182234284E+03  0.00000000000E+00 0.  1.
         21   -1    0    0  502  503 -0.00000000000E+00 -0.00000000000E+00 -0.17254127614E+04  0.17254127614E+04  0.00000000000E+00 0.  1.
    9000010    2    1    2  501    0  0.68044886798E+02  0.10994883709E+03 -0.89849585714E+02  0.10128710214E+04  0.10005577967E+04 0.  0.
   -9000010    2    1    2    0  503 -0.68044886798E+02 -0.10994883709E+03 -0.88374083285E+03  0.14643640828E+04  0.11604505392E+04 0.  0.
        -13    1    3    3    0    0 -0.23813145493E+03  0.39766279920E+03  0.19752646965E+03  0.50384423096E+03  0.10566000000E+00 0.  1.
          4    1    3    3  501    0  0.30617634173E+03 -0.28771396211E+03 -0.28737605536E+03  0.50902679048E+03  0.00000000000E+00 0.  1.
         13    1    4    4    0    0  0.20141554000E+03 -0.58652844118E+03 -0.46831182722E+03  0.77710990905E+03  0.10566000000E+00 0. -1.
         -4    1    4    4    0  503 -0.26946042679E+03  0.47657960409E+03 -0.41542900563E+03  0.68725417377E+03  0.00000000000E+00 0. -1.
<mgrwt>
<rscale>  2 0.11257427E+04</rscale>
<asrwt>0</asrwt>
<pdfrwt beam="1">  1       21 0.11566498E+00 0.11676319E+04</pdfrwt>
<pdfrwt beam="2">  1       21 0.26544811E+00 0.11676319E+04</pdfrwt>
<totfact> 0.12215269E+01</totfact>
</mgrwt>
</event>
<event>
 8    1  0.7418332E-006  0.1024356E+04  0.7818608E-02  0.8757100E-01
         21   -1    0    0  503  502  0.00000000000E+00  0.00000000000E+00  0.39638499038E+03  0.39638499038E+03  0.00000000000E+00 0.  1.
         21   -1    0    0  501  503 -0.00000000000E+00 -0.00000000000E+00 -0.26619293151E+04  0.26619293151E+04  0.00000000000E+00 0.  1.
    9000010    2    1    2  501    0 -0.50504557378E+02  0.61614093720E+02 -0.13707776222E+04  0.16981996455E+04  0.99925158973E+03 0.  0.
   -9000010    2    1    2    0  502  0.50504557378E+02 -0.61614093720E+02 -0.89476670253E+03  0.13601146600E+04  0.10212528725E+04 0.  0.
        -13    1    3    3    0    0  0.31026812941E+03  0.36128407398E+03 -0.40734109834E+03  0.62667318101E+03  0.10566000000E+00 0.  1.
          4    1    3    3  501    0 -0.36077268679E+03 -0.29966998026E+03 -0.96343652385E+03  0.10715264645E+04  0.00000000000E+00 0.  1.
         13    1    4    4    0    0  0.21227569048E+03  0.14722396163E+03  0.13884416853E+03  0.29328071526E+03  0.10566000000E+00 0. -1.
         -4    1    4    4    0  502 -0.16177113310E+03 -0.20883805535E+03 -0.10336108711E+04  0.10668339447E+04  0.00000000000E+00 0. -1.
<mgrwt>
<rscale>  2 0.10188277E+04</rscale>
<asrwt>0</asrwt>
<pdfrwt beam="1">  1       21 0.60982307E-01 0.10243556E+04</pdfrwt>
<pdfrwt beam="2">  1       21 0.40952758E+00 0.10243556E+04</pdfrwt>
<totfact> 0.60564286E+00</totfact>
</mgrwt>
</event>
<event>
 8    1  0.7418332E-006  0.1065552E+04  0.7818608E-02  0.8721702E-01
         21   -1    0    0  503  502  0.00000000000E+00  0.00000000000E+00  0.10603060955E+04  0.10603060955E+04  0.00000000000E+00 0.  1.
         21   -1    0    0  501  503 -0.00000000000E+00 -0.00000000000E+00 -0.15772166997E+04  0.15772166997E+04  0.00000000000E+00 0.  1.
    9000010    2    1    2  501    0  0.25488151539E+00  0.31902070165E+03 -0.10242909748E+04  0.14573385103E+04  0.98635148879E+03 0.  0.
   -9000010    2    1    2    0  502 -0.25488151539E+00 -0.31902070165E+03  0.50738037060E+03  0.11801842849E+04  0.10166739068E+04 0.  0.
        -13    1    3    3    0    0  0.36658163005E+03  0.20003828543E+03 -0.98537127814E+03  0.10702121164E+04  0.10566000000E+00 0.  1.
          4    1    3    3  501    0 -0.36632674853E+03  0.11898241621E+03 -0.38919696671E+02  0.38712639389E+03  0.00000000000E+00 0.  1.
         13    1    4    4    0    0 -0.41521730120E+03 -0.42526761416E+03  0.45525623434E+03  0.74867629917E+03  0.10566000000E+00 0. -1.
         -4    1    4    4    0  502  0.41496241968E+03  0.10624691252E+03  0.52124136258E+02  0.43150798573E+03  0.00000000000E+00 0. -1.
<mgrwt>
<rscale>  2 0.10582540E+04</rscale>
<asrwt>0</asrwt>
<pdfrwt beam="1">  1       21 0.16312401E+00 0.10655516E+04</pdfrwt>
<pdfrwt beam="2">  1       21 0.24264872E+00 0.10655516E+04</pdfrwt>
<totfact> 0.65861785E+00</totfact>
</mgrwt>
</event>
<event>
 8    1  0.7418332E-006  0.1135510E+04  0.7818608E-02  0.8657061E-01
         21   -1    0    0  503  502  0.00000000000E+00  0.00000000000E+00  0.48071336486E+03  0.48071336486E+03  0.00000000000E+00 0. -1.
         21   -1    0    0  501  503 -0.00000000000E+00 -0.00000000000E+00 -0.29190640940E+04  0.29190640940E+04  0.00000000000E+00 0. -1.
    9000010    2    1    2  501    0  0.33512162025E+03 -0.40670741972E+03 -0.17060947205E+04  0.20486366101E+04  0.10042088125E+04 0.  0.
   -9000010    2    1    2    0  502 -0.33512162025E+03  0.40670741972E+03 -0.73225600861E+03  0.13511408488E+04  0.10058157413E+04 0.  0.
        -13    1    3    3    0    0  0.65679027942E+03 -0.17233790784E+03 -0.13646311318E+04  0.15242348778E+04  0.10566000000E+00 0.  1.
          4    1    3    3  501    0 -0.32166865918E+03 -0.23436951188E+03 -0.34146358877E+03  0.52440173231E+03  0.00000000000E+00 0.  1.
         13    1    4    4    0    0 -0.20471240229E+03  0.66060675819E+03 -0.15734235836E+03  0.70927081253E+03  0.10566000000E+00 0. -1.
         -4    1    4    4    0  502 -0.13040921795E+03 -0.25389933847E+03 -0.57491365025E+03  0.64187003626E+03  0.00000000000E+00 0. -1.
<mgrwt>
<rscale>  2 0.11351539E+04</rscale>
<asrwt>0</asrwt>
<pdfrwt beam="1">  1       21 0.73955901E-01 0.11355099E+04</pdfrwt>
<pdfrwt beam="2">  1       21 0.44908679E+00 0.11355099E+04</pdfrwt>
<totfact> 0.20027157E+00</totfact>
</mgrwt>
</event>
<event>
 8    1  0.7418332E-006  0.1008393E+04  0.7818608E-02  0.8769402E-01
         21   -1    0    0  503  502  0.00000000000E+00  0.00000000000E+00  0.14803828932E+04  0.14803828932E+04  0.00000000000E+00 0.  1.
         21   -1    0    0  501  503 -0.00000000000E+00 -0.00000000000E+00 -0.78626596979E+03  0.78626596979E+03  0.00000000000E+00 0.  1.
    9000010    2    1    2  501    0  0.87220998769E+02 -0.98141896155E+01  0.76361608954E+03  0.12558638287E+04  0.99316695628E+03 0.  0.
   -9000010    2    1    2    0  502 -0.87220998769E+02  0.98141896155E+01 -0.69499166138E+02  0.10107850343E+04  0.10045657920E+04 0.  0.
        -13    1    3    3    0    0 -0.14177065955E+03  0.43464658755E+03  0.19043560272E+03  0.49525983678E+03  0.10566000000E+00 0.  1.
          4    1    3    3  501    0  0.22899165832E+03 -0.44446077717E+03  0.57318048682E+03  0.76060399190E+03  0.00000000000E+00 0.  1.
         13    1    4    4    0    0  0.15800118115E+03  0.24304270673E+03 -0.42854656184E+03  0.51738409076E+03  0.10566000000E+00 0. -1.
         -4    1    4    4    0  502 -0.24522217992E+03 -0.23322851711E+03  0.35904739570E+03  0.49340094354E+03  0.00000000000E+00 0. -1.
<mgrwt>
<rscale>  2 0.10055421E+04</rscale>
<asrwt>0</asrwt>
<pdfrwt beam="1">  1       21 0.22775121E+00 0.10083929E+04</pdfrwt>
<pdfrwt beam="2">  1       21 0.12096400E+00 0.10083929E+04</pdfrwt>
<totfact> 0.21058820E+01</totfact>
</mgrwt>
</event>
<event>
 8    1  0.7418332E-006  0.1058894E+04  0.7818608E-02  0.8729029E-01
         21   -1    0    0  501  502  0.00000000000E+00  0.00000000000E+00  0.10451580817E+04  0.10451580817E+04  0.00000000000E+00 0.  1.
         21   -1    0    0  502  503 -0.00000000000E+00 -0.00000000000E+00 -0.10652980119E+04  0.10652980119E+04  0.00000000000E+00 0.  1.
    9000010    2    1    2  501    0  0.31659308109E+03 -0.62960141327E+01  0.16081878710E+03  0.10710364933E+04  0.10104383548E+04 0.  0.
   -9000010    2    1    2    0  503 -0.31659308109E+03  0.62960141327E+01 -0.18095871735E+03  0.10394196003E+04  0.97333253792E+03 0.  0.
        -13    1    3    3    0    0  0.47995733208E+03 -0.98736934090E+02  0.48944697619E+03  0.69257950911E+03  0.10566000000E+00 0.  1.
          4    1    3    3  501    0 -0.16336425099E+03  0.92440919957E+02 -0.32862818909E+03  0.37845698415E+03  0.00000000000E+00 0.  1.
         13    1    4    4    0    0 -0.49318029819E+03  0.35705080315E+03 -0.21390203672E+03  0.64534190552E+03  0.10566000000E+00 0. -1.
         -4    1    4    4    0  503  0.17658721709E+03 -0.35075478902E+03  0.32943319364E+02  0.39407769481E+03  0.00000000000E+00 0. -1.
<mgrwt>
<rscale>  2 0.10499442E+04</rscale>
<asrwt>0</asrwt>
<pdfrwt beam="1">  1       21 0.16079355E+00 0.10588940E+04</pdfrwt>
<pdfrwt beam="2">  1       21 0.16389200E+00 0.10588940E+04</pdfrwt>
<totfact> 0.28492837E+01</totfact>
</mgrwt>
</event>
<event>
 8    1  0.7418332E-006  0.1058754E+04  0.7818608E-02  0.8722410E-01
         21   -1    0    0  503  502  0.00000000000E+00  0.00000000000E+00  0.29966810433E+04  0.29966810433E+04  0.00000000000E+00 0. -1.
         21   -1    0    0  501  503 -0.00000000000E+00 -0.00000000000E+00 -0.38936441105E+03  0.38936441105E+03  0.00000000000E+00 0. -1.
    9000010    2    1    2  501    0  0.29364545971E+03  0.21162711166E+03  0.16619354720E+04  0.19705301253E+04  0.99496018561E+03 0.  0.
   -9000010    2    1    2    0  502 -0.29364545971E+03 -0.21162711166E+03  0.94538116018E+03  0.14155153291E+04  0.98940609377E+03 0.  0.
        -13    1    3    3    0    0  0.41200925546E+03  0.45113046523E+03  0.53414814442E+03  0.81153223879E+03  0.10566000000E+00 0.  1.
          4    1    3    3  501    0 -0.11836379575E+03 -0.23950335357E+03  0.11277873276E+04  0.11589978865E+04  0.00000000000E+00 0.  1.
         13    1    4    4    0    0  0.31903377005E+03  0.12803042117E+03  0.40203170626E+03  0.52896487519E+03  0.10566000000E+00 0. -1.
         -4    1    4    4    0  502 -0.61267922976E+03 -0.33965753283E+03  0.54334945392E+03  0.88655045388E+03  0.00000000000E+00 0. -1.
<mgrwt>
<rscale>  2 0.10574469E+04</rscale>
<asrwt>0</asrwt>
<pdfrwt beam="1">  1       21 0.46102784E+00 0.10587537E+04</pdfrwt>
<pdfrwt beam="2">  1       21 0.59902219E-01 0.10587537E+04</pdfrwt>
<totfact> 0.27561912E+00</totfact>
</mgrwt>
</event>
<event>
 8    1  0.7418332E-006  0.1118929E+04  0.7818608E-02  0.8670808E-01
         21   -1    0    0  503  502  0.00000000000E+00  0.00000000000E+00  0.59114956171E+03  0.59114956171E+03  0.00000000000E+00 0. -1.
         21   -1    0    0  501  503 -0.00000000000E+00 -0.00000000000E+00 -0.22037039212E+04  0.22037039212E+04  0.00000000000E+00 0. -1.
    9000010    2    1    2  501    0 -0.59299183110E+01  0.48332665484E+03 -0.10911436888E+04  0.15628809125E+04  0.10091394244E+04 0.  0.
   -9000010    2    1    2    0  502  0.59299183110E+01 -0.48332665484E+03 -0.52141067066E+03  0.12319725704E+04  0.10061051175E+04 0.  0.
        -13    1    3    3    0    0 -0.16469713376E+03  0.50114987133E+03 -0.12381069674E+04  0.13458028137E+04  0.10566000000E+00 0.  1.
          4    1    3    3  501    0  0.15876721545E+03 -0.17823216494E+02  0.14696327859E+03  0.21707809885E+03  0.00000000000E+00 0.  1.
         13    1    4    4    0    0  0.31727992020E+03 -0.56128761595E+03 -0.30535628071E+02  0.64547871485E+03  0.10566000000E+00 0. -1.
         -4    1    4    4    0  502 -0.31135000189E+03  0.77960961105E+02 -0.49087504259E+03  0.58649385553E+03  0.00000000000E+00 0. -1.
<mgrwt>
<rscale>  2 0.11182445E+04</rscale>
<asrwt>0</asrwt>
<pdfrwt beam="1">  1       21 0.90946089E-01 0.11189290E+04</pdfrwt>
<pdfrwt beam="2">  1       21 0.33903136E+00 0.11189290E+04</pdfrwt>
<totfact> 0.70271636E+00</totfact>
</mgrwt>
</event>
<event>
 8    1  0.7418332E-006  0.1107359E+04  0.7818608E-02  0.8681414E-01
         21   -1    0    0  501  502  0.00000000000E+00  0.00000000000E+00  0.11579431091E+04  0.11579431091E+04  0.00000000000E+00 0. -1.
         21   -1    0    0  502  503 -0.00000000000E+00 -0.00000000000E+00 -0.15305611251E+04  0.15305611251E+04  0.00000000000E+00 0. -1.
    9000010    2    1    2  501    0 -0.45580418026E+03  0.10850496689E+03  0.56525355724E+03  0.12432844163E+04  0.10033512731E+04 0.  0.
   -9000010    2    1    2    0  503  0.45580418026E+03 -0.10850496689E+03 -0.93787157323E+03  0.14452198179E+04  0.99474944364E+03 0.  0.
        -13    1    3    3    0    0 -0.39245568046E+03  0.42906924127E+03 -0.10150693023E+02  0.58157108135E+03  0.10566000000E+00 0.  1.
          4    1    3    3  501    0 -0.63348499807E+02 -0.32056427438E+03  0.57540425027E+03  0.66171333496E+03  0.00000000000E+00 0.  1.
         13    1    4    4    0    0 -0.28003066464E+03 -0.10401186033E+03 -0.51812576162E+03  0.59807186545E+03  0.10566000000E+00 0. -1.
         -4    1    4    4    0  503  0.73583484491E+03 -0.44931065660E+01 -0.41974581161E+03  0.84714795246E+03  0.00000000000E+00 0. -1.
<mgrwt>
<rscale>  2 0.11054071E+04</rscale>
<asrwt>0</asrwt>
<pdfrwt beam="1">  1       21 0.17814509E+00 0.11073593E+04</pdfrwt>
<pdfrwt beam="2">  1       21 0.23547094E+00 0.11073593E+04</pdfrwt>
<totfact> 0.55119345E+00</totfact>
</mgrwt>
</event>
<event>
 8    1  0.7418332E-006  0.1033655E+04  0.7818608E-02  0.8748406E-01
         21   -1    0    0  503  502  0.00000000000E+00  0.00000000000E+00  0.81416239821E+03  0.81416239821E+03  0.00000000000E+00 0.  1.
         21   -1    0    0  501  503 -0.00000000000E+00 -0.00000000000E+00 -0.14439534892E+04  0.14439534892E+04  0.00000000000E+00 0.  1.
    9000010    2    1    2  501    0  0.90971406148E+02  0.20196871047E+03 -0.68577025911E+03  0.12229465153E+04  0.98805373039E+03 0.  0.
   -9000010    2    1    2    0  502 -0.90971406148E+02 -0.20196871047E+03  0.55979168114E+02  0.10351693722E+04  0.10096409288E+04 0.  0.
        -13    1    3    3    0    0 -0.34386539759E+03  0.11953459233E+03 -0.69021926664E+03  0.78034260272E+03  0.10566000000E+00 0.  1.
          4    1    3    3  501    0  0.43483680374E+03  0.82434118138E+02  0.44490075284E+01  0.44260391253E+03  0.00000000000E+00 0.  1.
         13    1    4    4    0    0  0.23755691993E+03  0.13950539756E+03 -0.32579416730E+03  0.42665782164E+03  0.10566000000E+00 0. -1.
         -4    1    4    4    0  502 -0.32852832607E+03 -0.34147410804E+03  0.38177333542E+03  0.60851155053E+03  0.00000000000E+00 0. -1.
<mgrwt>
<rscale>  2 0.10283451E+04</rscale>
<asrwt>0</asrwt>
<pdfrwt beam="1">  1       21 0.12525575E+00 0.10336547E+04</pdfrwt>
<pdfrwt beam="2">  1       21 0.22214669E+00 0.10336547E+04</pdfrwt>
<totfact> 0.20893613E+01</totfact>
</mgrwt>
</event>
<event>
 8    1  0.7418332E-006  0.1011469E+04  0.7818608E-02  0.8764943E-01
         21   -1    0    0  503  502  0.00000000000E+00  0.00000000000E+00  0.93989020326E+03  0.93989020326E+03  0.00000000000E+00 0. -1.
         21   -1    0    0  501  503 -0.00000000000E+00 -0.00000000000E+00 -0.17977405252E+04  0.17977405252E+04  0.00000000000E+00 0. -1.
    9000010    2    1    2  501    0  0.91743898483E+02 -0.74548909326E+00 -0.12922195111E+04  0.16410062294E+04  0.10072996978E+04 0.  0.
   -9000010    2    1    2    0  502 -0.91743898483E+02  0.74548909326E+00  0.43436918917E+03  0.10966244991E+04  0.10027418416E+04 0.  0.
        -13    1    3    3    0    0  0.12967144801E+03  0.49491347660E+03 -0.71572660592E+03  0.87978327976E+03  0.10566000000E+00 0.  1.
          4    1    3    3  501    0 -0.37927549528E+02 -0.49565896569E+03 -0.57649290519E+03  0.76122294961E+03  0.00000000000E+00 0.  1.
         13    1    4    4    0    0  0.61700602941E+02  0.48804859171E+03  0.26257037033E+03  0.55762137944E+03  0.10566000000E+00 0. -1.
         -4    1    4    4    0  502 -0.15344450142E+03 -0.48730310261E+03  0.17179881884E+03  0.53900311965E+03  0.00000000000E+00 0. -1.
<mgrwt>
<rscale>  2 0.10103327E+04</rscale>
<asrwt>0</asrwt>
<pdfrwt beam="1">  1       21 0.14459849E+00 0.10114693E+04</pdfrwt>
<pdfrwt beam="2">  1       21 0.27657547E+00 0.10114693E+04</pdfrwt>
<totfact> 0.55294872E+00</totfact>
</mgrwt>
</event>
<event>
 8    1  0.7418332E-006  0.1125805E+04  0.7818608E-02  0.8671023E-01
         21   -1    0    0  501  502  0.00000000000E+00  0.00000000000E+00  0.10825213344E+04  0.10825213344E+04  0.00000000000E+00 0. -1.
         21   -1    0    0  502  503 -0.00000000000E+00 -0.00000000000E+00 -0.15615532700E+04  0.15615532700E+04  0.00000000000E+00 0. -1.
    9000010    2    1    2  501    0 -0.46950612887E+03  0.43340524488E+02  0.45071664691E+03  0.11839825826E+04  0.98810670177E+03 0.  0.
   -9000010    2    1    2    0  503  0.46950612887E+03 -0.43340524488E+02 -0.92974858250E+03  0.14600920218E+04  0.10223120264E+04 0.  0.
        -13    1    3    3    0    0 -0.20804944276E+03  0.43634453728E+03 -0.61654896362E+02  0.48732172459E+03  0.10566000000E+00 0.  1.
          4    1    3    3  501    0 -0.26145668612E+03 -0.39300401279E+03  0.51237154327E+03  0.69666085805E+03  0.00000000000E+00 0.  1.
         13    1    4    4    0    0 -0.42431374091E+02 -0.43777115885E+03 -0.19368922521E+03  0.48058249672E+03  0.10566000000E+00 0. -1.
         -4    1    4    4    0  503  0.51193750296E+03  0.39443063436E+03 -0.73605935728E+03  0.97950952507E+03  0.00000000000E+00 0. -1.
<mgrwt>
<rscale>  2 0.11179818E+04</rscale>
<asrwt>0</asrwt>
<pdfrwt beam="1">  1       21 0.16654174E+00 0.11258047E+04</pdfrwt>
<pdfrwt beam="2">  1       21 0.24023896E+00 0.11258047E+04</pdfrwt>
<totfact> 0.63257135E+00</totfact>
</mgrwt>
</event>
<event>
 8    1  0.7418332E-006  0.1028640E+04  0.7818608E-02  0.8748185E-01
         21   -1    0    0  501  502  0.00000000000E+00  0.00000000000E+00  0.21386310295E+04  0.21386310295E+04  0.00000000000E+00 0. -1.
         21   -1    0    0  502  503 -0.00000000000E+00 -0.00000000000E+00 -0.60348363409E+03  0.60348363409E+03  0.00000000000E+00 0. -1.
    9000010    2    1    2  501    0 -0.16021362501E+03 -0.17061515114E+03  0.13498666924E+04  0.16971268688E+04  0.10016594162E+04 0.  0.
   -9000010    2    1    2    0  503  0.16021362501E+03  0.17061515114E+03  0.18528070299E+03  0.10449877948E+04  0.10014452641E+04 0.  0.
        -13    1    3    3    0    0 -0.27069465070E+03 -0.54720423761E+03  0.63027960892E+03  0.87747391309E+03  0.10566000000E+00 0.  1.
          4    1    3    3  501    0  0.11048102569E+03  0.37658908647E+03  0.71958708347E+03  0.81965295570E+03  0.00000000000E+00 0.  1.
         13    1    4    4    0    0  0.52341581023E+03 -0.25852920667E+02 -0.11235980504E+03  0.53596382421E+03  0.10566000000E+00 0. -1.
         -4    1    4    4    0  503 -0.36320218523E+03  0.19646807181E+03  0.29764050804E+03  0.50902397057E+03  0.00000000000E+00 0. -1.
<mgrwt>
<rscale>  2 0.10285875E+04</rscale>
<asrwt>0</asrwt>
<pdfrwt beam="1">  1       21 0.32902015E+00 0.10286396E+04</pdfrwt>
<pdfrwt beam="2">  1       21 0.92843637E-01 0.10286396E+04</pdfrwt>
<totfact> 0.79961584E+00</totfact>
</mgrwt>
</event>
<event>
 8    1  0.7418332E-006  0.1113236E+04  0.7818608E-02  0.8683594E-01
         21   -1    0    0  501  502  0.00000000000E+00  0.00000000000E+00  0.12701577476E+04  0.12701577476E+04  0.00000000000E+00 0.  1.
         21   -1    0    0  502  503 -0.00000000000E+00 -0.00000000000E+00 -0.11151931936E+04  0.11151931936E+04  0.00000000000E+00 0.  1.
    9000010    2    1    2  501    0  0.75157979634E+02 -0.46761539932E+03  0.55145995666E+03  0.12423373115E+04  0.10074626684E+04 0.  0.
   -9000010    2    1    2    0  503 -0.75157979634E+02  0.46761539932E+03 -0.39649540272E+03  0.11430136297E+04  0.96174771621E+03 0.  0.
        -13    1    3    3    0    0 -0.15645835135E+03 -0.61416218770E+03  0.68859372116E+03  0.93586095789E+03  0.10566000000E+00 0.  1.
          4    1    3    3  501    0  0.23161633099E+03  0.14654678839E+03 -0.13713376450E+03  0.30647635363E+03  0.00000000000E+00 0.  1.
         13    1    4    4    0    0 -0.22864637128E+03 -0.24693634053E+03 -0.76181085938E+02  0.34505113881E+03  0.10566000000E+00 0. -1.
         -4    1    4    4    0  503  0.15348839164E+03  0.71455173985E+03 -0.32031431678E+03  0.79796249086E+03  0.00000000000E+00 0. -1.
<mgrwt>
<rscale>  2 0.11027910E+04</rscale>
<asrwt>0</asrwt>
<pdfrwt beam="1">  1       21 0.19540888E+00 0.11132358E+04</pdfrwt>
<pdfrwt beam="2">  1       21 0.17156818E+00 0.11132358E+04</pdfrwt>
<totfact> 0.12594349E+01</totfact>
</mgrwt>
</event>
<event>
 8    1  0.7418332E-006  0.1098441E+04  0.7818608E-02  0.8691005E-01
         21   -1    0    0  503  502  0.00000000000E+00  0.00000000000E+00  0.17320579284E+04  0.17320579284E+04  0.00000000000E+00 0.  1.
         21   -1    0    0  501  503 -0.00000000000E+00 -0.00000000000E+00 -0.98978187389E+03  0.98978187389E+03  0.00000000000E+00 0.  1.
    9000010    2    1    2  501    0  0.29470364339E+03 -0.24028935397E+03 -0.38571492766E+03  0.11473758520E+04  0.10114870880E+04 0.  0.
   -9000010    2    1    2    0  502 -0.29470364339E+03  0.24028935397E+03  0.11279909822E+04  0.15744639503E+04  0.10305260132E+04 0.  0.
        -13    1    3    3    0    0  0.24155087062E+03 -0.37766729712E+03 -0.68219782464E+03  0.81631690753E+03  0.10566000000E+00 0.  1.
          4    1    3    3  501    0  0.53152772767E+02  0.13737794315E+03  0.29648289698E+03  0.33105894448E+03  0.00000000000E+00 0.  1.
         13    1    4    4    0    0 -0.40078646132E+03  0.31011520236E+03  0.12798351176E+04  0.13765097768E+04  0.10566000000E+00 0. -1.
         -4    1    4    4    0  502  0.10608281794E+03 -0.69825848389E+02 -0.15184413537E+03  0.19795417351E+03  0.00000000000E+00 0. -1.
<mgrwt>
<rscale>  2 0.10939534E+04</rscale>
<asrwt>0</asrwt>
<pdfrwt beam="1">  1       21 0.26647045E+00 0.10984412E+04</pdfrwt>
<pdfrwt beam="2">  1       21 0.15227413E+00 0.10984412E+04</pdfrwt>
<totfact> 0.54565920E+00</totfact>
</mgrwt>
</event>
<event>
 8    1  0.7418332E-006  0.1074716E+04  0.7818608E-02  0.8716192E-01
         21   -1    0    0  503  502  0.00000000000E+00  0.00000000000E+00  0.95006751411E+03  0.95006751411E+03  0.00000000000E+00 0. -1.
         21   -1    0    0  501  503 -0.00000000000E+00 -0.00000000000E+00 -0.19177359703E+04  0.19177359703E+04  0.00000000000E+00 0. -1.
    9000010    2    1    2  501    0 -0.34865343509E+03  0.19218843814E+03 -0.13842228145E+04  0.17524519965E+04  0.99825827629E+03 0.  0.
   -9000010    2    1    2    0  502  0.34865343509E+03 -0.19218843814E+03  0.41655435833E+03  0.11153514879E+04  0.95498470911E+03 0.  0.
        -13    1    3    3    0    0 -0.34205542150E+02 -0.67107144680E+02 -0.13404226016E+04  0.13425372062E+04  0.10566000000E+00 0.  1.
          4    1    3    3  501    0 -0.31444789294E+03  0.25929558282E+03 -0.43800212925E+02  0.40991479029E+03  0.00000000000E+00 0.  1.
         13    1    4    4    0    0  0.58080532120E+03  0.97027938705E+02  0.45266247514E+03  0.74273317523E+03  0.10566000000E+00 0. -1.
         -4    1    4    4    0  502 -0.23215188611E+03 -0.28921637684E+03 -0.36108116818E+02  0.37261831270E+03  0.00000000000E+00 0. -1.
<mgrwt>
<rscale>  2 0.10645554E+04</rscale>
<asrwt>0</asrwt>
<pdfrwt beam="1">  1       21 0.14616424E+00 0.10747163E+04</pdfrwt>
<pdfrwt beam="2">  1       21 0.29503630E+00 0.10747163E+04</pdfrwt>
<totfact> 0.38953934E+00</totfact>
</mgrwt>
</event>
<event>
 8    1  0.7418332E-006  0.1027113E+04  0.7818608E-02  0.8785869E-01
         21   -1    0    0  501  502  0.00000000000E+00  0.00000000000E+00  0.19289616897E+04  0.19289616897E+04  0.00000000000E+00 0. -1.
         21   -1    0    0  502  503 -0.00000000000E+00 -0.00000000000E+00 -0.73374902690E+03  0.73374902690E+03  0.00000000000E+00 0. -1.
    9000010    2    1    2  501    0  0.71663309071E+02  0.23798839128E+03  0.14221189794E+04  0.17542475034E+04  0.99658808311E+03 0.  0.
   -9000010    2    1    2    0  503 -0.71663309071E+02 -0.23798839128E+03 -0.22690631661E+03  0.90846321318E+03  0.84382748766E+03 0.  0.
        -13    1    3    3    0    0 -0.25875290474E+03  0.16077973986E+03  0.13067959470E+02  0.30491633802E+03  0.10566000000E+00 0.  1.
          4    1    3    3  501    0  0.33041621381E+03  0.77208651421E+02  0.14090510200E+04  0.14493311654E+04  0.00000000000E+00 0.  1.
         13    1    4    4    0    0 -0.17769483805E+03  0.46824305803E+02 -0.47936064252E+03  0.51337569854E+03  0.10566000000E+00 0. -1.
         -4    1    4    4    0  503  0.10603152898E+03 -0.28481269708E+03  0.25245432591E+03  0.39508751465E+03  0.00000000000E+00 0. -1.
<mgrwt>
<rscale>  2 0.98808365E+03</rscale>
<asrwt>0</asrwt>
<pdfrwt beam="1">  1       21 0.29676334E+00 0.10271134E+04</pdfrwt>
<pdfrwt beam="2">  1       21 0.11288447E+00 0.10271134E+04</pdfrwt>
<totfact> 0.80601360E+00</totfact>
</mgrwt>
</event>
<event>
 8    1  0.7418332E-006  0.1063574E+04  0.7818608E-02  0.8718608E-01
         21   -1    0    0  503  502  0.00000000000E+00  0.00000000000E+00  0.11987119768E+04  0.11987119768E+04  0.00000000000E+00 0.  1.
         21   -1    0    0  501  503 -0.00000000000E+00 -0.00000000000E+00 -0.10012007565E+04  0.10012007565E+04  0.00000000000E+00 0.  1.
    9000010    2    1    2  501    0 -0.21478881784E+03 -0.30296262979E+03 -0.17869604797E+03  0.10784813741E+04  0.99662892057E+03 0.  0.
   -9000010    2    1    2    0  502  0.21478881784E+03  0.30296262979E+03  0.37620726825E+03  0.11214313592E+04  0.98901759001E+03 0.  0.
        -13    1    3    3    0    0 -0.60480403549E+03 -0.13206868285E+03 -0.62838843154E+01  0.61908768095E+03  0.10566000000E+00 0.  1.
          4    1    3    3  501    0  0.39001521765E+03 -0.17089394694E+03 -0.17241216365E+03  0.45939369311E+03  0.00000000000E+00 0.  1.
         13    1    4    4    0    0  0.37886649144E+03  0.55691421104E+03  0.48131628354E+02  0.67528506692E+03  0.10566000000E+00 0. -1.
         -4    1    4    4    0  502 -0.16407767360E+03 -0.25395158126E+03  0.32807563990E+03  0.44614629225E+03  0.00000000000E+00 0. -1.
<mgrwt>
<rscale>  2 0.10617873E+04</rscale>
<asrwt>0</asrwt>
<pdfrwt beam="1">  1       21 0.18441723E+00 0.10635741E+04</pdfrwt>
<pdfrwt beam="2">  1       21 0.15403089E+00 0.10635741E+04</pdfrwt>
<totfact> 0.22024676E+01</totfact>
</mgrwt>
</event>
<event>
 8    1  0.7418332E-006  0.1031509E+04  0.7818608E-02  0.8752190E-01
         21   -1    0    0  503  502  0.00000000000E+00  0.00000000000E+00  0.12276600067E+04  0.12276600067E+04  0.00000000000E+00 0. -1.
         21   -1    0    0  501  503 -0.00000000000E+00 -0.00000000000E+00 -0.96542963293E+03  0.96542963293E+03  0.00000000000E+00 0. -1.
    9000010    2    1    2  501    0  0.24465802061E+03 -0.11900993918E+03 -0.26171889437E+03  0.10361391375E+04  0.96491793425E+03 0.  0.
   -9000010    2    1    2    0  502 -0.24465802061E+03  0.11900993918E+03  0.52394926816E+03  0.11569505022E+04  0.99498277183E+03 0.  0.
        -13    1    3    3    0    0 -0.23007520370E+02  0.38209862137E+03 -0.26920572958E+03  0.46797482673E+03  0.10566000000E+00 0.  1.
          4    1    3    3  501    0  0.26766554098E+03 -0.50110856055E+03  0.74868352136E+01  0.56816431073E+03  0.00000000000E+00 0.  1.
         13    1    4    4    0    0 -0.28636641290E+03 -0.33430289706E+03 -0.28498283469E+02  0.44110805110E+03  0.10566000000E+00 0. -1.
         -4    1    4    4    0  502  0.41708392298E+02  0.45331283624E+03  0.55244755163E+03  0.71584245109E+03  0.00000000000E+00 0. -1.
<mgrwt>
<rscale>  2 0.10241896E+04</rscale>
<asrwt>0</asrwt>
<pdfrwt beam="1">  1       21 0.18887077E+00 0.10315094E+04</pdfrwt>
<pdfrwt beam="2">  1       21 0.14852763E+00 0.10315094E+04</pdfrwt>
<totfact> 0.22862540E+01</totfact>
</mgrwt>
</event>
<event>
 8    1  0.7418332E-006  0.1031565E+04  0.7818608E-02  0.8757235E-01
         21   -1    0    0  503  502  0.00000000000E+00  0.00000000000E+00  0.16367978336E+04  0.16367978336E+04  0.00000000000E+00 0. -1.
         21   -1    0    0  501  503 -0.00000000000E+00 -0.00000000000E+00 -0.68310317502E+03  0.68310317502E+03  0.00000000000E+00 0. -1.
    9000010    2    1    2  501    0 -0.82668417125E+02  0.65546716286E+01  0.13147360710E+03  0.10399090383E+04  0.10282258836E+04 0.  0.
   -9000010    2    1    2    0  502  0.82668417125E+02 -0.65546716286E+01  0.82222105148E+03  0.12799919703E+04  0.97747376217E+03 0.  0.
        -13    1    3    3    0    0  0.20017909434E+03 -0.11532641857E+03 -0.37891753649E+03  0.44379090037E+03  0.10566000000E+00 0.  1.
          4    1    3    3  501    0 -0.28284751147E+03  0.12188109020E+03  0.51039114359E+03  0.59611813791E+03  0.00000000000E+00 0.  1.
         13    1    4    4    0    0  0.36983367511E+03 -0.30864558656E+03  0.69232836659E+03  0.84342019403E+03  0.10566000000E+00 0. -1.
         -4    1    4    4    0  502 -0.28716525798E+03  0.30209091494E+03  0.12989268489E+03  0.43657177631E+03  0.00000000000E+00 0. -1.
<mgrwt>
<rscale>  2 0.10186804E+04</rscale>
<asrwt>0</asrwt>
<pdfrwt beam="1">  1       21 0.25181505E+00 0.10315646E+04</pdfrwt>
<pdfrwt beam="2">  1       21 0.10509280E+00 0.10315646E+04</pdfrwt>
<totfact> 0.20470615E+01</totfact>
</mgrwt>
</event>
<event>
 8    1  0.7418332E-006  0.1233703E+04  0.7818608E-02  0.8582746E-01
         21   -1    0    0  503  502  0.00000000000E+00  0.00000000000E+00  0.26421091843E+04  0.26421091843E+04  0.00000000000E+00 0. -1.
         21   -1    0    0  501  503 -0.00000000000E+00 -0.00000000000E+00 -0.60791419083E+03  0.60791419083E+03  0.00000000000E+00 0. -1.
    9000010    2    1    2  501    0  0.65809389504E+03 -0.23398647204E+03  0.63094491858E+03  0.13856817767E+04  0.10169489919E+04 0.  0.
   -9000010    2    1    2    0  502 -0.65809389504E+03  0.23398647204E+03  0.14032500748E+04  0.18643415984E+04  0.10093669200E+04 0.  0.
        -13    1    3    3    0    0 -0.13896375520E+03 -0.38674255906E+03  0.30201236907E+03  0.50999236708E+03  0.10566000000E+00 0.  1.
          4    1    3    3  501    0  0.79705765024E+03  0.15275608702E+03  0.32893254952E+03  0.87568940958E+03  0.00000000000E+00 0.  1.
         13    1    4    4    0    0 -0.73463592904E+02  0.35887405853E+03  0.11642467552E+04  0.12205154680E+04  0.10566000000E+00 0. -1.
         -4    1    4    4    0  502 -0.58463030214E+03 -0.12488758649E+03  0.23900331959E+03  0.64382613042E+03  0.00000000000E+00 0. -1.
<mgrwt>
<rscale>  2 0.12321392E+04</rscale>
<asrwt>0</asrwt>
<pdfrwt beam="1">  1       21 0.40647833E+00 0.12337028E+04</pdfrwt>
<pdfrwt beam="2">  1       21 0.93525262E-01 0.12337028E+04</pdfrwt>
<totfact> 0.21560359E+00</totfact>
</mgrwt>
</event>
<event>
 8    1  0.7418332E-006  0.1163825E+04  0.7818608E-02  0.8635465E-01
         21   -1    0    0  503  502  0.00000000000E+00  0.00000000000E+00  0.35776318436E+04  0.35776318436E+04  0.00000000000E+00 0. -1.
         21   -1    0    0  501  503 -0.00000000000E+00 -0.00000000000E+00 -0.76706821795E+03  0.76706821795E+03  0.00000000000E+00 0. -1.
    9000010    2    1    2  501    0 -0.58463388768E+03 -0.67375889804E+02 -0.14269929699E+03  0.11725406047E+04  0.10040677702E+04 0.  0.
   -9000010    2    1    2    0  502  0.58463388768E+03  0.67375889804E+02  0.29532629226E+04  0.31721594568E+04  0.99724492280E+03 0.  0.
        -13    1    3    3    0    0 -0.56316574002E+03  0.26700215716E+03  0.23640794200E+03  0.66658422489E+03  0.10566000000E+00 0.  1.
          4    1    3    3  501    0 -0.21468147656E+02 -0.33437804697E+03 -0.37910723899E+03  0.50595637985E+03  0.00000000000E+00 0.  1.
         13    1    4    4    0    0 -0.10429049721E+03 -0.23946152657E+03  0.16153413351E+04  0.16363208642E+04  0.10566000000E+00 0. -1.
         -4    1    4    4    0  502  0.68892438489E+03  0.30683741637E+03  0.13379215875E+04  0.15358385926E+04  0.00000000000E+00 0. -1.
<mgrwt>
<rscale>  2 0.11623518E+04</rscale>
<asrwt>0</asrwt>
<pdfrwt beam="1">  1       21 0.55040489E+00 0.11638249E+04</pdfrwt>
<pdfrwt beam="2">  1       21 0.11801050E+00 0.11638249E+04</pdfrwt>
<totfact> 0.11555994E-01</totfact>
</mgrwt>
</event>
<event>
 8    1  0.7418332E-006  0.1104169E+04  0.7818608E-02  0.8682607E-01
         21   -1    0    0  503  502  0.00000000000E+00  0.00000000000E+00  0.14191767863E+04  0.14191767863E+04  0.00000000000E+00 0.  1.
         21   -1    0    0  501  503 -0.00000000000E+00 -0.00000000000E+00 -0.90613686521E+03  0.90613686521E+03  0.00000000000E+00 0. -1.
    9000010    2    1    2  501    0 -0.28454335307E+03 -0.38437493940E+03 -0.10037477708E+02  0.11042142061E+04  0.99522823922E+03 0.  0.
   -9000010    2    1    2    0  502  0.28454335307E+03  0.38437493940E+03  0.52307739877E+03  0.12210994454E+04  0.99436657056E+03 0.  0.
        -13    1    3    3    0    0  0.23799234131E+02 -0.33286025332E+03  0.44248082572E+03  0.55421263435E+03  0.10566000000E+00 0.  1.
          4    1    3    3  501    0 -0.30834258720E+03 -0.51514686081E+02 -0.45251830343E+03  0.55000157172E+03  0.00000000000E+00 0.  1.
         13    1    4    4    0    0  0.17435465653E+03  0.29839624519E+03  0.82168238107E+03  0.89140440426E+03  0.10566000000E+00 0. -1.
         -4    1    4    4    0  502  0.11018869653E+03  0.85978694208E+02 -0.29860498230E+03  0.32969504114E+03  0.00000000000E+00 0. -1.
<mgrwt>
<rscale>  2 0.11039744E+04</rscale>
<asrwt>0</asrwt>
<pdfrwt beam="1">  1       21 0.21833489E+00 0.11041686E+04</pdfrwt>
<pdfrwt beam="2">  1       21 0.13940567E+00 0.11041686E+04</pdfrwt>
<totfact> 0.16092435E+01</totfact>
</mgrwt>
</event>
<event>
 8    1  0.7418332E-006  0.1119988E+04  0.7818608E-02  0.8688117E-01
         21   -1    0    0  501  502  0.00000000000E+00  0.00000000000E+00  0.19329337953E+04  0.19329337953E+04  0.00000000000E+00 0.  1.
         21   -1    0    0  502  503 -0.00000000000E+00 -0.00000000000E+00 -0.95108500024E+03  0.95108500024E+03  0.00000000000E+00 0.  1.
    9000010    2    1    2  501    0 -0.16652392826E+03 -0.29211532406E+03  0.13802820061E+04  0.17775126696E+04  0.10683217179E+04 0.  0.
   -9000010    2    1    2    0  503  0.16652392826E+03  0.29211532406E+03 -0.39843321111E+03  0.11065061259E+04  0.97598422203E+03 0.  0.
        -13    1    3    3    0    0 -0.12462025069E+03 -0.34174421615E+03  0.15519276720E+04  0.15939883395E+04  0.10566000000E+00 0.  1.
          4    1    3    3  501    0 -0.41903677572E+02  0.49628892091E+02 -0.17164566589E+03  0.18352433011E+03  0.00000000000E+00 0.  1.
         13    1    4    4    0    0 -0.77514308193E+02  0.44075238110E+03 -0.60600129702E+03  0.75333174138E+03  0.10566000000E+00 0. -1.
         -4    1    4    4    0  503  0.24403823646E+03 -0.14863705704E+03  0.20756808591E+03  0.35317438450E+03  0.00000000000E+00 0. -1.
<mgrwt>
<rscale>  2 0.10973865E+04</rscale>
<asrwt>0</asrwt>
<pdfrwt beam="1">  1       21 0.29737443E+00 0.11199879E+04</pdfrwt>
<pdfrwt beam="2">  1       21 0.14632077E+00 0.11199879E+04</pdfrwt>
<totfact> 0.36973968E+00</totfact>
</mgrwt>
</event>
<event>
 8    1  0.7418332E-006  0.1051574E+04  0.7818608E-02  0.8734853E-01
         21   -1    0    0  501  502  0.00000000000E+00  0.00000000000E+00  0.11601271838E+04  0.11601271838E+04  0.00000000000E+00 0.  1.
         21   -1    0    0  502  503 -0.00000000000E+00 -0.00000000000E+00 -0.10392452673E+04  0.10392452673E+04  0.00000000000E+00 0.  1.
    9000010    2    1    2  501    0  0.10537931293E+03 -0.22204779266E+03  0.42561448251E+03  0.11045349500E+04  0.98916113263E+03 0.  0.
   -9000010    2    1    2    0  503 -0.10537931293E+03  0.22204779266E+03 -0.30473256597E+03  0.10948375011E+04  0.10224466710E+04 0.  0.
        -13    1    3    3    0    0  0.49377537167E+03  0.17172666249E+02  0.41980810083E+03  0.64834240245E+03  0.10566000000E+00 0.  1.
          4    1    3    3  501    0 -0.38839605874E+03 -0.23922045891E+03  0.58063816770E+01  0.45619254759E+03  0.00000000000E+00 0.  1.
         13    1    4    4    0    0 -0.25993960631E+03 -0.35049313495E+03 -0.24071737366E+03  0.49835619965E+03  0.10566000000E+00 0. -1.
         -4    1    4    4    0  503  0.15456029338E+03  0.57254092762E+03 -0.64015192313E+02  0.59648130141E+03  0.00000000000E+00 0. -1.
<mgrwt>
<rscale>  2 0.10433953E+04</rscale>
<asrwt>0</asrwt>
<pdfrwt beam="1">  1       21 0.17848111E+00 0.10515737E+04</pdfrwt>
<pdfrwt beam="2">  1       21 0.15988389E+00 0.10515737E+04</pdfrwt>
<totfact> 0.21946561E+01</totfact>
</mgrwt>
</event>
<event>
 8    1  0.7418332E-006  0.1132605E+04  0.7818608E-02  0.8675003E-01
         21   -1    0    0  503  502  0.00000000000E+00  0.00000000000E+00  0.10542407775E+04  0.10542407775E+04  0.00000000000E+00 0.  1.
         21   -1    0    0  501  503 -0.00000000000E+00 -0.00000000000E+00 -0.12849830275E+04  0.12849830275E+04  0.00000000000E+00 0.  1.
    9000010    2    1    2  501    0  0.51386038669E+03  0.95566456288E+02 -0.51606217071E+03  0.12446345519E+04  0.10047932917E+04 0.  0.
   -9000010    2    1    2    0  502 -0.51386038669E+03 -0.95566456288E+02  0.28531992069E+03  0.10945892531E+04  0.91844037978E+03 0.  0.
        -13    1    3    3    0    0  0.66588316405E+03  0.19118882874E+02 -0.71875341720E+03  0.97998592120E+03  0.10566000000E+00 0.  1.
          4    1    3    3  501    0 -0.15202277736E+03  0.76447573414E+02  0.20269124649E+03  0.26464863068E+03  0.00000000000E+00 0.  1.
         13    1    4    4    0    0 -0.56740856087E+03  0.16552167863E+03  0.48255235605E+03  0.76302469720E+03  0.10566000000E+00 0. -1.
         -4    1    4    4    0  502  0.53548174178E+02 -0.26108813492E+03 -0.19723243536E+03  0.33156455587E+03  0.00000000000E+00 0. -1.
<mgrwt>
<rscale>  2 0.11131455E+04</rscale>
<asrwt>0</asrwt>
<pdfrwt beam="1">  1       21 0.16219089E+00 0.11326054E+04</pdfrwt>
<pdfrwt beam="2">  1       21 0.19768970E+00 0.11326054E+04</pdfrwt>
<totfact> 0.14446505E+01</totfact>
</mgrwt>
</event>
<event>
 8    1  0.7418332E-006  0.1124841E+04  0.7818608E-02  0.8691800E-01
         21   -1    0    0  503  502  0.00000000000E+00  0.00000000000E+00  0.36005006571E+04  0.36005006571E+04  0.00000000000E+00 0.  1.
         21   -1    0    0  501  503 -0.00000000000E+00 -0.00000000000E+00 -0.46755278045E+03  0.46755278045E+03  0.00000000000E+00 0.  1.
    9000010    2    1    2  501    0  0.11185637979E+03  0.51322573772E+03  0.34295168843E+03  0.10598401624E+04  0.85424399428E+03 0.  0.
   -9000010    2    1    2    0  502 -0.11185637979E+03 -0.51322573772E+03  0.27899961883E+04  0.30082132752E+04  0.99466369731E+03 0.  0.
        -13    1    3    3    0    0  0.44922916230E+03  0.36284652820E+03  0.34289443727E+02  0.57848095941E+03  0.10566000000E+00 0.  1.
          4    1    3    3  501    0 -0.33737278251E+03  0.15037920952E+03  0.30866224471E+03  0.48135920303E+03  0.00000000000E+00 0.  1.
         13    1    4    4    0    0  0.10901458385E+03  0.49123258390E+01 -0.44828469653E+02  0.11797420604E+03  0.10566000000E+00 0. -1.
         -4    1    4    4    0  502 -0.22087096364E+03 -0.51813806355E+03  0.28348246579E+04  0.28902390691E+04  0.00000000000E+00 0. -1.
<mgrwt>
<rscale>  2 0.10930099E+04</rscale>
<asrwt>0</asrwt>
<pdfrwt beam="1">  1       21 0.55392316E+00 0.11248415E+04</pdfrwt>
<pdfrwt beam="2">  1       21 0.71931200E-01 0.11248415E+04</pdfrwt>
<totfact> 0.39194813E-01</totfact>
</mgrwt>
</event>
<event>
 8    1  0.7418332E-006  0.1010051E+04  0.7818608E-02  0.8778597E-01
         21   -1    0    0  501  502  0.00000000000E+00  0.00000000000E+00  0.71673070767E+03  0.71673070767E+03  0.00000000000E+00 0. -1.
         21   -1    0    0  502  503 -0.00000000000E+00 -0.00000000000E+00 -0.13483764570E+04  0.13483764570E+04  0.00000000000E+00 0. -1.
    9000010    2    1    2  501    0  0.11137062459E+03  0.13986495110E+03 -0.27777724035E+03  0.10475506330E+04  0.99410085649E+03 0.  0.
   -9000010    2    1    2    0  503 -0.11137062459E+03 -0.13986495110E+03 -0.35386850893E+03  0.10175565316E+04  0.93714073270E+03 0.  0.
        -13    1    3    3    0    0 -0.21354706503E+03  0.21717221568E+03  0.26931614200E+03  0.40656772590E+03  0.10566000000E+00 0.  1.
          4    1    3    3  501    0  0.32491768962E+03 -0.77307264574E+02 -0.54709338235E+03  0.64098290710E+03  0.00000000000E+00 0.  1.
         13    1    4    4    0    0  0.32291314735E+03 -0.33464596738E+03 -0.91108287075E+02  0.47387926242E+03  0.10566000000E+00 0. -1.
         -4    1    4    4    0  503 -0.43428377193E+03  0.19478101628E+03 -0.26276022186E+03  0.54367726921E+03  0.00000000000E+00 0. -1.
<mgrwt>
<rscale>  2 0.99574777E+03</rscale>
<asrwt>0</asrwt>
<pdfrwt beam="1">  1       21 0.11026626E+00 0.10100506E+04</pdfrwt>
<pdfrwt beam="2">  1       21 0.20744253E+00 0.10100506E+04</pdfrwt>
<totfact> 0.38699060E+01</totfact>
</mgrwt>
</event>
<event>
 8    1  0.7418332E-006  0.1081519E+04  0.7818608E-02  0.8705848E-01
         21   -1    0    0  503  502  0.00000000000E+00  0.00000000000E+00  0.16780912280E+04  0.16780912280E+04  0.00000000000E+00 0. -1.
         21   -1    0    0  501  503 -0.00000000000E+00 -0.00000000000E+00 -0.95273527280E+03  0.95273527280E+03  0.00000000000E+00 0. -1.
    9000010    2    1    2  501    0  0.85776835588E+01 -0.39910986167E+03 -0.33798469772E+03  0.11141268941E+04  0.98370870786E+03 0.  0.
   -9000010    2    1    2    0  502 -0.85776835588E+01  0.39910986167E+03  0.10633406529E+04  0.15166996067E+04  0.10051477973E+04 0.  0.
        -13    1    3    3    0    0 -0.41286523329E+03 -0.35952853768E+03  0.36875253548E+02  0.54870599208E+03  0.10566000000E+00 0.  1.
          4    1    3    3  501    0  0.42144291685E+03 -0.39581323996E+02 -0.37485995127E+03  0.56542090201E+03  0.00000000000E+00 0.  1.
         13    1    4    4    0    0 -0.67717336167E+02 -0.45844475332E+02  0.10646943660E+04  0.10678302570E+04  0.10566000000E+00 0. -1.
         -4    1    4    4    0  502  0.59139652609E+02  0.44495433700E+03 -0.13537131499E+01  0.44886934967E+03  0.00000000000E+00 0. -1.
<mgrwt>
<rscale>  2 0.10765109E+04</rscale>
<asrwt>0</asrwt>
<pdfrwt beam="1">  1       21 0.25816788E+00 0.10815195E+04</pdfrwt>
<pdfrwt beam="2">  1       21 0.14657466E+00 0.10815195E+04</pdfrwt>
<totfact> 0.70706036E+00</totfact>
</mgrwt>
</event>
<event>
 8    1  0.7418332E-006  0.1069024E+04  0.7818608E-02  0.8744409E-01
         21   -1    0    0  503  502  0.00000000000E+00  0.00000000000E+00  0.13976163753E+04  0.13976163753E+04  0.00000000000E+00 0.  1.
         21   -1    0    0  501  503 -0.00000000000E+00 -0.00000000000E+00 -0.10588441269E+04  0.10588441269E+04  0.00000000000E+00 0.  1.
    9000010    2    1    2  501    0  0.34850557463E+03 -0.23379883172E+03 -0.52086124754E+03  0.11891626792E+04  0.98320567998E+03 0.  0.
   -9000010    2    1    2    0  502 -0.34850557463E+03  0.23379883172E+03  0.85963349594E+03  0.12672978230E+04  0.83123762883E+03 0.  0.
        -13    1    3    3    0    0  0.39555848872E+03 -0.18753371940E+03 -0.79480322459E+03  0.90738502903E+03  0.10566000000E+00 0.  1.
          4    1    3    3  501    0 -0.47052914086E+02 -0.46265112322E+02  0.27394197706E+03  0.28177765017E+03  0.00000000000E+00 0.  1.
         13    1    4    4    0    0 -0.55095063337E+03  0.38174142681E+03  0.53806847483E+03  0.85952941318E+03  0.10566000000E+00 0. -1.
         -4    1    4    4    0  502  0.20244505874E+03 -0.14794259508E+03  0.32156502112E+03  0.40776840983E+03  0.00000000000E+00 0. -1.
<mgrwt>
<rscale>  2 0.10327554E+04</rscale>
<asrwt>0</asrwt>
<pdfrwt beam="1">  1       21 0.21501790E+00 0.10690236E+04</pdfrwt>
<pdfrwt beam="2">  1       21 0.16289910E+00 0.10690236E+04</pdfrwt>
<totfact> 0.10619037E+01</totfact>
</mgrwt>
</event>
<event>
 8    1  0.7418332E-006  0.1032885E+04  0.7818608E-02  0.8749554E-01
         21   -1    0    0  501  502  0.00000000000E+00  0.00000000000E+00  0.15346412245E+04  0.15346412245E+04  0.00000000000E+00 0. -1.
         21   -1    0    0  502  503 -0.00000000000E+00 -0.00000000000E+00 -0.73014891532E+03  0.73014891532E+03  0.00000000000E+00 0. -1.
    9000010    2    1    2  501    0 -0.20833593149E+03  0.55911722387E+02  0.69544561923E+03  0.12261651531E+04  0.98656291856E+03 0.  0.
   -9000010    2    1    2    0  503  0.20833593149E+03 -0.55911722387E+02  0.10904668991E+03  0.10386249867E+04  0.10101092522E+04 0.  0.
        -13    1    3    3    0    0 -0.57098311033E+03  0.11051365099E+03  0.62313673063E+03  0.85236985843E+03  0.10566000000E+00 0.  1.
          4    1    3    3  501    0  0.36264717884E+03 -0.54601928604E+02  0.72308888601E+02  0.37379529465E+03  0.00000000000E+00 0.  1.
         13    1    4    4    0    0 -0.37343193033E+03 -0.39865137005E+02  0.23519360546E+03  0.44312151714E+03  0.10566000000E+00 0. -1.
         -4    1    4    4    0  503  0.58176786182E+03 -0.16046585382E+02 -0.12614691556E+03  0.59550346956E+03  0.00000000000E+00 0. -1.
<mgrwt>
<rscale>  2 0.10270821E+04</rscale>
<asrwt>0</asrwt>
<pdfrwt beam="1">  1       21 0.23609865E+00 0.10328846E+04</pdfrwt>
<pdfrwt beam="2">  1       21 0.11233060E+00 0.10328846E+04</pdfrwt>
<totfact> 0.22283788E+01</totfact>
</mgrwt>
</event>
<event>
 8    1  0.7418332E-006  0.1020273E+04  0.7818608E-02  0.8765351E-01
         21   -1    0    0  501  502  0.00000000000E+00  0.00000000000E+00  0.83586193907E+03  0.83586193907E+03  0.00000000000E+00 0.  1.
         21   -1    0    0  502  503 -0.00000000000E+00 -0.00000000000E+00 -0.16598173819E+04  0.16598173819E+04  0.00000000000E+00 0.  1.
    9000010    2    1    2  501    0  0.36149494033E+02 -0.18023840763E+03  0.25365622456E+03  0.10116967066E+04  0.96197509140E+03 0.  0.
   -9000010    2    1    2    0  503 -0.36149494033E+02  0.18023840763E+03 -0.10776116674E+04  0.14839826143E+04  0.10035760183E+04 0.  0.
        -13    1    3    3    0    0 -0.28097861508E+03 -0.16767597569E+02  0.50301296116E+03  0.57641320658E+03  0.10566000000E+00 0.  1.
          4    1    3    3  501    0  0.31712810911E+03 -0.16347081006E+03 -0.24935673661E+03  0.43528350006E+03  0.00000000000E+00 0.  1.
         13    1    4    4    0    0  0.42105106405E+03 -0.72431123388E+02 -0.76219333218E+03  0.87376710453E+03  0.10566000000E+00 0. -1.
         -4    1    4    4    0  503 -0.45720055808E+03  0.25266953102E+03 -0.31541833523E+03  0.61021550981E+03  0.00000000000E+00 0. -1.
<mgrwt>
<rscale>  2 0.10098930E+04</rscale>
<asrwt>0</asrwt>
<pdfrwt beam="1">  1       21 0.12859415E+00 0.10202732E+04</pdfrwt>
<pdfrwt beam="2">  1       21 0.25535652E+00 0.10202732E+04</pdfrwt>
<totfact> 0.11072981E+01</totfact>
</mgrwt>
</event>
<event>
 8    1  0.7418332E-006  0.1155574E+04  0.7818608E-02  0.8674182E-01
         21   -1    0    0  503  502  0.00000000000E+00  0.00000000000E+00  0.13719302215E+04  0.13719302215E+04  0.00000000000E+00 0. -1.
         21   -1    0    0  501  503 -0.00000000000E+00 -0.00000000000E+00 -0.84717933069E+03  0.84717933069E+03  0.00000000000E+00 0. -1.
    9000010    2    1    2  501    0  0.12617499525E+03 -0.44628086589E+02  0.23317089651E+03  0.11788633840E+04  0.11477972015E+04 0.  0.
   -9000010    2    1    2    0  502 -0.12617499525E+03  0.44628086589E+02  0.29157999428E+03  0.10402461682E+04  0.98953595273E+03 0.  0.
        -13    1    3    3    0    0 -0.24268436522E+03 -0.16571225164E+03  0.58517410332E+03  0.65481676355E+03  0.10566000000E+00 0.  1.
          4    1    3    3  501    0  0.36885936047E+03  0.12108416505E+03 -0.35200320681E+03  0.52404662048E+03  0.00000000000E+00 0.  1.
         13    1    4    4    0    0  0.20106150241E+02  0.32999559243E+03  0.54097981130E+03  0.63400356127E+03  0.10566000000E+00 0. -1.
         -4    1    4    4    0  502 -0.14628114549E+03 -0.28536750584E+03 -0.24939981702E+03  0.40624260688E+03  0.00000000000E+00 0. -1.
<mgrwt>
<rscale>  2 0.11141410E+04</rscale>
<asrwt>0</asrwt>
<pdfrwt beam="1">  1       21 0.21106619E+00 0.11555735E+04</pdfrwt>
<pdfrwt beam="2">  1       21 0.13033528E+00 0.11555735E+04</pdfrwt>
<totfact> 0.22035248E+01</totfact>
</mgrwt>
</event>
<event>
 8    1  0.7418332E-006  0.1028671E+04  0.7818608E-02  0.8749447E-01
         21   -1    0    0  501  502  0.00000000000E+00  0.00000000000E+00  0.84376041539E+03  0.84376041539E+03  0.00000000000E+00 0.  1.
         21   -1    0    0  502  503 -0.00000000000E+00 -0.00000000000E+00 -0.13294208793E+04  0.13294208793E+04  0.00000000000E+00 0.  1.
    9000010    2    1    2  501    0 -0.25039154758E+02  0.23100410882E+03  0.27145767894E+02  0.10290294240E+04  0.10020852285E+04 0.  0.
   -9000010    2    1    2    0  503  0.25039154758E+02 -0.23100410882E+03 -0.51280623178E+03  0.11441518706E+04  0.99605392132E+03 0.  0.
        -13    1    3    3    0    0 -0.14010756709E+03  0.27442679148E+03  0.47411802639E+03  0.56544505334E+03  0.10566000000E+00 0.  1.
          4    1    3    3  501    0  0.11506841233E+03 -0.43422682659E+02 -0.44697225849E+03  0.46358437069E+03  0.00000000000E+00 0.  1.
         13    1    4    4    0    0 -0.40628625460E+03 -0.31124646650E+03 -0.48410839928E+03  0.70448835122E+03  0.10566000000E+00 0. -1.
         -4    1    4    4    0  503  0.43132540935E+03  0.80242357684E+02 -0.28697832493E+02  0.43966351942E+03  0.00000000000E+00 0. -1.
<mgrwt>
<rscale>  2 0.10271995E+04</rscale>
<asrwt>0</asrwt>
<pdfrwt beam="1">  1       21 0.12980930E+00 0.10286713E+04</pdfrwt>
<pdfrwt beam="2">  1       21 0.20452629E+00 0.10286713E+04</pdfrwt>
<totfact> 0.25721669E+01</totfact>
</mgrwt>
</event>
<event>
 8    1  0.7418332E-006  0.1027899E+04  0.7818608E-02  0.8750630E-01
         21   -1    0    0  503  502  0.00000000000E+00  0.00000000000E+00  0.10047471994E+04  0.10047471994E+04  0.00000000000E+00 0. -1.
         21   -1    0    0  501  503 -0.00000000000E+00 -0.00000000000E+00 -0.12234313429E+04  0.12234313429E+04  0.00000000000E+00 0. -1.
    9000010    2    1    2  501    0 -0.11523453277E+03  0.19932119905E+03 -0.53701910583E+03  0.11597265379E+04  0.10017825037E+04 0.  0.
   -9000010    2    1    2    0  502  0.11523453277E+03 -0.19932119905E+03  0.31833496236E+03  0.10684520044E+04  0.99360183145E+03 0.  0.
        -13    1    3    3    0    0 -0.47679531289E+03 -0.16424955023E+03 -0.35038272146E+03  0.61406819475E+03  0.10566000000E+00 0.  1.
          4    1    3    3  501    0  0.36156078012E+03  0.36357074928E+03 -0.18663638437E+03  0.54565834313E+03  0.00000000000E+00 0.  1.
         13    1    4    4    0    0 -0.11865360643E+03 -0.30694812568E+03 -0.27037242482E+03  0.42590737190E+03  0.10566000000E+00 0. -1.
         -4    1    4    4    0  502  0.23388813920E+03  0.10762692663E+03  0.58870738718E+03  0.64254463247E+03  0.00000000000E+00 0. -1.
<mgrwt>
<rscale>  2 0.10259003E+04</rscale>
<asrwt>0</asrwt>
<pdfrwt beam="1">  1       21 0.15457649E+00 0.10278989E+04</pdfrwt>
<pdfrwt beam="2">  1       21 0.18822021E+00 0.10278989E+04</pdfrwt>
<totfact> 0.20465962E+01</totfact>
</mgrwt>
</event>
<event>
 8    1  0.7418332E-006  0.1197820E+04  0.7818608E-02  0.8624345E-01
         21   -1    0    0  503  502  0.00000000000E+00  0.00000000000E+00  0.27210164836E+04  0.27210164836E+04  0.00000000000E+00 0.  1.
         21   -1    0    0  501  503 -0.00000000000E+00 -0.00000000000E+00 -0.50620488077E+03  0.50620488077E+03  0.00000000000E+00 0.  1.
    9000010    2    1    2  501    0 -0.35222967921E+03 -0.56431819740E+03  0.79556296438E+03  0.13700625571E+04  0.89533803967E+03 0.  0.
   -9000010    2    1    2    0  502  0.35222967921E+03  0.56431819740E+03  0.14192486385E+04  0.18571588073E+04  0.99611814700E+03 0.  0.
        -13    1    3    3    0    0 -0.18100461927E+03 -0.85914848420E+02  0.83662700544E+03  0.86028413374E+03  0.10566000000E+00 0.  1.
          4    1    3    3  501    0 -0.17122505994E+03 -0.47840334898E+03 -0.41064041060E+02  0.50977842337E+03  0.00000000000E+00 0.  1.
         13    1    4    4    0    0  0.36410681992E+03  0.75569059580E+03  0.64119690591E+03  0.10558293121E+04  0.10566000000E+00 0. -1.
         -4    1    4    4    0  502 -0.11877140711E+02 -0.19137239840E+03  0.77805173257E+03  0.80132949521E+03  0.00000000000E+00 0. -1.
<mgrwt>
<rscale>  2 0.11766647E+04</rscale>
<asrwt>0</asrwt>
<pdfrwt beam="1">  1       21 0.41861791E+00 0.11978197E+04</pdfrwt>
<pdfrwt beam="2">  1       21 0.77877675E-01 0.11978197E+04</pdfrwt>
<totfact> 0.28385135E+00</totfact>
</mgrwt>
</event>
<event>
 8    1  0.7418332E-006  0.1220300E+04  0.7818608E-02  0.8601671E-01
         21   -1    0    0  501  502  0.00000000000E+00  0.00000000000E+00  0.92508146525E+03  0.92508146525E+03  0.00000000000E+00 0. -1.
         21   -1    0    0  502  503 -0.00000000000E+00 -0.00000000000E+00 -0.19841036189E+04  0.19841036189E+04  0.00000000000E+00 0. -1.
    9000010    2    1    2  501    0  0.61376124409E+03  0.14802196371E+03 -0.12276409505E+04  0.17309635171E+04  0.10442791904E+04 0.  0.
   -9000010    2    1    2    0  503 -0.61376124409E+03 -0.14802196371E+03  0.16861879680E+03  0.11782215671E+04  0.98038788047E+03 0.  0.
        -13    1    3    3    0    0  0.57778459615E+03 -0.23298351645E+03 -0.11940391266E+04  0.13467909287E+04  0.10566000000E+00 0.  1.
          4    1    3    3  501    0  0.35976647940E+02  0.38100548016E+03 -0.33601823880E+02  0.38417258840E+03  0.00000000000E+00 0.  1.
         13    1    4    4    0    0 -0.55733786595E+03  0.49492727677E+02  0.52474877289E+03  0.76709602575E+03  0.10566000000E+00 0. -1.
         -4    1    4    4    0  503 -0.56423378136E+02 -0.19751469139E+03 -0.35612997609E+03  0.41112554139E+03  0.00000000000E+00 0. -1.
<mgrwt>
<rscale>  2 0.12065167E+04</rscale>
<asrwt>0</asrwt>
<pdfrwt beam="1">  1       21 0.14232023E+00 0.12203001E+04</pdfrwt>
<pdfrwt beam="2">  1       21 0.30524671E+00 0.12203001E+04</pdfrwt>
<totfact> 0.34593505E+00</totfact>
</mgrwt>
</event>
<event>
 8    1  0.7418332E-006  0.1026061E+04  0.7818608E-02  0.8757286E-01
         21   -1    0    0  503  502  0.00000000000E+00  0.00000000000E+00  0.10764755835E+04  0.10764755835E+04  0.00000000000E+00 0. -1.
         21   -1    0    0  501  503 -0.00000000000E+00 -0.00000000000E+00 -0.95075907649E+03  0.95075907649E+03  0.00000000000E+00 0. -1.
    9000010    2    1    2  501    0 -0.67251187724E+02 -0.48645167596E+02  0.38416023136E+02  0.10267798599E+04  0.10226983990E+04 0.  0.
   -9000010    2    1    2    0  502  0.67251187724E+02  0.48645167596E+02  0.87300483875E+02  0.10004548001E+04  0.99317639822E+03 0.  0.
        -13    1    3    3    0    0 -0.26945135688E+03 -0.40916399753E+03  0.26332713651E+03  0.55620176428E+03  0.10566000000E+00 0.  1.
          4    1    3    3  501    0  0.20220016916E+03  0.36051882994E+03 -0.22491111337E+03  0.47057809561E+03  0.00000000000E+00 0.  1.
         13    1    4    4    0    0 -0.44830587773E+03  0.62275835023E+02  0.15906615198E+03  0.47974836270E+03  0.10566000000E+00 0. -1.
         -4    1    4    4    0  502  0.51555706546E+03 -0.13630667427E+02 -0.71765668107E+02  0.52070643741E+03  0.00000000000E+00 0. -1.
<mgrwt>
<rscale>  2 0.10186249E+04</rscale>
<asrwt>0</asrwt>
<pdfrwt beam="1">  1       21 0.16561163E+00 0.10260610E+04</pdfrwt>
<pdfrwt beam="2">  1       21 0.14627063E+00 0.10260610E+04</pdfrwt>
<totfact> 0.37264732E+01</totfact>
</mgrwt>
</event>
<event>
 8    1  0.7418332E-006  0.1000799E+04  0.7818608E-02  0.8775643E-01
         21   -1    0    0  501  502  0.00000000000E+00  0.00000000000E+00  0.11320553025E+04  0.11320553025E+04  0.00000000000E+00 0. -1.
         21   -1    0    0  502  503 -0.00000000000E+00 -0.00000000000E+00 -0.93693378637E+03  0.93693378637E+03  0.00000000000E+00 0. -1.
    9000010    2    1    2  501    0 -0.34174706392E+02 -0.27581434474E+02  0.35663430400E+03  0.10552409679E+04  0.99217782045E+03 0.  0.
   -9000010    2    1    2    0  503  0.34174706392E+02  0.27581434474E+02 -0.16151278791E+03  0.10137481210E+04  0.99983509941E+03 0.  0.
        -13    1    3    3    0    0  0.39183810571E+03  0.83148211827E+02  0.45294767767E+03  0.60465885927E+03  0.10566000000E+00 0.  1.
          4    1    3    3  501    0 -0.42601281210E+03 -0.11072964630E+03 -0.96313373668E+02  0.45058210860E+03  0.00000000000E+00 0.  1.
         13    1    4    4    0    0  0.20679803038E+03  0.47625066769E+03 -0.10480813567E+03  0.52968375500E+03  0.10566000000E+00 0. -1.
         -4    1    4    4    0  503 -0.17262332398E+03 -0.44866923321E+03 -0.56704652241E+02  0.48406436597E+03  0.00000000000E+00 0. -1.
<mgrwt>
<rscale>  2 0.99888115E+03</rscale>
<asrwt>0</asrwt>
<pdfrwt beam="1">  1       21 0.17416235E+00 0.10007991E+04</pdfrwt>
<pdfrwt beam="2">  1       21 0.14414366E+00 0.10007991E+04</pdfrwt>
<totfact> 0.33219071E+01</totfact>
</mgrwt>
</event>
<event>
 8    1  0.7418332E-006  0.1004835E+04  0.7818608E-02  0.8775563E-01
         21   -1    0    0  501  502  0.00000000000E+00  0.00000000000E+00  0.10211391863E+04  0.10211391863E+04  0.00000000000E+00 0.  1.
         21   -1    0    0  502  503 -0.00000000000E+00 -0.00000000000E+00 -0.10271759406E+04  0.10271759406E+04  0.00000000000E+00 0.  1.
    9000010    2    1    2  501    0 -0.67347774920E+02 -0.37850030255E+02 -0.25292561242E+03  0.10361782769E+04  0.10018611223E+04 0.  0.
   -9000010    2    1    2    0  503  0.67347774920E+02  0.37850030255E+02  0.24688885817E+03  0.10121368500E+04  0.97851854722E+03 0.  0.
        -13    1    3    3    0    0  0.14110292209E+03 -0.13898886240E+03  0.34340057100E+03  0.39642389159E+03  0.10566000000E+00 0.  1.
          4    1    3    3  501    0 -0.20845069701E+03  0.10113883215E+03 -0.59632618343E+03  0.63975438528E+03  0.00000000000E+00 0.  1.
         13    1    4    4    0    0  0.83717173236E+02  0.15449058594E+02 -0.37757693572E+03  0.38705502458E+03  0.10566000000E+00 0. -1.
         -4    1    4    4    0  503 -0.16369398316E+02  0.22400971662E+02  0.62446579388E+03  0.62508182541E+03  0.00000000000E+00 0. -1.
<mgrwt>
<rscale>  2 0.99896615E+03</rscale>
<asrwt>0</asrwt>
<pdfrwt beam="1">  1       21 0.15709834E+00 0.10048353E+04</pdfrwt>
<pdfrwt beam="2">  1       21 0.15802707E+00 0.10048353E+04</pdfrwt>
<totfact> 0.34873232E+01</totfact>
</mgrwt>
</event>
<event>
 8    1  0.7418332E-006  0.1048706E+04  0.7818608E-02  0.8731456E-01
         21   -1    0    0  501  502  0.00000000000E+00  0.00000000000E+00  0.12821170146E+04  0.12821170146E+04  0.00000000000E+00 0.  1.
         21   -1    0    0  502  503 -0.00000000000E+00 -0.00000000000E+00 -0.87043756446E+03  0.87043756446E+03  0.00000000000E+00 0.  1.
    9000010    2    1    2  501    0  0.30139959284E+03 -0.36352022638E+02  0.53674241603E+02  0.10500786131E+04  0.10038032603E+04 0.  0.
   -9000010    2    1    2    0  503 -0.30139959284E+03  0.36352022638E+02  0.35800520856E+03  0.11024759660E+04  0.99755818983E+03 0.  0.
        -13    1    3    3    0    0  0.67305513519E+03 -0.62053383841E+02  0.23556144744E+02  0.67631999864E+03  0.10566000000E+00 0.  1.
          4    1    3    3  501    0 -0.37165554235E+03  0.25701361203E+02  0.30118096859E+02  0.37375861446E+03  0.00000000000E+00 0.  1.
         13    1    4    4    0    0 -0.45963723485E+02 -0.37109718662E+03  0.47795002396E+03  0.60684596263E+03  0.10566000000E+00 0. -1.
         -4    1    4    4    0  503 -0.25543586935E+03  0.40744920926E+03 -0.11994481541E+03  0.49563000335E+03  0.00000000000E+00 0. -1.
<mgrwt>
<rscale>  2 0.10472087E+04</rscale>
<asrwt>0</asrwt>
<pdfrwt beam="1">  1       21 0.19724877E+00 0.10487059E+04</pdfrwt>
<pdfrwt beam="2">  1       21 0.13391347E+00 0.10487059E+04</pdfrwt>
<totfact> 0.26655867E+01</totfact>
</mgrwt>
</event>
<event>
 8    1  0.7418332E-006  0.1082974E+04  0.7818608E-02  0.8702002E-01
         21   -1    0    0  503  502  0.00000000000E+00  0.00000000000E+00  0.45065221241E+03  0.45065221241E+03  0.00000000000E+00 0.  1.
         21   -1    0    0  501  503 -0.00000000000E+00 -0.00000000000E+00 -0.34030082345E+04  0.34030082345E+04  0.00000000000E+00 0.  1.
    9000010    2    1    2  501    0 -0.34309130663E+03 -0.26887373015E+03 -0.24175745259E+04  0.26458428220E+04  0.98275781506E+03 0.  0.
   -9000010    2    1    2    0  502  0.34309130663E+03  0.26887373015E+03 -0.53478149617E+03  0.12078176249E+04  0.99137653738E+03 0.  0.
        -13    1    3    3    0    0  0.16134190371E+03 -0.48211766938E+03 -0.91774460998E+03  0.10491538673E+04  0.10566000000E+00 0.  1.
          4    1    3    3  501    0 -0.50443321034E+03  0.21324393923E+03 -0.14998299159E+04  0.15966889547E+04  0.00000000000E+00 0.  1.
         13    1    4    4    0    0  0.57156524058E+01  0.59643192369E+03 -0.19446739282E+03  0.62736057121E+03  0.10566000000E+00 0. -1.
         -4    1    4    4    0  502  0.33737565423E+03 -0.32755819353E+03 -0.34031410335E+03  0.58045705367E+03  0.00000000000E+00 0. -1.
<mgrwt>
<rscale>  2 0.10809973E+04</rscale>
<asrwt>0</asrwt>
<pdfrwt beam="1">  1       21 0.69331111E-01 0.10829738E+04</pdfrwt>
<pdfrwt beam="2">  1       21 0.52353972E+00 0.10829738E+04</pdfrwt>
<totfact> 0.71408052E-01</totfact>
</mgrwt>
</event>
<event>
 8    1  0.7418332E-006  0.1053093E+04  0.7818608E-02  0.8730709E-01
         21   -1    0    0  503  502  0.00000000000E+00  0.00000000000E+00  0.95643117683E+03  0.95643117683E+03  0.00000000000E+00 0.  1.
         21   -1    0    0  501  503 -0.00000000000E+00 -0.00000000000E+00 -0.12873240379E+04  0.12873240379E+04  0.00000000000E+00 0.  1.
    9000010    2    1    2  501    0  0.24560566180E+02 -0.27038189536E+03 -0.54946759920E+03  0.11878212907E+04  0.10174945628E+04 0.  0.
   -9000010    2    1    2    0  502 -0.24560566180E+02  0.27038189536E+03  0.21857473814E+03  0.10559339240E+04  0.99675069353E+03 0.  0.
        -13    1    3    3    0    0  0.10128831475E+03 -0.36261981761E+03 -0.81427347705E+03  0.89710298261E+03  0.10566000000E+00 0.  1.
          4    1    3    3  501    0 -0.76727748567E+02  0.92237922248E+02  0.26480587784E+03  0.29071830806E+03  0.00000000000E+00 0.  1.
         13    1    4    4    0    0 -0.46067669597E+03  0.18979957154E+03  0.33129672995E+03  0.59833471402E+03  0.10566000000E+00 0. -1.
         -4    1    4    4    0  502  0.43611612979E+03  0.80582323821E+02 -0.11272199181E+03  0.45759921002E+03  0.00000000000E+00 0. -1.
<mgrwt>
<rscale>  2 0.10480496E+04</rscale>
<asrwt>0</asrwt>
<pdfrwt beam="1">  1       21 0.14714326E+00 0.10530930E+04</pdfrwt>
<pdfrwt beam="2">  1       21 0.19804985E+00 0.10530930E+04</pdfrwt>
<totfact> 0.19807192E+01</totfact>
</mgrwt>
</event>
<event>
 8    1  0.7418332E-006  0.1006804E+04  0.7818608E-02  0.8786933E-01
         21   -1    0    0  501  502  0.00000000000E+00  0.00000000000E+00  0.10425344815E+04  0.10425344815E+04  0.00000000000E+00 0.  1.
         21   -1    0    0  502  503 -0.00000000000E+00 -0.00000000000E+00 -0.97578671329E+03  0.97578671329E+03  0.00000000000E+00 0.  1.
    9000010    2    1    2  501    0 -0.32822863413E+02  0.28939966111E+02 -0.25012442100E+03  0.96283014055E+03  0.92874366300E+03 0.  0.
   -9000010    2    1    2    0  503  0.32822863413E+02 -0.28939966111E+02  0.31687218923E+03  0.10554910543E+04  0.10058521359E+04 0.  0.
        -13    1    3    3    0    0  0.32525792721E+03 -0.97676734990E+02  0.18380693672E+03  0.38615860074E+03  0.10566000000E+00 0.  1.
          4    1    3    3  501    0 -0.35808079063E+03  0.12661670110E+03 -0.43393135772E+03  0.57667153981E+03  0.00000000000E+00 0.  1.
         13    1    4    4    0    0  0.40149420294E+03 -0.46774902598E+02  0.50041379791E+03  0.64327246701E+03  0.10566000000E+00 0. -1.
         -4    1    4    4    0  503 -0.36867133953E+03  0.17834936487E+02 -0.18354160869E+03  0.41221858724E+03  0.00000000000E+00 0. -1.
<mgrwt>
<rscale>  2 0.98696761E+03</rscale>
<asrwt>0</asrwt>
<pdfrwt beam="1">  1       21 0.16038992E+00 0.10068035E+04</pdfrwt>
<pdfrwt beam="2">  1       21 0.15012103E+00 0.10068035E+04</pdfrwt>
<totfact> 0.38304506E+01</totfact>
</mgrwt>
</event>
<event>
 8    1  0.7418332E-006  0.1020657E+04  0.7818608E-02  0.8756363E-01
         21   -1    0    0  503  502  0.00000000000E+00  0.00000000000E+00  0.11978700998E+04  0.11978700998E+04  0.00000000000E+00 0.  1.
         21   -1    0    0  501  503 -0.00000000000E+00 -0.00000000000E+00 -0.98758059702E+03  0.98758059702E+03  0.00000000000E+00 0.  1.
    9000010    2    1    2  501    0 -0.16921257088E+03 -0.55102271016E+02  0.48846758264E+03  0.11315214721E+04  0.10050229391E+04 0.  0.
   -9000010    2    1    2    0  502  0.16921257088E+03  0.55102271016E+02 -0.27817807989E+03  0.10539292247E+04  0.10008569389E+04 0.  0.
        -13    1    3    3    0    0 -0.49176700143E+03 -0.99847608357E+02  0.60466932554E+03  0.78576671665E+03  0.10566000000E+00 0.  1.
          4    1    3    3  501    0  0.32255443055E+03  0.44745337341E+02 -0.11620174290E+03  0.34575475547E+03  0.00000000000E+00 0.  1.
         13    1    4    4    0    0 -0.23718262100E+03  0.36594937576E+03 -0.31951494002E+03  0.54061478835E+03  0.10566000000E+00 0. -1.
         -4    1    4    4    0  502  0.40639519188E+03 -0.31084710475E+03  0.41336860129E+02  0.51331443631E+03  0.00000000000E+00 0. -1.
<mgrwt>
<rscale>  2 0.10196297E+04</rscale>
<asrwt>0</asrwt>
<pdfrwt beam="1">  1       21 0.18428771E+00 0.10206568E+04</pdfrwt>
<pdfrwt beam="2">  1       21 0.15193548E+00 0.10206568E+04</pdfrwt>
<totfact> 0.23263201E+01</totfact>
</mgrwt>
</event>
<event>
 8    1  0.7418332E-006  0.1116953E+04  0.7818608E-02  0.8672564E-01
         21   -1    0    0  503  502  0.00000000000E+00  0.00000000000E+00  0.13643185562E+04  0.13643185562E+04  0.00000000000E+00 0. -1.
         21   -1    0    0  501  503 -0.00000000000E+00 -0.00000000000E+00 -0.10747960178E+04  0.10747960178E+04  0.00000000000E+00 0. -1.
    9000010    2    1    2  501    0  0.37831466730E+03 -0.34599494246E+03 -0.33016850484E+03  0.11647292619E+04  0.99234496232E+03 0.  0.
   -9000010    2    1    2    0  502 -0.37831466730E+03  0.34599494246E+03  0.61969104330E+03  0.12743853121E+04  0.98853752932E+03 0.  0.
        -13    1    3    3    0    0 -0.27850040426E+03  0.11217567163E+03 -0.46731136500E+01  0.30027937930E+03  0.10566000000E+00 0.  1.
          4    1    3    3  501    0  0.65681507157E+03 -0.45817061409E+03 -0.32549539119E+03  0.86444988261E+03  0.00000000000E+00 0.  1.
         13    1    4    4    0    0  0.31113036426E+03  0.28405813168E+03  0.24048262529E+03  0.48510105130E+03  0.10566000000E+00 0. -1.
         -4    1    4    4    0  502 -0.68944503156E+03  0.61936810779E+02  0.37920841801E+03  0.78928426081E+03  0.00000000000E+00 0. -1.
<mgrwt>
<rscale>  2 0.11161063E+04</rscale>
<asrwt>0</asrwt>
<pdfrwt beam="1">  1       21 0.20989516E+00 0.11169526E+04</pdfrwt>
<pdfrwt beam="2">  1       21 0.16535323E+00 0.11169526E+04</pdfrwt>
<totfact> 0.10953026E+01</totfact>
</mgrwt>
</event>
<event>
 8    1  0.7418332E-006  0.1078120E+04  0.7818608E-02  0.8708873E-01
         21   -1    0    0  503  502  0.00000000000E+00  0.00000000000E+00  0.14446495203E+04  0.14446495203E+04  0.00000000000E+00 0. -1.
         21   -1    0    0  501  503 -0.00000000000E+00 -0.00000000000E+00 -0.94363767584E+03  0.94363767584E+03  0.00000000000E+00 0. -1.
    9000010    2    1    2  501    0  0.38525339165E+03 -0.10407545766E+03 -0.23413505261E+03  0.10833798733E+04  0.97961260219E+03 0.  0.
   -9000010    2    1    2    0  502 -0.38525339165E+03  0.10407545766E+03  0.73514689706E+03  0.13049073228E+04  0.10015439502E+04 0.  0.
        -13    1    3    3    0    0  0.47355336920E+03  0.22023102359E+03 -0.44539353320E+03  0.68638903533E+03  0.10566000000E+00 0.  1.
          4    1    3    3  501    0 -0.88299977548E+02 -0.32430648126E+03  0.21125848060E+03  0.39699083798E+03  0.00000000000E+00 0.  1.
         13    1    4    4    0    0  0.21265363937E+03 -0.50496683862E+02 -0.12057036597E+03  0.24961712628E+03  0.10566000000E+00 0. -1.
         -4    1    4    4    0  502 -0.59790703102E+03  0.15457214152E+03  0.85571726302E+03  0.10552901965E+04  0.00000000000E+00 0. -1.
<mgrwt>
<rscale>  2 0.10729977E+04</rscale>
<asrwt>0</asrwt>
<pdfrwt beam="1">  1       21 0.22225377E+00 0.10781197E+04</pdfrwt>
<pdfrwt beam="2">  1       21 0.14517503E+00 0.10781197E+04</pdfrwt>
<totfact> 0.13385835E+01</totfact>
</mgrwt>
</event>
<event>
 8    1  0.7418332E-006  0.1067081E+04  0.7818608E-02  0.8720662E-01
         21   -1    0    0  503  502  0.00000000000E+00  0.00000000000E+00  0.45952007109E+03  0.45952007109E+03  0.00000000000E+00 0. -1.
         21   -1    0    0  501  503 -0.00000000000E+00 -0.00000000000E+00 -0.32357578092E+04  0.32357578092E+04  0.00000000000E+00 0. -1.
    9000010    2    1    2  501    0  0.25763631833E+03  0.11920624154E+03 -0.23075803905E+04  0.25298159871E+04  0.99722368072E+03 0.  0.
   -9000010    2    1    2    0  502 -0.25763631833E+03 -0.11920624154E+03 -0.46865734766E+03  0.11654618933E+04  0.10286277823E+04 0.  0.
        -13    1    3    3    0    0 -0.13844400881E+02 -0.34929778857E+03 -0.33466375020E+03  0.48394260961E+03  0.10566000000E+00 0.  1.
          4    1    3    3  501    0  0.27148071921E+03  0.46850403010E+03 -0.19729166403E+04  0.20458733775E+04  0.00000000000E+00 0.  1.
         13    1    4    4    0    0 -0.14254544319E+03  0.26203004268E+03  0.21952380072E+03  0.37036422194E+03  0.10566000000E+00 0. -1.
         -4    1    4    4    0  502 -0.11509087514E+03 -0.38123628422E+03 -0.68818114838E+03  0.79509767132E+03  0.00000000000E+00 0. -1.
<mgrwt>
<rscale>  2 0.10594396E+04</rscale>
<asrwt>0</asrwt>
<pdfrwt beam="1">  1       21 0.70695396E-01 0.10670809E+04</pdfrwt>
<pdfrwt beam="2">  1       21 0.49780889E+00 0.10670809E+04</pdfrwt>
<totfact> 0.10365647E+00</totfact>
</mgrwt>
</event>
<event>
 8    1  0.7418332E-006  0.1092943E+04  0.7818608E-02  0.8708131E-01
         21   -1    0    0  503  502  0.00000000000E+00  0.00000000000E+00  0.17296634710E+04  0.17296634710E+04  0.00000000000E+00 0.  1.
         21   -1    0    0  501  503 -0.00000000000E+00 -0.00000000000E+00 -0.87261921120E+03  0.87261921120E+03  0.00000000000E+00 0.  1.
    9000010    2    1    2  501    0  0.13428534191E+03  0.17785595866E+03 -0.22540343857E+03  0.11159435924E+04  0.10699804186E+04 0.  0.
   -9000010    2    1    2    0  502 -0.13428534191E+03 -0.17785595866E+03  0.10824476984E+04  0.14863390898E+04  0.99390420826E+03 0.  0.
        -13    1    3    3    0    0 -0.34162804876E+03 -0.49318759188E+02  0.23362026971E+03  0.41679791900E+03  0.10566000000E+00 0.  1.
          4    1    3    3  501    0  0.47591339066E+03  0.22717471785E+03 -0.45902370827E+03  0.69914567337E+03  0.00000000000E+00 0.  1.
         13    1    4    4    0    0 -0.15883632087E+02  0.33630169122E+03  0.84142024637E+03  0.90627763927E+03  0.10566000000E+00 0. -1.
         -4    1    4    4    0  502 -0.11840170982E+03 -0.51415764988E+03  0.24102745201E+03  0.58006145057E+03  0.00000000000E+00 0. -1.
<mgrwt>
<rscale>  2 0.10738585E+04</rscale>
<asrwt>0</asrwt>
<pdfrwt beam="1">  1       21 0.26610207E+00 0.10929425E+04</pdfrwt>
<pdfrwt beam="2">  1       21 0.13424911E+00 0.10929425E+04</pdfrwt>
<totfact> 0.80384843E+00</totfact>
</mgrwt>
</event>
<event>
 8    1  0.7418332E-006  0.1031111E+04  0.7818608E-02  0.8749129E-01
         21   -1    0    0  503  502  0.00000000000E+00  0.00000000000E+00  0.12081025281E+04  0.12081025281E+04  0.00000000000E+00 0. -1.
         21   -1    0    0  501  503 -0.00000000000E+00 -0.00000000000E+00 -0.96164284199E+03  0.96164284199E+03  0.00000000000E+00 0. -1.
    9000010    2    1    2  501    0 -0.32498639935E+02  0.21006989812E+03 -0.21608343862E+03  0.10396412478E+04  0.99447289959E+03 0.  0.
   -9000010    2    1    2    0  502  0.32498639935E+02 -0.21006989812E+03  0.46254312470E+03  0.11301041222E+04  0.10089616748E+04 0.  0.
        -13    1    3    3    0    0 -0.39752429753E+03  0.17005910608E+03 -0.43401540048E+03  0.61262961544E+03  0.10566000000E+00 0.  1.
          4    1    3    3  501    0  0.36502565760E+03  0.40010792044E+02  0.21793196186E+03  0.42701163238E+03  0.00000000000E+00 0.  1.
         13    1    4    4    0    0  0.39264743304E+03 -0.31397301911E+02 -0.12934043620E+03  0.41459227784E+03  0.10566000000E+00 0. -1.
         -4    1    4    4    0  502 -0.36014879311E+03 -0.17867259621E+03  0.59188356090E+03  0.71551184440E+03  0.00000000000E+00 0. -1.
<mgrwt>
<rscale>  2 0.10275490E+04</rscale>
<asrwt>0</asrwt>
<pdfrwt beam="1">  1       21 0.18586193E+00 0.10311107E+04</pdfrwt>
<pdfrwt beam="2">  1       21 0.14794505E+00 0.10311107E+04</pdfrwt>
<totfact> 0.24464420E+01</totfact>
</mgrwt>
</event>
<event>
 8    1  0.7418332E-006  0.1063412E+04  0.7818608E-02  0.8719852E-01
         21   -1    0    0  501  502  0.00000000000E+00  0.00000000000E+00  0.86119353883E+03  0.86119353883E+03  0.00000000000E+00 0. -1.
         21   -1    0    0  502  503 -0.00000000000E+00 -0.00000000000E+00 -0.14174349485E+04  0.14174349485E+04  0.00000000000E+00 0. -1.
    9000010    2    1    2  501    0  0.23772465292E+03 -0.21790339573E+03 -0.60713820055E+03  0.12139990339E+04  0.10005908051E+04 0.  0.
   -9000010    2    1    2    0  503 -0.23772465292E+03  0.21790339573E+03  0.50896790910E+02  0.10646294534E+04  0.10133363160E+04 0.  0.
        -13    1    3    3    0    0 -0.54437403460E+02 -0.39627216852E+03 -0.74450936175E+03  0.84515635438E+03  0.10566000000E+00 0.  1.
          4    1    3    3  501    0  0.29216205638E+03  0.17836877280E+03  0.13737116120E+03  0.36884267951E+03  0.00000000000E+00 0.  1.
         13    1    4    4    0    0 -0.25557979994E+03  0.47971117563E+03 -0.30436228319E+03  0.62296087899E+03  0.10566000000E+00 0. -1.
         -4    1    4    4    0  503  0.17855147019E+02 -0.26180777990E+03  0.35525907410E+03  0.44166857441E+03  0.00000000000E+00 0. -1.
<mgrwt>
<rscale>  2 0.10603645E+04</rscale>
<asrwt>0</asrwt>
<pdfrwt beam="1">  1       21 0.13249131E+00 0.10634121E+04</pdfrwt>
<pdfrwt beam="2">  1       21 0.21806691E+00 0.10634121E+04</pdfrwt>
<totfact> 0.18953399E+01</totfact>
</mgrwt>
</event>
<event>
 8    1  0.7418332E-006  0.1030780E+04  0.7818608E-02  0.8749894E-01
         21   -1    0    0  501  502  0.00000000000E+00  0.00000000000E+00  0.13427925659E+04  0.13427925659E+04  0.00000000000E+00 0.  1.
         21   -1    0    0  502  503 -0.00000000000E+00 -0.00000000000E+00 -0.11044983312E+04  0.11044983312E+04  0.00000000000E+00 0.  1.
    9000010    2    1    2  501    0 -0.89098894530E+02  0.12505188636E+03  0.78418851129E+03  0.12951676234E+04  0.10192796301E+04 0.  0.
   -9000010    2    1    2    0  503  0.89098894530E+02 -0.12505188636E+03 -0.54589427660E+03  0.11521232736E+04  0.10029012360E+04 0.  0.
        -13    1    3    3    0    0  0.29829705725E+03  0.41010714153E+03  0.21724777704E+03  0.55169340189E+03  0.10566000000E+00 0.  1.
          4    1    3    3  501    0 -0.38739595178E+03 -0.28505525517E+03  0.56694073425E+03  0.74347422155E+03  0.00000000000E+00 0.  1.
         13    1    4    4    0    0  0.20859971910E+03 -0.53997416668E+03 -0.26222189149E+03  0.63548900465E+03  0.10566000000E+00 0. -1.
         -4    1    4    4    0  503 -0.11950082457E+03  0.41492228032E+03 -0.28367238511E+03  0.51663426895E+03  0.00000000000E+00 0. -1.
<mgrwt>
<rscale>  2 0.10267078E+04</rscale>
<asrwt>0</asrwt>
<pdfrwt beam="1">  1       21 0.20658347E+00 0.10307801E+04</pdfrwt>
<pdfrwt beam="2">  1       21 0.16992282E+00 0.10307801E+04</pdfrwt>
<totfact> 0.10842415E+01</totfact>
</mgrwt>
</event>
<event>
 8    1  0.7418332E-006  0.1063222E+04  0.7818608E-02  0.8728438E-01
         21   -1    0    0  501  502  0.00000000000E+00  0.00000000000E+00  0.13859485229E+04  0.13859485229E+04  0.00000000000E+00 0.  1.
         21   -1    0    0  502  503 -0.00000000000E+00 -0.00000000000E+00 -0.10633748251E+04  0.10633748251E+04  0.00000000000E+00 0.  1.
    9000010    2    1    2  501    0 -0.33833831678E+03  0.17612628374E+03  0.79268425360E+03  0.12868066681E+04  0.93916441089E+03 0.  0.
   -9000010    2    1    2    0  503  0.33833831678E+03 -0.17612628374E+03 -0.47011055575E+03  0.11625166799E+04  0.99244536975E+03 0.  0.
        -13    1    3    3    0    0 -0.47937228749E+03 -0.80979072686E+02  0.85819290702E+03  0.98633182908E+03  0.10566000000E+00 0.  1.
          4    1    3    3  501    0  0.14103397072E+03  0.25710535643E+03 -0.65508653418E+02  0.30047483900E+03  0.00000000000E+00 0.  1.
         13    1    4    4    0    0  0.37741977851E+03 -0.55631437934E+03 -0.37033914021E+03  0.76751707982E+03  0.10566000000E+00 0. -1.
         -4    1    4    4    0  503 -0.39081461735E+02  0.38018809560E+03 -0.99771415542E+02  0.39499960006E+03  0.00000000000E+00 0. -1.
<mgrwt>
<rscale>  2 0.10506110E+04</rscale>
<asrwt>0</asrwt>
<pdfrwt beam="1">  1       21 0.21322285E+00 0.10632220E+04</pdfrwt>
<pdfrwt beam="2">  1       21 0.16359613E+00 0.10632220E+04</pdfrwt>
<totfact> 0.10823307E+01</totfact>
</mgrwt>
</event>
<event>
 8    1  0.7418332E-006  0.1119085E+04  0.7818608E-02  0.8675105E-01
         21   -1    0    0  501  502  0.00000000000E+00  0.00000000000E+00  0.13196703160E+04  0.13196703160E+04  0.00000000000E+00 0. -1.
         21   -1    0    0  502  503 -0.00000000000E+00 -0.00000000000E+00 -0.97525897555E+03  0.97525897555E+03  0.00000000000E+00 0. -1.
    9000010    2    1    2  501    0 -0.39392536964E+03  0.32197782380E+03  0.42469101306E+03  0.11969597652E+04  0.99674636041E+03 0.  0.
   -9000010    2    1    2    0  503  0.39392536964E+03 -0.32197782380E+03 -0.80279672659E+02  0.10979695263E+04  0.96966248719E+03 0.  0.
        -13    1    3    3    0    0 -0.86574301223E+02  0.64110236039E+03  0.38334539166E+03  0.75197144002E+03  0.10566000000E+00 0.  1.
          4    1    3    3  501    0 -0.30735106841E+03 -0.31912453659E+03  0.41345621393E+02  0.44498832514E+03  0.00000000000E+00 0.  1.
         13    1    4    4    0    0 -0.28250230119E+01  0.23007863586E+03  0.25202523434E+03  0.34126366543E+03  0.10566000000E+00 0. -1.
         -4    1    4    4    0  503  0.39675039265E+03 -0.55205645967E+03 -0.33230490700E+03  0.75670586091E+03  0.00000000000E+00 0. -1.
<mgrwt>
<rscale>  2 0.11130220E+04</rscale>
<asrwt>0</asrwt>
<pdfrwt beam="1">  1       21 0.20302620E+00 0.11190845E+04</pdfrwt>
<pdfrwt beam="2">  1       21 0.15003984E+00 0.11190845E+04</pdfrwt>
<totfact> 0.16814797E+01</totfact>
</mgrwt>
</event>
<event>
 8    1  0.7418332E-006  0.1016087E+04  0.7818608E-02  0.8773964E-01
         21   -1    0    0  501  502  0.00000000000E+00  0.00000000000E+00  0.13011636311E+04  0.13011636311E+04  0.00000000000E+00 0.  1.
         21   -1    0    0  502  503 -0.00000000000E+00 -0.00000000000E+00 -0.84765570872E+03  0.84765570872E+03  0.00000000000E+00 0.  1.
    9000010    2    1    2  501    0  0.31884118028E+02 -0.50762113280E+02  0.59056301220E+03  0.11235307356E+04  0.95391994070E+03 0.  0.
   -9000010    2    1    2    0  503 -0.31884118028E+02  0.50762113280E+02 -0.13705508984E+03  0.10252886042E+04  0.10143171275E+04 0.  0.
        -13    1    3    3    0    0  0.19960141469E+03 -0.18484454424E+03  0.78688547269E+03  0.83258452338E+03  0.10566000000E+00 0.  1.
          4    1    3    3  501    0 -0.16771729667E+03  0.13408243096E+03 -0.19632246049E+03  0.29094621219E+03  0.00000000000E+00 0.  1.
         13    1    4    4    0    0  0.40160747040E+03 -0.25144184447E+02  0.21997015291E+03  0.45859314171E+03  0.10566000000E+00 0. -1.
         -4    1    4    4    0  503 -0.43349158842E+03  0.75906297727E+02 -0.35702524275E+03  0.56669546251E+03  0.00000000000E+00 0. -1.
<mgrwt>
<rscale>  2 0.10006682E+04</rscale>
<asrwt>0</asrwt>
<pdfrwt beam="1">  1       21 0.20017902E+00 0.10160869E+04</pdfrwt>
<pdfrwt beam="2">  1       21 0.13040857E+00 0.10160869E+04</pdfrwt>
<totfact> 0.27511035E+01</totfact>
</mgrwt>
</event>
<event>
 8    1  0.7418332E-006  0.1029731E+04  0.7818608E-02  0.8759328E-01
         21   -1    0    0  501  502  0.00000000000E+00  0.00000000000E+00  0.94514203711E+03  0.94514203711E+03  0.00000000000E+00 0.  1.
         21   -1    0    0  502  503 -0.00000000000E+00 -0.00000000000E+00 -0.10680283613E+04  0.10680283613E+04  0.00000000000E+00 0.  1.
    9000010    2    1    2  501    0 -0.17716000209E+03 -0.14666876483E+03 -0.10722877616E+03  0.98332055301E+03  0.95001258235E+03 0.  0.
   -9000010    2    1    2    0  503  0.17716000209E+03  0.14666876483E+03 -0.15657548017E+02  0.10298498454E+04  0.10037171675E+04 0.  0.
        -13    1    3    3    0    0 -0.28074601763E+03  0.82057037590E+02  0.35337648999E+03  0.45872283426E+03  0.10566000000E+00 0.  1.
          4    1    3    3  501    0  0.10358601555E+03 -0.22872580242E+03 -0.46060526615E+03  0.52459771875E+03  0.00000000000E+00 0.  1.
         13    1    4    4    0    0  0.16445387990E+02  0.24050558139E+03  0.45985788642E+03  0.51921351324E+03  0.10566000000E+00 0. -1.
         -4    1    4    4    0  503  0.16071461410E+03 -0.93836816565E+02 -0.47551543444E+03  0.51063633215E+03  0.00000000000E+00 0. -1.
<mgrwt>
<rscale>  2 0.10164058E+04</rscale>
<asrwt>0</asrwt>
<pdfrwt beam="1">  1       21 0.14540647E+00 0.10297308E+04</pdfrwt>
<pdfrwt beam="2">  1       21 0.16431205E+00 0.10297308E+04</pdfrwt>
<totfact> 0.38886879E+01</totfact>
</mgrwt>
</event>
<event>
 8    1  0.7418332E-006  0.1099961E+04  0.7818608E-02  0.8691734E-01
         21   -1    0    0  501  502  0.00000000000E+00  0.00000000000E+00  0.10042637402E+04  0.10042637402E+04  0.00000000000E+00 0. -1.
         21   -1    0    0  502  503 -0.00000000000E+00 -0.00000000000E+00 -0.20429367806E+04  0.20429367806E+04  0.00000000000E+00 0. -1.
    9000010    2    1    2  501    0 -0.34126936025E+03  0.21694583787E+03  0.47737295653E+03  0.11741522909E+04  0.99358864211E+03 0.  0.
   -9000010    2    1    2    0  503  0.34126936025E+03 -0.21694583787E+03 -0.15160459970E+04  0.18730482300E+04  0.10229290954E+04 0.  0.
        -13    1    3    3    0    0 -0.61543703567E+03 -0.79116148537E+02  0.11347886958E+03  0.63079281451E+03  0.10566000000E+00 0.  1.
          4    1    3    3  501    0  0.27416767542E+03  0.29606198641E+03  0.36389408695E+03  0.54335947637E+03  0.00000000000E+00 0.  1.
         13    1    4    4    0    0  0.63613468858E+03 -0.35703564435E+03 -0.78057444528E+03  0.10683811441E+04  0.10566000000E+00 0. -1.
         -4    1    4    4    0  503 -0.29486532833E+03  0.14008980648E+03 -0.73547155167E+03  0.80466708585E+03  0.00000000000E+00 0. -1.
<mgrwt>
<rscale>  2 0.10930890E+04</rscale>
<asrwt>0</asrwt>
<pdfrwt beam="1">  1       21 0.15450211E+00 0.10999610E+04</pdfrwt>
<pdfrwt beam="2">  1       21 0.31429797E+00 0.10999610E+04</pdfrwt>
<totfact> 0.23849916E+00</totfact>
</mgrwt>
</event>
<event>
 8    1  0.7418332E-006  0.1002542E+04  0.7818608E-02  0.8772343E-01
         21   -1    0    0  503  502  0.00000000000E+00  0.00000000000E+00  0.11726828677E+04  0.11726828677E+04  0.00000000000E+00 0.  1.
         21   -1    0    0  501  503 -0.00000000000E+00 -0.00000000000E+00 -0.85741524365E+03  0.85741524365E+03  0.00000000000E+00 0.  1.
    9000010    2    1    2  501    0  0.92813728921E+02 -0.10409699363E+02  0.18916558030E+03  0.10202325461E+04  0.99818238873E+03 0.  0.
   -9000010    2    1    2    0  502 -0.92813728921E+02  0.10409699363E+02  0.12610204377E+03  0.10098655653E+04  0.99759911007E+03 0.  0.
        -13    1    3    3    0    0 -0.91252735528E+02 -0.43108771210E+03 -0.13187309926E+03  0.45995021768E+03  0.10566000000E+00 0.  1.
          4    1    3    3  501    0  0.18406646445E+03  0.42067801274E+03  0.32103867956E+03  0.56028232839E+03  0.00000000000E+00 0.  1.
         13    1    4    4    0    0  0.36378146756E+03 -0.26007485275E+03  0.16756435092E+03  0.47754969169E+03  0.10566000000E+00 0. -1.
         -4    1    4    4    0  502 -0.45659519648E+03  0.27048455211E+03 -0.41462307144E+02  0.53231587361E+03  0.00000000000E+00 0. -1.
<mgrwt>
<rscale>  2 0.10023970E+04</rscale>
<asrwt>0</asrwt>
<pdfrwt beam="1">  1       21 0.18041275E+00 0.10025422E+04</pdfrwt>
<pdfrwt beam="2">  1       21 0.13191004E+00 0.10025422E+04</pdfrwt>
<totfact> 0.38366294E+01</totfact>
</mgrwt>
</event>
<event>
 8    1  0.7418332E-006  0.1005646E+04  0.7818608E-02  0.8770936E-01
         21   -1    0    0  501  502  0.00000000000E+00  0.00000000000E+00  0.98762664639E+03  0.98762664639E+03  0.00000000000E+00 0. -1.
         21   -1    0    0  502  503 -0.00000000000E+00 -0.00000000000E+00 -0.19215698514E+04  0.19215698514E+04  0.00000000000E+00 0. -1.
    9000010    2    1    2  501    0  0.18918032180E+02  0.42142704596E+02  0.53022696588E+03  0.11368658022E+04  0.10045841515E+04 0.  0.
   -9000010    2    1    2    0  503 -0.18918032180E+02 -0.42142704596E+02 -0.14641701709E+04  0.17723306956E+04  0.99761109942E+03 0.  0.
        -13    1    3    3    0    0 -0.43251514183E+03 -0.51837428054E+02  0.19003079815E+01  0.43561461086E+03  0.10566000000E+00 0.  1.
          4    1    3    3  501    0  0.45143317401E+03  0.93980132651E+02  0.52832665790E+03  0.70125119135E+03  0.00000000000E+00 0.  1.
         13    1    4    4    0    0 -0.14928456151E+03  0.40127647576E+03 -0.30863577139E+03  0.52779232739E+03  0.10566000000E+00 0. -1.
         -4    1    4    4    0  503  0.13036652933E+03 -0.44341918035E+03 -0.11555343995E+04  0.12445383682E+04  0.00000000000E+00 0. -1.
<mgrwt>
<rscale>  2 0.10038997E+04</rscale>
<asrwt>0</asrwt>
<pdfrwt beam="1">  1       21 0.15194256E+00 0.10056457E+04</pdfrwt>
<pdfrwt beam="2">  1       21 0.29562613E+00 0.10056457E+04</pdfrwt>
<totfact> 0.34849570E+00</totfact>
</mgrwt>
</event>
<event>
 8    1  0.7418332E-006  0.1047820E+04  0.7818608E-02  0.8737954E-01
         21   -1    0    0  503  502  0.00000000000E+00  0.00000000000E+00  0.37150126057E+04  0.37150126057E+04  0.00000000000E+00 0. -1.
         21   -1    0    0  501  503 -0.00000000000E+00 -0.00000000000E+00 -0.29366053319E+03  0.29366053319E+03  0.00000000000E+00 0. -1.
    9000010    2    1    2  501    0  0.20622142599E+03 -0.14575488194E+03  0.14296051477E+04  0.17724836846E+04  0.10169344973E+04 0.  0.
   -9000010    2    1    2    0  502 -0.20622142599E+03  0.14575488194E+03  0.19917469248E+04  0.22361894543E+04  0.98474143854E+03 0.  0.
        -13    1    3    3    0    0  0.10252493649E+03  0.43503382604E+03  0.74452914178E+03  0.86838323713E+03  0.10566000000E+00 0.  1.
          4    1    3    3  501    0  0.10369648950E+03 -0.58078870798E+03  0.68507600593E+03  0.90410044749E+03  0.00000000000E+00 0.  1.
         13    1    4    4    0    0 -0.42231033126E+03  0.17980139147E+02  0.19325882773E+04  0.19782736823E+04  0.10566000000E+00 0. -1.
         -4    1    4    4    0  502  0.21608890527E+03  0.12777474279E+03  0.59158647539E+02  0.25791577202E+03  0.00000000000E+00 0. -1.
<mgrwt>
<rscale>  2 0.10399280E+04</rscale>
<asrwt>0</asrwt>
<pdfrwt beam="1">  1       21 0.57154037E+00 0.10478204E+04</pdfrwt>
<pdfrwt beam="2">  1       21 0.45178546E-01 0.10478204E+04</pdfrwt>
<totfact> 0.85256588E-01</totfact>
</mgrwt>
</event>
<event>
 8    1  0.7418332E-006  0.9966929E+03  0.7818608E-02  0.8780755E-01
         21   -1    0    0  501  502  0.00000000000E+00  0.00000000000E+00  0.79994080407E+03  0.79994080407E+03  0.00000000000E+00 0. -1.
         21   -1    0    0  502  503 -0.00000000000E+00 -0.00000000000E+00 -0.12688456673E+04  0.12688456673E+04  0.00000000000E+00 0. -1.
    9000010    2    1    2  501    0 -0.13915684977E+01 -0.31449127147E+02 -0.45592545446E+02  0.99773512697E+03  0.99619562302E+03 0.  0.
   -9000010    2    1    2    0  503  0.13915684977E+01  0.31449127147E+02 -0.42331231778E+03  0.10710513444E+04  0.98334463941E+03 0.  0.
        -13    1    3    3    0    0  0.68400145952E+01 -0.44053426617E+03  0.23717219293E+03  0.50036775049E+03  0.10566000000E+00 0.  1.
          4    1    3    3  501    0 -0.82315830929E+01  0.40908513902E+03 -0.28276473837E+03  0.49736737649E+03  0.00000000000E+00 0.  1.
         13    1    4    4    0    0  0.16605815736E+03  0.12567145831E+03  0.27640206172E+03  0.34607331296E+03  0.10566000000E+00 0. -1.
         -4    1    4    4    0  503 -0.16466658886E+03 -0.94222331164E+02 -0.69971437949E+03  0.72497803142E+03  0.00000000000E+00 0. -1.
<mgrwt>
<rscale>  2 0.99346613E+03</rscale>
<asrwt>0</asrwt>
<pdfrwt beam="1">  1       21 0.12306782E+00 0.99669288E+03</pdfrwt>
<pdfrwt beam="2">  1       21 0.19520702E+00 0.99669288E+03</pdfrwt>
<totfact> 0.35672467E+01</totfact>
</mgrwt>
</event>
<event>
 8    1  0.7418332E-006  0.1049568E+04  0.7818608E-02  0.8731372E-01
         21   -1    0    0  501  502  0.00000000000E+00  0.00000000000E+00  0.25789745783E+04  0.25789745783E+04  0.00000000000E+00 0.  1.
         21   -1    0    0  502  503 -0.00000000000E+00 -0.00000000000E+00 -0.44221479066E+03  0.44221479066E+03  0.00000000000E+00 0.  1.
    9000010    2    1    2  501    0 -0.22458157257E+03 -0.17212286998E+03  0.13837425997E+04  0.17367604265E+04  0.10107076887E+04 0.  0.
   -9000010    2    1    2    0  503  0.22458157257E+03  0.17212286998E+03  0.75301718796E+03  0.12844289424E+04  0.10013289458E+04 0.  0.
        -13    1    3    3    0    0 -0.47949180391E+03  0.26146405650E+03  0.74583056495E+03  0.92441283291E+03  0.10566000000E+00 0.  1.
          4    1    3    3  501    0  0.25491023134E+03 -0.43358692647E+03  0.63791203470E+03  0.81234759362E+03  0.00000000000E+00 0.  1.
         13    1    4    4    0    0  0.38997465503E+03  0.52052446106E+03  0.41439024063E+03  0.77119726972E+03  0.10566000000E+00 0. -1.
         -4    1    4    4    0  503 -0.16539308246E+03 -0.34840159109E+03  0.33862694734E+03  0.51323167270E+03  0.00000000000E+00 0. -1.
<mgrwt>
<rscale>  2 0.10473037E+04</rscale>
<asrwt>0</asrwt>
<pdfrwt beam="1">  1       21 0.39676531E+00 0.10495681E+04</pdfrwt>
<pdfrwt beam="2">  1       21 0.68033046E-01 0.10495681E+04</pdfrwt>
<totfact> 0.57232661E+00</totfact>
</mgrwt>
</event>
<event>
 8    1  0.7418332E-006  0.1021393E+04  0.7818608E-02  0.8756524E-01
         21   -1    0    0  503  502  0.00000000000E+00  0.00000000000E+00  0.75721980220E+03  0.75721980220E+03  0.00000000000E+00 0. -1.
         21   -1    0    0  501  503 -0.00000000000E+00 -0.00000000000E+00 -0.16599509132E+04  0.16599509132E+04  0.00000000000E+00 0. -1.
    9000010    2    1    2  501    0  0.17866236096E+03  0.15620581539E+03 -0.96021977036E+03  0.14018789993E+04  0.99343959312E+03 0.  0.
   -9000010    2    1    2    0  502 -0.17866236096E+03 -0.15620581539E+03  0.57488659326E+02  0.10152917162E+04  0.98549065293E+03 0.  0.
        -13    1    3    3    0    0  0.50289348697E+03 -0.15960004500E+03 -0.71040482710E+03  0.88490059506E+03  0.10566000000E+00 0.  1.
          4    1    3    3  501    0 -0.32423112601E+03  0.31580586038E+03 -0.24981494326E+03  0.51697840419E+03  0.00000000000E+00 0.  1.
         13    1    4    4    0    0 -0.40503480926E+03 -0.32531328360E+03 -0.26775937747E+03  0.58444591245E+03  0.10566000000E+00 0. -1.
         -4    1    4    4    0  502  0.22637244830E+03  0.16910746821E+03  0.32524803679E+03  0.43084580373E+03  0.00000000000E+00 0. -1.
<mgrwt>
<rscale>  2 0.10194546E+04</rscale>
<asrwt>0</asrwt>
<pdfrwt beam="1">  1       21 0.11649536E+00 0.10213925E+04</pdfrwt>
<pdfrwt beam="2">  1       21 0.25537706E+00 0.10213925E+04</pdfrwt>
<totfact> 0.14619603E+01</totfact>
</mgrwt>
</event>
<event>
 8    1  0.7418332E-006  0.1094178E+04  0.7818608E-02  0.8691731E-01
         21   -1    0    0  503  502  0.00000000000E+00  0.00000000000E+00  0.10296034064E+04  0.10296034064E+04  0.00000000000E+00 0.  1.
         21   -1    0    0  501  503 -0.00000000000E+00 -0.00000000000E+00 -0.11934713248E+04  0.11934713248E+04  0.00000000000E+00 0.  1.
    9000010    2    1    2  501    0  0.11846226484E+03  0.44507606515E+03 -0.27318723296E+03  0.11277663469E+04  0.99252186730E+03 0.  0.
   -9000010    2    1    2    0  502 -0.11846226484E+03 -0.44507606515E+03  0.10931931456E+03  0.10953083842E+04  0.98773667141E+03 0.  0.
        -13    1    3    3    0    0 -0.35463912947E+03 -0.56072617628E+02  0.57046473890E+02  0.36354829383E+03  0.10566000000E+00 0.  1.
          4    1    3    3  501    0  0.47310139432E+03  0.50114868278E+03 -0.33023370685E+03  0.76421805311E+03  0.00000000000E+00 0.  1.
         13    1    4    4    0    0  0.40371191308E+03 -0.38672376772E+03  0.20982923096E+01  0.55905544920E+03  0.10566000000E+00 0. -1.
         -4    1    4    4    0  502 -0.52217417793E+03 -0.58352297435E+02  0.10722102225E+03  0.53625293503E+03  0.00000000000E+00 0. -1.
<mgrwt>
<rscale>  2 0.10930918E+04</rscale>
<asrwt>0</asrwt>
<pdfrwt beam="1">  1       21 0.15840052E+00 0.10941781E+04</pdfrwt>
<pdfrwt beam="2">  1       21 0.18361097E+00 0.10941781E+04</pdfrwt>
<totfact> 0.20340498E+01</totfact>
</mgrwt>
</event>
<event>
 8    1  0.7418332E-006  0.1048416E+04  0.7818608E-02  0.8731598E-01
         21   -1    0    0  503  502  0.00000000000E+00  0.00000000000E+00  0.17107238399E+04  0.17107238399E+04  0.00000000000E+00 0.  1.
         21   -1    0    0  501  503 -0.00000000000E+00 -0.00000000000E+00 -0.78434564989E+03  0.78434564989E+03  0.00000000000E+00 0.  1.
    9000010    2    1    2  501    0  0.27535559186E+03  0.10887240267E+03 -0.74490543264E+02  0.10456166500E+04  0.10000457168E+04 0.  0.
   -9000010    2    1    2    0  502 -0.27535559186E+03 -0.10887240267E+03  0.10008687333E+04  0.14494528398E+04  0.10057342649E+04 0.  0.
        -13    1    3    3    0    0  0.55265154336E+03 -0.16736291284E+03 -0.23387605331E+03  0.62300248190E+03  0.10566000000E+00 0.  1.
          4    1    3    3  501    0 -0.27729595150E+03  0.27623531552E+03  0.15938551005E+03  0.42261416809E+03  0.00000000000E+00 0.  1.
         13    1    4    4    0    0 -0.58339501714E+03  0.18274794090E+03  0.70012871303E+03  0.92947661719E+03  0.10566000000E+00 0. -1.
         -4    1    4    4    0  502  0.30803942528E+03 -0.29162034357E+03  0.30074002029E+03  0.51997622265E+03  0.00000000000E+00 0. -1.
<mgrwt>
<rscale>  2 0.10470490E+04</rscale>
<asrwt>0</asrwt>
<pdfrwt beam="1">  1       21 0.26318828E+00 0.10484156E+04</pdfrwt>
<pdfrwt beam="2">  1       21 0.12066856E+00 0.10484156E+04</pdfrwt>
<totfact> 0.11569136E+01</totfact>
</mgrwt>
</event>
<event>
 8    1  0.7418332E-006  0.1004438E+04  0.7818608E-02  0.8788084E-01
         21   -1    0    0  503  502  0.00000000000E+00  0.00000000000E+00  0.56482030130E+03  0.56482030130E+03  0.00000000000E+00 0. -1.
         21   -1    0    0  501  503 -0.00000000000E+00 -0.00000000000E+00 -0.18120522583E+04  0.18120522583E+04  0.00000000000E+00 0. -1.
    9000010    2    1    2  501    0 -0.51227349437E+02  0.54750539482E+02 -0.94692949044E+03  0.13285034413E+04  0.92877557605E+03 0.  0.
   -9000010    2    1    2    0  502  0.51227349437E+02 -0.54750539482E+02 -0.30030246652E+03  0.10483691183E+04  0.10016358490E+04 0.  0.
        -13    1    3    3    0    0  0.39555122604E+03 -0.83591447677E+02 -0.20971645954E+03  0.45544407682E+03  0.10566000000E+00 0.  1.
          4    1    3    3  501    0 -0.44677857547E+03  0.13834198716E+03 -0.73721303090E+03  0.87305936444E+03  0.00000000000E+00 0.  1.
         13    1    4    4    0    0 -0.44955508350E+02 -0.43504726677E+03 -0.45091180314E+03  0.62817878620E+03  0.10566000000E+00 0. -1.
         -4    1    4    4    0  502  0.96182857787E+02  0.38029672729E+03  0.15060933662E+03  0.42019033211E+03  0.00000000000E+00 0. -1.
<mgrwt>
<rscale>  2 0.98576361E+03</rscale>
<asrwt>0</asrwt>
<pdfrwt beam="1">  1       21 0.86895431E-01 0.10044383E+04</pdfrwt>
<pdfrwt beam="2">  1       21 0.27877727E+00 0.10044383E+04</pdfrwt>
<totfact> 0.21564956E+01</totfact>
</mgrwt>
</event>
<event>
 8    1  0.7418332E-006  0.1193289E+04  0.7818608E-02  0.8649682E-01
         21   -1    0    0  503  502  0.00000000000E+00  0.00000000000E+00  0.17070285729E+04  0.17070285729E+04  0.00000000000E+00 0.  1.
         21   -1    0    0  501  503 -0.00000000000E+00 -0.00000000000E+00 -0.77514189128E+03  0.77514189128E+03  0.00000000000E+00 0.  1.
    9000010    2    1    2  501    0 -0.88814884488E+01 -0.14993944778E+03  0.72991023985E+02  0.10119184820E+04  0.99804338878E+03 0.  0.
   -9000010    2    1    2    0  502  0.88814884488E+01  0.14993944778E+03  0.85889565760E+03  0.14702519821E+04  0.11837983027E+04 0.  0.
        -13    1    3    3    0    0 -0.48825095598E+02 -0.45045579436E+03 -0.29078708305E+03  0.53837853919E+03  0.10566000000E+00 0.  1.
          4    1    3    3  501    0  0.39943607149E+02  0.30051634658E+03  0.36377810704E+03  0.47353994285E+03  0.00000000000E+00 0.  1.
         13    1    4    4    0    0  0.17625341831E+03 -0.32502581960E+03  0.89197875494E+03  0.96557400612E+03  0.10566000000E+00 0. -1.
         -4    1    4    4    0  502 -0.16737192986E+03  0.47496526737E+03 -0.33083097338E+02  0.50467797599E+03  0.00000000000E+00 0. -1.
<mgrwt>
<rscale>  2 0.11443595E+04</rscale>
<asrwt>0</asrwt>
<pdfrwt beam="1">  1       21 0.26261978E+00 0.11932892E+04</pdfrwt>
<pdfrwt beam="2">  1       21 0.11925260E+00 0.11932892E+04</pdfrwt>
<totfact> 0.11698976E+01</totfact>
</mgrwt>
</event>
<event>
 8    1  0.7418332E-006  0.1024677E+04  0.7818608E-02  0.8755266E-01
         21   -1    0    0  501  502  0.00000000000E+00  0.00000000000E+00  0.32201520966E+03  0.32201520966E+03  0.00000000000E+00 0.  1.
         21   -1    0    0  502  503 -0.00000000000E+00 -0.00000000000E+00 -0.33080701912E+04  0.33080701912E+04  0.00000000000E+00 0.  1.
    9000010    2    1    2  501    0  0.14103951920E+03 -0.77317654863E+02 -0.11728857495E+04  0.15474078425E+04  0.99646368915E+03 0.  0.
   -9000010    2    1    2    0  503 -0.14103951920E+03  0.77317654863E+02 -0.18131692320E+04  0.20826775584E+04  0.10119747934E+04 0.  0.
        -13    1    3    3    0    0 -0.13536952779E+03  0.41948551693E+03 -0.50428916323E+03  0.66977651443E+03  0.10566000000E+00 0.  1.
          4    1    3    3  501    0  0.27640904700E+03 -0.49680317179E+03 -0.66859658627E+03  0.87763132803E+03  0.00000000000E+00 0.  1.
         13    1    4    4    0    0  0.40624430228E+03  0.75658872275E+02 -0.43582601932E+03  0.60058557123E+03  0.10566000000E+00 0. -1.
         -4    1    4    4    0  503 -0.54728382149E+03  0.16587825880E+01 -0.13773432127E+04  0.14820919872E+04  0.00000000000E+00 0. -1.
<mgrwt>
<rscale>  2 0.10208265E+04</rscale>
<asrwt>0</asrwt>
<pdfrwt beam="1">  1       21 0.49540802E-01 0.10246771E+04</pdfrwt>
<pdfrwt beam="2">  1       21 0.50893387E+00 0.10246771E+04</pdfrwt>
<totfact> 0.19767436E+00</totfact>
</mgrwt>
</event>
<event>
 8    1  0.7418332E-006  0.1010190E+04  0.7818608E-02  0.8772558E-01
         21   -1    0    0  503  502  0.00000000000E+00  0.00000000000E+00  0.10523111851E+04  0.10523111851E+04  0.00000000000E+00 0. -1.
         21   -1    0    0  501  503 -0.00000000000E+00 -0.00000000000E+00 -0.99765267195E+03  0.99765267195E+03  0.00000000000E+00 0. -1.
    9000010    2    1    2  501    0  0.14687504640E+03 -0.10806077242E+03 -0.21958368573E+03  0.10337800774E+04  0.99359692213E+03 0.  0.
   -9000010    2    1    2    0  502 -0.14687504640E+03  0.10806077242E+03  0.27424219886E+03  0.10161837796E+04  0.96133827579E+03 0.  0.
        -13    1    3    3    0    0  0.28388904488E+03 -0.44121863392E+03  0.12056425523E+03  0.53833319006E+03  0.10566000000E+00 0.  1.
          4    1    3    3  501    0 -0.13701399848E+03  0.33315786150E+03 -0.34014794096E+03  0.49544688737E+03  0.00000000000E+00 0.  1.
         13    1    4    4    0    0 -0.44092737917E+02 -0.23952835175E+03  0.52275418734E+03  0.57670612306E+03  0.10566000000E+00 0. -1.
         -4    1    4    4    0  502 -0.10278230848E+03  0.34758912417E+03 -0.24851198848E+03  0.43947765654E+03  0.00000000000E+00 0. -1.
<mgrwt>
<rscale>  2 0.10021673E+04</rscale>
<asrwt>0</asrwt>
<pdfrwt beam="1">  1       21 0.16189403E+00 0.10101902E+04</pdfrwt>
<pdfrwt beam="2">  1       21 0.15348503E+00 0.10101902E+04</pdfrwt>
<totfact> 0.34687797E+01</totfact>
</mgrwt>
</event>
<event>
 8    1  0.7418332E-006  0.1036510E+04  0.7818608E-02  0.8742248E-01
         21   -1    0    0  503  502  0.00000000000E+00  0.00000000000E+00  0.43625403790E+04  0.43625403790E+04  0.00000000000E+00 0.  1.
         21   -1    0    0  501  503 -0.00000000000E+00 -0.00000000000E+00 -0.29758044481E+03  0.29758044481E+03  0.00000000000E+00 0.  1.
    9000010    2    1    2  501    0  0.24726591947E+03  0.71939422314E+02  0.10484727961E+04  0.14705209774E+04  0.99840924739E+03 0.  0.
   -9000010    2    1    2    0  502 -0.24726591947E+03 -0.71939422314E+02  0.30164871381E+04  0.31895998465E+04  0.10040103639E+04 0.  0.
        -13    1    3    3    0    0 -0.25837602285E+03  0.14244927459E+03 -0.10155511071E+02  0.29521705673E+03  0.10566000000E+00 0.  1.
          4    1    3    3  501    0  0.50564194232E+03 -0.70509852273E+02  0.10586283072E+04  0.11753039206E+04  0.00000000000E+00 0.  1.
         13    1    4    4    0    0 -0.27081098783E+03  0.24289806298E+03  0.27570946582E+04  0.27809906554E+04  0.10566000000E+00 0. -1.
         -4    1    4    4    0  502  0.23545068363E+02 -0.31483748529E+03  0.25939247993E+03  0.40860919108E+03  0.00000000000E+00 0. -1.
<mgrwt>
<rscale>  2 0.10351510E+04</rscale>
<asrwt>0</asrwt>
<pdfrwt beam="1">  1       21 0.67116001E+00 0.10365098E+04</pdfrwt>
<pdfrwt beam="2">  1       21 0.45781610E-01 0.10365098E+04</pdfrwt>
<totfact> 0.13580563E-01</totfact>
</mgrwt>
</event>
<event>
 8    1  0.7418332E-006  0.1055634E+04  0.7818608E-02  0.8727202E-01
         21   -1    0    0  503  502  0.00000000000E+00  0.00000000000E+00  0.17653648747E+04  0.17653648747E+04  0.00000000000E+00 0.  1.
         21   -1    0    0  501  503 -0.00000000000E+00 -0.00000000000E+00 -0.83291709707E+03  0.83291709707E+03  0.00000000000E+00 0.  1.
    9000010    2    1    2  501    0  0.10459434131E+02 -0.33736896565E+03 -0.18891940004E+03  0.10582084009E+04  0.98498084310E+03 0.  0.
   -9000010    2    1    2    0  502 -0.10459434131E+02  0.33736896565E+03  0.11213671776E+04  0.15400735708E+04  0.10002174952E+04 0.  0.
        -13    1    3    3    0    0  0.27498509195E+03 -0.55022589301E+03  0.86303699349E+02  0.62113901327E+03  0.10566000000E+00 0.  1.
          4    1    3    3  501    0 -0.26452565781E+03  0.21285692735E+03 -0.27522309939E+03  0.43706938763E+03  0.00000000000E+00 0.  1.
         13    1    4    4    0    0 -0.21091936072E+03  0.13712087638E+03 -0.11142064424E+03  0.27514302207E+03  0.10566000000E+00 0. -1.
         -4    1    4    4    0  502  0.20045992659E+03  0.20024808927E+03  0.12327878219E+04  0.12649305488E+04  0.00000000000E+00 0. -1.
<mgrwt>
<rscale>  2 0.10520086E+04</rscale>
<asrwt>0</asrwt>
<pdfrwt beam="1">  1       21 0.27159459E+00 0.10556336E+04</pdfrwt>
<pdfrwt beam="2">  1       21 0.12814109E+00 0.10556336E+04</pdfrwt>
<totfact> 0.84752166E+00</totfact>
</mgrwt>
</event>
<event>
 8    1  0.7418332E-006  0.1005883E+04  0.7818608E-02  0.8769300E-01
         21   -1    0    0  503  502  0.00000000000E+00  0.00000000000E+00  0.70668655230E+03  0.70668655230E+03  0.00000000000E+00 0.  1.
         21   -1    0    0  501  503 -0.00000000000E+00 -0.00000000000E+00 -0.18292566870E+04  0.18292566870E+04  0.00000000000E+00 0.  1.
    9000010    2    1    2  501    0 -0.19334702662E+02  0.10672533151E+03 -0.11531388008E+04  0.15295956375E+04  0.99908437737E+03 0.  0.
   -9000010    2    1    2    0  502  0.19334702662E+02 -0.10672533151E+03  0.30568666090E+02  0.10063476019E+04  0.10000184625E+04 0.  0.
        -13    1    3    3    0    0 -0.11054239618E+03  0.50747170905E+03 -0.92158947099E+03  0.10578630918E+04  0.10566000000E+00 0.  1.
          4    1    3    3  501    0  0.91207693520E+02 -0.40074637754E+03 -0.23154932981E+03  0.47173254563E+03  0.00000000000E+00 0.  1.
         13    1    4    4    0    0  0.12653995601E+03  0.42868234036E+03  0.93670904678E+02  0.45667839773E+03  0.10566000000E+00 0. -1.
         -4    1    4    4    0  502 -0.10720525335E+03 -0.53540767187E+03 -0.63102238589E+02  0.54966920412E+03  0.00000000000E+00 0. -1.
<mgrwt>
<rscale>  2 0.10056510E+04</rscale>
<asrwt>0</asrwt>
<pdfrwt beam="1">  1       21 0.10872101E+00 0.10058832E+04</pdfrwt>
<pdfrwt beam="2">  1       21 0.28142410E+00 0.10058832E+04</pdfrwt>
<totfact> 0.11526188E+01</totfact>
</mgrwt>
</event>
<event>
 8    1  0.7418332E-006  0.1063018E+04  0.7818608E-02  0.8722583E-01
         21   -1    0    0  503  502  0.00000000000E+00  0.00000000000E+00  0.15664085810E+04  0.15664085810E+04  0.00000000000E+00 0.  1.
         21   -1    0    0  501  503 -0.00000000000E+00 -0.00000000000E+00 -0.78593802884E+03  0.78593802884E+03  0.00000000000E+00 0.  1.
    9000010    2    1    2  501    0  0.16400371030E+03  0.22867113506E+03  0.18858865384E+02  0.10631848870E+04  0.10250945040E+04 0.  0.
   -9000010    2    1    2    0  502 -0.16400371030E+03 -0.22867113506E+03  0.76161168680E+03  0.12891617229E+04  0.10013480321E+04 0.  0.
        -13    1    3    3    0    0 -0.13018050986E+03 -0.11701804161E+03 -0.40557923480E+03  0.44174055064E+03  0.10566000000E+00 0.  1.
          4    1    3    3  501    0  0.29418422016E+03  0.34568917668E+03  0.42443810018E+03  0.62144433632E+03  0.00000000000E+00 0.  1.
         13    1    4    4    0    0  0.23755630760E+03  0.18313547547E+02 -0.13667668016E+03  0.27467965226E+03  0.10566000000E+00 0. -1.
         -4    1    4    4    0  502 -0.40156001790E+03 -0.24698468261E+03  0.89828836695E+03  0.10144820706E+04  0.00000000000E+00 0. -1.
<mgrwt>
<rscale>  2 0.10572508E+04</rscale>
<asrwt>0</asrwt>
<pdfrwt beam="1">  1       21 0.24098593E+00 0.10630176E+04</pdfrwt>
<pdfrwt beam="2">  1       21 0.12091354E+00 0.10630176E+04</pdfrwt>
<totfact> 0.16621219E+01</totfact>
</mgrwt>
</event>
<event>
 8    1  0.9854200E-006  0.1010276E+04  0.7818608E-02  0.8824456E-01
         21   -1    0    0  501  502  0.00000000000E+00  0.00000000000E+00  0.92802599000E+03  0.92802599000E+03  0.00000000000E+00 0.  1.
         21   -1    0    0  502  503 -0.00000000000E+00 -0.00000000000E+00 -0.96338122383E+03  0.96338122383E+03  0.00000000000E+00 0.  1.
    9000010    2    1    2  501    0  0.17340281380E+03 -0.35648910167E+02  0.27507226066E+03  0.10470543351E+04  0.99464498760E+03 0.  0.
   -9000010    2    1    2    0  503 -0.17340281380E+03  0.35648910167E+02 -0.31042749449E+03  0.84435287876E+03  0.76500142086E+03 0.  0.
        -13    1    3    3    0    0  0.78945921441E+02 -0.36586915844E+03  0.50877554200E+03  0.63162113875E+03  0.10566000000E+00 0.  1.
          4    1    3    3  501    0  0.94456892358E+02  0.33022024828E+03 -0.23370328134E+03  0.41543319631E+03  0.00000000000E+00 0.  1.
         13    1    4    4    0    0 -0.21814026618E+03  0.31854585373E+03  0.44098515080E+02  0.38858889183E+03  0.10566000000E+00 0. -1.
         -4    1    4    4    0  503  0.44737452385E+02 -0.28289694356E+03 -0.35452600957E+03  0.45576398693E+03  0.00000000000E+00 0. -1.
<mgrwt>
<rscale>  2 0.94858792E+03</rscale>
<asrwt>0</asrwt>
<pdfrwt beam="1">  1       21 0.14277323E+00 0.10102762E+04</pdfrwt>
<pdfrwt beam="2">  1       21 0.14821250E+00 0.10102762E+04</pdfrwt>
<totfact> 0.57048358E+01</totfact>
</mgrwt>
</event>
<event>
 8    1  0.7418332E-006  0.1055773E+04  0.7818608E-02  0.8737347E-01
         21   -1    0    0  501  502  0.00000000000E+00  0.00000000000E+00  0.71539063450E+03  0.71539063450E+03  0.00000000000E+00 0.  1.
         21   -1    0    0  502  503 -0.00000000000E+00 -0.00000000000E+00 -0.14841547532E+04  0.14841547532E+04  0.00000000000E+00 0.  1.
    9000010    2    1    2  501    0 -0.86388645955E+02  0.41669087710E+02 -0.29476777698E+03  0.10961500514E+04  0.10514074291E+04 0.  0.
   -9000010    2    1    2    0  503  0.86388645955E+02 -0.41669087710E+02 -0.47399634173E+03  0.11033953363E+04  0.99177085314E+03 0.  0.
        -13    1    3    3    0    0 -0.22713821828E+02  0.54188090684E+03 -0.22468215021E+03  0.58705443929E+03  0.10566000000E+00 0.  1.
          4    1    3    3  501    0 -0.63674824127E+02 -0.50021181913E+03 -0.70085626764E+02  0.50909561214E+03  0.00000000000E+00 0.  1.
         13    1    4    4    0    0  0.14816402155E+03 -0.47102111542E+03 -0.45143692458E+03  0.66903570644E+03  0.10566000000E+00 0. -1.
         -4    1    4    4    0  503 -0.61775375591E+02  0.42935202771E+03 -0.22559417146E+02  0.43435962984E+03  0.00000000000E+00 0. -1.
<mgrwt>
<rscale>  2 0.10406056E+04</rscale>
<asrwt>0</asrwt>
<pdfrwt beam="1">  1       21 0.11006010E+00 0.10557731E+04</pdfrwt>
<pdfrwt beam="2">  1       21 0.22833150E+00 0.10557731E+04</pdfrwt>
<totfact> 0.26762556E+01</totfact>
</mgrwt>
</event>
<event>
 8    1  0.7418332E-006  0.9891574E+03  0.7818608E-02  0.8787718E-01
         21   -1    0    0  501  502  0.00000000000E+00  0.00000000000E+00  0.20334822834E+04  0.20334822834E+04  0.00000000000E+00 0.  1.
         21   -1    0    0  502  503 -0.00000000000E+00 -0.00000000000E+00 -0.48628257646E+03  0.48628257646E+03  0.00000000000E+00 0.  1.
    9000010    2    1    2  501    0 -0.13048151605E+03 -0.72467143143E+02  0.95792125982E+03  0.13683824242E+04  0.96570202754E+03 0.  0.
   -9000010    2    1    2    0  503  0.13048151605E+03  0.72467143143E+02  0.58927844713E+03  0.11513824357E+04  0.97783204695E+03 0.  0.
        -13    1    3    3    0    0 -0.97251068439E+01 -0.15125160834E+03  0.11321388015E+04  0.11422389871E+04  0.10566000000E+00 0.  1.
          4    1    3    3  501    0 -0.12075640921E+03  0.78784465199E+02 -0.17421754165E+03  0.22614343709E+03  0.00000000000E+00 0.  1.
         13    1    4    4    0    0  0.47013626726E+03 -0.23472763834E+03  0.25298627674E+03  0.58320428785E+03  0.10566000000E+00 0. -1.
         -4    1    4    4    0  503 -0.33965475121E+03  0.30719478148E+03  0.33629217040E+03  0.56817814782E+03  0.00000000000E+00 0. -1.
<mgrwt>
<rscale>  2 0.98614636E+03</rscale>
<asrwt>0</asrwt>
<pdfrwt beam="1">  1       21 0.31284342E+00 0.98915743E+03</pdfrwt>
<pdfrwt beam="2">  1       21 0.74812705E-01 0.98915743E+03</pdfrwt>
<totfact> 0.17940835E+01</totfact>
</mgrwt>
</event>
<event>
 8    1  0.7418332E-006  0.1078577E+04  0.7818608E-02  0.8705748E-01
         21   -1    0    0  503  502  0.00000000000E+00  0.00000000000E+00  0.20100623714E+04  0.20100623714E+04  0.00000000000E+00 0. -1.
         21   -1    0    0  501  503 -0.00000000000E+00 -0.00000000000E+00 -0.74036117752E+03  0.74036117752E+03  0.00000000000E+00 0. -1.
    9000010    2    1    2  501    0 -0.36574437847E+03  0.13392443997E+03 -0.17667159187E+02  0.10709455267E+04  0.99745049331E+03 0.  0.
   -9000010    2    1    2    0  502  0.36574437847E+03 -0.13392443997E+03  0.12873683530E+04  0.16794780222E+04  0.10057954288E+04 0.  0.
        -13    1    3    3    0    0 -0.32639613413E+03  0.23851317612E+03  0.44135780480E+03  0.59851457340E+03  0.10566000000E+00 0.  1.
          4    1    3    3  501    0 -0.39348244340E+02 -0.10458873615E+03 -0.45902496398E+03  0.47243095329E+03  0.00000000000E+00 0.  1.
         13    1    4    4    0    0  0.28814201290E+03 -0.52969396577E+03  0.10518735404E+04  0.12124518436E+04  0.10566000000E+00 0. -1.
         -4    1    4    4    0  502  0.77602365567E+02  0.39576952580E+03  0.23549481268E+03  0.46702617860E+03  0.00000000000E+00 0. -1.
<mgrwt>
<rscale>  2 0.10766277E+04</rscale>
<asrwt>0</asrwt>
<pdfrwt beam="1">  1       21 0.30924036E+00 0.10785774E+04</pdfrwt>
<pdfrwt beam="2">  1       21 0.11390172E+00 0.10785774E+04</pdfrwt>
<totfact> 0.63409922E+00</totfact>
</mgrwt>
</event>
<event>
 8    1  0.7418332E-006  0.1051674E+04  0.7818608E-02  0.8744994E-01
         21   -1    0    0  503  502  0.00000000000E+00  0.00000000000E+00  0.16048696719E+04  0.16048696719E+04  0.00000000000E+00 0.  1.
         21   -1    0    0  501  503 -0.00000000000E+00 -0.00000000000E+00 -0.27097279847E+04  0.27097279847E+04  0.00000000000E+00 0.  1.
    9000010    2    1    2  501    0 -0.41141641443E+02 -0.15221452846E+03 -0.24423282379E+04  0.26591325370E+04  0.10397868678E+04 0.  0.
   -9000010    2    1    2    0  502  0.41141641443E+02  0.15221452846E+03  0.13374699252E+04  0.16554651195E+04  0.96274454762E+03 0.  0.
        -13    1    3    3    0    0  0.19364301590E+03 -0.13075741916E+03 -0.30303522741E+02  0.23561289210E+03  0.10566000000E+00 0.  1.
          4    1    3    3  501    0 -0.23478465734E+03 -0.21457109307E+02 -0.24120247152E+04  0.24235196449E+04  0.00000000000E+00 0.  1.
         13    1    4    4    0    0 -0.11131833315E+03 -0.16674127715E+03  0.12820448370E+04  0.12976260633E+04  0.10566000000E+00 0. -1.
         -4    1    4    4    0  502  0.15245997460E+03  0.31895580562E+03  0.55425088137E+02  0.35783905626E+03  0.00000000000E+00 0. -1.
<mgrwt>
<rscale>  2 0.10321092E+04</rscale>
<asrwt>0</asrwt>
<pdfrwt beam="1">  1       21 0.24690303E+00 0.10516742E+04</pdfrwt>
<pdfrwt beam="2">  1       21 0.41688123E+00 0.10516742E+04</pdfrwt>
<totfact> 0.86578689E-02</totfact>
</mgrwt>
</event>
<event>
 8    1  0.7418332E-006  0.1066425E+04  0.7818608E-02  0.8721300E-01
         21   -1    0    0  501  502  0.00000000000E+00  0.00000000000E+00  0.42919440180E+04  0.42919440180E+04  0.00000000000E+00 0. -1.
         21   -1    0    0  502  503 -0.00000000000E+00 -0.00000000000E+00 -0.40079622907E+03  0.40079622907E+03  0.00000000000E+00 0. -1.
    9000010    2    1    2  501    0  0.56436113196E+02 -0.35123951191E+03  0.33305787596E+04  0.34879584676E+04  0.97290552892E+03 0.  0.
   -9000010    2    1    2    0  503 -0.56436113196E+02  0.35123951191E+03  0.56056902931E+03  0.12047817794E+04  0.10053393804E+04 0.  0.
        -13    1    3    3    0    0  0.40734664913E+03 -0.19856045805E+03  0.72889698703E+03  0.85828222451E+03  0.10566000000E+00 0.  1.
          4    1    3    3  501    0 -0.35091053593E+03 -0.15267905386E+03  0.26016817726E+04  0.26296762431E+04  0.00000000000E+00 0.  1.
         13    1    4    4    0    0  0.28172414454E+03  0.78825392996E+01  0.65557305026E+03  0.71358717998E+03  0.10566000000E+00 0. -1.
         -4    1    4    4    0  503 -0.33816025774E+03  0.34335697261E+03 -0.95004020947E+02  0.49119459947E+03  0.00000000000E+00 0. -1.
<mgrwt>
<rscale>  2 0.10587115E+04</rscale>
<asrwt>0</asrwt>
<pdfrwt beam="1">  1       21 0.66029905E+00 0.10664246E+04</pdfrwt>
<pdfrwt beam="2">  1       21 0.61660961E-01 0.10664246E+04</pdfrwt>
<totfact> 0.84960108E-02</totfact>
</mgrwt>
</event>
<event>
 8    1  0.7418332E-006  0.1023160E+04  0.7818608E-02  0.8754231E-01
         21   -1    0    0  501  502  0.00000000000E+00  0.00000000000E+00  0.17228555656E+04  0.17228555656E+04  0.00000000000E+00 0.  1.
         21   -1    0    0  502  503 -0.00000000000E+00 -0.00000000000E+00 -0.61903212572E+03  0.61903212572E+03  0.00000000000E+00 0.  1.
    9000010    2    1    2  501    0  0.13159757879E+03  0.16083335728E+03  0.72832656729E+03  0.12520007111E+04  0.99692572460E+03 0.  0.
   -9000010    2    1    2    0  503 -0.13159757879E+03 -0.16083335728E+03  0.37549687254E+03  0.10898869802E+04  0.10018335374E+04 0.  0.
        -13    1    3    3    0    0  0.20107318785E+03  0.58513641899E+02 -0.21527457595E+03  0.30032886537E+03  0.10566000000E+00 0.  1.
          4    1    3    3  501    0 -0.69475609055E+02  0.10231971538E+03  0.94360114324E+03  0.95167184572E+03  0.00000000000E+00 0.  1.
         13    1    4    4    0    0  0.31585092541E+03 -0.24985293150E+03  0.47520249528E+03  0.62290104924E+03  0.10566000000E+00 0. -1.
         -4    1    4    4    0  503 -0.44744850420E+03  0.89019574220E+02 -0.99705622741E+02  0.46698593095E+03  0.00000000000E+00 0. -1.
<mgrwt>
<rscale>  2 0.10219563E+04</rscale>
<asrwt>0</asrwt>
<pdfrwt beam="1">  1       21 0.26505470E+00 0.10231597E+04</pdfrwt>
<pdfrwt beam="2">  1       21 0.95235712E-01 0.10231597E+04</pdfrwt>
<totfact> 0.21291627E+01</totfact>
</mgrwt>
</event>
<event>
 8    1  0.7418332E-006  0.1107424E+04  0.7818608E-02  0.8680869E-01
         21   -1    0    0  503  502  0.00000000000E+00  0.00000000000E+00  0.69475107997E+03  0.69475107997E+03  0.00000000000E+00 0. -1.
         21   -1    0    0  501  503 -0.00000000000E+00 -0.00000000000E+00 -0.21137366874E+04  0.21137366874E+04  0.00000000000E+00 0. -1.
    9000010    2    1    2  501    0 -0.44190656358E+03 -0.13902372009E+03 -0.12881808365E+04  0.16987632815E+04  0.10058716685E+04 0.  0.
   -9000010    2    1    2    0  502  0.44190656358E+03  0.13902372009E+03 -0.13080477098E+03  0.11097244859E+04  0.99988476378E+03 0.  0.
        -13    1    3    3    0    0  0.36090227664E+02 -0.28343244802E+02 -0.11992471687E+04  0.12001248380E+04  0.10566000000E+00 0.  1.
          4    1    3    3  501    0 -0.47799679125E+03 -0.11068047529E+03 -0.88933667793E+02  0.49863844348E+03  0.00000000000E+00 0.  1.
         13    1    4    4    0    0  0.39755259211E+02  0.46909793901E+03 -0.30514934828E+03  0.56102539421E+03  0.10566000000E+00 0. -1.
         -4    1    4    4    0  502  0.40215130437E+03 -0.33007421893E+03  0.17434457730E+03  0.54869909171E+03  0.00000000000E+00 0. -1.
<mgrwt>
<rscale>  2 0.11060622E+04</rscale>
<asrwt>0</asrwt>
<pdfrwt beam="1">  1       21 0.10688478E+00 0.11074235E+04</pdfrwt>
<pdfrwt beam="2">  1       21 0.32519025E+00 0.11074235E+04</pdfrwt>
<totfact> 0.57840750E+00</totfact>
</mgrwt>
</event>
<event>
 8    1  0.7418332E-006  0.1031310E+04  0.7818608E-02  0.8760211E-01
         21   -1    0    0  501  502  0.00000000000E+00  0.00000000000E+00  0.29234127036E+04  0.29234127036E+04  0.00000000000E+00 0. -1.
         21   -1    0    0  502  503 -0.00000000000E+00 -0.00000000000E+00 -0.34692963717E+03  0.34692963717E+03  0.00000000000E+00 0. -1.
    9000010    2    1    2  501    0 -0.20675180594E+03 -0.20947636014E+02  0.15168594508E+04  0.18342471096E+04  0.10101558063E+04 0.  0.
   -9000010    2    1    2    0  503  0.20675180594E+03  0.20947636014E+02  0.10596236156E+04  0.14360952311E+04  0.94677462651E+03 0.  0.
        -13    1    3    3    0    0  0.52549053861E+02  0.46390067979E+03  0.54495100448E+03  0.71759100623E+03  0.10566000000E+00 0.  1.
          4    1    3    3  501    0 -0.25930085980E+03 -0.48484831581E+03  0.97190844634E+03  0.11166561034E+04  0.00000000000E+00 0.  1.
         13    1    4    4    0    0  0.51937026853E+03 -0.14853732995E+02  0.26885382274E+03  0.58502008374E+03  0.10566000000E+00 0. -1.
         -4    1    4    4    0  503 -0.31261846259E+03  0.35801369009E+02  0.79076979290E+03  0.85107514741E+03  0.00000000000E+00 0. -1.
<mgrwt>
<rscale>  2 0.10154484E+04</rscale>
<asrwt>0</asrwt>
<pdfrwt beam="1">  1       21 0.44975578E+00 0.10313098E+04</pdfrwt>
<pdfrwt beam="2">  1       21 0.53373792E-01 0.10313098E+04</pdfrwt>
<totfact> 0.43153176E+00</totfact>
</mgrwt>
</event>
<event>
 8    1  0.7418332E-006  0.1124453E+04  0.7818608E-02  0.8675558E-01
         21   -1    0    0  503  502  0.00000000000E+00  0.00000000000E+00  0.13108387876E+04  0.13108387876E+04  0.00000000000E+00 0.  1.
         21   -1    0    0  501  503 -0.00000000000E+00 -0.00000000000E+00 -0.12076791895E+04  0.12076791895E+04  0.00000000000E+00 0.  1.
    9000010    2    1    2  501    0  0.35108927557E+03  0.22179642932E+03 -0.55720353478E+03  0.12549383625E+04  0.10449579795E+04 0.  0.
   -9000010    2    1    2    0  502 -0.35108927557E+03 -0.22179642932E+03  0.66036313286E+03  0.12635796147E+04  0.99403050247E+03 0.  0.
        -13    1    3    3    0    0 -0.32261587326E+03  0.14827613947E+03 -0.44291809485E+03  0.56766474712E+03  0.10566000000E+00 0.  1.
          4    1    3    3  501    0  0.67370514883E+03  0.73520289845E+02 -0.11428543993E+03  0.68727361535E+03  0.00000000000E+00 0.  1.
         13    1    4    4    0    0  0.21982340247E+03  0.18441673593E+03  0.44693865098E+03  0.53111771733E+03  0.10566000000E+00 0. -1.
         -4    1    4    4    0  502 -0.57091267804E+03 -0.40621316524E+03  0.21342448189E+03  0.73246189732E+03  0.00000000000E+00 0. -1.
<mgrwt>
<rscale>  2 0.11124721E+04</rscale>
<asrwt>0</asrwt>
<pdfrwt beam="1">  1       21 0.20166751E+00 0.11244530E+04</pdfrwt>
<pdfrwt beam="2">  1       21 0.18579680E+00 0.11244530E+04</pdfrwt>
<totfact> 0.85758115E+00</totfact>
</mgrwt>
</event>
<event>
 8    1  0.7418332E-006  0.9725934E+03  0.7818608E-02  0.8802005E-01
         21   -1    0    0  503  502  0.00000000000E+00  0.00000000000E+00  0.44824546291E+03  0.44824546291E+03  0.00000000000E+00 0. -1.
         21   -1    0    0  501  503 -0.00000000000E+00 -0.00000000000E+00 -0.23074022020E+04  0.23074022020E+04  0.00000000000E+00 0. -1.
    9000010    2    1    2  501    0 -0.95308183695E+01 -0.25391122519E+02 -0.13454693939E+04  0.16601884899E+04  0.97221519562E+03 0.  0.
   -9000010    2    1    2    0  502  0.95308183695E+01  0.25391122519E+02 -0.51368734516E+03  0.10954591749E+04  0.96717142729E+03 0.  0.
        -13    1    3    3    0    0  0.12239551099E+03 -0.42524683489E+03 -0.10676878136E+04  0.11557563801E+04  0.10566000000E+00 0.  1.
          4    1    3    3  501    0 -0.13192632936E+03  0.39985571237E+03 -0.27778158036E+03  0.50443210988E+03  0.00000000000E+00 0.  1.
         13    1    4    4    0    0 -0.10698076651E+03  0.16330281583E+03  0.24631983201E+03  0.31430266443E+03  0.10566000000E+00 0. -1.
         -4    1    4    4    0  502  0.11651158488E+03 -0.13791169331E+03 -0.76000717716E+03  0.78115651051E+03  0.00000000000E+00 0. -1.
<mgrwt>
<rscale>  2 0.97133050E+03</rscale>
<asrwt>0</asrwt>
<pdfrwt beam="1">  1       21 0.68960842E-01 0.97259341E+03</pdfrwt>
<pdfrwt beam="2">  1       21 0.35498495E+00 0.97259341E+03</pdfrwt>
<totfact> 0.11067652E+01</totfact>
</mgrwt>
</event>
<event>
 8    1  0.7418332E-006  0.1167740E+04  0.7818608E-02  0.8657080E-01
         21   -1    0    0  501  502  0.00000000000E+00  0.00000000000E+00  0.15266394370E+04  0.15266394370E+04  0.00000000000E+00 0. -1.
         21   -1    0    0  502  503 -0.00000000000E+00 -0.00000000000E+00 -0.86733729535E+03  0.86733729535E+03  0.00000000000E+00 0. -1.
    9000010    2    1    2  501    0  0.23657622475E+03  0.14298307184E+03  0.67962407455E+03  0.13511128938E+04  0.11345504397E+04 0.  0.
   -9000010    2    1    2    0  503 -0.23657622475E+03 -0.14298307184E+03 -0.20321932902E+02  0.10428638385E+04  0.10053554276E+04 0.  0.
        -13    1    3    3    0    0  0.86385553768E+02 -0.29550615290E+03 -0.19276367070E+03  0.36324123418E+03  0.10566000000E+00 0.  1.
          4    1    3    3  501    0  0.15019067098E+03  0.43848922474E+03  0.87238774525E+03  0.98787165964E+03  0.00000000000E+00 0.  1.
         13    1    4    4    0    0  0.24141317801E+03 -0.35386337990E+03 -0.22245170895E+03  0.48268456380E+03  0.10566000000E+00 0. -1.
         -4    1    4    4    0  503 -0.47798940276E+03  0.21088030806E+03  0.20212977605E+03  0.56017927473E+03  0.00000000000E+00 0. -1.
<mgrwt>
<rscale>  2 0.11351309E+04</rscale>
<asrwt>0</asrwt>
<pdfrwt beam="1">  1       21 0.23486760E+00 0.11677402E+04</pdfrwt>
<pdfrwt beam="2">  1       21 0.13343651E+00 0.11677402E+04</pdfrwt>
<totfact> 0.13593190E+01</totfact>
</mgrwt>
</event>
<event>
 8    1  0.7418332E-006  0.1317477E+04  0.7818608E-02  0.8535774E-01
         21   -1    0    0  501  502  0.00000000000E+00  0.00000000000E+00  0.26303384934E+04  0.26303384934E+04  0.00000000000E+00 0. -1.
         21   -1    0    0  502  503 -0.00000000000E+00 -0.00000000000E+00 -0.10407532829E+04  0.10407532829E+04  0.00000000000E+00 0. -1.
    9000010    2    1    2  501    0  0.44371284705E+03  0.60087951874E+03  0.19430733578E+04  0.23070167833E+04  0.99441192566E+03 0.  0.
   -9000010    2    1    2    0  503 -0.44371284705E+03 -0.60087951874E+03 -0.35348814721E+03  0.13640749931E+04  0.10852692891E+04 0.  0.
        -13    1    3    3    0    0  0.53747232363E+03  0.80158512441E+03  0.12488347775E+04  0.15782913302E+04  0.10566000000E+00 0.  1.
          4    1    3    3  501    0 -0.93759476589E+02 -0.20070560567E+03  0.69423858027E+03  0.72872545305E+03  0.00000000000E+00 0.  1.
         13    1    4    4    0    0  0.28496906805E+03 -0.79875624238E+02  0.15494813587E+03  0.33406050510E+03  0.10566000000E+00 0. -1.
         -4    1    4    4    0  503 -0.72868191509E+03 -0.52100389450E+03 -0.50843628308E+03  0.10300144880E+04  0.00000000000E+00 0. -1.
<mgrwt>
<rscale>  2 0.12986329E+04</rscale>
<asrwt>0</asrwt>
<pdfrwt beam="1">  1       21 0.40466746E+00 0.13174774E+04</pdfrwt>
<pdfrwt beam="2">  1       21 0.16011589E+00 0.13174774E+04</pdfrwt>
<totfact> 0.47263950E-01</totfact>
</mgrwt>
</event>
<event>
 8    1  0.7418332E-006  0.1083872E+04  0.7818608E-02  0.8704855E-01
         21   -1    0    0  503  502  0.00000000000E+00  0.00000000000E+00  0.50356948718E+03  0.50356948718E+03  0.00000000000E+00 0.  1.
         21   -1    0    0  501  503 -0.00000000000E+00 -0.00000000000E+00 -0.27925768701E+04  0.27925768701E+04  0.00000000000E+00 0.  1.
    9000010    2    1    2  501    0  0.39123197240E+03 -0.20030784395E+02 -0.18396496412E+04  0.21228172964E+04  0.98416400212E+03 0.  0.
   -9000010    2    1    2    0  502 -0.39123197240E+03  0.20030784395E+02 -0.44935774171E+03  0.11733290609E+04  0.10106013143E+04 0.  0.
        -13    1    3    3    0    0  0.31097016025E+03  0.45185097505E+03 -0.12373570371E+04  0.13534859411E+04  0.10566000000E+00 0.  1.
          4    1    3    3  501    0  0.80261812153E+02 -0.47188175945E+03 -0.60229260413E+03  0.76933135539E+03  0.00000000000E+00 0.  1.
         13    1    4    4    0    0 -0.32335575330E+03  0.47285661067E+03 -0.42776188574E+03  0.71493535337E+03  0.10566000000E+00 0. -1.
         -4    1    4    4    0  502 -0.67876219100E+02 -0.45282582628E+03 -0.21595855971E+02  0.45839370748E+03  0.00000000000E+00 0. -1.
<mgrwt>
<rscale>  2 0.10776673E+04</rscale>
<asrwt>0</asrwt>
<pdfrwt beam="1">  1       21 0.77472230E-01 0.10838721E+04</pdfrwt>
<pdfrwt beam="2">  1       21 0.42962720E+00 0.10838721E+04</pdfrwt>
<totfact> 0.24690141E+00</totfact>
</mgrwt>
</event>
<event>
 8    1  0.7418332E-006  0.1015491E+04  0.7818608E-02  0.8760904E-01
         21   -1    0    0  501  502  0.00000000000E+00  0.00000000000E+00  0.17862920939E+04  0.17862920939E+04  0.00000000000E+00 0.  1.
         21   -1    0    0  502  503 -0.00000000000E+00 -0.00000000000E+00 -0.58085933696E+03  0.58085933696E+03  0.00000000000E+00 0.  1.
    9000010    2    1    2  501    0 -0.26161238265E+02  0.17655907374E+03  0.71739533810E+03  0.12433336553E+04  0.99968244475E+03 0.  0.
   -9000010    2    1    2    0  503  0.26161238265E+02 -0.17655907374E+03  0.48803741879E+03  0.11238177755E+04  0.99645790354E+03 0.  0.
        -13    1    3    3    0    0 -0.18240948497E+02 -0.38598686327E+03  0.51840535858E+03  0.64657769664E+03  0.10566000000E+00 0.  1.
          4    1    3    3  501    0 -0.79202897680E+01  0.56254593701E+03  0.19898997952E+03  0.59675595865E+03  0.00000000000E+00 0.  1.
         13    1    4    4    0    0  0.14618943637E+03  0.39254478500E+03  0.28971829713E+03  0.50931273536E+03  0.10566000000E+00 0. -1.
         -4    1    4    4    0  503 -0.12002819811E+03 -0.56910385874E+03  0.19831912166E+03  0.61450504017E+03  0.00000000000E+00 0. -1.
<mgrwt>
<rscale>  2 0.10146968E+04</rscale>
<asrwt>0</asrwt>
<pdfrwt beam="1">  1       21 0.27481417E+00 0.10154913E+04</pdfrwt>
<pdfrwt beam="2">  1       21 0.89362975E-01 0.10154913E+04</pdfrwt>
<totfact> 0.21364933E+01</totfact>
</mgrwt>
</event>
<event>
 8    1  0.7418332E-006  0.1203821E+04  0.7818608E-02  0.8605323E-01
         21   -1    0    0  501  502  0.00000000000E+00  0.00000000000E+00  0.67793468323E+03  0.67793468323E+03  0.00000000000E+00 0. -1.
         21   -1    0    0  502  503 -0.00000000000E+00 -0.00000000000E+00 -0.22951179981E+04  0.22951179981E+04  0.00000000000E+00 0. -1.
    9000010    2    1    2  501    0  0.65063551687E+03  0.67056304541E+02 -0.40335451030E+03  0.12695987497E+04  0.10106250544E+04 0.  0.
   -9000010    2    1    2    0  503 -0.65063551687E+03 -0.67056304541E+02 -0.12138288045E+04  0.17034539316E+04  0.10002758652E+04 0.  0.
        -13    1    3    3    0    0  0.36538213057E+03 -0.25806610124E+03  0.22973158493E+03  0.50287058596E+03  0.10566000000E+00 0.  1.
          4    1    3    3  501    0  0.28525338630E+03  0.32512240578E+03 -0.63308609522E+03  0.76672816376E+03  0.00000000000E+00 0.  1.
         13    1    4    4    0    0  0.97186277211E+02 -0.96070055357E+02 -0.86859326560E+03  0.87927748762E+03  0.10566000000E+00 0. -1.
         -4    1    4    4    0  503 -0.74782179409E+03  0.29013750816E+02 -0.34523553894E+03  0.82417644397E+03  0.00000000000E+00 0. -1.
<mgrwt>
<rscale>  2 0.12016468E+04</rscale>
<asrwt>0</asrwt>
<pdfrwt beam="1">  1       21 0.10429764E+00 0.12038215E+04</pdfrwt>
<pdfrwt beam="2">  1       21 0.35309508E+00 0.12038215E+04</pdfrwt>
<totfact> 0.38544707E+00</totfact>
</mgrwt>
</event>
<event>
 8    1  0.7418332E-006  0.1024833E+04  0.7818608E-02  0.8766328E-01
         21   -1    0    0  501  502  0.00000000000E+00  0.00000000000E+00  0.57872881668E+03  0.57872881668E+03  0.00000000000E+00 0. -1.
         21   -1    0    0  502  503 -0.00000000000E+00 -0.00000000000E+00 -0.21713343802E+04  0.21713343802E+04  0.00000000000E+00 0. -1.
    9000010    2    1    2  501    0 -0.14552505560E+03  0.16991228736E+03 -0.17956894704E+03  0.10404457510E+04  0.10001173065E+04 0.  0.
   -9000010    2    1    2    0  503  0.14552505560E+03 -0.16991228736E+03 -0.14130366164E+04  0.17096174458E+04  0.93598696812E+03 0.  0.
        -13    1    3    3    0    0 -0.53658432337E+03 -0.95416317680E+02 -0.34441658597E+02  0.54608904839E+03  0.10566000000E+00 0.  1.
          4    1    3    3  501    0  0.39105926777E+03  0.26532860504E+03 -0.14512728845E+03  0.49435670261E+03  0.00000000000E+00 0.  1.
         13    1    4    4    0    0  0.18458316583E+03 -0.32724769186E+03 -0.14853338471E+04  0.15321157415E+04  0.10566000000E+00 0. -1.
         -4    1    4    4    0  503 -0.39058110230E+02  0.15733540450E+03  0.72297230635E+02  0.17750170433E+03  0.00000000000E+00 0. -1.
<mgrwt>
<rscale>  2 0.10088420E+04</rscale>
<asrwt>0</asrwt>
<pdfrwt beam="1">  1       21 0.89035201E-01 0.10248328E+04</pdfrwt>
<pdfrwt beam="2">  1       21 0.33405145E+00 0.10248328E+04</pdfrwt>
<totfact> 0.82119935E+00</totfact>
</mgrwt>
</event>
<event>
 8    1  0.7418332E-006  0.1016018E+04  0.7818608E-02  0.8760701E-01
         21   -1    0    0  501  502  0.00000000000E+00  0.00000000000E+00  0.16753022626E+04  0.16753022626E+04  0.00000000000E+00 0. -1.
         21   -1    0    0  502  503 -0.00000000000E+00 -0.00000000000E+00 -0.61505578563E+03  0.61505578563E+03  0.00000000000E+00 0. -1.
    9000010    2    1    2  501    0  0.52137890606E+01  0.74621665181E+02  0.58623570588E+03  0.11692072601E+04  0.10088497102E+04 0.  0.
   -9000010    2    1    2    0  503 -0.52137890606E+01 -0.74621665181E+02  0.47401077110E+03  0.11211507881E+04  0.10132607276E+04 0.  0.
        -13    1    3    3    0    0  0.45386496789E+03  0.22836411836E+03  0.16308078434E+03  0.53360934494E+03  0.10566000000E+00 0.  1.
          4    1    3    3  501    0 -0.44865117883E+03 -0.15374245318E+03  0.42315492155E+03  0.63559791520E+03  0.00000000000E+00 0.  1.
         13    1    4    4    0    0  0.38880409943E+03 -0.32141900254E+03  0.78053564887E+02  0.51046172539E+03  0.10566000000E+00 0. -1.
         -4    1    4    4    0  503 -0.39401788849E+03  0.24679733736E+03  0.39595720621E+03  0.61068906272E+03  0.00000000000E+00 0. -1.
<mgrwt>
<rscale>  2 0.10149166E+04</rscale>
<asrwt>0</asrwt>
<pdfrwt beam="1">  1       21 0.25773881E+00 0.10160181E+04</pdfrwt>
<pdfrwt beam="2">  1       21 0.94623967E-01 0.10160181E+04</pdfrwt>
<totfact> 0.24477099E+01</totfact>
</mgrwt>
</event>
<event>
 8    1  0.7418332E-006  0.1031221E+04  0.7818608E-02  0.8749579E-01
         21   -1    0    0  503  502  0.00000000000E+00  0.00000000000E+00  0.60217650351E+03  0.60217650351E+03  0.00000000000E+00 0. -1.
         21   -1    0    0  501  503 -0.00000000000E+00 -0.00000000000E+00 -0.17740659596E+04  0.17740659596E+04  0.00000000000E+00 0. -1.
    9000010    2    1    2  501    0 -0.88130320383E+02  0.46218628207E+02 -0.41118643024E+03  0.10948031080E+04  0.10097605904E+04 0.  0.
   -9000010    2    1    2    0  502  0.88130320383E+02 -0.46218628207E+02 -0.76070302586E+03  0.12814393551E+04  0.10264085991E+04 0.  0.
        -13    1    3    3    0    0 -0.17451180066E+03 -0.46005315871E+03 -0.27409454242E+03  0.56323272877E+03  0.10566000000E+00 0.  1.
          4    1    3    3  501    0  0.86381480274E+02  0.50627178692E+03 -0.13709188783E+03  0.53157037923E+03  0.00000000000E+00 0.  1.
         13    1    4    4    0    0  0.26493406086E+02  0.34672247923E+03 -0.80919646864E+03  0.88074815594E+03  0.10566000000E+00 0. -1.
         -4    1    4    4    0  502  0.61636914297E+02 -0.39294110743E+03  0.48493442782E+02  0.40069119919E+03  0.00000000000E+00 0. -1.
<mgrwt>
<rscale>  2 0.10270540E+04</rscale>
<asrwt>0</asrwt>
<pdfrwt beam="1">  1       21 0.92642539E-01 0.10312215E+04</pdfrwt>
<pdfrwt beam="2">  1       21 0.27293322E+00 0.10312215E+04</pdfrwt>
<totfact> 0.20024406E+01</totfact>
</mgrwt>
</event>
<event>
 8    1  0.7418332E-006  0.1093901E+04  0.7818608E-02  0.8693372E-01
         21   -1    0    0  501  502  0.00000000000E+00  0.00000000000E+00  0.38999647311E+04  0.38999647311E+04  0.00000000000E+00 0. -1.
         21   -1    0    0  502  503 -0.00000000000E+00 -0.00000000000E+00 -0.71859762141E+03  0.71859762141E+03  0.00000000000E+00 0. -1.
    9000010    2    1    2  501    0 -0.24145907040E+03  0.35580424716E+03  0.33418661629E+04  0.35129501767E+04  0.99390660929E+03 0.  0.
   -9000010    2    1    2    0  503  0.24145907040E+03 -0.35580424716E+03 -0.16049905326E+03  0.11056121758E+04  0.10058425285E+04 0.  0.
        -13    1    3    3    0    0 -0.34941560086E+03 -0.98351602594E+02  0.26715923715E+04  0.26961398537E+04  0.10566000000E+00 0.  1.
          4    1    3    3  501    0  0.10795653046E+03  0.45415584975E+03  0.67027379144E+03  0.81681032304E+03  0.00000000000E+00 0.  1.
         13    1    4    4    0    0  0.19662934117E+03  0.11855664735E+03  0.34277295650E+03  0.41256767604E+03  0.10566000000E+00 0. -1.
         -4    1    4    4    0  503  0.44829729234E+02 -0.47436089451E+03 -0.50327200976E+03  0.69304449977E+03  0.00000000000E+00 0. -1.
<mgrwt>
<rscale>  2 0.10911489E+04</rscale>
<asrwt>0</asrwt>
<pdfrwt beam="1">  1       21 0.59999456E+00 0.10939005E+04</pdfrwt>
<pdfrwt beam="2">  1       21 0.11055348E+00 0.10939005E+04</pdfrwt>
<totfact> 0.59813399E-02</totfact>
</mgrwt>
</event>
<event>
 8    1  0.7418332E-006  0.1016595E+04  0.7818608E-02  0.8761298E-01
         21   -1    0    0  503  502  0.00000000000E+00  0.00000000000E+00  0.11683959119E+04  0.11683959119E+04  0.00000000000E+00 0.  1.
         21   -1    0    0  501  503 -0.00000000000E+00 -0.00000000000E+00 -0.12213530552E+04  0.12213530552E+04  0.00000000000E+00 0.  1.
    9000010    2    1    2  501    0 -0.13598502994E+03 -0.82598062328E+00 -0.66150799138E+03  0.12128722050E+04  0.10074589581E+04 0.  0.
   -9000010    2    1    2    0  502  0.13598502994E+03  0.82598062328E+00  0.60855084807E+03  0.11768767622E+04  0.99810428715E+03 0.  0.
        -13    1    3    3    0    0 -0.15146551594E+03  0.36616070084E+03 -0.73802571048E+03  0.83767381591E+03  0.10566000000E+00 0.  1.
          4    1    3    3  501    0  0.15480485997E+02 -0.36698668147E+03  0.76517719097E+02  0.37519838906E+03  0.00000000000E+00 0.  1.
         13    1    4    4    0    0  0.15978493822E+03 -0.45032698591E+03  0.53809917334E+03  0.71963626384E+03  0.10566000000E+00 0. -1.
         -4    1    4    4    0  502 -0.23799908274E+02  0.45115296653E+03  0.70451674733E+02  0.45724049833E+03  0.00000000000E+00 0. -1.
<mgrwt>
<rscale>  2 0.10142700E+04</rscale>
<asrwt>0</asrwt>
<pdfrwt beam="1">  1       21 0.17975322E+00 0.10165954E+04</pdfrwt>
<pdfrwt beam="2">  1       21 0.18790047E+00 0.10165954E+04</pdfrwt>
<totfact> 0.12644961E+01</totfact>
</mgrwt>
</event>
<event>
 8    1  0.7418332E-006  0.1001668E+04  0.7818608E-02  0.8777082E-01
         21   -1    0    0  503  502  0.00000000000E+00  0.00000000000E+00  0.97839552037E+03  0.97839552037E+03  0.00000000000E+00 0.  1.
         21   -1    0    0  501  503 -0.00000000000E+00 -0.00000000000E+00 -0.12462868075E+04  0.12462868075E+04  0.00000000000E+00 0.  1.
    9000010    2    1    2  501    0 -0.10719983010E+03 -0.15509434874E+03 -0.62123464012E+03  0.11786731107E+04  0.98376407906E+03 0.  0.
   -9000010    2    1    2    0  502  0.10719983010E+03  0.15509434874E+03  0.35334335303E+03  0.10460092171E+04  0.96630103828E+03 0.  0.
        -13    1    3    3    0    0  0.43724989682E+03 -0.66208356671E+02 -0.34979926127E+03  0.56385330815E+03  0.10566000000E+00 0.  1.
          4    1    3    3  501    0 -0.54444972692E+03 -0.88885992074E+02 -0.27143537886E+03  0.61481980257E+03  0.00000000000E+00 0.  1.
         13    1    4    4    0    0 -0.19614277940E+03  0.48436261967E+03  0.10149682474E+03  0.53233518937E+03  0.10566000000E+00 0. -1.
         -4    1    4    4    0  502  0.30334260950E+03 -0.32926827092E+03  0.25184652828E+03  0.51367402775E+03  0.00000000000E+00 0. -1.
<mgrwt>
<rscale>  2 0.99735337E+03</rscale>
<asrwt>0</asrwt>
<pdfrwt beam="1">  1       21 0.15052239E+00 0.10016675E+04</pdfrwt>
<pdfrwt beam="2">  1       21 0.19173643E+00 0.10016675E+04</pdfrwt>
<totfact> 0.20965997E+01</totfact>
</mgrwt>
</event>
<event>
 8    1  0.7418332E-006  0.1012245E+04  0.7818608E-02  0.8767281E-01
         21   -1    0    0  501  502  0.00000000000E+00  0.00000000000E+00  0.38494750342E+03  0.38494750342E+03  0.00000000000E+00 0.  1.
         21   -1    0    0  502  503 -0.00000000000E+00 -0.00000000000E+00 -0.26171512623E+04  0.26171512623E+04  0.00000000000E+00 0.  1.
    9000010    2    1    2  501    0 -0.35764484391E+02  0.34488292683E+02 -0.11416523994E+04  0.15141667664E+04  0.99340940942E+03 0.  0.
   -9000010    2    1    2    0  503  0.35764484391E+02 -0.34488292683E+02 -0.10905513595E+04  0.14879319994E+04  0.10110246418E+04 0.  0.
        -13    1    3    3    0    0 -0.55279286022E+02  0.43330374426E+03 -0.99870978104E+03  0.10900592517E+04  0.10566000000E+00 0.  1.
          4    1    3    3  501    0  0.19514801630E+02 -0.39881545157E+03 -0.14294261835E+03  0.42410751471E+03  0.00000000000E+00 0.  1.
         13    1    4    4    0    0  0.44734307813E+03 -0.67853902959E+02 -0.94912556767E+03  0.10514558175E+04  0.10566000000E+00 0. -1.
         -4    1    4    4    0  503 -0.41157859374E+03  0.33365610276E+02 -0.14142579186E+03  0.43647618192E+03  0.00000000000E+00 0. -1.
<mgrwt>
<rscale>  2 0.10078173E+04</rscale>
<asrwt>0</asrwt>
<pdfrwt beam="1">  1       21 0.59222693E-01 0.10122447E+04</pdfrwt>
<pdfrwt beam="2">  1       21 0.40263865E+00 0.10122447E+04</pdfrwt>
<totfact> 0.72469877E+00</totfact>
</mgrwt>
</event>
<event>
 8    1  0.7418332E-006  0.1061283E+04  0.7818608E-02  0.8722506E-01
         21   -1    0    0  501  502  0.00000000000E+00  0.00000000000E+00  0.79318559729E+03  0.79318559729E+03  0.00000000000E+00 0. -1.
         21   -1    0    0  502  503 -0.00000000000E+00 -0.00000000000E+00 -0.15436254990E+04  0.15436254990E+04  0.00000000000E+00 0. -1.
    9000010    2    1    2  501    0  0.42480102544E+02  0.22261425409E+03 -0.15157074400E+02  0.10457020318E+04  0.10207356842E+04 0.  0.
   -9000010    2    1    2    0  503 -0.42480102544E+02 -0.22261425409E+03 -0.73528282735E+03  0.12911090646E+04  0.10368028333E+04 0.  0.
        -13    1    3    3    0    0  0.32437727156E+03 -0.23731437975E+03 -0.23226817401E+03  0.46420603719E+03  0.10566000000E+00 0.  1.
          4    1    3    3  501    0 -0.28189716902E+03  0.45992863384E+03  0.21711109961E+03  0.58149599457E+03  0.00000000000E+00 0.  1.
         13    1    4    4    0    0 -0.14569080699E+03 -0.21159880904E+03 -0.98644206074E+03  0.10193467602E+04  0.10566000000E+00 0. -1.
         -4    1    4    4    0  503  0.10321070445E+03 -0.11015445054E+02  0.25115923339E+03  0.27176230434E+03  0.00000000000E+00 0. -1.
<mgrwt>
<rscale>  2 0.10573384E+04</rscale>
<asrwt>0</asrwt>
<pdfrwt beam="1">  1       21 0.12202855E+00 0.10612831E+04</pdfrwt>
<pdfrwt beam="2">  1       21 0.23748085E+00 0.10612831E+04</pdfrwt>
<totfact> 0.17194138E+01</totfact>
</mgrwt>
</event>
<event>
 8    1  0.7418332E-006  0.1052527E+04  0.7818608E-02  0.8734044E-01
         21   -1    0    0  501  502  0.00000000000E+00  0.00000000000E+00  0.33116759747E+04  0.33116759747E+04  0.00000000000E+00 0. -1.
         21   -1    0    0  502  503 -0.00000000000E+00 -0.00000000000E+00 -0.40235983663E+03  0.40235983663E+03  0.00000000000E+00 0. -1.
    9000010    2    1    2  501    0  0.20818353824E+03 -0.22725442978E+03  0.22543222649E+04  0.24743462004E+04  0.97233496490E+03 0.  0.
   -9000010    2    1    2    0  503 -0.20818353824E+03  0.22725442978E+03  0.65499387317E+03  0.12396896109E+04  0.10063937580E+04 0.  0.
        -13    1    3    3    0    0  0.34238418358E+03 -0.25787839657E+03  0.31944231222E+03  0.53457609241E+03  0.10566000000E+00 0.  1.
          4    1    3    3  501    0 -0.13420064534E+03  0.30623966785E+02  0.19348799526E+04  0.19397701080E+04  0.00000000000E+00 0.  1.
         13    1    4    4    0    0  0.12887590540E+03  0.43808192266E+02  0.81327088959E+03  0.82458335402E+03  0.10566000000E+00 0. -1.
         -4    1    4    4    0  503 -0.33705944364E+03  0.18344623752E+03 -0.15827701642E+03  0.41510625691E+03  0.00000000000E+00 0. -1.
<mgrwt>
<rscale>  2 0.10443019E+04</rscale>
<asrwt>0</asrwt>
<pdfrwt beam="1">  1       21 0.50948859E+00 0.10525271E+04</pdfrwt>
<pdfrwt beam="2">  1       21 0.61901516E-01 0.10525271E+04</pdfrwt>
<totfact> 0.11770688E+00</totfact>
</mgrwt>
</event>
<event>
 8    1  0.7418332E-006  0.1191322E+04  0.7818608E-02  0.8613412E-01
         21   -1    0    0  503  502  0.00000000000E+00  0.00000000000E+00  0.15044251442E+04  0.15044251442E+04  0.00000000000E+00 0. -1.
         21   -1    0    0  501  503 -0.00000000000E+00 -0.00000000000E+00 -0.10712555449E+04  0.10712555449E+04  0.00000000000E+00 0. -1.
    9000010    2    1    2  501    0 -0.29407481445E+03 -0.58181364340E+03 -0.23055020904E+03  0.12119462084E+04  0.99532562558E+03 0.  0.
   -9000010    2    1    2    0  502  0.29407481445E+03  0.58181364340E+03  0.66371980832E+03  0.13637344808E+04  0.99712618956E+03 0.  0.
        -13    1    3    3    0    0  0.81265525459E+02 -0.34842853158E+03  0.33774184912E+03  0.49201229157E+03  0.10566000000E+00 0.  1.
          4    1    3    3  501    0 -0.37534033991E+03 -0.23338511182E+03 -0.56829205816E+03  0.71993391680E+03  0.00000000000E+00 0.  1.
         13    1    4    4    0    0  0.25405722744E+03  0.63799758161E+03 -0.97014331682E+01  0.68678971885E+03  0.10566000000E+00 0. -1.
         -4    1    4    4    0  502  0.40017587012E+02 -0.56183938204E+02  0.67342124149E+03  0.67694476190E+03  0.00000000000E+00 0. -1.
<mgrwt>
<rscale>  2 0.11909450E+04</rscale>
<asrwt>0</asrwt>
<pdfrwt beam="1">  1       21 0.23145002E+00 0.11913218E+04</pdfrwt>
<pdfrwt beam="2">  1       21 0.16480855E+00 0.11913218E+04</pdfrwt>
<totfact> 0.74920274E+00</totfact>
</mgrwt>
</event>
<event>
 8    1  0.7418332E-006  0.1024042E+04  0.7818608E-02  0.8752526E-01
         21   -1    0    0  501  502  0.00000000000E+00  0.00000000000E+00  0.12410429406E+04  0.12410429406E+04  0.00000000000E+00 0. -1.
         21   -1    0    0  502  503 -0.00000000000E+00 -0.00000000000E+00 -0.88688345173E+03  0.88688345173E+03  0.00000000000E+00 0. -1.
    9000010    2    1    2  501    0 -0.21946381977E+02  0.19239783390E+03  0.41040612070E+03  0.11032200709E+04  0.10055658958E+04 0.  0.
   -9000010    2    1    2    0  503  0.21946381977E+02 -0.19239783390E+03 -0.56246631816E+02  0.10247063214E+04  0.10046694936E+04 0.  0.
        -13    1    3    3    0    0 -0.65535721934E+02 -0.40808687035E+03  0.97335785063E+02  0.42462229195E+03  0.10566000000E+00 0.  1.
          4    1    3    3  501    0  0.43589339957E+02  0.60048470425E+03  0.31307033563E+03  0.67859777898E+03  0.00000000000E+00 0.  1.
         13    1    4    4    0    0 -0.83435541525E+02 -0.32480789749E+03 -0.47017729787E+03  0.57751914466E+03  0.10566000000E+00 0. -1.
         -4    1    4    4    0  503  0.10538192350E+03  0.13241006359E+03  0.41393066605E+03  0.44718717674E+03  0.00000000000E+00 0. -1.
<mgrwt>
<rscale>  2 0.10238215E+04</rscale>
<asrwt>0</asrwt>
<pdfrwt beam="1">  1       21 0.19092968E+00 0.10240417E+04</pdfrwt>
<pdfrwt beam="2">  1       21 0.13644361E+00 0.10240417E+04</pdfrwt>
<totfact> 0.28458862E+01</totfact>
</mgrwt>
</event>
<event>
 8    1  0.7418332E-006  0.1097348E+04  0.7818608E-02  0.8688222E-01
         21   -1    0    0  503  502  0.00000000000E+00  0.00000000000E+00  0.22099983389E+04  0.22099983389E+04  0.00000000000E+00 0.  1.
         21   -1    0    0  501  503 -0.00000000000E+00 -0.00000000000E+00 -0.58879777763E+03  0.58879777763E+03  0.00000000000E+00 0.  1.
    9000010    2    1    2  501    0 -0.26535392011E+03 -0.46124246171E+03  0.42752840130E+03  0.11773689829E+04  0.95930176517E+03 0.  0.
   -9000010    2    1    2    0  502  0.26535392011E+03  0.46124246171E+03  0.11936721600E+04  0.16214271336E+04  0.95969547914E+03 0.  0.
        -13    1    3    3    0    0 -0.27154860080E+03  0.40754579330E+02  0.58911816901E+03  0.64996908123E+03  0.10566000000E+00 0.  1.
          4    1    3    3  501    0  0.61946806892E+01 -0.50199704104E+03 -0.16158976772E+03  0.52739990170E+03  0.00000000000E+00 0.  1.
         13    1    4    4    0    0  0.61448139531E+03  0.37808054842E+03  0.92505305492E+03  0.11731391443E+04  0.10566000000E+00 0. -1.
         -4    1    4    4    0  502 -0.34912747520E+03  0.83161913285E+02  0.26861910506E+03  0.44828798932E+03  0.00000000000E+00 0. -1.
<mgrwt>
<rscale>  2 0.10972620E+04</rscale>
<asrwt>0</asrwt>
<pdfrwt beam="1">  1       21 0.33999974E+00 0.10973480E+04</pdfrwt>
<pdfrwt beam="2">  1       21 0.90584274E-01 0.10973480E+04</pdfrwt>
<totfact> 0.70215667E+00</totfact>
</mgrwt>
</event>
<event>
 8    1  0.7418332E-006  0.1001461E+04  0.7818608E-02  0.8803425E-01
         21   -1    0    0  501  502  0.00000000000E+00  0.00000000000E+00  0.99794813200E+03  0.99794813200E+03  0.00000000000E+00 0. -1.
         21   -1    0    0  502  503 -0.00000000000E+00 -0.00000000000E+00 -0.99741380247E+03  0.99741380247E+03  0.00000000000E+00 0. -1.
    9000010    2    1    2  501    0  0.74994307159E+01 -0.54597867412E+02 -0.33000799128E+03  0.10544332343E+04  0.99994349979E+03 0.  0.
   -9000010    2    1    2    0  503 -0.74994307159E+01  0.54597867412E+02  0.33054232080E+03  0.94092870013E+03  0.87923342993E+03 0.  0.
        -13    1    3    3    0    0 -0.31552351383E+03  0.95189260651E+02 -0.54616391690E+03  0.63789585232E+03  0.10566000000E+00 0.  1.
          4    1    3    3  501    0  0.32302294455E+03 -0.14978712806E+03  0.21615592562E+03  0.41653738202E+03  0.00000000000E+00 0.  1.
         13    1    4    4    0    0  0.20752909844E+03  0.30274819594E+03 -0.11754647350E+03  0.38541144435E+03  0.10566000000E+00 0. -1.
         -4    1    4    4    0  503 -0.21502852915E+03 -0.24815032852E+03  0.44808879430E+03  0.55551725578E+03  0.00000000000E+00 0. -1.
<mgrwt>
<rscale>  2 0.96987206E+03</rscale>
<asrwt>0</asrwt>
<pdfrwt beam="1">  1       21 0.15353048E+00 0.10014610E+04</pdfrwt>
<pdfrwt beam="2">  1       21 0.15344828E+00 0.10014610E+04</pdfrwt>
<totfact> 0.41116690E+01</totfact>
</mgrwt>
</event>
<event>
 8    1  0.7418332E-006  0.9921477E+03  0.7818608E-02  0.8802118E-01
         21   -1    0    0  503  502  0.00000000000E+00  0.00000000000E+00  0.15376780080E+04  0.15376780080E+04  0.00000000000E+00 0. -1.
         21   -1    0    0  501  503 -0.00000000000E+00 -0.00000000000E+00 -0.59164965694E+03  0.59164965694E+03  0.00000000000E+00 0. -1.
    9000010    2    1    2  501    0 -0.83385944075E+02  0.74354273299E+02  0.56578424466E+03  0.11421334338E+04  0.98583730678E+03 0.  0.
   -9000010    2    1    2    0  502  0.83385944075E+02 -0.74354273299E+02  0.38024410636E+03  0.98719423112E+03  0.90414882398E+03 0.  0.
        -13    1    3    3    0    0 -0.41985441143E+03  0.34046249362E+03  0.43445200499E+03  0.69349909312E+03  0.10566000000E+00 0.  1.
          4    1    3    3  501    0  0.33646846736E+03 -0.26610822032E+03  0.13133223968E+03  0.44863434067E+03  0.00000000000E+00 0.  1.
         13    1    4    4    0    0  0.39603493000E+03 -0.29862360423E+03  0.87362033663E+02  0.50363861932E+03  0.10566000000E+00 0. -1.
         -4    1    4    4    0  502 -0.31264898592E+03  0.22426933093E+03  0.29288207270E+03  0.48355561180E+03  0.00000000000E+00 0. -1.
<mgrwt>
<rscale>  2 0.97121376E+03</rscale>
<asrwt>0</asrwt>
<pdfrwt beam="1">  1       21 0.23656585E+00 0.99214765E+03</pdfrwt>
<pdfrwt beam="2">  1       21 0.91023025E-01 0.99214765E+03</pdfrwt>
<totfact> 0.38766998E+01</totfact>
</mgrwt>
</event>
<event>
 8    1  0.7418332E-006  0.1020380E+04  0.7818608E-02  0.8757476E-01
         21   -1    0    0  503  502  0.00000000000E+00  0.00000000000E+00  0.10721890368E+04  0.10721890368E+04  0.00000000000E+00 0. -1.
         21   -1    0    0  501  503 -0.00000000000E+00 -0.00000000000E+00 -0.10930451586E+04  0.10930451586E+04  0.00000000000E+00 0. -1.
    9000010    2    1    2  501    0 -0.18672099547E+03 -0.85649839418E+02 -0.38289280143E+03  0.10825310260E+04  0.99149679759E+03 0.  0.
   -9000010    2    1    2    0  502  0.18672099547E+03  0.85649839418E+02  0.36203667969E+03  0.10827031694E+04  0.99948735382E+03 0.  0.
        -13    1    3    3    0    0 -0.42200258519E+03  0.68609300269E+02  0.17164091074E+03  0.46071035521E+03  0.10566000000E+00 0.  1.
          4    1    3    3  501    0  0.23528158973E+03 -0.15425913969E+03 -0.55453371217E+03  0.62182067075E+03  0.00000000000E+00 0.  1.
         13    1    4    4    0    0  0.20206421196E+03 -0.21413889891E+03  0.62035452246E+03  0.68667689525E+03  0.10566000000E+00 0. -1.
         -4    1    4    4    0  502 -0.15343216497E+02  0.29978873833E+03 -0.25831784277E+03  0.39602627414E+03  0.00000000000E+00 0. -1.
<mgrwt>
<rscale>  2 0.10184181E+04</rscale>
<asrwt>0</asrwt>
<pdfrwt beam="1">  1       21 0.16495216E+00 0.10203801E+04</pdfrwt>
<pdfrwt beam="2">  1       21 0.16816079E+00 0.10203801E+04</pdfrwt>
<totfact> 0.24363928E+01</totfact>
</mgrwt>
</event>
<event>
 8    1  0.7418332E-006  0.1002932E+04  0.7818608E-02  0.8772794E-01
         21   -1    0    0  503  502  0.00000000000E+00  0.00000000000E+00  0.69655562572E+03  0.69655562572E+03  0.00000000000E+00 0.  1.
         21   -1    0    0  501  503 -0.00000000000E+00 -0.00000000000E+00 -0.14459427050E+04  0.14459427050E+04  0.00000000000E+00 0.  1.
    9000010    2    1    2  501    0  0.80554757521E+02  0.17927696250E+02 -0.45370728018E+03  0.11007829909E+04  0.99953110288E+03 0.  0.
   -9000010    2    1    2    0  502 -0.80554757521E+02 -0.17927696250E+02 -0.29567979912E+03  0.10417153399E+04  0.99545659599E+03 0.  0.
        -13    1    3    3    0    0  0.16259659125E+03 -0.47116282515E+03 -0.15558140211E+03  0.52214714701E+03  0.10566000000E+00 0.  1.
          4    1    3    3  501    0 -0.82041833726E+02  0.48909052140E+03 -0.29812587807E+03  0.57863584384E+03  0.00000000000E+00 0.  1.
         13    1    4    4    0    0  0.99248764167E+02  0.44759699877E+03  0.61256834502E+01  0.45850946081E+03  0.10566000000E+00 0. -1.
         -4    1    4    4    0  502 -0.17980352169E+03 -0.46552469502E+03 -0.30180548257E+03  0.58320587908E+03  0.00000000000E+00 0. -1.
<mgrwt>
<rscale>  2 0.10019154E+04</rscale>
<asrwt>0</asrwt>
<pdfrwt beam="1">  1       21 0.10716241E+00 0.10029321E+04</pdfrwt>
<pdfrwt beam="2">  1       21 0.22245272E+00 0.10029321E+04</pdfrwt>
<totfact> 0.32196035E+01</totfact>
</mgrwt>
</event>
<event>
 8    1  0.7418332E-006  0.1018100E+04  0.7818608E-02  0.8762327E-01
         21   -1    0    0  501  502  0.00000000000E+00  0.00000000000E+00  0.56111014168E+03  0.56111014168E+03  0.00000000000E+00 0. -1.
         21   -1    0    0  502  503 -0.00000000000E+00 -0.00000000000E+00 -0.18779002053E+04  0.18779002053E+04  0.00000000000E+00 0. -1.
    9000010    2    1    2  501    0 -0.68191027961E+02  0.68742312541E+02 -0.89329183456E+03  0.13544361357E+04  0.10134847912E+04 0.  0.
   -9000010    2    1    2    0  503  0.68191027961E+02 -0.68742312541E+02 -0.42349822902E+03  0.10845742113E+04  0.99376805541E+03 0.  0.
        -13    1    3    3    0    0  0.14651146174E+03 -0.35443308020E+03 -0.49952262646E+02  0.38676046394E+03  0.10566000000E+00 0.  1.
          4    1    3    3  501    0 -0.21470248970E+03  0.42317539274E+03 -0.84333957191E+03  0.96767567173E+03  0.00000000000E+00 0.  1.
         13    1    4    4    0    0 -0.13805566973E+03 -0.47477436455E+02 -0.71338474953E+03  0.72816982012E+03  0.10566000000E+00 0. -1.
         -4    1    4    4    0  503  0.20624669769E+03 -0.21264876086E+02  0.28988652051E+03  0.35640439116E+03  0.00000000000E+00 0. -1.
<mgrwt>
<rscale>  2 0.10131574E+04</rscale>
<asrwt>0</asrwt>
<pdfrwt beam="1">  1       21 0.86324638E-01 0.10180997E+04</pdfrwt>
<pdfrwt beam="2">  1       21 0.28890772E+00 0.10180997E+04</pdfrwt>
<totfact> 0.18521924E+01</totfact>
</mgrwt>
</event>
<event>
 8    1  0.7418332E-006  0.1024794E+04  0.7818608E-02  0.8751788E-01
         21   -1    0    0  503  502  0.00000000000E+00  0.00000000000E+00  0.12395445615E+04  0.12395445615E+04  0.00000000000E+00 0.  1.
         21   -1    0    0  501  503 -0.00000000000E+00 -0.00000000000E+00 -0.89142784149E+03  0.89142784149E+03  0.00000000000E+00 0.  1.
    9000010    2    1    2  501    0 -0.16538959293E+03  0.18127215965E+03 -0.64647168537E+02  0.10261751866E+04  0.99430525690E+03 0.  0.
   -9000010    2    1    2    0  502  0.16538959293E+03 -0.18127215965E+03  0.41276388857E+03  0.11047972164E+04  0.99498218494E+03 0.  0.
        -13    1    3    3    0    0 -0.31903972112E+02 -0.38765313897E+03  0.13019281690E+03  0.41017435357E+03  0.10566000000E+00 0.  1.
          4    1    3    3  501    0 -0.13348562081E+03  0.56892529862E+03 -0.19483998543E+03  0.61600083303E+03  0.00000000000E+00 0.  1.
         13    1    4    4    0    0  0.16813196702E+03  0.31892629435E+03 -0.11424566603E+03  0.37819891979E+03  0.10566000000E+00 0. -1.
         -4    1    4    4    0  502 -0.27423740937E+01 -0.50019845400E+03  0.52700955460E+03  0.72659829661E+03  0.00000000000E+00 0. -1.
<mgrwt>
<rscale>  2 0.10246297E+04</rscale>
<asrwt>0</asrwt>
<pdfrwt beam="1">  1       21 0.19069916E+00 0.10247941E+04</pdfrwt>
<pdfrwt beam="2">  1       21 0.13714274E+00 0.10247941E+04</pdfrwt>
<totfact> 0.28145615E+01</totfact>
</mgrwt>
</event>
<event>
 8    1  0.7418332E-006  0.1098731E+04  0.7818608E-02  0.8708155E-01
         21   -1    0    0  501  502  0.00000000000E+00  0.00000000000E+00  0.29734707901E+04  0.29734707901E+04  0.00000000000E+00 0.  1.
         21   -1    0    0  502  503 -0.00000000000E+00 -0.00000000000E+00 -0.38153661957E+03  0.38153661957E+03  0.00000000000E+00 0.  1.
    9000010    2    1    2  501    0  0.33940260486E+02 -0.18397014434E+02  0.96237146241E+03  0.13896359079E+04  0.10017178911E+04 0.  0.
   -9000010    2    1    2    0  503 -0.33940260486E+02  0.18397014434E+02  0.16295627081E+04  0.19653715017E+04  0.10980528807E+04 0.  0.
        -13    1    3    3    0    0  0.49082579933E+03 -0.58727411668E+02  0.71290411400E+03  0.86752012143E+03  0.10566000000E+00 0.  1.
          4    1    3    3  501    0 -0.45688553884E+03  0.40330397234E+02  0.24946734841E+03  0.52211578645E+03  0.00000000000E+00 0.  1.
         13    1    4    4    0    0 -0.39313219425E+03  0.24526758317E+01  0.11629921049E+03  0.40998104261E+03  0.10566000000E+00 0. -1.
         -4    1    4    4    0  503  0.35919193377E+03  0.15944338602E+02  0.15132634976E+04  0.15553904591E+04  0.00000000000E+00 0. -1.
<mgrwt>
<rscale>  2 0.10738301E+04</rscale>
<asrwt>0</asrwt>
<pdfrwt beam="1">  1       21 0.45745703E+00 0.10987313E+04</pdfrwt>
<pdfrwt beam="2">  1       21 0.58697943E-01 0.10987313E+04</pdfrwt>
<totfact> 0.30325889E+00</totfact>
</mgrwt>
</event>
<event>
 8    1  0.7418332E-006  0.1017529E+04  0.7818608E-02  0.8760524E-01
         21   -1    0    0  503  502  0.00000000000E+00  0.00000000000E+00  0.11692513613E+04  0.11692513613E+04  0.00000000000E+00 0. -1.
         21   -1    0    0  501  503 -0.00000000000E+00 -0.00000000000E+00 -0.98342515991E+03  0.98342515991E+03  0.00000000000E+00 0. -1.
    9000010    2    1    2  501    0  0.16977586086E+03  0.28510012214E+02 -0.26057170676E+03  0.10503636241E+04  0.10028606407E+04 0.  0.
   -9000010    2    1    2    0  502 -0.16977586086E+03 -0.28510012214E+02  0.44639790817E+03  0.11023128971E+04  0.99306896390E+03 0.  0.
        -13    1    3    3    0    0 -0.36574033416E+03  0.23544958073E+03 -0.17951039989E+03  0.47055976447E+03  0.10566000000E+00 0.  1.
          4    1    3    3  501    0  0.53551619502E+03 -0.20693956852E+03 -0.81061306871E+02  0.57980385961E+03  0.00000000000E+00 0.  1.
         13    1    4    4    0    0 -0.21206354848E+03  0.43877338779E+03  0.40067202117E+03  0.63089707095E+03  0.10566000000E+00 0. -1.
         -4    1    4    4    0  502  0.42287687620E+02 -0.46728340000E+03  0.45725886997E+02  0.47141582619E+03  0.00000000000E+00 0. -1.
<mgrwt>
<rscale>  2 0.10151085E+04</rscale>
<asrwt>0</asrwt>
<pdfrwt beam="1">  1       21 0.17988483E+00 0.10175294E+04</pdfrwt>
<pdfrwt beam="2">  1       21 0.15129618E+00 0.10175294E+04</pdfrwt>
<totfact> 0.25608736E+01</totfact>
</mgrwt>
</event>
<event>
 8    1  0.7418332E-006  0.1011882E+04  0.7818608E-02  0.8769850E-01
         21   -1    0    0  501  502  0.00000000000E+00  0.00000000000E+00  0.51647287381E+03  0.51647287381E+03  0.00000000000E+00 0. -1.
         21   -1    0    0  502  503 -0.00000000000E+00 -0.00000000000E+00 -0.20860081531E+04  0.20860081531E+04  0.00000000000E+00 0. -1.
    9000010    2    1    2  501    0  0.16963284269E+02  0.64993100035E+02 -0.43869521248E+03  0.11028867776E+04  0.10096503844E+04 0.  0.
   -9000010    2    1    2    0  503 -0.16963284269E+02 -0.64993100035E+02 -0.11308400669E+04  0.14995942494E+04  0.98258424570E+03 0.  0.
        -13    1    3    3    0    0  0.22784662792E+03 -0.26204342179E+03  0.16514868118E+03  0.38451910072E+03  0.10566000000E+00 0.  1.
          4    1    3    3  501    0 -0.21088334365E+03  0.32703652182E+03 -0.60384389366E+03  0.71836767685E+03  0.00000000000E+00 0.  1.
         13    1    4    4    0    0 -0.49911304105E+03 -0.53460228569E+02 -0.60334659437E+03  0.78485600456E+03  0.10566000000E+00 0. -1.
         -4    1    4    4    0  503  0.48214975679E+03 -0.11532871466E+02 -0.52749347249E+03  0.71473824483E+03  0.00000000000E+00 0. -1.
<mgrwt>
<rscale>  2 0.10050624E+04</rscale>
<asrwt>0</asrwt>
<pdfrwt beam="1">  1       21 0.79457367E-01 0.10118823E+04</pdfrwt>
<pdfrwt beam="2">  1       21 0.32092433E+00 0.10118823E+04</pdfrwt>
<totfact> 0.13541978E+01</totfact>
</mgrwt>
</event>
<event>
 8    1  0.7418332E-006  0.1018427E+04  0.7818608E-02  0.8761211E-01
         21   -1    0    0  501  502  0.00000000000E+00  0.00000000000E+00  0.19978904332E+04  0.19978904332E+04  0.00000000000E+00 0.  1.
         21   -1    0    0  502  503 -0.00000000000E+00 -0.00000000000E+00 -0.86655033574E+03  0.86655033574E+03  0.00000000000E+00 0.  1.
    9000010    2    1    2  501    0  0.10604473578E+03  0.98767610582E+02  0.14804707725E+04  0.17878327417E+04  0.99174173917E+03 0.  0.
   -9000010    2    1    2    0  503 -0.10604473578E+03 -0.98767610582E+02 -0.34913067506E+03  0.10766080272E+04  0.10080635342E+04 0.  0.
        -13    1    3    3    0    0  0.26343850540E+03  0.63902458791E+02  0.15768694158E+04  0.16000001675E+04  0.10566000000E+00 0.  1.
          4    1    3    3  501    0 -0.15739376962E+03  0.34865151791E+02 -0.96398643256E+02  0.18783257424E+03  0.00000000000E+00 0.  1.
         13    1    4    4    0    0 -0.48310193324E+03  0.54773574878E+01 -0.46300201639E+03  0.66916990196E+03  0.10566000000E+00 0. -1.
         -4    1    4    4    0  503  0.37705719746E+03 -0.10424496807E+03  0.11387134132E+03  0.40743812524E+03  0.00000000000E+00 0. -1.
<mgrwt>
<rscale>  2 0.10143640E+04</rscale>
<asrwt>0</asrwt>
<pdfrwt beam="1">  1       21 0.30736776E+00 0.10184265E+04</pdfrwt>
<pdfrwt beam="2">  1       21 0.13331544E+00 0.10184265E+04</pdfrwt>
<totfact> 0.42501630E+00</totfact>
</mgrwt>
</event>
<event>
 8    1  0.7418332E-006  0.1012539E+04  0.7818608E-02  0.8764298E-01
         21   -1    0    0  503  502  0.00000000000E+00  0.00000000000E+00  0.86993792657E+03  0.86993792657E+03  0.00000000000E+00 0.  1.
         21   -1    0    0  501  503 -0.00000000000E+00 -0.00000000000E+00 -0.19144032131E+04  0.19144032131E+04  0.00000000000E+00 0.  1.
    9000010    2    1    2  501    0 -0.16488008959E+03 -0.93529705651E+01 -0.13904238403E+04  0.17200329053E+04  0.99898038895E+03 0.  0.
   -9000010    2    1    2    0  502  0.16488008959E+03  0.93529705651E+01  0.34595855387E+03  0.10643082343E+04  0.99287047224E+03 0.  0.
        -13    1    3    3    0    0  0.31679267340E+03 -0.29581535978E+03 -0.77279694072E+03  0.88604709116E+03  0.10566000000E+00 0.  1.
          4    1    3    3  501    0 -0.48167276300E+03  0.28646238921E+03 -0.61762689963E+03  0.83398581414E+03  0.00000000000E+00 0.  1.
         13    1    4    4    0    0 -0.38626959946E+03  0.16639620989E+03  0.23085321847E+03  0.47977611630E+03  0.10566000000E+00 0. -1.
         -4    1    4    4    0  502  0.55114968905E+03 -0.15704323932E+03  0.11510533540E+03  0.58453211802E+03  0.00000000000E+00 0. -1.
<mgrwt>
<rscale>  2 0.10110285E+04</rscale>
<asrwt>0</asrwt>
<pdfrwt beam="1">  1       21 0.13383661E+00 0.10125388E+04</pdfrwt>
<pdfrwt beam="2">  1       21 0.29452357E+00 0.10125388E+04</pdfrwt>
<totfact> 0.51880847E+00</totfact>
</mgrwt>
</event>
<event>
 8    1  0.7418332E-006  0.1017011E+04  0.7818608E-02  0.8763879E-01
         21   -1    0    0  503  502  0.00000000000E+00  0.00000000000E+00  0.92112994778E+03  0.92112994778E+03  0.00000000000E+00 0. -1.
         21   -1    0    0  501  503 -0.00000000000E+00 -0.00000000000E+00 -0.11447444979E+04  0.11447444979E+04  0.00000000000E+00 0. -1.
    9000010    2    1    2  501    0 -0.19107549797E+03 -0.16597063105E+03 -0.31995248184E+03  0.10661523851E+04  0.98501534061E+03 0.  0.
   -9000010    2    1    2    0  502  0.19107549797E+03  0.16597063105E+03  0.96337931675E+02  0.99972206066E+03  0.96234458756E+03 0.  0.
        -13    1    3    3    0    0  0.29626891658E+03  0.77180394146E+02 -0.41251015578E+03  0.51370879296E+03  0.10566000000E+00 0.  1.
          4    1    3    3  501    0 -0.48734441455E+03 -0.24315102519E+03  0.92557673947E+02  0.55244359210E+03  0.00000000000E+00 0.  1.
         13    1    4    4    0    0 -0.21416626554E+02  0.10898235621E+03 -0.42213610447E+03  0.43650283815E+03  0.10566000000E+00 0. -1.
         -4    1    4    4    0  502  0.21249212452E+03  0.56988274835E+02  0.51847403614E+03  0.56321922251E+03  0.00000000000E+00 0. -1.
<mgrwt>
<rscale>  2 0.10114806E+04</rscale>
<asrwt>0</asrwt>
<pdfrwt beam="1">  1       21 0.14171230E+00 0.10170110E+04</pdfrwt>
<pdfrwt beam="2">  1       21 0.17611454E+00 0.10170110E+04</pdfrwt>
<totfact> 0.33562645E+01</totfact>
</mgrwt>
</event>
<event>
 8    1  0.7418332E-006  0.1038896E+04  0.7818608E-02  0.8740088E-01
         21   -1    0    0  503  502  0.00000000000E+00  0.00000000000E+00  0.11904202324E+04  0.11904202324E+04  0.00000000000E+00 0.  1.
         21   -1    0    0  501  503 -0.00000000000E+00 -0.00000000000E+00 -0.10424065393E+04  0.10424065393E+04  0.00000000000E+00 0.  1.
    9000010    2    1    2  501    0 -0.10699889728E+03 -0.16276450067E+03 -0.33559246581E+03  0.10917545514E+04  0.10204727585E+04 0.  0.
   -9000010    2    1    2    0  502  0.10699889728E+03  0.16276450067E+03  0.48360615892E+03  0.11410722202E+04  0.10150023882E+04 0.  0.
        -13    1    3    3    0    0 -0.13245218925E+03  0.31847745462E+03 -0.47780416018E+03  0.58929474644E+03  0.10566000000E+00 0.  1.
          4    1    3    3  501    0  0.25453291969E+02 -0.48124195529E+03  0.14221169437E+03  0.50245980498E+03  0.00000000000E+00 0.  1.
         13    1    4    4    0    0  0.46076877558E+02 -0.41206298730E+03  0.48269563731E+02  0.41743136693E+03  0.10566000000E+00 0. -1.
         -4    1    4    4    0  502  0.60922019719E+02  0.57482748797E+03  0.43533659519E+03  0.72364085327E+03  0.00000000000E+00 0. -1.
<mgrwt>
<rscale>  2 0.10375506E+04</rscale>
<asrwt>0</asrwt>
<pdfrwt beam="1">  1       21 0.18314157E+00 0.10388964E+04</pdfrwt>
<pdfrwt beam="2">  1       21 0.16037024E+00 0.10388964E+04</pdfrwt>
<totfact> 0.19974208E+01</totfact>
</mgrwt>
</event>
<event>
 8    1  0.7418332E-006  0.1004441E+04  0.7818608E-02  0.8771785E-01
         21   -1    0    0  503  502  0.00000000000E+00  0.00000000000E+00  0.13271002699E+04  0.13271002699E+04  0.00000000000E+00 0.  1.
         21   -1    0    0  501  503 -0.00000000000E+00 -0.00000000000E+00 -0.99609508994E+03  0.99609508994E+03  0.00000000000E+00 0.  1.
    9000010    2    1    2  501    0 -0.74499553931E+02  0.11576751978E+03  0.73559699942E+03  0.12403305800E+04  0.98912319761E+03 0.  0.
   -9000010    2    1    2    0  502  0.74499553931E+02 -0.11576751978E+03 -0.40459181947E+03  0.10828647798E+04  0.99496195344E+03 0.  0.
        -13    1    3    3    0    0  0.36578551820E+03  0.14621253088E+03  0.13638176212E+02  0.39416133819E+03  0.10566000000E+00 0.  1.
          4    1    3    3  501    0 -0.44028507213E+03 -0.30445011098E+02  0.72195882320E+03  0.84616924184E+03  0.00000000000E+00 0.  1.
         13    1    4    4    0    0 -0.47200181582E+02 -0.50184981814E+03  0.89859724098E+01  0.50414467763E+03  0.10566000000E+00 0. -1.
         -4    1    4    4    0  502  0.12169973551E+03  0.38608229836E+03 -0.41357779188E+03  0.57872010218E+03  0.00000000000E+00 0. -1.
<mgrwt>
<rscale>  2 0.10029920E+04</rscale>
<asrwt>0</asrwt>
<pdfrwt beam="1">  1       21 0.20416927E+00 0.10044409E+04</pdfrwt>
<pdfrwt beam="2">  1       21 0.15324540E+00 0.10044409E+04</pdfrwt>
<totfact> 0.15839301E+01</totfact>
</mgrwt>
</event>
<event>
 8    1  0.7418332E-006  0.1032413E+04  0.7818608E-02  0.8758810E-01
         21   -1    0    0  503  502  0.00000000000E+00  0.00000000000E+00  0.79421628708E+03  0.79421628708E+03  0.00000000000E+00 0. -1.
         21   -1    0    0  501  503 -0.00000000000E+00 -0.00000000000E+00 -0.16697403484E+04  0.16697403484E+04  0.00000000000E+00 0. -1.
    9000010    2    1    2  501    0  0.20439761212E+03  0.16684586169E+03 -0.10343554928E+04  0.14193978307E+04  0.93551215425E+03 0.  0.
   -9000010    2    1    2    0  502 -0.20439761212E+03 -0.16684586169E+03  0.15883143154E+03  0.10445588048E+04  0.99812812182E+03 0.  0.
        -13    1    3    3    0    0  0.51609823247E+03  0.33742172723E+03 -0.66461326684E+03  0.90659892631E+03  0.10566000000E+00 0.  1.
          4    1    3    3  501    0 -0.31170062035E+03 -0.17057586554E+03 -0.36974222601E+03  0.51279890437E+03  0.00000000000E+00 0.  1.
         13    1    4    4    0    0  0.34795298152E+03  0.16808906503E+03  0.56310137014E+02  0.39050743121E+03  0.10566000000E+00 0. -1.
         -4    1    4    4    0  502 -0.55235059364E+03 -0.33493492672E+03  0.10252129453E+03  0.65405137357E+03  0.00000000000E+00 0. -1.
<mgrwt>
<rscale>  2 0.10169682E+04</rscale>
<asrwt>0</asrwt>
<pdfrwt beam="1">  1       21 0.12218712E+00 0.10324125E+04</pdfrwt>
<pdfrwt beam="2">  1       21 0.25688313E+00 0.10324125E+04</pdfrwt>
<totfact> 0.12449855E+01</totfact>
</mgrwt>
</event>
<event>
 8    1  0.7418332E-006  0.1050846E+04  0.7818608E-02  0.8731676E-01
         21   -1    0    0  501  502  0.00000000000E+00  0.00000000000E+00  0.23130047806E+04  0.23130047806E+04  0.00000000000E+00 0.  1.
         21   -1    0    0  502  503 -0.00000000000E+00 -0.00000000000E+00 -0.52262914254E+03  0.52262914254E+03  0.00000000000E+00 0.  1.
    9000010    2    1    2  501    0 -0.32965899885E+02 -0.26691011857E+03  0.13492401736E+04  0.17101832180E+04  0.10158493151E+04 0.  0.
   -9000010    2    1    2    0  503  0.32965899885E+02  0.26691011857E+03  0.44113546437E+03  0.11254507051E+04  0.99985550440E+03 0.  0.
        -13    1    3    3    0    0  0.38027520336E+03 -0.19039722754E+02  0.11073883713E+04  0.11710169757E+04  0.10566000000E+00 0.  1.
          4    1    3    3  501    0 -0.41324110325E+03 -0.24787039581E+03  0.24185180230E+03  0.53916624228E+03  0.00000000000E+00 0.  1.
         13    1    4    4    0    0  0.21230893417E+03  0.26037258795E+03  0.71960268289E+03  0.79416434097E+03  0.10566000000E+00 0. -1.
         -4    1    4    4    0  503 -0.17934303429E+03  0.65375306162E+01 -0.27846721852E+03  0.33128636411E+03  0.00000000000E+00 0. -1.
<mgrwt>
<rscale>  2 0.10469614E+04</rscale>
<asrwt>0</asrwt>
<pdfrwt beam="1">  1       21 0.35584688E+00 0.10508461E+04</pdfrwt>
<pdfrwt beam="2">  1       21 0.80404485E-01 0.10508461E+04</pdfrwt>
<totfact> 0.74169155E+00</totfact>
</mgrwt>
</event>
<event>
 8    1  0.7418332E-006  0.1051359E+04  0.7818608E-02  0.8735702E-01
         21   -1    0    0  503  502  0.00000000000E+00  0.00000000000E+00  0.93898384351E+03  0.93898384351E+03  0.00000000000E+00 0. -1.
         21   -1    0    0  501  503 -0.00000000000E+00 -0.00000000000E+00 -0.15684300048E+04  0.15684300048E+04  0.00000000000E+00 0. -1.
    9000010    2    1    2  501    0  0.20259027426E+03 -0.19939833095E+01 -0.97524361416E+03  0.14340346589E+04  0.10316532852E+04 0.  0.
   -9000010    2    1    2    0  502 -0.20259027426E+03  0.19939833095E+01  0.34579745289E+03  0.10733791894E+04  0.99575107863E+03 0.  0.
        -13    1    3    3    0    0  0.44036314890E+03  0.28680341810E+03 -0.18051206556E+03  0.55566223600E+03  0.10566000000E+00 0.  1.
          4    1    3    3  501    0 -0.23777287464E+03 -0.28879740141E+03 -0.79473154861E+03  0.87837242291E+03  0.00000000000E+00 0.  1.
         13    1    4    4    0    0 -0.14951920641E+03 -0.31712434992E+03 -0.22548958751E+03  0.41685658401E+03  0.10566000000E+00 0. -1.
         -4    1    4    4    0  502 -0.53071067847E+02  0.31911833322E+03  0.57128704040E+03  0.65652260538E+03  0.00000000000E+00 0. -1.
<mgrwt>
<rscale>  2 0.10424446E+04</rscale>
<asrwt>0</asrwt>
<pdfrwt beam="1">  1       21 0.14445905E+00 0.10513588E+04</pdfrwt>
<pdfrwt beam="2">  1       21 0.24129692E+00 0.10513588E+04</pdfrwt>
<totfact> 0.98748599E+00</totfact>
</mgrwt>
</event>
<event>
 8    1  0.7418332E-006  0.1033721E+04  0.7818608E-02  0.8744166E-01
         21   -1    0    0  503  502  0.00000000000E+00  0.00000000000E+00  0.10176998808E+04  0.10176998808E+04  0.00000000000E+00 0.  1.
         21   -1    0    0  501  503 -0.00000000000E+00 -0.00000000000E+00 -0.10899224948E+04  0.10899224948E+04  0.00000000000E+00 0.  1.
    9000010    2    1    2  501    0 -0.84602195343E+02 -0.24786678083E+03  0.17264291663E+03  0.10452954216E+04  0.99711657754E+03 0.  0.
   -9000010    2    1    2    0  502  0.84602195343E+02  0.24786678083E+03 -0.24486553066E+03  0.10623269540E+04  0.99999197827E+03 0.  0.
        -13    1    3    3    0    0  0.45017503331E+03 -0.18713815923E+03  0.13447746563E+03  0.50572962260E+03  0.10566000000E+00 0.  1.
          4    1    3    3  501    0 -0.53477722865E+03 -0.60728621597E+02  0.38165451001E+02  0.53956579897E+03  0.00000000000E+00 0.  1.
         13    1    4    4    0    0 -0.31454275973E+03  0.43340946393E+03  0.41636334598E+02  0.53713546397E+03  0.10566000000E+00 0. -1.
         -4    1    4    4    0  502  0.39914495508E+03 -0.18554268310E+03 -0.28650186525E+03  0.52519149004E+03  0.00000000000E+00 0. -1.
<mgrwt>
<rscale>  2 0.10330251E+04</rscale>
<asrwt>0</asrwt>
<pdfrwt beam="1">  1       21 0.15656921E+00 0.10337212E+04</pdfrwt>
<pdfrwt beam="2">  1       21 0.16768039E+00 0.10337212E+04</pdfrwt>
<totfact> 0.28951385E+01</totfact>
</mgrwt>
</event>
<event>
 8    1  0.7418332E-006  0.1042693E+04  0.7818608E-02  0.8735975E-01
         21   -1    0    0  503  502  0.00000000000E+00  0.00000000000E+00  0.86571963639E+03  0.86571963639E+03  0.00000000000E+00 0.  1.
         21   -1    0    0  501  503 -0.00000000000E+00 -0.00000000000E+00 -0.12916874042E+04  0.12916874042E+04  0.00000000000E+00 0.  1.
    9000010    2    1    2  501    0 -0.31015463505E+03 -0.19744048225E+02 -0.26514832738E+02  0.10408182992E+04  0.99298236167E+03 0.  0.
   -9000010    2    1    2    0  502  0.31015463505E+03  0.19744048225E+02 -0.39945293506E+03  0.11165887414E+04  0.99529997735E+03 0.  0.
        -13    1    3    3    0    0 -0.22177565233E+03 -0.89577392098E+02  0.47231769482E+03  0.52942663812E+03  0.10566000000E+00 0.  1.
          4    1    3    3  501    0 -0.88378982715E+02  0.69833343873E+02 -0.49883252756E+03  0.51139166111E+03  0.00000000000E+00 0.  1.
         13    1    4    4    0    0  0.22920783263E+02 -0.47166248667E+03 -0.20868516121E+03  0.51627548006E+03  0.10566000000E+00 0. -1.
         -4    1    4    4    0  502  0.28723385179E+03  0.49140653489E+03 -0.19076777385E+03  0.60031326130E+03  0.00000000000E+00 0. -1.
<mgrwt>
<rscale>  2 0.10421391E+04</rscale>
<asrwt>0</asrwt>
<pdfrwt beam="1">  1       21 0.13318764E+00 0.10426926E+04</pdfrwt>
<pdfrwt beam="2">  1       21 0.19872114E+00 0.10426926E+04</pdfrwt>
<totfact> 0.26406718E+01</totfact>
</mgrwt>
</event>
<event>
 8    1  0.7418332E-006  0.1034444E+04  0.7818608E-02  0.8747761E-01
         21   -1    0    0  501  502  0.00000000000E+00  0.00000000000E+00  0.87333946814E+03  0.87333946814E+03  0.00000000000E+00 0.  1.
         21   -1    0    0  502  503 -0.00000000000E+00 -0.00000000000E+00 -0.14193929674E+04  0.14193929674E+04  0.00000000000E+00 0.  1.
    9000010    2    1    2  501    0  0.20633584820E+03  0.65650161984E+02  0.17999456500E+03  0.10289203034E+04  0.98964363353E+03 0.  0.
   -9000010    2    1    2    0  503 -0.20633584820E+03 -0.65650161984E+02 -0.72604806426E+03  0.12638121321E+04  0.10115289851E+04 0.  0.
        -13    1    3    3    0    0 -0.34829330833E+03  0.15291595301E+03 -0.11139205428E+03  0.39635806820E+03  0.10566000000E+00 0.  1.
          4    1    3    3  501    0  0.55462915653E+03 -0.87265791022E+02  0.29138661928E+03  0.63256223524E+03  0.00000000000E+00 0.  1.
         13    1    4    4    0    0 -0.61410343246E+03 -0.11135719054E+03 -0.43998304190E+03  0.76361543854E+03  0.10566000000E+00 0. -1.
         -4    1    4    4    0  503  0.40776758426E+03  0.45707028555E+02 -0.28606502235E+03  0.50019669356E+03  0.00000000000E+00 0. -1.
<mgrwt>
<rscale>  2 0.10290549E+04</rscale>
<asrwt>0</asrwt>
<pdfrwt beam="1">  1       21 0.13435992E+00 0.10344444E+04</pdfrwt>
<pdfrwt beam="2">  1       21 0.21836815E+00 0.10344444E+04</pdfrwt>
<totfact> 0.18218505E+01</totfact>
</mgrwt>
</event>
<event>
 8    1  0.7418332E-006  0.1030883E+04  0.7818608E-02  0.8747811E-01
         21   -1    0    0  501  502  0.00000000000E+00  0.00000000000E+00  0.24933975217E+04  0.24933975217E+04  0.00000000000E+00 0. -1.
         21   -1    0    0  502  503 -0.00000000000E+00 -0.00000000000E+00 -0.48038686389E+03  0.48038686389E+03  0.00000000000E+00 0. -1.
    9000010    2    1    2  501    0 -0.94233088310E+02  0.21571923928E+03  0.49634677154E+03  0.11441502480E+04  0.10036458575E+04 0.  0.
   -9000010    2    1    2    0  503  0.94233088310E+02 -0.21571923928E+03  0.15166638863E+04  0.18296341377E+04  0.99593025284E+03 0.  0.
        -13    1    3    3    0    0  0.10961422940E+03 -0.14978839641E+03 -0.23624804929E+03  0.30044133361E+03  0.10566000000E+00 0.  1.
          4    1    3    3  501    0 -0.20384731771E+03  0.36550763568E+03  0.73259482082E+03  0.84370891436E+03  0.00000000000E+00 0.  1.
         13    1    4    4    0    0 -0.45117854719E+03 -0.61317320999E+02  0.63174660329E+03  0.77873338007E+03  0.10566000000E+00 0. -1.
         -4    1    4    4    0  503  0.54541163550E+03 -0.15440191828E+03  0.88491728301E+03  0.10509007576E+04  0.00000000000E+00 0. -1.
<mgrwt>
<rscale>  2 0.10290002E+04</rscale>
<asrwt>0</asrwt>
<pdfrwt beam="1">  1       21 0.38359961E+00 0.10308830E+04</pdfrwt>
<pdfrwt beam="2">  1       21 0.73905673E-01 0.10308830E+04</pdfrwt>
<totfact> 0.58327259E+00</totfact>
</mgrwt>
</event>
<event>
 8    1  0.7418332E-006  0.1164829E+04  0.7818608E-02  0.8635468E-01
         21   -1    0    0  503  502  0.00000000000E+00  0.00000000000E+00  0.11197955342E+04  0.11197955342E+04  0.00000000000E+00 0. -1.
         21   -1    0    0  501  503 -0.00000000000E+00 -0.00000000000E+00 -0.17182171077E+04  0.17182171077E+04  0.00000000000E+00 0. -1.
    9000010    2    1    2  501    0 -0.40501560517E+03  0.39675627883E+03  0.47812856880E+03  0.12591398937E+04  0.10175328782E+04 0.  0.
   -9000010    2    1    2    0  502  0.40501560517E+03 -0.39675627883E+03 -0.10765501422E+04  0.15788727482E+04  0.10061936996E+04 0.  0.
        -13    1    3    3    0    0  0.23153657105E+03 -0.18666492442E+03  0.78011801158E+02  0.30747167354E+03  0.10566000000E+00 0.  1.
          4    1    3    3  501    0 -0.63655217622E+03  0.58342120326E+03  0.40011676764E+03  0.95166822013E+03  0.00000000000E+00 0.  1.
         13    1    4    4    0    0 -0.25251587035E+03 -0.79540033653E+02  0.15580525252E+02  0.26520491259E+03  0.10566000000E+00 0. -1.
         -4    1    4    4    0  502  0.65753147552E+03 -0.31721624518E+03 -0.10921306675E+04  0.13136678356E+04  0.00000000000E+00 0. -1.
<mgrwt>
<rscale>  2 0.11623479E+04</rscale>
<asrwt>0</asrwt>
<pdfrwt beam="1">  1       21 0.17227623E+00 0.11648289E+04</pdfrwt>
<pdfrwt beam="2">  1       21 0.26434110E+00 0.11648289E+04</pdfrwt>
<totfact> 0.37482864E+00</totfact>
</mgrwt>
</event>
<event>
 8    1  0.7418332E-006  0.1095431E+04  0.7818608E-02  0.8691545E-01
         21   -1    0    0  501  502  0.00000000000E+00  0.00000000000E+00  0.10894805758E+04  0.10894805758E+04  0.00000000000E+00 0.  1.
         21   -1    0    0  502  503 -0.00000000000E+00 -0.00000000000E+00 -0.20140073887E+04  0.20140073887E+04  0.00000000000E+00 0.  1.
    9000010    2    1    2  501    0  0.19771740786E+03 -0.40360036617E+03  0.58809194270E+03  0.12358730716E+04  0.98971949914E+03 0.  0.
   -9000010    2    1    2    0  503 -0.19771740786E+03  0.40360036617E+03 -0.15126187556E+04  0.18676148930E+04  0.99899172154E+03 0.  0.
        -13    1    3    3    0    0 -0.26032623116E+03 -0.43438976669E+03  0.21823440708E+02  0.50689297664E+03  0.10566000000E+00 0.  1.
          4    1    3    3  501    0  0.45804363903E+03  0.30789400522E+02  0.56626850199E+03  0.72898009492E+03  0.00000000000E+00 0.  1.
         13    1    4    4    0    0 -0.24609399980E+03  0.54187601050E+03 -0.33905938404E+03  0.68494754877E+03  0.10566000000E+00 0. -1.
         -4    1    4    4    0  503  0.48376591935E+02 -0.13827564433E+03 -0.11735593716E+04  0.11826673442E+04  0.00000000000E+00 0. -1.
<mgrwt>
<rscale>  2 0.10933129E+04</rscale>
<asrwt>0</asrwt>
<pdfrwt beam="1">  1       21 0.16761240E+00 0.10954314E+04</pdfrwt>
<pdfrwt beam="2">  1       21 0.30984729E+00 0.10954314E+04</pdfrwt>
<totfact> 0.19783745E+00</totfact>
</mgrwt>
</event>
<event>
 8    1  0.7418332E-006  0.1190383E+04  0.7818608E-02  0.8614363E-01
         21   -1    0    0  501  502  0.00000000000E+00  0.00000000000E+00  0.19128309576E+04  0.19128309576E+04  0.00000000000E+00 0. -1.
         21   -1    0    0  502  503 -0.00000000000E+00 -0.00000000000E+00 -0.10130469730E+04  0.10130469730E+04  0.00000000000E+00 0. -1.
    9000010    2    1    2  501    0  0.59911022638E+03  0.22911516761E+03  0.12110479024E+04  0.16981309102E+04  0.10027884837E+04 0.  0.
   -9000010    2    1    2    0  503 -0.59911022638E+03 -0.22911516761E+03 -0.31126391767E+03  0.12277470204E+04  0.99952523540E+03 0.  0.
        -13    1    3    3    0    0  0.36747202791E+03 -0.20742584966E+03  0.11183643582E+04  0.11953242336E+04  0.10566000000E+00 0.  1.
          4    1    3    3  501    0  0.23163819847E+03  0.43654101727E+03  0.92683544108E+02  0.50280667666E+03  0.00000000000E+00 0.  1.
         13    1    4    4    0    0 -0.40274945742E+03 -0.20584489514E+03 -0.67570718408E+03  0.81311712323E+03  0.10566000000E+00 0. -1.
         -4    1    4    4    0  503 -0.19636076896E+03 -0.23270272468E+02  0.36444326641E+03  0.41462989714E+03  0.00000000000E+00 0. -1.
<mgrwt>
<rscale>  2 0.11896954E+04</rscale>
<asrwt>0</asrwt>
<pdfrwt beam="1">  1       21 0.29428168E+00 0.11903829E+04</pdfrwt>
<pdfrwt beam="2">  1       21 0.15585338E+00 0.11903829E+04</pdfrwt>
<totfact> 0.31483368E+00</totfact>
</mgrwt>
</event>
<event>
 8    1  0.7418332E-006  0.1072684E+04  0.7818608E-02  0.8709264E-01
         21   -1    0    0  501  502  0.00000000000E+00  0.00000000000E+00  0.71206593493E+03  0.71206593493E+03  0.00000000000E+00 0. -1.
         21   -1    0    0  502  503 -0.00000000000E+00 -0.00000000000E+00 -0.20031512141E+04  0.20031512141E+04  0.00000000000E+00 0. -1.
    9000010    2    1    2  501    0 -0.40399531810E+03  0.59342925924E+02 -0.47867577949E+02  0.10731933166E+04  0.99132173887E+03 0.  0.
   -9000010    2    1    2    0  503  0.40399531810E+03 -0.59342925924E+02 -0.12432177012E+04  0.16420238324E+04  0.99192651624E+03 0.  0.
        -13    1    3    3    0    0 -0.42312718729E+03  0.34085287041E+03 -0.36050310617E+03  0.65205812365E+03  0.10566000000E+00 0.  1.
          4    1    3    3  501    0  0.19131869189E+02 -0.28150994449E+03  0.31263552822E+03  0.42113519299E+03  0.00000000000E+00 0.  1.
         13    1    4    4    0    0  0.58607834972E+03 -0.26963394395E+03 -0.41191838443E+03  0.76541953354E+03  0.10566000000E+00 0. -1.
         -4    1    4    4    0  503 -0.18208303162E+03  0.21029101802E+03 -0.83129931680E+03  0.87660429886E+03  0.00000000000E+00 0. -1.
<mgrwt>
<rscale>  2 0.10725447E+04</rscale>
<asrwt>0</asrwt>
<pdfrwt beam="1">  1       21 0.10954861E+00 0.10726845E+04</pdfrwt>
<pdfrwt beam="2">  1       21 0.30817711E+00 0.10726845E+04</pdfrwt>
<totfact> 0.71849667E+00</totfact>
</mgrwt>
</event>
<event>
 8    1  0.7418332E-006  0.1038358E+04  0.7818608E-02  0.8787321E-01
         21   -1    0    0  503  502  0.00000000000E+00  0.00000000000E+00  0.16689071445E+04  0.16689071445E+04  0.00000000000E+00 0.  1.
         21   -1    0    0  501  503 -0.00000000000E+00 -0.00000000000E+00 -0.65297815952E+03  0.65297815952E+03  0.00000000000E+00 0.  1.
    9000010    2    1    2  501    0 -0.23705240672E+03  0.48622801193E+02 -0.31827299380E+02  0.84676490827E+03  0.81082662299E+03 0.  0.
   -9000010    2    1    2    0  502  0.23705240672E+03 -0.48622801193E+02  0.10477562843E+04  0.14751203957E+04  0.10097667702E+04 0.  0.
        -13    1    3    3    0    0  0.51131489910E+02 -0.25880123797E+03  0.23057157868E+03  0.35036520103E+03  0.10566000000E+00 0.  1.
          4    1    3    3  501    0 -0.28818389663E+03  0.30742403916E+03 -0.26239887806E+03  0.49639970723E+03  0.00000000000E+00 0.  1.
         13    1    4    4    0    0 -0.12655963081E+03 -0.37294969958E+03  0.87258935937E+03  0.95735104315E+03  0.10566000000E+00 0. -1.
         -4    1    4    4    0  502  0.36361203753E+03  0.32432689839E+03  0.17516692496E+03  0.51776935256E+03  0.00000000000E+00 0. -1.
<mgrwt>
<rscale>  2 0.98656167E+03</rscale>
<asrwt>0</asrwt>
<pdfrwt beam="1">  1       21 0.25675494E+00 0.10383578E+04</pdfrwt>
<pdfrwt beam="2">  1       21 0.10045818E+00 0.10383578E+04</pdfrwt>
<totfact> 0.21206869E+01</totfact>
</mgrwt>
</event>
<event>
 8    1  0.7418332E-006  0.1122901E+04  0.7818608E-02  0.8667128E-01
         21   -1    0    0  503  502  0.00000000000E+00  0.00000000000E+00  0.14078250408E+04  0.14078250408E+04  0.00000000000E+00 0. -1.
         21   -1    0    0  501  503 -0.00000000000E+00 -0.00000000000E+00 -0.13382159145E+04  0.13382159145E+04  0.00000000000E+00 0. -1.
    9000010    2    1    2  501    0 -0.28923153618E+03  0.44411526649E+03 -0.75525736172E+03  0.13527314237E+04  0.98922968560E+03 0.  0.
   -9000010    2    1    2    0  502  0.28923153618E+03 -0.44411526649E+03  0.82486648798E+03  0.13933095316E+04  0.98995630023E+03 0.  0.
        -13    1    3    3    0    0 -0.62316653398E+03  0.28025175449E+03 -0.69729913368E+03  0.97627028428E+03  0.10566000000E+00 0.  1.
          4    1    3    3  501    0  0.33393499780E+03  0.16386351200E+03 -0.57958228039E+02  0.37646113946E+03  0.00000000000E+00 0.  1.
         13    1    4    4    0    0  0.56130291352E+01 -0.21898061120E+03  0.97647305261E+03  0.10007415490E+04  0.10566000000E+00 0. -1.
         -4    1    4    4    0  502  0.28361850704E+03 -0.22513465529E+03 -0.15160656462E+03  0.39256798263E+03  0.00000000000E+00 0. -1.
<mgrwt>
<rscale>  2 0.11227409E+04</rscale>
<asrwt>0</asrwt>
<pdfrwt beam="1">  1       21 0.21658847E+00 0.11229010E+04</pdfrwt>
<pdfrwt beam="2">  1       21 0.20587937E+00 0.11229010E+04</pdfrwt>
<totfact> 0.45760011E+00</totfact>
</mgrwt>
</event>
<event>
 8    1  0.7418332E-006  0.1048768E+04  0.7818608E-02  0.8734283E-01
         21   -1    0    0  501  502  0.00000000000E+00  0.00000000000E+00  0.12982205184E+04  0.12982205184E+04  0.00000000000E+00 0. -1.
         21   -1    0    0  502  503 -0.00000000000E+00 -0.00000000000E+00 -0.88681313918E+03  0.88681313918E+03  0.00000000000E+00 0. -1.
    9000010    2    1    2  501    0  0.12405765197E+03  0.30249584931E+03  0.47526095453E+03  0.11343239735E+04  0.97669025905E+03 0.  0.
   -9000010    2    1    2    0  503 -0.12405765197E+03 -0.30249584931E+03 -0.63853575298E+02  0.10507096841E+04  0.99650364840E+03 0.  0.
        -13    1    3    3    0    0 -0.13742644533E+03  0.21161466530E+03 -0.25172464642E+03  0.35641563269E+03  0.10566000000E+00 0.  1.
          4    1    3    3  501    0  0.26148409730E+03  0.90881184010E+02  0.72698560094E+03  0.77790834083E+03  0.00000000000E+00 0.  1.
         13    1    4    4    0    0 -0.40024647775E+03  0.49920519185E+02 -0.33753323407E+03  0.52594486066E+03  0.10566000000E+00 0. -1.
         -4    1    4    4    0  503  0.27618882578E+03 -0.35241636850E+03  0.27367965877E+03  0.52476482342E+03  0.00000000000E+00 0. -1.
<mgrwt>
<rscale>  2 0.10440338E+04</rscale>
<asrwt>0</asrwt>
<pdfrwt beam="1">  1       21 0.19972623E+00 0.10487676E+04</pdfrwt>
<pdfrwt beam="2">  1       21 0.13643279E+00 0.10487676E+04</pdfrwt>
<totfact> 0.24130770E+01</totfact>
</mgrwt>
</event>
<event>
 8    1  0.7418332E-006  0.1101424E+04  0.7818608E-02  0.8698774E-01
         21   -1    0    0  501  502  0.00000000000E+00  0.00000000000E+00  0.68922467058E+03  0.68922467058E+03  0.00000000000E+00 0.  1.
         21   -1    0    0  502  503 -0.00000000000E+00 -0.00000000000E+00 -0.25276452746E+04  0.25276452746E+04  0.00000000000E+00 0.  1.
    9000010    2    1    2  501    0 -0.18105431880E+03  0.22625925072E+03 -0.18808928430E+04  0.21796543548E+04  0.10626200189E+04 0.  0.
   -9000010    2    1    2    0  503  0.18105431880E+03 -0.22625925072E+03  0.42472238977E+02  0.10372155904E+04  0.99500672107E+03 0.  0.
        -13    1    3    3    0    0 -0.22988299773E+03 -0.40574208438E+03 -0.84780238082E+03  0.96759584527E+03  0.10566000000E+00 0.  1.
          4    1    3    3  501    0  0.48828678937E+02  0.63200133511E+03 -0.10330904622E+04  0.12120585095E+04  0.00000000000E+00 0.  1.
         13    1    4    4    0    0  0.33898443955E+03  0.22417072341E+03  0.29026288309E+03  0.49941517393E+03  0.10566000000E+00 0. -1.
         -4    1    4    4    0  503 -0.15793012076E+03 -0.45042997413E+03 -0.24779064411E+03  0.53780041646E+03  0.00000000000E+00 0. -1.
<mgrwt>
<rscale>  2 0.10847811E+04</rscale>
<asrwt>0</asrwt>
<pdfrwt beam="1">  1       21 0.10603457E+00 0.11014242E+04</pdfrwt>
<pdfrwt beam="2">  1       21 0.38886850E+00 0.11014242E+04</pdfrwt>
<totfact> 0.21152222E+00</totfact>
</mgrwt>
</event>
<event>
 8    1  0.7418332E-006  0.1214027E+04  0.7818608E-02  0.8597037E-01
         21   -1    0    0  501  502  0.00000000000E+00  0.00000000000E+00  0.86529964798E+03  0.86529964798E+03  0.00000000000E+00 0.  1.
         21   -1    0    0  502  503 -0.00000000000E+00 -0.00000000000E+00 -0.18391389047E+04  0.18391389047E+04  0.00000000000E+00 0.  1.
    9000010    2    1    2  501    0 -0.21667369222E+03 -0.66190299484E+03 -0.86506852182E+03  0.14907064984E+04  0.99438385615E+03 0.  0.
   -9000010    2    1    2    0  503  0.21667369222E+03  0.66190299484E+03 -0.10877073495E+03  0.12137320544E+04  0.98805433226E+03 0.  0.
        -13    1    3    3    0    0  0.17625974473E+03 -0.34007017875E+02  0.15012877360E+03  0.23401417629E+03  0.10566000000E+00 0.  1.
          4    1    3    3  501    0 -0.39293343695E+03 -0.62789597697E+03 -0.10151972954E+04  0.12566923221E+04  0.00000000000E+00 0.  1.
         13    1    4    4    0    0 -0.19447430630E+03  0.39454675344E+03  0.33454242796E+03  0.55263554331E+03  0.10566000000E+00 0. -1.
         -4    1    4    4    0  503  0.41114799852E+03  0.26735624140E+03 -0.44331316291E+03  0.66109651104E+03  0.00000000000E+00 0. -1.
<mgrwt>
<rscale>  2 0.12127305E+04</rscale>
<asrwt>0</asrwt>
<pdfrwt beam="1">  1       21 0.13312302E+00 0.12140273E+04</pdfrwt>
<pdfrwt beam="2">  1       21 0.28294445E+00 0.12140273E+04</pdfrwt>
<totfact> 0.60814863E+00</totfact>
</mgrwt>
</event>
<event>
 8    1  0.7418332E-006  0.1015222E+04  0.7818608E-02  0.8766492E-01
         21   -1    0    0  501  502  0.00000000000E+00  0.00000000000E+00  0.10236254466E+04  0.10236254466E+04  0.00000000000E+00 0.  1.
         21   -1    0    0  502  503 -0.00000000000E+00 -0.00000000000E+00 -0.10066367670E+04  0.10066367670E+04  0.00000000000E+00 0.  1.
    9000010    2    1    2  501    0 -0.10646346067E+03  0.66869627418E+01  0.16965413815E+03  0.10292995381E+04  0.10096018169E+04 0.  0.
   -9000010    2    1    2    0  503  0.10646346067E+03 -0.66869627418E+01 -0.15266545857E+03  0.10009626754E+04  0.98348378295E+03 0.  0.
        -13    1    3    3    0    0  0.28279299636E+03  0.37995575925E+03  0.45007425983E+02  0.47577719295E+03  0.10566000000E+00 0.  1.
          4    1    3    3  501    0 -0.38925645703E+03 -0.37326879650E+03  0.12464671216E+03  0.55352234520E+03  0.00000000000E+00 0.  1.
         13    1    4    4    0    0  0.52462554161E+03 -0.88955006227E+02 -0.20776731681E+03  0.57123744725E+03  0.10566000000E+00 0. -1.
         -4    1    4    4    0  503 -0.41816208093E+03  0.82268043485E+02  0.55101858234E+02  0.42972522813E+03  0.00000000000E+00 0. -1.
<mgrwt>
<rscale>  2 0.10086660E+04</rscale>
<asrwt>0</asrwt>
<pdfrwt beam="1">  1       21 0.15748084E+00 0.10152217E+04</pdfrwt>
<pdfrwt beam="2">  1       21 0.15486719E+00 0.10152217E+04</pdfrwt>
<totfact> 0.36786170E+01</totfact>
</mgrwt>
</event>
<event>
 8    1  0.7418332E-006  0.1050846E+04  0.7818608E-02  0.8730292E-01
         21   -1    0    0  501  502  0.00000000000E+00  0.00000000000E+00  0.10290035146E+04  0.10290035146E+04  0.00000000000E+00 0. -1.
         21   -1    0    0  502  503 -0.00000000000E+00 -0.00000000000E+00 -0.12291643293E+04  0.12291643293E+04  0.00000000000E+00 0. -1.
    9000010    2    1    2  501    0  0.24895055644E+03 -0.16562608846E+03  0.31378983961E+03  0.10966957563E+04  0.10074071360E+04 0.  0.
   -9000010    2    1    2    0  503 -0.24895055644E+03  0.16562608846E+03 -0.51395065433E+03  0.11614720875E+04  0.99772929911E+03 0.  0.
        -13    1    3    3    0    0  0.56269501597E+03 -0.71732771016E+02  0.46736317486E+03  0.73498273437E+03  0.10566000000E+00 0.  1.
          4    1    3    3  501    0 -0.31374445954E+03 -0.93893317448E+02 -0.15357333525E+03  0.36171302195E+03  0.00000000000E+00 0.  1.
         13    1    4    4    0    0  0.36986720484E+03  0.15358027676E+03 -0.87743509610E+02  0.40998485980E+03  0.10566000000E+00 0. -1.
         -4    1    4    4    0  503 -0.61881776127E+03  0.12045811706E+02 -0.42620714471E+03  0.75148722774E+03  0.00000000000E+00 0. -1.
<mgrwt>
<rscale>  2 0.10485198E+04</rscale>
<asrwt>0</asrwt>
<pdfrwt beam="1">  1       21 0.15830823E+00 0.10508461E+04</pdfrwt>
<pdfrwt beam="2">  1       21 0.18910221E+00 0.10508461E+04</pdfrwt>
<totfact> 0.18584250E+01</totfact>
</mgrwt>
</event>
<event>
 8    1  0.7418332E-006  0.1031172E+04  0.7818608E-02  0.8747783E-01
         21   -1    0    0  503  502  0.00000000000E+00  0.00000000000E+00  0.18008146315E+04  0.18008146315E+04  0.00000000000E+00 0.  1.
         21   -1    0    0  501  503 -0.00000000000E+00 -0.00000000000E+00 -0.61557320228E+03  0.61557320228E+03  0.00000000000E+00 0.  1.
    9000010    2    1    2  501    0  0.18381166663E+03 -0.29319816035E+03  0.32360465823E+03  0.10726121546E+04  0.96230191176E+03 0.  0.
   -9000010    2    1    2    0  502 -0.18381166663E+03  0.29319816035E+03  0.86163677099E+03  0.13437756792E+04  0.97137184474E+03 0.  0.
        -13    1    3    3    0    0 -0.37407257247E+03  0.14231321422E+02  0.19756607011E+03  0.42327908430E+03  0.10566000000E+00 0.  1.
          4    1    3    3  501    0  0.55788423910E+03 -0.30742948177E+03  0.12603858812E+03  0.64933307031E+03  0.00000000000E+00 0.  1.
         13    1    4    4    0    0  0.18068679493E+02  0.44715758291E+02  0.99556814873E+03  0.99673563504E+03  0.10566000000E+00 0. -1.
         -4    1    4    4    0  502 -0.20188034613E+03  0.24848240206E+03 -0.13393137774E+03  0.34704004413E+03  0.00000000000E+00 0. -1.
<mgrwt>
<rscale>  2 0.10290302E+04</rscale>
<asrwt>0</asrwt>
<pdfrwt beam="1">  1       21 0.27704840E+00 0.10311717E+04</pdfrwt>
<pdfrwt beam="2">  1       21 0.94703570E-01 0.10311717E+04</pdfrwt>
<totfact> 0.17692324E+01</totfact>
</mgrwt>
</event>
<event>
 8    1  0.7418332E-006  0.1035665E+04  0.7818608E-02  0.8746106E-01
         21   -1    0    0  503  502  0.00000000000E+00  0.00000000000E+00  0.48100452914E+03  0.48100452914E+03  0.00000000000E+00 0.  1.
         21   -1    0    0  501  503 -0.00000000000E+00 -0.00000000000E+00 -0.23807321031E+04  0.23807321031E+04  0.00000000000E+00 0.  1.
    9000010    2    1    2  501    0 -0.22666350402E+03 -0.55172960152E+02 -0.13476259260E+04  0.16881020423E+04  0.98953143928E+03 0.  0.
   -9000010    2    1    2    0  502  0.22666350402E+03  0.55172960152E+02 -0.55210164802E+03  0.11736345900E+04  0.10090498112E+04 0.  0.
        -13    1    3    3    0    0  0.18800221790E+03 -0.42028606476E+03 -0.68504478934E+03  0.82539177651E+03  0.10566000000E+00 0.  1.
          4    1    3    3  501    0 -0.41466572192E+03  0.36511310461E+03 -0.66258113665E+03  0.86271026581E+03  0.00000000000E+00 0.  1.
         13    1    4    4    0    0  0.47812888771E+03 -0.18398196513E+03 -0.63593599827E+03  0.81662182301E+03  0.10566000000E+00 0. -1.
         -4    1    4    4    0  502 -0.25146538369E+03  0.23915492529E+03  0.83834350256E+02  0.35701276695E+03  0.00000000000E+00 0. -1.
<mgrwt>
<rscale>  2 0.10308801E+04</rscale>
<asrwt>0</asrwt>
<pdfrwt beam="1">  1       21 0.74000696E-01 0.10356650E+04</pdfrwt>
<pdfrwt beam="2">  1       21 0.36626648E+00 0.10356650E+04</pdfrwt>
<totfact> 0.76855940E+00</totfact>
</mgrwt>
</event>
<event>
 8    1  0.7418332E-006  0.1019041E+04  0.7818608E-02  0.8761732E-01
         21   -1    0    0  501  502  0.00000000000E+00  0.00000000000E+00  0.31675154408E+04  0.31675154408E+04  0.00000000000E+00 0. -1.
         21   -1    0    0  502  503 -0.00000000000E+00 -0.00000000000E+00 -0.35275528613E+03  0.35275528613E+03  0.00000000000E+00 0. -1.
    9000010    2    1    2  501    0  0.14295776787E+03  0.54091696167E+02  0.19471324018E+04  0.21976736208E+04  0.10075127386E+04 0.  0.
   -9000010    2    1    2    0  503 -0.14295776787E+03 -0.54091696167E+02  0.86762775295E+03  0.13225971062E+04  0.98646964104E+03 0.  0.
        -13    1    3    3    0    0  0.31097508882E+03  0.26229555882E+03  0.18777045572E+04  0.19212701219E+04  0.10566000000E+00 0.  1.
          4    1    3    3  501    0 -0.16801732095E+03 -0.20820386266E+03  0.69427844534E+02  0.27640349882E+03  0.00000000000E+00 0.  1.
         13    1    4    4    0    0 -0.39924213945E+03 -0.39976228597E+03  0.54246737378E+03  0.78324647078E+03  0.10566000000E+00 0. -1.
         -4    1    4    4    0  503  0.25628437158E+03  0.34567058980E+03  0.32516037916E+03  0.53935063544E+03  0.00000000000E+00 0. -1.
<mgrwt>
<rscale>  2 0.10138008E+04</rscale>
<asrwt>0</asrwt>
<pdfrwt beam="1">  1       21 0.48731005E+00 0.10190411E+04</pdfrwt>
<pdfrwt beam="2">  1       21 0.54270046E-01 0.10190411E+04</pdfrwt>
<totfact> 0.22830535E+00</totfact>
</mgrwt>
</event>
<event>
 8    1  0.7418332E-006  0.1041960E+04  0.7818608E-02  0.8738096E-01
         21   -1    0    0  503  502  0.00000000000E+00  0.00000000000E+00  0.20283653107E+04  0.20283653107E+04  0.00000000000E+00 0. -1.
         21   -1    0    0  501  503 -0.00000000000E+00 -0.00000000000E+00 -0.82125926398E+03  0.82125926398E+03  0.00000000000E+00 0. -1.
    9000010    2    1    2  501    0 -0.26566669927E+03  0.11162574183E+03 -0.24218632030E+03  0.10697360717E+04  0.10013201026E+04 0.  0.
   -9000010    2    1    2    0  502  0.26566669927E+03 -0.11162574183E+03  0.14492923670E+04  0.17798885030E+04  0.99222760326E+03 0.  0.
        -13    1    3    3    0    0  0.22243863596E+03  0.16373392520E+03  0.25149274218E+03  0.37354565392E+03  0.10566000000E+00 0.  1.
          4    1    3    3  501    0 -0.48810533523E+03 -0.52108183372E+02 -0.49367906248E+03  0.69619041776E+03  0.00000000000E+00 0.  1.
         13    1    4    4    0    0  0.15049100056E+03 -0.55214156713E+03  0.71414001635E+03  0.91515235099E+03  0.10566000000E+00 0. -1.
         -4    1    4    4    0  502  0.11517569871E+03  0.44051582530E+03  0.73515235065E+03  0.86473615200E+03  0.00000000000E+00 0. -1.
<mgrwt>
<rscale>  2 0.10397696E+04</rscale>
<asrwt>0</asrwt>
<pdfrwt beam="1">  1       21 0.31205620E+00 0.10419602E+04</pdfrwt>
<pdfrwt beam="2">  1       21 0.12634758E+00 0.10419602E+04</pdfrwt>
<totfact> 0.45720460E+00</totfact>
</mgrwt>
</event>
<event>
 8    1  0.7418332E-006  0.1029101E+04  0.7818608E-02  0.8750643E-01
         21   -1    0    0  501  502  0.00000000000E+00  0.00000000000E+00  0.75212277872E+03  0.75212277872E+03  0.00000000000E+00 0. -1.
         21   -1    0    0  502  503 -0.00000000000E+00 -0.00000000000E+00 -0.20126945036E+04  0.20126945036E+04  0.00000000000E+00 0. -1.
    9000010    2    1    2  501    0  0.21105848077E+03 -0.44589559044E+02  0.13552153010E+03  0.10379860344E+04  0.10062380491E+04 0.  0.
   -9000010    2    1    2    0  503 -0.21105848077E+03  0.44589559044E+02 -0.13960932549E+04  0.17268312479E+04  0.99314443616E+03 0.  0.
        -13    1    3    3    0    0  0.55681688976E+03  0.21418370833E+03  0.60534473469E+02  0.59965335259E+03  0.10566000000E+00 0.  1.
          4    1    3    3  501    0 -0.34575840899E+03 -0.25877326737E+03  0.74987056628E+02  0.43833268182E+03  0.00000000000E+00 0.  1.
         13    1    4    4    0    0 -0.42387967250E+03 -0.16571706465E+03 -0.20576497046E+03  0.49947508097E+03  0.10566000000E+00 0. -1.
         -4    1    4    4    0  503  0.21282119173E+03  0.21030662369E+03 -0.11903282845E+04  0.12273561669E+04  0.00000000000E+00 0. -1.
<mgrwt>
<rscale>  2 0.10258862E+04</rscale>
<asrwt>0</asrwt>
<pdfrwt beam="1">  1       21 0.11571120E+00 0.10291010E+04</pdfrwt>
<pdfrwt beam="2">  1       21 0.30964531E+00 0.10291010E+04</pdfrwt>
<totfact> 0.61031227E+00</totfact>
</mgrwt>
</event>
<event>
 8    1  0.7418332E-006  0.1009866E+04  0.7818608E-02  0.8771571E-01
         21   -1    0    0  501  502  0.00000000000E+00  0.00000000000E+00  0.97436645586E+03  0.97436645586E+03  0.00000000000E+00 0.  1.
         21   -1    0    0  502  503 -0.00000000000E+00 -0.00000000000E+00 -0.10867623606E+04  0.10867623606E+04  0.00000000000E+00 0.  1.
    9000010    2    1    2  501    0 -0.15361429967E+03  0.52884415125E+01  0.20075252704E+03  0.10038247560E+04  0.97146139548E+03 0.  0.
   -9000010    2    1    2    0  503  0.15361429967E+03 -0.52884415125E+01 -0.31314843177E+03  0.10573040605E+04  0.99810050360E+03 0.  0.
        -13    1    3    3    0    0 -0.13089464397E+03  0.44387406644E+02  0.59304300510E+03  0.60893650469E+03  0.10566000000E+00 0.  1.
          4    1    3    3  501    0 -0.22719655703E+02 -0.39098965131E+02 -0.39229047805E+03  0.39488825128E+03  0.00000000000E+00 0.  1.
         13    1    4    4    0    0  0.18560032932E+03  0.47448362046E+03 -0.26437311106E+03  0.57399942626E+03  0.10566000000E+00 0. -1.
         -4    1    4    4    0  503 -0.31986029644E+02 -0.47977206197E+03 -0.48775320712E+02  0.48330463421E+03  0.00000000000E+00 0. -1.
<mgrwt>
<rscale>  2 0.10032209E+04</rscale>
<asrwt>0</asrwt>
<pdfrwt beam="1">  1       21 0.14990253E+00 0.10098663E+04</pdfrwt>
<pdfrwt beam="2">  1       21 0.16719421E+00 0.10098663E+04</pdfrwt>
<totfact> 0.33640758E+01</totfact>
</mgrwt>
</event>
<event>
 8    1  0.7418332E-006  0.1027189E+04  0.7818608E-02  0.8753029E-01
         21   -1    0    0  501  502  0.00000000000E+00  0.00000000000E+00  0.52357129313E+03  0.52357129313E+03  0.00000000000E+00 0.  1.
         21   -1    0    0  502  503 -0.00000000000E+00 -0.00000000000E+00 -0.20020800313E+04  0.20020800313E+04  0.00000000000E+00 0.  1.
    9000010    2    1    2  501    0 -0.23846092261E+02  0.49197494714E+02 -0.86226216537E+03  0.13411238258E+04  0.10257329305E+04 0.  0.
   -9000010    2    1    2    0  503  0.23846092261E+02 -0.49197494714E+02 -0.61624657279E+03  0.11845274987E+04  0.10101269856E+04 0.  0.
        -13    1    3    3    0    0  0.27054815003E+03 -0.65424711626E+02 -0.96858853265E+03  0.10077898844E+04  0.10566000000E+00 0.  1.
          4    1    3    3  501    0 -0.29439424229E+03  0.11462220634E+03  0.10632636728E+03  0.33333394136E+03  0.00000000000E+00 0.  1.
         13    1    4    4    0    0 -0.51443821962E+01 -0.13030404687E+03 -0.88899174045E+03  0.89850538955E+03  0.10566000000E+00 0. -1.
         -4    1    4    4    0  503  0.28990474457E+02  0.81106552156E+02  0.27274516766E+03  0.28602210910E+03  0.00000000000E+00 0. -1.
<mgrwt>
<rscale>  2 0.10232707E+04</rscale>
<asrwt>0</asrwt>
<pdfrwt beam="1">  1       21 0.80549431E-01 0.10271889E+04</pdfrwt>
<pdfrwt beam="2">  1       21 0.30801231E+00 0.10271889E+04</pdfrwt>
<totfact> 0.16084649E+01</totfact>
</mgrwt>
</event>
<event>
 8    1  0.7418332E-006  0.1086268E+04  0.7818608E-02  0.8711949E-01
         21   -1    0    0  501  502  0.00000000000E+00  0.00000000000E+00  0.65624835885E+03  0.65624835885E+03  0.00000000000E+00 0. -1.
         21   -1    0    0  502  503 -0.00000000000E+00 -0.00000000000E+00 -0.18015039540E+04  0.18015039540E+04  0.00000000000E+00 0. -1.
    9000010    2    1    2  501    0 -0.45543883374E+02 -0.17877988577E+03 -0.25144231369E+03  0.10510254703E+04  0.10036905943E+04 0.  0.
   -9000010    2    1    2    0  503  0.45543883374E+02  0.17877988577E+03 -0.89381328145E+03  0.14067268426E+04  0.10704866812E+04 0.  0.
        -13    1    3    3    0    0 -0.26245777218E+03 -0.53900107602E+03 -0.16414204098E+03  0.62156967663E+03  0.10566000000E+00 0.  1.
          4    1    3    3  501    0  0.21691388881E+03  0.36022119025E+03 -0.87300272715E+02  0.42945579363E+03  0.00000000000E+00 0.  1.
         13    1    4    4    0    0  0.22436318506E+03  0.21449710414E+03 -0.10932680686E+04  0.11364783005E+04  0.10566000000E+00 0. -1.
         -4    1    4    4    0  503 -0.17881930168E+03 -0.35717218365E+02  0.19945478720E+03  0.27024854205E+03  0.00000000000E+00 0. -1.
<mgrwt>
<rscale>  2 0.10694404E+04</rscale>
<asrwt>0</asrwt>
<pdfrwt beam="1">  1       21 0.10096129E+00 0.10862680E+04</pdfrwt>
<pdfrwt beam="2">  1       21 0.27715445E+00 0.10862680E+04</pdfrwt>
<totfact> 0.14780267E+01</totfact>
</mgrwt>
</event>
<event>
 8    1  0.7418332E-006  0.1114996E+04  0.7818608E-02  0.8683508E-01
         21   -1    0    0  503  502  0.00000000000E+00  0.00000000000E+00  0.71209416962E+03  0.71209416962E+03  0.00000000000E+00 0. -1.
         21   -1    0    0  501  503 -0.00000000000E+00 -0.00000000000E+00 -0.16786223796E+04  0.16786223796E+04  0.00000000000E+00 0. -1.
    9000010    2    1    2  501    0  0.18000471052E+02 -0.27689452749E+03 -0.56835199789E+03  0.12514953346E+04  0.10799175815E+04 0.  0.
   -9000010    2    1    2    0  502 -0.18000471052E+02  0.27689452749E+03 -0.39817621207E+03  0.11392212146E+04  0.10306726365E+04 0.  0.
        -13    1    3    3    0    0  0.41716978538E+03 -0.50330006920E+03 -0.29352280833E+03  0.71658721707E+03  0.10566000000E+00 0.  1.
          4    1    3    3  501    0 -0.39916931433E+03  0.22640554170E+03 -0.27482918956E+03  0.53490811758E+03  0.00000000000E+00 0.  1.
         13    1    4    4    0    0  0.10623379014E+02 -0.38795689392E+03 -0.23618916523E+03  0.45432228721E+03  0.10566000000E+00 0. -1.
         -4    1    4    4    0  502 -0.28623850066E+02  0.66485142141E+03 -0.16198704684E+03  0.68489892735E+03  0.00000000000E+00 0. -1.
<mgrwt>
<rscale>  2 0.11028943E+04</rscale>
<asrwt>0</asrwt>
<pdfrwt beam="1">  1       21 0.10955295E+00 0.11149962E+04</pdfrwt>
<pdfrwt beam="2">  1       21 0.25824959E+00 0.11149962E+04</pdfrwt>
<totfact> 0.16148626E+01</totfact>
</mgrwt>
</event>
<event>
 8    1  0.7418332E-006  0.1087566E+04  0.7818608E-02  0.8711843E-01
         21   -1    0    0  501  502  0.00000000000E+00  0.00000000000E+00  0.13443959609E+04  0.13443959609E+04  0.00000000000E+00 0.  1.
         21   -1    0    0  502  503 -0.00000000000E+00 -0.00000000000E+00 -0.92261481609E+03  0.92261481609E+03  0.00000000000E+00 0.  1.
    9000010    2    1    2  501    0 -0.14761549836E+03 -0.24890202806E+03  0.58777988475E+03  0.12362380242E+04  0.10483590533E+04 0.  0.
   -9000010    2    1    2    0  503  0.14761549836E+03  0.24890202806E+03 -0.16599873990E+03  0.10307727528E+04  0.97529192110E+03 0.  0.
        -13    1    3    3    0    0 -0.45421717665E+02  0.14871207083E+03  0.77110646666E+03  0.78662799755E+03  0.10566000000E+00 0.  1.
          4    1    3    3  501    0 -0.10219378069E+03 -0.39761409890E+03 -0.18332658191E+03  0.44961002668E+03  0.00000000000E+00 0.  1.
         13    1    4    4    0    0  0.13253675965E+01  0.60041265173E+03 -0.23327371255E+03  0.64413798607E+03  0.10566000000E+00 0. -1.
         -4    1    4    4    0  503  0.14629013076E+03 -0.35151062367E+03  0.67274972655E+02  0.38663476675E+03  0.00000000000E+00 0. -1.
<mgrwt>
<rscale>  2 0.10695618E+04</rscale>
<asrwt>0</asrwt>
<pdfrwt beam="1">  1       21 0.20683015E+00 0.10875657E+04</pdfrwt>
<pdfrwt beam="2">  1       21 0.14194074E+00 0.10875657E+04</pdfrwt>
<totfact> 0.18732649E+01</totfact>
</mgrwt>
</event>
<event>
 8    1  0.7418332E-006  0.1007993E+04  0.7818608E-02  0.8767360E-01
         21   -1    0    0  501  502  0.00000000000E+00  0.00000000000E+00  0.90656888521E+03  0.90656888521E+03  0.00000000000E+00 0.  1.
         21   -1    0    0  502  503 -0.00000000000E+00 -0.00000000000E+00 -0.16232279835E+04  0.16232279835E+04  0.00000000000E+00 0.  1.
    9000010    2    1    2  501    0 -0.61651809892E+02  0.59024052680E+01  0.34610351016E+03  0.10657569637E+04  0.10060887048E+04 0.  0.
   -9000010    2    1    2    0  503  0.61651809892E+02 -0.59024052680E+01 -0.10627626085E+04  0.14640399050E+04  0.10050436296E+04 0.  0.
        -13    1    3    3    0    0 -0.52696411764E+03  0.76875119358E+02  0.13200588714E+03  0.54865884725E+03  0.10566000000E+00 0.  1.
          4    1    3    3  501    0  0.46531230775E+03 -0.70972714090E+02  0.21409762302E+03  0.51709811649E+03  0.00000000000E+00 0.  1.
         13    1    4    4    0    0 -0.19759933426E+02 -0.19934406822E+03  0.13917100308E+03  0.24392025698E+03  0.10566000000E+00 0. -1.
         -4    1    4    4    0  503  0.81411743318E+02  0.19344166295E+03 -0.12019336116E+04  0.12201196480E+04  0.00000000000E+00 0. -1.
<mgrwt>
<rscale>  2 0.10077323E+04</rscale>
<asrwt>0</asrwt>
<pdfrwt beam="1">  1       21 0.13947214E+00 0.10079932E+04</pdfrwt>
<pdfrwt beam="2">  1       21 0.24972738E+00 0.10079932E+04</pdfrwt>
<totfact> 0.96218683E+00</totfact>
</mgrwt>
</event>
<event>
 8    1  0.7418332E-006  0.1019458E+04  0.7818608E-02  0.8759747E-01
         21   -1    0    0  501  502  0.00000000000E+00  0.00000000000E+00  0.11457963879E+04  0.11457963879E+04  0.00000000000E+00 0.  1.
         21   -1    0    0  502  503 -0.00000000000E+00 -0.00000000000E+00 -0.91744518931E+03  0.91744518931E+03  0.00000000000E+00 0.  1.
    9000010    2    1    2  501    0 -0.12019574448E+03 -0.13295757027E+03  0.27746084928E+03  0.10565413014E+04  0.10035787294E+04 0.  0.
   -9000010    2    1    2    0  503  0.12019574448E+03  0.13295757027E+03 -0.49109650669E+02  0.10067002759E+04  0.98939827933E+03 0.  0.
        -13    1    3    3    0    0  0.42252459216E+03  0.22052283435E+02  0.25002284651E+03  0.49145169562E+03  0.10566000000E+00 0.  1.
          4    1    3    3  501    0 -0.54272033664E+03 -0.15500985370E+03  0.27438002770E+02  0.56508960576E+03  0.00000000000E+00 0.  1.
         13    1    4    4    0    0  0.59935855930E+02 -0.43032411959E+03 -0.68646845619E+02  0.43986765658E+03  0.10566000000E+00 0. -1.
         -4    1    4    4    0  503  0.60259888547E+02  0.56328168986E+03  0.19537194950E+02  0.56683261928E+03  0.00000000000E+00 0. -1.
<mgrwt>
<rscale>  2 0.10159510E+04</rscale>
<asrwt>0</asrwt>
<pdfrwt beam="1">  1       21 0.17627637E+00 0.10194582E+04</pdfrwt>
<pdfrwt beam="2">  1       21 0.14114541E+00 0.10194582E+04</pdfrwt>
<totfact> 0.33844837E+01</totfact>
</mgrwt>
</event>
<event>
 8    1  0.7418332E-006  0.1034391E+04  0.7818608E-02  0.8743605E-01
         21   -1    0    0  503  502  0.00000000000E+00  0.00000000000E+00  0.73236580205E+03  0.73236580205E+03  0.00000000000E+00 0. -1.
         21   -1    0    0  501  503 -0.00000000000E+00 -0.00000000000E+00 -0.17076174998E+04  0.17076174998E+04  0.00000000000E+00 0. -1.
    9000010    2    1    2  501    0  0.23522095146E+03 -0.81162982981E+02 -0.95581669635E+03  0.14083857439E+04  0.10040161954E+04 0.  0.
   -9000010    2    1    2    0  502 -0.23522095146E+03  0.81162982981E+02 -0.19435001448E+02  0.10315975580E+04  0.10009492877E+04 0.  0.
        -13    1    3    3    0    0  0.34688558505E+03 -0.24689268977E+03  0.62106457698E+01  0.42582178510E+03  0.10566000000E+00 0.  1.
          4    1    3    3  501    0 -0.11166463359E+03  0.16572970679E+03 -0.96202734211E+03  0.98256395877E+03  0.00000000000E+00 0.  1.
         13    1    4    4    0    0 -0.15222225276E+03  0.53896228573E+03  0.45198645515E+02  0.56186732277E+03  0.10566000000E+00 0. -1.
         -4    1    4    4    0  502 -0.82998698700E+02 -0.45779930275E+03 -0.64633646964E+02  0.46973023525E+03  0.00000000000E+00 0. -1.
<mgrwt>
<rscale>  2 0.10336461E+04</rscale>
<asrwt>0</asrwt>
<pdfrwt beam="1">  1       21 0.11267166E+00 0.10343911E+04</pdfrwt>
<pdfrwt beam="2">  1       21 0.26271039E+00 0.10343911E+04</pdfrwt>
<totfact> 0.14142031E+01</totfact>
</mgrwt>
</event>
<event>
 8    1  0.7418332E-006  0.1039778E+04  0.7818608E-02  0.8739256E-01
         21   -1    0    0  501  502  0.00000000000E+00  0.00000000000E+00  0.66246237065E+03  0.66246237065E+03  0.00000000000E+00 0.  1.
         21   -1    0    0  502  503 -0.00000000000E+00 -0.00000000000E+00 -0.17320017663E+04  0.17320017663E+04  0.00000000000E+00 0.  1.
    9000010    2    1    2  501    0 -0.25902829184E+02  0.25515902313E+03 -0.23435525781E+03  0.10607962299E+04  0.10022919589E+04 0.  0.
   -9000010    2    1    2    0  503  0.25902829184E+02 -0.25515902313E+03 -0.83518413787E+03  0.13336679071E+04  0.10076509607E+04 0.  0.
        -13    1    3    3    0    0 -0.35852948084E+03 -0.23420946520E+03 -0.11175565539E+02  0.42839510577E+03  0.10566000000E+00 0.  1.
          4    1    3    3  501    0  0.33262665165E+03  0.48936848833E+03 -0.22317969227E+03  0.63240112413E+03  0.00000000000E+00 0.  1.
         13    1    4    4    0    0 -0.31745215208E+02  0.38999090029E+03 -0.33964776716E+03  0.51813249068E+03  0.10566000000E+00 0. -1.
         -4    1    4    4    0  503  0.57648044392E+02 -0.64514992341E+03 -0.49553637071E+03  0.81553541640E+03  0.00000000000E+00 0. -1.
<mgrwt>
<rscale>  2 0.10384771E+04</rscale>
<asrwt>0</asrwt>
<pdfrwt beam="1">  1       21 0.10191729E+00 0.10397776E+04</pdfrwt>
<pdfrwt beam="2">  1       21 0.26646181E+00 0.10397776E+04</pdfrwt>
<totfact> 0.17374840E+01</totfact>
</mgrwt>
</event>
<event>
 8    1  0.7418332E-006  0.1240739E+04  0.7818608E-02  0.8620270E-01
         21   -1    0    0  503  502  0.00000000000E+00  0.00000000000E+00  0.14238643834E+04  0.14238643834E+04  0.00000000000E+00 0.  1.
         21   -1    0    0  501  503 -0.00000000000E+00 -0.00000000000E+00 -0.94325957584E+03  0.94325957584E+03  0.00000000000E+00 0.  1.
    9000010    2    1    2  501    0  0.20618641897E+03  0.60150261918E+02  0.66920832695E+01  0.12407573158E+04  0.12220077902E+04 0.  0.
   -9000010    2    1    2    0  502 -0.20618641897E+03 -0.60150261918E+02  0.47391272428E+03  0.11263666434E+04  0.99898831418E+03 0.  0.
        -13    1    3    3    0    0  0.28802895734E+03  0.28603590147E+03  0.52843853115E+03  0.66635164108E+03  0.10566000000E+00 0.  1.
          4    1    3    3  501    0 -0.81842538364E+02 -0.22588563955E+03 -0.52174644788E+03  0.57440567469E+03  0.00000000000E+00 0.  1.
         13    1    4    4    0    0 -0.13664047975E+03 -0.50152529646E+03  0.70849576956E+02  0.52461215904E+03  0.10566000000E+00 0. -1.
         -4    1    4    4    0  502 -0.69545939220E+02  0.44137503454E+03  0.40306314732E+03  0.60175448441E+03  0.00000000000E+00 0. -1.
<mgrwt>
<rscale>  2 0.11819622E+04</rscale>
<asrwt>0</asrwt>
<pdfrwt beam="1">  1       21 0.21905606E+00 0.12407393E+04</pdfrwt>
<pdfrwt beam="2">  1       21 0.14511686E+00 0.12407393E+04</pdfrwt>
<totfact> 0.13696142E+01</totfact>
</mgrwt>
</event>
<event>
 8    1  0.7418332E-006  0.1058166E+04  0.7818608E-02  0.8723043E-01
         21   -1    0    0  503  502  0.00000000000E+00  0.00000000000E+00  0.63529169591E+03  0.63529169591E+03  0.00000000000E+00 0.  1.
         21   -1    0    0  501  503 -0.00000000000E+00 -0.00000000000E+00 -0.25876296705E+04  0.25876296705E+04  0.00000000000E+00 0.  1.
    9000010    2    1    2  501    0 -0.70034067777E+02 -0.32694006780E+03 -0.59152483291E+02  0.10540814352E+04  0.99789482274E+03 0.  0.
   -9000010    2    1    2    0  502  0.70034067777E+02  0.32694006780E+03 -0.18931854913E+04  0.21688399312E+04  0.10039525706E+04 0.  0.
        -13    1    3    3    0    0 -0.57340734150E+02 -0.51202072972E+03 -0.40917576886E+03  0.65793465363E+03  0.10566000000E+00 0.  1.
          4    1    3    3  501    0 -0.12693333627E+02  0.18508066193E+03  0.35002328557E+03  0.39614678161E+03  0.00000000000E+00 0.  1.
         13    1    4    4    0    0 -0.16183234494E+03 -0.27058074683E+03 -0.24146782310E+03  0.39712764847E+03  0.10566000000E+00 0. -1.
         -4    1    4    4    0  502  0.23186641272E+03  0.59752081462E+03 -0.16517176682E+04  0.17717122827E+04  0.00000000000E+00 0. -1.
<mgrwt>
<rscale>  2 0.10567267E+04</rscale>
<asrwt>0</asrwt>
<pdfrwt beam="1">  1       21 0.97737185E-01 0.10581660E+04</pdfrwt>
<pdfrwt beam="2">  1       21 0.39809687E+00 0.10581660E+04</pdfrwt>
<totfact> 0.22830641E+00</totfact>
</mgrwt>
</event>
<event>
 8    1  0.7418332E-006  0.1061428E+04  0.7818608E-02  0.8737543E-01
         21   -1    0    0  503  502  0.00000000000E+00  0.00000000000E+00  0.69967270339E+03  0.69967270339E+03  0.00000000000E+00 0.  1.
         21   -1    0    0  501  503 -0.00000000000E+00 -0.00000000000E+00 -0.17661454140E+04  0.17661454140E+04  0.00000000000E+00 0.  1.
    9000010    2    1    2  501    0  0.24400550714E+03 -0.23886978048E+03 -0.10395755448E+04  0.14857139693E+04  0.10050030974E+04 0.  0.
   -9000010    2    1    2    0  502 -0.24400550714E+03  0.23886978048E+03 -0.26897165820E+02  0.98010414802E+03  0.91830453767E+03 0.  0.
        -13    1    3    3    0    0  0.37809800676E+03  0.25653133171E+03 -0.79555463533E+03  0.91742771695E+03  0.10566000000E+00 0.  1.
          4    1    3    3  501    0 -0.13409249962E+03 -0.49540111219E+03 -0.24402090943E+03  0.56828625239E+03  0.00000000000E+00 0.  1.
         13    1    4    4    0    0  0.34606426684E+03  0.21595227755E+02  0.33797916690E+02  0.34838074140E+03  0.10566000000E+00 0. -1.
         -4    1    4    4    0  502 -0.59006977398E+03  0.21727455273E+03 -0.60695082510E+02  0.63172340662E+03  0.00000000000E+00 0. -1.
<mgrwt>
<rscale>  2 0.10403871E+04</rscale>
<asrwt>0</asrwt>
<pdfrwt beam="1">  1       21 0.10764196E+00 0.10614277E+04</pdfrwt>
<pdfrwt beam="2">  1       21 0.27171467E+00 0.10614277E+04</pdfrwt>
<totfact> 0.13708490E+01</totfact>
</mgrwt>
</event>
<event>
 8    1  0.7418332E-006  0.1010628E+04  0.7818608E-02  0.8765130E-01
         21   -1    0    0  503  502  0.00000000000E+00  0.00000000000E+00  0.96198364913E+03  0.96198364913E+03  0.00000000000E+00 0.  1.
         21   -1    0    0  501  503 -0.00000000000E+00 -0.00000000000E+00 -0.21132370026E+04  0.21132370026E+04  0.00000000000E+00 0.  1.
    9000010    2    1    2  501    0  0.57335610871E+01  0.14538303250E+01 -0.16610364918E+04  0.19432987311E+04  0.10086291410E+04 0.  0.
   -9000010    2    1    2    0  502 -0.57335610871E+01 -0.14538303250E+01  0.50978313828E+03  0.11319219207E+04  0.10106104091E+04 0.  0.
        -13    1    3    3    0    0  0.31825276236E+03 -0.35519372914E+03 -0.11560890558E+04  0.12505955870E+04  0.10566000000E+00 0.  1.
          4    1    3    3  501    0 -0.31251920127E+03  0.35664755946E+03 -0.50494743593E+03  0.69270314413E+03  0.00000000000E+00 0.  1.
         13    1    4    4    0    0 -0.31011932058E+03 -0.40042636133E+03  0.21766943475E+03  0.55126695696E+03  0.10566000000E+00 0. -1.
         -4    1    4    4    0  502  0.30438575949E+03  0.39897253101E+03  0.29211370352E+03  0.58065496369E+03  0.00000000000E+00 0. -1.
<mgrwt>
<rscale>  2 0.10101320E+04</rscale>
<asrwt>0</asrwt>
<pdfrwt beam="1">  1       21 0.14799749E+00 0.10106277E+04</pdfrwt>
<pdfrwt beam="2">  1       21 0.32511338E+00 0.10106277E+04</pdfrwt>
<totfact> 0.23391650E+00</totfact>
</mgrwt>
</event>
<event>
 8    1  0.7418332E-006  0.1082460E+04  0.7818608E-02  0.8701121E-01
         21   -1    0    0  503  502  0.00000000000E+00  0.00000000000E+00  0.14891317648E+04  0.14891317648E+04  0.00000000000E+00 0. -1.
         21   -1    0    0  501  503 -0.00000000000E+00 -0.00000000000E+00 -0.92568350603E+03  0.92568350603E+03  0.00000000000E+00 0. -1.
    9000010    2    1    2  501    0 -0.29458824619E+03 -0.30316686232E+03 -0.18778667001E+03  0.10986275999E+04  0.99650709408E+03 0.  0.
   -9000010    2    1    2    0  502  0.29458824619E+03  0.30316686232E+03  0.75123492876E+03  0.13161876709E+04  0.99463746449E+03 0.  0.
        -13    1    3    3    0    0 -0.56096866080E+03 -0.24620873657E+03  0.18223482286E+03  0.63915109496E+03  0.10566000000E+00 0.  1.
          4    1    3    3  501    0  0.26638041461E+03 -0.56958125745E+02 -0.37002149287E+03  0.45947650491E+03  0.00000000000E+00 0.  1.
         13    1    4    4    0    0  0.90856105337E+02 -0.12735354836E+03 -0.19908138045E+03  0.25319392837E+03  0.10566000000E+00 0. -1.
         -4    1    4    4    0  502  0.20373214085E+03  0.43052041068E+03  0.95031630920E+03  0.10629937426E+04  0.00000000000E+00 0. -1.
<mgrwt>
<rscale>  2 0.10820291E+04</rscale>
<asrwt>0</asrwt>
<pdfrwt beam="1">  1       21 0.22909719E+00 0.10824596E+04</pdfrwt>
<pdfrwt beam="2">  1       21 0.14241285E+00 0.10824596E+04</pdfrwt>
<totfact> 0.12595626E+01</totfact>
</mgrwt>
</event>
<event>
 8    1  0.7418332E-006  0.1090819E+04  0.7818608E-02  0.8701573E-01
         21   -1    0    0  503  502  0.00000000000E+00  0.00000000000E+00  0.21089283977E+04  0.21089283977E+04  0.00000000000E+00 0.  1.
         21   -1    0    0  501  503 -0.00000000000E+00 -0.00000000000E+00 -0.57534036502E+03  0.57534036502E+03  0.00000000000E+00 0.  1.
    9000010    2    1    2  501    0 -0.94777506609E+02 -0.31322432663E+03  0.10607709311E+04  0.14953858322E+04  0.10019239315E+04 0.  0.
   -9000010    2    1    2    0  502  0.94777506609E+02  0.31322432663E+03  0.47281710163E+03  0.11888829305E+04  0.10405740513E+04 0.  0.
        -13    1    3    3    0    0 -0.42978430927E+03  0.73274888748E+02  0.16949258920E+03  0.46777292651E+03  0.10566000000E+00 0.  1.
          4    1    3    3  501    0  0.33500680266E+03 -0.38649921538E+03  0.89127834186E+03  0.10276129057E+04  0.00000000000E+00 0.  1.
         13    1    4    4    0    0  0.26945112143E+03  0.61265292757E+03  0.50828904872E+03  0.84041970748E+03  0.10566000000E+00 0. -1.
         -4    1    4    4    0  502 -0.17467361482E+03 -0.29942860094E+03 -0.35471947099E+02  0.34846322303E+03  0.00000000000E+00 0. -1.
<mgrwt>
<rscale>  2 0.10814990E+04</rscale>
<asrwt>0</asrwt>
<pdfrwt beam="1">  1       21 0.32445052E+00 0.10908192E+04</pdfrwt>
<pdfrwt beam="2">  1       21 0.88513903E-01 0.10908192E+04</pdfrwt>
<totfact> 0.95953059E+00</totfact>
</mgrwt>
</event>
<event>
 8    1  0.7418332E-006  0.1037426E+04  0.7818608E-02  0.8743205E-01
         21   -1    0    0  503  502  0.00000000000E+00  0.00000000000E+00  0.94809743666E+03  0.94809743666E+03  0.00000000000E+00 0.  1.
         21   -1    0    0  501  503 -0.00000000000E+00 -0.00000000000E+00 -0.11314071385E+04  0.11314071385E+04  0.00000000000E+00 0.  1.
    9000010    2    1    2  501    0  0.11507302859E+03  0.18757013187E+03 -0.19345800836E+03  0.10553097465E+04  0.10138186740E+04 0.  0.
   -9000010    2    1    2    0  502 -0.11507302859E+03 -0.18757013187E+03  0.10148306570E+02  0.10241948286E+04  0.10002238262E+04 0.  0.
        -13    1    3    3    0    0  0.99357954860E+02  0.68337686208E+01  0.41168369422E+03  0.42355894376E+03  0.10566000000E+00 0.  1.
          4    1    3    3  501    0  0.15715073734E+02  0.18073636325E+03 -0.60514170258E+03  0.63175080273E+03  0.00000000000E+00 0.  1.
         13    1    4    4    0    0 -0.48335480039E+03  0.16221737391E+03  0.62133601171E+02  0.51362139268E+03  0.10566000000E+00 0. -1.
         -4    1    4    4    0  502  0.36828177180E+03 -0.34978750578E+03 -0.51985294601E+02  0.51057343595E+03  0.00000000000E+00 0. -1.
<mgrwt>
<rscale>  2 0.10340896E+04</rscale>
<asrwt>0</asrwt>
<pdfrwt beam="1">  1       21 0.14586114E+00 0.10374260E+04</pdfrwt>
<pdfrwt beam="2">  1       21 0.17406264E+00 0.10374260E+04</pdfrwt>
<totfact> 0.31845297E+01</totfact>
</mgrwt>
</event>
<event>
 8    1  0.7418332E-006  0.1033901E+04  0.7818608E-02  0.8751170E-01
         21   -1    0    0  501  502  0.00000000000E+00  0.00000000000E+00  0.10762348471E+04  0.10762348471E+04  0.00000000000E+00 0. -1.
         21   -1    0    0  502  503 -0.00000000000E+00 -0.00000000000E+00 -0.10653341388E+04  0.10653341388E+04  0.00000000000E+00 0. -1.
    9000010    2    1    2  501    0 -0.45267538204E+02 -0.76238888172E+02  0.34077145708E+03  0.10886125213E+04  0.10300924800E+04 0.  0.
   -9000010    2    1    2    0  503  0.45267538204E+02  0.76238888172E+02 -0.32987074876E+03  0.10529564646E+04  0.99601259402E+03 0.  0.
        -13    1    3    3    0    0 -0.40692788672E+03  0.30448850633E+03  0.18527499002E+03  0.54095322216E+03  0.10566000000E+00 0.  1.
          4    1    3    3  501    0  0.36166034852E+03 -0.38072739450E+03  0.15549646707E+03  0.54765929909E+03  0.00000000000E+00 0.  1.
         13    1    4    4    0    0  0.43575996134E+03  0.31844614390E+03 -0.15817728811E+03  0.56241866622E+03  0.10566000000E+00 0. -1.
         -4    1    4    4    0  503 -0.39049242314E+03 -0.24220725572E+03 -0.17169346065E+03  0.49053779842E+03  0.00000000000E+00 0. -1.
<mgrwt>
<rscale>  2 0.10253073E+04</rscale>
<asrwt>0</asrwt>
<pdfrwt beam="1">  1       21 0.16557459E+00 0.10339014E+04</pdfrwt>
<pdfrwt beam="2">  1       21 0.16389756E+00 0.10339014E+04</pdfrwt>
<totfact> 0.26074828E+01</totfact>
</mgrwt>
</event>
<event>
 8    1  0.7418332E-006  0.1035534E+04  0.7818608E-02  0.8746872E-01
         21   -1    0    0  501  502  0.00000000000E+00  0.00000000000E+00  0.11477644161E+04  0.11477644161E+04  0.00000000000E+00 0.  1.
         21   -1    0    0  502  503 -0.00000000000E+00 -0.00000000000E+00 -0.93264569140E+03  0.93264569140E+03  0.00000000000E+00 0.  1.
    9000010    2    1    2  501    0  0.12849738432E+03  0.16935581489E+03 -0.35629393787E+02  0.10361472624E+04  0.10134785276E+04 0.  0.
   -9000010    2    1    2    0  503 -0.12849738432E+03 -0.16935581489E+03  0.25074811848E+03  0.10442628450E+04  0.99116966298E+03 0.  0.
        -13    1    3    3    0    0  0.99337785105E+02  0.59779177422E+03 -0.28561112099E+02  0.60666197273E+03  0.10566000000E+00 0.  1.
          4    1    3    3  501    0  0.29159599216E+02 -0.42843595932E+03 -0.70682816872E+01  0.42948528971E+03  0.00000000000E+00 0.  1.
         13    1    4    4    0    0  0.23728798401E+03  0.31762871095E+03  0.16400195412E+03  0.42905738252E+03  0.10566000000E+00 0. -1.
         -4    1    4    4    0  503 -0.36578536833E+03 -0.48698452584E+03  0.86746164360E+02  0.61520546253E+03  0.00000000000E+00 0. -1.
<mgrwt>
<rscale>  2 0.10300350E+04</rscale>
<asrwt>0</asrwt>
<pdfrwt beam="1">  1       21 0.17657914E+00 0.10355345E+04</pdfrwt>
<pdfrwt beam="2">  1       21 0.14348395E+00 0.10355345E+04</pdfrwt>
<totfact> 0.31916999E+01</totfact>
</mgrwt>
</event>
<event>
 8    1  0.7418332E-006  0.1196183E+04  0.7818608E-02  0.8625430E-01
         21   -1    0    0  501  502  0.00000000000E+00  0.00000000000E+00  0.69593904928E+03  0.69593904928E+03  0.00000000000E+00 0. -1.
         21   -1    0    0  502  503 -0.00000000000E+00 -0.00000000000E+00 -0.20780408650E+04  0.20780408650E+04  0.00000000000E+00 0. -1.
    9000010    2    1    2  501    0  0.23099877961E+03  0.73585039445E+02 -0.28416827184E+03  0.11503077166E+04  0.10879710666E+04 0.  0.
   -9000010    2    1    2    0  503 -0.23099877961E+03 -0.73585039445E+02 -0.10979335439E+04  0.16236721977E+04  0.11713573941E+04 0.  0.
        -13    1    3    3    0    0  0.60950383255E+03 -0.10426404003E+03  0.42241838175E+02  0.61979859309E+03  0.10566000000E+00 0.  1.
          4    1    3    3  501    0 -0.37850505294E+03  0.17784907948E+03 -0.32641011001E+03  0.53050912348E+03  0.00000000000E+00 0.  1.
         13    1    4    4    0    0 -0.38552086180E+03 -0.31624657831E+03 -0.10413777615E+02  0.49874511637E+03  0.10566000000E+00 0. -1.
         -4    1    4    4    0  503  0.15452208218E+03  0.24266153887E+03 -0.10875197663E+04  0.11249270814E+04  0.00000000000E+00 0. -1.
<mgrwt>
<rscale>  2 0.11752582E+04</rscale>
<asrwt>0</asrwt>
<pdfrwt beam="1">  1       21 0.10706755E+00 0.11961828E+04</pdfrwt>
<pdfrwt beam="2">  1       21 0.31969859E+00 0.11961828E+04</pdfrwt>
<totfact> 0.61759794E+00</totfact>
</mgrwt>
</event>
<event>
 8    1  0.7418332E-006  0.1055313E+04  0.7818608E-02  0.8737872E-01
         21   -1    0    0  501  502  0.00000000000E+00  0.00000000000E+00  0.25687589527E+04  0.25687589527E+04  0.00000000000E+00 0. -1.
         21   -1    0    0  502  503 -0.00000000000E+00 -0.00000000000E+00 -0.42687560726E+03  0.42687560726E+03  0.00000000000E+00 0. -1.
    9000010    2    1    2  501    0 -0.43516645223E+02  0.16134192136E+03  0.79718434474E+03  0.13225688602E+04  0.10419983668E+04 0.  0.
   -9000010    2    1    2    0  503  0.43516645223E+02 -0.16134192136E+03  0.13446990008E+04  0.16730656998E+04  0.98132997468E+03 0.  0.
        -13    1    3    3    0    0  0.42152167812E+03  0.34426032614E+03  0.31856734244E+03  0.63061942574E+03  0.10566000000E+00 0.  1.
          4    1    3    3  501    0 -0.46503832334E+03 -0.18291840478E+03  0.47861700229E+03  0.69194943448E+03  0.00000000000E+00 0.  1.
         13    1    4    4    0    0 -0.14380001146E+03  0.38814438194E+03  0.59677815638E+03  0.72627727737E+03  0.10566000000E+00 0. -1.
         -4    1    4    4    0  503  0.18731665669E+03 -0.54948630330E+03  0.74792084437E+03  0.94678842242E+03  0.00000000000E+00 0. -1.
<mgrwt>
<rscale>  2 0.10400196E+04</rscale>
<asrwt>0</asrwt>
<pdfrwt beam="1">  1       21 0.39519368E+00 0.10553130E+04</pdfrwt>
<pdfrwt beam="2">  1       21 0.65673171E-01 0.10553130E+04</pdfrwt>
<totfact> 0.63696590E+00</totfact>
</mgrwt>
</event>
<event>
 8    1  0.7418332E-006  0.1043189E+04  0.7818608E-02  0.8740877E-01
         21   -1    0    0  501  502  0.00000000000E+00  0.00000000000E+00  0.16252311481E+04  0.16252311481E+04  0.00000000000E+00 0. -1.
         21   -1    0    0  502  503 -0.00000000000E+00 -0.00000000000E+00 -0.11170974335E+04  0.11170974335E+04  0.00000000000E+00 0. -1.
    9000010    2    1    2  501    0  0.85427390658E+02 -0.12360428579E+03  0.11395611045E+04  0.15449413003E+04  0.10323120904E+04 0.  0.
   -9000010    2    1    2    0  503 -0.85427390658E+02  0.12360428579E+03 -0.63142738989E+03  0.11973872812E+04  0.10062106608E+04 0.  0.
        -13    1    3    3    0    0 -0.44334130533E+03  0.11831756342E+03  0.55963708329E+03  0.72370175831E+03  0.10566000000E+00 0.  1.
          4    1    3    3  501    0  0.52876869599E+03 -0.24192184922E+03  0.57992402121E+03  0.82123954201E+03  0.00000000000E+00 0.  1.
         13    1    4    4    0    0 -0.33448765649E+03 -0.18555525091E+03 -0.69694758764E+03  0.79501490210E+03  0.10566000000E+00 0. -1.
         -4    1    4    4    0  503  0.24906026584E+03  0.30915953670E+03  0.65520197743E+02  0.40237237910E+03  0.00000000000E+00 0. -1.
<mgrwt>
<rscale>  2 0.10366730E+04</rscale>
<asrwt>0</asrwt>
<pdfrwt beam="1">  1       21 0.25003556E+00 0.10431894E+04</pdfrwt>
<pdfrwt beam="2">  1       21 0.17186114E+00 0.10431894E+04</pdfrwt>
<totfact> 0.49355361E+00</totfact>
</mgrwt>
</event>
<event>
 8    1  0.7418332E-006  0.1036620E+04  0.7818608E-02  0.8741893E-01
         21   -1    0    0  503  502  0.00000000000E+00  0.00000000000E+00  0.69867530526E+03  0.69867530526E+03  0.00000000000E+00 0. -1.
         21   -1    0    0  501  503 -0.00000000000E+00 -0.00000000000E+00 -0.15671130683E+04  0.15671130683E+04  0.00000000000E+00 0. -1.
    9000010    2    1    2  501    0 -0.18173392659E+03 -0.22291475268E+03 -0.60372801216E+03  0.11959044485E+04  0.99145435104E+03 0.  0.
   -9000010    2    1    2    0  502  0.18173392659E+03  0.22291475268E+03 -0.26470975090E+03  0.10698839251E+04  0.99592276504E+03 0.  0.
        -13    1    3    3    0    0 -0.36469132975E+03 -0.17964049938E+03  0.13908505084E+03  0.42966863691E+03  0.10566000000E+00 0.  1.
          4    1    3    3  501    0  0.18295740316E+03 -0.43274253307E+02 -0.74281306301E+03  0.76623581158E+03  0.00000000000E+00 0.  1.
         13    1    4    4    0    0 -0.27058025709E+03  0.23693435812E+03 -0.45413897688E+03  0.57930457194E+03  0.10566000000E+00 0. -1.
         -4    1    4    4    0  502  0.45231418368E+03 -0.14019605432E+02  0.18942922598E+03  0.49057935316E+03  0.00000000000E+00 0. -1.
<mgrwt>
<rscale>  2 0.10355449E+04</rscale>
<asrwt>0</asrwt>
<pdfrwt beam="1">  1       21 0.10748851E+00 0.10366197E+04</pdfrwt>
<pdfrwt beam="2">  1       21 0.24109431E+00 0.10366197E+04</pdfrwt>
<totfact> 0.23052914E+01</totfact>
</mgrwt>
</event>
<event>
 8    1  0.7418332E-006  0.9982526E+03  0.7818608E-02  0.8778875E-01
         21   -1    0    0  503  502  0.00000000000E+00  0.00000000000E+00  0.61982915539E+03  0.61982915539E+03  0.00000000000E+00 0.  1.
         21   -1    0    0  501  503 -0.00000000000E+00 -0.00000000000E+00 -0.17202499490E+04  0.17202499490E+04  0.00000000000E+00 0. -1.
    9000010    2    1    2  501    0 -0.17521985705E+03 -0.11183559144E+03 -0.87525394457E+03  0.13276210484E+04  0.97637031033E+03 0.  0.
   -9000010    2    1    2    0  502  0.17521985705E+03  0.11183559144E+03 -0.22516684901E+03  0.10124580559E+04  0.96496736076E+03 0.  0.
        -13    1    3    3    0    0 -0.14114598392E+03  0.41831927538E+03 -0.25076704198E+03  0.50773745720E+03  0.10566000000E+00 0.  1.
          4    1    3    3  501    0 -0.34073873130E+02 -0.53015486682E+03 -0.62448690259E+03  0.81988359122E+03  0.00000000000E+00 0.  1.
         13    1    4    4    0    0 -0.89810412241E+02 -0.39778961791E+03 -0.14322706766E+03  0.43222273695E+03  0.10566000000E+00 0. -1.
         -4    1    4    4    0  502  0.26503026929E+03  0.50962520935E+03 -0.81939781356E+02  0.58023531900E+03  0.00000000000E+00 0. -1.
<mgrwt>
<rscale>  2 0.99545328E+03</rscale>
<asrwt>0</asrwt>
<pdfrwt beam="1">  1       21 0.95358332E-01 0.99825256E+03</pdfrwt>
<pdfrwt beam="2">  1       21 0.26465384E+00 0.99825256E+03</pdfrwt>
<totfact> 0.21485487E+01</totfact>
</mgrwt>
</event>
<event>
 8    1  0.7418332E-006  0.9996250E+03  0.7818608E-02  0.8780311E-01
         21   -1    0    0  503  502  0.00000000000E+00  0.00000000000E+00  0.10568391035E+04  0.10568391035E+04  0.00000000000E+00 0.  1.
         21   -1    0    0  501  503 -0.00000000000E+00 -0.00000000000E+00 -0.92496239748E+03  0.92496239748E+03  0.00000000000E+00 0.  1.
    9000010    2    1    2  501    0 -0.36446916948E+02 -0.66196255293E+01  0.92017219621E+02  0.98138214828E+03  0.97635626441E+03 0.  0.
   -9000010    2    1    2    0  502  0.36446916948E+02  0.66196255293E+01  0.39859486434E+02  0.10004193527E+04  0.99893838922E+03 0.  0.
        -13    1    3    3    0    0 -0.12600720858E+03  0.45818894241E+03 -0.71558955501E+02  0.48055761240E+03  0.10566000000E+00 0.  1.
          4    1    3    3  501    0  0.89560291628E+02 -0.46480856794E+03  0.16357617512E+03  0.50082453587E+03  0.00000000000E+00 0.  1.
         13    1    4    4    0    0 -0.34837821699E+03 -0.33419751585E+03  0.56819327142E+02  0.48609032986E+03  0.10566000000E+00 0. -1.
         -4    1    4    4    0  502  0.38482513394E+03  0.34081714138E+03 -0.16959840708E+02  0.51432902287E+03  0.00000000000E+00 0. -1.
<mgrwt>
<rscale>  2 0.99393502E+03</rscale>
<asrwt>0</asrwt>
<pdfrwt beam="1">  1       21 0.16259063E+00 0.99962498E+03</pdfrwt>
<pdfrwt beam="2">  1       21 0.14230191E+00 0.99962498E+03</pdfrwt>
<totfact> 0.43219073E+01</totfact>
</mgrwt>
</event>
<event>
 8    1  0.7418332E-006  0.1008509E+04  0.7818608E-02  0.8767396E-01
         21   -1    0    0  503  502  0.00000000000E+00  0.00000000000E+00  0.17273614124E+04  0.17273614124E+04  0.00000000000E+00 0. -1.
         21   -1    0    0  501  503 -0.00000000000E+00 -0.00000000000E+00 -0.61935395954E+03  0.61935395954E+03  0.00000000000E+00 0. -1.
    9000010    2    1    2  501    0  0.10535310378E+03 -0.29662939103E+02  0.28460810984E+03  0.10447641861E+04  0.99927536840E+03 0.  0.
   -9000010    2    1    2    0  502 -0.10535310378E+03  0.29662939103E+02  0.82339934300E+03  0.13019511858E+04  0.10025523656E+04 0.  0.
        -13    1    3    3    0    0  0.74194369124E+02  0.32546497963E+03 -0.23954431560E+03  0.41086950200E+03  0.10566000000E+00 0.  1.
          4    1    3    3  501    0  0.31158734654E+02 -0.35512791873E+03  0.52415242544E+03  0.63389468408E+03  0.00000000000E+00 0.  1.
         13    1    4    4    0    0 -0.25170573233E+03 -0.44115312081E+03  0.33816837973E+03  0.61018826267E+03  0.10566000000E+00 0. -1.
         -4    1    4    4    0  502  0.14635262856E+03  0.47081605991E+03  0.48523096327E+03  0.69176292317E+03  0.00000000000E+00 0. -1.
<mgrwt>
<rscale>  2 0.10076936E+04</rscale>
<asrwt>0</asrwt>
<pdfrwt beam="1">  1       21 0.26574791E+00 0.10085090E+04</pdfrwt>
<pdfrwt beam="2">  1       21 0.95285225E-01 0.10085090E+04</pdfrwt>
<totfact> 0.21091820E+01</totfact>
</mgrwt>
</event>
